Built with Packmol
22149
    1LIG      O    1   2.627   2.620   0.038
    1LIG      C    2   2.692   2.670   0.126
    1LIG     C1    3   2.621   2.617   0.219
    1LIG     O1    4   2.685   2.667   0.308
    1LIG     C2    5   2.620   2.618   0.396
    1LIG     C3    6   2.691   2.673   0.487
    1LIG     O2    7   2.627   2.625   0.575
    1LIG     C4    8   2.690   2.675   0.664
    1LIG     C5    9   2.618   2.621   0.756
    1LIG     O3   10   2.681   2.670   0.844
    1LIG     C6   11   2.616   2.621   0.932
    1LIG     C7   12   2.688   2.677   1.023
    1LIG     O4   13   2.624   2.629   1.112
    1LIG     C8   14   2.688   2.679   1.200
    1LIG     C9   15   2.615   2.623   1.291
    1LIG     O5   16   2.678   2.673   1.379
    1LIG    C10   17   2.614   2.624   1.468
    1LIG    C11   18   2.687   2.680   1.559
    1LIG     O6   19   2.623   2.631   1.647
    1LIG    C12   20   2.686   2.680   1.735
    1LIG    C13   21   2.613   2.625   1.827
    1LIG     O7   22   2.677   2.674   1.915
    1LIG    C14   23   2.613   2.625   2.003
    1LIG    C15   24   2.685   2.680   2.095
    1LIG     O8   25   2.621   2.632   2.184
    1LIG    C16   26   2.685   2.681   2.272
    1LIG    C17   27   2.614   2.626   2.363
    1LIG     O9   28   2.677   2.675   2.452
    1LIG    C18   29   2.612   2.626   2.540
    1LIG    C19   30   2.684   2.681   2.631
    1LIG    O10   31   2.620   2.632   2.720
    1LIG    C20   32   2.684   2.682   2.807
    1LIG    C21   33   2.612   2.626   2.899
    1LIG    O11   34   2.676   2.675   2.987
    1LIG    C22   35   2.612   2.626   3.075
    1LIG    C23   36   2.684   2.682   3.166
    1LIG    O12   37   2.620   2.633   3.254
    1LIG    C24   38   2.684   2.682   3.343
    1LIG    C25   39   2.612   2.627   3.435
    1LIG    O13   40   2.675   2.676   3.524
    1LIG    C26   41   2.611   2.627   3.611
    1LIG    C27   42   2.683   2.682   3.703
    1LIG    O14   43   2.619   2.633   3.791
    1LIG    C28   44   2.684   2.682   3.879
    1LIG    C29   45   2.612   2.626   3.971
    1LIG    O15   46   2.676   2.676   4.059
    1LIG    C30   47   2.612   2.626   4.147
    1LIG    C31   48   2.684   2.681   4.238
    1LIG    O16   49   2.620   2.632   4.326
    1LIG    C32   50   2.684   2.681   4.415
    1LIG    C33   51   2.612   2.626   4.506
    1LIG    O17   52   2.676   2.675   4.595
    1LIG    C34   53   2.612   2.625   4.683
    1LIG    C35   54   2.683   2.680   4.774
    1LIG    O18   55   2.620   2.631   4.863
    1LIG    C36   56   2.684   2.681   4.951
    1LIG    C37   57   2.613   2.625   5.042
    1LIG    O19   58   2.677   2.674   5.131
    1LIG    C38   59   2.613   2.624   5.219
    1LIG    C39   60   2.684   2.679   5.311
    1LIG    O20   61   2.621   2.630   5.399
    1LIG    C40   62   2.685   2.679   5.487
    1LIG    C41   63   2.614   2.624   5.579
    1LIG    O21   64   2.677   2.673   5.667
    1LIG    C42   65   2.613   2.623   5.755
    1LIG    C43   66   2.685   2.678   5.846
    1LIG    O22   67   2.622   2.629   5.935
    1LIG    C44   68   2.686   2.678   6.023
    1LIG    C45   69   2.614   2.622   6.114
    1LIG    O23   70   2.677   2.671   6.202
    1LIG    C46   71   2.614   2.622   6.291
    1LIG    C47   72   2.686   2.678   6.382
    1LIG    O24   73   2.623   2.628   6.470
    1LIG    C48   74   2.686   2.677   6.558
    1LIG    C49   75   2.614   2.621   6.650
    1LIG    O25   76   2.678   2.670   6.738
    1LIG    C50   77   2.615   2.621   6.826
    1LIG    C51   78   2.687   2.677   6.917
    1LIG    O26   79   2.623   2.627   7.005
    1LIG    C52   80   2.687   2.676   7.094
    1LIG    C53   81   2.615   2.620   7.185
    1LIG    O27   82   2.679   2.669   7.273
    1LIG    C54   83   2.616   2.619   7.362
    1LIG    C55   84   2.688   2.675   7.454
    1LIG    O28   85   2.624   2.625   7.542
    1LIG    C56   86   2.688   2.674   7.630
    1LIG    C57   87   2.617   2.618   7.723
    1LIG    O29   88   2.681   2.667   7.811
    1LIG    C58   89   2.617   2.617   7.899
    1LIG    C59   90   2.688   2.672   7.991
    1LIG      H   91   2.689   2.780   0.125
    1LIG     H1   92   2.797   2.639   0.125
    1LIG     H2   93   2.624   2.508   0.219
    1LIG     H3   94   2.516   2.648   0.218
    1LIG     H4   95   2.622   2.508   0.397
    1LIG     H5   96   2.515   2.649   0.396
    1LIG     H6   97   2.689   2.783   0.486
    1LIG     H7   98   2.796   2.642   0.487
    1LIG     H8   99   2.688   2.784   0.664
    1LIG     H9  100   2.795   2.644   0.665
    1LIG    H10  101   2.621   2.511   0.755
    1LIG    H11  102   2.513   2.651   0.754
    1LIG    H12  103   2.619   2.512   0.933
    1LIG    H13  104   2.511   2.652   0.933
    1LIG    H14  105   2.685   2.787   1.022
    1LIG    H15  106   2.793   2.647   1.023
    1LIG    H16  107   2.685   2.788   1.201
    1LIG    H17  108   2.793   2.648   1.202
    1LIG    H18  109   2.618   2.514   1.290
    1LIG    H19  110   2.510   2.655   1.290
    1LIG    H20  111   2.617   2.515   1.469
    1LIG    H21  112   2.509   2.655   1.469
    1LIG    H22  113   2.684   2.789   1.558
    1LIG    H23  114   2.792   2.649   1.558
    1LIG    H24  115   2.683   2.790   1.736
    1LIG    H25  116   2.791   2.649   1.737
    1LIG    H26  117   2.616   2.515   1.826
    1LIG    H27  118   2.508   2.656   1.825
    1LIG    H28  119   2.616   2.515   2.004
    1LIG    H29  120   2.508   2.656   2.004
    1LIG    H30  121   2.682   2.790   2.094
    1LIG    H31  122   2.790   2.649   2.094
    1LIG    H32  123   2.682   2.791   2.272
    1LIG    H33  124   2.790   2.650   2.273
    1LIG    H34  125   2.616   2.517   2.362
    1LIG    H35  126   2.508   2.657   2.362
    1LIG    H36  127   2.615   2.516   2.541
    1LIG    H37  128   2.507   2.657   2.541
    1LIG    H38  129   2.681   2.791   2.630
    1LIG    H39  130   2.789   2.650   2.630
    1LIG    H40  131   2.682   2.791   2.809
    1LIG    H41  132   2.790   2.651   2.809
    1LIG    H42  133   2.615   2.517   2.897
    1LIG    H43  134   2.507   2.657   2.897
    1LIG    H44  135   2.615   2.517   3.076
    1LIG    H45  136   2.507   2.657   3.076
    1LIG    H46  137   2.681   2.792   3.165
    1LIG    H47  138   2.789   2.651   3.165
    1LIG    H48  139   2.681   2.792   3.344
    1LIG    H49  140   2.789   2.651   3.344
    1LIG    H50  141   2.614   2.517   3.434
    1LIG    H51  142   2.507   2.658   3.434
    1LIG    H52  143   2.614   2.517   3.612
    1LIG    H53  144   2.506   2.658   3.612
    1LIG    H54  145   2.680   2.792   3.702
    1LIG    H55  146   2.788   2.651   3.701
    1LIG    H56  147   2.681   2.791   3.880
    1LIG    H57  148   2.789   2.651   3.880
    1LIG    H58  149   2.615   2.517   3.970
    1LIG    H59  150   2.507   2.657   3.970
    1LIG    H60  151   2.615   2.516   4.148
    1LIG    H61  152   2.507   2.657   4.148
    1LIG    H62  153   2.681   2.791   4.237
    1LIG    H63  154   2.789   2.651   4.237
    1LIG    H64  155   2.681   2.791   4.416
    1LIG    H65  156   2.789   2.650   4.416
    1LIG    H66  157   2.615   2.516   4.505
    1LIG    H67  158   2.507   2.657   4.505
    1LIG    H68  159   2.615   2.516   4.683
    1LIG    H69  160   2.507   2.656   4.683
    1LIG    H70  161   2.680   2.790   4.773
    1LIG    H71  162   2.789   2.650   4.773
    1LIG    H72  163   2.681   2.790   4.952
    1LIG    H73  164   2.789   2.650   4.951
    1LIG    H74  165   2.616   2.516   5.041
    1LIG    H75  166   2.508   2.656   5.042
    1LIG    H76  167   2.616   2.515   5.219
    1LIG    H77  168   2.507   2.655   5.220
    1LIG    H78  169   2.681   2.789   5.310
    1LIG    H79  170   2.789   2.648   5.309
    1LIG    H80  171   2.682   2.789   5.488
    1LIG    H81  172   2.790   2.649   5.488
    1LIG    H82  173   2.617   2.514   5.577
    1LIG    H83  174   2.508   2.654   5.578
    1LIG    H84  175   2.617   2.513   5.756
    1LIG    H85  176   2.508   2.654   5.756
    1LIG    H86  177   2.682   2.788   5.845
    1LIG    H87  178   2.791   2.648   5.845
    1LIG    H88  179   2.683   2.788   6.024
    1LIG    H89  180   2.791   2.648   6.024
    1LIG    H90  181   2.617   2.513   6.113
    1LIG    H91  182   2.509   2.653   6.113
    1LIG    H92  183   2.617   2.512   6.292
    1LIG    H93  184   2.509   2.652   6.292
    1LIG    H94  185   2.683   2.787   6.381
    1LIG    H95  186   2.792   2.647   6.381
    1LIG    H96  187   2.683   2.786   6.560
    1LIG    H97  188   2.791   2.646   6.560
    1LIG    H98  189   2.617   2.511   6.648
    1LIG    H99  190   2.509   2.651   6.649
    1LIG   H100  191   2.618   2.511   6.827
    1LIG   H101  192   2.510   2.651   6.828
    1LIG   H102  193   2.684   2.786   6.916
    1LIG   H103  194   2.792   2.646   6.916
    1LIG   H104  195   2.684   2.785   7.095
    1LIG   H105  196   2.792   2.645   7.095
    1LIG   H106  197   2.619   2.510   7.184
    1LIG   H107  198   2.510   2.650   7.184
    1LIG   H108  199   2.619   2.510   7.363
    1LIG   H109  200   2.511   2.650   7.363
    1LIG   H110  201   2.684   2.784   7.453
    1LIG   H111  202   2.793   2.644   7.452
    1LIG   H112  203   2.685   2.784   7.631
    1LIG   H113  204   2.794   2.644   7.631
    1LIG   H114  205   2.621   2.509   7.721
    1LIG   H115  206   2.512   2.649   7.722
    1LIG   H116  207   2.621   2.508   7.899
    1LIG   H117  208   2.512   2.649   7.900
    1LIG   H118  209   2.793   2.642   7.991
    1LIG   H119  210   2.641   2.635   8.060
    1MOL     C1  211   2.303   2.237   3.537
    1MOL     H1  212   2.295   2.130   3.559
    1MOL     O1  213   2.254   2.301   3.654
    1MOL     C2  214   2.257   2.445   3.652
    1MOL     H2  215   2.361   2.480   3.646
    1MOL     C3  216   2.195   2.491   3.782
    1MOL     H3  217   2.094   2.447   3.790
    1MOL     H4  218   2.185   2.600   3.782
    1MOL     O2  219   2.274   2.448   3.892
    1MOL     C4  220   2.218   2.490   4.015
    1MOL     C5  221   2.210   2.275   3.420
    1MOL     H5  222   2.109   2.244   3.449
    1MOL     O3  223   2.245   2.215   3.297
    1MOL     C6  224   2.209   2.078   3.286
    1MOL     C7  225   2.210   2.427   3.399
    1MOL     H6  226   2.309   2.458   3.364
    1MOL     O4  227   2.109   2.463   3.306
    1MOL     C8  228   2.157   2.494   3.176
    1MOL     C9  229   2.179   2.501   3.530
    1MOL     H7  230   2.071   2.491   3.549
    1MOL     O5  231   2.211   2.639   3.508
    1MOL    C10  232   2.118   2.737   3.546
    1MOL     H8  233   2.021   2.692   3.568
    1MOL     O6  234   2.155   2.803   3.666
    1MOL    C11  235   2.284   2.866   3.663
    1MOL     H9  236   2.362   2.792   3.640
    1MOL    C12  237   2.308   2.922   3.802
    1MOL    H10  238   2.222   2.985   3.831
    1MOL    H11  239   2.398   2.986   3.802
    1MOL     O7  240   2.325   2.815   3.894
    1MOL    C13  241   2.363   2.861   4.022
    1MOL    C14  242   2.105   2.844   3.436
    1MOL    H12  243   2.026   2.913   3.469
    1MOL     O8  244   2.071   2.792   3.309
    1MOL    C15  245   1.937   2.748   3.296
    1MOL    C16  246   2.234   2.925   3.420
    1MOL    H13  247   2.311   2.860   3.376
    1MOL     O9  248   2.210   3.038   3.337
    1MOL    C17  249   2.257   3.024   3.203
    1MOL    C18  250   2.286   2.976   3.555
    1MOL    H14  251   2.222   3.059   3.586
    1MOL    O10  252   2.420   3.024   3.532
    1MOL    C19  253   2.456   3.152   3.579
    1MOL    H15  254   2.367   3.206   3.612
    1MOL    O11  255   2.540   3.146   3.692
    1MOL    C20  256   2.663   3.075   3.674
    1MOL    H16  257   2.642   2.970   3.651
    1MOL    C21  258   2.738   3.085   3.806
    1MOL    H17  259   2.735   3.190   3.840
    1MOL    H18  260   2.843   3.056   3.792
    1MOL    O12  261   2.676   3.001   3.902
    1MOL    C22  262   2.743   3.005   4.027
    1MOL    C23  263   2.529   3.230   3.468
    1MOL    H19  264   2.551   3.330   3.510
    1MOL    O13  265   2.455   3.244   3.349
    1MOL    C24  266   2.348   3.337   3.355
    1MOL    C25  267   2.662   3.163   3.433
    1MOL    H20  268   2.641   3.068   3.384
    1MOL    O14  269   2.738   3.248   3.348
    1MOL    C26  270   2.735   3.212   3.211
    1MOL    C27  271   2.746   3.135   3.558
    1MOL    H21  272   2.791   3.231   3.590
    1MOL    O15  273   2.850   3.045   3.519
    1MOL    C28  274   2.984   3.075   3.549
    1MOL    H22  275   2.993   3.180   3.577
    1MOL    O16  276   3.031   3.003   3.662
    1MOL    C29  277   3.023   2.860   3.649
    1MOL    H23  278   2.918   2.831   3.634
    1MOL    C30  279   3.070   2.801   3.781
    1MOL    H24  280   3.044   2.694   3.784
    1MOL    H25  281   3.016   2.851   3.864
    1MOL    O17  282   3.210   2.818   3.795
    1MOL    C31  283   3.261   2.752   3.908
    1MOL    C32  284   3.074   3.041   3.428
    1MOL    H26  285   3.176   3.071   3.457
    1MOL    O18  286   3.036   3.106   3.309
    1MOL    C33  287   3.072   3.243   3.303
    1MOL    C34  288   3.075   2.890   3.401
    1MOL    H27  289   2.976   2.860   3.363
    1MOL    O19  290   3.176   2.860   3.306
    1MOL    C35  291   3.128   2.830   3.176
    1MOL    C36  292   3.105   2.811   3.528
    1MOL    H28  293   3.212   2.822   3.552
    1MOL    O20  294   3.075   2.673   3.500
    1MOL    C37  295   3.167   2.574   3.539
    1MOL    H29  296   3.263   2.620   3.566
    1MOL    O21  297   3.127   2.505   3.655
    1MOL    C38  298   2.999   2.439   3.644
    1MOL    H30  299   2.922   2.514   3.621
    1MOL    C39  300   2.968   2.379   3.781
    1MOL    H31  301   2.861   2.355   3.787
    1MOL    H32  302   2.989   2.455   3.858
    1MOL    O22  303   3.047   2.264   3.802
    1MOL    C40  304   3.009   2.195   3.920
    1MOL    C41  305   3.185   2.473   3.424
    1MOL    H33  306   3.263   2.402   3.456
    1MOL    O23  307   3.222   2.531   3.301
    1MOL    C42  308   3.356   2.576   3.294
    1MOL    C43  309   3.056   2.393   3.400
    1MOL    H34  310   2.981   2.460   3.357
    1MOL    O24  311   3.083   2.284   3.312
    1MOL    C44  312   3.037   2.303   3.179
    1MOL    C45  313   3.001   2.335   3.531
    1MOL    H35  314   3.065   2.251   3.561
    1MOL    O25  315   2.869   2.287   3.503
    1MOL    C46  316   2.832   2.159   3.548
    1MOL    H36  317   2.921   2.103   3.578
    1MOL    O26  318   2.751   2.163   3.664
    1MOL    C47  319   2.630   2.238   3.651
    1MOL    H37  320   2.653   2.342   3.626
    1MOL    C48  321   2.563   2.233   3.788
    1MOL    H38  322   2.554   2.128   3.819
    1MOL    H39  323   2.462   2.276   3.782
    1MOL    O27  324   2.643   2.306   3.879
    1MOL    C49  325   2.583   2.316   4.007
    1MOL    C50  326   2.754   2.086   3.437
    1MOL    H40  327   2.733   1.985   3.476
    1MOL    O28  328   2.823   2.076   3.314
    1MOL    C51  329   2.933   1.986   3.315
    1MOL    C52  330   2.620   2.155   3.410
    1MOL    H41  331   2.639   2.252   3.363
    1MOL    O29  332   2.539   2.073   3.326
    1MOL    C53  333   2.541   2.110   3.188
    1MOL    C54  334   2.541   2.180   3.539
    1MOL    H42  335   2.498   2.084   3.572
    1MOL    O30  336   2.435   2.272   3.507
    1MOL    H43  337   2.379   2.773   4.084
    1MOL    H44  338   2.456   2.919   4.017
    1MOL    H45  339   2.285   2.923   4.068
    1MOL    H46  340   2.286   2.457   4.094
    1MOL    H47  341   2.207   2.599   4.019
    1MOL    H48  342   2.119   2.444   4.032
    1MOL    H49  343   2.651   2.375   4.069
    1MOL    H50  344   2.486   2.366   4.001
    1MOL    H51  345   2.570   2.217   4.053
    1MOL    H52  346   3.071   2.105   3.926
    1MOL    H53  347   3.028   2.256   4.010
    1MOL    H54  348   2.903   2.167   3.918
    1MOL    H55  349   3.369   2.771   3.910
    1MOL    H56  350   3.217   2.791   4.001
    1MOL    H57  351   3.243   2.644   3.903
    1MOL    H58  352   2.690   2.937   4.094
    1MOL    H59  353   2.848   2.973   4.018
    1MOL    H60  354   2.741   3.106   4.070
    1MOL    H61  355   3.377   2.598   3.189
    1MOL    H62  356   3.372   2.668   3.352
    1MOL    H63  357   3.426   2.499   3.329
    1MOL    H64  358   3.216   2.816   3.113
    1MOL    H65  359   3.069   2.738   3.176
    1MOL    H66  360   3.069   2.913   3.135
    1MOL    H67  361   3.057   3.275   3.200
    1MOL    H68  362   3.009   3.306   3.368
    1MOL    H69  363   3.178   3.258   3.330
    1MOL    H70  364   2.792   3.290   3.157
    1MOL    H71  365   2.784   3.115   3.194
    1MOL    H72  366   2.632   3.210   3.172
    1MOL    H73  367   2.315   3.354   3.252
    1MOL    H74  368   2.263   3.299   3.413
    1MOL    H75  369   2.381   3.433   3.398
    1MOL    H76  370   2.227   3.116   3.151
    1MOL    H77  371   2.366   3.016   3.200
    1MOL    H78  372   2.211   2.938   3.154
    1MOL    H79  373   1.919   2.733   3.189
    1MOL    H80  374   1.919   2.654   3.348
    1MOL    H81  375   1.867   2.825   3.333
    1MOL    H82  376   2.069   2.513   3.114
    1MOL    H83  377   2.219   2.584   3.178
    1MOL    H84  378   2.214   2.410   3.133
    1MOL    H85  379   2.221   2.051   3.181
    1MOL    H86  380   2.275   2.014   3.346
    1MOL    H87  381   2.105   2.062   3.316
    1MOL    H88  382   2.481   2.036   3.135
    1MOL    H89  383   2.495   2.209   3.174
    1MOL    H90  384   2.643   2.110   3.148
    1MOL    H91  385   2.961   1.971   3.210
    1MOL    H92  386   3.019   2.027   3.369
    1MOL    H93  387   2.904   1.889   3.358
    1MOL    H94  388   3.069   2.215   3.123
    1MOL    H95  389   2.927   2.309   3.176
    1MOL    H96  390   3.080   2.393   3.134
    1MOL     C1  391   2.303   2.237   4.537
    1MOL     H1  392   2.295   2.130   4.559
    1MOL     O1  393   2.254   2.301   4.654
    1MOL     C2  394   2.257   2.445   4.652
    1MOL     H2  395   2.361   2.480   4.646
    1MOL     C3  396   2.195   2.491   4.782
    1MOL     H3  397   2.094   2.447   4.790
    1MOL     H4  398   2.185   2.600   4.782
    1MOL     O2  399   2.274   2.448   4.892
    1MOL     C4  400   2.218   2.490   5.015
    1MOL     C5  401   2.210   2.275   4.420
    1MOL     H5  402   2.109   2.244   4.449
    1MOL     O3  403   2.245   2.215   4.297
    1MOL     C6  404   2.209   2.078   4.286
    1MOL     C7  405   2.210   2.427   4.399
    1MOL     H6  406   2.309   2.458   4.364
    1MOL     O4  407   2.109   2.463   4.306
    1MOL     C8  408   2.157   2.494   4.176
    1MOL     C9  409   2.179   2.501   4.530
    1MOL     H7  410   2.071   2.491   4.549
    1MOL     O5  411   2.211   2.639   4.508
    1MOL    C10  412   2.118   2.737   4.546
    1MOL     H8  413   2.021   2.692   4.568
    1MOL     O6  414   2.155   2.803   4.666
    1MOL    C11  415   2.284   2.866   4.663
    1MOL     H9  416   2.362   2.792   4.640
    1MOL    C12  417   2.308   2.922   4.802
    1MOL    H10  418   2.222   2.985   4.831
    1MOL    H11  419   2.398   2.986   4.802
    1MOL     O7  420   2.325   2.815   4.894
    1MOL    C13  421   2.363   2.861   5.022
    1MOL    C14  422   2.105   2.844   4.436
    1MOL    H12  423   2.026   2.913   4.469
    1MOL     O8  424   2.071   2.792   4.309
    1MOL    C15  425   1.937   2.748   4.296
    1MOL    C16  426   2.234   2.925   4.420
    1MOL    H13  427   2.311   2.860   4.376
    1MOL     O9  428   2.210   3.038   4.337
    1MOL    C17  429   2.257   3.024   4.203
    1MOL    C18  430   2.286   2.976   4.555
    1MOL    H14  431   2.222   3.059   4.586
    1MOL    O10  432   2.420   3.024   4.532
    1MOL    C19  433   2.456   3.152   4.579
    1MOL    H15  434   2.367   3.206   4.612
    1MOL    O11  435   2.540   3.146   4.692
    1MOL    C20  436   2.663   3.075   4.674
    1MOL    H16  437   2.642   2.970   4.651
    1MOL    C21  438   2.738   3.085   4.806
    1MOL    H17  439   2.735   3.190   4.840
    1MOL    H18  440   2.843   3.056   4.792
    1MOL    O12  441   2.676   3.001   4.902
    1MOL    C22  442   2.743   3.005   5.027
    1MOL    C23  443   2.529   3.230   4.468
    1MOL    H19  444   2.551   3.330   4.510
    1MOL    O13  445   2.455   3.244   4.349
    1MOL    C24  446   2.348   3.337   4.355
    1MOL    C25  447   2.662   3.163   4.433
    1MOL    H20  448   2.641   3.068   4.384
    1MOL    O14  449   2.738   3.248   4.348
    1MOL    C26  450   2.735   3.212   4.211
    1MOL    C27  451   2.746   3.135   4.558
    1MOL    H21  452   2.791   3.231   4.590
    1MOL    O15  453   2.850   3.045   4.519
    1MOL    C28  454   2.984   3.075   4.549
    1MOL    H22  455   2.993   3.180   4.577
    1MOL    O16  456   3.031   3.003   4.662
    1MOL    C29  457   3.023   2.860   4.649
    1MOL    H23  458   2.918   2.831   4.634
    1MOL    C30  459   3.070   2.801   4.781
    1MOL    H24  460   3.044   2.694   4.784
    1MOL    H25  461   3.016   2.851   4.864
    1MOL    O17  462   3.210   2.818   4.795
    1MOL    C31  463   3.261   2.752   4.908
    1MOL    C32  464   3.074   3.041   4.428
    1MOL    H26  465   3.176   3.071   4.457
    1MOL    O18  466   3.036   3.106   4.309
    1MOL    C33  467   3.072   3.243   4.303
    1MOL    C34  468   3.075   2.890   4.401
    1MOL    H27  469   2.976   2.860   4.363
    1MOL    O19  470   3.176   2.860   4.306
    1MOL    C35  471   3.128   2.830   4.176
    1MOL    C36  472   3.105   2.811   4.528
    1MOL    H28  473   3.212   2.822   4.552
    1MOL    O20  474   3.075   2.673   4.500
    1MOL    C37  475   3.167   2.574   4.539
    1MOL    H29  476   3.263   2.620   4.566
    1MOL    O21  477   3.127   2.505   4.655
    1MOL    C38  478   2.999   2.439   4.644
    1MOL    H30  479   2.922   2.514   4.621
    1MOL    C39  480   2.968   2.379   4.781
    1MOL    H31  481   2.861   2.355   4.787
    1MOL    H32  482   2.989   2.455   4.858
    1MOL    O22  483   3.047   2.264   4.802
    1MOL    C40  484   3.009   2.195   4.920
    1MOL    C41  485   3.185   2.473   4.424
    1MOL    H33  486   3.263   2.402   4.456
    1MOL    O23  487   3.222   2.531   4.301
    1MOL    C42  488   3.356   2.576   4.294
    1MOL    C43  489   3.056   2.393   4.400
    1MOL    H34  490   2.981   2.460   4.357
    1MOL    O24  491   3.083   2.284   4.312
    1MOL    C44  492   3.037   2.303   4.179
    1MOL    C45  493   3.001   2.335   4.531
    1MOL    H35  494   3.065   2.251   4.561
    1MOL    O25  495   2.869   2.287   4.503
    1MOL    C46  496   2.832   2.159   4.548
    1MOL    H36  497   2.921   2.103   4.578
    1MOL    O26  498   2.751   2.163   4.664
    1MOL    C47  499   2.630   2.238   4.651
    1MOL    H37  500   2.653   2.342   4.626
    1MOL    C48  501   2.563   2.233   4.788
    1MOL    H38  502   2.554   2.128   4.819
    1MOL    H39  503   2.462   2.276   4.782
    1MOL    O27  504   2.643   2.306   4.879
    1MOL    C49  505   2.583   2.316   5.007
    1MOL    C50  506   2.754   2.086   4.437
    1MOL    H40  507   2.733   1.985   4.476
    1MOL    O28  508   2.823   2.076   4.314
    1MOL    C51  509   2.933   1.986   4.315
    1MOL    C52  510   2.620   2.155   4.410
    1MOL    H41  511   2.639   2.252   4.363
    1MOL    O29  512   2.539   2.073   4.326
    1MOL    C53  513   2.541   2.110   4.188
    1MOL    C54  514   2.541   2.180   4.539
    1MOL    H42  515   2.498   2.084   4.572
    1MOL    O30  516   2.435   2.272   4.507
    1MOL    H43  517   2.379   2.773   5.084
    1MOL    H44  518   2.456   2.919   5.017
    1MOL    H45  519   2.285   2.923   5.068
    1MOL    H46  520   2.286   2.457   5.094
    1MOL    H47  521   2.207   2.599   5.019
    1MOL    H48  522   2.119   2.444   5.032
    1MOL    H49  523   2.651   2.375   5.069
    1MOL    H50  524   2.486   2.366   5.001
    1MOL    H51  525   2.570   2.217   5.053
    1MOL    H52  526   3.071   2.105   4.926
    1MOL    H53  527   3.028   2.256   5.010
    1MOL    H54  528   2.903   2.167   4.918
    1MOL    H55  529   3.369   2.771   4.910
    1MOL    H56  530   3.217   2.791   5.001
    1MOL    H57  531   3.243   2.644   4.903
    1MOL    H58  532   2.690   2.937   5.094
    1MOL    H59  533   2.848   2.973   5.018
    1MOL    H60  534   2.741   3.106   5.070
    1MOL    H61  535   3.377   2.598   4.189
    1MOL    H62  536   3.372   2.668   4.352
    1MOL    H63  537   3.426   2.499   4.329
    1MOL    H64  538   3.216   2.816   4.113
    1MOL    H65  539   3.069   2.738   4.176
    1MOL    H66  540   3.069   2.913   4.135
    1MOL    H67  541   3.057   3.275   4.200
    1MOL    H68  542   3.009   3.306   4.368
    1MOL    H69  543   3.178   3.258   4.330
    1MOL    H70  544   2.792   3.290   4.157
    1MOL    H71  545   2.784   3.115   4.194
    1MOL    H72  546   2.632   3.210   4.172
    1MOL    H73  547   2.315   3.354   4.252
    1MOL    H74  548   2.263   3.299   4.413
    1MOL    H75  549   2.381   3.433   4.398
    1MOL    H76  550   2.227   3.116   4.151
    1MOL    H77  551   2.366   3.016   4.200
    1MOL    H78  552   2.211   2.938   4.154
    1MOL    H79  553   1.919   2.733   4.189
    1MOL    H80  554   1.919   2.654   4.348
    1MOL    H81  555   1.867   2.825   4.333
    1MOL    H82  556   2.069   2.513   4.114
    1MOL    H83  557   2.219   2.584   4.178
    1MOL    H84  558   2.214   2.410   4.133
    1MOL    H85  559   2.221   2.051   4.181
    1MOL    H86  560   2.275   2.014   4.346
    1MOL    H87  561   2.105   2.062   4.316
    1MOL    H88  562   2.481   2.036   4.135
    1MOL    H89  563   2.495   2.209   4.174
    1MOL    H90  564   2.643   2.110   4.148
    1MOL    H91  565   2.961   1.971   4.210
    1MOL    H92  566   3.019   2.027   4.369
    1MOL    H93  567   2.904   1.889   4.358
    1MOL    H94  568   3.069   2.215   4.123
    1MOL    H95  569   2.927   2.309   4.176
    1MOL    H96  570   3.080   2.393   4.134
    2SOL     OW  571   0.230   0.628   0.113
    2SOL    HW1  572   0.137   0.626   0.150
    2SOL    HW2  573   0.231   0.589   0.021
    3SOL     OW  574   0.225   0.275   0.996
    3SOL    HW1  575   0.260   0.258   1.088
    3SOL    HW2  576   0.137   0.230   0.984
    4SOL     OW  577   0.019   0.368   0.647
    4SOL    HW1  578  -0.063   0.411   0.686
    4SOL    HW2  579  -0.009   0.295   0.584
    5SOL     OW  580   0.569   1.275   1.165
    5SOL    HW1  581   0.476   1.268   1.128
    5SOL    HW2  582   0.580   1.364   1.209
    6SOL     OW  583   1.555   1.511   0.703
    6SOL    HW1  584   1.498   1.495   0.784
    6SOL    HW2  585   1.496   1.521   0.623
    7SOL     OW  586   1.135   0.703   0.717
    7SOL    HW1  587   1.192   0.781   0.692
    7SOL    HW2  588   1.075   0.729   0.793
    8SOL     OW  589   1.755   0.607   0.231
    8SOL    HW1  590   1.743   0.594   0.132
    8SOL    HW2  591   1.725   0.526   0.280
    9SOL     OW  592   0.768   1.144   1.023
    9SOL    HW1  593   0.690   1.161   1.083
    9SOL    HW2  594   0.802   1.231   0.987
   10SOL     OW  595   0.850   0.798   1.823
   10SOL    HW1  596   0.846   0.874   1.888
   10SOL    HW2  597   0.872   0.834   1.732
   11SOL     OW  598   0.685   1.012   0.665
   11SOL    HW1  599   0.754   0.996   0.735
   11SOL    HW2  600   0.612   1.069   0.703
   12SOL     OW  601   0.686   1.161   1.803
   12SOL    HW1  602   0.746   1.240   1.817
   12SOL    HW2  603   0.600   1.192   1.762
   13SOL     OW  604   0.335   1.435   1.061
   13SOL    HW1  605   0.257   1.404   1.008
   13SOL    HW2  606   0.393   1.493   1.004
   14SOL     OW  607   1.460   1.505   1.339
   14SOL    HW1  608   1.484   1.599   1.365
   14SOL    HW2  609   1.444   1.451   1.421
   15SOL     OW  610   0.438   0.392   1.499
   15SOL    HW1  611   0.520   0.336   1.508
   15SOL    HW2  612   0.357   0.334   1.503
   16SOL     OW  613   1.603   0.447   0.737
   16SOL    HW1  614   1.529   0.493   0.687
   16SOL    HW2  615   1.654   0.515   0.790
   17SOL     OW  616   0.231   1.713   0.483
   17SOL    HW1  617   0.265   1.790   0.537
   17SOL    HW2  618   0.275   1.713   0.393
   18SOL     OW  619   1.127   1.341   1.690
   18SOL    HW1  620   1.174   1.341   1.778
   18SOL    HW2  621   1.079   1.254   1.679
   19SOL     OW  622   0.230   1.434   0.538
   19SOL    HW1  623   0.204   1.530   0.538
   19SOL    HW2  624   0.159   1.380   0.583
   20SOL     OW  625   0.240   1.091   0.886
   20SOL    HW1  626   0.254   1.007   0.938
   20SOL    HW2  627   0.185   1.155   0.941
   21SOL     OW  628   0.620   1.786   1.439
   21SOL    HW1  629   0.528   1.769   1.474
   21SOL    HW2  630   0.648   1.878   1.465
   22SOL     OW  631   0.606   0.964   0.123
   22SOL    HW1  632   0.613   1.048   0.069
   22SOL    HW2  633   0.652   0.977   0.211
   23SOL     OW  634   1.594   0.114   1.480
   23SOL    HW1  635   1.576   0.181   1.408
   23SOL    HW2  636   1.591   0.160   1.569
   24SOL     OW  637   0.122   0.643   0.563
   24SOL    HW1  638   0.077   0.555   0.580
   24SOL    HW2  639   0.121   0.697   0.647
   25SOL     OW  640   1.842   1.767   0.359
   25SOL    HW1  641   1.896   1.738   0.439
   25SOL    HW2  642   1.872   1.857   0.330
   26SOL     OW  643   0.027   1.596   0.117
   26SOL    HW1  644   0.008   1.500   0.138
   26SOL    HW2  645  -0.006   1.654   0.192
   27SOL     OW  646   1.689   0.922   0.612
   27SOL    HW1  647   1.784   0.893   0.620
   27SOL    HW2  648   1.681   0.987   0.537
   28SOL     OW  649   1.641   1.108   0.432
   28SOL    HW1  650   1.727   1.110   0.380
   28SOL    HW2  651   1.655   1.155   0.520
   29SOL     OW  652   0.113   0.737   1.597
   29SOL    HW1  653   0.201   0.724   1.642
   29SOL    HW2  654   0.100   0.834   1.575
   30SOL     OW  655   0.613   1.365   0.726
   30SOL    HW1  656   0.564   1.278   0.735
   30SOL    HW2  657   0.590   1.408   0.639
   31SOL     OW  658   1.293   1.228   1.423
   31SOL    HW1  659   1.330   1.155   1.365
   31SOL    HW2  660   1.345   1.233   1.508
   32SOL     OW  661   0.809   0.004   0.502
   32SOL    HW1  662   0.849   0.095   0.493
   32SOL    HW2  663   0.709   0.012   0.508
   33SOL     OW  664   0.197   0.976   1.264
   33SOL    HW1  665   0.286   0.931   1.250
   33SOL    HW2  666   0.124   0.911   1.245
   34SOL     OW  667   1.525   0.999   0.190
   34SOL    HW1  668   1.462   0.923   0.203
   34SOL    HW2  669   1.573   1.017   0.276
   35SOL     OW  670   1.187   1.792   1.616
   35SOL    HW1  671   1.211   1.852   1.540
   35SOL    HW2  672   1.194   1.697   1.586
   36SOL     OW  673   0.317   0.251   1.801
   36SOL    HW1  674   0.388   0.322   1.807
   36SOL    HW2  675   0.229   0.290   1.829
   37SOL     OW  676   1.466   1.417   0.953
   37SOL    HW1  677   1.407   1.423   1.033
   37SOL    HW2  678   1.451   1.329   0.907
   38SOL     OW  679   1.667   1.714   0.572
   38SOL    HW1  680   1.626   1.691   0.484
   38SOL    HW2  681   1.649   1.640   0.637
   39SOL     OW  682   0.598   0.729   0.270
   39SOL    HW1  683   0.622   0.798   0.202
   39SOL    HW2  684   0.520   0.762   0.324
   40SOL     OW  685   1.281   0.345   0.944
   40SOL    HW1  686   1.195   0.295   0.931
   40SOL    HW2  687   1.343   0.291   1.000
   41SOL     OW  688   1.576   1.662   0.307
   41SOL    HW1  689   1.665   1.708   0.310
   41SOL    HW2  690   1.555   1.638   0.212
   42SOL     OW  691   0.807   0.605   1.465
   42SOL    HW1  692   0.760   0.602   1.554
   42SOL    HW2  693   0.756   0.550   1.399
   43SOL     OW  694   1.394   0.469   1.674
   43SOL    HW1  695   1.374   0.512   1.762
   43SOL    HW2  696   1.472   0.407   1.683
   44SOL     OW  697   0.973   0.890   1.572
   44SOL    HW1  698   1.019   0.806   1.543
   44SOL    HW2  699   0.917   0.924   1.497
   45SOL     OW  700   0.991   0.410   1.242
   45SOL    HW1  701   0.914   0.444   1.296
   45SOL    HW2  702   0.957   0.359   1.163
   46SOL     OW  703   1.041   0.701   0.429
   46SOL    HW1  704   1.067   0.697   0.525
   46SOL    HW2  705   0.956   0.650   0.415
   47SOL     OW  706   0.076   0.811   0.789
   47SOL    HW1  707   0.175   0.799   0.798
   47SOL    HW2  708   0.052   0.906   0.810
   48SOL     OW  709   0.130   1.821   1.571
   48SOL    HW1  710   0.120   1.806   1.670
   48SOL    HW2  711   0.044   1.857   1.535
   49SOL     OW  712   0.865   0.348   0.195
   49SOL    HW1  713   0.924   0.411   0.146
   49SOL    HW2  714   0.884   0.254   0.166
   50SOL     OW  715   1.719   0.585   1.831
   50SOL    HW1  716   1.693   0.674   1.795
   50SOL    HW2  717   1.717   0.517   1.758
   51SOL     OW  718   1.362   1.144   0.545
   51SOL    HW1  719   1.445   1.115   0.497
   51SOL    HW2  720   1.313   1.211   0.489
   52SOL     OW  721   0.550   0.196   0.885
   52SOL    HW1  722   0.545   0.191   0.985
   52SOL    HW2  723   0.552   0.292   0.856
   53SOL     OW  724   1.008   1.456   0.477
   53SOL    HW1  725   0.962   1.528   0.425
   53SOL    HW2  726   1.004   1.476   0.575
   54SOL     OW  727   0.351   1.801   0.853
   54SOL    HW1  728   0.401   1.715   0.859
   54SOL    HW2  729   0.416   1.878   0.850
   55SOL     OW  730   1.795   1.066   0.873
   55SOL    HW1  731   1.733   1.051   0.797
   55SOL    HW2  732   1.743   1.077   0.958
   56SOL     OW  733   1.227   1.550   1.506
   56SOL    HW1  734   1.233   1.473   1.570
   56SOL    HW2  735   1.175   1.524   1.426
   57SOL     OW  736   0.321   0.943   0.242
   57SOL    HW1  737   0.403   0.982   0.200
   57SOL    HW2  738   0.294   0.861   0.193
   58SOL     OW  739   1.458   0.735   0.728
   58SOL    HW1  740   1.453   0.670   0.803
   58SOL    HW2  741   1.538   0.794   0.741
   59SOL     OW  742   0.461   1.266   1.727
   59SOL    HW1  743   0.411   1.267   1.641
   59SOL    HW2  744   0.398   1.248   1.803
   60SOL     OW  745   1.111   1.776   0.237
   60SOL    HW1  746   1.051   1.714   0.287
   60SOL    HW2  747   1.142   1.732   0.152
   61SOL     OW  748   0.202   0.285   1.498
   61SOL    HW1  749   0.122   0.345   1.485
   61SOL    HW2  750   0.192   0.236   1.584
   62SOL     OW  751   1.632   1.377   0.081
   62SOL    HW1  752   1.600   1.471   0.071
   62SOL    HW2  753   1.556   1.314   0.069
   63SOL     OW  754   0.464   1.743   0.323
   63SOL    HW1  755   0.497   1.782   0.409
   63SOL    HW2  756   0.540   1.736   0.258
   64SOL     OW  757   1.400   0.107   0.426
   64SOL    HW1  758   1.376   0.070   0.336
   64SOL    HW2  759   1.499   0.123   0.430
   65SOL     OW  760   0.249   1.785   1.241
   65SOL    HW1  761   0.306   1.720   1.291
   65SOL    HW2  762   0.233   1.752   1.148
   66SOL     OW  763   0.940   1.698   0.904
   66SOL    HW1  764   1.020   1.641   0.925
   66SOL    HW2  765   0.891   1.658   0.827
   67SOL     OW  766   0.382   0.700   0.480
   67SOL    HW1  767   0.427   0.610   0.477
   67SOL    HW2  768   0.288   0.689   0.513
   68SOL     OW  769   1.547   0.222   1.729
   68SOL    HW1  770   1.542   0.259   1.821
   68SOL    HW2  771   1.475   0.153   1.717
   69SOL     OW  772   0.614   0.122   0.117
   69SOL    HW1  773   0.712   0.100   0.124
   69SOL    HW2  774   0.583   0.105   0.024
   70SOL     OW  775   0.781   0.264   1.749
   70SOL    HW1  776   0.848   0.203   1.792
   70SOL    HW2  777   0.708   0.283   1.814
   71SOL     OW  778   0.888   1.514   1.195
   71SOL    HW1  779   0.865   1.489   1.101
   71SOL    HW2  780   0.949   1.445   1.234
   72SOL     OW  781   1.351   0.590   1.433
   72SOL    HW1  782   1.379   0.547   1.518
   72SOL    HW2  783   1.376   0.686   1.434
   73SOL     OW  784   0.803   1.402   0.924
   73SOL    HW1  785   0.893   1.416   0.882
   73SOL    HW2  786   0.732   1.404   0.853
   74SOL     OW  787   0.922   0.503   0.899
   74SOL    HW1  788   0.897   0.494   0.803
   74SOL    HW2  789   0.970   0.421   0.930
   75SOL     OW  790   0.539   0.064   0.512
   75SOL    HW1  791   0.458   0.065   0.570
   75SOL    HW2  792   0.542   0.147   0.457
   76SOL     OW  793   1.434   1.188   0.041
   76SOL    HW1  794   1.466   1.112   0.098
   76SOL    HW2  795   1.342   1.215   0.071
   77SOL     OW  796   0.297   0.035   0.171
   77SOL    HW1  797   0.346   0.119   0.150
   77SOL    HW2  798   0.359  -0.030   0.216
   78SOL     OW  799   0.935   0.236   0.480
   78SOL    HW1  800   0.887   0.277   0.402
   78SOL    HW2  801   1.034   0.234   0.461
   79SOL     OW  802   1.076   0.683   1.464
   79SOL    HW1  803   0.996   0.622   1.467
   79SOL    HW2  804   1.157   0.630   1.440
   80SOL     OW  805   1.227   1.570   0.793
   80SOL    HW1  806   1.248   1.644   0.728
   80SOL    HW2  807   1.295   1.570   0.866
   81SOL     OW  808   0.459   1.152   0.741
   81SOL    HW1  809   0.388   1.125   0.806
   81SOL    HW2  810   0.433   1.124   0.648
   82SOL     OW  811   1.271   1.797   0.591
   82SOL    HW1  812   1.315   1.861   0.527
   82SOL    HW2  813   1.221   1.849   0.661
   83SOL     OW  814   1.032   0.549   0.016
   83SOL    HW1  815   0.991   0.631  -0.023
   83SOL    HW2  816   1.096   0.575   0.089
   84SOL     OW  817   0.078   0.556   1.386
   84SOL    HW1  818   0.170   0.555   1.345
   84SOL    HW2  819   0.072   0.630   1.453
   85SOL     OW  820   0.561   0.222   1.147
   85SOL    HW1  821   0.599   0.138   1.184
   85SOL    HW2  822   0.473   0.241   1.191
   86SOL     OW  823   0.866   0.454   0.642
   86SOL    HW1  824   0.834   0.526   0.580
   86SOL    HW2  825   0.890   0.373   0.589
   87SOL     OW  826   1.017   0.039   0.753
   87SOL    HW1  827   0.945   0.044   0.684
   87SOL    HW2  828   0.993  -0.030   0.822
   88SOL     OW  829   1.429   1.173   0.867
   88SOL    HW1  830   1.374   1.089   0.860
   88SOL    HW2  831   1.455   1.202   0.775
   89SOL     OW  832   1.466   0.590   0.992
   89SOL    HW1  833   1.436   0.495   0.999
   89SOL    HW2  834   1.539   0.606   1.058
   90SOL     OW  835   1.857   0.833   0.377
   90SOL    HW1  836   1.899   0.769   0.441
   90SOL    HW2  837   1.819   0.782   0.299
   91SOL     OW  838   0.488   1.385   0.174
   91SOL    HW1  839   0.401   1.370   0.221
   91SOL    HW2  840   0.471   1.411   0.079
   92SOL     OW  841   1.664   1.280   0.657
   92SOL    HW1  842   1.763   1.288   0.671
   92SOL    HW2  843   1.619   1.364   0.688
   93SOL     OW  844   1.390   0.575   0.078
   93SOL    HW1  845   1.336   0.554   0.159
   93SOL    HW2  846   1.481   0.534   0.087
   94SOL     OW  847   0.527   0.256   0.328
   94SOL    HW1  848   0.554   0.197   0.253
   94SOL    HW2  849   0.527   0.351   0.297
   95SOL     OW  850   1.754   1.223   1.588
   95SOL    HW1  851   1.845   1.184   1.575
   95SOL    HW2  852   1.762   1.319   1.612
   96SOL     OW  853   1.064   1.347   1.340
   96SOL    HW1  854   0.984   1.324   1.395
   96SOL    HW2  855   1.147   1.321   1.389
   97SOL     OW  856   1.592   1.629   1.625
   97SOL    HW1  857   1.619   1.663   1.535
   97SOL    HW2  858   1.671   1.591   1.671
   98SOL     OW  859   1.111   1.195   1.100
   98SOL    HW1  860   1.071   1.239   1.181
   98SOL    HW2  861   1.070   1.232   1.017
   99SOL     OW  862   1.638   1.099   1.079
   99SOL    HW1  863   1.643   1.180   1.138
   99SOL    HW2  864   1.552   1.101   1.028
  100SOL     OW  865   0.915   0.089   1.402
  100SOL    HW1  866   0.940   0.069   1.307
  100SOL    HW2  867   0.987   0.145   1.444
  101SOL     OW  868   0.980   1.116   1.719
  101SOL    HW1  869   0.881   1.122   1.729
  101SOL    HW2  870   1.003   1.036   1.663
  102SOL     OW  871   0.705   1.050   0.368
  102SOL    HW1  872   0.691   1.057   0.467
  102SOL    HW2  873   0.789   0.999   0.350
  103SOL     OW  874   0.410   0.813   1.251
  103SOL    HW1  875   0.496   0.825   1.301
  103SOL    HW2  876   0.368   0.726   1.278
  104SOL     OW  877   1.274   0.386   1.262
  104SOL    HW1  878   1.295   0.460   1.326
  104SOL    HW2  879   1.185   0.403   1.219
  105SOL     OW  880   0.064   1.564   1.331
  105SOL    HW1  881   0.018   1.646   1.297
  105SOL    HW2  882   0.162   1.583   1.340
  106SOL     OW  883   0.367   1.100   0.501
  106SOL    HW1  884   0.360   1.183   0.445
  106SOL    HW2  885   0.371   1.020   0.441
  107SOL     OW  886   0.566   0.537   0.865
  107SOL    HW1  887   0.578   0.603   0.791
  107SOL    HW2  888   0.612   0.571   0.948
  108SOL     OW  889   1.252   1.348   0.388
  108SOL    HW1  890   1.302   1.425   0.428
  108SOL    HW2  891   1.157   1.350   0.420
  109SOL     OW  892   1.272   1.445   1.142
  109SOL    HW1  893   1.319   1.458   1.229
  109SOL    HW2  894   1.206   1.371   1.151
  110SOL     OW  895   1.582   0.639   0.472
  110SOL    HW1  896   1.551   0.700   0.545
  110SOL    HW2  897   1.632   0.691   0.403
  111SOL     OW  898   0.354   1.510   1.329
  111SOL    HW1  899   0.333   1.466   1.242
  111SOL    HW2  900   0.451   1.536   1.332
  112SOL     OW  901   0.402   0.751   1.598
  112SOL    HW1  902   0.470   0.806   1.551
  112SOL    HW2  903   0.442   0.663   1.625
  113SOL     OW  904   1.587   0.779   1.670
  113SOL    HW1  905   1.495   0.817   1.665
  113SOL    HW2  906   1.647   0.826   1.605
  114SOL     OW  907   1.013   0.105   1.770
  114SOL    HW1  908   1.019   0.190   1.718
  114SOL    HW2  909   1.045   0.029   1.713
  115SOL     OW  910   0.504   0.050   1.740
  115SOL    HW1  911   0.462  -0.007   1.670
  115SOL    HW2  912   0.438   0.119   1.772
  116SOL     OW  913   0.573   0.870   1.029
  116SOL    HW1  914   0.617   0.959   1.020
  116SOL    HW2  915   0.510   0.870   1.106
  117SOL     OW  916   1.360   0.862   1.045
  117SOL    HW1  917   1.285   0.862   0.979
  117SOL    HW2  918   1.397   0.770   1.054
  118SOL     OW  919   1.209   0.525   0.275
  118SOL    HW1  920   1.222   0.441   0.329
  118SOL    HW2  921   1.180   0.599   0.335
  119SOL     OW  922   0.307   0.213   1.231
  119SOL    HW1  923   0.284   0.250   1.321
  119SOL    HW2  924   0.277   0.118   1.225
  120SOL     OW  925   0.037   1.310   1.282
  120SOL    HW1  926   0.090   1.261   1.350
  120SOL    HW2  927   0.059   1.408   1.287
  121SOL     OW  928   0.732   0.634   1.064
  121SOL    HW1  929   0.791   0.608   0.988
  121SOL    HW2  930   0.704   0.730   1.053
  122SOL     OW  931   1.728   0.935   1.854
  122SOL    HW1  932   1.682   0.928   1.765
  122SOL    HW2  933   1.666   0.979   1.920
  123SOL     OW  934   0.307   0.063   0.618
  123SOL    HW1  935   0.296   0.157   0.651
  123SOL    HW2  936   0.302   0.000   0.695
  124SOL     OW  937   1.622   0.367   0.374
  124SOL    HW1  938   1.624   0.291   0.438
  124SOL    HW2  939   1.574   0.444   0.414
  125SOL     OW  940   1.023   0.766   0.966
  125SOL    HW1  941   1.038   0.787   1.062
  125SOL    HW2  942   0.993   0.671   0.957
  126SOL     OW  943   0.980   1.573   1.700
  126SOL    HW1  944   0.960   1.617   1.612
  126SOL    HW2  945   1.019   1.482   1.684
  127SOL     OW  946   1.859   1.518   1.605
  127SOL    HW1  947   1.873   1.545   1.510
  127SOL    HW2  948   1.942   1.540   1.658
  128SOL     OW  949   0.350   0.898   1.804
  128SOL    HW1  950   0.426   0.942   1.852
  128SOL    HW2  951   0.385   0.851   1.722
  129SOL     OW  952   1.540   0.274   0.125
  129SOL    HW1  953   1.479   0.199   0.148
  129SOL    HW2  954   1.562   0.326   0.208
  130SOL     OW  955   1.303   0.838   0.042
  130SOL    HW1  956   1.337   0.745   0.057
  130SOL    HW2  957   1.321   0.865  -0.053
  131SOL     OW  958   1.068   1.333   0.849
  131SOL    HW1  959   1.075   1.249   0.794
  131SOL    HW2  960   1.130   1.402   0.813
  132SOL     OW  961   0.319   0.810   0.949
  132SOL    HW1  962   0.412   0.846   0.954
  132SOL    HW2  963   0.313   0.725   1.001
  133SOL     OW  964   0.339   0.509   1.006
  133SOL    HW1  965   0.287   0.426   0.989
  133SOL    HW2  966   0.416   0.514   0.942
  134SOL     OW  967   1.138   0.380   1.678
  134SOL    HW1  968   1.093   0.443   1.742
  134SOL    HW2  969   1.231   0.411   1.661
  135SOL     OW  970   1.160   0.207   1.477
  135SOL    HW1  971   1.160   0.271   1.554
  135SOL    HW2  972   1.188   0.255   1.394
  136SOL     OW  973   0.008   1.326   0.200
  136SOL    HW1  974  -0.085   1.347   0.169
  136SOL    HW2  975   0.018   1.227   0.213
  137SOL     OW  976   0.088   1.801   0.927
  137SOL    HW1  977   0.046   1.715   0.900
  137SOL    HW2  978   0.182   1.804   0.893
  138SOL     OW  979   0.504   1.568   0.910
  138SOL    HW1  980   0.570   1.642   0.919
  138SOL    HW2  981   0.548   1.489   0.868
  139SOL     OW  982   1.002   0.796   1.238
  139SOL    HW1  983   1.043   0.764   1.324
  139SOL    HW2  984   0.906   0.769   1.235
  140SOL     OW  985   0.040   0.544   1.114
  140SOL    HW1  986   0.125   0.511   1.073
  140SOL    HW2  987   0.053   0.559   1.212
  141SOL     OW  988   0.189   0.520   1.722
  141SOL    HW1  989   0.248   0.480   1.652
  141SOL    HW2  990   0.131   0.591   1.681
  142SOL     OW  991   1.369   0.950   1.660
  142SOL    HW1  992   1.408   1.039   1.680
  142SOL    HW2  993   1.379   0.930   1.563
  143SOL     OW  994   0.815   0.572   0.325
  143SOL    HW1  995   0.822   0.483   0.279
  143SOL    HW2  996   0.721   0.606   0.317
  144SOL     OW  997   1.657   0.604   1.206
  144SOL    HW1  998   1.619   0.535   1.268
  144SOL    HW2  999   1.739   0.568   1.162
  145SOL     OW 1000   0.252   1.564   1.744
  145SOL    HW1 1001   0.222   1.621   1.820
  145SOL    HW2 1002   0.245   1.467   1.770
  146SOL     OW 1003   0.671   0.464   1.269
  146SOL    HW1 1004   0.637   0.375   1.239
  146SOL    HW2 1005   0.697   0.518   1.189
  147SOL     OW 1006   0.930   1.678   1.465
  147SOL    HW1 1007   0.906   1.660   1.370
  147SOL    HW2 1008   0.960   1.772   1.475
  148SOL     OW 1009   0.473   0.500   0.191
  148SOL    HW1 1010   0.534   0.580   0.195
  148SOL    HW2 1011   0.378   0.531   0.198
  149SOL     OW 1012   0.159   1.137   1.466
  149SOL    HW1 1013   0.181   1.076   1.542
  149SOL    HW2 1014   0.169   1.088   1.380
  150SOL     OW 1015   1.347   1.059   1.234
  150SOL    HW1 1016   1.371   0.996   1.160
  150SOL    HW2 1017   1.257   1.099   1.216
  151SOL     OW 1018   1.302   0.855   0.309
  151SOL    HW1 1019   1.216   0.824   0.351
  151SOL    HW2 1020   1.298   0.841   0.210
  152SOL     OW 1021   1.759   1.747   1.154
  152SOL    HW1 1022   1.820   1.777   1.081
  152SOL    HW2 1023   1.721   1.658   1.132
  153SOL     OW 1024   1.252   1.731   1.128
  153SOL    HW1 1025   1.336   1.736   1.074
  153SOL    HW2 1026   1.229   1.635   1.146
  154SOL     OW 1027   0.083   1.258   1.022
  154SOL    HW1 1028   0.078   1.257   1.122
  154SOL    HW2 1029   0.000   1.217   0.984
  155SOL     OW 1030   0.688   1.662   1.716
  155SOL    HW1 1031   0.632   1.743   1.725
  155SOL    HW2 1032   0.740   1.666   1.630
  156SOL     OW 1033   0.903   0.086   0.133
  156SOL    HW1 1034   0.954   0.087   0.047
  156SOL    HW2 1035   0.959   0.044   0.204
  157SOL     OW 1036   1.726   0.135   0.523
  157SOL    HW1 1037   1.799   0.118   0.456
  157SOL    HW2 1038   1.695   0.048   0.561
  158SOL     OW 1039   1.388   1.573   0.477
  158SOL    HW1 1040   1.455   1.585   0.403
  158SOL    HW2 1041   1.348   1.662   0.500
  159SOL     OW 1042   0.130   1.794   1.851
  159SOL    HW1 1043   0.089   1.720   1.904
  159SOL    HW2 1044   0.194   1.845   1.909
  160SOL     OW 1045   1.280   0.927   0.672
  160SOL    HW1 1046   1.340   0.846   0.674
  160SOL    HW2 1047   1.320   0.996   0.612
  161SOL     OW 1048   0.830   1.273   1.422
  161SOL    HW1 1049   0.825   1.306   1.517
  161SOL    HW2 1050   0.744   1.292   1.376
  162SOL     OW 1051   0.672   1.616   0.154
  162SOL    HW1 1052   0.681   1.626   0.055
  162SOL    HW2 1053   0.632   1.527   0.175
  163SOL     OW 1054   1.650   1.720   1.394
  163SOL    HW1 1055   1.703   1.730   1.310
  163SOL    HW2 1056   1.623   1.810   1.428
  164SOL     OW 1057   1.841   0.175   0.963
  164SOL    HW1 1058   1.880   0.090   0.927
  164SOL    HW2 1059   1.743   0.177   0.944
  165SOL     OW 1060   0.263   0.326   0.720
  165SOL    HW1 1061   0.184   0.377   0.686
  165SOL    HW2 1062   0.254   0.311   0.818
  166SOL     OW 1063   1.194   1.612   0.031
  166SOL    HW1 1064   1.200   1.519   0.068
  166SOL    HW2 1065   1.135   1.612  -0.049
  167SOL     OW 1066   0.822   1.002   1.372
  167SOL    HW1 1067   0.862   1.001   1.280
  167SOL    HW2 1068   0.832   1.094   1.412
  168SOL     OW 1069   0.916   0.910   0.291
  168SOL    HW1 1070   0.979   0.948   0.223
  168SOL    HW2 1071   0.956   0.827   0.330
  169SOL     OW 1072   1.504   1.607   0.044
  169SOL    HW1 1073   1.412   1.644   0.051
  169SOL    HW2 1074   1.542   1.627  -0.046
  170SOL     OW 1075   0.372   1.288   1.490
  170SOL    HW1 1076   0.359   1.381   1.456
  170SOL    HW2 1077   0.288   1.236   1.477
  171SOL     OW 1078   1.614   1.292   1.289
  171SOL    HW1 1079   1.674   1.295   1.369
  171SOL    HW2 1080   1.539   1.356   1.302
  172SOL     OW 1081   1.039   1.098   0.696
  172SOL    HW1 1082   0.969   1.051   0.750
  172SOL    HW2 1083   1.098   1.030   0.653
  173SOL     OW 1084   1.014   0.236   0.971
  173SOL    HW1 1085   1.006   0.200   0.878
  173SOL    HW2 1086   1.012   0.160   1.036
  174SOL     OW 1087   0.590   1.487   0.491
  174SOL    HW1 1088   0.632   1.429   0.421
  174SOL    HW2 1089   0.546   1.566   0.447
  175SOL     OW 1090   1.709   0.385   1.381
  175SOL    HW1 1091   1.782   0.454   1.385
  175SOL    HW2 1092   1.737   0.310   1.322
  176SOL     OW 1093   0.255   1.348   0.290
  176SOL    HW1 1094   0.159   1.349   0.263
  176SOL    HW2 1095   0.267   1.401   0.374
  177SOL     OW 1096   0.105   1.013   1.726
  177SOL    HW1 1097   0.028   0.980   1.780
  177SOL    HW2 1098   0.190   0.983   1.768
  178SOL     OW 1099   0.672   0.203   1.489
  178SOL    HW1 1100   0.762   0.187   1.449
  178SOL    HW2 1101   0.680   0.208   1.588
  179SOL     OW 1102   0.075   0.345   0.033
  179SOL    HW1 1103  -0.017   0.317   0.004
  179SOL    HW2 1104   0.106   0.422  -0.023
  180SOL     OW 1105   1.440   0.856   1.398
  180SOL    HW1 1106   1.383   0.908   1.335
  180SOL    HW2 1107   1.536   0.868   1.374
  181SOL     OW 1108   0.072   0.166   0.318
  181SOL    HW1 1109   0.055   0.249   0.264
  181SOL    HW2 1110   0.162   0.129   0.296
  182SOL     OW 1111   1.183   1.335   0.119
  182SOL    HW1 1112   1.084   1.324   0.121
  182SOL    HW2 1113   1.217   1.350   0.212
  183SOL     OW 1114   0.613   0.842   1.431
  183SOL    HW1 1115   0.669   0.923   1.414
  183SOL    HW2 1116   0.672   0.762   1.434
  184SOL     OW 1117   1.493   1.767   0.959
  184SOL    HW1 1118   1.526   1.831   0.890
  184SOL    HW2 1119   1.559   1.761   1.034
  185SOL     OW 1120   0.716   0.565   1.708
  185SOL    HW1 1121   0.735   0.630   1.782
  185SOL    HW2 1122   0.776   0.485   1.717
  186SOL     OW 1123   1.450   1.220   1.633
  186SOL    HW1 1124   1.441   1.210   1.732
  186SOL    HW2 1125   1.546   1.213   1.607
  187SOL     OW 1126   0.390   1.741   1.560
  187SOL    HW1 1127   0.299   1.782   1.558
  187SOL    HW2 1128   0.383   1.647   1.592
  188SOL     OW 1129   1.674   0.883   1.254
  188SOL    HW1 1130   1.647   0.794   1.217
  188SOL    HW2 1131   1.675   0.951   1.181
  189SOL     OW 1132   1.225   0.325   0.449
  189SOL    HW1 1133   1.290   0.251   0.438
  189SOL    HW2 1134   1.245   0.375   0.533
  190SOL     OW 1135   0.594   0.745   0.652
  190SOL    HW1 1136   0.644   0.830   0.633
  190SOL    HW2 1137   0.506   0.747   0.604
  191SOL     OW 1138   1.777   0.342   1.642
  191SOL    HW1 1139   1.760   0.373   1.548
  191SOL    HW2 1140   1.693   0.305   1.680
  192SOL     OW 1141   1.730   0.934   1.517
  192SOL    HW1 1142   1.768   1.025   1.532
  192SOL    HW2 1143   1.722   0.917   1.418
  193SOL     OW 1144   0.859   1.374   0.016
  193SOL    HW1 1145   0.813   1.389   0.104
  193SOL    HW2 1146   0.903   1.459  -0.014
  194SOL     OW 1147   0.661   1.790   0.953
  194SOL    HW1 1148   0.615   1.878   0.940
  194SOL    HW2 1149   0.760   1.802   0.946
  195SOL     OW 1150   0.859   0.956   0.861
  195SOL    HW1 1151   0.913   0.887   0.909
  195SOL    HW2 1152   0.827   1.025   0.927
  196SOL     OW 1153   1.083   0.984   0.087
  196SOL    HW1 1154   1.060   1.037   0.005
  196SOL    HW2 1155   1.164   0.928   0.068
  197SOL     OW 1156   1.861   1.569   0.851
  197SOL    HW1 1157   1.790   1.557   0.781
  197SOL    HW2 1158   1.862   1.490   0.911
  198SOL     OW 1159   0.221   1.314   1.844
  198SOL    HW1 1160   0.156   1.241   1.823
  198SOL    HW2 1161   0.225   1.328   1.942
  199SOL     OW 1162   0.079   1.240   0.653
  199SOL    HW1 1163   0.078   1.193   0.741
  199SOL    HW2 1164   0.161   1.212   0.602
  200SOL     OW 1165   0.672   1.391   1.624
  200SOL    HW1 1166   0.594   1.341   1.662
  200SOL    HW2 1167   0.669   1.486   1.655
  201SOL     OW 1168   1.824   0.192   1.227
  201SOL    HW1 1169   1.820   0.102   1.271
  201SOL    HW2 1170   1.827   0.181   1.128
  202SOL     OW 1171   0.428   0.424   0.520
  202SOL    HW1 1172   0.458   0.352   0.458
  202SOL    HW2 1173   0.389   0.384   0.603
  203SOL     OW 1174   1.705   1.487   1.104
  203SOL    HW1 1175   1.612   1.462   1.077
  203SOL    HW2 1176   1.731   1.437   1.186
  204SOL     OW 1177   0.317   0.547   1.280
  204SOL    HW1 1178   0.355   0.488   1.352
  204SOL    HW2 1179   0.357   0.521   1.192
  205SOL     OW 1180   0.812   1.586   0.687
  205SOL    HW1 1181   0.844   1.596   0.593
  205SOL    HW2 1182   0.733   1.524   0.689
  206SOL     OW 1183   1.424   0.214   1.112
  206SOL    HW1 1184   1.476   0.149   1.167
  206SOL    HW2 1185   1.375   0.277   1.173
  207SOL     OW 1186   1.001   0.034   1.154
  207SOL    HW1 1187   0.938  -0.038   1.123
  207SOL    HW2 1188   1.094  -0.002   1.154
  208SOL     OW 1189   0.770   1.330   0.301
  208SOL    HW1 1190   0.724   1.243   0.318
  208SOL    HW2 1191   0.861   1.327   0.342
  209SOL     OW 1192   0.618   1.567   1.284
  209SOL    HW1 1193   0.613   1.649   1.341
  209SOL    HW2 1194   0.707   1.564   1.239
  210SOL     OW 1195   1.352   0.052   0.168
  210SOL    HW1 1196   1.387   0.011   0.084
  210SOL    HW2 1197   1.262   0.014   0.188
  211SOL     OW 1198   1.300   0.453   0.691
  211SOL    HW1 1199   1.241   0.533   0.695
  211SOL    HW2 1200   1.315   0.418   0.784
  212SOL     OW 1201   1.593   0.221   0.882
  212SOL    HW1 1202   1.509   0.220   0.936
  212SOL    HW2 1203   1.595   0.304   0.826
  213SOL     OW 1204   0.039   1.077   0.300
  213SOL    HW1 1205   0.138   1.066   0.291
  213SOL    HW2 1206  -0.001   0.991   0.332
  214SOL     OW 1207   0.875   1.646   0.337
  214SOL    HW1 1208   0.798   1.611   0.283
  214SOL    HW2 1209   0.843   1.717   0.399
  215SOL     OW 1210   0.230   0.628   1.975
  215SOL    HW1 1211   0.137   0.626   2.012
  215SOL    HW2 1212   0.231   0.589   1.883
  216SOL     OW 1213   0.225   0.275   2.858
  216SOL    HW1 1214   0.260   0.258   2.950
  216SOL    HW2 1215   0.137   0.230   2.846
  217SOL     OW 1216   0.019   0.368   2.509
  217SOL    HW1 1217  -0.063   0.411   2.548
  217SOL    HW2 1218  -0.009   0.295   2.446
  218SOL     OW 1219   0.569   1.275   3.027
  218SOL    HW1 1220   0.476   1.268   2.990
  218SOL    HW2 1221   0.580   1.364   3.071
  219SOL     OW 1222   1.555   1.511   2.565
  219SOL    HW1 1223   1.498   1.495   2.646
  219SOL    HW2 1224   1.496   1.521   2.485
  220SOL     OW 1225   1.135   0.703   2.579
  220SOL    HW1 1226   1.192   0.781   2.554
  220SOL    HW2 1227   1.075   0.729   2.655
  221SOL     OW 1228   1.755   0.607   2.093
  221SOL    HW1 1229   1.743   0.594   1.994
  221SOL    HW2 1230   1.725   0.526   2.142
  222SOL     OW 1231   0.768   1.144   2.885
  222SOL    HW1 1232   0.690   1.161   2.945
  222SOL    HW2 1233   0.802   1.231   2.849
  223SOL     OW 1234   0.850   0.798   3.685
  223SOL    HW1 1235   0.846   0.874   3.750
  223SOL    HW2 1236   0.872   0.834   3.594
  224SOL     OW 1237   0.685   1.012   2.527
  224SOL    HW1 1238   0.754   0.996   2.597
  224SOL    HW2 1239   0.612   1.069   2.565
  225SOL     OW 1240   0.686   1.161   3.665
  225SOL    HW1 1241   0.746   1.240   3.679
  225SOL    HW2 1242   0.600   1.192   3.624
  226SOL     OW 1243   0.335   1.435   2.923
  226SOL    HW1 1244   0.257   1.404   2.870
  226SOL    HW2 1245   0.393   1.493   2.866
  227SOL     OW 1246   1.460   1.505   3.201
  227SOL    HW1 1247   1.484   1.599   3.227
  227SOL    HW2 1248   1.444   1.451   3.283
  228SOL     OW 1249   0.438   0.392   3.361
  228SOL    HW1 1250   0.520   0.336   3.370
  228SOL    HW2 1251   0.357   0.334   3.365
  229SOL     OW 1252   1.603   0.447   2.599
  229SOL    HW1 1253   1.529   0.493   2.549
  229SOL    HW2 1254   1.654   0.515   2.652
  230SOL     OW 1255   0.231   1.713   2.345
  230SOL    HW1 1256   0.265   1.790   2.399
  230SOL    HW2 1257   0.275   1.713   2.255
  231SOL     OW 1258   1.127   1.341   3.552
  231SOL    HW1 1259   1.174   1.341   3.640
  231SOL    HW2 1260   1.079   1.254   3.541
  232SOL     OW 1261   0.230   1.434   2.400
  232SOL    HW1 1262   0.204   1.530   2.400
  232SOL    HW2 1263   0.159   1.380   2.445
  233SOL     OW 1264   0.240   1.091   2.748
  233SOL    HW1 1265   0.254   1.007   2.800
  233SOL    HW2 1266   0.185   1.155   2.803
  234SOL     OW 1267   0.620   1.786   3.301
  234SOL    HW1 1268   0.528   1.769   3.336
  234SOL    HW2 1269   0.648   1.878   3.327
  235SOL     OW 1270   0.606   0.964   1.985
  235SOL    HW1 1271   0.613   1.048   1.931
  235SOL    HW2 1272   0.652   0.977   2.073
  236SOL     OW 1273   1.594   0.114   3.342
  236SOL    HW1 1274   1.576   0.181   3.270
  236SOL    HW2 1275   1.591   0.160   3.431
  237SOL     OW 1276   0.122   0.643   2.425
  237SOL    HW1 1277   0.077   0.555   2.442
  237SOL    HW2 1278   0.121   0.697   2.509
  238SOL     OW 1279   1.842   1.767   2.221
  238SOL    HW1 1280   1.896   1.738   2.301
  238SOL    HW2 1281   1.872   1.857   2.192
  239SOL     OW 1282   0.027   1.596   1.979
  239SOL    HW1 1283   0.008   1.500   2.000
  239SOL    HW2 1284  -0.006   1.654   2.054
  240SOL     OW 1285   1.689   0.922   2.474
  240SOL    HW1 1286   1.784   0.893   2.482
  240SOL    HW2 1287   1.681   0.987   2.399
  241SOL     OW 1288   1.641   1.108   2.294
  241SOL    HW1 1289   1.727   1.110   2.242
  241SOL    HW2 1290   1.655   1.155   2.382
  242SOL     OW 1291   0.113   0.737   3.459
  242SOL    HW1 1292   0.201   0.724   3.504
  242SOL    HW2 1293   0.100   0.834   3.437
  243SOL     OW 1294   0.613   1.365   2.588
  243SOL    HW1 1295   0.564   1.278   2.597
  243SOL    HW2 1296   0.590   1.408   2.501
  244SOL     OW 1297   1.293   1.228   3.285
  244SOL    HW1 1298   1.330   1.155   3.227
  244SOL    HW2 1299   1.345   1.233   3.370
  245SOL     OW 1300   0.809   0.004   2.364
  245SOL    HW1 1301   0.849   0.095   2.355
  245SOL    HW2 1302   0.709   0.012   2.370
  246SOL     OW 1303   0.197   0.976   3.126
  246SOL    HW1 1304   0.286   0.931   3.112
  246SOL    HW2 1305   0.124   0.911   3.107
  247SOL     OW 1306   1.525   0.999   2.052
  247SOL    HW1 1307   1.462   0.923   2.065
  247SOL    HW2 1308   1.573   1.017   2.138
  248SOL     OW 1309   1.187   1.792   3.478
  248SOL    HW1 1310   1.211   1.852   3.402
  248SOL    HW2 1311   1.194   1.697   3.448
  249SOL     OW 1312   0.317   0.251   3.663
  249SOL    HW1 1313   0.388   0.322   3.669
  249SOL    HW2 1314   0.229   0.290   3.691
  250SOL     OW 1315   1.466   1.417   2.815
  250SOL    HW1 1316   1.407   1.423   2.895
  250SOL    HW2 1317   1.451   1.329   2.769
  251SOL     OW 1318   1.667   1.714   2.434
  251SOL    HW1 1319   1.626   1.691   2.346
  251SOL    HW2 1320   1.649   1.640   2.499
  252SOL     OW 1321   0.598   0.729   2.132
  252SOL    HW1 1322   0.622   0.798   2.064
  252SOL    HW2 1323   0.520   0.762   2.186
  253SOL     OW 1324   1.281   0.345   2.806
  253SOL    HW1 1325   1.195   0.295   2.793
  253SOL    HW2 1326   1.343   0.291   2.862
  254SOL     OW 1327   1.576   1.662   2.169
  254SOL    HW1 1328   1.665   1.708   2.172
  254SOL    HW2 1329   1.555   1.638   2.074
  255SOL     OW 1330   0.807   0.605   3.327
  255SOL    HW1 1331   0.760   0.602   3.416
  255SOL    HW2 1332   0.756   0.550   3.261
  256SOL     OW 1333   1.394   0.469   3.536
  256SOL    HW1 1334   1.374   0.512   3.624
  256SOL    HW2 1335   1.472   0.407   3.545
  257SOL     OW 1336   0.973   0.890   3.434
  257SOL    HW1 1337   1.019   0.806   3.405
  257SOL    HW2 1338   0.917   0.924   3.359
  258SOL     OW 1339   0.991   0.410   3.104
  258SOL    HW1 1340   0.914   0.444   3.158
  258SOL    HW2 1341   0.957   0.359   3.025
  259SOL     OW 1342   1.041   0.701   2.291
  259SOL    HW1 1343   1.067   0.697   2.387
  259SOL    HW2 1344   0.956   0.650   2.277
  260SOL     OW 1345   0.076   0.811   2.651
  260SOL    HW1 1346   0.175   0.799   2.660
  260SOL    HW2 1347   0.052   0.906   2.672
  261SOL     OW 1348   0.130   1.821   3.433
  261SOL    HW1 1349   0.120   1.806   3.532
  261SOL    HW2 1350   0.044   1.857   3.397
  262SOL     OW 1351   0.865   0.348   2.057
  262SOL    HW1 1352   0.924   0.411   2.008
  262SOL    HW2 1353   0.884   0.254   2.028
  263SOL     OW 1354   1.719   0.585   3.693
  263SOL    HW1 1355   1.693   0.674   3.657
  263SOL    HW2 1356   1.717   0.517   3.620
  264SOL     OW 1357   1.362   1.144   2.407
  264SOL    HW1 1358   1.445   1.115   2.359
  264SOL    HW2 1359   1.313   1.211   2.351
  265SOL     OW 1360   0.550   0.196   2.747
  265SOL    HW1 1361   0.545   0.191   2.847
  265SOL    HW2 1362   0.552   0.292   2.718
  266SOL     OW 1363   1.008   1.456   2.339
  266SOL    HW1 1364   0.962   1.528   2.287
  266SOL    HW2 1365   1.004   1.476   2.437
  267SOL     OW 1366   0.351   1.801   2.715
  267SOL    HW1 1367   0.401   1.715   2.721
  267SOL    HW2 1368   0.416   1.878   2.712
  268SOL     OW 1369   1.795   1.066   2.735
  268SOL    HW1 1370   1.733   1.051   2.659
  268SOL    HW2 1371   1.743   1.077   2.820
  269SOL     OW 1372   1.227   1.550   3.368
  269SOL    HW1 1373   1.233   1.473   3.432
  269SOL    HW2 1374   1.175   1.524   3.288
  270SOL     OW 1375   0.321   0.943   2.104
  270SOL    HW1 1376   0.403   0.982   2.062
  270SOL    HW2 1377   0.294   0.861   2.055
  271SOL     OW 1378   1.458   0.735   2.590
  271SOL    HW1 1379   1.453   0.670   2.665
  271SOL    HW2 1380   1.538   0.794   2.603
  272SOL     OW 1381   0.461   1.266   3.589
  272SOL    HW1 1382   0.411   1.267   3.503
  272SOL    HW2 1383   0.398   1.248   3.665
  273SOL     OW 1384   1.111   1.776   2.099
  273SOL    HW1 1385   1.051   1.714   2.149
  273SOL    HW2 1386   1.142   1.732   2.014
  274SOL     OW 1387   0.202   0.285   3.360
  274SOL    HW1 1388   0.122   0.345   3.347
  274SOL    HW2 1389   0.192   0.236   3.446
  275SOL     OW 1390   1.632   1.377   1.943
  275SOL    HW1 1391   1.600   1.471   1.933
  275SOL    HW2 1392   1.556   1.314   1.931
  276SOL     OW 1393   0.464   1.743   2.185
  276SOL    HW1 1394   0.497   1.782   2.271
  276SOL    HW2 1395   0.540   1.736   2.120
  277SOL     OW 1396   1.400   0.107   2.288
  277SOL    HW1 1397   1.376   0.070   2.198
  277SOL    HW2 1398   1.499   0.123   2.292
  278SOL     OW 1399   0.249   1.785   3.103
  278SOL    HW1 1400   0.306   1.720   3.153
  278SOL    HW2 1401   0.233   1.752   3.010
  279SOL     OW 1402   0.940   1.698   2.766
  279SOL    HW1 1403   1.020   1.641   2.787
  279SOL    HW2 1404   0.891   1.658   2.689
  280SOL     OW 1405   0.382   0.700   2.342
  280SOL    HW1 1406   0.427   0.610   2.339
  280SOL    HW2 1407   0.288   0.689   2.375
  281SOL     OW 1408   1.547   0.222   3.591
  281SOL    HW1 1409   1.542   0.259   3.683
  281SOL    HW2 1410   1.475   0.153   3.579
  282SOL     OW 1411   0.614   0.122   1.979
  282SOL    HW1 1412   0.712   0.100   1.986
  282SOL    HW2 1413   0.583   0.105   1.886
  283SOL     OW 1414   0.781   0.264   3.611
  283SOL    HW1 1415   0.848   0.203   3.654
  283SOL    HW2 1416   0.708   0.283   3.676
  284SOL     OW 1417   0.888   1.514   3.057
  284SOL    HW1 1418   0.865   1.489   2.963
  284SOL    HW2 1419   0.949   1.445   3.096
  285SOL     OW 1420   1.351   0.590   3.295
  285SOL    HW1 1421   1.379   0.547   3.380
  285SOL    HW2 1422   1.376   0.686   3.296
  286SOL     OW 1423   0.803   1.402   2.786
  286SOL    HW1 1424   0.893   1.416   2.744
  286SOL    HW2 1425   0.732   1.404   2.715
  287SOL     OW 1426   0.922   0.503   2.761
  287SOL    HW1 1427   0.897   0.494   2.665
  287SOL    HW2 1428   0.970   0.421   2.792
  288SOL     OW 1429   0.539   0.064   2.374
  288SOL    HW1 1430   0.458   0.065   2.432
  288SOL    HW2 1431   0.542   0.147   2.319
  289SOL     OW 1432   1.434   1.188   1.903
  289SOL    HW1 1433   1.466   1.112   1.960
  289SOL    HW2 1434   1.342   1.215   1.933
  290SOL     OW 1435   0.297   0.035   2.033
  290SOL    HW1 1436   0.346   0.119   2.012
  290SOL    HW2 1437   0.359  -0.030   2.078
  291SOL     OW 1438   0.935   0.236   2.342
  291SOL    HW1 1439   0.887   0.277   2.264
  291SOL    HW2 1440   1.034   0.234   2.323
  292SOL     OW 1441   1.076   0.683   3.326
  292SOL    HW1 1442   0.996   0.622   3.329
  292SOL    HW2 1443   1.157   0.630   3.302
  293SOL     OW 1444   1.227   1.570   2.655
  293SOL    HW1 1445   1.248   1.644   2.590
  293SOL    HW2 1446   1.295   1.570   2.728
  294SOL     OW 1447   0.459   1.152   2.603
  294SOL    HW1 1448   0.388   1.125   2.668
  294SOL    HW2 1449   0.433   1.124   2.510
  295SOL     OW 1450   1.271   1.797   2.453
  295SOL    HW1 1451   1.315   1.861   2.389
  295SOL    HW2 1452   1.221   1.849   2.523
  296SOL     OW 1453   1.032   0.549   1.878
  296SOL    HW1 1454   0.991   0.631   1.839
  296SOL    HW2 1455   1.096   0.575   1.951
  297SOL     OW 1456   0.078   0.556   3.248
  297SOL    HW1 1457   0.170   0.555   3.207
  297SOL    HW2 1458   0.072   0.630   3.315
  298SOL     OW 1459   0.561   0.222   3.009
  298SOL    HW1 1460   0.599   0.138   3.046
  298SOL    HW2 1461   0.473   0.241   3.053
  299SOL     OW 1462   0.866   0.454   2.504
  299SOL    HW1 1463   0.834   0.526   2.442
  299SOL    HW2 1464   0.890   0.373   2.451
  300SOL     OW 1465   1.017   0.039   2.615
  300SOL    HW1 1466   0.945   0.044   2.546
  300SOL    HW2 1467   0.993  -0.030   2.684
  301SOL     OW 1468   1.429   1.173   2.729
  301SOL    HW1 1469   1.374   1.089   2.722
  301SOL    HW2 1470   1.455   1.202   2.637
  302SOL     OW 1471   1.466   0.590   2.854
  302SOL    HW1 1472   1.436   0.495   2.861
  302SOL    HW2 1473   1.539   0.606   2.920
  303SOL     OW 1474   1.857   0.833   2.239
  303SOL    HW1 1475   1.899   0.769   2.303
  303SOL    HW2 1476   1.819   0.782   2.161
  304SOL     OW 1477   0.488   1.385   2.036
  304SOL    HW1 1478   0.401   1.370   2.083
  304SOL    HW2 1479   0.471   1.411   1.941
  305SOL     OW 1480   1.664   1.280   2.519
  305SOL    HW1 1481   1.763   1.288   2.533
  305SOL    HW2 1482   1.619   1.364   2.550
  306SOL     OW 1483   1.390   0.575   1.940
  306SOL    HW1 1484   1.336   0.554   2.021
  306SOL    HW2 1485   1.481   0.534   1.949
  307SOL     OW 1486   0.527   0.256   2.190
  307SOL    HW1 1487   0.554   0.197   2.115
  307SOL    HW2 1488   0.527   0.351   2.159
  308SOL     OW 1489   1.754   1.223   3.450
  308SOL    HW1 1490   1.845   1.184   3.437
  308SOL    HW2 1491   1.762   1.319   3.474
  309SOL     OW 1492   1.064   1.347   3.202
  309SOL    HW1 1493   0.984   1.324   3.257
  309SOL    HW2 1494   1.147   1.321   3.251
  310SOL     OW 1495   1.592   1.629   3.487
  310SOL    HW1 1496   1.619   1.663   3.397
  310SOL    HW2 1497   1.671   1.591   3.533
  311SOL     OW 1498   1.111   1.195   2.962
  311SOL    HW1 1499   1.071   1.239   3.043
  311SOL    HW2 1500   1.070   1.232   2.879
  312SOL     OW 1501   1.638   1.099   2.941
  312SOL    HW1 1502   1.643   1.180   3.000
  312SOL    HW2 1503   1.552   1.101   2.890
  313SOL     OW 1504   0.915   0.089   3.264
  313SOL    HW1 1505   0.940   0.069   3.169
  313SOL    HW2 1506   0.987   0.145   3.306
  314SOL     OW 1507   0.980   1.116   3.581
  314SOL    HW1 1508   0.881   1.122   3.591
  314SOL    HW2 1509   1.003   1.036   3.525
  315SOL     OW 1510   0.705   1.050   2.230
  315SOL    HW1 1511   0.691   1.057   2.329
  315SOL    HW2 1512   0.789   0.999   2.212
  316SOL     OW 1513   0.410   0.813   3.113
  316SOL    HW1 1514   0.496   0.825   3.163
  316SOL    HW2 1515   0.368   0.726   3.140
  317SOL     OW 1516   1.274   0.386   3.124
  317SOL    HW1 1517   1.295   0.460   3.188
  317SOL    HW2 1518   1.185   0.403   3.081
  318SOL     OW 1519   0.064   1.564   3.193
  318SOL    HW1 1520   0.018   1.646   3.159
  318SOL    HW2 1521   0.162   1.583   3.202
  319SOL     OW 1522   0.367   1.100   2.363
  319SOL    HW1 1523   0.360   1.183   2.307
  319SOL    HW2 1524   0.371   1.020   2.303
  320SOL     OW 1525   0.566   0.537   2.727
  320SOL    HW1 1526   0.578   0.603   2.653
  320SOL    HW2 1527   0.612   0.571   2.810
  321SOL     OW 1528   1.252   1.348   2.250
  321SOL    HW1 1529   1.302   1.425   2.290
  321SOL    HW2 1530   1.157   1.350   2.282
  322SOL     OW 1531   1.272   1.445   3.004
  322SOL    HW1 1532   1.319   1.458   3.091
  322SOL    HW2 1533   1.206   1.371   3.013
  323SOL     OW 1534   1.582   0.639   2.334
  323SOL    HW1 1535   1.551   0.700   2.407
  323SOL    HW2 1536   1.632   0.691   2.265
  324SOL     OW 1537   0.354   1.510   3.191
  324SOL    HW1 1538   0.333   1.466   3.104
  324SOL    HW2 1539   0.451   1.536   3.194
  325SOL     OW 1540   0.402   0.751   3.460
  325SOL    HW1 1541   0.470   0.806   3.413
  325SOL    HW2 1542   0.442   0.663   3.487
  326SOL     OW 1543   1.587   0.779   3.532
  326SOL    HW1 1544   1.495   0.817   3.527
  326SOL    HW2 1545   1.647   0.826   3.467
  327SOL     OW 1546   1.013   0.105   3.632
  327SOL    HW1 1547   1.019   0.190   3.580
  327SOL    HW2 1548   1.045   0.029   3.575
  328SOL     OW 1549   0.504   0.050   3.602
  328SOL    HW1 1550   0.462  -0.007   3.532
  328SOL    HW2 1551   0.438   0.119   3.634
  329SOL     OW 1552   0.573   0.870   2.891
  329SOL    HW1 1553   0.617   0.959   2.882
  329SOL    HW2 1554   0.510   0.870   2.968
  330SOL     OW 1555   1.360   0.862   2.907
  330SOL    HW1 1556   1.285   0.862   2.841
  330SOL    HW2 1557   1.397   0.770   2.916
  331SOL     OW 1558   1.209   0.525   2.137
  331SOL    HW1 1559   1.222   0.441   2.191
  331SOL    HW2 1560   1.180   0.599   2.197
  332SOL     OW 1561   0.307   0.213   3.093
  332SOL    HW1 1562   0.284   0.250   3.183
  332SOL    HW2 1563   0.277   0.118   3.087
  333SOL     OW 1564   0.037   1.310   3.144
  333SOL    HW1 1565   0.090   1.261   3.212
  333SOL    HW2 1566   0.059   1.408   3.149
  334SOL     OW 1567   0.732   0.634   2.926
  334SOL    HW1 1568   0.791   0.608   2.850
  334SOL    HW2 1569   0.704   0.730   2.915
  335SOL     OW 1570   1.728   0.935   3.716
  335SOL    HW1 1571   1.682   0.928   3.627
  335SOL    HW2 1572   1.666   0.979   3.782
  336SOL     OW 1573   0.307   0.063   2.480
  336SOL    HW1 1574   0.296   0.157   2.513
  336SOL    HW2 1575   0.302   0.000   2.557
  337SOL     OW 1576   1.622   0.367   2.236
  337SOL    HW1 1577   1.624   0.291   2.300
  337SOL    HW2 1578   1.574   0.444   2.276
  338SOL     OW 1579   1.023   0.766   2.828
  338SOL    HW1 1580   1.038   0.787   2.924
  338SOL    HW2 1581   0.993   0.671   2.819
  339SOL     OW 1582   0.980   1.573   3.562
  339SOL    HW1 1583   0.960   1.617   3.474
  339SOL    HW2 1584   1.019   1.482   3.546
  340SOL     OW 1585   1.859   1.518   3.467
  340SOL    HW1 1586   1.873   1.545   3.372
  340SOL    HW2 1587   1.942   1.540   3.520
  341SOL     OW 1588   0.350   0.898   3.666
  341SOL    HW1 1589   0.426   0.942   3.714
  341SOL    HW2 1590   0.385   0.851   3.584
  342SOL     OW 1591   1.540   0.274   1.987
  342SOL    HW1 1592   1.479   0.199   2.010
  342SOL    HW2 1593   1.562   0.326   2.070
  343SOL     OW 1594   1.303   0.838   1.904
  343SOL    HW1 1595   1.337   0.745   1.919
  343SOL    HW2 1596   1.321   0.865   1.809
  344SOL     OW 1597   1.068   1.333   2.711
  344SOL    HW1 1598   1.075   1.249   2.656
  344SOL    HW2 1599   1.130   1.402   2.675
  345SOL     OW 1600   0.319   0.810   2.811
  345SOL    HW1 1601   0.412   0.846   2.816
  345SOL    HW2 1602   0.313   0.725   2.863
  346SOL     OW 1603   0.339   0.509   2.868
  346SOL    HW1 1604   0.287   0.426   2.851
  346SOL    HW2 1605   0.416   0.514   2.804
  347SOL     OW 1606   1.138   0.380   3.540
  347SOL    HW1 1607   1.093   0.443   3.604
  347SOL    HW2 1608   1.231   0.411   3.523
  348SOL     OW 1609   1.160   0.207   3.339
  348SOL    HW1 1610   1.160   0.271   3.416
  348SOL    HW2 1611   1.188   0.255   3.256
  349SOL     OW 1612   0.008   1.326   2.062
  349SOL    HW1 1613  -0.085   1.347   2.031
  349SOL    HW2 1614   0.018   1.227   2.075
  350SOL     OW 1615   0.088   1.801   2.789
  350SOL    HW1 1616   0.046   1.715   2.762
  350SOL    HW2 1617   0.182   1.804   2.755
  351SOL     OW 1618   0.504   1.568   2.772
  351SOL    HW1 1619   0.570   1.642   2.781
  351SOL    HW2 1620   0.548   1.489   2.730
  352SOL     OW 1621   1.002   0.796   3.100
  352SOL    HW1 1622   1.043   0.764   3.186
  352SOL    HW2 1623   0.906   0.769   3.097
  353SOL     OW 1624   0.040   0.544   2.976
  353SOL    HW1 1625   0.125   0.511   2.935
  353SOL    HW2 1626   0.053   0.559   3.074
  354SOL     OW 1627   0.189   0.520   3.584
  354SOL    HW1 1628   0.248   0.480   3.514
  354SOL    HW2 1629   0.131   0.591   3.543
  355SOL     OW 1630   1.369   0.950   3.522
  355SOL    HW1 1631   1.408   1.039   3.542
  355SOL    HW2 1632   1.379   0.930   3.425
  356SOL     OW 1633   0.815   0.572   2.187
  356SOL    HW1 1634   0.822   0.483   2.141
  356SOL    HW2 1635   0.721   0.606   2.179
  357SOL     OW 1636   1.657   0.604   3.068
  357SOL    HW1 1637   1.619   0.535   3.130
  357SOL    HW2 1638   1.739   0.568   3.024
  358SOL     OW 1639   0.252   1.564   3.606
  358SOL    HW1 1640   0.222   1.621   3.682
  358SOL    HW2 1641   0.245   1.467   3.632
  359SOL     OW 1642   0.671   0.464   3.131
  359SOL    HW1 1643   0.637   0.375   3.101
  359SOL    HW2 1644   0.697   0.518   3.051
  360SOL     OW 1645   0.930   1.678   3.327
  360SOL    HW1 1646   0.906   1.660   3.232
  360SOL    HW2 1647   0.960   1.772   3.337
  361SOL     OW 1648   0.473   0.500   2.053
  361SOL    HW1 1649   0.534   0.580   2.057
  361SOL    HW2 1650   0.378   0.531   2.060
  362SOL     OW 1651   0.159   1.137   3.328
  362SOL    HW1 1652   0.181   1.076   3.404
  362SOL    HW2 1653   0.169   1.088   3.242
  363SOL     OW 1654   1.347   1.059   3.096
  363SOL    HW1 1655   1.371   0.996   3.022
  363SOL    HW2 1656   1.257   1.099   3.078
  364SOL     OW 1657   1.302   0.855   2.171
  364SOL    HW1 1658   1.216   0.824   2.213
  364SOL    HW2 1659   1.298   0.841   2.072
  365SOL     OW 1660   1.759   1.747   3.016
  365SOL    HW1 1661   1.820   1.777   2.943
  365SOL    HW2 1662   1.721   1.658   2.994
  366SOL     OW 1663   1.252   1.731   2.990
  366SOL    HW1 1664   1.336   1.736   2.936
  366SOL    HW2 1665   1.229   1.635   3.008
  367SOL     OW 1666   0.083   1.258   2.884
  367SOL    HW1 1667   0.078   1.257   2.984
  367SOL    HW2 1668   0.000   1.217   2.846
  368SOL     OW 1669   0.688   1.662   3.578
  368SOL    HW1 1670   0.632   1.743   3.587
  368SOL    HW2 1671   0.740   1.666   3.492
  369SOL     OW 1672   1.726   0.135   2.385
  369SOL    HW1 1673   1.799   0.118   2.318
  369SOL    HW2 1674   1.695   0.048   2.423
  370SOL     OW 1675   1.388   1.573   2.339
  370SOL    HW1 1676   1.455   1.585   2.265
  370SOL    HW2 1677   1.348   1.662   2.362
  371SOL     OW 1678   0.130   1.794   3.713
  371SOL    HW1 1679   0.089   1.720   3.766
  371SOL    HW2 1680   0.194   1.845   3.771
  372SOL     OW 1681   1.280   0.927   2.534
  372SOL    HW1 1682   1.340   0.846   2.536
  372SOL    HW2 1683   1.320   0.996   2.474
  373SOL     OW 1684   0.830   1.273   3.284
  373SOL    HW1 1685   0.825   1.306   3.379
  373SOL    HW2 1686   0.744   1.292   3.238
  374SOL     OW 1687   0.672   1.616   2.016
  374SOL    HW1 1688   0.681   1.626   1.917
  374SOL    HW2 1689   0.632   1.527   2.037
  375SOL     OW 1690   1.650   1.720   3.256
  375SOL    HW1 1691   1.703   1.730   3.172
  375SOL    HW2 1692   1.623   1.810   3.290
  376SOL     OW 1693   1.841   0.175   2.825
  376SOL    HW1 1694   1.880   0.090   2.789
  376SOL    HW2 1695   1.743   0.177   2.806
  377SOL     OW 1696   0.263   0.326   2.582
  377SOL    HW1 1697   0.184   0.377   2.548
  377SOL    HW2 1698   0.254   0.311   2.680
  378SOL     OW 1699   1.194   1.612   1.893
  378SOL    HW1 1700   1.200   1.519   1.930
  378SOL    HW2 1701   1.135   1.612   1.813
  379SOL     OW 1702   0.822   1.002   3.234
  379SOL    HW1 1703   0.862   1.001   3.142
  379SOL    HW2 1704   0.832   1.094   3.274
  380SOL     OW 1705   0.916   0.910   2.153
  380SOL    HW1 1706   0.979   0.948   2.085
  380SOL    HW2 1707   0.956   0.827   2.192
  381SOL     OW 1708   1.504   1.607   1.906
  381SOL    HW1 1709   1.412   1.644   1.913
  381SOL    HW2 1710   1.542   1.627   1.816
  382SOL     OW 1711   0.372   1.288   3.352
  382SOL    HW1 1712   0.359   1.381   3.318
  382SOL    HW2 1713   0.288   1.236   3.339
  383SOL     OW 1714   1.614   1.292   3.151
  383SOL    HW1 1715   1.674   1.295   3.231
  383SOL    HW2 1716   1.539   1.356   3.164
  384SOL     OW 1717   1.039   1.098   2.558
  384SOL    HW1 1718   0.969   1.051   2.612
  384SOL    HW2 1719   1.098   1.030   2.515
  385SOL     OW 1720   1.014   0.236   2.833
  385SOL    HW1 1721   1.006   0.200   2.740
  385SOL    HW2 1722   1.012   0.160   2.898
  386SOL     OW 1723   0.590   1.487   2.353
  386SOL    HW1 1724   0.632   1.429   2.283
  386SOL    HW2 1725   0.546   1.566   2.309
  387SOL     OW 1726   1.709   0.385   3.243
  387SOL    HW1 1727   1.782   0.454   3.247
  387SOL    HW2 1728   1.737   0.310   3.184
  388SOL     OW 1729   0.255   1.348   2.152
  388SOL    HW1 1730   0.159   1.349   2.125
  388SOL    HW2 1731   0.267   1.401   2.236
  389SOL     OW 1732   0.105   1.013   3.588
  389SOL    HW1 1733   0.028   0.980   3.642
  389SOL    HW2 1734   0.190   0.983   3.630
  390SOL     OW 1735   0.672   0.203   3.351
  390SOL    HW1 1736   0.762   0.187   3.311
  390SOL    HW2 1737   0.680   0.208   3.450
  391SOL     OW 1738   0.075   0.345   1.895
  391SOL    HW1 1739  -0.017   0.317   1.866
  391SOL    HW2 1740   0.106   0.422   1.839
  392SOL     OW 1741   1.440   0.856   3.260
  392SOL    HW1 1742   1.383   0.908   3.197
  392SOL    HW2 1743   1.536   0.868   3.236
  393SOL     OW 1744   0.072   0.166   2.180
  393SOL    HW1 1745   0.055   0.249   2.126
  393SOL    HW2 1746   0.162   0.129   2.158
  394SOL     OW 1747   1.183   1.335   1.981
  394SOL    HW1 1748   1.084   1.324   1.983
  394SOL    HW2 1749   1.217   1.350   2.074
  395SOL     OW 1750   0.613   0.842   3.293
  395SOL    HW1 1751   0.669   0.923   3.276
  395SOL    HW2 1752   0.672   0.762   3.296
  396SOL     OW 1753   1.493   1.767   2.821
  396SOL    HW1 1754   1.526   1.831   2.752
  396SOL    HW2 1755   1.559   1.761   2.896
  397SOL     OW 1756   0.716   0.565   3.570
  397SOL    HW1 1757   0.735   0.630   3.644
  397SOL    HW2 1758   0.776   0.485   3.579
  398SOL     OW 1759   1.450   1.220   3.495
  398SOL    HW1 1760   1.441   1.210   3.594
  398SOL    HW2 1761   1.546   1.213   3.469
  399SOL     OW 1762   0.390   1.741   3.422
  399SOL    HW1 1763   0.299   1.782   3.420
  399SOL    HW2 1764   0.383   1.647   3.454
  400SOL     OW 1765   1.674   0.883   3.116
  400SOL    HW1 1766   1.647   0.794   3.079
  400SOL    HW2 1767   1.675   0.951   3.043
  401SOL     OW 1768   1.225   0.325   2.311
  401SOL    HW1 1769   1.290   0.251   2.300
  401SOL    HW2 1770   1.245   0.375   2.395
  402SOL     OW 1771   0.594   0.745   2.514
  402SOL    HW1 1772   0.644   0.830   2.495
  402SOL    HW2 1773   0.506   0.747   2.466
  403SOL     OW 1774   1.777   0.342   3.504
  403SOL    HW1 1775   1.760   0.373   3.410
  403SOL    HW2 1776   1.693   0.305   3.542
  404SOL     OW 1777   1.730   0.934   3.379
  404SOL    HW1 1778   1.768   1.025   3.394
  404SOL    HW2 1779   1.722   0.917   3.280
  405SOL     OW 1780   0.859   1.374   1.878
  405SOL    HW1 1781   0.813   1.389   1.966
  405SOL    HW2 1782   0.903   1.459   1.848
  406SOL     OW 1783   0.661   1.790   2.815
  406SOL    HW1 1784   0.615   1.878   2.802
  406SOL    HW2 1785   0.760   1.802   2.808
  407SOL     OW 1786   0.859   0.956   2.723
  407SOL    HW1 1787   0.913   0.887   2.771
  407SOL    HW2 1788   0.827   1.025   2.789
  408SOL     OW 1789   1.083   0.984   1.949
  408SOL    HW1 1790   1.060   1.037   1.867
  408SOL    HW2 1791   1.164   0.928   1.930
  409SOL     OW 1792   1.861   1.569   2.713
  409SOL    HW1 1793   1.790   1.557   2.643
  409SOL    HW2 1794   1.862   1.490   2.773
  410SOL     OW 1795   0.221   1.314   3.706
  410SOL    HW1 1796   0.156   1.241   3.685
  410SOL    HW2 1797   0.225   1.328   3.804
  411SOL     OW 1798   0.079   1.240   2.515
  411SOL    HW1 1799   0.078   1.193   2.603
  411SOL    HW2 1800   0.161   1.212   2.464
  412SOL     OW 1801   0.672   1.391   3.486
  412SOL    HW1 1802   0.594   1.341   3.524
  412SOL    HW2 1803   0.669   1.486   3.517
  413SOL     OW 1804   1.824   0.192   3.089
  413SOL    HW1 1805   1.820   0.102   3.133
  413SOL    HW2 1806   1.827   0.181   2.990
  414SOL     OW 1807   0.428   0.424   2.382
  414SOL    HW1 1808   0.458   0.352   2.320
  414SOL    HW2 1809   0.389   0.384   2.465
  415SOL     OW 1810   1.705   1.487   2.966
  415SOL    HW1 1811   1.612   1.462   2.939
  415SOL    HW2 1812   1.731   1.437   3.048
  416SOL     OW 1813   0.317   0.547   3.142
  416SOL    HW1 1814   0.355   0.488   3.214
  416SOL    HW2 1815   0.357   0.521   3.054
  417SOL     OW 1816   0.812   1.586   2.549
  417SOL    HW1 1817   0.844   1.596   2.455
  417SOL    HW2 1818   0.733   1.524   2.551
  418SOL     OW 1819   1.424   0.214   2.974
  418SOL    HW1 1820   1.476   0.149   3.029
  418SOL    HW2 1821   1.375   0.277   3.035
  419SOL     OW 1822   1.001   0.034   3.016
  419SOL    HW1 1823   0.938  -0.038   2.985
  419SOL    HW2 1824   1.094  -0.002   3.016
  420SOL     OW 1825   0.770   1.330   2.163
  420SOL    HW1 1826   0.724   1.243   2.180
  420SOL    HW2 1827   0.861   1.327   2.204
  421SOL     OW 1828   0.618   1.567   3.146
  421SOL    HW1 1829   0.613   1.649   3.203
  421SOL    HW2 1830   0.707   1.564   3.101
  422SOL     OW 1831   1.352   0.052   2.030
  422SOL    HW1 1832   1.387   0.011   1.946
  422SOL    HW2 1833   1.262   0.014   2.050
  423SOL     OW 1834   1.300   0.453   2.553
  423SOL    HW1 1835   1.241   0.533   2.557
  423SOL    HW2 1836   1.315   0.418   2.646
  424SOL     OW 1837   1.593   0.221   2.744
  424SOL    HW1 1838   1.509   0.220   2.798
  424SOL    HW2 1839   1.595   0.304   2.688
  425SOL     OW 1840   0.039   1.077   2.162
  425SOL    HW1 1841   0.138   1.066   2.153
  425SOL    HW2 1842  -0.001   0.991   2.194
  426SOL     OW 1843   0.875   1.646   2.199
  426SOL    HW1 1844   0.798   1.611   2.145
  426SOL    HW2 1845   0.843   1.717   2.261
  427SOL     OW 1846   0.230   0.628   3.837
  427SOL    HW1 1847   0.137   0.626   3.874
  427SOL    HW2 1848   0.231   0.589   3.745
  428SOL     OW 1849   0.225   0.275   4.720
  428SOL    HW1 1850   0.260   0.258   4.812
  428SOL    HW2 1851   0.137   0.230   4.708
  429SOL     OW 1852   0.019   0.368   4.371
  429SOL    HW1 1853  -0.063   0.411   4.410
  429SOL    HW2 1854  -0.009   0.295   4.308
  430SOL     OW 1855   0.569   1.275   4.889
  430SOL    HW1 1856   0.476   1.268   4.852
  430SOL    HW2 1857   0.580   1.364   4.933
  431SOL     OW 1858   1.555   1.511   4.427
  431SOL    HW1 1859   1.498   1.495   4.508
  431SOL    HW2 1860   1.496   1.521   4.347
  432SOL     OW 1861   1.135   0.703   4.441
  432SOL    HW1 1862   1.192   0.781   4.416
  432SOL    HW2 1863   1.075   0.729   4.517
  433SOL     OW 1864   1.755   0.607   3.955
  433SOL    HW1 1865   1.743   0.594   3.856
  433SOL    HW2 1866   1.725   0.526   4.004
  434SOL     OW 1867   0.768   1.144   4.747
  434SOL    HW1 1868   0.690   1.161   4.807
  434SOL    HW2 1869   0.802   1.231   4.711
  435SOL     OW 1870   0.850   0.798   5.547
  435SOL    HW1 1871   0.846   0.874   5.612
  435SOL    HW2 1872   0.872   0.834   5.456
  436SOL     OW 1873   0.685   1.012   4.389
  436SOL    HW1 1874   0.754   0.996   4.459
  436SOL    HW2 1875   0.612   1.069   4.427
  437SOL     OW 1876   0.686   1.161   5.527
  437SOL    HW1 1877   0.746   1.240   5.541
  437SOL    HW2 1878   0.600   1.192   5.486
  438SOL     OW 1879   0.335   1.435   4.785
  438SOL    HW1 1880   0.257   1.404   4.732
  438SOL    HW2 1881   0.393   1.493   4.728
  439SOL     OW 1882   1.460   1.505   5.063
  439SOL    HW1 1883   1.484   1.599   5.089
  439SOL    HW2 1884   1.444   1.451   5.145
  440SOL     OW 1885   0.438   0.392   5.223
  440SOL    HW1 1886   0.520   0.336   5.232
  440SOL    HW2 1887   0.357   0.334   5.227
  441SOL     OW 1888   1.603   0.447   4.461
  441SOL    HW1 1889   1.529   0.493   4.411
  441SOL    HW2 1890   1.654   0.515   4.514
  442SOL     OW 1891   0.231   1.713   4.207
  442SOL    HW1 1892   0.265   1.790   4.261
  442SOL    HW2 1893   0.275   1.713   4.117
  443SOL     OW 1894   1.127   1.341   5.414
  443SOL    HW1 1895   1.174   1.341   5.502
  443SOL    HW2 1896   1.079   1.254   5.403
  444SOL     OW 1897   0.230   1.434   4.262
  444SOL    HW1 1898   0.204   1.530   4.262
  444SOL    HW2 1899   0.159   1.380   4.307
  445SOL     OW 1900   0.240   1.091   4.610
  445SOL    HW1 1901   0.254   1.007   4.662
  445SOL    HW2 1902   0.185   1.155   4.665
  446SOL     OW 1903   0.620   1.786   5.163
  446SOL    HW1 1904   0.528   1.769   5.198
  446SOL    HW2 1905   0.648   1.878   5.189
  447SOL     OW 1906   0.606   0.964   3.847
  447SOL    HW1 1907   0.613   1.048   3.793
  447SOL    HW2 1908   0.652   0.977   3.935
  448SOL     OW 1909   1.594   0.114   5.204
  448SOL    HW1 1910   1.576   0.181   5.132
  448SOL    HW2 1911   1.591   0.160   5.293
  449SOL     OW 1912   0.122   0.643   4.287
  449SOL    HW1 1913   0.077   0.555   4.304
  449SOL    HW2 1914   0.121   0.697   4.371
  450SOL     OW 1915   1.842   1.767   4.083
  450SOL    HW1 1916   1.896   1.738   4.163
  450SOL    HW2 1917   1.872   1.857   4.054
  451SOL     OW 1918   0.027   1.596   3.841
  451SOL    HW1 1919   0.008   1.500   3.862
  451SOL    HW2 1920  -0.006   1.654   3.916
  452SOL     OW 1921   1.689   0.922   4.336
  452SOL    HW1 1922   1.784   0.893   4.344
  452SOL    HW2 1923   1.681   0.987   4.261
  453SOL     OW 1924   1.641   1.108   4.156
  453SOL    HW1 1925   1.727   1.110   4.104
  453SOL    HW2 1926   1.655   1.155   4.244
  454SOL     OW 1927   0.113   0.737   5.321
  454SOL    HW1 1928   0.201   0.724   5.366
  454SOL    HW2 1929   0.100   0.834   5.299
  455SOL     OW 1930   0.613   1.365   4.450
  455SOL    HW1 1931   0.564   1.278   4.459
  455SOL    HW2 1932   0.590   1.408   4.363
  456SOL     OW 1933   1.293   1.228   5.147
  456SOL    HW1 1934   1.330   1.155   5.089
  456SOL    HW2 1935   1.345   1.233   5.232
  457SOL     OW 1936   0.809   0.004   4.226
  457SOL    HW1 1937   0.849   0.095   4.217
  457SOL    HW2 1938   0.709   0.012   4.232
  458SOL     OW 1939   0.197   0.976   4.988
  458SOL    HW1 1940   0.286   0.931   4.974
  458SOL    HW2 1941   0.124   0.911   4.969
  459SOL     OW 1942   1.525   0.999   3.914
  459SOL    HW1 1943   1.462   0.923   3.927
  459SOL    HW2 1944   1.573   1.017   4.000
  460SOL     OW 1945   1.187   1.792   5.340
  460SOL    HW1 1946   1.211   1.852   5.264
  460SOL    HW2 1947   1.194   1.697   5.310
  461SOL     OW 1948   0.317   0.251   5.525
  461SOL    HW1 1949   0.388   0.322   5.531
  461SOL    HW2 1950   0.229   0.290   5.553
  462SOL     OW 1951   1.466   1.417   4.677
  462SOL    HW1 1952   1.407   1.423   4.757
  462SOL    HW2 1953   1.451   1.329   4.631
  463SOL     OW 1954   1.667   1.714   4.296
  463SOL    HW1 1955   1.626   1.691   4.208
  463SOL    HW2 1956   1.649   1.640   4.361
  464SOL     OW 1957   0.598   0.729   3.994
  464SOL    HW1 1958   0.622   0.798   3.926
  464SOL    HW2 1959   0.520   0.762   4.048
  465SOL     OW 1960   1.281   0.345   4.668
  465SOL    HW1 1961   1.195   0.295   4.655
  465SOL    HW2 1962   1.343   0.291   4.724
  466SOL     OW 1963   1.576   1.662   4.031
  466SOL    HW1 1964   1.665   1.708   4.034
  466SOL    HW2 1965   1.555   1.638   3.936
  467SOL     OW 1966   0.807   0.605   5.189
  467SOL    HW1 1967   0.760   0.602   5.278
  467SOL    HW2 1968   0.756   0.550   5.123
  468SOL     OW 1969   1.394   0.469   5.398
  468SOL    HW1 1970   1.374   0.512   5.486
  468SOL    HW2 1971   1.472   0.407   5.407
  469SOL     OW 1972   0.973   0.890   5.296
  469SOL    HW1 1973   1.019   0.806   5.267
  469SOL    HW2 1974   0.917   0.924   5.221
  470SOL     OW 1975   0.991   0.410   4.966
  470SOL    HW1 1976   0.914   0.444   5.020
  470SOL    HW2 1977   0.957   0.359   4.887
  471SOL     OW 1978   1.041   0.701   4.153
  471SOL    HW1 1979   1.067   0.697   4.249
  471SOL    HW2 1980   0.956   0.650   4.139
  472SOL     OW 1981   0.076   0.811   4.513
  472SOL    HW1 1982   0.175   0.799   4.522
  472SOL    HW2 1983   0.052   0.906   4.534
  473SOL     OW 1984   0.130   1.821   5.295
  473SOL    HW1 1985   0.120   1.806   5.394
  473SOL    HW2 1986   0.044   1.857   5.259
  474SOL     OW 1987   0.865   0.348   3.919
  474SOL    HW1 1988   0.924   0.411   3.870
  474SOL    HW2 1989   0.884   0.254   3.890
  475SOL     OW 1990   1.719   0.585   5.555
  475SOL    HW1 1991   1.693   0.674   5.519
  475SOL    HW2 1992   1.717   0.517   5.482
  476SOL     OW 1993   1.362   1.144   4.269
  476SOL    HW1 1994   1.445   1.115   4.221
  476SOL    HW2 1995   1.313   1.211   4.213
  477SOL     OW 1996   0.550   0.196   4.609
  477SOL    HW1 1997   0.545   0.191   4.709
  477SOL    HW2 1998   0.552   0.292   4.580
  478SOL     OW 1999   1.008   1.456   4.201
  478SOL    HW1 2000   0.962   1.528   4.149
  478SOL    HW2 2001   1.004   1.476   4.299
  479SOL     OW 2002   0.351   1.801   4.577
  479SOL    HW1 2003   0.401   1.715   4.583
  479SOL    HW2 2004   0.416   1.878   4.574
  480SOL     OW 2005   1.795   1.066   4.597
  480SOL    HW1 2006   1.733   1.051   4.521
  480SOL    HW2 2007   1.743   1.077   4.682
  481SOL     OW 2008   1.227   1.550   5.230
  481SOL    HW1 2009   1.233   1.473   5.294
  481SOL    HW2 2010   1.175   1.524   5.150
  482SOL     OW 2011   0.321   0.943   3.966
  482SOL    HW1 2012   0.403   0.982   3.924
  482SOL    HW2 2013   0.294   0.861   3.917
  483SOL     OW 2014   1.458   0.735   4.452
  483SOL    HW1 2015   1.453   0.670   4.527
  483SOL    HW2 2016   1.538   0.794   4.465
  484SOL     OW 2017   0.461   1.266   5.451
  484SOL    HW1 2018   0.411   1.267   5.365
  484SOL    HW2 2019   0.398   1.248   5.527
  485SOL     OW 2020   1.111   1.776   3.961
  485SOL    HW1 2021   1.051   1.714   4.011
  485SOL    HW2 2022   1.142   1.732   3.876
  486SOL     OW 2023   0.202   0.285   5.222
  486SOL    HW1 2024   0.122   0.345   5.209
  486SOL    HW2 2025   0.192   0.236   5.308
  487SOL     OW 2026   1.632   1.377   3.805
  487SOL    HW1 2027   1.600   1.471   3.795
  487SOL    HW2 2028   1.556   1.314   3.793
  488SOL     OW 2029   0.464   1.743   4.047
  488SOL    HW1 2030   0.497   1.782   4.133
  488SOL    HW2 2031   0.540   1.736   3.982
  489SOL     OW 2032   1.400   0.107   4.150
  489SOL    HW1 2033   1.376   0.070   4.060
  489SOL    HW2 2034   1.499   0.123   4.154
  490SOL     OW 2035   0.249   1.785   4.965
  490SOL    HW1 2036   0.306   1.720   5.015
  490SOL    HW2 2037   0.233   1.752   4.872
  491SOL     OW 2038   0.940   1.698   4.628
  491SOL    HW1 2039   1.020   1.641   4.649
  491SOL    HW2 2040   0.891   1.658   4.551
  492SOL     OW 2041   0.382   0.700   4.204
  492SOL    HW1 2042   0.427   0.610   4.201
  492SOL    HW2 2043   0.288   0.689   4.237
  493SOL     OW 2044   1.547   0.222   5.453
  493SOL    HW1 2045   1.542   0.259   5.545
  493SOL    HW2 2046   1.475   0.153   5.441
  494SOL     OW 2047   0.614   0.122   3.841
  494SOL    HW1 2048   0.712   0.100   3.848
  494SOL    HW2 2049   0.583   0.105   3.748
  495SOL     OW 2050   0.781   0.264   5.473
  495SOL    HW1 2051   0.848   0.203   5.516
  495SOL    HW2 2052   0.708   0.283   5.538
  496SOL     OW 2053   0.888   1.514   4.919
  496SOL    HW1 2054   0.865   1.489   4.825
  496SOL    HW2 2055   0.949   1.445   4.958
  497SOL     OW 2056   1.351   0.590   5.157
  497SOL    HW1 2057   1.379   0.547   5.242
  497SOL    HW2 2058   1.376   0.686   5.158
  498SOL     OW 2059   0.803   1.402   4.648
  498SOL    HW1 2060   0.893   1.416   4.606
  498SOL    HW2 2061   0.732   1.404   4.577
  499SOL     OW 2062   0.922   0.503   4.623
  499SOL    HW1 2063   0.897   0.494   4.527
  499SOL    HW2 2064   0.970   0.421   4.654
  500SOL     OW 2065   0.539   0.064   4.236
  500SOL    HW1 2066   0.458   0.065   4.294
  500SOL    HW2 2067   0.542   0.147   4.181
  501SOL     OW 2068   1.434   1.188   3.765
  501SOL    HW1 2069   1.466   1.112   3.822
  501SOL    HW2 2070   1.342   1.215   3.795
  502SOL     OW 2071   0.297   0.035   3.895
  502SOL    HW1 2072   0.346   0.119   3.874
  502SOL    HW2 2073   0.359  -0.030   3.940
  503SOL     OW 2074   0.935   0.236   4.204
  503SOL    HW1 2075   0.887   0.277   4.126
  503SOL    HW2 2076   1.034   0.234   4.185
  504SOL     OW 2077   1.076   0.683   5.188
  504SOL    HW1 2078   0.996   0.622   5.191
  504SOL    HW2 2079   1.157   0.630   5.164
  505SOL     OW 2080   1.227   1.570   4.517
  505SOL    HW1 2081   1.248   1.644   4.452
  505SOL    HW2 2082   1.295   1.570   4.590
  506SOL     OW 2083   0.459   1.152   4.465
  506SOL    HW1 2084   0.388   1.125   4.530
  506SOL    HW2 2085   0.433   1.124   4.372
  507SOL     OW 2086   1.271   1.797   4.315
  507SOL    HW1 2087   1.315   1.861   4.251
  507SOL    HW2 2088   1.221   1.849   4.385
  508SOL     OW 2089   1.032   0.549   3.740
  508SOL    HW1 2090   0.991   0.631   3.701
  508SOL    HW2 2091   1.096   0.575   3.813
  509SOL     OW 2092   0.078   0.556   5.110
  509SOL    HW1 2093   0.170   0.555   5.069
  509SOL    HW2 2094   0.072   0.630   5.177
  510SOL     OW 2095   0.561   0.222   4.871
  510SOL    HW1 2096   0.599   0.138   4.908
  510SOL    HW2 2097   0.473   0.241   4.915
  511SOL     OW 2098   0.866   0.454   4.366
  511SOL    HW1 2099   0.834   0.526   4.304
  511SOL    HW2 2100   0.890   0.373   4.313
  512SOL     OW 2101   1.017   0.039   4.477
  512SOL    HW1 2102   0.945   0.044   4.408
  512SOL    HW2 2103   0.993  -0.030   4.546
  513SOL     OW 2104   1.429   1.173   4.591
  513SOL    HW1 2105   1.374   1.089   4.584
  513SOL    HW2 2106   1.455   1.202   4.499
  514SOL     OW 2107   1.466   0.590   4.716
  514SOL    HW1 2108   1.436   0.495   4.723
  514SOL    HW2 2109   1.539   0.606   4.782
  515SOL     OW 2110   1.857   0.833   4.101
  515SOL    HW1 2111   1.899   0.769   4.165
  515SOL    HW2 2112   1.819   0.782   4.023
  516SOL     OW 2113   0.488   1.385   3.898
  516SOL    HW1 2114   0.401   1.370   3.945
  516SOL    HW2 2115   0.471   1.411   3.803
  517SOL     OW 2116   1.664   1.280   4.381
  517SOL    HW1 2117   1.763   1.288   4.395
  517SOL    HW2 2118   1.619   1.364   4.412
  518SOL     OW 2119   1.390   0.575   3.802
  518SOL    HW1 2120   1.336   0.554   3.883
  518SOL    HW2 2121   1.481   0.534   3.811
  519SOL     OW 2122   0.527   0.256   4.052
  519SOL    HW1 2123   0.554   0.197   3.977
  519SOL    HW2 2124   0.527   0.351   4.021
  520SOL     OW 2125   1.754   1.223   5.312
  520SOL    HW1 2126   1.845   1.184   5.299
  520SOL    HW2 2127   1.762   1.319   5.336
  521SOL     OW 2128   1.064   1.347   5.064
  521SOL    HW1 2129   0.984   1.324   5.119
  521SOL    HW2 2130   1.147   1.321   5.113
  522SOL     OW 2131   1.592   1.629   5.349
  522SOL    HW1 2132   1.619   1.663   5.259
  522SOL    HW2 2133   1.671   1.591   5.395
  523SOL     OW 2134   1.111   1.195   4.824
  523SOL    HW1 2135   1.071   1.239   4.905
  523SOL    HW2 2136   1.070   1.232   4.741
  524SOL     OW 2137   1.638   1.099   4.803
  524SOL    HW1 2138   1.643   1.180   4.862
  524SOL    HW2 2139   1.552   1.101   4.752
  525SOL     OW 2140   0.915   0.089   5.126
  525SOL    HW1 2141   0.940   0.069   5.031
  525SOL    HW2 2142   0.987   0.145   5.168
  526SOL     OW 2143   0.980   1.116   5.443
  526SOL    HW1 2144   0.881   1.122   5.453
  526SOL    HW2 2145   1.003   1.036   5.387
  527SOL     OW 2146   0.705   1.050   4.092
  527SOL    HW1 2147   0.691   1.057   4.191
  527SOL    HW2 2148   0.789   0.999   4.074
  528SOL     OW 2149   0.410   0.813   4.975
  528SOL    HW1 2150   0.496   0.825   5.025
  528SOL    HW2 2151   0.368   0.726   5.002
  529SOL     OW 2152   1.274   0.386   4.986
  529SOL    HW1 2153   1.295   0.460   5.050
  529SOL    HW2 2154   1.185   0.403   4.943
  530SOL     OW 2155   0.064   1.564   5.055
  530SOL    HW1 2156   0.018   1.646   5.021
  530SOL    HW2 2157   0.162   1.583   5.064
  531SOL     OW 2158   0.367   1.100   4.225
  531SOL    HW1 2159   0.360   1.183   4.169
  531SOL    HW2 2160   0.371   1.020   4.165
  532SOL     OW 2161   0.566   0.537   4.589
  532SOL    HW1 2162   0.578   0.603   4.515
  532SOL    HW2 2163   0.612   0.571   4.672
  533SOL     OW 2164   1.252   1.348   4.112
  533SOL    HW1 2165   1.302   1.425   4.152
  533SOL    HW2 2166   1.157   1.350   4.144
  534SOL     OW 2167   1.272   1.445   4.866
  534SOL    HW1 2168   1.319   1.458   4.953
  534SOL    HW2 2169   1.206   1.371   4.875
  535SOL     OW 2170   1.582   0.639   4.196
  535SOL    HW1 2171   1.551   0.700   4.269
  535SOL    HW2 2172   1.632   0.691   4.127
  536SOL     OW 2173   0.354   1.510   5.053
  536SOL    HW1 2174   0.333   1.466   4.966
  536SOL    HW2 2175   0.451   1.536   5.056
  537SOL     OW 2176   0.402   0.751   5.322
  537SOL    HW1 2177   0.470   0.806   5.275
  537SOL    HW2 2178   0.442   0.663   5.349
  538SOL     OW 2179   1.587   0.779   5.394
  538SOL    HW1 2180   1.495   0.817   5.389
  538SOL    HW2 2181   1.647   0.826   5.329
  539SOL     OW 2182   1.013   0.105   5.494
  539SOL    HW1 2183   1.019   0.190   5.442
  539SOL    HW2 2184   1.045   0.029   5.437
  540SOL     OW 2185   0.504   0.050   5.464
  540SOL    HW1 2186   0.462  -0.007   5.394
  540SOL    HW2 2187   0.438   0.119   5.496
  541SOL     OW 2188   0.573   0.870   4.753
  541SOL    HW1 2189   0.617   0.959   4.744
  541SOL    HW2 2190   0.510   0.870   4.830
  542SOL     OW 2191   1.360   0.862   4.769
  542SOL    HW1 2192   1.285   0.862   4.703
  542SOL    HW2 2193   1.397   0.770   4.778
  543SOL     OW 2194   1.209   0.525   3.999
  543SOL    HW1 2195   1.222   0.441   4.053
  543SOL    HW2 2196   1.180   0.599   4.059
  544SOL     OW 2197   0.307   0.213   4.955
  544SOL    HW1 2198   0.284   0.250   5.045
  544SOL    HW2 2199   0.277   0.118   4.949
  545SOL     OW 2200   0.037   1.310   5.006
  545SOL    HW1 2201   0.090   1.261   5.074
  545SOL    HW2 2202   0.059   1.408   5.011
  546SOL     OW 2203   0.732   0.634   4.788
  546SOL    HW1 2204   0.791   0.608   4.712
  546SOL    HW2 2205   0.704   0.730   4.777
  547SOL     OW 2206   1.728   0.935   5.578
  547SOL    HW1 2207   1.682   0.928   5.489
  547SOL    HW2 2208   1.666   0.979   5.644
  548SOL     OW 2209   0.307   0.063   4.342
  548SOL    HW1 2210   0.296   0.157   4.375
  548SOL    HW2 2211   0.302   0.000   4.419
  549SOL     OW 2212   1.622   0.367   4.098
  549SOL    HW1 2213   1.624   0.291   4.162
  549SOL    HW2 2214   1.574   0.444   4.138
  550SOL     OW 2215   1.023   0.766   4.690
  550SOL    HW1 2216   1.038   0.787   4.786
  550SOL    HW2 2217   0.993   0.671   4.681
  551SOL     OW 2218   0.980   1.573   5.424
  551SOL    HW1 2219   0.960   1.617   5.336
  551SOL    HW2 2220   1.019   1.482   5.408
  552SOL     OW 2221   1.859   1.518   5.329
  552SOL    HW1 2222   1.873   1.545   5.234
  552SOL    HW2 2223   1.942   1.540   5.382
  553SOL     OW 2224   0.350   0.898   5.528
  553SOL    HW1 2225   0.426   0.942   5.576
  553SOL    HW2 2226   0.385   0.851   5.446
  554SOL     OW 2227   1.540   0.274   3.849
  554SOL    HW1 2228   1.479   0.199   3.872
  554SOL    HW2 2229   1.562   0.326   3.932
  555SOL     OW 2230   1.303   0.838   3.766
  555SOL    HW1 2231   1.337   0.745   3.781
  555SOL    HW2 2232   1.321   0.865   3.671
  556SOL     OW 2233   1.068   1.333   4.573
  556SOL    HW1 2234   1.075   1.249   4.518
  556SOL    HW2 2235   1.130   1.402   4.537
  557SOL     OW 2236   0.319   0.810   4.673
  557SOL    HW1 2237   0.412   0.846   4.678
  557SOL    HW2 2238   0.313   0.725   4.725
  558SOL     OW 2239   0.339   0.509   4.730
  558SOL    HW1 2240   0.287   0.426   4.713
  558SOL    HW2 2241   0.416   0.514   4.666
  559SOL     OW 2242   1.138   0.380   5.402
  559SOL    HW1 2243   1.093   0.443   5.466
  559SOL    HW2 2244   1.231   0.411   5.385
  560SOL     OW 2245   1.160   0.207   5.201
  560SOL    HW1 2246   1.160   0.271   5.278
  560SOL    HW2 2247   1.188   0.255   5.118
  561SOL     OW 2248   0.008   1.326   3.924
  561SOL    HW1 2249  -0.085   1.347   3.893
  561SOL    HW2 2250   0.018   1.227   3.937
  562SOL     OW 2251   0.088   1.801   4.651
  562SOL    HW1 2252   0.046   1.715   4.624
  562SOL    HW2 2253   0.182   1.804   4.617
  563SOL     OW 2254   0.504   1.568   4.634
  563SOL    HW1 2255   0.570   1.642   4.643
  563SOL    HW2 2256   0.548   1.489   4.592
  564SOL     OW 2257   1.002   0.796   4.962
  564SOL    HW1 2258   1.043   0.764   5.048
  564SOL    HW2 2259   0.906   0.769   4.959
  565SOL     OW 2260   0.040   0.544   4.838
  565SOL    HW1 2261   0.125   0.511   4.797
  565SOL    HW2 2262   0.053   0.559   4.936
  566SOL     OW 2263   0.189   0.520   5.446
  566SOL    HW1 2264   0.248   0.480   5.376
  566SOL    HW2 2265   0.131   0.591   5.405
  567SOL     OW 2266   1.369   0.950   5.384
  567SOL    HW1 2267   1.408   1.039   5.404
  567SOL    HW2 2268   1.379   0.930   5.287
  568SOL     OW 2269   0.815   0.572   4.049
  568SOL    HW1 2270   0.822   0.483   4.003
  568SOL    HW2 2271   0.721   0.606   4.041
  569SOL     OW 2272   1.657   0.604   4.930
  569SOL    HW1 2273   1.619   0.535   4.992
  569SOL    HW2 2274   1.739   0.568   4.886
  570SOL     OW 2275   0.252   1.564   5.468
  570SOL    HW1 2276   0.222   1.621   5.544
  570SOL    HW2 2277   0.245   1.467   5.494
  571SOL     OW 2278   0.671   0.464   4.993
  571SOL    HW1 2279   0.637   0.375   4.963
  571SOL    HW2 2280   0.697   0.518   4.913
  572SOL     OW 2281   0.930   1.678   5.189
  572SOL    HW1 2282   0.906   1.660   5.094
  572SOL    HW2 2283   0.960   1.772   5.199
  573SOL     OW 2284   0.473   0.500   3.915
  573SOL    HW1 2285   0.534   0.580   3.919
  573SOL    HW2 2286   0.378   0.531   3.922
  574SOL     OW 2287   0.159   1.137   5.190
  574SOL    HW1 2288   0.181   1.076   5.266
  574SOL    HW2 2289   0.169   1.088   5.104
  575SOL     OW 2290   1.347   1.059   4.958
  575SOL    HW1 2291   1.371   0.996   4.884
  575SOL    HW2 2292   1.257   1.099   4.940
  576SOL     OW 2293   1.302   0.855   4.033
  576SOL    HW1 2294   1.216   0.824   4.075
  576SOL    HW2 2295   1.298   0.841   3.934
  577SOL     OW 2296   1.759   1.747   4.878
  577SOL    HW1 2297   1.820   1.777   4.805
  577SOL    HW2 2298   1.721   1.658   4.856
  578SOL     OW 2299   1.252   1.731   4.852
  578SOL    HW1 2300   1.336   1.736   4.798
  578SOL    HW2 2301   1.229   1.635   4.870
  579SOL     OW 2302   0.083   1.258   4.746
  579SOL    HW1 2303   0.078   1.257   4.846
  579SOL    HW2 2304   0.000   1.217   4.708
  580SOL     OW 2305   0.688   1.662   5.440
  580SOL    HW1 2306   0.632   1.743   5.449
  580SOL    HW2 2307   0.740   1.666   5.354
  581SOL     OW 2308   1.726   0.135   4.247
  581SOL    HW1 2309   1.799   0.118   4.180
  581SOL    HW2 2310   1.695   0.048   4.285
  582SOL     OW 2311   1.388   1.573   4.201
  582SOL    HW1 2312   1.455   1.585   4.127
  582SOL    HW2 2313   1.348   1.662   4.224
  583SOL     OW 2314   0.130   1.794   5.575
  583SOL    HW1 2315   0.089   1.720   5.628
  583SOL    HW2 2316   0.194   1.845   5.633
  584SOL     OW 2317   1.280   0.927   4.396
  584SOL    HW1 2318   1.340   0.846   4.398
  584SOL    HW2 2319   1.320   0.996   4.336
  585SOL     OW 2320   0.830   1.273   5.146
  585SOL    HW1 2321   0.825   1.306   5.241
  585SOL    HW2 2322   0.744   1.292   5.100
  586SOL     OW 2323   0.672   1.616   3.878
  586SOL    HW1 2324   0.681   1.626   3.779
  586SOL    HW2 2325   0.632   1.527   3.899
  587SOL     OW 2326   1.650   1.720   5.118
  587SOL    HW1 2327   1.703   1.730   5.034
  587SOL    HW2 2328   1.623   1.810   5.152
  588SOL     OW 2329   1.841   0.175   4.687
  588SOL    HW1 2330   1.880   0.090   4.651
  588SOL    HW2 2331   1.743   0.177   4.668
  589SOL     OW 2332   0.263   0.326   4.444
  589SOL    HW1 2333   0.184   0.377   4.410
  589SOL    HW2 2334   0.254   0.311   4.542
  590SOL     OW 2335   1.194   1.612   3.755
  590SOL    HW1 2336   1.200   1.519   3.792
  590SOL    HW2 2337   1.135   1.612   3.675
  591SOL     OW 2338   0.822   1.002   5.096
  591SOL    HW1 2339   0.862   1.001   5.004
  591SOL    HW2 2340   0.832   1.094   5.136
  592SOL     OW 2341   0.916   0.910   4.015
  592SOL    HW1 2342   0.979   0.948   3.947
  592SOL    HW2 2343   0.956   0.827   4.054
  593SOL     OW 2344   1.504   1.607   3.768
  593SOL    HW1 2345   1.412   1.644   3.775
  593SOL    HW2 2346   1.542   1.627   3.678
  594SOL     OW 2347   0.372   1.288   5.214
  594SOL    HW1 2348   0.359   1.381   5.180
  594SOL    HW2 2349   0.288   1.236   5.201
  595SOL     OW 2350   1.614   1.292   5.013
  595SOL    HW1 2351   1.674   1.295   5.093
  595SOL    HW2 2352   1.539   1.356   5.026
  596SOL     OW 2353   1.039   1.098   4.420
  596SOL    HW1 2354   0.969   1.051   4.474
  596SOL    HW2 2355   1.098   1.030   4.377
  597SOL     OW 2356   1.014   0.236   4.695
  597SOL    HW1 2357   1.006   0.200   4.602
  597SOL    HW2 2358   1.012   0.160   4.760
  598SOL     OW 2359   0.590   1.487   4.215
  598SOL    HW1 2360   0.632   1.429   4.145
  598SOL    HW2 2361   0.546   1.566   4.171
  599SOL     OW 2362   1.709   0.385   5.105
  599SOL    HW1 2363   1.782   0.454   5.109
  599SOL    HW2 2364   1.737   0.310   5.046
  600SOL     OW 2365   0.255   1.348   4.014
  600SOL    HW1 2366   0.159   1.349   3.987
  600SOL    HW2 2367   0.267   1.401   4.098
  601SOL     OW 2368   0.105   1.013   5.450
  601SOL    HW1 2369   0.028   0.980   5.504
  601SOL    HW2 2370   0.190   0.983   5.492
  602SOL     OW 2371   0.672   0.203   5.213
  602SOL    HW1 2372   0.762   0.187   5.173
  602SOL    HW2 2373   0.680   0.208   5.312
  603SOL     OW 2374   0.075   0.345   3.757
  603SOL    HW1 2375  -0.017   0.317   3.728
  603SOL    HW2 2376   0.106   0.422   3.701
  604SOL     OW 2377   1.440   0.856   5.122
  604SOL    HW1 2378   1.383   0.908   5.059
  604SOL    HW2 2379   1.536   0.868   5.098
  605SOL     OW 2380   0.072   0.166   4.042
  605SOL    HW1 2381   0.055   0.249   3.988
  605SOL    HW2 2382   0.162   0.129   4.020
  606SOL     OW 2383   1.183   1.335   3.843
  606SOL    HW1 2384   1.084   1.324   3.845
  606SOL    HW2 2385   1.217   1.350   3.936
  607SOL     OW 2386   0.613   0.842   5.155
  607SOL    HW1 2387   0.669   0.923   5.138
  607SOL    HW2 2388   0.672   0.762   5.158
  608SOL     OW 2389   1.493   1.767   4.683
  608SOL    HW1 2390   1.526   1.831   4.614
  608SOL    HW2 2391   1.559   1.761   4.758
  609SOL     OW 2392   0.716   0.565   5.432
  609SOL    HW1 2393   0.735   0.630   5.506
  609SOL    HW2 2394   0.776   0.485   5.441
  610SOL     OW 2395   1.450   1.220   5.357
  610SOL    HW1 2396   1.441   1.210   5.456
  610SOL    HW2 2397   1.546   1.213   5.331
  611SOL     OW 2398   0.390   1.741   5.284
  611SOL    HW1 2399   0.299   1.782   5.282
  611SOL    HW2 2400   0.383   1.647   5.316
  612SOL     OW 2401   1.674   0.883   4.978
  612SOL    HW1 2402   1.647   0.794   4.941
  612SOL    HW2 2403   1.675   0.951   4.905
  613SOL     OW 2404   1.225   0.325   4.173
  613SOL    HW1 2405   1.290   0.251   4.162
  613SOL    HW2 2406   1.245   0.375   4.257
  614SOL     OW 2407   0.594   0.745   4.376
  614SOL    HW1 2408   0.644   0.830   4.357
  614SOL    HW2 2409   0.506   0.747   4.328
  615SOL     OW 2410   1.777   0.342   5.366
  615SOL    HW1 2411   1.760   0.373   5.272
  615SOL    HW2 2412   1.693   0.305   5.404
  616SOL     OW 2413   1.730   0.934   5.241
  616SOL    HW1 2414   1.768   1.025   5.256
  616SOL    HW2 2415   1.722   0.917   5.142
  617SOL     OW 2416   0.859   1.374   3.740
  617SOL    HW1 2417   0.813   1.389   3.828
  617SOL    HW2 2418   0.903   1.459   3.710
  618SOL     OW 2419   0.661   1.790   4.677
  618SOL    HW1 2420   0.615   1.878   4.664
  618SOL    HW2 2421   0.760   1.802   4.670
  619SOL     OW 2422   0.859   0.956   4.585
  619SOL    HW1 2423   0.913   0.887   4.633
  619SOL    HW2 2424   0.827   1.025   4.651
  620SOL     OW 2425   1.083   0.984   3.811
  620SOL    HW1 2426   1.060   1.037   3.729
  620SOL    HW2 2427   1.164   0.928   3.792
  621SOL     OW 2428   1.861   1.569   4.575
  621SOL    HW1 2429   1.790   1.557   4.505
  621SOL    HW2 2430   1.862   1.490   4.635
  622SOL     OW 2431   0.221   1.314   5.568
  622SOL    HW1 2432   0.156   1.241   5.547
  622SOL    HW2 2433   0.225   1.328   5.666
  623SOL     OW 2434   0.079   1.240   4.377
  623SOL    HW1 2435   0.078   1.193   4.465
  623SOL    HW2 2436   0.161   1.212   4.326
  624SOL     OW 2437   0.672   1.391   5.348
  624SOL    HW1 2438   0.594   1.341   5.386
  624SOL    HW2 2439   0.669   1.486   5.379
  625SOL     OW 2440   1.824   0.192   4.951
  625SOL    HW1 2441   1.820   0.102   4.995
  625SOL    HW2 2442   1.827   0.181   4.852
  626SOL     OW 2443   0.428   0.424   4.244
  626SOL    HW1 2444   0.458   0.352   4.182
  626SOL    HW2 2445   0.389   0.384   4.327
  627SOL     OW 2446   1.705   1.487   4.828
  627SOL    HW1 2447   1.612   1.462   4.801
  627SOL    HW2 2448   1.731   1.437   4.910
  628SOL     OW 2449   0.317   0.547   5.004
  628SOL    HW1 2450   0.355   0.488   5.076
  628SOL    HW2 2451   0.357   0.521   4.916
  629SOL     OW 2452   0.812   1.586   4.411
  629SOL    HW1 2453   0.844   1.596   4.317
  629SOL    HW2 2454   0.733   1.524   4.413
  630SOL     OW 2455   1.424   0.214   4.836
  630SOL    HW1 2456   1.476   0.149   4.891
  630SOL    HW2 2457   1.375   0.277   4.897
  631SOL     OW 2458   1.001   0.034   4.878
  631SOL    HW1 2459   0.938  -0.038   4.847
  631SOL    HW2 2460   1.094  -0.002   4.878
  632SOL     OW 2461   0.770   1.330   4.025
  632SOL    HW1 2462   0.724   1.243   4.042
  632SOL    HW2 2463   0.861   1.327   4.066
  633SOL     OW 2464   0.618   1.567   5.008
  633SOL    HW1 2465   0.613   1.649   5.065
  633SOL    HW2 2466   0.707   1.564   4.963
  634SOL     OW 2467   1.352   0.052   3.892
  634SOL    HW1 2468   1.387   0.011   3.808
  634SOL    HW2 2469   1.262   0.014   3.912
  635SOL     OW 2470   1.300   0.453   4.415
  635SOL    HW1 2471   1.241   0.533   4.419
  635SOL    HW2 2472   1.315   0.418   4.508
  636SOL     OW 2473   1.593   0.221   4.606
  636SOL    HW1 2474   1.509   0.220   4.660
  636SOL    HW2 2475   1.595   0.304   4.550
  637SOL     OW 2476   0.039   1.077   4.024
  637SOL    HW1 2477   0.138   1.066   4.015
  637SOL    HW2 2478  -0.001   0.991   4.056
  638SOL     OW 2479   0.875   1.646   4.061
  638SOL    HW1 2480   0.798   1.611   4.007
  638SOL    HW2 2481   0.843   1.717   4.123
  639SOL     OW 2482   0.230   0.628   5.699
  639SOL    HW1 2483   0.137   0.626   5.736
  639SOL    HW2 2484   0.231   0.589   5.607
  640SOL     OW 2485   0.225   0.275   6.582
  640SOL    HW1 2486   0.260   0.258   6.674
  640SOL    HW2 2487   0.137   0.230   6.570
  641SOL     OW 2488   0.019   0.368   6.233
  641SOL    HW1 2489  -0.063   0.411   6.272
  641SOL    HW2 2490  -0.009   0.295   6.170
  642SOL     OW 2491   0.569   1.275   6.751
  642SOL    HW1 2492   0.476   1.268   6.714
  642SOL    HW2 2493   0.580   1.364   6.795
  643SOL     OW 2494   1.555   1.511   6.289
  643SOL    HW1 2495   1.498   1.495   6.370
  643SOL    HW2 2496   1.496   1.521   6.209
  644SOL     OW 2497   1.135   0.703   6.303
  644SOL    HW1 2498   1.192   0.781   6.278
  644SOL    HW2 2499   1.075   0.729   6.379
  645SOL     OW 2500   1.755   0.607   5.817
  645SOL    HW1 2501   1.743   0.594   5.718
  645SOL    HW2 2502   1.725   0.526   5.866
  646SOL     OW 2503   0.768   1.144   6.609
  646SOL    HW1 2504   0.690   1.161   6.669
  646SOL    HW2 2505   0.802   1.231   6.573
  647SOL     OW 2506   0.850   0.798   7.409
  647SOL    HW1 2507   0.846   0.874   7.474
  647SOL    HW2 2508   0.872   0.834   7.318
  648SOL     OW 2509   0.685   1.012   6.251
  648SOL    HW1 2510   0.754   0.996   6.321
  648SOL    HW2 2511   0.612   1.069   6.289
  649SOL     OW 2512   0.686   1.161   7.389
  649SOL    HW1 2513   0.746   1.240   7.403
  649SOL    HW2 2514   0.600   1.192   7.348
  650SOL     OW 2515   0.335   1.435   6.647
  650SOL    HW1 2516   0.257   1.404   6.594
  650SOL    HW2 2517   0.393   1.493   6.590
  651SOL     OW 2518   1.460   1.505   6.925
  651SOL    HW1 2519   1.484   1.599   6.951
  651SOL    HW2 2520   1.444   1.451   7.007
  652SOL     OW 2521   0.438   0.392   7.085
  652SOL    HW1 2522   0.520   0.336   7.094
  652SOL    HW2 2523   0.357   0.334   7.089
  653SOL     OW 2524   1.603   0.447   6.323
  653SOL    HW1 2525   1.529   0.493   6.273
  653SOL    HW2 2526   1.654   0.515   6.376
  654SOL     OW 2527   0.231   1.713   6.069
  654SOL    HW1 2528   0.265   1.790   6.123
  654SOL    HW2 2529   0.275   1.713   5.979
  655SOL     OW 2530   1.127   1.341   7.276
  655SOL    HW1 2531   1.174   1.341   7.364
  655SOL    HW2 2532   1.079   1.254   7.265
  656SOL     OW 2533   0.230   1.434   6.124
  656SOL    HW1 2534   0.204   1.530   6.124
  656SOL    HW2 2535   0.159   1.380   6.169
  657SOL     OW 2536   0.240   1.091   6.472
  657SOL    HW1 2537   0.254   1.007   6.524
  657SOL    HW2 2538   0.185   1.155   6.527
  658SOL     OW 2539   0.620   1.786   7.025
  658SOL    HW1 2540   0.528   1.769   7.060
  658SOL    HW2 2541   0.648   1.878   7.051
  659SOL     OW 2542   0.606   0.964   5.709
  659SOL    HW1 2543   0.613   1.048   5.655
  659SOL    HW2 2544   0.652   0.977   5.797
  660SOL     OW 2545   1.594   0.114   7.066
  660SOL    HW1 2546   1.576   0.181   6.994
  660SOL    HW2 2547   1.591   0.160   7.155
  661SOL     OW 2548   0.122   0.643   6.149
  661SOL    HW1 2549   0.077   0.555   6.166
  661SOL    HW2 2550   0.121   0.697   6.233
  662SOL     OW 2551   1.842   1.767   5.945
  662SOL    HW1 2552   1.896   1.738   6.025
  662SOL    HW2 2553   1.872   1.857   5.916
  663SOL     OW 2554   0.027   1.596   5.703
  663SOL    HW1 2555   0.008   1.500   5.724
  663SOL    HW2 2556  -0.006   1.654   5.778
  664SOL     OW 2557   1.689   0.922   6.198
  664SOL    HW1 2558   1.784   0.893   6.206
  664SOL    HW2 2559   1.681   0.987   6.123
  665SOL     OW 2560   1.641   1.108   6.018
  665SOL    HW1 2561   1.727   1.110   5.966
  665SOL    HW2 2562   1.655   1.155   6.106
  666SOL     OW 2563   0.113   0.737   7.183
  666SOL    HW1 2564   0.201   0.724   7.228
  666SOL    HW2 2565   0.100   0.834   7.161
  667SOL     OW 2566   0.613   1.365   6.312
  667SOL    HW1 2567   0.564   1.278   6.321
  667SOL    HW2 2568   0.590   1.408   6.225
  668SOL     OW 2569   1.293   1.228   7.009
  668SOL    HW1 2570   1.330   1.155   6.951
  668SOL    HW2 2571   1.345   1.233   7.094
  669SOL     OW 2572   0.809   0.004   6.088
  669SOL    HW1 2573   0.849   0.095   6.079
  669SOL    HW2 2574   0.709   0.012   6.094
  670SOL     OW 2575   0.197   0.976   6.850
  670SOL    HW1 2576   0.286   0.931   6.836
  670SOL    HW2 2577   0.124   0.911   6.831
  671SOL     OW 2578   1.525   0.999   5.776
  671SOL    HW1 2579   1.462   0.923   5.789
  671SOL    HW2 2580   1.573   1.017   5.862
  672SOL     OW 2581   1.187   1.792   7.202
  672SOL    HW1 2582   1.211   1.852   7.126
  672SOL    HW2 2583   1.194   1.697   7.172
  673SOL     OW 2584   0.317   0.251   7.387
  673SOL    HW1 2585   0.388   0.322   7.393
  673SOL    HW2 2586   0.229   0.290   7.415
  674SOL     OW 2587   1.466   1.417   6.539
  674SOL    HW1 2588   1.407   1.423   6.619
  674SOL    HW2 2589   1.451   1.329   6.493
  675SOL     OW 2590   1.667   1.714   6.158
  675SOL    HW1 2591   1.626   1.691   6.070
  675SOL    HW2 2592   1.649   1.640   6.223
  676SOL     OW 2593   0.598   0.729   5.856
  676SOL    HW1 2594   0.622   0.798   5.788
  676SOL    HW2 2595   0.520   0.762   5.910
  677SOL     OW 2596   1.281   0.345   6.530
  677SOL    HW1 2597   1.195   0.295   6.517
  677SOL    HW2 2598   1.343   0.291   6.586
  678SOL     OW 2599   1.576   1.662   5.893
  678SOL    HW1 2600   1.665   1.708   5.896
  678SOL    HW2 2601   1.555   1.638   5.798
  679SOL     OW 2602   0.807   0.605   7.051
  679SOL    HW1 2603   0.760   0.602   7.140
  679SOL    HW2 2604   0.756   0.550   6.985
  680SOL     OW 2605   1.394   0.469   7.260
  680SOL    HW1 2606   1.374   0.512   7.348
  680SOL    HW2 2607   1.472   0.407   7.269
  681SOL     OW 2608   0.973   0.890   7.158
  681SOL    HW1 2609   1.019   0.806   7.129
  681SOL    HW2 2610   0.917   0.924   7.083
  682SOL     OW 2611   0.991   0.410   6.828
  682SOL    HW1 2612   0.914   0.444   6.882
  682SOL    HW2 2613   0.957   0.359   6.749
  683SOL     OW 2614   1.041   0.701   6.015
  683SOL    HW1 2615   1.067   0.697   6.111
  683SOL    HW2 2616   0.956   0.650   6.001
  684SOL     OW 2617   0.076   0.811   6.375
  684SOL    HW1 2618   0.175   0.799   6.384
  684SOL    HW2 2619   0.052   0.906   6.396
  685SOL     OW 2620   0.130   1.821   7.157
  685SOL    HW1 2621   0.120   1.806   7.256
  685SOL    HW2 2622   0.044   1.857   7.121
  686SOL     OW 2623   0.865   0.348   5.781
  686SOL    HW1 2624   0.924   0.411   5.732
  686SOL    HW2 2625   0.884   0.254   5.752
  687SOL     OW 2626   1.719   0.585   7.417
  687SOL    HW1 2627   1.693   0.674   7.381
  687SOL    HW2 2628   1.717   0.517   7.344
  688SOL     OW 2629   1.362   1.144   6.131
  688SOL    HW1 2630   1.445   1.115   6.083
  688SOL    HW2 2631   1.313   1.211   6.075
  689SOL     OW 2632   0.550   0.196   6.471
  689SOL    HW1 2633   0.545   0.191   6.571
  689SOL    HW2 2634   0.552   0.292   6.442
  690SOL     OW 2635   1.008   1.456   6.063
  690SOL    HW1 2636   0.962   1.528   6.011
  690SOL    HW2 2637   1.004   1.476   6.161
  691SOL     OW 2638   0.351   1.801   6.439
  691SOL    HW1 2639   0.401   1.715   6.445
  691SOL    HW2 2640   0.416   1.878   6.436
  692SOL     OW 2641   1.795   1.066   6.459
  692SOL    HW1 2642   1.733   1.051   6.383
  692SOL    HW2 2643   1.743   1.077   6.544
  693SOL     OW 2644   1.227   1.550   7.092
  693SOL    HW1 2645   1.233   1.473   7.156
  693SOL    HW2 2646   1.175   1.524   7.012
  694SOL     OW 2647   0.321   0.943   5.828
  694SOL    HW1 2648   0.403   0.982   5.786
  694SOL    HW2 2649   0.294   0.861   5.779
  695SOL     OW 2650   1.458   0.735   6.314
  695SOL    HW1 2651   1.453   0.670   6.389
  695SOL    HW2 2652   1.538   0.794   6.327
  696SOL     OW 2653   0.461   1.266   7.313
  696SOL    HW1 2654   0.411   1.267   7.227
  696SOL    HW2 2655   0.398   1.248   7.389
  697SOL     OW 2656   1.111   1.776   5.823
  697SOL    HW1 2657   1.051   1.714   5.873
  697SOL    HW2 2658   1.142   1.732   5.738
  698SOL     OW 2659   0.202   0.285   7.084
  698SOL    HW1 2660   0.122   0.345   7.071
  698SOL    HW2 2661   0.192   0.236   7.170
  699SOL     OW 2662   1.632   1.377   5.667
  699SOL    HW1 2663   1.600   1.471   5.657
  699SOL    HW2 2664   1.556   1.314   5.655
  700SOL     OW 2665   0.464   1.743   5.909
  700SOL    HW1 2666   0.497   1.782   5.995
  700SOL    HW2 2667   0.540   1.736   5.844
  701SOL     OW 2668   1.400   0.107   6.012
  701SOL    HW1 2669   1.376   0.070   5.922
  701SOL    HW2 2670   1.499   0.123   6.016
  702SOL     OW 2671   0.249   1.785   6.827
  702SOL    HW1 2672   0.306   1.720   6.877
  702SOL    HW2 2673   0.233   1.752   6.734
  703SOL     OW 2674   0.940   1.698   6.490
  703SOL    HW1 2675   1.020   1.641   6.511
  703SOL    HW2 2676   0.891   1.658   6.413
  704SOL     OW 2677   0.382   0.700   6.066
  704SOL    HW1 2678   0.427   0.610   6.063
  704SOL    HW2 2679   0.288   0.689   6.099
  705SOL     OW 2680   1.547   0.222   7.315
  705SOL    HW1 2681   1.542   0.259   7.407
  705SOL    HW2 2682   1.475   0.153   7.303
  706SOL     OW 2683   0.614   0.122   5.703
  706SOL    HW1 2684   0.712   0.100   5.710
  706SOL    HW2 2685   0.583   0.105   5.610
  707SOL     OW 2686   0.781   0.264   7.335
  707SOL    HW1 2687   0.848   0.203   7.378
  707SOL    HW2 2688   0.708   0.283   7.400
  708SOL     OW 2689   0.888   1.514   6.781
  708SOL    HW1 2690   0.865   1.489   6.687
  708SOL    HW2 2691   0.949   1.445   6.820
  709SOL     OW 2692   1.351   0.590   7.019
  709SOL    HW1 2693   1.379   0.547   7.104
  709SOL    HW2 2694   1.376   0.686   7.020
  710SOL     OW 2695   0.803   1.402   6.510
  710SOL    HW1 2696   0.893   1.416   6.468
  710SOL    HW2 2697   0.732   1.404   6.439
  711SOL     OW 2698   0.922   0.503   6.485
  711SOL    HW1 2699   0.897   0.494   6.389
  711SOL    HW2 2700   0.970   0.421   6.516
  712SOL     OW 2701   0.539   0.064   6.098
  712SOL    HW1 2702   0.458   0.065   6.156
  712SOL    HW2 2703   0.542   0.147   6.043
  713SOL     OW 2704   1.434   1.188   5.627
  713SOL    HW1 2705   1.466   1.112   5.684
  713SOL    HW2 2706   1.342   1.215   5.657
  714SOL     OW 2707   0.297   0.035   5.757
  714SOL    HW1 2708   0.346   0.119   5.736
  714SOL    HW2 2709   0.359  -0.030   5.802
  715SOL     OW 2710   0.935   0.236   6.066
  715SOL    HW1 2711   0.887   0.277   5.988
  715SOL    HW2 2712   1.034   0.234   6.047
  716SOL     OW 2713   1.076   0.683   7.050
  716SOL    HW1 2714   0.996   0.622   7.053
  716SOL    HW2 2715   1.157   0.630   7.026
  717SOL     OW 2716   1.227   1.570   6.379
  717SOL    HW1 2717   1.248   1.644   6.314
  717SOL    HW2 2718   1.295   1.570   6.452
  718SOL     OW 2719   0.459   1.152   6.327
  718SOL    HW1 2720   0.388   1.125   6.392
  718SOL    HW2 2721   0.433   1.124   6.234
  719SOL     OW 2722   1.271   1.797   6.177
  719SOL    HW1 2723   1.315   1.861   6.113
  719SOL    HW2 2724   1.221   1.849   6.247
  720SOL     OW 2725   1.032   0.549   5.602
  720SOL    HW1 2726   0.991   0.631   5.563
  720SOL    HW2 2727   1.096   0.575   5.675
  721SOL     OW 2728   0.078   0.556   6.972
  721SOL    HW1 2729   0.170   0.555   6.931
  721SOL    HW2 2730   0.072   0.630   7.039
  722SOL     OW 2731   0.561   0.222   6.733
  722SOL    HW1 2732   0.599   0.138   6.770
  722SOL    HW2 2733   0.473   0.241   6.777
  723SOL     OW 2734   0.866   0.454   6.228
  723SOL    HW1 2735   0.834   0.526   6.166
  723SOL    HW2 2736   0.890   0.373   6.175
  724SOL     OW 2737   1.017   0.039   6.339
  724SOL    HW1 2738   0.945   0.044   6.270
  724SOL    HW2 2739   0.993  -0.030   6.408
  725SOL     OW 2740   1.429   1.173   6.453
  725SOL    HW1 2741   1.374   1.089   6.446
  725SOL    HW2 2742   1.455   1.202   6.361
  726SOL     OW 2743   1.466   0.590   6.578
  726SOL    HW1 2744   1.436   0.495   6.585
  726SOL    HW2 2745   1.539   0.606   6.644
  727SOL     OW 2746   1.857   0.833   5.963
  727SOL    HW1 2747   1.899   0.769   6.027
  727SOL    HW2 2748   1.819   0.782   5.885
  728SOL     OW 2749   0.488   1.385   5.760
  728SOL    HW1 2750   0.401   1.370   5.807
  728SOL    HW2 2751   0.471   1.411   5.665
  729SOL     OW 2752   1.664   1.280   6.243
  729SOL    HW1 2753   1.763   1.288   6.257
  729SOL    HW2 2754   1.619   1.364   6.274
  730SOL     OW 2755   1.390   0.575   5.664
  730SOL    HW1 2756   1.336   0.554   5.745
  730SOL    HW2 2757   1.481   0.534   5.673
  731SOL     OW 2758   0.527   0.256   5.914
  731SOL    HW1 2759   0.554   0.197   5.839
  731SOL    HW2 2760   0.527   0.351   5.883
  732SOL     OW 2761   1.754   1.223   7.174
  732SOL    HW1 2762   1.845   1.184   7.161
  732SOL    HW2 2763   1.762   1.319   7.198
  733SOL     OW 2764   1.064   1.347   6.926
  733SOL    HW1 2765   0.984   1.324   6.981
  733SOL    HW2 2766   1.147   1.321   6.975
  734SOL     OW 2767   1.592   1.629   7.211
  734SOL    HW1 2768   1.619   1.663   7.121
  734SOL    HW2 2769   1.671   1.591   7.257
  735SOL     OW 2770   1.111   1.195   6.686
  735SOL    HW1 2771   1.071   1.239   6.767
  735SOL    HW2 2772   1.070   1.232   6.603
  736SOL     OW 2773   1.638   1.099   6.665
  736SOL    HW1 2774   1.643   1.180   6.724
  736SOL    HW2 2775   1.552   1.101   6.614
  737SOL     OW 2776   0.915   0.089   6.988
  737SOL    HW1 2777   0.940   0.069   6.893
  737SOL    HW2 2778   0.987   0.145   7.030
  738SOL     OW 2779   0.980   1.116   7.305
  738SOL    HW1 2780   0.881   1.122   7.315
  738SOL    HW2 2781   1.003   1.036   7.249
  739SOL     OW 2782   0.705   1.050   5.954
  739SOL    HW1 2783   0.691   1.057   6.053
  739SOL    HW2 2784   0.789   0.999   5.936
  740SOL     OW 2785   0.410   0.813   6.837
  740SOL    HW1 2786   0.496   0.825   6.887
  740SOL    HW2 2787   0.368   0.726   6.864
  741SOL     OW 2788   1.274   0.386   6.848
  741SOL    HW1 2789   1.295   0.460   6.912
  741SOL    HW2 2790   1.185   0.403   6.805
  742SOL     OW 2791   0.064   1.564   6.917
  742SOL    HW1 2792   0.018   1.646   6.883
  742SOL    HW2 2793   0.162   1.583   6.926
  743SOL     OW 2794   0.367   1.100   6.087
  743SOL    HW1 2795   0.360   1.183   6.031
  743SOL    HW2 2796   0.371   1.020   6.027
  744SOL     OW 2797   0.566   0.537   6.451
  744SOL    HW1 2798   0.578   0.603   6.377
  744SOL    HW2 2799   0.612   0.571   6.534
  745SOL     OW 2800   1.252   1.348   5.974
  745SOL    HW1 2801   1.302   1.425   6.014
  745SOL    HW2 2802   1.157   1.350   6.006
  746SOL     OW 2803   1.272   1.445   6.728
  746SOL    HW1 2804   1.319   1.458   6.815
  746SOL    HW2 2805   1.206   1.371   6.737
  747SOL     OW 2806   1.582   0.639   6.058
  747SOL    HW1 2807   1.551   0.700   6.131
  747SOL    HW2 2808   1.632   0.691   5.989
  748SOL     OW 2809   0.354   1.510   6.915
  748SOL    HW1 2810   0.333   1.466   6.828
  748SOL    HW2 2811   0.451   1.536   6.918
  749SOL     OW 2812   0.402   0.751   7.184
  749SOL    HW1 2813   0.470   0.806   7.137
  749SOL    HW2 2814   0.442   0.663   7.211
  750SOL     OW 2815   1.587   0.779   7.256
  750SOL    HW1 2816   1.495   0.817   7.251
  750SOL    HW2 2817   1.647   0.826   7.191
  751SOL     OW 2818   1.013   0.105   7.356
  751SOL    HW1 2819   1.019   0.190   7.304
  751SOL    HW2 2820   1.045   0.029   7.299
  752SOL     OW 2821   0.504   0.050   7.326
  752SOL    HW1 2822   0.462  -0.007   7.256
  752SOL    HW2 2823   0.438   0.119   7.358
  753SOL     OW 2824   0.573   0.870   6.615
  753SOL    HW1 2825   0.617   0.959   6.606
  753SOL    HW2 2826   0.510   0.870   6.692
  754SOL     OW 2827   1.360   0.862   6.631
  754SOL    HW1 2828   1.285   0.862   6.565
  754SOL    HW2 2829   1.397   0.770   6.640
  755SOL     OW 2830   1.209   0.525   5.861
  755SOL    HW1 2831   1.222   0.441   5.915
  755SOL    HW2 2832   1.180   0.599   5.921
  756SOL     OW 2833   0.307   0.213   6.817
  756SOL    HW1 2834   0.284   0.250   6.907
  756SOL    HW2 2835   0.277   0.118   6.811
  757SOL     OW 2836   0.037   1.310   6.868
  757SOL    HW1 2837   0.090   1.261   6.936
  757SOL    HW2 2838   0.059   1.408   6.873
  758SOL     OW 2839   0.732   0.634   6.650
  758SOL    HW1 2840   0.791   0.608   6.574
  758SOL    HW2 2841   0.704   0.730   6.639
  759SOL     OW 2842   1.728   0.935   7.440
  759SOL    HW1 2843   1.682   0.928   7.351
  759SOL    HW2 2844   1.666   0.979   7.506
  760SOL     OW 2845   0.307   0.063   6.204
  760SOL    HW1 2846   0.296   0.157   6.237
  760SOL    HW2 2847   0.302   0.000   6.281
  761SOL     OW 2848   1.622   0.367   5.960
  761SOL    HW1 2849   1.624   0.291   6.024
  761SOL    HW2 2850   1.574   0.444   6.000
  762SOL     OW 2851   1.023   0.766   6.552
  762SOL    HW1 2852   1.038   0.787   6.648
  762SOL    HW2 2853   0.993   0.671   6.543
  763SOL     OW 2854   0.980   1.573   7.286
  763SOL    HW1 2855   0.960   1.617   7.198
  763SOL    HW2 2856   1.019   1.482   7.270
  764SOL     OW 2857   1.859   1.518   7.191
  764SOL    HW1 2858   1.873   1.545   7.096
  764SOL    HW2 2859   1.942   1.540   7.244
  765SOL     OW 2860   0.350   0.898   7.390
  765SOL    HW1 2861   0.426   0.942   7.438
  765SOL    HW2 2862   0.385   0.851   7.308
  766SOL     OW 2863   1.540   0.274   5.711
  766SOL    HW1 2864   1.479   0.199   5.734
  766SOL    HW2 2865   1.562   0.326   5.794
  767SOL     OW 2866   1.303   0.838   5.628
  767SOL    HW1 2867   1.337   0.745   5.643
  767SOL    HW2 2868   1.321   0.865   5.533
  768SOL     OW 2869   1.068   1.333   6.435
  768SOL    HW1 2870   1.075   1.249   6.380
  768SOL    HW2 2871   1.130   1.402   6.399
  769SOL     OW 2872   0.319   0.810   6.535
  769SOL    HW1 2873   0.412   0.846   6.540
  769SOL    HW2 2874   0.313   0.725   6.587
  770SOL     OW 2875   0.339   0.509   6.592
  770SOL    HW1 2876   0.287   0.426   6.575
  770SOL    HW2 2877   0.416   0.514   6.528
  771SOL     OW 2878   1.138   0.380   7.264
  771SOL    HW1 2879   1.093   0.443   7.328
  771SOL    HW2 2880   1.231   0.411   7.247
  772SOL     OW 2881   1.160   0.207   7.063
  772SOL    HW1 2882   1.160   0.271   7.140
  772SOL    HW2 2883   1.188   0.255   6.980
  773SOL     OW 2884   0.008   1.326   5.786
  773SOL    HW1 2885  -0.085   1.347   5.755
  773SOL    HW2 2886   0.018   1.227   5.799
  774SOL     OW 2887   0.088   1.801   6.513
  774SOL    HW1 2888   0.046   1.715   6.486
  774SOL    HW2 2889   0.182   1.804   6.479
  775SOL     OW 2890   0.504   1.568   6.496
  775SOL    HW1 2891   0.570   1.642   6.505
  775SOL    HW2 2892   0.548   1.489   6.454
  776SOL     OW 2893   1.002   0.796   6.824
  776SOL    HW1 2894   1.043   0.764   6.910
  776SOL    HW2 2895   0.906   0.769   6.821
  777SOL     OW 2896   0.040   0.544   6.700
  777SOL    HW1 2897   0.125   0.511   6.659
  777SOL    HW2 2898   0.053   0.559   6.798
  778SOL     OW 2899   0.189   0.520   7.308
  778SOL    HW1 2900   0.248   0.480   7.238
  778SOL    HW2 2901   0.131   0.591   7.267
  779SOL     OW 2902   1.369   0.950   7.246
  779SOL    HW1 2903   1.408   1.039   7.266
  779SOL    HW2 2904   1.379   0.930   7.149
  780SOL     OW 2905   0.815   0.572   5.911
  780SOL    HW1 2906   0.822   0.483   5.865
  780SOL    HW2 2907   0.721   0.606   5.903
  781SOL     OW 2908   1.657   0.604   6.792
  781SOL    HW1 2909   1.619   0.535   6.854
  781SOL    HW2 2910   1.739   0.568   6.748
  782SOL     OW 2911   0.252   1.564   7.330
  782SOL    HW1 2912   0.222   1.621   7.406
  782SOL    HW2 2913   0.245   1.467   7.356
  783SOL     OW 2914   0.671   0.464   6.855
  783SOL    HW1 2915   0.637   0.375   6.825
  783SOL    HW2 2916   0.697   0.518   6.775
  784SOL     OW 2917   0.930   1.678   7.051
  784SOL    HW1 2918   0.906   1.660   6.956
  784SOL    HW2 2919   0.960   1.772   7.061
  785SOL     OW 2920   0.473   0.500   5.777
  785SOL    HW1 2921   0.534   0.580   5.781
  785SOL    HW2 2922   0.378   0.531   5.784
  786SOL     OW 2923   0.159   1.137   7.052
  786SOL    HW1 2924   0.181   1.076   7.128
  786SOL    HW2 2925   0.169   1.088   6.966
  787SOL     OW 2926   1.347   1.059   6.820
  787SOL    HW1 2927   1.371   0.996   6.746
  787SOL    HW2 2928   1.257   1.099   6.802
  788SOL     OW 2929   1.302   0.855   5.895
  788SOL    HW1 2930   1.216   0.824   5.937
  788SOL    HW2 2931   1.298   0.841   5.796
  789SOL     OW 2932   1.759   1.747   6.740
  789SOL    HW1 2933   1.820   1.777   6.667
  789SOL    HW2 2934   1.721   1.658   6.718
  790SOL     OW 2935   1.252   1.731   6.714
  790SOL    HW1 2936   1.336   1.736   6.660
  790SOL    HW2 2937   1.229   1.635   6.732
  791SOL     OW 2938   0.083   1.258   6.608
  791SOL    HW1 2939   0.078   1.257   6.708
  791SOL    HW2 2940   0.000   1.217   6.570
  792SOL     OW 2941   0.688   1.662   7.302
  792SOL    HW1 2942   0.632   1.743   7.311
  792SOL    HW2 2943   0.740   1.666   7.216
  793SOL     OW 2944   1.726   0.135   6.109
  793SOL    HW1 2945   1.799   0.118   6.042
  793SOL    HW2 2946   1.695   0.048   6.147
  794SOL     OW 2947   1.388   1.573   6.063
  794SOL    HW1 2948   1.455   1.585   5.989
  794SOL    HW2 2949   1.348   1.662   6.086
  795SOL     OW 2950   0.130   1.794   7.437
  795SOL    HW1 2951   0.089   1.720   7.490
  795SOL    HW2 2952   0.194   1.845   7.495
  796SOL     OW 2953   1.280   0.927   6.258
  796SOL    HW1 2954   1.340   0.846   6.260
  796SOL    HW2 2955   1.320   0.996   6.198
  797SOL     OW 2956   0.830   1.273   7.008
  797SOL    HW1 2957   0.825   1.306   7.103
  797SOL    HW2 2958   0.744   1.292   6.962
  798SOL     OW 2959   0.672   1.616   5.740
  798SOL    HW1 2960   0.681   1.626   5.641
  798SOL    HW2 2961   0.632   1.527   5.761
  799SOL     OW 2962   1.650   1.720   6.980
  799SOL    HW1 2963   1.703   1.730   6.896
  799SOL    HW2 2964   1.623   1.810   7.014
  800SOL     OW 2965   1.841   0.175   6.549
  800SOL    HW1 2966   1.880   0.090   6.513
  800SOL    HW2 2967   1.743   0.177   6.530
  801SOL     OW 2968   0.263   0.326   6.306
  801SOL    HW1 2969   0.184   0.377   6.272
  801SOL    HW2 2970   0.254   0.311   6.404
  802SOL     OW 2971   1.194   1.612   5.617
  802SOL    HW1 2972   1.200   1.519   5.654
  802SOL    HW2 2973   1.135   1.612   5.537
  803SOL     OW 2974   0.822   1.002   6.958
  803SOL    HW1 2975   0.862   1.001   6.866
  803SOL    HW2 2976   0.832   1.094   6.998
  804SOL     OW 2977   0.916   0.910   5.877
  804SOL    HW1 2978   0.979   0.948   5.809
  804SOL    HW2 2979   0.956   0.827   5.916
  805SOL     OW 2980   1.504   1.607   5.630
  805SOL    HW1 2981   1.412   1.644   5.637
  805SOL    HW2 2982   1.542   1.627   5.540
  806SOL     OW 2983   0.372   1.288   7.076
  806SOL    HW1 2984   0.359   1.381   7.042
  806SOL    HW2 2985   0.288   1.236   7.063
  807SOL     OW 2986   1.614   1.292   6.875
  807SOL    HW1 2987   1.674   1.295   6.955
  807SOL    HW2 2988   1.539   1.356   6.888
  808SOL     OW 2989   1.039   1.098   6.282
  808SOL    HW1 2990   0.969   1.051   6.336
  808SOL    HW2 2991   1.098   1.030   6.239
  809SOL     OW 2992   1.014   0.236   6.557
  809SOL    HW1 2993   1.006   0.200   6.464
  809SOL    HW2 2994   1.012   0.160   6.622
  810SOL     OW 2995   0.590   1.487   6.077
  810SOL    HW1 2996   0.632   1.429   6.007
  810SOL    HW2 2997   0.546   1.566   6.033
  811SOL     OW 2998   1.709   0.385   6.967
  811SOL    HW1 2999   1.782   0.454   6.971
  811SOL    HW2 3000   1.737   0.310   6.908
  812SOL     OW 3001   0.255   1.348   5.876
  812SOL    HW1 3002   0.159   1.349   5.849
  812SOL    HW2 3003   0.267   1.401   5.960
  813SOL     OW 3004   0.105   1.013   7.312
  813SOL    HW1 3005   0.028   0.980   7.366
  813SOL    HW2 3006   0.190   0.983   7.354
  814SOL     OW 3007   0.672   0.203   7.075
  814SOL    HW1 3008   0.762   0.187   7.035
  814SOL    HW2 3009   0.680   0.208   7.174
  815SOL     OW 3010   0.075   0.345   5.619
  815SOL    HW1 3011  -0.017   0.317   5.590
  815SOL    HW2 3012   0.106   0.422   5.563
  816SOL     OW 3013   1.440   0.856   6.984
  816SOL    HW1 3014   1.383   0.908   6.921
  816SOL    HW2 3015   1.536   0.868   6.960
  817SOL     OW 3016   0.072   0.166   5.904
  817SOL    HW1 3017   0.055   0.249   5.850
  817SOL    HW2 3018   0.162   0.129   5.882
  818SOL     OW 3019   1.183   1.335   5.705
  818SOL    HW1 3020   1.084   1.324   5.707
  818SOL    HW2 3021   1.217   1.350   5.798
  819SOL     OW 3022   0.613   0.842   7.017
  819SOL    HW1 3023   0.669   0.923   7.000
  819SOL    HW2 3024   0.672   0.762   7.020
  820SOL     OW 3025   1.493   1.767   6.545
  820SOL    HW1 3026   1.526   1.831   6.476
  820SOL    HW2 3027   1.559   1.761   6.620
  821SOL     OW 3028   0.716   0.565   7.294
  821SOL    HW1 3029   0.735   0.630   7.368
  821SOL    HW2 3030   0.776   0.485   7.303
  822SOL     OW 3031   1.450   1.220   7.219
  822SOL    HW1 3032   1.441   1.210   7.318
  822SOL    HW2 3033   1.546   1.213   7.193
  823SOL     OW 3034   0.390   1.741   7.146
  823SOL    HW1 3035   0.299   1.782   7.144
  823SOL    HW2 3036   0.383   1.647   7.178
  824SOL     OW 3037   1.674   0.883   6.840
  824SOL    HW1 3038   1.647   0.794   6.803
  824SOL    HW2 3039   1.675   0.951   6.767
  825SOL     OW 3040   1.225   0.325   6.035
  825SOL    HW1 3041   1.290   0.251   6.024
  825SOL    HW2 3042   1.245   0.375   6.119
  826SOL     OW 3043   0.594   0.745   6.238
  826SOL    HW1 3044   0.644   0.830   6.219
  826SOL    HW2 3045   0.506   0.747   6.190
  827SOL     OW 3046   1.777   0.342   7.228
  827SOL    HW1 3047   1.760   0.373   7.134
  827SOL    HW2 3048   1.693   0.305   7.266
  828SOL     OW 3049   1.730   0.934   7.103
  828SOL    HW1 3050   1.768   1.025   7.118
  828SOL    HW2 3051   1.722   0.917   7.004
  829SOL     OW 3052   0.859   1.374   5.602
  829SOL    HW1 3053   0.813   1.389   5.690
  829SOL    HW2 3054   0.903   1.459   5.572
  830SOL     OW 3055   0.661   1.790   6.539
  830SOL    HW1 3056   0.615   1.878   6.526
  830SOL    HW2 3057   0.760   1.802   6.532
  831SOL     OW 3058   0.859   0.956   6.447
  831SOL    HW1 3059   0.913   0.887   6.495
  831SOL    HW2 3060   0.827   1.025   6.513
  832SOL     OW 3061   1.083   0.984   5.673
  832SOL    HW1 3062   1.060   1.037   5.591
  832SOL    HW2 3063   1.164   0.928   5.654
  833SOL     OW 3064   1.861   1.569   6.437
  833SOL    HW1 3065   1.790   1.557   6.367
  833SOL    HW2 3066   1.862   1.490   6.497
  834SOL     OW 3067   0.221   1.314   7.430
  834SOL    HW1 3068   0.156   1.241   7.409
  834SOL    HW2 3069   0.225   1.328   7.528
  835SOL     OW 3070   0.079   1.240   6.239
  835SOL    HW1 3071   0.078   1.193   6.327
  835SOL    HW2 3072   0.161   1.212   6.188
  836SOL     OW 3073   0.672   1.391   7.210
  836SOL    HW1 3074   0.594   1.341   7.248
  836SOL    HW2 3075   0.669   1.486   7.241
  837SOL     OW 3076   1.824   0.192   6.813
  837SOL    HW1 3077   1.820   0.102   6.857
  837SOL    HW2 3078   1.827   0.181   6.714
  838SOL     OW 3079   0.428   0.424   6.106
  838SOL    HW1 3080   0.458   0.352   6.044
  838SOL    HW2 3081   0.389   0.384   6.189
  839SOL     OW 3082   1.705   1.487   6.690
  839SOL    HW1 3083   1.612   1.462   6.663
  839SOL    HW2 3084   1.731   1.437   6.772
  840SOL     OW 3085   0.317   0.547   6.866
  840SOL    HW1 3086   0.355   0.488   6.938
  840SOL    HW2 3087   0.357   0.521   6.778
  841SOL     OW 3088   0.812   1.586   6.273
  841SOL    HW1 3089   0.844   1.596   6.179
  841SOL    HW2 3090   0.733   1.524   6.275
  842SOL     OW 3091   1.424   0.214   6.698
  842SOL    HW1 3092   1.476   0.149   6.753
  842SOL    HW2 3093   1.375   0.277   6.759
  843SOL     OW 3094   1.001   0.034   6.740
  843SOL    HW1 3095   0.938  -0.038   6.709
  843SOL    HW2 3096   1.094  -0.002   6.740
  844SOL     OW 3097   0.770   1.330   5.887
  844SOL    HW1 3098   0.724   1.243   5.904
  844SOL    HW2 3099   0.861   1.327   5.928
  845SOL     OW 3100   0.618   1.567   6.870
  845SOL    HW1 3101   0.613   1.649   6.927
  845SOL    HW2 3102   0.707   1.564   6.825
  846SOL     OW 3103   1.352   0.052   5.754
  846SOL    HW1 3104   1.387   0.011   5.670
  846SOL    HW2 3105   1.262   0.014   5.774
  847SOL     OW 3106   1.300   0.453   6.277
  847SOL    HW1 3107   1.241   0.533   6.281
  847SOL    HW2 3108   1.315   0.418   6.370
  848SOL     OW 3109   1.593   0.221   6.468
  848SOL    HW1 3110   1.509   0.220   6.522
  848SOL    HW2 3111   1.595   0.304   6.412
  849SOL     OW 3112   0.039   1.077   5.886
  849SOL    HW1 3113   0.138   1.066   5.877
  849SOL    HW2 3114  -0.001   0.991   5.918
  850SOL     OW 3115   0.875   1.646   5.923
  850SOL    HW1 3116   0.798   1.611   5.869
  850SOL    HW2 3117   0.843   1.717   5.985
  851SOL     OW 3118   0.230   0.628   7.561
  851SOL    HW1 3119   0.137   0.626   7.598
  851SOL    HW2 3120   0.231   0.589   7.469
  852SOL     OW 3121   1.755   0.607   7.679
  852SOL    HW1 3122   1.743   0.594   7.580
  852SOL    HW2 3123   1.725   0.526   7.728
  853SOL     OW 3124   0.231   1.713   7.931
  853SOL    HW1 3125   0.265   1.790   7.985
  853SOL    HW2 3126   0.275   1.713   7.841
  854SOL     OW 3127   0.230   1.434   7.986
  854SOL    HW1 3128   0.204   1.530   7.986
  854SOL    HW2 3129   0.159   1.380   8.031
  855SOL     OW 3130   0.606   0.964   7.571
  855SOL    HW1 3131   0.613   1.048   7.517
  855SOL    HW2 3132   0.652   0.977   7.659
  856SOL     OW 3133   1.842   1.767   7.807
  856SOL    HW1 3134   1.896   1.738   7.887
  856SOL    HW2 3135   1.872   1.857   7.778
  857SOL     OW 3136   0.027   1.596   7.565
  857SOL    HW1 3137   0.008   1.500   7.586
  857SOL    HW2 3138  -0.006   1.654   7.640
  858SOL     OW 3139   1.689   0.922   8.060
  858SOL    HW1 3140   1.784   0.893   8.068
  858SOL    HW2 3141   1.681   0.987   7.985
  859SOL     OW 3142   1.641   1.108   7.880
  859SOL    HW1 3143   1.727   1.110   7.828
  859SOL    HW2 3144   1.655   1.155   7.968
  860SOL     OW 3145   0.809   0.004   7.950
  860SOL    HW1 3146   0.849   0.095   7.941
  860SOL    HW2 3147   0.709   0.012   7.956
  861SOL     OW 3148   1.525   0.999   7.638
  861SOL    HW1 3149   1.462   0.923   7.651
  861SOL    HW2 3150   1.573   1.017   7.724
  862SOL     OW 3151   0.598   0.729   7.718
  862SOL    HW1 3152   0.622   0.798   7.650
  862SOL    HW2 3153   0.520   0.762   7.772
  863SOL     OW 3154   1.576   1.662   7.755
  863SOL    HW1 3155   1.665   1.708   7.758
  863SOL    HW2 3156   1.555   1.638   7.660
  864SOL     OW 3157   0.076   0.811   8.237
  864SOL    HW1 3158   0.175   0.799   8.246
  864SOL    HW2 3159   0.052   0.906   8.258
  865SOL     OW 3160   0.865   0.348   7.643
  865SOL    HW1 3161   0.924   0.411   7.594
  865SOL    HW2 3162   0.884   0.254   7.614
  866SOL     OW 3163   0.321   0.943   7.690
  866SOL    HW1 3164   0.403   0.982   7.648
  866SOL    HW2 3165   0.294   0.861   7.641
  867SOL     OW 3166   1.111   1.776   7.685
  867SOL    HW1 3167   1.051   1.714   7.735
  867SOL    HW2 3168   1.142   1.732   7.600
  868SOL     OW 3169   1.632   1.377   7.529
  868SOL    HW1 3170   1.600   1.471   7.519
  868SOL    HW2 3171   1.556   1.314   7.517
  869SOL     OW 3172   0.464   1.743   7.771
  869SOL    HW1 3173   0.497   1.782   7.857
  869SOL    HW2 3174   0.540   1.736   7.706
  870SOL     OW 3175   1.400   0.107   7.874
  870SOL    HW1 3176   1.376   0.070   7.784
  870SOL    HW2 3177   1.499   0.123   7.878
  871SOL     OW 3178   0.382   0.700   7.928
  871SOL    HW1 3179   0.427   0.610   7.925
  871SOL    HW2 3180   0.288   0.689   7.961
  872SOL     OW 3181   0.614   0.122   7.565
  872SOL    HW1 3182   0.712   0.100   7.572
  872SOL    HW2 3183   0.583   0.105   7.472
  873SOL     OW 3184   0.539   0.064   7.960
  873SOL    HW1 3185   0.458   0.065   8.018
  873SOL    HW2 3186   0.542   0.147   7.905
  874SOL     OW 3187   1.434   1.188   7.489
  874SOL    HW1 3188   1.466   1.112   7.546
  874SOL    HW2 3189   1.342   1.215   7.519
  875SOL     OW 3190   0.297   0.035   7.619
  875SOL    HW1 3191   0.346   0.119   7.598
  875SOL    HW2 3192   0.359  -0.030   7.664
  876SOL     OW 3193   0.935   0.236   7.928
  876SOL    HW1 3194   0.887   0.277   7.850
  876SOL    HW2 3195   1.034   0.234   7.909
  877SOL     OW 3196   0.459   1.152   8.189
  877SOL    HW1 3197   0.388   1.125   8.254
  877SOL    HW2 3198   0.433   1.124   8.096
  878SOL     OW 3199   1.271   1.797   8.039
  878SOL    HW1 3200   1.315   1.861   7.975
  878SOL    HW2 3201   1.221   1.849   8.109
  879SOL     OW 3202   1.032   0.549   7.464
  879SOL    HW1 3203   0.991   0.631   7.425
  879SOL    HW2 3204   1.096   0.575   7.537
  880SOL     OW 3205   1.857   0.833   7.825
  880SOL    HW1 3206   1.899   0.769   7.889
  880SOL    HW2 3207   1.819   0.782   7.747
  881SOL     OW 3208   0.488   1.385   7.622
  881SOL    HW1 3209   0.401   1.370   7.669
  881SOL    HW2 3210   0.471   1.411   7.527
  882SOL     OW 3211   1.390   0.575   7.526
  882SOL    HW1 3212   1.336   0.554   7.607
  882SOL    HW2 3213   1.481   0.534   7.535
  883SOL     OW 3214   0.527   0.256   7.776
  883SOL    HW1 3215   0.554   0.197   7.701
  883SOL    HW2 3216   0.527   0.351   7.745
  884SOL     OW 3217   0.705   1.050   7.816
  884SOL    HW1 3218   0.691   1.057   7.915
  884SOL    HW2 3219   0.789   0.999   7.798
  885SOL     OW 3220   0.367   1.100   7.949
  885SOL    HW1 3221   0.360   1.183   7.893
  885SOL    HW2 3222   0.371   1.020   7.889
  886SOL     OW 3223   1.252   1.348   7.836
  886SOL    HW1 3224   1.302   1.425   7.876
  886SOL    HW2 3225   1.157   1.350   7.868
  887SOL     OW 3226   1.582   0.639   7.920
  887SOL    HW1 3227   1.551   0.700   7.993
  887SOL    HW2 3228   1.632   0.691   7.851
  888SOL     OW 3229   1.209   0.525   7.723
  888SOL    HW1 3230   1.222   0.441   7.777
  888SOL    HW2 3231   1.180   0.599   7.783
  889SOL     OW 3232   1.622   0.367   7.822
  889SOL    HW1 3233   1.624   0.291   7.886
  889SOL    HW2 3234   1.574   0.444   7.862
  890SOL     OW 3235   1.540   0.274   7.573
  890SOL    HW1 3236   1.479   0.199   7.596
  890SOL    HW2 3237   1.562   0.326   7.656
  891SOL     OW 3238   1.303   0.838   7.490
  891SOL    HW1 3239   1.337   0.745   7.505
  891SOL    HW2 3240   1.321   0.865   7.395
  892SOL     OW 3241   0.008   1.326   7.648
  892SOL    HW1 3242  -0.085   1.347   7.617
  892SOL    HW2 3243   0.018   1.227   7.661
  893SOL     OW 3244   0.815   0.572   7.773
  893SOL    HW1 3245   0.822   0.483   7.727
  893SOL    HW2 3246   0.721   0.606   7.765
  894SOL     OW 3247   0.473   0.500   7.639
  894SOL    HW1 3248   0.534   0.580   7.643
  894SOL    HW2 3249   0.378   0.531   7.646
  895SOL     OW 3250   1.302   0.855   7.757
  895SOL    HW1 3251   1.216   0.824   7.799
  895SOL    HW2 3252   1.298   0.841   7.658
  896SOL     OW 3253   1.726   0.135   7.971
  896SOL    HW1 3254   1.799   0.118   7.904
  896SOL    HW2 3255   1.695   0.048   8.009
  897SOL     OW 3256   1.388   1.573   7.925
  897SOL    HW1 3257   1.455   1.585   7.851
  897SOL    HW2 3258   1.348   1.662   7.948
  898SOL     OW 3259   0.672   1.616   7.602
  898SOL    HW1 3260   0.681   1.626   7.503
  898SOL    HW2 3261   0.632   1.527   7.623
  899SOL     OW 3262   1.194   1.612   7.479
  899SOL    HW1 3263   1.200   1.519   7.516
  899SOL    HW2 3264   1.135   1.612   7.399
  900SOL     OW 3265   0.916   0.910   7.739
  900SOL    HW1 3266   0.979   0.948   7.671
  900SOL    HW2 3267   0.956   0.827   7.778
  901SOL     OW 3268   1.504   1.607   7.492
  901SOL    HW1 3269   1.412   1.644   7.499
  901SOL    HW2 3270   1.542   1.627   7.402
  902SOL     OW 3271   0.590   1.487   7.939
  902SOL    HW1 3272   0.632   1.429   7.869
  902SOL    HW2 3273   0.546   1.566   7.895
  903SOL     OW 3274   0.255   1.348   7.738
  903SOL    HW1 3275   0.159   1.349   7.711
  903SOL    HW2 3276   0.267   1.401   7.822
  904SOL     OW 3277   0.075   0.345   7.481
  904SOL    HW1 3278  -0.017   0.317   7.452
  904SOL    HW2 3279   0.106   0.422   7.425
  905SOL     OW 3280   0.072   0.166   7.766
  905SOL    HW1 3281   0.055   0.249   7.712
  905SOL    HW2 3282   0.162   0.129   7.744
  906SOL     OW 3283   1.183   1.335   7.567
  906SOL    HW1 3284   1.084   1.324   7.569
  906SOL    HW2 3285   1.217   1.350   7.660
  907SOL     OW 3286   1.225   0.325   7.897
  907SOL    HW1 3287   1.290   0.251   7.886
  907SOL    HW2 3288   1.245   0.375   7.981
  908SOL     OW 3289   0.594   0.745   8.100
  908SOL    HW1 3290   0.644   0.830   8.081
  908SOL    HW2 3291   0.506   0.747   8.052
  909SOL     OW 3292   0.859   1.374   7.464
  909SOL    HW1 3293   0.813   1.389   7.552
  909SOL    HW2 3294   0.903   1.459   7.434
  910SOL     OW 3295   1.083   0.984   7.535
  910SOL    HW1 3296   1.060   1.037   7.453
  910SOL    HW2 3297   1.164   0.928   7.516
  911SOL     OW 3298   0.428   0.424   7.968
  911SOL    HW1 3299   0.458   0.352   7.906
  911SOL    HW2 3300   0.389   0.384   8.051
  912SOL     OW 3301   0.770   1.330   7.749
  912SOL    HW1 3302   0.724   1.243   7.766
  912SOL    HW2 3303   0.861   1.327   7.790
  913SOL     OW 3304   1.352   0.052   7.616
  913SOL    HW1 3305   1.387   0.011   7.532
  913SOL    HW2 3306   1.262   0.014   7.636
  914SOL     OW 3307   0.039   1.077   7.748
  914SOL    HW1 3308   0.138   1.066   7.739
  914SOL    HW2 3309  -0.001   0.991   7.780
  915SOL     OW 3310   0.875   1.646   7.785
  915SOL    HW1 3311   0.798   1.611   7.731
  915SOL    HW2 3312   0.843   1.717   7.847
  916SOL     OW 3313   0.230   2.490   0.113
  916SOL    HW1 3314   0.137   2.488   0.150
  916SOL    HW2 3315   0.231   2.451   0.021
  917SOL     OW 3316   0.225   2.137   0.996
  917SOL    HW1 3317   0.260   2.120   1.088
  917SOL    HW2 3318   0.137   2.092   0.984
  918SOL     OW 3319   0.019   2.230   0.647
  918SOL    HW1 3320  -0.063   2.273   0.686
  918SOL    HW2 3321  -0.009   2.157   0.584
  919SOL     OW 3322   0.569   3.137   1.165
  919SOL    HW1 3323   0.476   3.130   1.128
  919SOL    HW2 3324   0.580   3.226   1.209
  920SOL     OW 3325   1.555   3.373   0.703
  920SOL    HW1 3326   1.498   3.357   0.784
  920SOL    HW2 3327   1.496   3.383   0.623
  921SOL     OW 3328   1.135   2.565   0.717
  921SOL    HW1 3329   1.192   2.643   0.692
  921SOL    HW2 3330   1.075   2.591   0.793
  922SOL     OW 3331   1.755   2.469   0.231
  922SOL    HW1 3332   1.743   2.456   0.132
  922SOL    HW2 3333   1.725   2.388   0.280
  923SOL     OW 3334   0.768   3.006   1.023
  923SOL    HW1 3335   0.690   3.023   1.083
  923SOL    HW2 3336   0.802   3.093   0.987
  924SOL     OW 3337   0.850   2.660   1.823
  924SOL    HW1 3338   0.846   2.736   1.888
  924SOL    HW2 3339   0.872   2.696   1.732
  925SOL     OW 3340   0.685   2.874   0.665
  925SOL    HW1 3341   0.754   2.858   0.735
  925SOL    HW2 3342   0.612   2.931   0.703
  926SOL     OW 3343   0.686   3.023   1.803
  926SOL    HW1 3344   0.746   3.102   1.817
  926SOL    HW2 3345   0.600   3.054   1.762
  927SOL     OW 3346   0.335   3.297   1.061
  927SOL    HW1 3347   0.257   3.266   1.008
  927SOL    HW2 3348   0.393   3.355   1.004
  928SOL     OW 3349   1.460   3.367   1.339
  928SOL    HW1 3350   1.484   3.461   1.365
  928SOL    HW2 3351   1.444   3.313   1.421
  929SOL     OW 3352   0.438   2.254   1.499
  929SOL    HW1 3353   0.520   2.198   1.508
  929SOL    HW2 3354   0.357   2.196   1.503
  930SOL     OW 3355   1.603   2.309   0.737
  930SOL    HW1 3356   1.529   2.355   0.687
  930SOL    HW2 3357   1.654   2.377   0.790
  931SOL     OW 3358   0.231   3.575   0.483
  931SOL    HW1 3359   0.265   3.652   0.537
  931SOL    HW2 3360   0.275   3.575   0.393
  932SOL     OW 3361   1.127   3.203   1.690
  932SOL    HW1 3362   1.174   3.203   1.778
  932SOL    HW2 3363   1.079   3.116   1.679
  933SOL     OW 3364   0.230   3.296   0.538
  933SOL    HW1 3365   0.204   3.392   0.538
  933SOL    HW2 3366   0.159   3.242   0.583
  934SOL     OW 3367   0.240   2.953   0.886
  934SOL    HW1 3368   0.254   2.869   0.938
  934SOL    HW2 3369   0.185   3.017   0.941
  935SOL     OW 3370   0.620   3.648   1.439
  935SOL    HW1 3371   0.528   3.631   1.474
  935SOL    HW2 3372   0.648   3.740   1.465
  936SOL     OW 3373   0.606   2.826   0.123
  936SOL    HW1 3374   0.613   2.910   0.069
  936SOL    HW2 3375   0.652   2.839   0.211
  937SOL     OW 3376   1.594   1.976   1.480
  937SOL    HW1 3377   1.576   2.043   1.408
  937SOL    HW2 3378   1.591   2.022   1.569
  938SOL     OW 3379   0.122   2.505   0.563
  938SOL    HW1 3380   0.077   2.417   0.580
  938SOL    HW2 3381   0.121   2.559   0.647
  939SOL     OW 3382   1.842   3.629   0.359
  939SOL    HW1 3383   1.896   3.600   0.439
  939SOL    HW2 3384   1.872   3.719   0.330
  940SOL     OW 3385   0.027   3.458   0.117
  940SOL    HW1 3386   0.008   3.362   0.138
  940SOL    HW2 3387  -0.006   3.516   0.192
  941SOL     OW 3388   1.689   2.784   0.612
  941SOL    HW1 3389   1.784   2.755   0.620
  941SOL    HW2 3390   1.681   2.849   0.537
  942SOL     OW 3391   1.641   2.970   0.432
  942SOL    HW1 3392   1.727   2.972   0.380
  942SOL    HW2 3393   1.655   3.017   0.520
  943SOL     OW 3394   0.113   2.599   1.597
  943SOL    HW1 3395   0.201   2.586   1.642
  943SOL    HW2 3396   0.100   2.696   1.575
  944SOL     OW 3397   0.613   3.227   0.726
  944SOL    HW1 3398   0.564   3.140   0.735
  944SOL    HW2 3399   0.590   3.270   0.639
  945SOL     OW 3400   1.293   3.090   1.423
  945SOL    HW1 3401   1.330   3.017   1.365
  945SOL    HW2 3402   1.345   3.095   1.508
  946SOL     OW 3403   0.809   1.866   0.502
  946SOL    HW1 3404   0.849   1.957   0.493
  946SOL    HW2 3405   0.709   1.874   0.508
  947SOL     OW 3406   0.197   2.838   1.264
  947SOL    HW1 3407   0.286   2.793   1.250
  947SOL    HW2 3408   0.124   2.773   1.245
  948SOL     OW 3409   1.525   2.861   0.190
  948SOL    HW1 3410   1.462   2.785   0.203
  948SOL    HW2 3411   1.573   2.879   0.276
  949SOL     OW 3412   1.187   3.654   1.616
  949SOL    HW1 3413   1.211   3.714   1.540
  949SOL    HW2 3414   1.194   3.559   1.586
  950SOL     OW 3415   0.317   2.113   1.801
  950SOL    HW1 3416   0.388   2.184   1.807
  950SOL    HW2 3417   0.229   2.152   1.829
  951SOL     OW 3418   1.466   3.279   0.953
  951SOL    HW1 3419   1.407   3.285   1.033
  951SOL    HW2 3420   1.451   3.191   0.907
  952SOL     OW 3421   1.667   3.576   0.572
  952SOL    HW1 3422   1.626   3.553   0.484
  952SOL    HW2 3423   1.649   3.502   0.637
  953SOL     OW 3424   0.598   2.591   0.270
  953SOL    HW1 3425   0.622   2.660   0.202
  953SOL    HW2 3426   0.520   2.624   0.324
  954SOL     OW 3427   1.281   2.207   0.944
  954SOL    HW1 3428   1.195   2.157   0.931
  954SOL    HW2 3429   1.343   2.153   1.000
  955SOL     OW 3430   1.576   3.524   0.307
  955SOL    HW1 3431   1.665   3.570   0.310
  955SOL    HW2 3432   1.555   3.500   0.212
  956SOL     OW 3433   0.807   2.467   1.465
  956SOL    HW1 3434   0.760   2.464   1.554
  956SOL    HW2 3435   0.756   2.412   1.399
  957SOL     OW 3436   1.394   2.331   1.674
  957SOL    HW1 3437   1.374   2.374   1.762
  957SOL    HW2 3438   1.472   2.269   1.683
  958SOL     OW 3439   0.973   2.752   1.572
  958SOL    HW1 3440   1.019   2.668   1.543
  958SOL    HW2 3441   0.917   2.786   1.497
  959SOL     OW 3442   0.991   2.272   1.242
  959SOL    HW1 3443   0.914   2.306   1.296
  959SOL    HW2 3444   0.957   2.221   1.163
  960SOL     OW 3445   1.041   2.563   0.429
  960SOL    HW1 3446   1.067   2.559   0.525
  960SOL    HW2 3447   0.956   2.512   0.415
  961SOL     OW 3448   0.076   2.673   0.789
  961SOL    HW1 3449   0.175   2.661   0.798
  961SOL    HW2 3450   0.052   2.768   0.810
  962SOL     OW 3451   0.130   3.683   1.571
  962SOL    HW1 3452   0.120   3.668   1.670
  962SOL    HW2 3453   0.044   3.719   1.535
  963SOL     OW 3454   0.865   2.210   0.195
  963SOL    HW1 3455   0.924   2.273   0.146
  963SOL    HW2 3456   0.884   2.116   0.166
  964SOL     OW 3457   1.719   2.447   1.831
  964SOL    HW1 3458   1.693   2.536   1.795
  964SOL    HW2 3459   1.717   2.379   1.758
  965SOL     OW 3460   1.362   3.006   0.545
  965SOL    HW1 3461   1.445   2.977   0.497
  965SOL    HW2 3462   1.313   3.073   0.489
  966SOL     OW 3463   0.550   2.058   0.885
  966SOL    HW1 3464   0.545   2.053   0.985
  966SOL    HW2 3465   0.552   2.154   0.856
  967SOL     OW 3466   1.008   3.318   0.477
  967SOL    HW1 3467   0.962   3.390   0.425
  967SOL    HW2 3468   1.004   3.338   0.575
  968SOL     OW 3469   0.351   3.663   0.853
  968SOL    HW1 3470   0.401   3.577   0.859
  968SOL    HW2 3471   0.416   3.740   0.850
  969SOL     OW 3472   1.795   2.928   0.873
  969SOL    HW1 3473   1.733   2.913   0.797
  969SOL    HW2 3474   1.743   2.939   0.958
  970SOL     OW 3475   1.227   3.412   1.506
  970SOL    HW1 3476   1.233   3.335   1.570
  970SOL    HW2 3477   1.175   3.386   1.426
  971SOL     OW 3478   0.321   2.805   0.242
  971SOL    HW1 3479   0.403   2.844   0.200
  971SOL    HW2 3480   0.294   2.723   0.193
  972SOL     OW 3481   1.458   2.597   0.728
  972SOL    HW1 3482   1.453   2.532   0.803
  972SOL    HW2 3483   1.538   2.656   0.741
  973SOL     OW 3484   0.461   3.128   1.727
  973SOL    HW1 3485   0.411   3.129   1.641
  973SOL    HW2 3486   0.398   3.110   1.803
  974SOL     OW 3487   1.111   3.638   0.237
  974SOL    HW1 3488   1.051   3.576   0.287
  974SOL    HW2 3489   1.142   3.594   0.152
  975SOL     OW 3490   0.202   2.147   1.498
  975SOL    HW1 3491   0.122   2.207   1.485
  975SOL    HW2 3492   0.192   2.098   1.584
  976SOL     OW 3493   1.632   3.239   0.081
  976SOL    HW1 3494   1.600   3.333   0.071
  976SOL    HW2 3495   1.556   3.176   0.069
  977SOL     OW 3496   0.464   3.605   0.323
  977SOL    HW1 3497   0.497   3.644   0.409
  977SOL    HW2 3498   0.540   3.598   0.258
  978SOL     OW 3499   1.400   1.969   0.426
  978SOL    HW1 3500   1.376   1.932   0.336
  978SOL    HW2 3501   1.499   1.985   0.430
  979SOL     OW 3502   0.249   3.647   1.241
  979SOL    HW1 3503   0.306   3.582   1.291
  979SOL    HW2 3504   0.233   3.614   1.148
  980SOL     OW 3505   0.940   3.560   0.904
  980SOL    HW1 3506   1.020   3.503   0.925
  980SOL    HW2 3507   0.891   3.520   0.827
  981SOL     OW 3508   0.382   2.562   0.480
  981SOL    HW1 3509   0.427   2.472   0.477
  981SOL    HW2 3510   0.288   2.551   0.513
  982SOL     OW 3511   1.547   2.084   1.729
  982SOL    HW1 3512   1.542   2.121   1.821
  982SOL    HW2 3513   1.475   2.015   1.717
  983SOL     OW 3514   0.614   1.984   0.117
  983SOL    HW1 3515   0.712   1.962   0.124
  983SOL    HW2 3516   0.583   1.967   0.024
  984SOL     OW 3517   0.781   2.126   1.749
  984SOL    HW1 3518   0.848   2.065   1.792
  984SOL    HW2 3519   0.708   2.145   1.814
  985SOL     OW 3520   0.888   3.376   1.195
  985SOL    HW1 3521   0.865   3.351   1.101
  985SOL    HW2 3522   0.949   3.307   1.234
  986SOL     OW 3523   1.351   2.452   1.433
  986SOL    HW1 3524   1.379   2.409   1.518
  986SOL    HW2 3525   1.376   2.548   1.434
  987SOL     OW 3526   0.803   3.264   0.924
  987SOL    HW1 3527   0.893   3.278   0.882
  987SOL    HW2 3528   0.732   3.266   0.853
  988SOL     OW 3529   0.922   2.365   0.899
  988SOL    HW1 3530   0.897   2.356   0.803
  988SOL    HW2 3531   0.970   2.283   0.930
  989SOL     OW 3532   0.539   1.926   0.512
  989SOL    HW1 3533   0.458   1.927   0.570
  989SOL    HW2 3534   0.542   2.009   0.457
  990SOL     OW 3535   1.434   3.050   0.041
  990SOL    HW1 3536   1.466   2.974   0.098
  990SOL    HW2 3537   1.342   3.077   0.071
  991SOL     OW 3538   0.297   1.897   0.171
  991SOL    HW1 3539   0.346   1.981   0.150
  991SOL    HW2 3540   0.359   1.832   0.216
  992SOL     OW 3541   0.935   2.098   0.480
  992SOL    HW1 3542   0.887   2.139   0.402
  992SOL    HW2 3543   1.034   2.096   0.461
  993SOL     OW 3544   1.076   2.545   1.464
  993SOL    HW1 3545   0.996   2.484   1.467
  993SOL    HW2 3546   1.157   2.492   1.440
  994SOL     OW 3547   1.227   3.432   0.793
  994SOL    HW1 3548   1.248   3.506   0.728
  994SOL    HW2 3549   1.295   3.432   0.866
  995SOL     OW 3550   0.459   3.014   0.741
  995SOL    HW1 3551   0.388   2.987   0.806
  995SOL    HW2 3552   0.433   2.986   0.648
  996SOL     OW 3553   1.271   3.659   0.591
  996SOL    HW1 3554   1.315   3.723   0.527
  996SOL    HW2 3555   1.221   3.711   0.661
  997SOL     OW 3556   1.032   2.411   0.016
  997SOL    HW1 3557   0.991   2.493  -0.023
  997SOL    HW2 3558   1.096   2.437   0.089
  998SOL     OW 3559   0.078   2.418   1.386
  998SOL    HW1 3560   0.170   2.417   1.345
  998SOL    HW2 3561   0.072   2.492   1.453
  999SOL     OW 3562   0.561   2.084   1.147
  999SOL    HW1 3563   0.599   2.000   1.184
  999SOL    HW2 3564   0.473   2.103   1.191
 1000SOL     OW 3565   0.866   2.316   0.642
 1000SOL    HW1 3566   0.834   2.388   0.580
 1000SOL    HW2 3567   0.890   2.235   0.589
 1001SOL     OW 3568   1.017   1.901   0.753
 1001SOL    HW1 3569   0.945   1.906   0.684
 1001SOL    HW2 3570   0.993   1.832   0.822
 1002SOL     OW 3571   1.429   3.035   0.867
 1002SOL    HW1 3572   1.374   2.951   0.860
 1002SOL    HW2 3573   1.455   3.064   0.775
 1003SOL     OW 3574   1.466   2.452   0.992
 1003SOL    HW1 3575   1.436   2.357   0.999
 1003SOL    HW2 3576   1.539   2.468   1.058
 1004SOL     OW 3577   1.857   2.695   0.377
 1004SOL    HW1 3578   1.899   2.631   0.441
 1004SOL    HW2 3579   1.819   2.644   0.299
 1005SOL     OW 3580   0.488   3.247   0.174
 1005SOL    HW1 3581   0.401   3.232   0.221
 1005SOL    HW2 3582   0.471   3.273   0.079
 1006SOL     OW 3583   1.664   3.142   0.657
 1006SOL    HW1 3584   1.763   3.150   0.671
 1006SOL    HW2 3585   1.619   3.226   0.688
 1007SOL     OW 3586   1.390   2.437   0.078
 1007SOL    HW1 3587   1.336   2.416   0.159
 1007SOL    HW2 3588   1.481   2.396   0.087
 1008SOL     OW 3589   0.527   2.118   0.328
 1008SOL    HW1 3590   0.554   2.059   0.253
 1008SOL    HW2 3591   0.527   2.213   0.297
 1009SOL     OW 3592   1.754   3.085   1.588
 1009SOL    HW1 3593   1.845   3.046   1.575
 1009SOL    HW2 3594   1.762   3.181   1.612
 1010SOL     OW 3595   1.064   3.209   1.340
 1010SOL    HW1 3596   0.984   3.186   1.395
 1010SOL    HW2 3597   1.147   3.183   1.389
 1011SOL     OW 3598   1.592   3.491   1.625
 1011SOL    HW1 3599   1.619   3.525   1.535
 1011SOL    HW2 3600   1.671   3.453   1.671
 1012SOL     OW 3601   1.111   3.057   1.100
 1012SOL    HW1 3602   1.071   3.101   1.181
 1012SOL    HW2 3603   1.070   3.094   1.017
 1013SOL     OW 3604   1.638   2.961   1.079
 1013SOL    HW1 3605   1.643   3.042   1.138
 1013SOL    HW2 3606   1.552   2.963   1.028
 1014SOL     OW 3607   0.915   1.951   1.402
 1014SOL    HW1 3608   0.940   1.931   1.307
 1014SOL    HW2 3609   0.987   2.007   1.444
 1015SOL     OW 3610   0.980   2.978   1.719
 1015SOL    HW1 3611   0.881   2.984   1.729
 1015SOL    HW2 3612   1.003   2.898   1.663
 1016SOL     OW 3613   0.705   2.912   0.368
 1016SOL    HW1 3614   0.691   2.919   0.467
 1016SOL    HW2 3615   0.789   2.861   0.350
 1017SOL     OW 3616   0.410   2.675   1.251
 1017SOL    HW1 3617   0.496   2.687   1.301
 1017SOL    HW2 3618   0.368   2.588   1.278
 1018SOL     OW 3619   1.274   2.248   1.262
 1018SOL    HW1 3620   1.295   2.322   1.326
 1018SOL    HW2 3621   1.185   2.265   1.219
 1019SOL     OW 3622   0.064   3.426   1.331
 1019SOL    HW1 3623   0.018   3.508   1.297
 1019SOL    HW2 3624   0.162   3.445   1.340
 1020SOL     OW 3625   0.367   2.962   0.501
 1020SOL    HW1 3626   0.360   3.045   0.445
 1020SOL    HW2 3627   0.371   2.882   0.441
 1021SOL     OW 3628   0.566   2.399   0.865
 1021SOL    HW1 3629   0.578   2.465   0.791
 1021SOL    HW2 3630   0.612   2.433   0.948
 1022SOL     OW 3631   1.252   3.210   0.388
 1022SOL    HW1 3632   1.302   3.287   0.428
 1022SOL    HW2 3633   1.157   3.212   0.420
 1023SOL     OW 3634   1.272   3.307   1.142
 1023SOL    HW1 3635   1.319   3.320   1.229
 1023SOL    HW2 3636   1.206   3.233   1.151
 1024SOL     OW 3637   1.582   2.501   0.472
 1024SOL    HW1 3638   1.551   2.562   0.545
 1024SOL    HW2 3639   1.632   2.553   0.403
 1025SOL     OW 3640   0.354   3.372   1.329
 1025SOL    HW1 3641   0.333   3.328   1.242
 1025SOL    HW2 3642   0.451   3.398   1.332
 1026SOL     OW 3643   0.402   2.613   1.598
 1026SOL    HW1 3644   0.470   2.668   1.551
 1026SOL    HW2 3645   0.442   2.525   1.625
 1027SOL     OW 3646   1.587   2.641   1.670
 1027SOL    HW1 3647   1.495   2.679   1.665
 1027SOL    HW2 3648   1.647   2.688   1.605
 1028SOL     OW 3649   1.013   1.967   1.770
 1028SOL    HW1 3650   1.019   2.052   1.718
 1028SOL    HW2 3651   1.045   1.891   1.713
 1029SOL     OW 3652   0.504   1.912   1.740
 1029SOL    HW1 3653   0.462   1.855   1.670
 1029SOL    HW2 3654   0.438   1.981   1.772
 1030SOL     OW 3655   0.573   2.732   1.029
 1030SOL    HW1 3656   0.617   2.821   1.020
 1030SOL    HW2 3657   0.510   2.732   1.106
 1031SOL     OW 3658   1.360   2.724   1.045
 1031SOL    HW1 3659   1.285   2.724   0.979
 1031SOL    HW2 3660   1.397   2.632   1.054
 1032SOL     OW 3661   1.209   2.387   0.275
 1032SOL    HW1 3662   1.222   2.303   0.329
 1032SOL    HW2 3663   1.180   2.461   0.335
 1033SOL     OW 3664   0.307   2.075   1.231
 1033SOL    HW1 3665   0.284   2.112   1.321
 1033SOL    HW2 3666   0.277   1.980   1.225
 1034SOL     OW 3667   0.037   3.172   1.282
 1034SOL    HW1 3668   0.090   3.123   1.350
 1034SOL    HW2 3669   0.059   3.270   1.287
 1035SOL     OW 3670   0.732   2.496   1.064
 1035SOL    HW1 3671   0.791   2.470   0.988
 1035SOL    HW2 3672   0.704   2.592   1.053
 1036SOL     OW 3673   1.728   2.797   1.854
 1036SOL    HW1 3674   1.682   2.790   1.765
 1036SOL    HW2 3675   1.666   2.841   1.920
 1037SOL     OW 3676   0.307   1.925   0.618
 1037SOL    HW1 3677   0.296   2.019   0.651
 1037SOL    HW2 3678   0.302   1.862   0.695
 1038SOL     OW 3679   1.622   2.229   0.374
 1038SOL    HW1 3680   1.624   2.153   0.438
 1038SOL    HW2 3681   1.574   2.306   0.414
 1039SOL     OW 3682   1.023   2.628   0.966
 1039SOL    HW1 3683   1.038   2.649   1.062
 1039SOL    HW2 3684   0.993   2.533   0.957
 1040SOL     OW 3685   0.980   3.435   1.700
 1040SOL    HW1 3686   0.960   3.479   1.612
 1040SOL    HW2 3687   1.019   3.344   1.684
 1041SOL     OW 3688   1.859   3.380   1.605
 1041SOL    HW1 3689   1.873   3.407   1.510
 1041SOL    HW2 3690   1.942   3.402   1.658
 1042SOL     OW 3691   0.350   2.760   1.804
 1042SOL    HW1 3692   0.426   2.804   1.852
 1042SOL    HW2 3693   0.385   2.713   1.722
 1043SOL     OW 3694   1.540   2.136   0.125
 1043SOL    HW1 3695   1.479   2.061   0.148
 1043SOL    HW2 3696   1.562   2.188   0.208
 1044SOL     OW 3697   1.303   2.700   0.042
 1044SOL    HW1 3698   1.337   2.607   0.057
 1044SOL    HW2 3699   1.321   2.727  -0.053
 1045SOL     OW 3700   1.068   3.195   0.849
 1045SOL    HW1 3701   1.075   3.111   0.794
 1045SOL    HW2 3702   1.130   3.264   0.813
 1046SOL     OW 3703   0.319   2.672   0.949
 1046SOL    HW1 3704   0.412   2.708   0.954
 1046SOL    HW2 3705   0.313   2.587   1.001
 1047SOL     OW 3706   0.339   2.371   1.006
 1047SOL    HW1 3707   0.287   2.288   0.989
 1047SOL    HW2 3708   0.416   2.376   0.942
 1048SOL     OW 3709   1.138   2.242   1.678
 1048SOL    HW1 3710   1.093   2.305   1.742
 1048SOL    HW2 3711   1.231   2.273   1.661
 1049SOL     OW 3712   1.160   2.069   1.477
 1049SOL    HW1 3713   1.160   2.133   1.554
 1049SOL    HW2 3714   1.188   2.117   1.394
 1050SOL     OW 3715   0.008   3.188   0.200
 1050SOL    HW1 3716  -0.085   3.209   0.169
 1050SOL    HW2 3717   0.018   3.089   0.213
 1051SOL     OW 3718   0.088   3.663   0.927
 1051SOL    HW1 3719   0.046   3.577   0.900
 1051SOL    HW2 3720   0.182   3.666   0.893
 1052SOL     OW 3721   0.504   3.430   0.910
 1052SOL    HW1 3722   0.570   3.504   0.919
 1052SOL    HW2 3723   0.548   3.351   0.868
 1053SOL     OW 3724   1.002   2.658   1.238
 1053SOL    HW1 3725   1.043   2.626   1.324
 1053SOL    HW2 3726   0.906   2.631   1.235
 1054SOL     OW 3727   0.040   2.406   1.114
 1054SOL    HW1 3728   0.125   2.373   1.073
 1054SOL    HW2 3729   0.053   2.421   1.212
 1055SOL     OW 3730   0.189   2.382   1.722
 1055SOL    HW1 3731   0.248   2.342   1.652
 1055SOL    HW2 3732   0.131   2.453   1.681
 1056SOL     OW 3733   1.369   2.812   1.660
 1056SOL    HW1 3734   1.408   2.901   1.680
 1056SOL    HW2 3735   1.379   2.792   1.563
 1057SOL     OW 3736   0.815   2.434   0.325
 1057SOL    HW1 3737   0.822   2.345   0.279
 1057SOL    HW2 3738   0.721   2.468   0.317
 1058SOL     OW 3739   1.657   2.466   1.206
 1058SOL    HW1 3740   1.619   2.397   1.268
 1058SOL    HW2 3741   1.739   2.430   1.162
 1059SOL     OW 3742   0.252   3.426   1.744
 1059SOL    HW1 3743   0.222   3.483   1.820
 1059SOL    HW2 3744   0.245   3.329   1.770
 1060SOL     OW 3745   0.671   2.326   1.269
 1060SOL    HW1 3746   0.637   2.237   1.239
 1060SOL    HW2 3747   0.697   2.380   1.189
 1061SOL     OW 3748   0.930   3.540   1.465
 1061SOL    HW1 3749   0.906   3.522   1.370
 1061SOL    HW2 3750   0.960   3.634   1.475
 1062SOL     OW 3751   0.473   2.362   0.191
 1062SOL    HW1 3752   0.534   2.442   0.195
 1062SOL    HW2 3753   0.378   2.393   0.198
 1063SOL     OW 3754   0.159   2.999   1.466
 1063SOL    HW1 3755   0.181   2.938   1.542
 1063SOL    HW2 3756   0.169   2.950   1.380
 1064SOL     OW 3757   1.347   2.921   1.234
 1064SOL    HW1 3758   1.371   2.858   1.160
 1064SOL    HW2 3759   1.257   2.961   1.216
 1065SOL     OW 3760   1.302   2.717   0.309
 1065SOL    HW1 3761   1.216   2.686   0.351
 1065SOL    HW2 3762   1.298   2.703   0.210
 1066SOL     OW 3763   1.759   3.609   1.154
 1066SOL    HW1 3764   1.820   3.639   1.081
 1066SOL    HW2 3765   1.721   3.520   1.132
 1067SOL     OW 3766   1.252   3.593   1.128
 1067SOL    HW1 3767   1.336   3.598   1.074
 1067SOL    HW2 3768   1.229   3.497   1.146
 1068SOL     OW 3769   0.083   3.120   1.022
 1068SOL    HW1 3770   0.078   3.119   1.122
 1068SOL    HW2 3771   0.000   3.079   0.984
 1069SOL     OW 3772   0.688   3.524   1.716
 1069SOL    HW1 3773   0.632   3.605   1.725
 1069SOL    HW2 3774   0.740   3.528   1.630
 1070SOL     OW 3775   0.903   1.948   0.133
 1070SOL    HW1 3776   0.954   1.949   0.047
 1070SOL    HW2 3777   0.959   1.906   0.204
 1071SOL     OW 3778   1.726   1.997   0.523
 1071SOL    HW1 3779   1.799   1.980   0.456
 1071SOL    HW2 3780   1.695   1.910   0.561
 1072SOL     OW 3781   1.388   3.435   0.477
 1072SOL    HW1 3782   1.455   3.447   0.403
 1072SOL    HW2 3783   1.348   3.524   0.500
 1073SOL     OW 3784   0.130   3.656   1.851
 1073SOL    HW1 3785   0.089   3.582   1.904
 1073SOL    HW2 3786   0.194   3.707   1.909
 1074SOL     OW 3787   1.280   2.789   0.672
 1074SOL    HW1 3788   1.340   2.708   0.674
 1074SOL    HW2 3789   1.320   2.858   0.612
 1075SOL     OW 3790   0.830   3.135   1.422
 1075SOL    HW1 3791   0.825   3.168   1.517
 1075SOL    HW2 3792   0.744   3.154   1.376
 1076SOL     OW 3793   0.672   3.478   0.154
 1076SOL    HW1 3794   0.681   3.488   0.055
 1076SOL    HW2 3795   0.632   3.389   0.175
 1077SOL     OW 3796   1.650   3.582   1.394
 1077SOL    HW1 3797   1.703   3.592   1.310
 1077SOL    HW2 3798   1.623   3.672   1.428
 1078SOL     OW 3799   1.841   2.037   0.963
 1078SOL    HW1 3800   1.880   1.952   0.927
 1078SOL    HW2 3801   1.743   2.039   0.944
 1079SOL     OW 3802   0.263   2.188   0.720
 1079SOL    HW1 3803   0.184   2.239   0.686
 1079SOL    HW2 3804   0.254   2.173   0.818
 1080SOL     OW 3805   1.194   3.474   0.031
 1080SOL    HW1 3806   1.200   3.381   0.068
 1080SOL    HW2 3807   1.135   3.474  -0.049
 1081SOL     OW 3808   0.822   2.864   1.372
 1081SOL    HW1 3809   0.862   2.863   1.280
 1081SOL    HW2 3810   0.832   2.956   1.412
 1082SOL     OW 3811   0.916   2.772   0.291
 1082SOL    HW1 3812   0.979   2.810   0.223
 1082SOL    HW2 3813   0.956   2.689   0.330
 1083SOL     OW 3814   1.504   3.469   0.044
 1083SOL    HW1 3815   1.412   3.506   0.051
 1083SOL    HW2 3816   1.542   3.489  -0.046
 1084SOL     OW 3817   0.372   3.150   1.490
 1084SOL    HW1 3818   0.359   3.243   1.456
 1084SOL    HW2 3819   0.288   3.098   1.477
 1085SOL     OW 3820   1.614   3.154   1.289
 1085SOL    HW1 3821   1.674   3.157   1.369
 1085SOL    HW2 3822   1.539   3.218   1.302
 1086SOL     OW 3823   1.039   2.960   0.696
 1086SOL    HW1 3824   0.969   2.913   0.750
 1086SOL    HW2 3825   1.098   2.892   0.653
 1087SOL     OW 3826   1.014   2.098   0.971
 1087SOL    HW1 3827   1.006   2.062   0.878
 1087SOL    HW2 3828   1.012   2.022   1.036
 1088SOL     OW 3829   0.590   3.349   0.491
 1088SOL    HW1 3830   0.632   3.291   0.421
 1088SOL    HW2 3831   0.546   3.428   0.447
 1089SOL     OW 3832   1.709   2.247   1.381
 1089SOL    HW1 3833   1.782   2.316   1.385
 1089SOL    HW2 3834   1.737   2.172   1.322
 1090SOL     OW 3835   0.255   3.210   0.290
 1090SOL    HW1 3836   0.159   3.211   0.263
 1090SOL    HW2 3837   0.267   3.263   0.374
 1091SOL     OW 3838   0.105   2.875   1.726
 1091SOL    HW1 3839   0.028   2.842   1.780
 1091SOL    HW2 3840   0.190   2.845   1.768
 1092SOL     OW 3841   0.672   2.065   1.489
 1092SOL    HW1 3842   0.762   2.049   1.449
 1092SOL    HW2 3843   0.680   2.070   1.588
 1093SOL     OW 3844   0.075   2.207   0.033
 1093SOL    HW1 3845  -0.017   2.179   0.004
 1093SOL    HW2 3846   0.106   2.284  -0.023
 1094SOL     OW 3847   1.440   2.718   1.398
 1094SOL    HW1 3848   1.383   2.770   1.335
 1094SOL    HW2 3849   1.536   2.730   1.374
 1095SOL     OW 3850   0.072   2.028   0.318
 1095SOL    HW1 3851   0.055   2.111   0.264
 1095SOL    HW2 3852   0.162   1.991   0.296
 1096SOL     OW 3853   1.183   3.197   0.119
 1096SOL    HW1 3854   1.084   3.186   0.121
 1096SOL    HW2 3855   1.217   3.212   0.212
 1097SOL     OW 3856   0.613   2.704   1.431
 1097SOL    HW1 3857   0.669   2.785   1.414
 1097SOL    HW2 3858   0.672   2.624   1.434
 1098SOL     OW 3859   1.493   3.629   0.959
 1098SOL    HW1 3860   1.526   3.693   0.890
 1098SOL    HW2 3861   1.559   3.623   1.034
 1099SOL     OW 3862   0.716   2.427   1.708
 1099SOL    HW1 3863   0.735   2.492   1.782
 1099SOL    HW2 3864   0.776   2.347   1.717
 1100SOL     OW 3865   1.450   3.082   1.633
 1100SOL    HW1 3866   1.441   3.072   1.732
 1100SOL    HW2 3867   1.546   3.075   1.607
 1101SOL     OW 3868   0.390   3.603   1.560
 1101SOL    HW1 3869   0.299   3.644   1.558
 1101SOL    HW2 3870   0.383   3.509   1.592
 1102SOL     OW 3871   1.674   2.745   1.254
 1102SOL    HW1 3872   1.647   2.656   1.217
 1102SOL    HW2 3873   1.675   2.813   1.181
 1103SOL     OW 3874   1.225   2.187   0.449
 1103SOL    HW1 3875   1.290   2.113   0.438
 1103SOL    HW2 3876   1.245   2.237   0.533
 1104SOL     OW 3877   0.594   2.607   0.652
 1104SOL    HW1 3878   0.644   2.692   0.633
 1104SOL    HW2 3879   0.506   2.609   0.604
 1105SOL     OW 3880   1.777   2.204   1.642
 1105SOL    HW1 3881   1.760   2.235   1.548
 1105SOL    HW2 3882   1.693   2.167   1.680
 1106SOL     OW 3883   1.730   2.796   1.517
 1106SOL    HW1 3884   1.768   2.887   1.532
 1106SOL    HW2 3885   1.722   2.779   1.418
 1107SOL     OW 3886   0.859   3.236   0.016
 1107SOL    HW1 3887   0.813   3.251   0.104
 1107SOL    HW2 3888   0.903   3.321  -0.014
 1108SOL     OW 3889   0.661   3.652   0.953
 1108SOL    HW1 3890   0.615   3.740   0.940
 1108SOL    HW2 3891   0.760   3.664   0.946
 1109SOL     OW 3892   0.859   2.818   0.861
 1109SOL    HW1 3893   0.913   2.749   0.909
 1109SOL    HW2 3894   0.827   2.887   0.927
 1110SOL     OW 3895   1.083   2.846   0.087
 1110SOL    HW1 3896   1.060   2.899   0.005
 1110SOL    HW2 3897   1.164   2.790   0.068
 1111SOL     OW 3898   1.861   3.431   0.851
 1111SOL    HW1 3899   1.790   3.419   0.781
 1111SOL    HW2 3900   1.862   3.352   0.911
 1112SOL     OW 3901   0.221   3.176   1.844
 1112SOL    HW1 3902   0.156   3.103   1.823
 1112SOL    HW2 3903   0.225   3.190   1.942
 1113SOL     OW 3904   0.079   3.102   0.653
 1113SOL    HW1 3905   0.078   3.055   0.741
 1113SOL    HW2 3906   0.161   3.074   0.602
 1114SOL     OW 3907   0.672   3.253   1.624
 1114SOL    HW1 3908   0.594   3.203   1.662
 1114SOL    HW2 3909   0.669   3.348   1.655
 1115SOL     OW 3910   1.824   2.054   1.227
 1115SOL    HW1 3911   1.820   1.964   1.271
 1115SOL    HW2 3912   1.827   2.043   1.128
 1116SOL     OW 3913   0.428   2.286   0.520
 1116SOL    HW1 3914   0.458   2.214   0.458
 1116SOL    HW2 3915   0.389   2.246   0.603
 1117SOL     OW 3916   1.705   3.349   1.104
 1117SOL    HW1 3917   1.612   3.324   1.077
 1117SOL    HW2 3918   1.731   3.299   1.186
 1118SOL     OW 3919   0.317   2.409   1.280
 1118SOL    HW1 3920   0.355   2.350   1.352
 1118SOL    HW2 3921   0.357   2.383   1.192
 1119SOL     OW 3922   0.812   3.448   0.687
 1119SOL    HW1 3923   0.844   3.458   0.593
 1119SOL    HW2 3924   0.733   3.386   0.689
 1120SOL     OW 3925   1.424   2.076   1.112
 1120SOL    HW1 3926   1.476   2.011   1.167
 1120SOL    HW2 3927   1.375   2.139   1.173
 1121SOL     OW 3928   1.001   1.896   1.154
 1121SOL    HW1 3929   0.938   1.824   1.123
 1121SOL    HW2 3930   1.094   1.860   1.154
 1122SOL     OW 3931   0.770   3.192   0.301
 1122SOL    HW1 3932   0.724   3.105   0.318
 1122SOL    HW2 3933   0.861   3.189   0.342
 1123SOL     OW 3934   0.618   3.429   1.284
 1123SOL    HW1 3935   0.613   3.511   1.341
 1123SOL    HW2 3936   0.707   3.426   1.239
 1124SOL     OW 3937   1.352   1.914   0.168
 1124SOL    HW1 3938   1.387   1.873   0.084
 1124SOL    HW2 3939   1.262   1.876   0.188
 1125SOL     OW 3940   1.300   2.315   0.691
 1125SOL    HW1 3941   1.241   2.395   0.695
 1125SOL    HW2 3942   1.315   2.280   0.784
 1126SOL     OW 3943   1.593   2.083   0.882
 1126SOL    HW1 3944   1.509   2.082   0.936
 1126SOL    HW2 3945   1.595   2.166   0.826
 1127SOL     OW 3946   0.039   2.939   0.300
 1127SOL    HW1 3947   0.138   2.928   0.291
 1127SOL    HW2 3948  -0.001   2.853   0.332
 1128SOL     OW 3949   0.875   3.508   0.337
 1128SOL    HW1 3950   0.798   3.473   0.283
 1128SOL    HW2 3951   0.843   3.579   0.399
 1129SOL     OW 3952   0.230   2.490   1.975
 1129SOL    HW1 3953   0.137   2.488   2.012
 1129SOL    HW2 3954   0.231   2.451   1.883
 1130SOL     OW 3955   0.225   2.137   2.858
 1130SOL    HW1 3956   0.260   2.120   2.950
 1130SOL    HW2 3957   0.137   2.092   2.846
 1131SOL     OW 3958   0.019   2.230   2.509
 1131SOL    HW1 3959  -0.063   2.273   2.548
 1131SOL    HW2 3960  -0.009   2.157   2.446
 1132SOL     OW 3961   0.569   3.137   3.027
 1132SOL    HW1 3962   0.476   3.130   2.990
 1132SOL    HW2 3963   0.580   3.226   3.071
 1133SOL     OW 3964   1.555   3.373   2.565
 1133SOL    HW1 3965   1.498   3.357   2.646
 1133SOL    HW2 3966   1.496   3.383   2.485
 1134SOL     OW 3967   1.135   2.565   2.579
 1134SOL    HW1 3968   1.192   2.643   2.554
 1134SOL    HW2 3969   1.075   2.591   2.655
 1135SOL     OW 3970   1.755   2.469   2.093
 1135SOL    HW1 3971   1.743   2.456   1.994
 1135SOL    HW2 3972   1.725   2.388   2.142
 1136SOL     OW 3973   0.768   3.006   2.885
 1136SOL    HW1 3974   0.690   3.023   2.945
 1136SOL    HW2 3975   0.802   3.093   2.849
 1137SOL     OW 3976   0.850   2.660   3.685
 1137SOL    HW1 3977   0.846   2.736   3.750
 1137SOL    HW2 3978   0.872   2.696   3.594
 1138SOL     OW 3979   0.685   2.874   2.527
 1138SOL    HW1 3980   0.754   2.858   2.597
 1138SOL    HW2 3981   0.612   2.931   2.565
 1139SOL     OW 3982   0.686   3.023   3.665
 1139SOL    HW1 3983   0.746   3.102   3.679
 1139SOL    HW2 3984   0.600   3.054   3.624
 1140SOL     OW 3985   0.335   3.297   2.923
 1140SOL    HW1 3986   0.257   3.266   2.870
 1140SOL    HW2 3987   0.393   3.355   2.866
 1141SOL     OW 3988   1.460   3.367   3.201
 1141SOL    HW1 3989   1.484   3.461   3.227
 1141SOL    HW2 3990   1.444   3.313   3.283
 1142SOL     OW 3991   0.438   2.254   3.361
 1142SOL    HW1 3992   0.520   2.198   3.370
 1142SOL    HW2 3993   0.357   2.196   3.365
 1143SOL     OW 3994   1.603   2.309   2.599
 1143SOL    HW1 3995   1.529   2.355   2.549
 1143SOL    HW2 3996   1.654   2.377   2.652
 1144SOL     OW 3997   0.231   3.575   2.345
 1144SOL    HW1 3998   0.265   3.652   2.399
 1144SOL    HW2 3999   0.275   3.575   2.255
 1145SOL     OW 4000   1.127   3.203   3.552
 1145SOL    HW1 4001   1.174   3.203   3.640
 1145SOL    HW2 4002   1.079   3.116   3.541
 1146SOL     OW 4003   0.230   3.296   2.400
 1146SOL    HW1 4004   0.204   3.392   2.400
 1146SOL    HW2 4005   0.159   3.242   2.445
 1147SOL     OW 4006   0.240   2.953   2.748
 1147SOL    HW1 4007   0.254   2.869   2.800
 1147SOL    HW2 4008   0.185   3.017   2.803
 1148SOL     OW 4009   0.620   3.648   3.301
 1148SOL    HW1 4010   0.528   3.631   3.336
 1148SOL    HW2 4011   0.648   3.740   3.327
 1149SOL     OW 4012   0.606   2.826   1.985
 1149SOL    HW1 4013   0.613   2.910   1.931
 1149SOL    HW2 4014   0.652   2.839   2.073
 1150SOL     OW 4015   1.594   1.976   3.342
 1150SOL    HW1 4016   1.576   2.043   3.270
 1150SOL    HW2 4017   1.591   2.022   3.431
 1151SOL     OW 4018   0.122   2.505   2.425
 1151SOL    HW1 4019   0.077   2.417   2.442
 1151SOL    HW2 4020   0.121   2.559   2.509
 1152SOL     OW 4021   1.842   3.629   2.221
 1152SOL    HW1 4022   1.896   3.600   2.301
 1152SOL    HW2 4023   1.872   3.719   2.192
 1153SOL     OW 4024   0.027   3.458   1.979
 1153SOL    HW1 4025   0.008   3.362   2.000
 1153SOL    HW2 4026  -0.006   3.516   2.054
 1154SOL     OW 4027   1.689   2.784   2.474
 1154SOL    HW1 4028   1.784   2.755   2.482
 1154SOL    HW2 4029   1.681   2.849   2.399
 1155SOL     OW 4030   1.641   2.970   2.294
 1155SOL    HW1 4031   1.727   2.972   2.242
 1155SOL    HW2 4032   1.655   3.017   2.382
 1156SOL     OW 4033   0.113   2.599   3.459
 1156SOL    HW1 4034   0.201   2.586   3.504
 1156SOL    HW2 4035   0.100   2.696   3.437
 1157SOL     OW 4036   0.613   3.227   2.588
 1157SOL    HW1 4037   0.564   3.140   2.597
 1157SOL    HW2 4038   0.590   3.270   2.501
 1158SOL     OW 4039   1.293   3.090   3.285
 1158SOL    HW1 4040   1.330   3.017   3.227
 1158SOL    HW2 4041   1.345   3.095   3.370
 1159SOL     OW 4042   0.809   1.866   2.364
 1159SOL    HW1 4043   0.849   1.957   2.355
 1159SOL    HW2 4044   0.709   1.874   2.370
 1160SOL     OW 4045   0.197   2.838   3.126
 1160SOL    HW1 4046   0.286   2.793   3.112
 1160SOL    HW2 4047   0.124   2.773   3.107
 1161SOL     OW 4048   1.525   2.861   2.052
 1161SOL    HW1 4049   1.462   2.785   2.065
 1161SOL    HW2 4050   1.573   2.879   2.138
 1162SOL     OW 4051   1.187   3.654   3.478
 1162SOL    HW1 4052   1.211   3.714   3.402
 1162SOL    HW2 4053   1.194   3.559   3.448
 1163SOL     OW 4054   0.317   2.113   3.663
 1163SOL    HW1 4055   0.388   2.184   3.669
 1163SOL    HW2 4056   0.229   2.152   3.691
 1164SOL     OW 4057   1.466   3.279   2.815
 1164SOL    HW1 4058   1.407   3.285   2.895
 1164SOL    HW2 4059   1.451   3.191   2.769
 1165SOL     OW 4060   1.667   3.576   2.434
 1165SOL    HW1 4061   1.626   3.553   2.346
 1165SOL    HW2 4062   1.649   3.502   2.499
 1166SOL     OW 4063   0.598   2.591   2.132
 1166SOL    HW1 4064   0.622   2.660   2.064
 1166SOL    HW2 4065   0.520   2.624   2.186
 1167SOL     OW 4066   1.281   2.207   2.806
 1167SOL    HW1 4067   1.195   2.157   2.793
 1167SOL    HW2 4068   1.343   2.153   2.862
 1168SOL     OW 4069   1.576   3.524   2.169
 1168SOL    HW1 4070   1.665   3.570   2.172
 1168SOL    HW2 4071   1.555   3.500   2.074
 1169SOL     OW 4072   0.807   2.467   3.327
 1169SOL    HW1 4073   0.760   2.464   3.416
 1169SOL    HW2 4074   0.756   2.412   3.261
 1170SOL     OW 4075   1.394   2.331   3.536
 1170SOL    HW1 4076   1.374   2.374   3.624
 1170SOL    HW2 4077   1.472   2.269   3.545
 1171SOL     OW 4078   0.973   2.752   3.434
 1171SOL    HW1 4079   1.019   2.668   3.405
 1171SOL    HW2 4080   0.917   2.786   3.359
 1172SOL     OW 4081   0.991   2.272   3.104
 1172SOL    HW1 4082   0.914   2.306   3.158
 1172SOL    HW2 4083   0.957   2.221   3.025
 1173SOL     OW 4084   1.041   2.563   2.291
 1173SOL    HW1 4085   1.067   2.559   2.387
 1173SOL    HW2 4086   0.956   2.512   2.277
 1174SOL     OW 4087   0.076   2.673   2.651
 1174SOL    HW1 4088   0.175   2.661   2.660
 1174SOL    HW2 4089   0.052   2.768   2.672
 1175SOL     OW 4090   0.130   3.683   3.433
 1175SOL    HW1 4091   0.120   3.668   3.532
 1175SOL    HW2 4092   0.044   3.719   3.397
 1176SOL     OW 4093   0.865   2.210   2.057
 1176SOL    HW1 4094   0.924   2.273   2.008
 1176SOL    HW2 4095   0.884   2.116   2.028
 1177SOL     OW 4096   1.719   2.447   3.693
 1177SOL    HW1 4097   1.693   2.536   3.657
 1177SOL    HW2 4098   1.717   2.379   3.620
 1178SOL     OW 4099   1.362   3.006   2.407
 1178SOL    HW1 4100   1.445   2.977   2.359
 1178SOL    HW2 4101   1.313   3.073   2.351
 1179SOL     OW 4102   0.550   2.058   2.747
 1179SOL    HW1 4103   0.545   2.053   2.847
 1179SOL    HW2 4104   0.552   2.154   2.718
 1180SOL     OW 4105   1.008   3.318   2.339
 1180SOL    HW1 4106   0.962   3.390   2.287
 1180SOL    HW2 4107   1.004   3.338   2.437
 1181SOL     OW 4108   0.351   3.663   2.715
 1181SOL    HW1 4109   0.401   3.577   2.721
 1181SOL    HW2 4110   0.416   3.740   2.712
 1182SOL     OW 4111   1.795   2.928   2.735
 1182SOL    HW1 4112   1.733   2.913   2.659
 1182SOL    HW2 4113   1.743   2.939   2.820
 1183SOL     OW 4114   1.227   3.412   3.368
 1183SOL    HW1 4115   1.233   3.335   3.432
 1183SOL    HW2 4116   1.175   3.386   3.288
 1184SOL     OW 4117   0.321   2.805   2.104
 1184SOL    HW1 4118   0.403   2.844   2.062
 1184SOL    HW2 4119   0.294   2.723   2.055
 1185SOL     OW 4120   1.458   2.597   2.590
 1185SOL    HW1 4121   1.453   2.532   2.665
 1185SOL    HW2 4122   1.538   2.656   2.603
 1186SOL     OW 4123   0.461   3.128   3.589
 1186SOL    HW1 4124   0.411   3.129   3.503
 1186SOL    HW2 4125   0.398   3.110   3.665
 1187SOL     OW 4126   1.111   3.638   2.099
 1187SOL    HW1 4127   1.051   3.576   2.149
 1187SOL    HW2 4128   1.142   3.594   2.014
 1188SOL     OW 4129   0.202   2.147   3.360
 1188SOL    HW1 4130   0.122   2.207   3.347
 1188SOL    HW2 4131   0.192   2.098   3.446
 1189SOL     OW 4132   1.632   3.239   1.943
 1189SOL    HW1 4133   1.600   3.333   1.933
 1189SOL    HW2 4134   1.556   3.176   1.931
 1190SOL     OW 4135   0.464   3.605   2.185
 1190SOL    HW1 4136   0.497   3.644   2.271
 1190SOL    HW2 4137   0.540   3.598   2.120
 1191SOL     OW 4138   1.400   1.969   2.288
 1191SOL    HW1 4139   1.376   1.932   2.198
 1191SOL    HW2 4140   1.499   1.985   2.292
 1192SOL     OW 4141   0.249   3.647   3.103
 1192SOL    HW1 4142   0.306   3.582   3.153
 1192SOL    HW2 4143   0.233   3.614   3.010
 1193SOL     OW 4144   0.940   3.560   2.766
 1193SOL    HW1 4145   1.020   3.503   2.787
 1193SOL    HW2 4146   0.891   3.520   2.689
 1194SOL     OW 4147   0.382   2.562   2.342
 1194SOL    HW1 4148   0.427   2.472   2.339
 1194SOL    HW2 4149   0.288   2.551   2.375
 1195SOL     OW 4150   1.547   2.084   3.591
 1195SOL    HW1 4151   1.542   2.121   3.683
 1195SOL    HW2 4152   1.475   2.015   3.579
 1196SOL     OW 4153   0.614   1.984   1.979
 1196SOL    HW1 4154   0.712   1.962   1.986
 1196SOL    HW2 4155   0.583   1.967   1.886
 1197SOL     OW 4156   0.781   2.126   3.611
 1197SOL    HW1 4157   0.848   2.065   3.654
 1197SOL    HW2 4158   0.708   2.145   3.676
 1198SOL     OW 4159   0.888   3.376   3.057
 1198SOL    HW1 4160   0.865   3.351   2.963
 1198SOL    HW2 4161   0.949   3.307   3.096
 1199SOL     OW 4162   1.351   2.452   3.295
 1199SOL    HW1 4163   1.379   2.409   3.380
 1199SOL    HW2 4164   1.376   2.548   3.296
 1200SOL     OW 4165   0.803   3.264   2.786
 1200SOL    HW1 4166   0.893   3.278   2.744
 1200SOL    HW2 4167   0.732   3.266   2.715
 1201SOL     OW 4168   0.922   2.365   2.761
 1201SOL    HW1 4169   0.897   2.356   2.665
 1201SOL    HW2 4170   0.970   2.283   2.792
 1202SOL     OW 4171   0.539   1.926   2.374
 1202SOL    HW1 4172   0.458   1.927   2.432
 1202SOL    HW2 4173   0.542   2.009   2.319
 1203SOL     OW 4174   1.434   3.050   1.903
 1203SOL    HW1 4175   1.466   2.974   1.960
 1203SOL    HW2 4176   1.342   3.077   1.933
 1204SOL     OW 4177   0.297   1.897   2.033
 1204SOL    HW1 4178   0.346   1.981   2.012
 1204SOL    HW2 4179   0.359   1.832   2.078
 1205SOL     OW 4180   0.935   2.098   2.342
 1205SOL    HW1 4181   0.887   2.139   2.264
 1205SOL    HW2 4182   1.034   2.096   2.323
 1206SOL     OW 4183   1.076   2.545   3.326
 1206SOL    HW1 4184   0.996   2.484   3.329
 1206SOL    HW2 4185   1.157   2.492   3.302
 1207SOL     OW 4186   1.227   3.432   2.655
 1207SOL    HW1 4187   1.248   3.506   2.590
 1207SOL    HW2 4188   1.295   3.432   2.728
 1208SOL     OW 4189   0.459   3.014   2.603
 1208SOL    HW1 4190   0.388   2.987   2.668
 1208SOL    HW2 4191   0.433   2.986   2.510
 1209SOL     OW 4192   1.271   3.659   2.453
 1209SOL    HW1 4193   1.315   3.723   2.389
 1209SOL    HW2 4194   1.221   3.711   2.523
 1210SOL     OW 4195   1.032   2.411   1.878
 1210SOL    HW1 4196   0.991   2.493   1.839
 1210SOL    HW2 4197   1.096   2.437   1.951
 1211SOL     OW 4198   0.078   2.418   3.248
 1211SOL    HW1 4199   0.170   2.417   3.207
 1211SOL    HW2 4200   0.072   2.492   3.315
 1212SOL     OW 4201   0.561   2.084   3.009
 1212SOL    HW1 4202   0.599   2.000   3.046
 1212SOL    HW2 4203   0.473   2.103   3.053
 1213SOL     OW 4204   0.866   2.316   2.504
 1213SOL    HW1 4205   0.834   2.388   2.442
 1213SOL    HW2 4206   0.890   2.235   2.451
 1214SOL     OW 4207   1.017   1.901   2.615
 1214SOL    HW1 4208   0.945   1.906   2.546
 1214SOL    HW2 4209   0.993   1.832   2.684
 1215SOL     OW 4210   1.429   3.035   2.729
 1215SOL    HW1 4211   1.374   2.951   2.722
 1215SOL    HW2 4212   1.455   3.064   2.637
 1216SOL     OW 4213   1.466   2.452   2.854
 1216SOL    HW1 4214   1.436   2.357   2.861
 1216SOL    HW2 4215   1.539   2.468   2.920
 1217SOL     OW 4216   1.857   2.695   2.239
 1217SOL    HW1 4217   1.899   2.631   2.303
 1217SOL    HW2 4218   1.819   2.644   2.161
 1218SOL     OW 4219   0.488   3.247   2.036
 1218SOL    HW1 4220   0.401   3.232   2.083
 1218SOL    HW2 4221   0.471   3.273   1.941
 1219SOL     OW 4222   1.664   3.142   2.519
 1219SOL    HW1 4223   1.763   3.150   2.533
 1219SOL    HW2 4224   1.619   3.226   2.550
 1220SOL     OW 4225   1.390   2.437   1.940
 1220SOL    HW1 4226   1.336   2.416   2.021
 1220SOL    HW2 4227   1.481   2.396   1.949
 1221SOL     OW 4228   0.527   2.118   2.190
 1221SOL    HW1 4229   0.554   2.059   2.115
 1221SOL    HW2 4230   0.527   2.213   2.159
 1222SOL     OW 4231   1.754   3.085   3.450
 1222SOL    HW1 4232   1.845   3.046   3.437
 1222SOL    HW2 4233   1.762   3.181   3.474
 1223SOL     OW 4234   1.064   3.209   3.202
 1223SOL    HW1 4235   0.984   3.186   3.257
 1223SOL    HW2 4236   1.147   3.183   3.251
 1224SOL     OW 4237   1.592   3.491   3.487
 1224SOL    HW1 4238   1.619   3.525   3.397
 1224SOL    HW2 4239   1.671   3.453   3.533
 1225SOL     OW 4240   1.111   3.057   2.962
 1225SOL    HW1 4241   1.071   3.101   3.043
 1225SOL    HW2 4242   1.070   3.094   2.879
 1226SOL     OW 4243   1.638   2.961   2.941
 1226SOL    HW1 4244   1.643   3.042   3.000
 1226SOL    HW2 4245   1.552   2.963   2.890
 1227SOL     OW 4246   0.915   1.951   3.264
 1227SOL    HW1 4247   0.940   1.931   3.169
 1227SOL    HW2 4248   0.987   2.007   3.306
 1228SOL     OW 4249   0.980   2.978   3.581
 1228SOL    HW1 4250   0.881   2.984   3.591
 1228SOL    HW2 4251   1.003   2.898   3.525
 1229SOL     OW 4252   0.705   2.912   2.230
 1229SOL    HW1 4253   0.691   2.919   2.329
 1229SOL    HW2 4254   0.789   2.861   2.212
 1230SOL     OW 4255   0.410   2.675   3.113
 1230SOL    HW1 4256   0.496   2.687   3.163
 1230SOL    HW2 4257   0.368   2.588   3.140
 1231SOL     OW 4258   1.274   2.248   3.124
 1231SOL    HW1 4259   1.295   2.322   3.188
 1231SOL    HW2 4260   1.185   2.265   3.081
 1232SOL     OW 4261   0.064   3.426   3.193
 1232SOL    HW1 4262   0.018   3.508   3.159
 1232SOL    HW2 4263   0.162   3.445   3.202
 1233SOL     OW 4264   0.367   2.962   2.363
 1233SOL    HW1 4265   0.360   3.045   2.307
 1233SOL    HW2 4266   0.371   2.882   2.303
 1234SOL     OW 4267   0.566   2.399   2.727
 1234SOL    HW1 4268   0.578   2.465   2.653
 1234SOL    HW2 4269   0.612   2.433   2.810
 1235SOL     OW 4270   1.252   3.210   2.250
 1235SOL    HW1 4271   1.302   3.287   2.290
 1235SOL    HW2 4272   1.157   3.212   2.282
 1236SOL     OW 4273   1.272   3.307   3.004
 1236SOL    HW1 4274   1.319   3.320   3.091
 1236SOL    HW2 4275   1.206   3.233   3.013
 1237SOL     OW 4276   1.582   2.501   2.334
 1237SOL    HW1 4277   1.551   2.562   2.407
 1237SOL    HW2 4278   1.632   2.553   2.265
 1238SOL     OW 4279   0.354   3.372   3.191
 1238SOL    HW1 4280   0.333   3.328   3.104
 1238SOL    HW2 4281   0.451   3.398   3.194
 1239SOL     OW 4282   0.402   2.613   3.460
 1239SOL    HW1 4283   0.470   2.668   3.413
 1239SOL    HW2 4284   0.442   2.525   3.487
 1240SOL     OW 4285   1.587   2.641   3.532
 1240SOL    HW1 4286   1.495   2.679   3.527
 1240SOL    HW2 4287   1.647   2.688   3.467
 1241SOL     OW 4288   1.013   1.967   3.632
 1241SOL    HW1 4289   1.019   2.052   3.580
 1241SOL    HW2 4290   1.045   1.891   3.575
 1242SOL     OW 4291   0.504   1.912   3.602
 1242SOL    HW1 4292   0.462   1.855   3.532
 1242SOL    HW2 4293   0.438   1.981   3.634
 1243SOL     OW 4294   0.573   2.732   2.891
 1243SOL    HW1 4295   0.617   2.821   2.882
 1243SOL    HW2 4296   0.510   2.732   2.968
 1244SOL     OW 4297   1.360   2.724   2.907
 1244SOL    HW1 4298   1.285   2.724   2.841
 1244SOL    HW2 4299   1.397   2.632   2.916
 1245SOL     OW 4300   1.209   2.387   2.137
 1245SOL    HW1 4301   1.222   2.303   2.191
 1245SOL    HW2 4302   1.180   2.461   2.197
 1246SOL     OW 4303   0.307   2.075   3.093
 1246SOL    HW1 4304   0.284   2.112   3.183
 1246SOL    HW2 4305   0.277   1.980   3.087
 1247SOL     OW 4306   0.037   3.172   3.144
 1247SOL    HW1 4307   0.090   3.123   3.212
 1247SOL    HW2 4308   0.059   3.270   3.149
 1248SOL     OW 4309   0.732   2.496   2.926
 1248SOL    HW1 4310   0.791   2.470   2.850
 1248SOL    HW2 4311   0.704   2.592   2.915
 1249SOL     OW 4312   1.728   2.797   3.716
 1249SOL    HW1 4313   1.682   2.790   3.627
 1249SOL    HW2 4314   1.666   2.841   3.782
 1250SOL     OW 4315   0.307   1.925   2.480
 1250SOL    HW1 4316   0.296   2.019   2.513
 1250SOL    HW2 4317   0.302   1.862   2.557
 1251SOL     OW 4318   1.622   2.229   2.236
 1251SOL    HW1 4319   1.624   2.153   2.300
 1251SOL    HW2 4320   1.574   2.306   2.276
 1252SOL     OW 4321   1.023   2.628   2.828
 1252SOL    HW1 4322   1.038   2.649   2.924
 1252SOL    HW2 4323   0.993   2.533   2.819
 1253SOL     OW 4324   0.980   3.435   3.562
 1253SOL    HW1 4325   0.960   3.479   3.474
 1253SOL    HW2 4326   1.019   3.344   3.546
 1254SOL     OW 4327   1.859   3.380   3.467
 1254SOL    HW1 4328   1.873   3.407   3.372
 1254SOL    HW2 4329   1.942   3.402   3.520
 1255SOL     OW 4330   0.350   2.760   3.666
 1255SOL    HW1 4331   0.426   2.804   3.714
 1255SOL    HW2 4332   0.385   2.713   3.584
 1256SOL     OW 4333   1.540   2.136   1.987
 1256SOL    HW1 4334   1.479   2.061   2.010
 1256SOL    HW2 4335   1.562   2.188   2.070
 1257SOL     OW 4336   1.303   2.700   1.904
 1257SOL    HW1 4337   1.337   2.607   1.919
 1257SOL    HW2 4338   1.321   2.727   1.809
 1258SOL     OW 4339   1.068   3.195   2.711
 1258SOL    HW1 4340   1.075   3.111   2.656
 1258SOL    HW2 4341   1.130   3.264   2.675
 1259SOL     OW 4342   0.319   2.672   2.811
 1259SOL    HW1 4343   0.412   2.708   2.816
 1259SOL    HW2 4344   0.313   2.587   2.863
 1260SOL     OW 4345   0.339   2.371   2.868
 1260SOL    HW1 4346   0.287   2.288   2.851
 1260SOL    HW2 4347   0.416   2.376   2.804
 1261SOL     OW 4348   1.138   2.242   3.540
 1261SOL    HW1 4349   1.093   2.305   3.604
 1261SOL    HW2 4350   1.231   2.273   3.523
 1262SOL     OW 4351   1.160   2.069   3.339
 1262SOL    HW1 4352   1.160   2.133   3.416
 1262SOL    HW2 4353   1.188   2.117   3.256
 1263SOL     OW 4354   0.008   3.188   2.062
 1263SOL    HW1 4355  -0.085   3.209   2.031
 1263SOL    HW2 4356   0.018   3.089   2.075
 1264SOL     OW 4357   0.088   3.663   2.789
 1264SOL    HW1 4358   0.046   3.577   2.762
 1264SOL    HW2 4359   0.182   3.666   2.755
 1265SOL     OW 4360   0.504   3.430   2.772
 1265SOL    HW1 4361   0.570   3.504   2.781
 1265SOL    HW2 4362   0.548   3.351   2.730
 1266SOL     OW 4363   1.002   2.658   3.100
 1266SOL    HW1 4364   1.043   2.626   3.186
 1266SOL    HW2 4365   0.906   2.631   3.097
 1267SOL     OW 4366   0.040   2.406   2.976
 1267SOL    HW1 4367   0.125   2.373   2.935
 1267SOL    HW2 4368   0.053   2.421   3.074
 1268SOL     OW 4369   0.189   2.382   3.584
 1268SOL    HW1 4370   0.248   2.342   3.514
 1268SOL    HW2 4371   0.131   2.453   3.543
 1269SOL     OW 4372   1.369   2.812   3.522
 1269SOL    HW1 4373   1.408   2.901   3.542
 1269SOL    HW2 4374   1.379   2.792   3.425
 1270SOL     OW 4375   0.815   2.434   2.187
 1270SOL    HW1 4376   0.822   2.345   2.141
 1270SOL    HW2 4377   0.721   2.468   2.179
 1271SOL     OW 4378   1.657   2.466   3.068
 1271SOL    HW1 4379   1.619   2.397   3.130
 1271SOL    HW2 4380   1.739   2.430   3.024
 1272SOL     OW 4381   0.252   3.426   3.606
 1272SOL    HW1 4382   0.222   3.483   3.682
 1272SOL    HW2 4383   0.245   3.329   3.632
 1273SOL     OW 4384   0.671   2.326   3.131
 1273SOL    HW1 4385   0.637   2.237   3.101
 1273SOL    HW2 4386   0.697   2.380   3.051
 1274SOL     OW 4387   0.930   3.540   3.327
 1274SOL    HW1 4388   0.906   3.522   3.232
 1274SOL    HW2 4389   0.960   3.634   3.337
 1275SOL     OW 4390   0.473   2.362   2.053
 1275SOL    HW1 4391   0.534   2.442   2.057
 1275SOL    HW2 4392   0.378   2.393   2.060
 1276SOL     OW 4393   0.159   2.999   3.328
 1276SOL    HW1 4394   0.181   2.938   3.404
 1276SOL    HW2 4395   0.169   2.950   3.242
 1277SOL     OW 4396   1.347   2.921   3.096
 1277SOL    HW1 4397   1.371   2.858   3.022
 1277SOL    HW2 4398   1.257   2.961   3.078
 1278SOL     OW 4399   1.302   2.717   2.171
 1278SOL    HW1 4400   1.216   2.686   2.213
 1278SOL    HW2 4401   1.298   2.703   2.072
 1279SOL     OW 4402   1.759   3.609   3.016
 1279SOL    HW1 4403   1.820   3.639   2.943
 1279SOL    HW2 4404   1.721   3.520   2.994
 1280SOL     OW 4405   1.252   3.593   2.990
 1280SOL    HW1 4406   1.336   3.598   2.936
 1280SOL    HW2 4407   1.229   3.497   3.008
 1281SOL     OW 4408   0.083   3.120   2.884
 1281SOL    HW1 4409   0.078   3.119   2.984
 1281SOL    HW2 4410   0.000   3.079   2.846
 1282SOL     OW 4411   0.688   3.524   3.578
 1282SOL    HW1 4412   0.632   3.605   3.587
 1282SOL    HW2 4413   0.740   3.528   3.492
 1283SOL     OW 4414   1.726   1.997   2.385
 1283SOL    HW1 4415   1.799   1.980   2.318
 1283SOL    HW2 4416   1.695   1.910   2.423
 1284SOL     OW 4417   1.388   3.435   2.339
 1284SOL    HW1 4418   1.455   3.447   2.265
 1284SOL    HW2 4419   1.348   3.524   2.362
 1285SOL     OW 4420   0.130   3.656   3.713
 1285SOL    HW1 4421   0.089   3.582   3.766
 1285SOL    HW2 4422   0.194   3.707   3.771
 1286SOL     OW 4423   1.280   2.789   2.534
 1286SOL    HW1 4424   1.340   2.708   2.536
 1286SOL    HW2 4425   1.320   2.858   2.474
 1287SOL     OW 4426   0.830   3.135   3.284
 1287SOL    HW1 4427   0.825   3.168   3.379
 1287SOL    HW2 4428   0.744   3.154   3.238
 1288SOL     OW 4429   0.672   3.478   2.016
 1288SOL    HW1 4430   0.681   3.488   1.917
 1288SOL    HW2 4431   0.632   3.389   2.037
 1289SOL     OW 4432   1.650   3.582   3.256
 1289SOL    HW1 4433   1.703   3.592   3.172
 1289SOL    HW2 4434   1.623   3.672   3.290
 1290SOL     OW 4435   1.841   2.037   2.825
 1290SOL    HW1 4436   1.880   1.952   2.789
 1290SOL    HW2 4437   1.743   2.039   2.806
 1291SOL     OW 4438   0.263   2.188   2.582
 1291SOL    HW1 4439   0.184   2.239   2.548
 1291SOL    HW2 4440   0.254   2.173   2.680
 1292SOL     OW 4441   1.194   3.474   1.893
 1292SOL    HW1 4442   1.200   3.381   1.930
 1292SOL    HW2 4443   1.135   3.474   1.813
 1293SOL     OW 4444   0.822   2.864   3.234
 1293SOL    HW1 4445   0.862   2.863   3.142
 1293SOL    HW2 4446   0.832   2.956   3.274
 1294SOL     OW 4447   0.916   2.772   2.153
 1294SOL    HW1 4448   0.979   2.810   2.085
 1294SOL    HW2 4449   0.956   2.689   2.192
 1295SOL     OW 4450   1.504   3.469   1.906
 1295SOL    HW1 4451   1.412   3.506   1.913
 1295SOL    HW2 4452   1.542   3.489   1.816
 1296SOL     OW 4453   0.372   3.150   3.352
 1296SOL    HW1 4454   0.359   3.243   3.318
 1296SOL    HW2 4455   0.288   3.098   3.339
 1297SOL     OW 4456   1.614   3.154   3.151
 1297SOL    HW1 4457   1.674   3.157   3.231
 1297SOL    HW2 4458   1.539   3.218   3.164
 1298SOL     OW 4459   1.039   2.960   2.558
 1298SOL    HW1 4460   0.969   2.913   2.612
 1298SOL    HW2 4461   1.098   2.892   2.515
 1299SOL     OW 4462   1.014   2.098   2.833
 1299SOL    HW1 4463   1.006   2.062   2.740
 1299SOL    HW2 4464   1.012   2.022   2.898
 1300SOL     OW 4465   0.590   3.349   2.353
 1300SOL    HW1 4466   0.632   3.291   2.283
 1300SOL    HW2 4467   0.546   3.428   2.309
 1301SOL     OW 4468   1.709   2.247   3.243
 1301SOL    HW1 4469   1.782   2.316   3.247
 1301SOL    HW2 4470   1.737   2.172   3.184
 1302SOL     OW 4471   0.255   3.210   2.152
 1302SOL    HW1 4472   0.159   3.211   2.125
 1302SOL    HW2 4473   0.267   3.263   2.236
 1303SOL     OW 4474   0.105   2.875   3.588
 1303SOL    HW1 4475   0.028   2.842   3.642
 1303SOL    HW2 4476   0.190   2.845   3.630
 1304SOL     OW 4477   0.672   2.065   3.351
 1304SOL    HW1 4478   0.762   2.049   3.311
 1304SOL    HW2 4479   0.680   2.070   3.450
 1305SOL     OW 4480   0.075   2.207   1.895
 1305SOL    HW1 4481  -0.017   2.179   1.866
 1305SOL    HW2 4482   0.106   2.284   1.839
 1306SOL     OW 4483   1.440   2.718   3.260
 1306SOL    HW1 4484   1.383   2.770   3.197
 1306SOL    HW2 4485   1.536   2.730   3.236
 1307SOL     OW 4486   0.072   2.028   2.180
 1307SOL    HW1 4487   0.055   2.111   2.126
 1307SOL    HW2 4488   0.162   1.991   2.158
 1308SOL     OW 4489   1.183   3.197   1.981
 1308SOL    HW1 4490   1.084   3.186   1.983
 1308SOL    HW2 4491   1.217   3.212   2.074
 1309SOL     OW 4492   0.613   2.704   3.293
 1309SOL    HW1 4493   0.669   2.785   3.276
 1309SOL    HW2 4494   0.672   2.624   3.296
 1310SOL     OW 4495   1.493   3.629   2.821
 1310SOL    HW1 4496   1.526   3.693   2.752
 1310SOL    HW2 4497   1.559   3.623   2.896
 1311SOL     OW 4498   0.716   2.427   3.570
 1311SOL    HW1 4499   0.735   2.492   3.644
 1311SOL    HW2 4500   0.776   2.347   3.579
 1312SOL     OW 4501   1.450   3.082   3.495
 1312SOL    HW1 4502   1.441   3.072   3.594
 1312SOL    HW2 4503   1.546   3.075   3.469
 1313SOL     OW 4504   0.390   3.603   3.422
 1313SOL    HW1 4505   0.299   3.644   3.420
 1313SOL    HW2 4506   0.383   3.509   3.454
 1314SOL     OW 4507   1.674   2.745   3.116
 1314SOL    HW1 4508   1.647   2.656   3.079
 1314SOL    HW2 4509   1.675   2.813   3.043
 1315SOL     OW 4510   1.225   2.187   2.311
 1315SOL    HW1 4511   1.290   2.113   2.300
 1315SOL    HW2 4512   1.245   2.237   2.395
 1316SOL     OW 4513   0.594   2.607   2.514
 1316SOL    HW1 4514   0.644   2.692   2.495
 1316SOL    HW2 4515   0.506   2.609   2.466
 1317SOL     OW 4516   1.777   2.204   3.504
 1317SOL    HW1 4517   1.760   2.235   3.410
 1317SOL    HW2 4518   1.693   2.167   3.542
 1318SOL     OW 4519   0.859   3.236   1.878
 1318SOL    HW1 4520   0.813   3.251   1.966
 1318SOL    HW2 4521   0.903   3.321   1.848
 1319SOL     OW 4522   0.661   3.652   2.815
 1319SOL    HW1 4523   0.615   3.740   2.802
 1319SOL    HW2 4524   0.760   3.664   2.808
 1320SOL     OW 4525   0.859   2.818   2.723
 1320SOL    HW1 4526   0.913   2.749   2.771
 1320SOL    HW2 4527   0.827   2.887   2.789
 1321SOL     OW 4528   1.083   2.846   1.949
 1321SOL    HW1 4529   1.060   2.899   1.867
 1321SOL    HW2 4530   1.164   2.790   1.930
 1322SOL     OW 4531   1.861   3.431   2.713
 1322SOL    HW1 4532   1.790   3.419   2.643
 1322SOL    HW2 4533   1.862   3.352   2.773
 1323SOL     OW 4534   0.221   3.176   3.706
 1323SOL    HW1 4535   0.156   3.103   3.685
 1323SOL    HW2 4536   0.225   3.190   3.804
 1324SOL     OW 4537   0.079   3.102   2.515
 1324SOL    HW1 4538   0.078   3.055   2.603
 1324SOL    HW2 4539   0.161   3.074   2.464
 1325SOL     OW 4540   0.672   3.253   3.486
 1325SOL    HW1 4541   0.594   3.203   3.524
 1325SOL    HW2 4542   0.669   3.348   3.517
 1326SOL     OW 4543   1.824   2.054   3.089
 1326SOL    HW1 4544   1.820   1.964   3.133
 1326SOL    HW2 4545   1.827   2.043   2.990
 1327SOL     OW 4546   0.428   2.286   2.382
 1327SOL    HW1 4547   0.458   2.214   2.320
 1327SOL    HW2 4548   0.389   2.246   2.465
 1328SOL     OW 4549   1.705   3.349   2.966
 1328SOL    HW1 4550   1.612   3.324   2.939
 1328SOL    HW2 4551   1.731   3.299   3.048
 1329SOL     OW 4552   0.317   2.409   3.142
 1329SOL    HW1 4553   0.355   2.350   3.214
 1329SOL    HW2 4554   0.357   2.383   3.054
 1330SOL     OW 4555   0.812   3.448   2.549
 1330SOL    HW1 4556   0.844   3.458   2.455
 1330SOL    HW2 4557   0.733   3.386   2.551
 1331SOL     OW 4558   1.424   2.076   2.974
 1331SOL    HW1 4559   1.476   2.011   3.029
 1331SOL    HW2 4560   1.375   2.139   3.035
 1332SOL     OW 4561   1.001   1.896   3.016
 1332SOL    HW1 4562   0.938   1.824   2.985
 1332SOL    HW2 4563   1.094   1.860   3.016
 1333SOL     OW 4564   0.770   3.192   2.163
 1333SOL    HW1 4565   0.724   3.105   2.180
 1333SOL    HW2 4566   0.861   3.189   2.204
 1334SOL     OW 4567   0.618   3.429   3.146
 1334SOL    HW1 4568   0.613   3.511   3.203
 1334SOL    HW2 4569   0.707   3.426   3.101
 1335SOL     OW 4570   1.352   1.914   2.030
 1335SOL    HW1 4571   1.387   1.873   1.946
 1335SOL    HW2 4572   1.262   1.876   2.050
 1336SOL     OW 4573   1.300   2.315   2.553
 1336SOL    HW1 4574   1.241   2.395   2.557
 1336SOL    HW2 4575   1.315   2.280   2.646
 1337SOL     OW 4576   1.593   2.083   2.744
 1337SOL    HW1 4577   1.509   2.082   2.798
 1337SOL    HW2 4578   1.595   2.166   2.688
 1338SOL     OW 4579   0.039   2.939   2.162
 1338SOL    HW1 4580   0.138   2.928   2.153
 1338SOL    HW2 4581  -0.001   2.853   2.194
 1339SOL     OW 4582   0.875   3.508   2.199
 1339SOL    HW1 4583   0.798   3.473   2.145
 1339SOL    HW2 4584   0.843   3.579   2.261
 1340SOL     OW 4585   0.230   2.490   3.837
 1340SOL    HW1 4586   0.137   2.488   3.874
 1340SOL    HW2 4587   0.231   2.451   3.745
 1341SOL     OW 4588   0.225   2.137   4.720
 1341SOL    HW1 4589   0.260   2.120   4.812
 1341SOL    HW2 4590   0.137   2.092   4.708
 1342SOL     OW 4591   0.019   2.230   4.371
 1342SOL    HW1 4592  -0.063   2.273   4.410
 1342SOL    HW2 4593  -0.009   2.157   4.308
 1343SOL     OW 4594   0.569   3.137   4.889
 1343SOL    HW1 4595   0.476   3.130   4.852
 1343SOL    HW2 4596   0.580   3.226   4.933
 1344SOL     OW 4597   1.555   3.373   4.427
 1344SOL    HW1 4598   1.498   3.357   4.508
 1344SOL    HW2 4599   1.496   3.383   4.347
 1345SOL     OW 4600   1.135   2.565   4.441
 1345SOL    HW1 4601   1.192   2.643   4.416
 1345SOL    HW2 4602   1.075   2.591   4.517
 1346SOL     OW 4603   1.755   2.469   3.955
 1346SOL    HW1 4604   1.743   2.456   3.856
 1346SOL    HW2 4605   1.725   2.388   4.004
 1347SOL     OW 4606   0.768   3.006   4.747
 1347SOL    HW1 4607   0.690   3.023   4.807
 1347SOL    HW2 4608   0.802   3.093   4.711
 1348SOL     OW 4609   0.850   2.660   5.547
 1348SOL    HW1 4610   0.846   2.736   5.612
 1348SOL    HW2 4611   0.872   2.696   5.456
 1349SOL     OW 4612   0.685   2.874   4.389
 1349SOL    HW1 4613   0.754   2.858   4.459
 1349SOL    HW2 4614   0.612   2.931   4.427
 1350SOL     OW 4615   0.686   3.023   5.527
 1350SOL    HW1 4616   0.746   3.102   5.541
 1350SOL    HW2 4617   0.600   3.054   5.486
 1351SOL     OW 4618   0.335   3.297   4.785
 1351SOL    HW1 4619   0.257   3.266   4.732
 1351SOL    HW2 4620   0.393   3.355   4.728
 1352SOL     OW 4621   1.460   3.367   5.063
 1352SOL    HW1 4622   1.484   3.461   5.089
 1352SOL    HW2 4623   1.444   3.313   5.145
 1353SOL     OW 4624   0.438   2.254   5.223
 1353SOL    HW1 4625   0.520   2.198   5.232
 1353SOL    HW2 4626   0.357   2.196   5.227
 1354SOL     OW 4627   1.603   2.309   4.461
 1354SOL    HW1 4628   1.529   2.355   4.411
 1354SOL    HW2 4629   1.654   2.377   4.514
 1355SOL     OW 4630   0.231   3.575   4.207
 1355SOL    HW1 4631   0.265   3.652   4.261
 1355SOL    HW2 4632   0.275   3.575   4.117
 1356SOL     OW 4633   1.127   3.203   5.414
 1356SOL    HW1 4634   1.174   3.203   5.502
 1356SOL    HW2 4635   1.079   3.116   5.403
 1357SOL     OW 4636   0.230   3.296   4.262
 1357SOL    HW1 4637   0.204   3.392   4.262
 1357SOL    HW2 4638   0.159   3.242   4.307
 1358SOL     OW 4639   0.240   2.953   4.610
 1358SOL    HW1 4640   0.254   2.869   4.662
 1358SOL    HW2 4641   0.185   3.017   4.665
 1359SOL     OW 4642   0.620   3.648   5.163
 1359SOL    HW1 4643   0.528   3.631   5.198
 1359SOL    HW2 4644   0.648   3.740   5.189
 1360SOL     OW 4645   0.606   2.826   3.847
 1360SOL    HW1 4646   0.613   2.910   3.793
 1360SOL    HW2 4647   0.652   2.839   3.935
 1361SOL     OW 4648   1.594   1.976   5.204
 1361SOL    HW1 4649   1.576   2.043   5.132
 1361SOL    HW2 4650   1.591   2.022   5.293
 1362SOL     OW 4651   0.122   2.505   4.287
 1362SOL    HW1 4652   0.077   2.417   4.304
 1362SOL    HW2 4653   0.121   2.559   4.371
 1363SOL     OW 4654   1.842   3.629   4.083
 1363SOL    HW1 4655   1.896   3.600   4.163
 1363SOL    HW2 4656   1.872   3.719   4.054
 1364SOL     OW 4657   0.027   3.458   3.841
 1364SOL    HW1 4658   0.008   3.362   3.862
 1364SOL    HW2 4659  -0.006   3.516   3.916
 1365SOL     OW 4660   1.641   2.970   4.156
 1365SOL    HW1 4661   1.727   2.972   4.104
 1365SOL    HW2 4662   1.655   3.017   4.244
 1366SOL     OW 4663   0.113   2.599   5.321
 1366SOL    HW1 4664   0.201   2.586   5.366
 1366SOL    HW2 4665   0.100   2.696   5.299
 1367SOL     OW 4666   0.613   3.227   4.450
 1367SOL    HW1 4667   0.564   3.140   4.459
 1367SOL    HW2 4668   0.590   3.270   4.363
 1368SOL     OW 4669   1.293   3.090   5.147
 1368SOL    HW1 4670   1.330   3.017   5.089
 1368SOL    HW2 4671   1.345   3.095   5.232
 1369SOL     OW 4672   0.809   1.866   4.226
 1369SOL    HW1 4673   0.849   1.957   4.217
 1369SOL    HW2 4674   0.709   1.874   4.232
 1370SOL     OW 4675   0.197   2.838   4.988
 1370SOL    HW1 4676   0.286   2.793   4.974
 1370SOL    HW2 4677   0.124   2.773   4.969
 1371SOL     OW 4678   1.525   2.861   3.914
 1371SOL    HW1 4679   1.462   2.785   3.927
 1371SOL    HW2 4680   1.573   2.879   4.000
 1372SOL     OW 4681   1.187   3.654   5.340
 1372SOL    HW1 4682   1.211   3.714   5.264
 1372SOL    HW2 4683   1.194   3.559   5.310
 1373SOL     OW 4684   0.317   2.113   5.525
 1373SOL    HW1 4685   0.388   2.184   5.531
 1373SOL    HW2 4686   0.229   2.152   5.553
 1374SOL     OW 4687   1.466   3.279   4.677
 1374SOL    HW1 4688   1.407   3.285   4.757
 1374SOL    HW2 4689   1.451   3.191   4.631
 1375SOL     OW 4690   1.667   3.576   4.296
 1375SOL    HW1 4691   1.626   3.553   4.208
 1375SOL    HW2 4692   1.649   3.502   4.361
 1376SOL     OW 4693   0.598   2.591   3.994
 1376SOL    HW1 4694   0.622   2.660   3.926
 1376SOL    HW2 4695   0.520   2.624   4.048
 1377SOL     OW 4696   1.281   2.207   4.668
 1377SOL    HW1 4697   1.195   2.157   4.655
 1377SOL    HW2 4698   1.343   2.153   4.724
 1378SOL     OW 4699   1.576   3.524   4.031
 1378SOL    HW1 4700   1.665   3.570   4.034
 1378SOL    HW2 4701   1.555   3.500   3.936
 1379SOL     OW 4702   0.807   2.467   5.189
 1379SOL    HW1 4703   0.760   2.464   5.278
 1379SOL    HW2 4704   0.756   2.412   5.123
 1380SOL     OW 4705   1.394   2.331   5.398
 1380SOL    HW1 4706   1.374   2.374   5.486
 1380SOL    HW2 4707   1.472   2.269   5.407
 1381SOL     OW 4708   0.973   2.752   5.296
 1381SOL    HW1 4709   1.019   2.668   5.267
 1381SOL    HW2 4710   0.917   2.786   5.221
 1382SOL     OW 4711   0.991   2.272   4.966
 1382SOL    HW1 4712   0.914   2.306   5.020
 1382SOL    HW2 4713   0.957   2.221   4.887
 1383SOL     OW 4714   1.041   2.563   4.153
 1383SOL    HW1 4715   1.067   2.559   4.249
 1383SOL    HW2 4716   0.956   2.512   4.139
 1384SOL     OW 4717   0.076   2.673   4.513
 1384SOL    HW1 4718   0.175   2.661   4.522
 1384SOL    HW2 4719   0.052   2.768   4.534
 1385SOL     OW 4720   0.130   3.683   5.295
 1385SOL    HW1 4721   0.120   3.668   5.394
 1385SOL    HW2 4722   0.044   3.719   5.259
 1386SOL     OW 4723   0.865   2.210   3.919
 1386SOL    HW1 4724   0.924   2.273   3.870
 1386SOL    HW2 4725   0.884   2.116   3.890
 1387SOL     OW 4726   1.719   2.447   5.555
 1387SOL    HW1 4727   1.693   2.536   5.519
 1387SOL    HW2 4728   1.717   2.379   5.482
 1388SOL     OW 4729   1.362   3.006   4.269
 1388SOL    HW1 4730   1.445   2.977   4.221
 1388SOL    HW2 4731   1.313   3.073   4.213
 1389SOL     OW 4732   0.550   2.058   4.609
 1389SOL    HW1 4733   0.545   2.053   4.709
 1389SOL    HW2 4734   0.552   2.154   4.580
 1390SOL     OW 4735   1.008   3.318   4.201
 1390SOL    HW1 4736   0.962   3.390   4.149
 1390SOL    HW2 4737   1.004   3.338   4.299
 1391SOL     OW 4738   0.351   3.663   4.577
 1391SOL    HW1 4739   0.401   3.577   4.583
 1391SOL    HW2 4740   0.416   3.740   4.574
 1392SOL     OW 4741   1.795   2.928   4.597
 1392SOL    HW1 4742   1.733   2.913   4.521
 1392SOL    HW2 4743   1.743   2.939   4.682
 1393SOL     OW 4744   1.227   3.412   5.230
 1393SOL    HW1 4745   1.233   3.335   5.294
 1393SOL    HW2 4746   1.175   3.386   5.150
 1394SOL     OW 4747   0.321   2.805   3.966
 1394SOL    HW1 4748   0.403   2.844   3.924
 1394SOL    HW2 4749   0.294   2.723   3.917
 1395SOL     OW 4750   1.458   2.597   4.452
 1395SOL    HW1 4751   1.453   2.532   4.527
 1395SOL    HW2 4752   1.538   2.656   4.465
 1396SOL     OW 4753   0.461   3.128   5.451
 1396SOL    HW1 4754   0.411   3.129   5.365
 1396SOL    HW2 4755   0.398   3.110   5.527
 1397SOL     OW 4756   1.111   3.638   3.961
 1397SOL    HW1 4757   1.051   3.576   4.011
 1397SOL    HW2 4758   1.142   3.594   3.876
 1398SOL     OW 4759   0.202   2.147   5.222
 1398SOL    HW1 4760   0.122   2.207   5.209
 1398SOL    HW2 4761   0.192   2.098   5.308
 1399SOL     OW 4762   1.632   3.239   3.805
 1399SOL    HW1 4763   1.600   3.333   3.795
 1399SOL    HW2 4764   1.556   3.176   3.793
 1400SOL     OW 4765   0.464   3.605   4.047
 1400SOL    HW1 4766   0.497   3.644   4.133
 1400SOL    HW2 4767   0.540   3.598   3.982
 1401SOL     OW 4768   1.400   1.969   4.150
 1401SOL    HW1 4769   1.376   1.932   4.060
 1401SOL    HW2 4770   1.499   1.985   4.154
 1402SOL     OW 4771   0.249   3.647   4.965
 1402SOL    HW1 4772   0.306   3.582   5.015
 1402SOL    HW2 4773   0.233   3.614   4.872
 1403SOL     OW 4774   0.940   3.560   4.628
 1403SOL    HW1 4775   1.020   3.503   4.649
 1403SOL    HW2 4776   0.891   3.520   4.551
 1404SOL     OW 4777   0.382   2.562   4.204
 1404SOL    HW1 4778   0.427   2.472   4.201
 1404SOL    HW2 4779   0.288   2.551   4.237
 1405SOL     OW 4780   1.547   2.084   5.453
 1405SOL    HW1 4781   1.542   2.121   5.545
 1405SOL    HW2 4782   1.475   2.015   5.441
 1406SOL     OW 4783   0.614   1.984   3.841
 1406SOL    HW1 4784   0.712   1.962   3.848
 1406SOL    HW2 4785   0.583   1.967   3.748
 1407SOL     OW 4786   0.781   2.126   5.473
 1407SOL    HW1 4787   0.848   2.065   5.516
 1407SOL    HW2 4788   0.708   2.145   5.538
 1408SOL     OW 4789   0.888   3.376   4.919
 1408SOL    HW1 4790   0.865   3.351   4.825
 1408SOL    HW2 4791   0.949   3.307   4.958
 1409SOL     OW 4792   1.351   2.452   5.157
 1409SOL    HW1 4793   1.379   2.409   5.242
 1409SOL    HW2 4794   1.376   2.548   5.158
 1410SOL     OW 4795   0.803   3.264   4.648
 1410SOL    HW1 4796   0.893   3.278   4.606
 1410SOL    HW2 4797   0.732   3.266   4.577
 1411SOL     OW 4798   0.922   2.365   4.623
 1411SOL    HW1 4799   0.897   2.356   4.527
 1411SOL    HW2 4800   0.970   2.283   4.654
 1412SOL     OW 4801   0.539   1.926   4.236
 1412SOL    HW1 4802   0.458   1.927   4.294
 1412SOL    HW2 4803   0.542   2.009   4.181
 1413SOL     OW 4804   1.434   3.050   3.765
 1413SOL    HW1 4805   1.466   2.974   3.822
 1413SOL    HW2 4806   1.342   3.077   3.795
 1414SOL     OW 4807   0.297   1.897   3.895
 1414SOL    HW1 4808   0.346   1.981   3.874
 1414SOL    HW2 4809   0.359   1.832   3.940
 1415SOL     OW 4810   0.935   2.098   4.204
 1415SOL    HW1 4811   0.887   2.139   4.126
 1415SOL    HW2 4812   1.034   2.096   4.185
 1416SOL     OW 4813   1.076   2.545   5.188
 1416SOL    HW1 4814   0.996   2.484   5.191
 1416SOL    HW2 4815   1.157   2.492   5.164
 1417SOL     OW 4816   1.227   3.432   4.517
 1417SOL    HW1 4817   1.248   3.506   4.452
 1417SOL    HW2 4818   1.295   3.432   4.590
 1418SOL     OW 4819   0.459   3.014   4.465
 1418SOL    HW1 4820   0.388   2.987   4.530
 1418SOL    HW2 4821   0.433   2.986   4.372
 1419SOL     OW 4822   1.271   3.659   4.315
 1419SOL    HW1 4823   1.315   3.723   4.251
 1419SOL    HW2 4824   1.221   3.711   4.385
 1420SOL     OW 4825   1.032   2.411   3.740
 1420SOL    HW1 4826   0.991   2.493   3.701
 1420SOL    HW2 4827   1.096   2.437   3.813
 1421SOL     OW 4828   0.078   2.418   5.110
 1421SOL    HW1 4829   0.170   2.417   5.069
 1421SOL    HW2 4830   0.072   2.492   5.177
 1422SOL     OW 4831   0.561   2.084   4.871
 1422SOL    HW1 4832   0.599   2.000   4.908
 1422SOL    HW2 4833   0.473   2.103   4.915
 1423SOL     OW 4834   0.866   2.316   4.366
 1423SOL    HW1 4835   0.834   2.388   4.304
 1423SOL    HW2 4836   0.890   2.235   4.313
 1424SOL     OW 4837   1.017   1.901   4.477
 1424SOL    HW1 4838   0.945   1.906   4.408
 1424SOL    HW2 4839   0.993   1.832   4.546
 1425SOL     OW 4840   1.429   3.035   4.591
 1425SOL    HW1 4841   1.374   2.951   4.584
 1425SOL    HW2 4842   1.455   3.064   4.499
 1426SOL     OW 4843   1.466   2.452   4.716
 1426SOL    HW1 4844   1.436   2.357   4.723
 1426SOL    HW2 4845   1.539   2.468   4.782
 1427SOL     OW 4846   0.488   3.247   3.898
 1427SOL    HW1 4847   0.401   3.232   3.945
 1427SOL    HW2 4848   0.471   3.273   3.803
 1428SOL     OW 4849   1.664   3.142   4.381
 1428SOL    HW1 4850   1.763   3.150   4.395
 1428SOL    HW2 4851   1.619   3.226   4.412
 1429SOL     OW 4852   1.390   2.437   3.802
 1429SOL    HW1 4853   1.336   2.416   3.883
 1429SOL    HW2 4854   1.481   2.396   3.811
 1430SOL     OW 4855   0.527   2.118   4.052
 1430SOL    HW1 4856   0.554   2.059   3.977
 1430SOL    HW2 4857   0.527   2.213   4.021
 1431SOL     OW 4858   1.754   3.085   5.312
 1431SOL    HW1 4859   1.845   3.046   5.299
 1431SOL    HW2 4860   1.762   3.181   5.336
 1432SOL     OW 4861   1.064   3.209   5.064
 1432SOL    HW1 4862   0.984   3.186   5.119
 1432SOL    HW2 4863   1.147   3.183   5.113
 1433SOL     OW 4864   1.592   3.491   5.349
 1433SOL    HW1 4865   1.619   3.525   5.259
 1433SOL    HW2 4866   1.671   3.453   5.395
 1434SOL     OW 4867   1.111   3.057   4.824
 1434SOL    HW1 4868   1.071   3.101   4.905
 1434SOL    HW2 4869   1.070   3.094   4.741
 1435SOL     OW 4870   1.638   2.961   4.803
 1435SOL    HW1 4871   1.643   3.042   4.862
 1435SOL    HW2 4872   1.552   2.963   4.752
 1436SOL     OW 4873   0.915   1.951   5.126
 1436SOL    HW1 4874   0.940   1.931   5.031
 1436SOL    HW2 4875   0.987   2.007   5.168
 1437SOL     OW 4876   0.980   2.978   5.443
 1437SOL    HW1 4877   0.881   2.984   5.453
 1437SOL    HW2 4878   1.003   2.898   5.387
 1438SOL     OW 4879   0.705   2.912   4.092
 1438SOL    HW1 4880   0.691   2.919   4.191
 1438SOL    HW2 4881   0.789   2.861   4.074
 1439SOL     OW 4882   0.410   2.675   4.975
 1439SOL    HW1 4883   0.496   2.687   5.025
 1439SOL    HW2 4884   0.368   2.588   5.002
 1440SOL     OW 4885   1.274   2.248   4.986
 1440SOL    HW1 4886   1.295   2.322   5.050
 1440SOL    HW2 4887   1.185   2.265   4.943
 1441SOL     OW 4888   0.064   3.426   5.055
 1441SOL    HW1 4889   0.018   3.508   5.021
 1441SOL    HW2 4890   0.162   3.445   5.064
 1442SOL     OW 4891   0.367   2.962   4.225
 1442SOL    HW1 4892   0.360   3.045   4.169
 1442SOL    HW2 4893   0.371   2.882   4.165
 1443SOL     OW 4894   0.566   2.399   4.589
 1443SOL    HW1 4895   0.578   2.465   4.515
 1443SOL    HW2 4896   0.612   2.433   4.672
 1444SOL     OW 4897   1.252   3.210   4.112
 1444SOL    HW1 4898   1.302   3.287   4.152
 1444SOL    HW2 4899   1.157   3.212   4.144
 1445SOL     OW 4900   1.272   3.307   4.866
 1445SOL    HW1 4901   1.319   3.320   4.953
 1445SOL    HW2 4902   1.206   3.233   4.875
 1446SOL     OW 4903   1.582   2.501   4.196
 1446SOL    HW1 4904   1.551   2.562   4.269
 1446SOL    HW2 4905   1.632   2.553   4.127
 1447SOL     OW 4906   0.354   3.372   5.053
 1447SOL    HW1 4907   0.333   3.328   4.966
 1447SOL    HW2 4908   0.451   3.398   5.056
 1448SOL     OW 4909   0.402   2.613   5.322
 1448SOL    HW1 4910   0.470   2.668   5.275
 1448SOL    HW2 4911   0.442   2.525   5.349
 1449SOL     OW 4912   1.587   2.641   5.394
 1449SOL    HW1 4913   1.495   2.679   5.389
 1449SOL    HW2 4914   1.647   2.688   5.329
 1450SOL     OW 4915   1.013   1.967   5.494
 1450SOL    HW1 4916   1.019   2.052   5.442
 1450SOL    HW2 4917   1.045   1.891   5.437
 1451SOL     OW 4918   0.504   1.912   5.464
 1451SOL    HW1 4919   0.462   1.855   5.394
 1451SOL    HW2 4920   0.438   1.981   5.496
 1452SOL     OW 4921   0.573   2.732   4.753
 1452SOL    HW1 4922   0.617   2.821   4.744
 1452SOL    HW2 4923   0.510   2.732   4.830
 1453SOL     OW 4924   1.360   2.724   4.769
 1453SOL    HW1 4925   1.285   2.724   4.703
 1453SOL    HW2 4926   1.397   2.632   4.778
 1454SOL     OW 4927   1.209   2.387   3.999
 1454SOL    HW1 4928   1.222   2.303   4.053
 1454SOL    HW2 4929   1.180   2.461   4.059
 1455SOL     OW 4930   0.307   2.075   4.955
 1455SOL    HW1 4931   0.284   2.112   5.045
 1455SOL    HW2 4932   0.277   1.980   4.949
 1456SOL     OW 4933   0.037   3.172   5.006
 1456SOL    HW1 4934   0.090   3.123   5.074
 1456SOL    HW2 4935   0.059   3.270   5.011
 1457SOL     OW 4936   0.732   2.496   4.788
 1457SOL    HW1 4937   0.791   2.470   4.712
 1457SOL    HW2 4938   0.704   2.592   4.777
 1458SOL     OW 4939   1.728   2.797   5.578
 1458SOL    HW1 4940   1.682   2.790   5.489
 1458SOL    HW2 4941   1.666   2.841   5.644
 1459SOL     OW 4942   0.307   1.925   4.342
 1459SOL    HW1 4943   0.296   2.019   4.375
 1459SOL    HW2 4944   0.302   1.862   4.419
 1460SOL     OW 4945   1.622   2.229   4.098
 1460SOL    HW1 4946   1.624   2.153   4.162
 1460SOL    HW2 4947   1.574   2.306   4.138
 1461SOL     OW 4948   1.023   2.628   4.690
 1461SOL    HW1 4949   1.038   2.649   4.786
 1461SOL    HW2 4950   0.993   2.533   4.681
 1462SOL     OW 4951   0.980   3.435   5.424
 1462SOL    HW1 4952   0.960   3.479   5.336
 1462SOL    HW2 4953   1.019   3.344   5.408
 1463SOL     OW 4954   1.859   3.380   5.329
 1463SOL    HW1 4955   1.873   3.407   5.234
 1463SOL    HW2 4956   1.942   3.402   5.382
 1464SOL     OW 4957   0.350   2.760   5.528
 1464SOL    HW1 4958   0.426   2.804   5.576
 1464SOL    HW2 4959   0.385   2.713   5.446
 1465SOL     OW 4960   1.540   2.136   3.849
 1465SOL    HW1 4961   1.479   2.061   3.872
 1465SOL    HW2 4962   1.562   2.188   3.932
 1466SOL     OW 4963   1.303   2.700   3.766
 1466SOL    HW1 4964   1.337   2.607   3.781
 1466SOL    HW2 4965   1.321   2.727   3.671
 1467SOL     OW 4966   1.068   3.195   4.573
 1467SOL    HW1 4967   1.075   3.111   4.518
 1467SOL    HW2 4968   1.130   3.264   4.537
 1468SOL     OW 4969   0.319   2.672   4.673
 1468SOL    HW1 4970   0.412   2.708   4.678
 1468SOL    HW2 4971   0.313   2.587   4.725
 1469SOL     OW 4972   0.339   2.371   4.730
 1469SOL    HW1 4973   0.287   2.288   4.713
 1469SOL    HW2 4974   0.416   2.376   4.666
 1470SOL     OW 4975   1.138   2.242   5.402
 1470SOL    HW1 4976   1.093   2.305   5.466
 1470SOL    HW2 4977   1.231   2.273   5.385
 1471SOL     OW 4978   1.160   2.069   5.201
 1471SOL    HW1 4979   1.160   2.133   5.278
 1471SOL    HW2 4980   1.188   2.117   5.118
 1472SOL     OW 4981   0.008   3.188   3.924
 1472SOL    HW1 4982  -0.085   3.209   3.893
 1472SOL    HW2 4983   0.018   3.089   3.937
 1473SOL     OW 4984   0.088   3.663   4.651
 1473SOL    HW1 4985   0.046   3.577   4.624
 1473SOL    HW2 4986   0.182   3.666   4.617
 1474SOL     OW 4987   0.504   3.430   4.634
 1474SOL    HW1 4988   0.570   3.504   4.643
 1474SOL    HW2 4989   0.548   3.351   4.592
 1475SOL     OW 4990   1.002   2.658   4.962
 1475SOL    HW1 4991   1.043   2.626   5.048
 1475SOL    HW2 4992   0.906   2.631   4.959
 1476SOL     OW 4993   0.040   2.406   4.838
 1476SOL    HW1 4994   0.125   2.373   4.797
 1476SOL    HW2 4995   0.053   2.421   4.936
 1477SOL     OW 4996   0.189   2.382   5.446
 1477SOL    HW1 4997   0.248   2.342   5.376
 1477SOL    HW2 4998   0.131   2.453   5.405
 1478SOL     OW 4999   1.369   2.812   5.384
 1478SOL    HW1 5000   1.408   2.901   5.404
 1478SOL    HW2 5001   1.379   2.792   5.287
 1479SOL     OW 5002   0.815   2.434   4.049
 1479SOL    HW1 5003   0.822   2.345   4.003
 1479SOL    HW2 5004   0.721   2.468   4.041
 1480SOL     OW 5005   1.657   2.466   4.930
 1480SOL    HW1 5006   1.619   2.397   4.992
 1480SOL    HW2 5007   1.739   2.430   4.886
 1481SOL     OW 5008   0.252   3.426   5.468
 1481SOL    HW1 5009   0.222   3.483   5.544
 1481SOL    HW2 5010   0.245   3.329   5.494
 1482SOL     OW 5011   0.671   2.326   4.993
 1482SOL    HW1 5012   0.637   2.237   4.963
 1482SOL    HW2 5013   0.697   2.380   4.913
 1483SOL     OW 5014   0.930   3.540   5.189
 1483SOL    HW1 5015   0.906   3.522   5.094
 1483SOL    HW2 5016   0.960   3.634   5.199
 1484SOL     OW 5017   0.473   2.362   3.915
 1484SOL    HW1 5018   0.534   2.442   3.919
 1484SOL    HW2 5019   0.378   2.393   3.922
 1485SOL     OW 5020   0.159   2.999   5.190
 1485SOL    HW1 5021   0.181   2.938   5.266
 1485SOL    HW2 5022   0.169   2.950   5.104
 1486SOL     OW 5023   1.347   2.921   4.958
 1486SOL    HW1 5024   1.371   2.858   4.884
 1486SOL    HW2 5025   1.257   2.961   4.940
 1487SOL     OW 5026   1.302   2.717   4.033
 1487SOL    HW1 5027   1.216   2.686   4.075
 1487SOL    HW2 5028   1.298   2.703   3.934
 1488SOL     OW 5029   1.759   3.609   4.878
 1488SOL    HW1 5030   1.820   3.639   4.805
 1488SOL    HW2 5031   1.721   3.520   4.856
 1489SOL     OW 5032   1.252   3.593   4.852
 1489SOL    HW1 5033   1.336   3.598   4.798
 1489SOL    HW2 5034   1.229   3.497   4.870
 1490SOL     OW 5035   0.083   3.120   4.746
 1490SOL    HW1 5036   0.078   3.119   4.846
 1490SOL    HW2 5037   0.000   3.079   4.708
 1491SOL     OW 5038   0.688   3.524   5.440
 1491SOL    HW1 5039   0.632   3.605   5.449
 1491SOL    HW2 5040   0.740   3.528   5.354
 1492SOL     OW 5041   1.726   1.997   4.247
 1492SOL    HW1 5042   1.799   1.980   4.180
 1492SOL    HW2 5043   1.695   1.910   4.285
 1493SOL     OW 5044   1.388   3.435   4.201
 1493SOL    HW1 5045   1.455   3.447   4.127
 1493SOL    HW2 5046   1.348   3.524   4.224
 1494SOL     OW 5047   0.130   3.656   5.575
 1494SOL    HW1 5048   0.089   3.582   5.628
 1494SOL    HW2 5049   0.194   3.707   5.633
 1495SOL     OW 5050   1.280   2.789   4.396
 1495SOL    HW1 5051   1.340   2.708   4.398
 1495SOL    HW2 5052   1.320   2.858   4.336
 1496SOL     OW 5053   0.830   3.135   5.146
 1496SOL    HW1 5054   0.825   3.168   5.241
 1496SOL    HW2 5055   0.744   3.154   5.100
 1497SOL     OW 5056   0.672   3.478   3.878
 1497SOL    HW1 5057   0.681   3.488   3.779
 1497SOL    HW2 5058   0.632   3.389   3.899
 1498SOL     OW 5059   1.650   3.582   5.118
 1498SOL    HW1 5060   1.703   3.592   5.034
 1498SOL    HW2 5061   1.623   3.672   5.152
 1499SOL     OW 5062   1.841   2.037   4.687
 1499SOL    HW1 5063   1.880   1.952   4.651
 1499SOL    HW2 5064   1.743   2.039   4.668
 1500SOL     OW 5065   0.263   2.188   4.444
 1500SOL    HW1 5066   0.184   2.239   4.410
 1500SOL    HW2 5067   0.254   2.173   4.542
 1501SOL     OW 5068   1.194   3.474   3.755
 1501SOL    HW1 5069   1.200   3.381   3.792
 1501SOL    HW2 5070   1.135   3.474   3.675
 1502SOL     OW 5071   0.822   2.864   5.096
 1502SOL    HW1 5072   0.862   2.863   5.004
 1502SOL    HW2 5073   0.832   2.956   5.136
 1503SOL     OW 5074   0.916   2.772   4.015
 1503SOL    HW1 5075   0.979   2.810   3.947
 1503SOL    HW2 5076   0.956   2.689   4.054
 1504SOL     OW 5077   1.504   3.469   3.768
 1504SOL    HW1 5078   1.412   3.506   3.775
 1504SOL    HW2 5079   1.542   3.489   3.678
 1505SOL     OW 5080   0.372   3.150   5.214
 1505SOL    HW1 5081   0.359   3.243   5.180
 1505SOL    HW2 5082   0.288   3.098   5.201
 1506SOL     OW 5083   1.614   3.154   5.013
 1506SOL    HW1 5084   1.674   3.157   5.093
 1506SOL    HW2 5085   1.539   3.218   5.026
 1507SOL     OW 5086   1.039   2.960   4.420
 1507SOL    HW1 5087   0.969   2.913   4.474
 1507SOL    HW2 5088   1.098   2.892   4.377
 1508SOL     OW 5089   1.014   2.098   4.695
 1508SOL    HW1 5090   1.006   2.062   4.602
 1508SOL    HW2 5091   1.012   2.022   4.760
 1509SOL     OW 5092   0.590   3.349   4.215
 1509SOL    HW1 5093   0.632   3.291   4.145
 1509SOL    HW2 5094   0.546   3.428   4.171
 1510SOL     OW 5095   1.709   2.247   5.105
 1510SOL    HW1 5096   1.782   2.316   5.109
 1510SOL    HW2 5097   1.737   2.172   5.046
 1511SOL     OW 5098   0.255   3.210   4.014
 1511SOL    HW1 5099   0.159   3.211   3.987
 1511SOL    HW2 5100   0.267   3.263   4.098
 1512SOL     OW 5101   0.105   2.875   5.450
 1512SOL    HW1 5102   0.028   2.842   5.504
 1512SOL    HW2 5103   0.190   2.845   5.492
 1513SOL     OW 5104   0.672   2.065   5.213
 1513SOL    HW1 5105   0.762   2.049   5.173
 1513SOL    HW2 5106   0.680   2.070   5.312
 1514SOL     OW 5107   0.075   2.207   3.757
 1514SOL    HW1 5108  -0.017   2.179   3.728
 1514SOL    HW2 5109   0.106   2.284   3.701
 1515SOL     OW 5110   1.440   2.718   5.122
 1515SOL    HW1 5111   1.383   2.770   5.059
 1515SOL    HW2 5112   1.536   2.730   5.098
 1516SOL     OW 5113   0.072   2.028   4.042
 1516SOL    HW1 5114   0.055   2.111   3.988
 1516SOL    HW2 5115   0.162   1.991   4.020
 1517SOL     OW 5116   1.183   3.197   3.843
 1517SOL    HW1 5117   1.084   3.186   3.845
 1517SOL    HW2 5118   1.217   3.212   3.936
 1518SOL     OW 5119   0.613   2.704   5.155
 1518SOL    HW1 5120   0.669   2.785   5.138
 1518SOL    HW2 5121   0.672   2.624   5.158
 1519SOL     OW 5122   1.493   3.629   4.683
 1519SOL    HW1 5123   1.526   3.693   4.614
 1519SOL    HW2 5124   1.559   3.623   4.758
 1520SOL     OW 5125   0.716   2.427   5.432
 1520SOL    HW1 5126   0.735   2.492   5.506
 1520SOL    HW2 5127   0.776   2.347   5.441
 1521SOL     OW 5128   1.450   3.082   5.357
 1521SOL    HW1 5129   1.441   3.072   5.456
 1521SOL    HW2 5130   1.546   3.075   5.331
 1522SOL     OW 5131   0.390   3.603   5.284
 1522SOL    HW1 5132   0.299   3.644   5.282
 1522SOL    HW2 5133   0.383   3.509   5.316
 1523SOL     OW 5134   1.674   2.745   4.978
 1523SOL    HW1 5135   1.647   2.656   4.941
 1523SOL    HW2 5136   1.675   2.813   4.905
 1524SOL     OW 5137   1.225   2.187   4.173
 1524SOL    HW1 5138   1.290   2.113   4.162
 1524SOL    HW2 5139   1.245   2.237   4.257
 1525SOL     OW 5140   0.594   2.607   4.376
 1525SOL    HW1 5141   0.644   2.692   4.357
 1525SOL    HW2 5142   0.506   2.609   4.328
 1526SOL     OW 5143   1.777   2.204   5.366
 1526SOL    HW1 5144   1.760   2.235   5.272
 1526SOL    HW2 5145   1.693   2.167   5.404
 1527SOL     OW 5146   1.730   2.796   5.241
 1527SOL    HW1 5147   1.768   2.887   5.256
 1527SOL    HW2 5148   1.722   2.779   5.142
 1528SOL     OW 5149   0.859   3.236   3.740
 1528SOL    HW1 5150   0.813   3.251   3.828
 1528SOL    HW2 5151   0.903   3.321   3.710
 1529SOL     OW 5152   0.661   3.652   4.677
 1529SOL    HW1 5153   0.615   3.740   4.664
 1529SOL    HW2 5154   0.760   3.664   4.670
 1530SOL     OW 5155   0.859   2.818   4.585
 1530SOL    HW1 5156   0.913   2.749   4.633
 1530SOL    HW2 5157   0.827   2.887   4.651
 1531SOL     OW 5158   1.083   2.846   3.811
 1531SOL    HW1 5159   1.060   2.899   3.729
 1531SOL    HW2 5160   1.164   2.790   3.792
 1532SOL     OW 5161   1.861   3.431   4.575
 1532SOL    HW1 5162   1.790   3.419   4.505
 1532SOL    HW2 5163   1.862   3.352   4.635
 1533SOL     OW 5164   0.221   3.176   5.568
 1533SOL    HW1 5165   0.156   3.103   5.547
 1533SOL    HW2 5166   0.225   3.190   5.666
 1534SOL     OW 5167   0.079   3.102   4.377
 1534SOL    HW1 5168   0.078   3.055   4.465
 1534SOL    HW2 5169   0.161   3.074   4.326
 1535SOL     OW 5170   0.672   3.253   5.348
 1535SOL    HW1 5171   0.594   3.203   5.386
 1535SOL    HW2 5172   0.669   3.348   5.379
 1536SOL     OW 5173   1.824   2.054   4.951
 1536SOL    HW1 5174   1.820   1.964   4.995
 1536SOL    HW2 5175   1.827   2.043   4.852
 1537SOL     OW 5176   0.428   2.286   4.244
 1537SOL    HW1 5177   0.458   2.214   4.182
 1537SOL    HW2 5178   0.389   2.246   4.327
 1538SOL     OW 5179   1.705   3.349   4.828
 1538SOL    HW1 5180   1.612   3.324   4.801
 1538SOL    HW2 5181   1.731   3.299   4.910
 1539SOL     OW 5182   0.317   2.409   5.004
 1539SOL    HW1 5183   0.355   2.350   5.076
 1539SOL    HW2 5184   0.357   2.383   4.916
 1540SOL     OW 5185   0.812   3.448   4.411
 1540SOL    HW1 5186   0.844   3.458   4.317
 1540SOL    HW2 5187   0.733   3.386   4.413
 1541SOL     OW 5188   1.424   2.076   4.836
 1541SOL    HW1 5189   1.476   2.011   4.891
 1541SOL    HW2 5190   1.375   2.139   4.897
 1542SOL     OW 5191   1.001   1.896   4.878
 1542SOL    HW1 5192   0.938   1.824   4.847
 1542SOL    HW2 5193   1.094   1.860   4.878
 1543SOL     OW 5194   0.770   3.192   4.025
 1543SOL    HW1 5195   0.724   3.105   4.042
 1543SOL    HW2 5196   0.861   3.189   4.066
 1544SOL     OW 5197   0.618   3.429   5.008
 1544SOL    HW1 5198   0.613   3.511   5.065
 1544SOL    HW2 5199   0.707   3.426   4.963
 1545SOL     OW 5200   1.352   1.914   3.892
 1545SOL    HW1 5201   1.387   1.873   3.808
 1545SOL    HW2 5202   1.262   1.876   3.912
 1546SOL     OW 5203   1.300   2.315   4.415
 1546SOL    HW1 5204   1.241   2.395   4.419
 1546SOL    HW2 5205   1.315   2.280   4.508
 1547SOL     OW 5206   1.593   2.083   4.606
 1547SOL    HW1 5207   1.509   2.082   4.660
 1547SOL    HW2 5208   1.595   2.166   4.550
 1548SOL     OW 5209   0.039   2.939   4.024
 1548SOL    HW1 5210   0.138   2.928   4.015
 1548SOL    HW2 5211  -0.001   2.853   4.056
 1549SOL     OW 5212   0.875   3.508   4.061
 1549SOL    HW1 5213   0.798   3.473   4.007
 1549SOL    HW2 5214   0.843   3.579   4.123
 1550SOL     OW 5215   0.230   2.490   5.699
 1550SOL    HW1 5216   0.137   2.488   5.736
 1550SOL    HW2 5217   0.231   2.451   5.607
 1551SOL     OW 5218   0.225   2.137   6.582
 1551SOL    HW1 5219   0.260   2.120   6.674
 1551SOL    HW2 5220   0.137   2.092   6.570
 1552SOL     OW 5221   0.019   2.230   6.233
 1552SOL    HW1 5222  -0.063   2.273   6.272
 1552SOL    HW2 5223  -0.009   2.157   6.170
 1553SOL     OW 5224   0.569   3.137   6.751
 1553SOL    HW1 5225   0.476   3.130   6.714
 1553SOL    HW2 5226   0.580   3.226   6.795
 1554SOL     OW 5227   1.555   3.373   6.289
 1554SOL    HW1 5228   1.498   3.357   6.370
 1554SOL    HW2 5229   1.496   3.383   6.209
 1555SOL     OW 5230   1.135   2.565   6.303
 1555SOL    HW1 5231   1.192   2.643   6.278
 1555SOL    HW2 5232   1.075   2.591   6.379
 1556SOL     OW 5233   1.755   2.469   5.817
 1556SOL    HW1 5234   1.743   2.456   5.718
 1556SOL    HW2 5235   1.725   2.388   5.866
 1557SOL     OW 5236   0.768   3.006   6.609
 1557SOL    HW1 5237   0.690   3.023   6.669
 1557SOL    HW2 5238   0.802   3.093   6.573
 1558SOL     OW 5239   0.850   2.660   7.409
 1558SOL    HW1 5240   0.846   2.736   7.474
 1558SOL    HW2 5241   0.872   2.696   7.318
 1559SOL     OW 5242   0.685   2.874   6.251
 1559SOL    HW1 5243   0.754   2.858   6.321
 1559SOL    HW2 5244   0.612   2.931   6.289
 1560SOL     OW 5245   0.686   3.023   7.389
 1560SOL    HW1 5246   0.746   3.102   7.403
 1560SOL    HW2 5247   0.600   3.054   7.348
 1561SOL     OW 5248   0.335   3.297   6.647
 1561SOL    HW1 5249   0.257   3.266   6.594
 1561SOL    HW2 5250   0.393   3.355   6.590
 1562SOL     OW 5251   1.460   3.367   6.925
 1562SOL    HW1 5252   1.484   3.461   6.951
 1562SOL    HW2 5253   1.444   3.313   7.007
 1563SOL     OW 5254   0.438   2.254   7.085
 1563SOL    HW1 5255   0.520   2.198   7.094
 1563SOL    HW2 5256   0.357   2.196   7.089
 1564SOL     OW 5257   1.603   2.309   6.323
 1564SOL    HW1 5258   1.529   2.355   6.273
 1564SOL    HW2 5259   1.654   2.377   6.376
 1565SOL     OW 5260   0.231   3.575   6.069
 1565SOL    HW1 5261   0.265   3.652   6.123
 1565SOL    HW2 5262   0.275   3.575   5.979
 1566SOL     OW 5263   1.127   3.203   7.276
 1566SOL    HW1 5264   1.174   3.203   7.364
 1566SOL    HW2 5265   1.079   3.116   7.265
 1567SOL     OW 5266   0.230   3.296   6.124
 1567SOL    HW1 5267   0.204   3.392   6.124
 1567SOL    HW2 5268   0.159   3.242   6.169
 1568SOL     OW 5269   0.240   2.953   6.472
 1568SOL    HW1 5270   0.254   2.869   6.524
 1568SOL    HW2 5271   0.185   3.017   6.527
 1569SOL     OW 5272   0.620   3.648   7.025
 1569SOL    HW1 5273   0.528   3.631   7.060
 1569SOL    HW2 5274   0.648   3.740   7.051
 1570SOL     OW 5275   0.606   2.826   5.709
 1570SOL    HW1 5276   0.613   2.910   5.655
 1570SOL    HW2 5277   0.652   2.839   5.797
 1571SOL     OW 5278   1.594   1.976   7.066
 1571SOL    HW1 5279   1.576   2.043   6.994
 1571SOL    HW2 5280   1.591   2.022   7.155
 1572SOL     OW 5281   0.122   2.505   6.149
 1572SOL    HW1 5282   0.077   2.417   6.166
 1572SOL    HW2 5283   0.121   2.559   6.233
 1573SOL     OW 5284   1.842   3.629   5.945
 1573SOL    HW1 5285   1.896   3.600   6.025
 1573SOL    HW2 5286   1.872   3.719   5.916
 1574SOL     OW 5287   0.027   3.458   5.703
 1574SOL    HW1 5288   0.008   3.362   5.724
 1574SOL    HW2 5289  -0.006   3.516   5.778
 1575SOL     OW 5290   1.689   2.784   6.198
 1575SOL    HW1 5291   1.784   2.755   6.206
 1575SOL    HW2 5292   1.681   2.849   6.123
 1576SOL     OW 5293   1.641   2.970   6.018
 1576SOL    HW1 5294   1.727   2.972   5.966
 1576SOL    HW2 5295   1.655   3.017   6.106
 1577SOL     OW 5296   0.113   2.599   7.183
 1577SOL    HW1 5297   0.201   2.586   7.228
 1577SOL    HW2 5298   0.100   2.696   7.161
 1578SOL     OW 5299   0.613   3.227   6.312
 1578SOL    HW1 5300   0.564   3.140   6.321
 1578SOL    HW2 5301   0.590   3.270   6.225
 1579SOL     OW 5302   1.293   3.090   7.009
 1579SOL    HW1 5303   1.330   3.017   6.951
 1579SOL    HW2 5304   1.345   3.095   7.094
 1580SOL     OW 5305   0.809   1.866   6.088
 1580SOL    HW1 5306   0.849   1.957   6.079
 1580SOL    HW2 5307   0.709   1.874   6.094
 1581SOL     OW 5308   0.197   2.838   6.850
 1581SOL    HW1 5309   0.286   2.793   6.836
 1581SOL    HW2 5310   0.124   2.773   6.831
 1582SOL     OW 5311   1.525   2.861   5.776
 1582SOL    HW1 5312   1.462   2.785   5.789
 1582SOL    HW2 5313   1.573   2.879   5.862
 1583SOL     OW 5314   1.187   3.654   7.202
 1583SOL    HW1 5315   1.211   3.714   7.126
 1583SOL    HW2 5316   1.194   3.559   7.172
 1584SOL     OW 5317   0.317   2.113   7.387
 1584SOL    HW1 5318   0.388   2.184   7.393
 1584SOL    HW2 5319   0.229   2.152   7.415
 1585SOL     OW 5320   1.466   3.279   6.539
 1585SOL    HW1 5321   1.407   3.285   6.619
 1585SOL    HW2 5322   1.451   3.191   6.493
 1586SOL     OW 5323   1.667   3.576   6.158
 1586SOL    HW1 5324   1.626   3.553   6.070
 1586SOL    HW2 5325   1.649   3.502   6.223
 1587SOL     OW 5326   0.598   2.591   5.856
 1587SOL    HW1 5327   0.622   2.660   5.788
 1587SOL    HW2 5328   0.520   2.624   5.910
 1588SOL     OW 5329   1.281   2.207   6.530
 1588SOL    HW1 5330   1.195   2.157   6.517
 1588SOL    HW2 5331   1.343   2.153   6.586
 1589SOL     OW 5332   1.576   3.524   5.893
 1589SOL    HW1 5333   1.665   3.570   5.896
 1589SOL    HW2 5334   1.555   3.500   5.798
 1590SOL     OW 5335   0.807   2.467   7.051
 1590SOL    HW1 5336   0.760   2.464   7.140
 1590SOL    HW2 5337   0.756   2.412   6.985
 1591SOL     OW 5338   1.394   2.331   7.260
 1591SOL    HW1 5339   1.374   2.374   7.348
 1591SOL    HW2 5340   1.472   2.269   7.269
 1592SOL     OW 5341   0.973   2.752   7.158
 1592SOL    HW1 5342   1.019   2.668   7.129
 1592SOL    HW2 5343   0.917   2.786   7.083
 1593SOL     OW 5344   0.991   2.272   6.828
 1593SOL    HW1 5345   0.914   2.306   6.882
 1593SOL    HW2 5346   0.957   2.221   6.749
 1594SOL     OW 5347   1.041   2.563   6.015
 1594SOL    HW1 5348   1.067   2.559   6.111
 1594SOL    HW2 5349   0.956   2.512   6.001
 1595SOL     OW 5350   0.076   2.673   6.375
 1595SOL    HW1 5351   0.175   2.661   6.384
 1595SOL    HW2 5352   0.052   2.768   6.396
 1596SOL     OW 5353   0.130   3.683   7.157
 1596SOL    HW1 5354   0.120   3.668   7.256
 1596SOL    HW2 5355   0.044   3.719   7.121
 1597SOL     OW 5356   0.865   2.210   5.781
 1597SOL    HW1 5357   0.924   2.273   5.732
 1597SOL    HW2 5358   0.884   2.116   5.752
 1598SOL     OW 5359   1.719   2.447   7.417
 1598SOL    HW1 5360   1.693   2.536   7.381
 1598SOL    HW2 5361   1.717   2.379   7.344
 1599SOL     OW 5362   1.362   3.006   6.131
 1599SOL    HW1 5363   1.445   2.977   6.083
 1599SOL    HW2 5364   1.313   3.073   6.075
 1600SOL     OW 5365   0.550   2.058   6.471
 1600SOL    HW1 5366   0.545   2.053   6.571
 1600SOL    HW2 5367   0.552   2.154   6.442
 1601SOL     OW 5368   1.008   3.318   6.063
 1601SOL    HW1 5369   0.962   3.390   6.011
 1601SOL    HW2 5370   1.004   3.338   6.161
 1602SOL     OW 5371   0.351   3.663   6.439
 1602SOL    HW1 5372   0.401   3.577   6.445
 1602SOL    HW2 5373   0.416   3.740   6.436
 1603SOL     OW 5374   1.795   2.928   6.459
 1603SOL    HW1 5375   1.733   2.913   6.383
 1603SOL    HW2 5376   1.743   2.939   6.544
 1604SOL     OW 5377   1.227   3.412   7.092
 1604SOL    HW1 5378   1.233   3.335   7.156
 1604SOL    HW2 5379   1.175   3.386   7.012
 1605SOL     OW 5380   0.321   2.805   5.828
 1605SOL    HW1 5381   0.403   2.844   5.786
 1605SOL    HW2 5382   0.294   2.723   5.779
 1606SOL     OW 5383   1.458   2.597   6.314
 1606SOL    HW1 5384   1.453   2.532   6.389
 1606SOL    HW2 5385   1.538   2.656   6.327
 1607SOL     OW 5386   0.461   3.128   7.313
 1607SOL    HW1 5387   0.411   3.129   7.227
 1607SOL    HW2 5388   0.398   3.110   7.389
 1608SOL     OW 5389   1.111   3.638   5.823
 1608SOL    HW1 5390   1.051   3.576   5.873
 1608SOL    HW2 5391   1.142   3.594   5.738
 1609SOL     OW 5392   0.202   2.147   7.084
 1609SOL    HW1 5393   0.122   2.207   7.071
 1609SOL    HW2 5394   0.192   2.098   7.170
 1610SOL     OW 5395   1.632   3.239   5.667
 1610SOL    HW1 5396   1.600   3.333   5.657
 1610SOL    HW2 5397   1.556   3.176   5.655
 1611SOL     OW 5398   0.464   3.605   5.909
 1611SOL    HW1 5399   0.497   3.644   5.995
 1611SOL    HW2 5400   0.540   3.598   5.844
 1612SOL     OW 5401   1.400   1.969   6.012
 1612SOL    HW1 5402   1.376   1.932   5.922
 1612SOL    HW2 5403   1.499   1.985   6.016
 1613SOL     OW 5404   0.249   3.647   6.827
 1613SOL    HW1 5405   0.306   3.582   6.877
 1613SOL    HW2 5406   0.233   3.614   6.734
 1614SOL     OW 5407   0.940   3.560   6.490
 1614SOL    HW1 5408   1.020   3.503   6.511
 1614SOL    HW2 5409   0.891   3.520   6.413
 1615SOL     OW 5410   0.382   2.562   6.066
 1615SOL    HW1 5411   0.427   2.472   6.063
 1615SOL    HW2 5412   0.288   2.551   6.099
 1616SOL     OW 5413   1.547   2.084   7.315
 1616SOL    HW1 5414   1.542   2.121   7.407
 1616SOL    HW2 5415   1.475   2.015   7.303
 1617SOL     OW 5416   0.614   1.984   5.703
 1617SOL    HW1 5417   0.712   1.962   5.710
 1617SOL    HW2 5418   0.583   1.967   5.610
 1618SOL     OW 5419   0.781   2.126   7.335
 1618SOL    HW1 5420   0.848   2.065   7.378
 1618SOL    HW2 5421   0.708   2.145   7.400
 1619SOL     OW 5422   0.888   3.376   6.781
 1619SOL    HW1 5423   0.865   3.351   6.687
 1619SOL    HW2 5424   0.949   3.307   6.820
 1620SOL     OW 5425   1.351   2.452   7.019
 1620SOL    HW1 5426   1.379   2.409   7.104
 1620SOL    HW2 5427   1.376   2.548   7.020
 1621SOL     OW 5428   0.803   3.264   6.510
 1621SOL    HW1 5429   0.893   3.278   6.468
 1621SOL    HW2 5430   0.732   3.266   6.439
 1622SOL     OW 5431   0.922   2.365   6.485
 1622SOL    HW1 5432   0.897   2.356   6.389
 1622SOL    HW2 5433   0.970   2.283   6.516
 1623SOL     OW 5434   0.539   1.926   6.098
 1623SOL    HW1 5435   0.458   1.927   6.156
 1623SOL    HW2 5436   0.542   2.009   6.043
 1624SOL     OW 5437   1.434   3.050   5.627
 1624SOL    HW1 5438   1.466   2.974   5.684
 1624SOL    HW2 5439   1.342   3.077   5.657
 1625SOL     OW 5440   0.297   1.897   5.757
 1625SOL    HW1 5441   0.346   1.981   5.736
 1625SOL    HW2 5442   0.359   1.832   5.802
 1626SOL     OW 5443   0.935   2.098   6.066
 1626SOL    HW1 5444   0.887   2.139   5.988
 1626SOL    HW2 5445   1.034   2.096   6.047
 1627SOL     OW 5446   1.076   2.545   7.050
 1627SOL    HW1 5447   0.996   2.484   7.053
 1627SOL    HW2 5448   1.157   2.492   7.026
 1628SOL     OW 5449   1.227   3.432   6.379
 1628SOL    HW1 5450   1.248   3.506   6.314
 1628SOL    HW2 5451   1.295   3.432   6.452
 1629SOL     OW 5452   0.459   3.014   6.327
 1629SOL    HW1 5453   0.388   2.987   6.392
 1629SOL    HW2 5454   0.433   2.986   6.234
 1630SOL     OW 5455   1.271   3.659   6.177
 1630SOL    HW1 5456   1.315   3.723   6.113
 1630SOL    HW2 5457   1.221   3.711   6.247
 1631SOL     OW 5458   1.032   2.411   5.602
 1631SOL    HW1 5459   0.991   2.493   5.563
 1631SOL    HW2 5460   1.096   2.437   5.675
 1632SOL     OW 5461   0.078   2.418   6.972
 1632SOL    HW1 5462   0.170   2.417   6.931
 1632SOL    HW2 5463   0.072   2.492   7.039
 1633SOL     OW 5464   0.561   2.084   6.733
 1633SOL    HW1 5465   0.599   2.000   6.770
 1633SOL    HW2 5466   0.473   2.103   6.777
 1634SOL     OW 5467   0.866   2.316   6.228
 1634SOL    HW1 5468   0.834   2.388   6.166
 1634SOL    HW2 5469   0.890   2.235   6.175
 1635SOL     OW 5470   1.017   1.901   6.339
 1635SOL    HW1 5471   0.945   1.906   6.270
 1635SOL    HW2 5472   0.993   1.832   6.408
 1636SOL     OW 5473   1.429   3.035   6.453
 1636SOL    HW1 5474   1.374   2.951   6.446
 1636SOL    HW2 5475   1.455   3.064   6.361
 1637SOL     OW 5476   1.466   2.452   6.578
 1637SOL    HW1 5477   1.436   2.357   6.585
 1637SOL    HW2 5478   1.539   2.468   6.644
 1638SOL     OW 5479   1.857   2.695   5.963
 1638SOL    HW1 5480   1.899   2.631   6.027
 1638SOL    HW2 5481   1.819   2.644   5.885
 1639SOL     OW 5482   0.488   3.247   5.760
 1639SOL    HW1 5483   0.401   3.232   5.807
 1639SOL    HW2 5484   0.471   3.273   5.665
 1640SOL     OW 5485   1.664   3.142   6.243
 1640SOL    HW1 5486   1.763   3.150   6.257
 1640SOL    HW2 5487   1.619   3.226   6.274
 1641SOL     OW 5488   1.390   2.437   5.664
 1641SOL    HW1 5489   1.336   2.416   5.745
 1641SOL    HW2 5490   1.481   2.396   5.673
 1642SOL     OW 5491   0.527   2.118   5.914
 1642SOL    HW1 5492   0.554   2.059   5.839
 1642SOL    HW2 5493   0.527   2.213   5.883
 1643SOL     OW 5494   1.754   3.085   7.174
 1643SOL    HW1 5495   1.845   3.046   7.161
 1643SOL    HW2 5496   1.762   3.181   7.198
 1644SOL     OW 5497   1.064   3.209   6.926
 1644SOL    HW1 5498   0.984   3.186   6.981
 1644SOL    HW2 5499   1.147   3.183   6.975
 1645SOL     OW 5500   1.592   3.491   7.211
 1645SOL    HW1 5501   1.619   3.525   7.121
 1645SOL    HW2 5502   1.671   3.453   7.257
 1646SOL     OW 5503   1.111   3.057   6.686
 1646SOL    HW1 5504   1.071   3.101   6.767
 1646SOL    HW2 5505   1.070   3.094   6.603
 1647SOL     OW 5506   1.638   2.961   6.665
 1647SOL    HW1 5507   1.643   3.042   6.724
 1647SOL    HW2 5508   1.552   2.963   6.614
 1648SOL     OW 5509   0.915   1.951   6.988
 1648SOL    HW1 5510   0.940   1.931   6.893
 1648SOL    HW2 5511   0.987   2.007   7.030
 1649SOL     OW 5512   0.980   2.978   7.305
 1649SOL    HW1 5513   0.881   2.984   7.315
 1649SOL    HW2 5514   1.003   2.898   7.249
 1650SOL     OW 5515   0.705   2.912   5.954
 1650SOL    HW1 5516   0.691   2.919   6.053
 1650SOL    HW2 5517   0.789   2.861   5.936
 1651SOL     OW 5518   0.410   2.675   6.837
 1651SOL    HW1 5519   0.496   2.687   6.887
 1651SOL    HW2 5520   0.368   2.588   6.864
 1652SOL     OW 5521   1.274   2.248   6.848
 1652SOL    HW1 5522   1.295   2.322   6.912
 1652SOL    HW2 5523   1.185   2.265   6.805
 1653SOL     OW 5524   0.064   3.426   6.917
 1653SOL    HW1 5525   0.018   3.508   6.883
 1653SOL    HW2 5526   0.162   3.445   6.926
 1654SOL     OW 5527   0.367   2.962   6.087
 1654SOL    HW1 5528   0.360   3.045   6.031
 1654SOL    HW2 5529   0.371   2.882   6.027
 1655SOL     OW 5530   0.566   2.399   6.451
 1655SOL    HW1 5531   0.578   2.465   6.377
 1655SOL    HW2 5532   0.612   2.433   6.534
 1656SOL     OW 5533   1.252   3.210   5.974
 1656SOL    HW1 5534   1.302   3.287   6.014
 1656SOL    HW2 5535   1.157   3.212   6.006
 1657SOL     OW 5536   1.272   3.307   6.728
 1657SOL    HW1 5537   1.319   3.320   6.815
 1657SOL    HW2 5538   1.206   3.233   6.737
 1658SOL     OW 5539   1.582   2.501   6.058
 1658SOL    HW1 5540   1.551   2.562   6.131
 1658SOL    HW2 5541   1.632   2.553   5.989
 1659SOL     OW 5542   0.354   3.372   6.915
 1659SOL    HW1 5543   0.333   3.328   6.828
 1659SOL    HW2 5544   0.451   3.398   6.918
 1660SOL     OW 5545   0.402   2.613   7.184
 1660SOL    HW1 5546   0.470   2.668   7.137
 1660SOL    HW2 5547   0.442   2.525   7.211
 1661SOL     OW 5548   1.587   2.641   7.256
 1661SOL    HW1 5549   1.495   2.679   7.251
 1661SOL    HW2 5550   1.647   2.688   7.191
 1662SOL     OW 5551   1.013   1.967   7.356
 1662SOL    HW1 5552   1.019   2.052   7.304
 1662SOL    HW2 5553   1.045   1.891   7.299
 1663SOL     OW 5554   0.504   1.912   7.326
 1663SOL    HW1 5555   0.462   1.855   7.256
 1663SOL    HW2 5556   0.438   1.981   7.358
 1664SOL     OW 5557   0.573   2.732   6.615
 1664SOL    HW1 5558   0.617   2.821   6.606
 1664SOL    HW2 5559   0.510   2.732   6.692
 1665SOL     OW 5560   1.360   2.724   6.631
 1665SOL    HW1 5561   1.285   2.724   6.565
 1665SOL    HW2 5562   1.397   2.632   6.640
 1666SOL     OW 5563   1.209   2.387   5.861
 1666SOL    HW1 5564   1.222   2.303   5.915
 1666SOL    HW2 5565   1.180   2.461   5.921
 1667SOL     OW 5566   0.307   2.075   6.817
 1667SOL    HW1 5567   0.284   2.112   6.907
 1667SOL    HW2 5568   0.277   1.980   6.811
 1668SOL     OW 5569   0.037   3.172   6.868
 1668SOL    HW1 5570   0.090   3.123   6.936
 1668SOL    HW2 5571   0.059   3.270   6.873
 1669SOL     OW 5572   0.732   2.496   6.650
 1669SOL    HW1 5573   0.791   2.470   6.574
 1669SOL    HW2 5574   0.704   2.592   6.639
 1670SOL     OW 5575   1.728   2.797   7.440
 1670SOL    HW1 5576   1.682   2.790   7.351
 1670SOL    HW2 5577   1.666   2.841   7.506
 1671SOL     OW 5578   0.307   1.925   6.204
 1671SOL    HW1 5579   0.296   2.019   6.237
 1671SOL    HW2 5580   0.302   1.862   6.281
 1672SOL     OW 5581   1.622   2.229   5.960
 1672SOL    HW1 5582   1.624   2.153   6.024
 1672SOL    HW2 5583   1.574   2.306   6.000
 1673SOL     OW 5584   1.023   2.628   6.552
 1673SOL    HW1 5585   1.038   2.649   6.648
 1673SOL    HW2 5586   0.993   2.533   6.543
 1674SOL     OW 5587   0.980   3.435   7.286
 1674SOL    HW1 5588   0.960   3.479   7.198
 1674SOL    HW2 5589   1.019   3.344   7.270
 1675SOL     OW 5590   1.859   3.380   7.191
 1675SOL    HW1 5591   1.873   3.407   7.096
 1675SOL    HW2 5592   1.942   3.402   7.244
 1676SOL     OW 5593   0.350   2.760   7.390
 1676SOL    HW1 5594   0.426   2.804   7.438
 1676SOL    HW2 5595   0.385   2.713   7.308
 1677SOL     OW 5596   1.540   2.136   5.711
 1677SOL    HW1 5597   1.479   2.061   5.734
 1677SOL    HW2 5598   1.562   2.188   5.794
 1678SOL     OW 5599   1.303   2.700   5.628
 1678SOL    HW1 5600   1.337   2.607   5.643
 1678SOL    HW2 5601   1.321   2.727   5.533
 1679SOL     OW 5602   1.068   3.195   6.435
 1679SOL    HW1 5603   1.075   3.111   6.380
 1679SOL    HW2 5604   1.130   3.264   6.399
 1680SOL     OW 5605   0.319   2.672   6.535
 1680SOL    HW1 5606   0.412   2.708   6.540
 1680SOL    HW2 5607   0.313   2.587   6.587
 1681SOL     OW 5608   0.339   2.371   6.592
 1681SOL    HW1 5609   0.287   2.288   6.575
 1681SOL    HW2 5610   0.416   2.376   6.528
 1682SOL     OW 5611   1.138   2.242   7.264
 1682SOL    HW1 5612   1.093   2.305   7.328
 1682SOL    HW2 5613   1.231   2.273   7.247
 1683SOL     OW 5614   1.160   2.069   7.063
 1683SOL    HW1 5615   1.160   2.133   7.140
 1683SOL    HW2 5616   1.188   2.117   6.980
 1684SOL     OW 5617   0.008   3.188   5.786
 1684SOL    HW1 5618  -0.085   3.209   5.755
 1684SOL    HW2 5619   0.018   3.089   5.799
 1685SOL     OW 5620   0.088   3.663   6.513
 1685SOL    HW1 5621   0.046   3.577   6.486
 1685SOL    HW2 5622   0.182   3.666   6.479
 1686SOL     OW 5623   0.504   3.430   6.496
 1686SOL    HW1 5624   0.570   3.504   6.505
 1686SOL    HW2 5625   0.548   3.351   6.454
 1687SOL     OW 5626   1.002   2.658   6.824
 1687SOL    HW1 5627   1.043   2.626   6.910
 1687SOL    HW2 5628   0.906   2.631   6.821
 1688SOL     OW 5629   0.040   2.406   6.700
 1688SOL    HW1 5630   0.125   2.373   6.659
 1688SOL    HW2 5631   0.053   2.421   6.798
 1689SOL     OW 5632   0.189   2.382   7.308
 1689SOL    HW1 5633   0.248   2.342   7.238
 1689SOL    HW2 5634   0.131   2.453   7.267
 1690SOL     OW 5635   1.369   2.812   7.246
 1690SOL    HW1 5636   1.408   2.901   7.266
 1690SOL    HW2 5637   1.379   2.792   7.149
 1691SOL     OW 5638   0.815   2.434   5.911
 1691SOL    HW1 5639   0.822   2.345   5.865
 1691SOL    HW2 5640   0.721   2.468   5.903
 1692SOL     OW 5641   1.657   2.466   6.792
 1692SOL    HW1 5642   1.619   2.397   6.854
 1692SOL    HW2 5643   1.739   2.430   6.748
 1693SOL     OW 5644   0.252   3.426   7.330
 1693SOL    HW1 5645   0.222   3.483   7.406
 1693SOL    HW2 5646   0.245   3.329   7.356
 1694SOL     OW 5647   0.671   2.326   6.855
 1694SOL    HW1 5648   0.637   2.237   6.825
 1694SOL    HW2 5649   0.697   2.380   6.775
 1695SOL     OW 5650   0.930   3.540   7.051
 1695SOL    HW1 5651   0.906   3.522   6.956
 1695SOL    HW2 5652   0.960   3.634   7.061
 1696SOL     OW 5653   0.473   2.362   5.777
 1696SOL    HW1 5654   0.534   2.442   5.781
 1696SOL    HW2 5655   0.378   2.393   5.784
 1697SOL     OW 5656   0.159   2.999   7.052
 1697SOL    HW1 5657   0.181   2.938   7.128
 1697SOL    HW2 5658   0.169   2.950   6.966
 1698SOL     OW 5659   1.347   2.921   6.820
 1698SOL    HW1 5660   1.371   2.858   6.746
 1698SOL    HW2 5661   1.257   2.961   6.802
 1699SOL     OW 5662   1.302   2.717   5.895
 1699SOL    HW1 5663   1.216   2.686   5.937
 1699SOL    HW2 5664   1.298   2.703   5.796
 1700SOL     OW 5665   1.759   3.609   6.740
 1700SOL    HW1 5666   1.820   3.639   6.667
 1700SOL    HW2 5667   1.721   3.520   6.718
 1701SOL     OW 5668   1.252   3.593   6.714
 1701SOL    HW1 5669   1.336   3.598   6.660
 1701SOL    HW2 5670   1.229   3.497   6.732
 1702SOL     OW 5671   0.083   3.120   6.608
 1702SOL    HW1 5672   0.078   3.119   6.708
 1702SOL    HW2 5673   0.000   3.079   6.570
 1703SOL     OW 5674   0.688   3.524   7.302
 1703SOL    HW1 5675   0.632   3.605   7.311
 1703SOL    HW2 5676   0.740   3.528   7.216
 1704SOL     OW 5677   1.726   1.997   6.109
 1704SOL    HW1 5678   1.799   1.980   6.042
 1704SOL    HW2 5679   1.695   1.910   6.147
 1705SOL     OW 5680   1.388   3.435   6.063
 1705SOL    HW1 5681   1.455   3.447   5.989
 1705SOL    HW2 5682   1.348   3.524   6.086
 1706SOL     OW 5683   0.130   3.656   7.437
 1706SOL    HW1 5684   0.089   3.582   7.490
 1706SOL    HW2 5685   0.194   3.707   7.495
 1707SOL     OW 5686   1.280   2.789   6.258
 1707SOL    HW1 5687   1.340   2.708   6.260
 1707SOL    HW2 5688   1.320   2.858   6.198
 1708SOL     OW 5689   0.830   3.135   7.008
 1708SOL    HW1 5690   0.825   3.168   7.103
 1708SOL    HW2 5691   0.744   3.154   6.962
 1709SOL     OW 5692   0.672   3.478   5.740
 1709SOL    HW1 5693   0.681   3.488   5.641
 1709SOL    HW2 5694   0.632   3.389   5.761
 1710SOL     OW 5695   1.650   3.582   6.980
 1710SOL    HW1 5696   1.703   3.592   6.896
 1710SOL    HW2 5697   1.623   3.672   7.014
 1711SOL     OW 5698   1.841   2.037   6.549
 1711SOL    HW1 5699   1.880   1.952   6.513
 1711SOL    HW2 5700   1.743   2.039   6.530
 1712SOL     OW 5701   0.263   2.188   6.306
 1712SOL    HW1 5702   0.184   2.239   6.272
 1712SOL    HW2 5703   0.254   2.173   6.404
 1713SOL     OW 5704   1.194   3.474   5.617
 1713SOL    HW1 5705   1.200   3.381   5.654
 1713SOL    HW2 5706   1.135   3.474   5.537
 1714SOL     OW 5707   0.822   2.864   6.958
 1714SOL    HW1 5708   0.862   2.863   6.866
 1714SOL    HW2 5709   0.832   2.956   6.998
 1715SOL     OW 5710   0.916   2.772   5.877
 1715SOL    HW1 5711   0.979   2.810   5.809
 1715SOL    HW2 5712   0.956   2.689   5.916
 1716SOL     OW 5713   1.504   3.469   5.630
 1716SOL    HW1 5714   1.412   3.506   5.637
 1716SOL    HW2 5715   1.542   3.489   5.540
 1717SOL     OW 5716   0.372   3.150   7.076
 1717SOL    HW1 5717   0.359   3.243   7.042
 1717SOL    HW2 5718   0.288   3.098   7.063
 1718SOL     OW 5719   1.614   3.154   6.875
 1718SOL    HW1 5720   1.674   3.157   6.955
 1718SOL    HW2 5721   1.539   3.218   6.888
 1719SOL     OW 5722   1.039   2.960   6.282
 1719SOL    HW1 5723   0.969   2.913   6.336
 1719SOL    HW2 5724   1.098   2.892   6.239
 1720SOL     OW 5725   1.014   2.098   6.557
 1720SOL    HW1 5726   1.006   2.062   6.464
 1720SOL    HW2 5727   1.012   2.022   6.622
 1721SOL     OW 5728   0.590   3.349   6.077
 1721SOL    HW1 5729   0.632   3.291   6.007
 1721SOL    HW2 5730   0.546   3.428   6.033
 1722SOL     OW 5731   1.709   2.247   6.967
 1722SOL    HW1 5732   1.782   2.316   6.971
 1722SOL    HW2 5733   1.737   2.172   6.908
 1723SOL     OW 5734   0.255   3.210   5.876
 1723SOL    HW1 5735   0.159   3.211   5.849
 1723SOL    HW2 5736   0.267   3.263   5.960
 1724SOL     OW 5737   0.105   2.875   7.312
 1724SOL    HW1 5738   0.028   2.842   7.366
 1724SOL    HW2 5739   0.190   2.845   7.354
 1725SOL     OW 5740   0.672   2.065   7.075
 1725SOL    HW1 5741   0.762   2.049   7.035
 1725SOL    HW2 5742   0.680   2.070   7.174
 1726SOL     OW 5743   0.075   2.207   5.619
 1726SOL    HW1 5744  -0.017   2.179   5.590
 1726SOL    HW2 5745   0.106   2.284   5.563
 1727SOL     OW 5746   1.440   2.718   6.984
 1727SOL    HW1 5747   1.383   2.770   6.921
 1727SOL    HW2 5748   1.536   2.730   6.960
 1728SOL     OW 5749   0.072   2.028   5.904
 1728SOL    HW1 5750   0.055   2.111   5.850
 1728SOL    HW2 5751   0.162   1.991   5.882
 1729SOL     OW 5752   1.183   3.197   5.705
 1729SOL    HW1 5753   1.084   3.186   5.707
 1729SOL    HW2 5754   1.217   3.212   5.798
 1730SOL     OW 5755   0.613   2.704   7.017
 1730SOL    HW1 5756   0.669   2.785   7.000
 1730SOL    HW2 5757   0.672   2.624   7.020
 1731SOL     OW 5758   1.493   3.629   6.545
 1731SOL    HW1 5759   1.526   3.693   6.476
 1731SOL    HW2 5760   1.559   3.623   6.620
 1732SOL     OW 5761   0.716   2.427   7.294
 1732SOL    HW1 5762   0.735   2.492   7.368
 1732SOL    HW2 5763   0.776   2.347   7.303
 1733SOL     OW 5764   1.450   3.082   7.219
 1733SOL    HW1 5765   1.441   3.072   7.318
 1733SOL    HW2 5766   1.546   3.075   7.193
 1734SOL     OW 5767   0.390   3.603   7.146
 1734SOL    HW1 5768   0.299   3.644   7.144
 1734SOL    HW2 5769   0.383   3.509   7.178
 1735SOL     OW 5770   1.674   2.745   6.840
 1735SOL    HW1 5771   1.647   2.656   6.803
 1735SOL    HW2 5772   1.675   2.813   6.767
 1736SOL     OW 5773   1.225   2.187   6.035
 1736SOL    HW1 5774   1.290   2.113   6.024
 1736SOL    HW2 5775   1.245   2.237   6.119
 1737SOL     OW 5776   0.594   2.607   6.238
 1737SOL    HW1 5777   0.644   2.692   6.219
 1737SOL    HW2 5778   0.506   2.609   6.190
 1738SOL     OW 5779   1.777   2.204   7.228
 1738SOL    HW1 5780   1.760   2.235   7.134
 1738SOL    HW2 5781   1.693   2.167   7.266
 1739SOL     OW 5782   1.730   2.796   7.103
 1739SOL    HW1 5783   1.768   2.887   7.118
 1739SOL    HW2 5784   1.722   2.779   7.004
 1740SOL     OW 5785   0.859   3.236   5.602
 1740SOL    HW1 5786   0.813   3.251   5.690
 1740SOL    HW2 5787   0.903   3.321   5.572
 1741SOL     OW 5788   0.661   3.652   6.539
 1741SOL    HW1 5789   0.615   3.740   6.526
 1741SOL    HW2 5790   0.760   3.664   6.532
 1742SOL     OW 5791   0.859   2.818   6.447
 1742SOL    HW1 5792   0.913   2.749   6.495
 1742SOL    HW2 5793   0.827   2.887   6.513
 1743SOL     OW 5794   1.083   2.846   5.673
 1743SOL    HW1 5795   1.060   2.899   5.591
 1743SOL    HW2 5796   1.164   2.790   5.654
 1744SOL     OW 5797   1.861   3.431   6.437
 1744SOL    HW1 5798   1.790   3.419   6.367
 1744SOL    HW2 5799   1.862   3.352   6.497
 1745SOL     OW 5800   0.221   3.176   7.430
 1745SOL    HW1 5801   0.156   3.103   7.409
 1745SOL    HW2 5802   0.225   3.190   7.528
 1746SOL     OW 5803   0.079   3.102   6.239
 1746SOL    HW1 5804   0.078   3.055   6.327
 1746SOL    HW2 5805   0.161   3.074   6.188
 1747SOL     OW 5806   0.672   3.253   7.210
 1747SOL    HW1 5807   0.594   3.203   7.248
 1747SOL    HW2 5808   0.669   3.348   7.241
 1748SOL     OW 5809   1.824   2.054   6.813
 1748SOL    HW1 5810   1.820   1.964   6.857
 1748SOL    HW2 5811   1.827   2.043   6.714
 1749SOL     OW 5812   0.428   2.286   6.106
 1749SOL    HW1 5813   0.458   2.214   6.044
 1749SOL    HW2 5814   0.389   2.246   6.189
 1750SOL     OW 5815   1.705   3.349   6.690
 1750SOL    HW1 5816   1.612   3.324   6.663
 1750SOL    HW2 5817   1.731   3.299   6.772
 1751SOL     OW 5818   0.317   2.409   6.866
 1751SOL    HW1 5819   0.355   2.350   6.938
 1751SOL    HW2 5820   0.357   2.383   6.778
 1752SOL     OW 5821   0.812   3.448   6.273
 1752SOL    HW1 5822   0.844   3.458   6.179
 1752SOL    HW2 5823   0.733   3.386   6.275
 1753SOL     OW 5824   1.424   2.076   6.698
 1753SOL    HW1 5825   1.476   2.011   6.753
 1753SOL    HW2 5826   1.375   2.139   6.759
 1754SOL     OW 5827   1.001   1.896   6.740
 1754SOL    HW1 5828   0.938   1.824   6.709
 1754SOL    HW2 5829   1.094   1.860   6.740
 1755SOL     OW 5830   0.770   3.192   5.887
 1755SOL    HW1 5831   0.724   3.105   5.904
 1755SOL    HW2 5832   0.861   3.189   5.928
 1756SOL     OW 5833   0.618   3.429   6.870
 1756SOL    HW1 5834   0.613   3.511   6.927
 1756SOL    HW2 5835   0.707   3.426   6.825
 1757SOL     OW 5836   1.352   1.914   5.754
 1757SOL    HW1 5837   1.387   1.873   5.670
 1757SOL    HW2 5838   1.262   1.876   5.774
 1758SOL     OW 5839   1.300   2.315   6.277
 1758SOL    HW1 5840   1.241   2.395   6.281
 1758SOL    HW2 5841   1.315   2.280   6.370
 1759SOL     OW 5842   1.593   2.083   6.468
 1759SOL    HW1 5843   1.509   2.082   6.522
 1759SOL    HW2 5844   1.595   2.166   6.412
 1760SOL     OW 5845   0.039   2.939   5.886
 1760SOL    HW1 5846   0.138   2.928   5.877
 1760SOL    HW2 5847  -0.001   2.853   5.918
 1761SOL     OW 5848   0.875   3.508   5.923
 1761SOL    HW1 5849   0.798   3.473   5.869
 1761SOL    HW2 5850   0.843   3.579   5.985
 1762SOL     OW 5851   0.230   2.490   7.561
 1762SOL    HW1 5852   0.137   2.488   7.598
 1762SOL    HW2 5853   0.231   2.451   7.469
 1763SOL     OW 5854   1.755   2.469   7.679
 1763SOL    HW1 5855   1.743   2.456   7.580
 1763SOL    HW2 5856   1.725   2.388   7.728
 1764SOL     OW 5857   0.231   3.575   7.931
 1764SOL    HW1 5858   0.265   3.652   7.985
 1764SOL    HW2 5859   0.275   3.575   7.841
 1765SOL     OW 5860   0.230   3.296   7.986
 1765SOL    HW1 5861   0.204   3.392   7.986
 1765SOL    HW2 5862   0.159   3.242   8.031
 1766SOL     OW 5863   0.606   2.826   7.571
 1766SOL    HW1 5864   0.613   2.910   7.517
 1766SOL    HW2 5865   0.652   2.839   7.659
 1767SOL     OW 5866   1.842   3.629   7.807
 1767SOL    HW1 5867   1.896   3.600   7.887
 1767SOL    HW2 5868   1.872   3.719   7.778
 1768SOL     OW 5869   0.027   3.458   7.565
 1768SOL    HW1 5870   0.008   3.362   7.586
 1768SOL    HW2 5871  -0.006   3.516   7.640
 1769SOL     OW 5872   1.689   2.784   8.060
 1769SOL    HW1 5873   1.784   2.755   8.068
 1769SOL    HW2 5874   1.681   2.849   7.985
 1770SOL     OW 5875   1.641   2.970   7.880
 1770SOL    HW1 5876   1.727   2.972   7.828
 1770SOL    HW2 5877   1.655   3.017   7.968
 1771SOL     OW 5878   0.809   1.866   7.950
 1771SOL    HW1 5879   0.849   1.957   7.941
 1771SOL    HW2 5880   0.709   1.874   7.956
 1772SOL     OW 5881   1.525   2.861   7.638
 1772SOL    HW1 5882   1.462   2.785   7.651
 1772SOL    HW2 5883   1.573   2.879   7.724
 1773SOL     OW 5884   0.598   2.591   7.718
 1773SOL    HW1 5885   0.622   2.660   7.650
 1773SOL    HW2 5886   0.520   2.624   7.772
 1774SOL     OW 5887   1.576   3.524   7.755
 1774SOL    HW1 5888   1.665   3.570   7.758
 1774SOL    HW2 5889   1.555   3.500   7.660
 1775SOL     OW 5890   0.076   2.673   8.237
 1775SOL    HW1 5891   0.175   2.661   8.246
 1775SOL    HW2 5892   0.052   2.768   8.258
 1776SOL     OW 5893   0.865   2.210   7.643
 1776SOL    HW1 5894   0.924   2.273   7.594
 1776SOL    HW2 5895   0.884   2.116   7.614
 1777SOL     OW 5896   0.321   2.805   7.690
 1777SOL    HW1 5897   0.403   2.844   7.648
 1777SOL    HW2 5898   0.294   2.723   7.641
 1778SOL     OW 5899   1.111   3.638   7.685
 1778SOL    HW1 5900   1.051   3.576   7.735
 1778SOL    HW2 5901   1.142   3.594   7.600
 1779SOL     OW 5902   1.632   3.239   7.529
 1779SOL    HW1 5903   1.600   3.333   7.519
 1779SOL    HW2 5904   1.556   3.176   7.517
 1780SOL     OW 5905   0.464   3.605   7.771
 1780SOL    HW1 5906   0.497   3.644   7.857
 1780SOL    HW2 5907   0.540   3.598   7.706
 1781SOL     OW 5908   1.400   1.969   7.874
 1781SOL    HW1 5909   1.376   1.932   7.784
 1781SOL    HW2 5910   1.499   1.985   7.878
 1782SOL     OW 5911   0.382   2.562   7.928
 1782SOL    HW1 5912   0.427   2.472   7.925
 1782SOL    HW2 5913   0.288   2.551   7.961
 1783SOL     OW 5914   0.614   1.984   7.565
 1783SOL    HW1 5915   0.712   1.962   7.572
 1783SOL    HW2 5916   0.583   1.967   7.472
 1784SOL     OW 5917   0.539   1.926   7.960
 1784SOL    HW1 5918   0.458   1.927   8.018
 1784SOL    HW2 5919   0.542   2.009   7.905
 1785SOL     OW 5920   1.434   3.050   7.489
 1785SOL    HW1 5921   1.466   2.974   7.546
 1785SOL    HW2 5922   1.342   3.077   7.519
 1786SOL     OW 5923   0.297   1.897   7.619
 1786SOL    HW1 5924   0.346   1.981   7.598
 1786SOL    HW2 5925   0.359   1.832   7.664
 1787SOL     OW 5926   0.935   2.098   7.928
 1787SOL    HW1 5927   0.887   2.139   7.850
 1787SOL    HW2 5928   1.034   2.096   7.909
 1788SOL     OW 5929   0.459   3.014   8.189
 1788SOL    HW1 5930   0.388   2.987   8.254
 1788SOL    HW2 5931   0.433   2.986   8.096
 1789SOL     OW 5932   1.271   3.659   8.039
 1789SOL    HW1 5933   1.315   3.723   7.975
 1789SOL    HW2 5934   1.221   3.711   8.109
 1790SOL     OW 5935   1.032   2.411   7.464
 1790SOL    HW1 5936   0.991   2.493   7.425
 1790SOL    HW2 5937   1.096   2.437   7.537
 1791SOL     OW 5938   1.857   2.695   7.825
 1791SOL    HW1 5939   1.899   2.631   7.889
 1791SOL    HW2 5940   1.819   2.644   7.747
 1792SOL     OW 5941   0.488   3.247   7.622
 1792SOL    HW1 5942   0.401   3.232   7.669
 1792SOL    HW2 5943   0.471   3.273   7.527
 1793SOL     OW 5944   1.390   2.437   7.526
 1793SOL    HW1 5945   1.336   2.416   7.607
 1793SOL    HW2 5946   1.481   2.396   7.535
 1794SOL     OW 5947   0.527   2.118   7.776
 1794SOL    HW1 5948   0.554   2.059   7.701
 1794SOL    HW2 5949   0.527   2.213   7.745
 1795SOL     OW 5950   0.705   2.912   7.816
 1795SOL    HW1 5951   0.691   2.919   7.915
 1795SOL    HW2 5952   0.789   2.861   7.798
 1796SOL     OW 5953   0.367   2.962   7.949
 1796SOL    HW1 5954   0.360   3.045   7.893
 1796SOL    HW2 5955   0.371   2.882   7.889
 1797SOL     OW 5956   1.252   3.210   7.836
 1797SOL    HW1 5957   1.302   3.287   7.876
 1797SOL    HW2 5958   1.157   3.212   7.868
 1798SOL     OW 5959   1.582   2.501   7.920
 1798SOL    HW1 5960   1.551   2.562   7.993
 1798SOL    HW2 5961   1.632   2.553   7.851
 1799SOL     OW 5962   1.209   2.387   7.723
 1799SOL    HW1 5963   1.222   2.303   7.777
 1799SOL    HW2 5964   1.180   2.461   7.783
 1800SOL     OW 5965   1.622   2.229   7.822
 1800SOL    HW1 5966   1.624   2.153   7.886
 1800SOL    HW2 5967   1.574   2.306   7.862
 1801SOL     OW 5968   1.540   2.136   7.573
 1801SOL    HW1 5969   1.479   2.061   7.596
 1801SOL    HW2 5970   1.562   2.188   7.656
 1802SOL     OW 5971   1.303   2.700   7.490
 1802SOL    HW1 5972   1.337   2.607   7.505
 1802SOL    HW2 5973   1.321   2.727   7.395
 1803SOL     OW 5974   0.008   3.188   7.648
 1803SOL    HW1 5975  -0.085   3.209   7.617
 1803SOL    HW2 5976   0.018   3.089   7.661
 1804SOL     OW 5977   0.815   2.434   7.773
 1804SOL    HW1 5978   0.822   2.345   7.727
 1804SOL    HW2 5979   0.721   2.468   7.765
 1805SOL     OW 5980   0.473   2.362   7.639
 1805SOL    HW1 5981   0.534   2.442   7.643
 1805SOL    HW2 5982   0.378   2.393   7.646
 1806SOL     OW 5983   1.302   2.717   7.757
 1806SOL    HW1 5984   1.216   2.686   7.799
 1806SOL    HW2 5985   1.298   2.703   7.658
 1807SOL     OW 5986   1.726   1.997   7.971
 1807SOL    HW1 5987   1.799   1.980   7.904
 1807SOL    HW2 5988   1.695   1.910   8.009
 1808SOL     OW 5989   1.388   3.435   7.925
 1808SOL    HW1 5990   1.455   3.447   7.851
 1808SOL    HW2 5991   1.348   3.524   7.948
 1809SOL     OW 5992   0.672   3.478   7.602
 1809SOL    HW1 5993   0.681   3.488   7.503
 1809SOL    HW2 5994   0.632   3.389   7.623
 1810SOL     OW 5995   1.194   3.474   7.479
 1810SOL    HW1 5996   1.200   3.381   7.516
 1810SOL    HW2 5997   1.135   3.474   7.399
 1811SOL     OW 5998   0.916   2.772   7.739
 1811SOL    HW1 5999   0.979   2.810   7.671
 1811SOL    HW2 6000   0.956   2.689   7.778
 1812SOL     OW 6001   1.504   3.469   7.492
 1812SOL    HW1 6002   1.412   3.506   7.499
 1812SOL    HW2 6003   1.542   3.489   7.402
 1813SOL     OW 6004   0.590   3.349   7.939
 1813SOL    HW1 6005   0.632   3.291   7.869
 1813SOL    HW2 6006   0.546   3.428   7.895
 1814SOL     OW 6007   0.255   3.210   7.738
 1814SOL    HW1 6008   0.159   3.211   7.711
 1814SOL    HW2 6009   0.267   3.263   7.822
 1815SOL     OW 6010   0.075   2.207   7.481
 1815SOL    HW1 6011  -0.017   2.179   7.452
 1815SOL    HW2 6012   0.106   2.284   7.425
 1816SOL     OW 6013   0.072   2.028   7.766
 1816SOL    HW1 6014   0.055   2.111   7.712
 1816SOL    HW2 6015   0.162   1.991   7.744
 1817SOL     OW 6016   1.183   3.197   7.567
 1817SOL    HW1 6017   1.084   3.186   7.569
 1817SOL    HW2 6018   1.217   3.212   7.660
 1818SOL     OW 6019   1.225   2.187   7.897
 1818SOL    HW1 6020   1.290   2.113   7.886
 1818SOL    HW2 6021   1.245   2.237   7.981
 1819SOL     OW 6022   0.594   2.607   8.100
 1819SOL    HW1 6023   0.644   2.692   8.081
 1819SOL    HW2 6024   0.506   2.609   8.052
 1820SOL     OW 6025   0.859   3.236   7.464
 1820SOL    HW1 6026   0.813   3.251   7.552
 1820SOL    HW2 6027   0.903   3.321   7.434
 1821SOL     OW 6028   1.083   2.846   7.535
 1821SOL    HW1 6029   1.060   2.899   7.453
 1821SOL    HW2 6030   1.164   2.790   7.516
 1822SOL     OW 6031   0.428   2.286   7.968
 1822SOL    HW1 6032   0.458   2.214   7.906
 1822SOL    HW2 6033   0.389   2.246   8.051
 1823SOL     OW 6034   0.770   3.192   7.749
 1823SOL    HW1 6035   0.724   3.105   7.766
 1823SOL    HW2 6036   0.861   3.189   7.790
 1824SOL     OW 6037   1.352   1.914   7.616
 1824SOL    HW1 6038   1.387   1.873   7.532
 1824SOL    HW2 6039   1.262   1.876   7.636
 1825SOL     OW 6040   0.039   2.939   7.748
 1825SOL    HW1 6041   0.138   2.928   7.739
 1825SOL    HW2 6042  -0.001   2.853   7.780
 1826SOL     OW 6043   0.875   3.508   7.785
 1826SOL    HW1 6044   0.798   3.473   7.731
 1826SOL    HW2 6045   0.843   3.579   7.847
 1827SOL     OW 6046   0.230   4.352   0.113
 1827SOL    HW1 6047   0.137   4.350   0.150
 1827SOL    HW2 6048   0.231   4.313   0.021
 1828SOL     OW 6049   0.225   3.999   0.996
 1828SOL    HW1 6050   0.260   3.982   1.088
 1828SOL    HW2 6051   0.137   3.954   0.984
 1829SOL     OW 6052   0.019   4.092   0.647
 1829SOL    HW1 6053  -0.063   4.135   0.686
 1829SOL    HW2 6054  -0.009   4.019   0.584
 1830SOL     OW 6055   0.569   4.999   1.165
 1830SOL    HW1 6056   0.476   4.992   1.128
 1830SOL    HW2 6057   0.580   5.088   1.209
 1831SOL     OW 6058   1.555   5.235   0.703
 1831SOL    HW1 6059   1.498   5.219   0.784
 1831SOL    HW2 6060   1.496   5.245   0.623
 1832SOL     OW 6061   1.135   4.427   0.717
 1832SOL    HW1 6062   1.192   4.505   0.692
 1832SOL    HW2 6063   1.075   4.453   0.793
 1833SOL     OW 6064   1.755   4.331   0.231
 1833SOL    HW1 6065   1.743   4.318   0.132
 1833SOL    HW2 6066   1.725   4.250   0.280
 1834SOL     OW 6067   0.768   4.868   1.023
 1834SOL    HW1 6068   0.690   4.885   1.083
 1834SOL    HW2 6069   0.802   4.955   0.987
 1835SOL     OW 6070   0.850   4.522   1.823
 1835SOL    HW1 6071   0.846   4.598   1.888
 1835SOL    HW2 6072   0.872   4.558   1.732
 1836SOL     OW 6073   0.685   4.736   0.665
 1836SOL    HW1 6074   0.754   4.720   0.735
 1836SOL    HW2 6075   0.612   4.793   0.703
 1837SOL     OW 6076   0.686   4.885   1.803
 1837SOL    HW1 6077   0.746   4.964   1.817
 1837SOL    HW2 6078   0.600   4.916   1.762
 1838SOL     OW 6079   0.335   5.159   1.061
 1838SOL    HW1 6080   0.257   5.128   1.008
 1838SOL    HW2 6081   0.393   5.217   1.004
 1839SOL     OW 6082   1.460   5.229   1.339
 1839SOL    HW1 6083   1.484   5.323   1.365
 1839SOL    HW2 6084   1.444   5.175   1.421
 1840SOL     OW 6085   0.438   4.116   1.499
 1840SOL    HW1 6086   0.520   4.060   1.508
 1840SOL    HW2 6087   0.357   4.058   1.503
 1841SOL     OW 6088   1.603   4.171   0.737
 1841SOL    HW1 6089   1.529   4.217   0.687
 1841SOL    HW2 6090   1.654   4.239   0.790
 1842SOL     OW 6091   1.127   5.065   1.690
 1842SOL    HW1 6092   1.174   5.065   1.778
 1842SOL    HW2 6093   1.079   4.978   1.679
 1843SOL     OW 6094   0.230   5.158   0.538
 1843SOL    HW1 6095   0.204   5.254   0.538
 1843SOL    HW2 6096   0.159   5.104   0.583
 1844SOL     OW 6097   0.240   4.815   0.886
 1844SOL    HW1 6098   0.254   4.731   0.938
 1844SOL    HW2 6099   0.185   4.879   0.941
 1845SOL     OW 6100   0.606   4.688   0.123
 1845SOL    HW1 6101   0.613   4.772   0.069
 1845SOL    HW2 6102   0.652   4.701   0.211
 1846SOL     OW 6103   1.594   3.838   1.480
 1846SOL    HW1 6104   1.576   3.905   1.408
 1846SOL    HW2 6105   1.591   3.884   1.569
 1847SOL     OW 6106   0.122   4.367   0.563
 1847SOL    HW1 6107   0.077   4.279   0.580
 1847SOL    HW2 6108   0.121   4.421   0.647
 1848SOL     OW 6109   0.027   5.320   0.117
 1848SOL    HW1 6110   0.008   5.224   0.138
 1848SOL    HW2 6111  -0.006   5.378   0.192
 1849SOL     OW 6112   1.689   4.646   0.612
 1849SOL    HW1 6113   1.784   4.617   0.620
 1849SOL    HW2 6114   1.681   4.711   0.537
 1850SOL     OW 6115   1.641   4.832   0.432
 1850SOL    HW1 6116   1.727   4.834   0.380
 1850SOL    HW2 6117   1.655   4.879   0.520
 1851SOL     OW 6118   0.113   4.461   1.597
 1851SOL    HW1 6119   0.201   4.448   1.642
 1851SOL    HW2 6120   0.100   4.558   1.575
 1852SOL     OW 6121   0.613   5.089   0.726
 1852SOL    HW1 6122   0.564   5.002   0.735
 1852SOL    HW2 6123   0.590   5.132   0.639
 1853SOL     OW 6124   1.293   4.952   1.423
 1853SOL    HW1 6125   1.330   4.879   1.365
 1853SOL    HW2 6126   1.345   4.957   1.508
 1854SOL     OW 6127   0.809   3.728   0.502
 1854SOL    HW1 6128   0.849   3.819   0.493
 1854SOL    HW2 6129   0.709   3.736   0.508
 1855SOL     OW 6130   0.197   4.700   1.264
 1855SOL    HW1 6131   0.286   4.655   1.250
 1855SOL    HW2 6132   0.124   4.635   1.245
 1856SOL     OW 6133   1.525   4.723   0.190
 1856SOL    HW1 6134   1.462   4.647   0.203
 1856SOL    HW2 6135   1.573   4.741   0.276
 1857SOL     OW 6136   0.317   3.975   1.801
 1857SOL    HW1 6137   0.388   4.046   1.807
 1857SOL    HW2 6138   0.229   4.014   1.829
 1858SOL     OW 6139   1.466   5.141   0.953
 1858SOL    HW1 6140   1.407   5.147   1.033
 1858SOL    HW2 6141   1.451   5.053   0.907
 1859SOL     OW 6142   0.598   4.453   0.270
 1859SOL    HW1 6143   0.622   4.522   0.202
 1859SOL    HW2 6144   0.520   4.486   0.324
 1860SOL     OW 6145   1.281   4.069   0.944
 1860SOL    HW1 6146   1.195   4.019   0.931
 1860SOL    HW2 6147   1.343   4.015   1.000
 1861SOL     OW 6148   0.807   4.329   1.465
 1861SOL    HW1 6149   0.760   4.326   1.554
 1861SOL    HW2 6150   0.756   4.274   1.399
 1862SOL     OW 6151   1.394   4.193   1.674
 1862SOL    HW1 6152   1.374   4.236   1.762
 1862SOL    HW2 6153   1.472   4.131   1.683
 1863SOL     OW 6154   0.973   4.614   1.572
 1863SOL    HW1 6155   1.019   4.530   1.543
 1863SOL    HW2 6156   0.917   4.648   1.497
 1864SOL     OW 6157   0.991   4.134   1.242
 1864SOL    HW1 6158   0.914   4.168   1.296
 1864SOL    HW2 6159   0.957   4.083   1.163
 1865SOL     OW 6160   1.041   4.425   0.429
 1865SOL    HW1 6161   1.067   4.421   0.525
 1865SOL    HW2 6162   0.956   4.374   0.415
 1866SOL     OW 6163   0.076   4.535   0.789
 1866SOL    HW1 6164   0.175   4.523   0.798
 1866SOL    HW2 6165   0.052   4.630   0.810
 1867SOL     OW 6166   0.865   4.072   0.195
 1867SOL    HW1 6167   0.924   4.135   0.146
 1867SOL    HW2 6168   0.884   3.978   0.166
 1868SOL     OW 6169   1.719   4.309   1.831
 1868SOL    HW1 6170   1.693   4.398   1.795
 1868SOL    HW2 6171   1.717   4.241   1.758
 1869SOL     OW 6172   1.362   4.868   0.545
 1869SOL    HW1 6173   1.445   4.839   0.497
 1869SOL    HW2 6174   1.313   4.935   0.489
 1870SOL     OW 6175   0.550   3.920   0.885
 1870SOL    HW1 6176   0.545   3.915   0.985
 1870SOL    HW2 6177   0.552   4.016   0.856
 1871SOL     OW 6178   1.008   5.180   0.477
 1871SOL    HW1 6179   0.962   5.252   0.425
 1871SOL    HW2 6180   1.004   5.200   0.575
 1872SOL     OW 6181   1.795   4.790   0.873
 1872SOL    HW1 6182   1.733   4.775   0.797
 1872SOL    HW2 6183   1.743   4.801   0.958
 1873SOL     OW 6184   1.227   5.274   1.506
 1873SOL    HW1 6185   1.233   5.197   1.570
 1873SOL    HW2 6186   1.175   5.248   1.426
 1874SOL     OW 6187   0.321   4.667   0.242
 1874SOL    HW1 6188   0.403   4.706   0.200
 1874SOL    HW2 6189   0.294   4.585   0.193
 1875SOL     OW 6190   1.458   4.459   0.728
 1875SOL    HW1 6191   1.453   4.394   0.803
 1875SOL    HW2 6192   1.538   4.518   0.741
 1876SOL     OW 6193   0.461   4.990   1.727
 1876SOL    HW1 6194   0.411   4.991   1.641
 1876SOL    HW2 6195   0.398   4.972   1.803
 1877SOL     OW 6196   1.111   5.500   0.237
 1877SOL    HW1 6197   1.051   5.438   0.287
 1877SOL    HW2 6198   1.142   5.456   0.152
 1878SOL     OW 6199   0.202   4.009   1.498
 1878SOL    HW1 6200   0.122   4.069   1.485
 1878SOL    HW2 6201   0.192   3.960   1.584
 1879SOL     OW 6202   1.632   5.101   0.081
 1879SOL    HW1 6203   1.600   5.195   0.071
 1879SOL    HW2 6204   1.556   5.038   0.069
 1880SOL     OW 6205   1.400   3.831   0.426
 1880SOL    HW1 6206   1.376   3.794   0.336
 1880SOL    HW2 6207   1.499   3.847   0.430
 1881SOL     OW 6208   0.382   4.424   0.480
 1881SOL    HW1 6209   0.427   4.334   0.477
 1881SOL    HW2 6210   0.288   4.413   0.513
 1882SOL     OW 6211   1.547   3.946   1.729
 1882SOL    HW1 6212   1.542   3.983   1.821
 1882SOL    HW2 6213   1.475   3.877   1.717
 1883SOL     OW 6214   0.614   3.846   0.117
 1883SOL    HW1 6215   0.712   3.824   0.124
 1883SOL    HW2 6216   0.583   3.829   0.024
 1884SOL     OW 6217   0.781   3.988   1.749
 1884SOL    HW1 6218   0.848   3.927   1.792
 1884SOL    HW2 6219   0.708   4.007   1.814
 1885SOL     OW 6220   1.351   4.314   1.433
 1885SOL    HW1 6221   1.379   4.271   1.518
 1885SOL    HW2 6222   1.376   4.410   1.434
 1886SOL     OW 6223   0.803   5.126   0.924
 1886SOL    HW1 6224   0.893   5.140   0.882
 1886SOL    HW2 6225   0.732   5.128   0.853
 1887SOL     OW 6226   0.922   4.227   0.899
 1887SOL    HW1 6227   0.897   4.218   0.803
 1887SOL    HW2 6228   0.970   4.145   0.930
 1888SOL     OW 6229   0.539   3.788   0.512
 1888SOL    HW1 6230   0.458   3.789   0.570
 1888SOL    HW2 6231   0.542   3.871   0.457
 1889SOL     OW 6232   1.434   4.912   0.041
 1889SOL    HW1 6233   1.466   4.836   0.098
 1889SOL    HW2 6234   1.342   4.939   0.071
 1890SOL     OW 6235   0.297   3.759   0.171
 1890SOL    HW1 6236   0.346   3.843   0.150
 1890SOL    HW2 6237   0.359   3.694   0.216
 1891SOL     OW 6238   0.935   3.960   0.480
 1891SOL    HW1 6239   0.887   4.001   0.402
 1891SOL    HW2 6240   1.034   3.958   0.461
 1892SOL     OW 6241   1.076   4.407   1.464
 1892SOL    HW1 6242   0.996   4.346   1.467
 1892SOL    HW2 6243   1.157   4.354   1.440
 1893SOL     OW 6244   1.227   5.294   0.793
 1893SOL    HW1 6245   1.248   5.368   0.728
 1893SOL    HW2 6246   1.295   5.294   0.866
 1894SOL     OW 6247   0.459   4.876   0.741
 1894SOL    HW1 6248   0.388   4.849   0.806
 1894SOL    HW2 6249   0.433   4.848   0.648
 1895SOL     OW 6250   1.032   4.273   0.016
 1895SOL    HW1 6251   0.991   4.355  -0.023
 1895SOL    HW2 6252   1.096   4.299   0.089
 1896SOL     OW 6253   0.078   4.280   1.386
 1896SOL    HW1 6254   0.170   4.279   1.345
 1896SOL    HW2 6255   0.072   4.354   1.453
 1897SOL     OW 6256   0.561   3.946   1.147
 1897SOL    HW1 6257   0.599   3.862   1.184
 1897SOL    HW2 6258   0.473   3.965   1.191
 1898SOL     OW 6259   0.866   4.178   0.642
 1898SOL    HW1 6260   0.834   4.250   0.580
 1898SOL    HW2 6261   0.890   4.097   0.589
 1899SOL     OW 6262   1.017   3.763   0.753
 1899SOL    HW1 6263   0.945   3.768   0.684
 1899SOL    HW2 6264   0.993   3.694   0.822
 1900SOL     OW 6265   1.429   4.897   0.867
 1900SOL    HW1 6266   1.374   4.813   0.860
 1900SOL    HW2 6267   1.455   4.926   0.775
 1901SOL     OW 6268   1.466   4.314   0.992
 1901SOL    HW1 6269   1.436   4.219   0.999
 1901SOL    HW2 6270   1.539   4.330   1.058
 1902SOL     OW 6271   1.857   4.557   0.377
 1902SOL    HW1 6272   1.899   4.493   0.441
 1902SOL    HW2 6273   1.819   4.506   0.299
 1903SOL     OW 6274   0.488   5.109   0.174
 1903SOL    HW1 6275   0.401   5.094   0.221
 1903SOL    HW2 6276   0.471   5.135   0.079
 1904SOL     OW 6277   1.664   5.004   0.657
 1904SOL    HW1 6278   1.763   5.012   0.671
 1904SOL    HW2 6279   1.619   5.088   0.688
 1905SOL     OW 6280   1.390   4.299   0.078
 1905SOL    HW1 6281   1.336   4.278   0.159
 1905SOL    HW2 6282   1.481   4.258   0.087
 1906SOL     OW 6283   0.527   3.980   0.328
 1906SOL    HW1 6284   0.554   3.921   0.253
 1906SOL    HW2 6285   0.527   4.075   0.297
 1907SOL     OW 6286   1.754   4.947   1.588
 1907SOL    HW1 6287   1.845   4.908   1.575
 1907SOL    HW2 6288   1.762   5.043   1.612
 1908SOL     OW 6289   1.064   5.071   1.340
 1908SOL    HW1 6290   0.984   5.048   1.395
 1908SOL    HW2 6291   1.147   5.045   1.389
 1909SOL     OW 6292   1.111   4.919   1.100
 1909SOL    HW1 6293   1.071   4.963   1.181
 1909SOL    HW2 6294   1.070   4.956   1.017
 1910SOL     OW 6295   1.638   4.823   1.079
 1910SOL    HW1 6296   1.643   4.904   1.138
 1910SOL    HW2 6297   1.552   4.825   1.028
 1911SOL     OW 6298   0.915   3.813   1.402
 1911SOL    HW1 6299   0.940   3.793   1.307
 1911SOL    HW2 6300   0.987   3.869   1.444
 1912SOL     OW 6301   0.980   4.840   1.719
 1912SOL    HW1 6302   0.881   4.846   1.729
 1912SOL    HW2 6303   1.003   4.760   1.663
 1913SOL     OW 6304   0.705   4.774   0.368
 1913SOL    HW1 6305   0.691   4.781   0.467
 1913SOL    HW2 6306   0.789   4.723   0.350
 1914SOL     OW 6307   0.410   4.537   1.251
 1914SOL    HW1 6308   0.496   4.549   1.301
 1914SOL    HW2 6309   0.368   4.450   1.278
 1915SOL     OW 6310   1.274   4.110   1.262
 1915SOL    HW1 6311   1.295   4.184   1.326
 1915SOL    HW2 6312   1.185   4.127   1.219
 1916SOL     OW 6313   0.064   5.288   1.331
 1916SOL    HW1 6314   0.018   5.370   1.297
 1916SOL    HW2 6315   0.162   5.307   1.340
 1917SOL     OW 6316   0.367   4.824   0.501
 1917SOL    HW1 6317   0.360   4.907   0.445
 1917SOL    HW2 6318   0.371   4.744   0.441
 1918SOL     OW 6319   0.566   4.261   0.865
 1918SOL    HW1 6320   0.578   4.327   0.791
 1918SOL    HW2 6321   0.612   4.295   0.948
 1919SOL     OW 6322   1.252   5.072   0.388
 1919SOL    HW1 6323   1.302   5.149   0.428
 1919SOL    HW2 6324   1.157   5.074   0.420
 1920SOL     OW 6325   1.272   5.169   1.142
 1920SOL    HW1 6326   1.319   5.182   1.229
 1920SOL    HW2 6327   1.206   5.095   1.151
 1921SOL     OW 6328   1.582   4.363   0.472
 1921SOL    HW1 6329   1.551   4.424   0.545
 1921SOL    HW2 6330   1.632   4.415   0.403
 1922SOL     OW 6331   0.354   5.234   1.329
 1922SOL    HW1 6332   0.333   5.190   1.242
 1922SOL    HW2 6333   0.451   5.260   1.332
 1923SOL     OW 6334   0.402   4.475   1.598
 1923SOL    HW1 6335   0.470   4.530   1.551
 1923SOL    HW2 6336   0.442   4.387   1.625
 1924SOL     OW 6337   1.587   4.503   1.670
 1924SOL    HW1 6338   1.495   4.541   1.665
 1924SOL    HW2 6339   1.647   4.550   1.605
 1925SOL     OW 6340   1.013   3.829   1.770
 1925SOL    HW1 6341   1.019   3.914   1.718
 1925SOL    HW2 6342   1.045   3.753   1.713
 1926SOL     OW 6343   0.504   3.774   1.740
 1926SOL    HW1 6344   0.462   3.717   1.670
 1926SOL    HW2 6345   0.438   3.843   1.772
 1927SOL     OW 6346   0.573   4.594   1.029
 1927SOL    HW1 6347   0.617   4.683   1.020
 1927SOL    HW2 6348   0.510   4.594   1.106
 1928SOL     OW 6349   1.360   4.586   1.045
 1928SOL    HW1 6350   1.285   4.586   0.979
 1928SOL    HW2 6351   1.397   4.494   1.054
 1929SOL     OW 6352   1.209   4.249   0.275
 1929SOL    HW1 6353   1.222   4.165   0.329
 1929SOL    HW2 6354   1.180   4.323   0.335
 1930SOL     OW 6355   0.307   3.937   1.231
 1930SOL    HW1 6356   0.284   3.974   1.321
 1930SOL    HW2 6357   0.277   3.842   1.225
 1931SOL     OW 6358   0.037   5.034   1.282
 1931SOL    HW1 6359   0.090   4.985   1.350
 1931SOL    HW2 6360   0.059   5.132   1.287
 1932SOL     OW 6361   0.732   4.358   1.064
 1932SOL    HW1 6362   0.791   4.332   0.988
 1932SOL    HW2 6363   0.704   4.454   1.053
 1933SOL     OW 6364   1.728   4.659   1.854
 1933SOL    HW1 6365   1.682   4.652   1.765
 1933SOL    HW2 6366   1.666   4.703   1.920
 1934SOL     OW 6367   0.307   3.787   0.618
 1934SOL    HW1 6368   0.296   3.881   0.651
 1934SOL    HW2 6369   0.302   3.724   0.695
 1935SOL     OW 6370   1.622   4.091   0.374
 1935SOL    HW1 6371   1.624   4.015   0.438
 1935SOL    HW2 6372   1.574   4.168   0.414
 1936SOL     OW 6373   1.023   4.490   0.966
 1936SOL    HW1 6374   1.038   4.511   1.062
 1936SOL    HW2 6375   0.993   4.395   0.957
 1937SOL     OW 6376   1.859   5.242   1.605
 1937SOL    HW1 6377   1.873   5.269   1.510
 1937SOL    HW2 6378   1.942   5.264   1.658
 1938SOL     OW 6379   0.350   4.622   1.804
 1938SOL    HW1 6380   0.426   4.666   1.852
 1938SOL    HW2 6381   0.385   4.575   1.722
 1939SOL     OW 6382   1.540   3.998   0.125
 1939SOL    HW1 6383   1.479   3.923   0.148
 1939SOL    HW2 6384   1.562   4.050   0.208
 1940SOL     OW 6385   1.303   4.562   0.042
 1940SOL    HW1 6386   1.337   4.469   0.057
 1940SOL    HW2 6387   1.321   4.589  -0.053
 1941SOL     OW 6388   1.068   5.057   0.849
 1941SOL    HW1 6389   1.075   4.973   0.794
 1941SOL    HW2 6390   1.130   5.126   0.813
 1942SOL     OW 6391   0.319   4.534   0.949
 1942SOL    HW1 6392   0.412   4.570   0.954
 1942SOL    HW2 6393   0.313   4.449   1.001
 1943SOL     OW 6394   0.339   4.233   1.006
 1943SOL    HW1 6395   0.287   4.150   0.989
 1943SOL    HW2 6396   0.416   4.238   0.942
 1944SOL     OW 6397   1.138   4.104   1.678
 1944SOL    HW1 6398   1.093   4.167   1.742
 1944SOL    HW2 6399   1.231   4.135   1.661
 1945SOL     OW 6400   1.160   3.931   1.477
 1945SOL    HW1 6401   1.160   3.995   1.554
 1945SOL    HW2 6402   1.188   3.979   1.394
 1946SOL     OW 6403   0.008   5.050   0.200
 1946SOL    HW1 6404  -0.085   5.071   0.169
 1946SOL    HW2 6405   0.018   4.951   0.213
 1947SOL     OW 6406   1.002   4.520   1.238
 1947SOL    HW1 6407   1.043   4.488   1.324
 1947SOL    HW2 6408   0.906   4.493   1.235
 1948SOL     OW 6409   0.040   4.268   1.114
 1948SOL    HW1 6410   0.125   4.235   1.073
 1948SOL    HW2 6411   0.053   4.283   1.212
 1949SOL     OW 6412   0.189   4.244   1.722
 1949SOL    HW1 6413   0.248   4.204   1.652
 1949SOL    HW2 6414   0.131   4.315   1.681
 1950SOL     OW 6415   1.369   4.674   1.660
 1950SOL    HW1 6416   1.408   4.763   1.680
 1950SOL    HW2 6417   1.379   4.654   1.563
 1951SOL     OW 6418   0.815   4.296   0.325
 1951SOL    HW1 6419   0.822   4.207   0.279
 1951SOL    HW2 6420   0.721   4.330   0.317
 1952SOL     OW 6421   1.657   4.328   1.206
 1952SOL    HW1 6422   1.619   4.259   1.268
 1952SOL    HW2 6423   1.739   4.292   1.162
 1953SOL     OW 6424   0.252   5.288   1.744
 1953SOL    HW1 6425   0.222   5.345   1.820
 1953SOL    HW2 6426   0.245   5.191   1.770
 1954SOL     OW 6427   0.671   4.188   1.269
 1954SOL    HW1 6428   0.637   4.099   1.239
 1954SOL    HW2 6429   0.697   4.242   1.189
 1955SOL     OW 6430   0.473   4.224   0.191
 1955SOL    HW1 6431   0.534   4.304   0.195
 1955SOL    HW2 6432   0.378   4.255   0.198
 1956SOL     OW 6433   0.159   4.861   1.466
 1956SOL    HW1 6434   0.181   4.800   1.542
 1956SOL    HW2 6435   0.169   4.812   1.380
 1957SOL     OW 6436   1.347   4.783   1.234
 1957SOL    HW1 6437   1.371   4.720   1.160
 1957SOL    HW2 6438   1.257   4.823   1.216
 1958SOL     OW 6439   1.302   4.579   0.309
 1958SOL    HW1 6440   1.216   4.548   0.351
 1958SOL    HW2 6441   1.298   4.565   0.210
 1959SOL     OW 6442   0.083   4.982   1.022
 1959SOL    HW1 6443   0.078   4.981   1.122
 1959SOL    HW2 6444   0.000   4.941   0.984
 1960SOL     OW 6445   0.688   5.386   1.716
 1960SOL    HW1 6446   0.632   5.467   1.725
 1960SOL    HW2 6447   0.740   5.390   1.630
 1961SOL     OW 6448   0.903   3.810   0.133
 1961SOL    HW1 6449   0.954   3.811   0.047
 1961SOL    HW2 6450   0.959   3.768   0.204
 1962SOL     OW 6451   1.726   3.859   0.523
 1962SOL    HW1 6452   1.799   3.842   0.456
 1962SOL    HW2 6453   1.695   3.772   0.561
 1963SOL     OW 6454   1.280   4.651   0.672
 1963SOL    HW1 6455   1.340   4.570   0.674
 1963SOL    HW2 6456   1.320   4.720   0.612
 1964SOL     OW 6457   0.830   4.997   1.422
 1964SOL    HW1 6458   0.825   5.030   1.517
 1964SOL    HW2 6459   0.744   5.016   1.376
 1965SOL     OW 6460   1.841   3.899   0.963
 1965SOL    HW1 6461   1.880   3.814   0.927
 1965SOL    HW2 6462   1.743   3.901   0.944
 1966SOL     OW 6463   0.263   4.050   0.720
 1966SOL    HW1 6464   0.184   4.101   0.686
 1966SOL    HW2 6465   0.254   4.035   0.818
 1967SOL     OW 6466   1.194   5.336   0.031
 1967SOL    HW1 6467   1.200   5.243   0.068
 1967SOL    HW2 6468   1.135   5.336  -0.049
 1968SOL     OW 6469   0.822   4.726   1.372
 1968SOL    HW1 6470   0.862   4.725   1.280
 1968SOL    HW2 6471   0.832   4.818   1.412
 1969SOL     OW 6472   0.916   4.634   0.291
 1969SOL    HW1 6473   0.979   4.672   0.223
 1969SOL    HW2 6474   0.956   4.551   0.330
 1970SOL     OW 6475   0.372   5.012   1.490
 1970SOL    HW1 6476   0.359   5.105   1.456
 1970SOL    HW2 6477   0.288   4.960   1.477
 1971SOL     OW 6478   1.614   5.016   1.289
 1971SOL    HW1 6479   1.674   5.019   1.369
 1971SOL    HW2 6480   1.539   5.080   1.302
 1972SOL     OW 6481   1.039   4.822   0.696
 1972SOL    HW1 6482   0.969   4.775   0.750
 1972SOL    HW2 6483   1.098   4.754   0.653
 1973SOL     OW 6484   1.014   3.960   0.971
 1973SOL    HW1 6485   1.006   3.924   0.878
 1973SOL    HW2 6486   1.012   3.884   1.036
 1974SOL     OW 6487   1.709   4.109   1.381
 1974SOL    HW1 6488   1.782   4.178   1.385
 1974SOL    HW2 6489   1.737   4.034   1.322
 1975SOL     OW 6490   0.255   5.072   0.290
 1975SOL    HW1 6491   0.159   5.073   0.263
 1975SOL    HW2 6492   0.267   5.125   0.374
 1976SOL     OW 6493   0.105   4.737   1.726
 1976SOL    HW1 6494   0.028   4.704   1.780
 1976SOL    HW2 6495   0.190   4.707   1.768
 1977SOL     OW 6496   0.672   3.927   1.489
 1977SOL    HW1 6497   0.762   3.911   1.449
 1977SOL    HW2 6498   0.680   3.932   1.588
 1978SOL     OW 6499   0.075   4.069   0.033
 1978SOL    HW1 6500  -0.017   4.041   0.004
 1978SOL    HW2 6501   0.106   4.146  -0.023
 1979SOL     OW 6502   1.440   4.580   1.398
 1979SOL    HW1 6503   1.383   4.632   1.335
 1979SOL    HW2 6504   1.536   4.592   1.374
 1980SOL     OW 6505   0.072   3.890   0.318
 1980SOL    HW1 6506   0.055   3.973   0.264
 1980SOL    HW2 6507   0.162   3.853   0.296
 1981SOL     OW 6508   1.183   5.059   0.119
 1981SOL    HW1 6509   1.084   5.048   0.121
 1981SOL    HW2 6510   1.217   5.074   0.212
 1982SOL     OW 6511   0.613   4.566   1.431
 1982SOL    HW1 6512   0.669   4.647   1.414
 1982SOL    HW2 6513   0.672   4.486   1.434
 1983SOL     OW 6514   0.716   4.289   1.708
 1983SOL    HW1 6515   0.735   4.354   1.782
 1983SOL    HW2 6516   0.776   4.209   1.717
 1984SOL     OW 6517   1.450   4.944   1.633
 1984SOL    HW1 6518   1.441   4.934   1.732
 1984SOL    HW2 6519   1.546   4.937   1.607
 1985SOL     OW 6520   1.674   4.607   1.254
 1985SOL    HW1 6521   1.647   4.518   1.217
 1985SOL    HW2 6522   1.675   4.675   1.181
 1986SOL     OW 6523   1.225   4.049   0.449
 1986SOL    HW1 6524   1.290   3.975   0.438
 1986SOL    HW2 6525   1.245   4.099   0.533
 1987SOL     OW 6526   0.594   4.469   0.652
 1987SOL    HW1 6527   0.644   4.554   0.633
 1987SOL    HW2 6528   0.506   4.471   0.604
 1988SOL     OW 6529   1.777   4.066   1.642
 1988SOL    HW1 6530   1.760   4.097   1.548
 1988SOL    HW2 6531   1.693   4.029   1.680
 1989SOL     OW 6532   1.730   4.658   1.517
 1989SOL    HW1 6533   1.768   4.749   1.532
 1989SOL    HW2 6534   1.722   4.641   1.418
 1990SOL     OW 6535   0.859   5.098   0.016
 1990SOL    HW1 6536   0.813   5.113   0.104
 1990SOL    HW2 6537   0.903   5.183  -0.014
 1991SOL     OW 6538   0.859   4.680   0.861
 1991SOL    HW1 6539   0.913   4.611   0.909
 1991SOL    HW2 6540   0.827   4.749   0.927
 1992SOL     OW 6541   1.083   4.708   0.087
 1992SOL    HW1 6542   1.060   4.761   0.005
 1992SOL    HW2 6543   1.164   4.652   0.068
 1993SOL     OW 6544   0.221   5.038   1.844
 1993SOL    HW1 6545   0.156   4.965   1.823
 1993SOL    HW2 6546   0.225   5.052   1.942
 1994SOL     OW 6547   0.079   4.964   0.653
 1994SOL    HW1 6548   0.078   4.917   0.741
 1994SOL    HW2 6549   0.161   4.936   0.602
 1995SOL     OW 6550   0.672   5.115   1.624
 1995SOL    HW1 6551   0.594   5.065   1.662
 1995SOL    HW2 6552   0.669   5.210   1.655
 1996SOL     OW 6553   1.824   3.916   1.227
 1996SOL    HW1 6554   1.820   3.826   1.271
 1996SOL    HW2 6555   1.827   3.905   1.128
 1997SOL     OW 6556   0.428   4.148   0.520
 1997SOL    HW1 6557   0.458   4.076   0.458
 1997SOL    HW2 6558   0.389   4.108   0.603
 1998SOL     OW 6559   1.705   5.211   1.104
 1998SOL    HW1 6560   1.612   5.186   1.077
 1998SOL    HW2 6561   1.731   5.161   1.186
 1999SOL     OW 6562   0.317   4.271   1.280
 1999SOL    HW1 6563   0.355   4.212   1.352
 1999SOL    HW2 6564   0.357   4.245   1.192
 2000SOL     OW 6565   1.424   3.938   1.112
 2000SOL    HW1 6566   1.476   3.873   1.167
 2000SOL    HW2 6567   1.375   4.001   1.173
 2001SOL     OW 6568   1.001   3.758   1.154
 2001SOL    HW1 6569   0.938   3.686   1.123
 2001SOL    HW2 6570   1.094   3.722   1.154
 2002SOL     OW 6571   0.770   5.054   0.301
 2002SOL    HW1 6572   0.724   4.967   0.318
 2002SOL    HW2 6573   0.861   5.051   0.342
 2003SOL     OW 6574   0.618   5.291   1.284
 2003SOL    HW1 6575   0.613   5.373   1.341
 2003SOL    HW2 6576   0.707   5.288   1.239
 2004SOL     OW 6577   1.352   3.776   0.168
 2004SOL    HW1 6578   1.387   3.735   0.084
 2004SOL    HW2 6579   1.262   3.738   0.188
 2005SOL     OW 6580   1.300   4.177   0.691
 2005SOL    HW1 6581   1.241   4.257   0.695
 2005SOL    HW2 6582   1.315   4.142   0.784
 2006SOL     OW 6583   1.593   3.945   0.882
 2006SOL    HW1 6584   1.509   3.944   0.936
 2006SOL    HW2 6585   1.595   4.028   0.826
 2007SOL     OW 6586   0.039   4.801   0.300
 2007SOL    HW1 6587   0.138   4.790   0.291
 2007SOL    HW2 6588  -0.001   4.715   0.332
 2008SOL     OW 6589   0.230   4.352   1.975
 2008SOL    HW1 6590   0.137   4.350   2.012
 2008SOL    HW2 6591   0.231   4.313   1.883
 2009SOL     OW 6592   0.225   3.999   2.858
 2009SOL    HW1 6593   0.260   3.982   2.950
 2009SOL    HW2 6594   0.137   3.954   2.846
 2010SOL     OW 6595   0.019   4.092   2.509
 2010SOL    HW1 6596  -0.063   4.135   2.548
 2010SOL    HW2 6597  -0.009   4.019   2.446
 2011SOL     OW 6598   0.569   4.999   3.027
 2011SOL    HW1 6599   0.476   4.992   2.990
 2011SOL    HW2 6600   0.580   5.088   3.071
 2012SOL     OW 6601   1.555   5.235   2.565
 2012SOL    HW1 6602   1.498   5.219   2.646
 2012SOL    HW2 6603   1.496   5.245   2.485
 2013SOL     OW 6604   1.135   4.427   2.579
 2013SOL    HW1 6605   1.192   4.505   2.554
 2013SOL    HW2 6606   1.075   4.453   2.655
 2014SOL     OW 6607   1.755   4.331   2.093
 2014SOL    HW1 6608   1.743   4.318   1.994
 2014SOL    HW2 6609   1.725   4.250   2.142
 2015SOL     OW 6610   0.768   4.868   2.885
 2015SOL    HW1 6611   0.690   4.885   2.945
 2015SOL    HW2 6612   0.802   4.955   2.849
 2016SOL     OW 6613   0.850   4.522   3.685
 2016SOL    HW1 6614   0.846   4.598   3.750
 2016SOL    HW2 6615   0.872   4.558   3.594
 2017SOL     OW 6616   0.685   4.736   2.527
 2017SOL    HW1 6617   0.754   4.720   2.597
 2017SOL    HW2 6618   0.612   4.793   2.565
 2018SOL     OW 6619   0.686   4.885   3.665
 2018SOL    HW1 6620   0.746   4.964   3.679
 2018SOL    HW2 6621   0.600   4.916   3.624
 2019SOL     OW 6622   0.335   5.159   2.923
 2019SOL    HW1 6623   0.257   5.128   2.870
 2019SOL    HW2 6624   0.393   5.217   2.866
 2020SOL     OW 6625   1.460   5.229   3.201
 2020SOL    HW1 6626   1.484   5.323   3.227
 2020SOL    HW2 6627   1.444   5.175   3.283
 2021SOL     OW 6628   0.438   4.116   3.361
 2021SOL    HW1 6629   0.520   4.060   3.370
 2021SOL    HW2 6630   0.357   4.058   3.365
 2022SOL     OW 6631   1.603   4.171   2.599
 2022SOL    HW1 6632   1.529   4.217   2.549
 2022SOL    HW2 6633   1.654   4.239   2.652
 2023SOL     OW 6634   1.127   5.065   3.552
 2023SOL    HW1 6635   1.174   5.065   3.640
 2023SOL    HW2 6636   1.079   4.978   3.541
 2024SOL     OW 6637   0.230   5.158   2.400
 2024SOL    HW1 6638   0.204   5.254   2.400
 2024SOL    HW2 6639   0.159   5.104   2.445
 2025SOL     OW 6640   0.240   4.815   2.748
 2025SOL    HW1 6641   0.254   4.731   2.800
 2025SOL    HW2 6642   0.185   4.879   2.803
 2026SOL     OW 6643   0.606   4.688   1.985
 2026SOL    HW1 6644   0.613   4.772   1.931
 2026SOL    HW2 6645   0.652   4.701   2.073
 2027SOL     OW 6646   1.594   3.838   3.342
 2027SOL    HW1 6647   1.576   3.905   3.270
 2027SOL    HW2 6648   1.591   3.884   3.431
 2028SOL     OW 6649   0.122   4.367   2.425
 2028SOL    HW1 6650   0.077   4.279   2.442
 2028SOL    HW2 6651   0.121   4.421   2.509
 2029SOL     OW 6652   0.027   5.320   1.979
 2029SOL    HW1 6653   0.008   5.224   2.000
 2029SOL    HW2 6654  -0.006   5.378   2.054
 2030SOL     OW 6655   1.689   4.646   2.474
 2030SOL    HW1 6656   1.784   4.617   2.482
 2030SOL    HW2 6657   1.681   4.711   2.399
 2031SOL     OW 6658   1.641   4.832   2.294
 2031SOL    HW1 6659   1.727   4.834   2.242
 2031SOL    HW2 6660   1.655   4.879   2.382
 2032SOL     OW 6661   0.113   4.461   3.459
 2032SOL    HW1 6662   0.201   4.448   3.504
 2032SOL    HW2 6663   0.100   4.558   3.437
 2033SOL     OW 6664   0.613   5.089   2.588
 2033SOL    HW1 6665   0.564   5.002   2.597
 2033SOL    HW2 6666   0.590   5.132   2.501
 2034SOL     OW 6667   1.293   4.952   3.285
 2034SOL    HW1 6668   1.330   4.879   3.227
 2034SOL    HW2 6669   1.345   4.957   3.370
 2035SOL     OW 6670   0.809   3.728   2.364
 2035SOL    HW1 6671   0.849   3.819   2.355
 2035SOL    HW2 6672   0.709   3.736   2.370
 2036SOL     OW 6673   0.197   4.700   3.126
 2036SOL    HW1 6674   0.286   4.655   3.112
 2036SOL    HW2 6675   0.124   4.635   3.107
 2037SOL     OW 6676   1.525   4.723   2.052
 2037SOL    HW1 6677   1.462   4.647   2.065
 2037SOL    HW2 6678   1.573   4.741   2.138
 2038SOL     OW 6679   0.317   3.975   3.663
 2038SOL    HW1 6680   0.388   4.046   3.669
 2038SOL    HW2 6681   0.229   4.014   3.691
 2039SOL     OW 6682   1.466   5.141   2.815
 2039SOL    HW1 6683   1.407   5.147   2.895
 2039SOL    HW2 6684   1.451   5.053   2.769
 2040SOL     OW 6685   0.598   4.453   2.132
 2040SOL    HW1 6686   0.622   4.522   2.064
 2040SOL    HW2 6687   0.520   4.486   2.186
 2041SOL     OW 6688   1.281   4.069   2.806
 2041SOL    HW1 6689   1.195   4.019   2.793
 2041SOL    HW2 6690   1.343   4.015   2.862
 2042SOL     OW 6691   0.807   4.329   3.327
 2042SOL    HW1 6692   0.760   4.326   3.416
 2042SOL    HW2 6693   0.756   4.274   3.261
 2043SOL     OW 6694   1.394   4.193   3.536
 2043SOL    HW1 6695   1.374   4.236   3.624
 2043SOL    HW2 6696   1.472   4.131   3.545
 2044SOL     OW 6697   0.973   4.614   3.434
 2044SOL    HW1 6698   1.019   4.530   3.405
 2044SOL    HW2 6699   0.917   4.648   3.359
 2045SOL     OW 6700   0.991   4.134   3.104
 2045SOL    HW1 6701   0.914   4.168   3.158
 2045SOL    HW2 6702   0.957   4.083   3.025
 2046SOL     OW 6703   1.041   4.425   2.291
 2046SOL    HW1 6704   1.067   4.421   2.387
 2046SOL    HW2 6705   0.956   4.374   2.277
 2047SOL     OW 6706   0.076   4.535   2.651
 2047SOL    HW1 6707   0.175   4.523   2.660
 2047SOL    HW2 6708   0.052   4.630   2.672
 2048SOL     OW 6709   0.865   4.072   2.057
 2048SOL    HW1 6710   0.924   4.135   2.008
 2048SOL    HW2 6711   0.884   3.978   2.028
 2049SOL     OW 6712   1.719   4.309   3.693
 2049SOL    HW1 6713   1.693   4.398   3.657
 2049SOL    HW2 6714   1.717   4.241   3.620
 2050SOL     OW 6715   1.362   4.868   2.407
 2050SOL    HW1 6716   1.445   4.839   2.359
 2050SOL    HW2 6717   1.313   4.935   2.351
 2051SOL     OW 6718   0.550   3.920   2.747
 2051SOL    HW1 6719   0.545   3.915   2.847
 2051SOL    HW2 6720   0.552   4.016   2.718
 2052SOL     OW 6721   1.008   5.180   2.339
 2052SOL    HW1 6722   0.962   5.252   2.287
 2052SOL    HW2 6723   1.004   5.200   2.437
 2053SOL     OW 6724   1.795   4.790   2.735
 2053SOL    HW1 6725   1.733   4.775   2.659
 2053SOL    HW2 6726   1.743   4.801   2.820
 2054SOL     OW 6727   1.227   5.274   3.368
 2054SOL    HW1 6728   1.233   5.197   3.432
 2054SOL    HW2 6729   1.175   5.248   3.288
 2055SOL     OW 6730   0.321   4.667   2.104
 2055SOL    HW1 6731   0.403   4.706   2.062
 2055SOL    HW2 6732   0.294   4.585   2.055
 2056SOL     OW 6733   1.458   4.459   2.590
 2056SOL    HW1 6734   1.453   4.394   2.665
 2056SOL    HW2 6735   1.538   4.518   2.603
 2057SOL     OW 6736   0.461   4.990   3.589
 2057SOL    HW1 6737   0.411   4.991   3.503
 2057SOL    HW2 6738   0.398   4.972   3.665
 2058SOL     OW 6739   1.111   5.500   2.099
 2058SOL    HW1 6740   1.051   5.438   2.149
 2058SOL    HW2 6741   1.142   5.456   2.014
 2059SOL     OW 6742   0.202   4.009   3.360
 2059SOL    HW1 6743   0.122   4.069   3.347
 2059SOL    HW2 6744   0.192   3.960   3.446
 2060SOL     OW 6745   1.632   5.101   1.943
 2060SOL    HW1 6746   1.600   5.195   1.933
 2060SOL    HW2 6747   1.556   5.038   1.931
 2061SOL     OW 6748   1.400   3.831   2.288
 2061SOL    HW1 6749   1.376   3.794   2.198
 2061SOL    HW2 6750   1.499   3.847   2.292
 2062SOL     OW 6751   0.382   4.424   2.342
 2062SOL    HW1 6752   0.427   4.334   2.339
 2062SOL    HW2 6753   0.288   4.413   2.375
 2063SOL     OW 6754   1.547   3.946   3.591
 2063SOL    HW1 6755   1.542   3.983   3.683
 2063SOL    HW2 6756   1.475   3.877   3.579
 2064SOL     OW 6757   0.614   3.846   1.979
 2064SOL    HW1 6758   0.712   3.824   1.986
 2064SOL    HW2 6759   0.583   3.829   1.886
 2065SOL     OW 6760   0.781   3.988   3.611
 2065SOL    HW1 6761   0.848   3.927   3.654
 2065SOL    HW2 6762   0.708   4.007   3.676
 2066SOL     OW 6763   1.351   4.314   3.295
 2066SOL    HW1 6764   1.379   4.271   3.380
 2066SOL    HW2 6765   1.376   4.410   3.296
 2067SOL     OW 6766   0.803   5.126   2.786
 2067SOL    HW1 6767   0.893   5.140   2.744
 2067SOL    HW2 6768   0.732   5.128   2.715
 2068SOL     OW 6769   0.922   4.227   2.761
 2068SOL    HW1 6770   0.897   4.218   2.665
 2068SOL    HW2 6771   0.970   4.145   2.792
 2069SOL     OW 6772   0.539   3.788   2.374
 2069SOL    HW1 6773   0.458   3.789   2.432
 2069SOL    HW2 6774   0.542   3.871   2.319
 2070SOL     OW 6775   1.434   4.912   1.903
 2070SOL    HW1 6776   1.466   4.836   1.960
 2070SOL    HW2 6777   1.342   4.939   1.933
 2071SOL     OW 6778   0.297   3.759   2.033
 2071SOL    HW1 6779   0.346   3.843   2.012
 2071SOL    HW2 6780   0.359   3.694   2.078
 2072SOL     OW 6781   0.935   3.960   2.342
 2072SOL    HW1 6782   0.887   4.001   2.264
 2072SOL    HW2 6783   1.034   3.958   2.323
 2073SOL     OW 6784   1.076   4.407   3.326
 2073SOL    HW1 6785   0.996   4.346   3.329
 2073SOL    HW2 6786   1.157   4.354   3.302
 2074SOL     OW 6787   1.227   5.294   2.655
 2074SOL    HW1 6788   1.248   5.368   2.590
 2074SOL    HW2 6789   1.295   5.294   2.728
 2075SOL     OW 6790   0.459   4.876   2.603
 2075SOL    HW1 6791   0.388   4.849   2.668
 2075SOL    HW2 6792   0.433   4.848   2.510
 2076SOL     OW 6793   1.032   4.273   1.878
 2076SOL    HW1 6794   0.991   4.355   1.839
 2076SOL    HW2 6795   1.096   4.299   1.951
 2077SOL     OW 6796   0.078   4.280   3.248
 2077SOL    HW1 6797   0.170   4.279   3.207
 2077SOL    HW2 6798   0.072   4.354   3.315
 2078SOL     OW 6799   0.561   3.946   3.009
 2078SOL    HW1 6800   0.599   3.862   3.046
 2078SOL    HW2 6801   0.473   3.965   3.053
 2079SOL     OW 6802   0.866   4.178   2.504
 2079SOL    HW1 6803   0.834   4.250   2.442
 2079SOL    HW2 6804   0.890   4.097   2.451
 2080SOL     OW 6805   1.017   3.763   2.615
 2080SOL    HW1 6806   0.945   3.768   2.546
 2080SOL    HW2 6807   0.993   3.694   2.684
 2081SOL     OW 6808   1.429   4.897   2.729
 2081SOL    HW1 6809   1.374   4.813   2.722
 2081SOL    HW2 6810   1.455   4.926   2.637
 2082SOL     OW 6811   1.466   4.314   2.854
 2082SOL    HW1 6812   1.436   4.219   2.861
 2082SOL    HW2 6813   1.539   4.330   2.920
 2083SOL     OW 6814   1.857   4.557   2.239
 2083SOL    HW1 6815   1.899   4.493   2.303
 2083SOL    HW2 6816   1.819   4.506   2.161
 2084SOL     OW 6817   0.488   5.109   2.036
 2084SOL    HW1 6818   0.401   5.094   2.083
 2084SOL    HW2 6819   0.471   5.135   1.941
 2085SOL     OW 6820   1.664   5.004   2.519
 2085SOL    HW1 6821   1.763   5.012   2.533
 2085SOL    HW2 6822   1.619   5.088   2.550
 2086SOL     OW 6823   1.390   4.299   1.940
 2086SOL    HW1 6824   1.336   4.278   2.021
 2086SOL    HW2 6825   1.481   4.258   1.949
 2087SOL     OW 6826   0.527   3.980   2.190
 2087SOL    HW1 6827   0.554   3.921   2.115
 2087SOL    HW2 6828   0.527   4.075   2.159
 2088SOL     OW 6829   1.754   4.947   3.450
 2088SOL    HW1 6830   1.845   4.908   3.437
 2088SOL    HW2 6831   1.762   5.043   3.474
 2089SOL     OW 6832   1.064   5.071   3.202
 2089SOL    HW1 6833   0.984   5.048   3.257
 2089SOL    HW2 6834   1.147   5.045   3.251
 2090SOL     OW 6835   1.111   4.919   2.962
 2090SOL    HW1 6836   1.071   4.963   3.043
 2090SOL    HW2 6837   1.070   4.956   2.879
 2091SOL     OW 6838   1.638   4.823   2.941
 2091SOL    HW1 6839   1.643   4.904   3.000
 2091SOL    HW2 6840   1.552   4.825   2.890
 2092SOL     OW 6841   0.915   3.813   3.264
 2092SOL    HW1 6842   0.940   3.793   3.169
 2092SOL    HW2 6843   0.987   3.869   3.306
 2093SOL     OW 6844   0.980   4.840   3.581
 2093SOL    HW1 6845   0.881   4.846   3.591
 2093SOL    HW2 6846   1.003   4.760   3.525
 2094SOL     OW 6847   0.705   4.774   2.230
 2094SOL    HW1 6848   0.691   4.781   2.329
 2094SOL    HW2 6849   0.789   4.723   2.212
 2095SOL     OW 6850   0.410   4.537   3.113
 2095SOL    HW1 6851   0.496   4.549   3.163
 2095SOL    HW2 6852   0.368   4.450   3.140
 2096SOL     OW 6853   1.274   4.110   3.124
 2096SOL    HW1 6854   1.295   4.184   3.188
 2096SOL    HW2 6855   1.185   4.127   3.081
 2097SOL     OW 6856   0.064   5.288   3.193
 2097SOL    HW1 6857   0.018   5.370   3.159
 2097SOL    HW2 6858   0.162   5.307   3.202
 2098SOL     OW 6859   0.367   4.824   2.363
 2098SOL    HW1 6860   0.360   4.907   2.307
 2098SOL    HW2 6861   0.371   4.744   2.303
 2099SOL     OW 6862   0.566   4.261   2.727
 2099SOL    HW1 6863   0.578   4.327   2.653
 2099SOL    HW2 6864   0.612   4.295   2.810
 2100SOL     OW 6865   1.252   5.072   2.250
 2100SOL    HW1 6866   1.302   5.149   2.290
 2100SOL    HW2 6867   1.157   5.074   2.282
 2101SOL     OW 6868   1.272   5.169   3.004
 2101SOL    HW1 6869   1.319   5.182   3.091
 2101SOL    HW2 6870   1.206   5.095   3.013
 2102SOL     OW 6871   1.582   4.363   2.334
 2102SOL    HW1 6872   1.551   4.424   2.407
 2102SOL    HW2 6873   1.632   4.415   2.265
 2103SOL     OW 6874   0.354   5.234   3.191
 2103SOL    HW1 6875   0.333   5.190   3.104
 2103SOL    HW2 6876   0.451   5.260   3.194
 2104SOL     OW 6877   0.402   4.475   3.460
 2104SOL    HW1 6878   0.470   4.530   3.413
 2104SOL    HW2 6879   0.442   4.387   3.487
 2105SOL     OW 6880   1.587   4.503   3.532
 2105SOL    HW1 6881   1.495   4.541   3.527
 2105SOL    HW2 6882   1.647   4.550   3.467
 2106SOL     OW 6883   1.013   3.829   3.632
 2106SOL    HW1 6884   1.019   3.914   3.580
 2106SOL    HW2 6885   1.045   3.753   3.575
 2107SOL     OW 6886   0.504   3.774   3.602
 2107SOL    HW1 6887   0.462   3.717   3.532
 2107SOL    HW2 6888   0.438   3.843   3.634
 2108SOL     OW 6889   0.573   4.594   2.891
 2108SOL    HW1 6890   0.617   4.683   2.882
 2108SOL    HW2 6891   0.510   4.594   2.968
 2109SOL     OW 6892   1.360   4.586   2.907
 2109SOL    HW1 6893   1.285   4.586   2.841
 2109SOL    HW2 6894   1.397   4.494   2.916
 2110SOL     OW 6895   1.209   4.249   2.137
 2110SOL    HW1 6896   1.222   4.165   2.191
 2110SOL    HW2 6897   1.180   4.323   2.197
 2111SOL     OW 6898   0.307   3.937   3.093
 2111SOL    HW1 6899   0.284   3.974   3.183
 2111SOL    HW2 6900   0.277   3.842   3.087
 2112SOL     OW 6901   0.037   5.034   3.144
 2112SOL    HW1 6902   0.090   4.985   3.212
 2112SOL    HW2 6903   0.059   5.132   3.149
 2113SOL     OW 6904   0.732   4.358   2.926
 2113SOL    HW1 6905   0.791   4.332   2.850
 2113SOL    HW2 6906   0.704   4.454   2.915
 2114SOL     OW 6907   1.728   4.659   3.716
 2114SOL    HW1 6908   1.682   4.652   3.627
 2114SOL    HW2 6909   1.666   4.703   3.782
 2115SOL     OW 6910   0.307   3.787   2.480
 2115SOL    HW1 6911   0.296   3.881   2.513
 2115SOL    HW2 6912   0.302   3.724   2.557
 2116SOL     OW 6913   1.622   4.091   2.236
 2116SOL    HW1 6914   1.624   4.015   2.300
 2116SOL    HW2 6915   1.574   4.168   2.276
 2117SOL     OW 6916   1.023   4.490   2.828
 2117SOL    HW1 6917   1.038   4.511   2.924
 2117SOL    HW2 6918   0.993   4.395   2.819
 2118SOL     OW 6919   1.859   5.242   3.467
 2118SOL    HW1 6920   1.873   5.269   3.372
 2118SOL    HW2 6921   1.942   5.264   3.520
 2119SOL     OW 6922   0.350   4.622   3.666
 2119SOL    HW1 6923   0.426   4.666   3.714
 2119SOL    HW2 6924   0.385   4.575   3.584
 2120SOL     OW 6925   1.540   3.998   1.987
 2120SOL    HW1 6926   1.479   3.923   2.010
 2120SOL    HW2 6927   1.562   4.050   2.070
 2121SOL     OW 6928   1.303   4.562   1.904
 2121SOL    HW1 6929   1.337   4.469   1.919
 2121SOL    HW2 6930   1.321   4.589   1.809
 2122SOL     OW 6931   1.068   5.057   2.711
 2122SOL    HW1 6932   1.075   4.973   2.656
 2122SOL    HW2 6933   1.130   5.126   2.675
 2123SOL     OW 6934   0.319   4.534   2.811
 2123SOL    HW1 6935   0.412   4.570   2.816
 2123SOL    HW2 6936   0.313   4.449   2.863
 2124SOL     OW 6937   0.339   4.233   2.868
 2124SOL    HW1 6938   0.287   4.150   2.851
 2124SOL    HW2 6939   0.416   4.238   2.804
 2125SOL     OW 6940   1.138   4.104   3.540
 2125SOL    HW1 6941   1.093   4.167   3.604
 2125SOL    HW2 6942   1.231   4.135   3.523
 2126SOL     OW 6943   1.160   3.931   3.339
 2126SOL    HW1 6944   1.160   3.995   3.416
 2126SOL    HW2 6945   1.188   3.979   3.256
 2127SOL     OW 6946   0.008   5.050   2.062
 2127SOL    HW1 6947  -0.085   5.071   2.031
 2127SOL    HW2 6948   0.018   4.951   2.075
 2128SOL     OW 6949   1.002   4.520   3.100
 2128SOL    HW1 6950   1.043   4.488   3.186
 2128SOL    HW2 6951   0.906   4.493   3.097
 2129SOL     OW 6952   0.040   4.268   2.976
 2129SOL    HW1 6953   0.125   4.235   2.935
 2129SOL    HW2 6954   0.053   4.283   3.074
 2130SOL     OW 6955   0.189   4.244   3.584
 2130SOL    HW1 6956   0.248   4.204   3.514
 2130SOL    HW2 6957   0.131   4.315   3.543
 2131SOL     OW 6958   1.369   4.674   3.522
 2131SOL    HW1 6959   1.408   4.763   3.542
 2131SOL    HW2 6960   1.379   4.654   3.425
 2132SOL     OW 6961   0.815   4.296   2.187
 2132SOL    HW1 6962   0.822   4.207   2.141
 2132SOL    HW2 6963   0.721   4.330   2.179
 2133SOL     OW 6964   1.657   4.328   3.068
 2133SOL    HW1 6965   1.619   4.259   3.130
 2133SOL    HW2 6966   1.739   4.292   3.024
 2134SOL     OW 6967   0.252   5.288   3.606
 2134SOL    HW1 6968   0.222   5.345   3.682
 2134SOL    HW2 6969   0.245   5.191   3.632
 2135SOL     OW 6970   0.671   4.188   3.131
 2135SOL    HW1 6971   0.637   4.099   3.101
 2135SOL    HW2 6972   0.697   4.242   3.051
 2136SOL     OW 6973   0.473   4.224   2.053
 2136SOL    HW1 6974   0.534   4.304   2.057
 2136SOL    HW2 6975   0.378   4.255   2.060
 2137SOL     OW 6976   0.159   4.861   3.328
 2137SOL    HW1 6977   0.181   4.800   3.404
 2137SOL    HW2 6978   0.169   4.812   3.242
 2138SOL     OW 6979   1.347   4.783   3.096
 2138SOL    HW1 6980   1.371   4.720   3.022
 2138SOL    HW2 6981   1.257   4.823   3.078
 2139SOL     OW 6982   1.302   4.579   2.171
 2139SOL    HW1 6983   1.216   4.548   2.213
 2139SOL    HW2 6984   1.298   4.565   2.072
 2140SOL     OW 6985   0.083   4.982   2.884
 2140SOL    HW1 6986   0.078   4.981   2.984
 2140SOL    HW2 6987   0.000   4.941   2.846
 2141SOL     OW 6988   0.688   5.386   3.578
 2141SOL    HW1 6989   0.632   5.467   3.587
 2141SOL    HW2 6990   0.740   5.390   3.492
 2142SOL     OW 6991   1.726   3.859   2.385
 2142SOL    HW1 6992   1.799   3.842   2.318
 2142SOL    HW2 6993   1.695   3.772   2.423
 2143SOL     OW 6994   1.280   4.651   2.534
 2143SOL    HW1 6995   1.340   4.570   2.536
 2143SOL    HW2 6996   1.320   4.720   2.474
 2144SOL     OW 6997   0.830   4.997   3.284
 2144SOL    HW1 6998   0.825   5.030   3.379
 2144SOL    HW2 6999   0.744   5.016   3.238
 2145SOL     OW 7000   1.841   3.899   2.825
 2145SOL    HW1 7001   1.880   3.814   2.789
 2145SOL    HW2 7002   1.743   3.901   2.806
 2146SOL     OW 7003   0.263   4.050   2.582
 2146SOL    HW1 7004   0.184   4.101   2.548
 2146SOL    HW2 7005   0.254   4.035   2.680
 2147SOL     OW 7006   0.822   4.726   3.234
 2147SOL    HW1 7007   0.862   4.725   3.142
 2147SOL    HW2 7008   0.832   4.818   3.274
 2148SOL     OW 7009   0.916   4.634   2.153
 2148SOL    HW1 7010   0.979   4.672   2.085
 2148SOL    HW2 7011   0.956   4.551   2.192
 2149SOL     OW 7012   0.372   5.012   3.352
 2149SOL    HW1 7013   0.359   5.105   3.318
 2149SOL    HW2 7014   0.288   4.960   3.339
 2150SOL     OW 7015   1.614   5.016   3.151
 2150SOL    HW1 7016   1.674   5.019   3.231
 2150SOL    HW2 7017   1.539   5.080   3.164
 2151SOL     OW 7018   1.039   4.822   2.558
 2151SOL    HW1 7019   0.969   4.775   2.612
 2151SOL    HW2 7020   1.098   4.754   2.515
 2152SOL     OW 7021   1.014   3.960   2.833
 2152SOL    HW1 7022   1.006   3.924   2.740
 2152SOL    HW2 7023   1.012   3.884   2.898
 2153SOL     OW 7024   1.709   4.109   3.243
 2153SOL    HW1 7025   1.782   4.178   3.247
 2153SOL    HW2 7026   1.737   4.034   3.184
 2154SOL     OW 7027   0.255   5.072   2.152
 2154SOL    HW1 7028   0.159   5.073   2.125
 2154SOL    HW2 7029   0.267   5.125   2.236
 2155SOL     OW 7030   0.105   4.737   3.588
 2155SOL    HW1 7031   0.028   4.704   3.642
 2155SOL    HW2 7032   0.190   4.707   3.630
 2156SOL     OW 7033   0.672   3.927   3.351
 2156SOL    HW1 7034   0.762   3.911   3.311
 2156SOL    HW2 7035   0.680   3.932   3.450
 2157SOL     OW 7036   0.075   4.069   1.895
 2157SOL    HW1 7037  -0.017   4.041   1.866
 2157SOL    HW2 7038   0.106   4.146   1.839
 2158SOL     OW 7039   1.440   4.580   3.260
 2158SOL    HW1 7040   1.383   4.632   3.197
 2158SOL    HW2 7041   1.536   4.592   3.236
 2159SOL     OW 7042   0.072   3.890   2.180
 2159SOL    HW1 7043   0.055   3.973   2.126
 2159SOL    HW2 7044   0.162   3.853   2.158
 2160SOL     OW 7045   1.183   5.059   1.981
 2160SOL    HW1 7046   1.084   5.048   1.983
 2160SOL    HW2 7047   1.217   5.074   2.074
 2161SOL     OW 7048   0.613   4.566   3.293
 2161SOL    HW1 7049   0.669   4.647   3.276
 2161SOL    HW2 7050   0.672   4.486   3.296
 2162SOL     OW 7051   0.716   4.289   3.570
 2162SOL    HW1 7052   0.735   4.354   3.644
 2162SOL    HW2 7053   0.776   4.209   3.579
 2163SOL     OW 7054   1.450   4.944   3.495
 2163SOL    HW1 7055   1.441   4.934   3.594
 2163SOL    HW2 7056   1.546   4.937   3.469
 2164SOL     OW 7057   1.674   4.607   3.116
 2164SOL    HW1 7058   1.647   4.518   3.079
 2164SOL    HW2 7059   1.675   4.675   3.043
 2165SOL     OW 7060   1.225   4.049   2.311
 2165SOL    HW1 7061   1.290   3.975   2.300
 2165SOL    HW2 7062   1.245   4.099   2.395
 2166SOL     OW 7063   0.594   4.469   2.514
 2166SOL    HW1 7064   0.644   4.554   2.495
 2166SOL    HW2 7065   0.506   4.471   2.466
 2167SOL     OW 7066   1.777   4.066   3.504
 2167SOL    HW1 7067   1.760   4.097   3.410
 2167SOL    HW2 7068   1.693   4.029   3.542
 2168SOL     OW 7069   1.730   4.658   3.379
 2168SOL    HW1 7070   1.768   4.749   3.394
 2168SOL    HW2 7071   1.722   4.641   3.280
 2169SOL     OW 7072   0.859   5.098   1.878
 2169SOL    HW1 7073   0.813   5.113   1.966
 2169SOL    HW2 7074   0.903   5.183   1.848
 2170SOL     OW 7075   0.859   4.680   2.723
 2170SOL    HW1 7076   0.913   4.611   2.771
 2170SOL    HW2 7077   0.827   4.749   2.789
 2171SOL     OW 7078   1.083   4.708   1.949
 2171SOL    HW1 7079   1.060   4.761   1.867
 2171SOL    HW2 7080   1.164   4.652   1.930
 2172SOL     OW 7081   0.221   5.038   3.706
 2172SOL    HW1 7082   0.156   4.965   3.685
 2172SOL    HW2 7083   0.225   5.052   3.804
 2173SOL     OW 7084   0.079   4.964   2.515
 2173SOL    HW1 7085   0.078   4.917   2.603
 2173SOL    HW2 7086   0.161   4.936   2.464
 2174SOL     OW 7087   0.672   5.115   3.486
 2174SOL    HW1 7088   0.594   5.065   3.524
 2174SOL    HW2 7089   0.669   5.210   3.517
 2175SOL     OW 7090   1.824   3.916   3.089
 2175SOL    HW1 7091   1.820   3.826   3.133
 2175SOL    HW2 7092   1.827   3.905   2.990
 2176SOL     OW 7093   0.428   4.148   2.382
 2176SOL    HW1 7094   0.458   4.076   2.320
 2176SOL    HW2 7095   0.389   4.108   2.465
 2177SOL     OW 7096   1.705   5.211   2.966
 2177SOL    HW1 7097   1.612   5.186   2.939
 2177SOL    HW2 7098   1.731   5.161   3.048
 2178SOL     OW 7099   0.317   4.271   3.142
 2178SOL    HW1 7100   0.355   4.212   3.214
 2178SOL    HW2 7101   0.357   4.245   3.054
 2179SOL     OW 7102   1.424   3.938   2.974
 2179SOL    HW1 7103   1.476   3.873   3.029
 2179SOL    HW2 7104   1.375   4.001   3.035
 2180SOL     OW 7105   1.001   3.758   3.016
 2180SOL    HW1 7106   0.938   3.686   2.985
 2180SOL    HW2 7107   1.094   3.722   3.016
 2181SOL     OW 7108   0.770   5.054   2.163
 2181SOL    HW1 7109   0.724   4.967   2.180
 2181SOL    HW2 7110   0.861   5.051   2.204
 2182SOL     OW 7111   0.618   5.291   3.146
 2182SOL    HW1 7112   0.613   5.373   3.203
 2182SOL    HW2 7113   0.707   5.288   3.101
 2183SOL     OW 7114   1.352   3.776   2.030
 2183SOL    HW1 7115   1.387   3.735   1.946
 2183SOL    HW2 7116   1.262   3.738   2.050
 2184SOL     OW 7117   1.300   4.177   2.553
 2184SOL    HW1 7118   1.241   4.257   2.557
 2184SOL    HW2 7119   1.315   4.142   2.646
 2185SOL     OW 7120   1.593   3.945   2.744
 2185SOL    HW1 7121   1.509   3.944   2.798
 2185SOL    HW2 7122   1.595   4.028   2.688
 2186SOL     OW 7123   0.039   4.801   2.162
 2186SOL    HW1 7124   0.138   4.790   2.153
 2186SOL    HW2 7125  -0.001   4.715   2.194
 2187SOL     OW 7126   0.230   4.352   3.837
 2187SOL    HW1 7127   0.137   4.350   3.874
 2187SOL    HW2 7128   0.231   4.313   3.745
 2188SOL     OW 7129   0.225   3.999   4.720
 2188SOL    HW1 7130   0.260   3.982   4.812
 2188SOL    HW2 7131   0.137   3.954   4.708
 2189SOL     OW 7132   0.019   4.092   4.371
 2189SOL    HW1 7133  -0.063   4.135   4.410
 2189SOL    HW2 7134  -0.009   4.019   4.308
 2190SOL     OW 7135   0.569   4.999   4.889
 2190SOL    HW1 7136   0.476   4.992   4.852
 2190SOL    HW2 7137   0.580   5.088   4.933
 2191SOL     OW 7138   1.555   5.235   4.427
 2191SOL    HW1 7139   1.498   5.219   4.508
 2191SOL    HW2 7140   1.496   5.245   4.347
 2192SOL     OW 7141   1.135   4.427   4.441
 2192SOL    HW1 7142   1.192   4.505   4.416
 2192SOL    HW2 7143   1.075   4.453   4.517
 2193SOL     OW 7144   1.755   4.331   3.955
 2193SOL    HW1 7145   1.743   4.318   3.856
 2193SOL    HW2 7146   1.725   4.250   4.004
 2194SOL     OW 7147   0.768   4.868   4.747
 2194SOL    HW1 7148   0.690   4.885   4.807
 2194SOL    HW2 7149   0.802   4.955   4.711
 2195SOL     OW 7150   0.850   4.522   5.547
 2195SOL    HW1 7151   0.846   4.598   5.612
 2195SOL    HW2 7152   0.872   4.558   5.456
 2196SOL     OW 7153   0.685   4.736   4.389
 2196SOL    HW1 7154   0.754   4.720   4.459
 2196SOL    HW2 7155   0.612   4.793   4.427
 2197SOL     OW 7156   0.686   4.885   5.527
 2197SOL    HW1 7157   0.746   4.964   5.541
 2197SOL    HW2 7158   0.600   4.916   5.486
 2198SOL     OW 7159   0.335   5.159   4.785
 2198SOL    HW1 7160   0.257   5.128   4.732
 2198SOL    HW2 7161   0.393   5.217   4.728
 2199SOL     OW 7162   1.460   5.229   5.063
 2199SOL    HW1 7163   1.484   5.323   5.089
 2199SOL    HW2 7164   1.444   5.175   5.145
 2200SOL     OW 7165   0.438   4.116   5.223
 2200SOL    HW1 7166   0.520   4.060   5.232
 2200SOL    HW2 7167   0.357   4.058   5.227
 2201SOL     OW 7168   1.603   4.171   4.461
 2201SOL    HW1 7169   1.529   4.217   4.411
 2201SOL    HW2 7170   1.654   4.239   4.514
 2202SOL     OW 7171   1.127   5.065   5.414
 2202SOL    HW1 7172   1.174   5.065   5.502
 2202SOL    HW2 7173   1.079   4.978   5.403
 2203SOL     OW 7174   0.230   5.158   4.262
 2203SOL    HW1 7175   0.204   5.254   4.262
 2203SOL    HW2 7176   0.159   5.104   4.307
 2204SOL     OW 7177   0.240   4.815   4.610
 2204SOL    HW1 7178   0.254   4.731   4.662
 2204SOL    HW2 7179   0.185   4.879   4.665
 2205SOL     OW 7180   0.606   4.688   3.847
 2205SOL    HW1 7181   0.613   4.772   3.793
 2205SOL    HW2 7182   0.652   4.701   3.935
 2206SOL     OW 7183   1.594   3.838   5.204
 2206SOL    HW1 7184   1.576   3.905   5.132
 2206SOL    HW2 7185   1.591   3.884   5.293
 2207SOL     OW 7186   0.122   4.367   4.287
 2207SOL    HW1 7187   0.077   4.279   4.304
 2207SOL    HW2 7188   0.121   4.421   4.371
 2208SOL     OW 7189   0.027   5.320   3.841
 2208SOL    HW1 7190   0.008   5.224   3.862
 2208SOL    HW2 7191  -0.006   5.378   3.916
 2209SOL     OW 7192   1.689   4.646   4.336
 2209SOL    HW1 7193   1.784   4.617   4.344
 2209SOL    HW2 7194   1.681   4.711   4.261
 2210SOL     OW 7195   1.641   4.832   4.156
 2210SOL    HW1 7196   1.727   4.834   4.104
 2210SOL    HW2 7197   1.655   4.879   4.244
 2211SOL     OW 7198   0.113   4.461   5.321
 2211SOL    HW1 7199   0.201   4.448   5.366
 2211SOL    HW2 7200   0.100   4.558   5.299
 2212SOL     OW 7201   0.613   5.089   4.450
 2212SOL    HW1 7202   0.564   5.002   4.459
 2212SOL    HW2 7203   0.590   5.132   4.363
 2213SOL     OW 7204   1.293   4.952   5.147
 2213SOL    HW1 7205   1.330   4.879   5.089
 2213SOL    HW2 7206   1.345   4.957   5.232
 2214SOL     OW 7207   0.809   3.728   4.226
 2214SOL    HW1 7208   0.849   3.819   4.217
 2214SOL    HW2 7209   0.709   3.736   4.232
 2215SOL     OW 7210   0.197   4.700   4.988
 2215SOL    HW1 7211   0.286   4.655   4.974
 2215SOL    HW2 7212   0.124   4.635   4.969
 2216SOL     OW 7213   1.525   4.723   3.914
 2216SOL    HW1 7214   1.462   4.647   3.927
 2216SOL    HW2 7215   1.573   4.741   4.000
 2217SOL     OW 7216   0.317   3.975   5.525
 2217SOL    HW1 7217   0.388   4.046   5.531
 2217SOL    HW2 7218   0.229   4.014   5.553
 2218SOL     OW 7219   1.466   5.141   4.677
 2218SOL    HW1 7220   1.407   5.147   4.757
 2218SOL    HW2 7221   1.451   5.053   4.631
 2219SOL     OW 7222   0.598   4.453   3.994
 2219SOL    HW1 7223   0.622   4.522   3.926
 2219SOL    HW2 7224   0.520   4.486   4.048
 2220SOL     OW 7225   1.281   4.069   4.668
 2220SOL    HW1 7226   1.195   4.019   4.655
 2220SOL    HW2 7227   1.343   4.015   4.724
 2221SOL     OW 7228   0.807   4.329   5.189
 2221SOL    HW1 7229   0.760   4.326   5.278
 2221SOL    HW2 7230   0.756   4.274   5.123
 2222SOL     OW 7231   1.394   4.193   5.398
 2222SOL    HW1 7232   1.374   4.236   5.486
 2222SOL    HW2 7233   1.472   4.131   5.407
 2223SOL     OW 7234   0.973   4.614   5.296
 2223SOL    HW1 7235   1.019   4.530   5.267
 2223SOL    HW2 7236   0.917   4.648   5.221
 2224SOL     OW 7237   0.991   4.134   4.966
 2224SOL    HW1 7238   0.914   4.168   5.020
 2224SOL    HW2 7239   0.957   4.083   4.887
 2225SOL     OW 7240   1.041   4.425   4.153
 2225SOL    HW1 7241   1.067   4.421   4.249
 2225SOL    HW2 7242   0.956   4.374   4.139
 2226SOL     OW 7243   0.076   4.535   4.513
 2226SOL    HW1 7244   0.175   4.523   4.522
 2226SOL    HW2 7245   0.052   4.630   4.534
 2227SOL     OW 7246   0.865   4.072   3.919
 2227SOL    HW1 7247   0.924   4.135   3.870
 2227SOL    HW2 7248   0.884   3.978   3.890
 2228SOL     OW 7249   1.719   4.309   5.555
 2228SOL    HW1 7250   1.693   4.398   5.519
 2228SOL    HW2 7251   1.717   4.241   5.482
 2229SOL     OW 7252   1.362   4.868   4.269
 2229SOL    HW1 7253   1.445   4.839   4.221
 2229SOL    HW2 7254   1.313   4.935   4.213
 2230SOL     OW 7255   0.550   3.920   4.609
 2230SOL    HW1 7256   0.545   3.915   4.709
 2230SOL    HW2 7257   0.552   4.016   4.580
 2231SOL     OW 7258   1.008   5.180   4.201
 2231SOL    HW1 7259   0.962   5.252   4.149
 2231SOL    HW2 7260   1.004   5.200   4.299
 2232SOL     OW 7261   1.795   4.790   4.597
 2232SOL    HW1 7262   1.733   4.775   4.521
 2232SOL    HW2 7263   1.743   4.801   4.682
 2233SOL     OW 7264   1.227   5.274   5.230
 2233SOL    HW1 7265   1.233   5.197   5.294
 2233SOL    HW2 7266   1.175   5.248   5.150
 2234SOL     OW 7267   0.321   4.667   3.966
 2234SOL    HW1 7268   0.403   4.706   3.924
 2234SOL    HW2 7269   0.294   4.585   3.917
 2235SOL     OW 7270   1.458   4.459   4.452
 2235SOL    HW1 7271   1.453   4.394   4.527
 2235SOL    HW2 7272   1.538   4.518   4.465
 2236SOL     OW 7273   0.461   4.990   5.451
 2236SOL    HW1 7274   0.411   4.991   5.365
 2236SOL    HW2 7275   0.398   4.972   5.527
 2237SOL     OW 7276   1.111   5.500   3.961
 2237SOL    HW1 7277   1.051   5.438   4.011
 2237SOL    HW2 7278   1.142   5.456   3.876
 2238SOL     OW 7279   0.202   4.009   5.222
 2238SOL    HW1 7280   0.122   4.069   5.209
 2238SOL    HW2 7281   0.192   3.960   5.308
 2239SOL     OW 7282   1.632   5.101   3.805
 2239SOL    HW1 7283   1.600   5.195   3.795
 2239SOL    HW2 7284   1.556   5.038   3.793
 2240SOL     OW 7285   1.400   3.831   4.150
 2240SOL    HW1 7286   1.376   3.794   4.060
 2240SOL    HW2 7287   1.499   3.847   4.154
 2241SOL     OW 7288   0.382   4.424   4.204
 2241SOL    HW1 7289   0.427   4.334   4.201
 2241SOL    HW2 7290   0.288   4.413   4.237
 2242SOL     OW 7291   1.547   3.946   5.453
 2242SOL    HW1 7292   1.542   3.983   5.545
 2242SOL    HW2 7293   1.475   3.877   5.441
 2243SOL     OW 7294   0.614   3.846   3.841
 2243SOL    HW1 7295   0.712   3.824   3.848
 2243SOL    HW2 7296   0.583   3.829   3.748
 2244SOL     OW 7297   0.781   3.988   5.473
 2244SOL    HW1 7298   0.848   3.927   5.516
 2244SOL    HW2 7299   0.708   4.007   5.538
 2245SOL     OW 7300   1.351   4.314   5.157
 2245SOL    HW1 7301   1.379   4.271   5.242
 2245SOL    HW2 7302   1.376   4.410   5.158
 2246SOL     OW 7303   0.803   5.126   4.648
 2246SOL    HW1 7304   0.893   5.140   4.606
 2246SOL    HW2 7305   0.732   5.128   4.577
 2247SOL     OW 7306   0.922   4.227   4.623
 2247SOL    HW1 7307   0.897   4.218   4.527
 2247SOL    HW2 7308   0.970   4.145   4.654
 2248SOL     OW 7309   0.539   3.788   4.236
 2248SOL    HW1 7310   0.458   3.789   4.294
 2248SOL    HW2 7311   0.542   3.871   4.181
 2249SOL     OW 7312   1.434   4.912   3.765
 2249SOL    HW1 7313   1.466   4.836   3.822
 2249SOL    HW2 7314   1.342   4.939   3.795
 2250SOL     OW 7315   0.297   3.759   3.895
 2250SOL    HW1 7316   0.346   3.843   3.874
 2250SOL    HW2 7317   0.359   3.694   3.940
 2251SOL     OW 7318   0.935   3.960   4.204
 2251SOL    HW1 7319   0.887   4.001   4.126
 2251SOL    HW2 7320   1.034   3.958   4.185
 2252SOL     OW 7321   1.076   4.407   5.188
 2252SOL    HW1 7322   0.996   4.346   5.191
 2252SOL    HW2 7323   1.157   4.354   5.164
 2253SOL     OW 7324   1.227   5.294   4.517
 2253SOL    HW1 7325   1.248   5.368   4.452
 2253SOL    HW2 7326   1.295   5.294   4.590
 2254SOL     OW 7327   0.459   4.876   4.465
 2254SOL    HW1 7328   0.388   4.849   4.530
 2254SOL    HW2 7329   0.433   4.848   4.372
 2255SOL     OW 7330   1.032   4.273   3.740
 2255SOL    HW1 7331   0.991   4.355   3.701
 2255SOL    HW2 7332   1.096   4.299   3.813
 2256SOL     OW 7333   0.078   4.280   5.110
 2256SOL    HW1 7334   0.170   4.279   5.069
 2256SOL    HW2 7335   0.072   4.354   5.177
 2257SOL     OW 7336   0.561   3.946   4.871
 2257SOL    HW1 7337   0.599   3.862   4.908
 2257SOL    HW2 7338   0.473   3.965   4.915
 2258SOL     OW 7339   0.866   4.178   4.366
 2258SOL    HW1 7340   0.834   4.250   4.304
 2258SOL    HW2 7341   0.890   4.097   4.313
 2259SOL     OW 7342   1.017   3.763   4.477
 2259SOL    HW1 7343   0.945   3.768   4.408
 2259SOL    HW2 7344   0.993   3.694   4.546
 2260SOL     OW 7345   1.429   4.897   4.591
 2260SOL    HW1 7346   1.374   4.813   4.584
 2260SOL    HW2 7347   1.455   4.926   4.499
 2261SOL     OW 7348   1.466   4.314   4.716
 2261SOL    HW1 7349   1.436   4.219   4.723
 2261SOL    HW2 7350   1.539   4.330   4.782
 2262SOL     OW 7351   1.857   4.557   4.101
 2262SOL    HW1 7352   1.899   4.493   4.165
 2262SOL    HW2 7353   1.819   4.506   4.023
 2263SOL     OW 7354   0.488   5.109   3.898
 2263SOL    HW1 7355   0.401   5.094   3.945
 2263SOL    HW2 7356   0.471   5.135   3.803
 2264SOL     OW 7357   1.664   5.004   4.381
 2264SOL    HW1 7358   1.763   5.012   4.395
 2264SOL    HW2 7359   1.619   5.088   4.412
 2265SOL     OW 7360   1.390   4.299   3.802
 2265SOL    HW1 7361   1.336   4.278   3.883
 2265SOL    HW2 7362   1.481   4.258   3.811
 2266SOL     OW 7363   0.527   3.980   4.052
 2266SOL    HW1 7364   0.554   3.921   3.977
 2266SOL    HW2 7365   0.527   4.075   4.021
 2267SOL     OW 7366   1.754   4.947   5.312
 2267SOL    HW1 7367   1.845   4.908   5.299
 2267SOL    HW2 7368   1.762   5.043   5.336
 2268SOL     OW 7369   1.064   5.071   5.064
 2268SOL    HW1 7370   0.984   5.048   5.119
 2268SOL    HW2 7371   1.147   5.045   5.113
 2269SOL     OW 7372   1.111   4.919   4.824
 2269SOL    HW1 7373   1.071   4.963   4.905
 2269SOL    HW2 7374   1.070   4.956   4.741
 2270SOL     OW 7375   1.638   4.823   4.803
 2270SOL    HW1 7376   1.643   4.904   4.862
 2270SOL    HW2 7377   1.552   4.825   4.752
 2271SOL     OW 7378   0.915   3.813   5.126
 2271SOL    HW1 7379   0.940   3.793   5.031
 2271SOL    HW2 7380   0.987   3.869   5.168
 2272SOL     OW 7381   0.980   4.840   5.443
 2272SOL    HW1 7382   0.881   4.846   5.453
 2272SOL    HW2 7383   1.003   4.760   5.387
 2273SOL     OW 7384   0.705   4.774   4.092
 2273SOL    HW1 7385   0.691   4.781   4.191
 2273SOL    HW2 7386   0.789   4.723   4.074
 2274SOL     OW 7387   0.410   4.537   4.975
 2274SOL    HW1 7388   0.496   4.549   5.025
 2274SOL    HW2 7389   0.368   4.450   5.002
 2275SOL     OW 7390   1.274   4.110   4.986
 2275SOL    HW1 7391   1.295   4.184   5.050
 2275SOL    HW2 7392   1.185   4.127   4.943
 2276SOL     OW 7393   0.064   5.288   5.055
 2276SOL    HW1 7394   0.018   5.370   5.021
 2276SOL    HW2 7395   0.162   5.307   5.064
 2277SOL     OW 7396   0.367   4.824   4.225
 2277SOL    HW1 7397   0.360   4.907   4.169
 2277SOL    HW2 7398   0.371   4.744   4.165
 2278SOL     OW 7399   0.566   4.261   4.589
 2278SOL    HW1 7400   0.578   4.327   4.515
 2278SOL    HW2 7401   0.612   4.295   4.672
 2279SOL     OW 7402   1.252   5.072   4.112
 2279SOL    HW1 7403   1.302   5.149   4.152
 2279SOL    HW2 7404   1.157   5.074   4.144
 2280SOL     OW 7405   1.272   5.169   4.866
 2280SOL    HW1 7406   1.319   5.182   4.953
 2280SOL    HW2 7407   1.206   5.095   4.875
 2281SOL     OW 7408   1.582   4.363   4.196
 2281SOL    HW1 7409   1.551   4.424   4.269
 2281SOL    HW2 7410   1.632   4.415   4.127
 2282SOL     OW 7411   0.354   5.234   5.053
 2282SOL    HW1 7412   0.333   5.190   4.966
 2282SOL    HW2 7413   0.451   5.260   5.056
 2283SOL     OW 7414   0.402   4.475   5.322
 2283SOL    HW1 7415   0.470   4.530   5.275
 2283SOL    HW2 7416   0.442   4.387   5.349
 2284SOL     OW 7417   1.587   4.503   5.394
 2284SOL    HW1 7418   1.495   4.541   5.389
 2284SOL    HW2 7419   1.647   4.550   5.329
 2285SOL     OW 7420   1.013   3.829   5.494
 2285SOL    HW1 7421   1.019   3.914   5.442
 2285SOL    HW2 7422   1.045   3.753   5.437
 2286SOL     OW 7423   0.504   3.774   5.464
 2286SOL    HW1 7424   0.462   3.717   5.394
 2286SOL    HW2 7425   0.438   3.843   5.496
 2287SOL     OW 7426   0.573   4.594   4.753
 2287SOL    HW1 7427   0.617   4.683   4.744
 2287SOL    HW2 7428   0.510   4.594   4.830
 2288SOL     OW 7429   1.360   4.586   4.769
 2288SOL    HW1 7430   1.285   4.586   4.703
 2288SOL    HW2 7431   1.397   4.494   4.778
 2289SOL     OW 7432   1.209   4.249   3.999
 2289SOL    HW1 7433   1.222   4.165   4.053
 2289SOL    HW2 7434   1.180   4.323   4.059
 2290SOL     OW 7435   0.307   3.937   4.955
 2290SOL    HW1 7436   0.284   3.974   5.045
 2290SOL    HW2 7437   0.277   3.842   4.949
 2291SOL     OW 7438   0.037   5.034   5.006
 2291SOL    HW1 7439   0.090   4.985   5.074
 2291SOL    HW2 7440   0.059   5.132   5.011
 2292SOL     OW 7441   0.732   4.358   4.788
 2292SOL    HW1 7442   0.791   4.332   4.712
 2292SOL    HW2 7443   0.704   4.454   4.777
 2293SOL     OW 7444   1.728   4.659   5.578
 2293SOL    HW1 7445   1.682   4.652   5.489
 2293SOL    HW2 7446   1.666   4.703   5.644
 2294SOL     OW 7447   0.307   3.787   4.342
 2294SOL    HW1 7448   0.296   3.881   4.375
 2294SOL    HW2 7449   0.302   3.724   4.419
 2295SOL     OW 7450   1.622   4.091   4.098
 2295SOL    HW1 7451   1.624   4.015   4.162
 2295SOL    HW2 7452   1.574   4.168   4.138
 2296SOL     OW 7453   1.023   4.490   4.690
 2296SOL    HW1 7454   1.038   4.511   4.786
 2296SOL    HW2 7455   0.993   4.395   4.681
 2297SOL     OW 7456   1.859   5.242   5.329
 2297SOL    HW1 7457   1.873   5.269   5.234
 2297SOL    HW2 7458   1.942   5.264   5.382
 2298SOL     OW 7459   0.350   4.622   5.528
 2298SOL    HW1 7460   0.426   4.666   5.576
 2298SOL    HW2 7461   0.385   4.575   5.446
 2299SOL     OW 7462   1.540   3.998   3.849
 2299SOL    HW1 7463   1.479   3.923   3.872
 2299SOL    HW2 7464   1.562   4.050   3.932
 2300SOL     OW 7465   1.303   4.562   3.766
 2300SOL    HW1 7466   1.337   4.469   3.781
 2300SOL    HW2 7467   1.321   4.589   3.671
 2301SOL     OW 7468   1.068   5.057   4.573
 2301SOL    HW1 7469   1.075   4.973   4.518
 2301SOL    HW2 7470   1.130   5.126   4.537
 2302SOL     OW 7471   0.319   4.534   4.673
 2302SOL    HW1 7472   0.412   4.570   4.678
 2302SOL    HW2 7473   0.313   4.449   4.725
 2303SOL     OW 7474   0.339   4.233   4.730
 2303SOL    HW1 7475   0.287   4.150   4.713
 2303SOL    HW2 7476   0.416   4.238   4.666
 2304SOL     OW 7477   1.138   4.104   5.402
 2304SOL    HW1 7478   1.093   4.167   5.466
 2304SOL    HW2 7479   1.231   4.135   5.385
 2305SOL     OW 7480   1.160   3.931   5.201
 2305SOL    HW1 7481   1.160   3.995   5.278
 2305SOL    HW2 7482   1.188   3.979   5.118
 2306SOL     OW 7483   0.008   5.050   3.924
 2306SOL    HW1 7484  -0.085   5.071   3.893
 2306SOL    HW2 7485   0.018   4.951   3.937
 2307SOL     OW 7486   1.002   4.520   4.962
 2307SOL    HW1 7487   1.043   4.488   5.048
 2307SOL    HW2 7488   0.906   4.493   4.959
 2308SOL     OW 7489   0.040   4.268   4.838
 2308SOL    HW1 7490   0.125   4.235   4.797
 2308SOL    HW2 7491   0.053   4.283   4.936
 2309SOL     OW 7492   0.189   4.244   5.446
 2309SOL    HW1 7493   0.248   4.204   5.376
 2309SOL    HW2 7494   0.131   4.315   5.405
 2310SOL     OW 7495   1.369   4.674   5.384
 2310SOL    HW1 7496   1.408   4.763   5.404
 2310SOL    HW2 7497   1.379   4.654   5.287
 2311SOL     OW 7498   0.815   4.296   4.049
 2311SOL    HW1 7499   0.822   4.207   4.003
 2311SOL    HW2 7500   0.721   4.330   4.041
 2312SOL     OW 7501   1.657   4.328   4.930
 2312SOL    HW1 7502   1.619   4.259   4.992
 2312SOL    HW2 7503   1.739   4.292   4.886
 2313SOL     OW 7504   0.252   5.288   5.468
 2313SOL    HW1 7505   0.222   5.345   5.544
 2313SOL    HW2 7506   0.245   5.191   5.494
 2314SOL     OW 7507   0.671   4.188   4.993
 2314SOL    HW1 7508   0.637   4.099   4.963
 2314SOL    HW2 7509   0.697   4.242   4.913
 2315SOL     OW 7510   0.473   4.224   3.915
 2315SOL    HW1 7511   0.534   4.304   3.919
 2315SOL    HW2 7512   0.378   4.255   3.922
 2316SOL     OW 7513   0.159   4.861   5.190
 2316SOL    HW1 7514   0.181   4.800   5.266
 2316SOL    HW2 7515   0.169   4.812   5.104
 2317SOL     OW 7516   1.347   4.783   4.958
 2317SOL    HW1 7517   1.371   4.720   4.884
 2317SOL    HW2 7518   1.257   4.823   4.940
 2318SOL     OW 7519   1.302   4.579   4.033
 2318SOL    HW1 7520   1.216   4.548   4.075
 2318SOL    HW2 7521   1.298   4.565   3.934
 2319SOL     OW 7522   0.083   4.982   4.746
 2319SOL    HW1 7523   0.078   4.981   4.846
 2319SOL    HW2 7524   0.000   4.941   4.708
 2320SOL     OW 7525   0.688   5.386   5.440
 2320SOL    HW1 7526   0.632   5.467   5.449
 2320SOL    HW2 7527   0.740   5.390   5.354
 2321SOL     OW 7528   1.726   3.859   4.247
 2321SOL    HW1 7529   1.799   3.842   4.180
 2321SOL    HW2 7530   1.695   3.772   4.285
 2322SOL     OW 7531   1.280   4.651   4.396
 2322SOL    HW1 7532   1.340   4.570   4.398
 2322SOL    HW2 7533   1.320   4.720   4.336
 2323SOL     OW 7534   0.830   4.997   5.146
 2323SOL    HW1 7535   0.825   5.030   5.241
 2323SOL    HW2 7536   0.744   5.016   5.100
 2324SOL     OW 7537   1.841   3.899   4.687
 2324SOL    HW1 7538   1.880   3.814   4.651
 2324SOL    HW2 7539   1.743   3.901   4.668
 2325SOL     OW 7540   0.263   4.050   4.444
 2325SOL    HW1 7541   0.184   4.101   4.410
 2325SOL    HW2 7542   0.254   4.035   4.542
 2326SOL     OW 7543   0.822   4.726   5.096
 2326SOL    HW1 7544   0.862   4.725   5.004
 2326SOL    HW2 7545   0.832   4.818   5.136
 2327SOL     OW 7546   0.916   4.634   4.015
 2327SOL    HW1 7547   0.979   4.672   3.947
 2327SOL    HW2 7548   0.956   4.551   4.054
 2328SOL     OW 7549   0.372   5.012   5.214
 2328SOL    HW1 7550   0.359   5.105   5.180
 2328SOL    HW2 7551   0.288   4.960   5.201
 2329SOL     OW 7552   1.614   5.016   5.013
 2329SOL    HW1 7553   1.674   5.019   5.093
 2329SOL    HW2 7554   1.539   5.080   5.026
 2330SOL     OW 7555   1.039   4.822   4.420
 2330SOL    HW1 7556   0.969   4.775   4.474
 2330SOL    HW2 7557   1.098   4.754   4.377
 2331SOL     OW 7558   1.014   3.960   4.695
 2331SOL    HW1 7559   1.006   3.924   4.602
 2331SOL    HW2 7560   1.012   3.884   4.760
 2332SOL     OW 7561   1.709   4.109   5.105
 2332SOL    HW1 7562   1.782   4.178   5.109
 2332SOL    HW2 7563   1.737   4.034   5.046
 2333SOL     OW 7564   0.255   5.072   4.014
 2333SOL    HW1 7565   0.159   5.073   3.987
 2333SOL    HW2 7566   0.267   5.125   4.098
 2334SOL     OW 7567   0.105   4.737   5.450
 2334SOL    HW1 7568   0.028   4.704   5.504
 2334SOL    HW2 7569   0.190   4.707   5.492
 2335SOL     OW 7570   0.672   3.927   5.213
 2335SOL    HW1 7571   0.762   3.911   5.173
 2335SOL    HW2 7572   0.680   3.932   5.312
 2336SOL     OW 7573   0.075   4.069   3.757
 2336SOL    HW1 7574  -0.017   4.041   3.728
 2336SOL    HW2 7575   0.106   4.146   3.701
 2337SOL     OW 7576   1.440   4.580   5.122
 2337SOL    HW1 7577   1.383   4.632   5.059
 2337SOL    HW2 7578   1.536   4.592   5.098
 2338SOL     OW 7579   0.072   3.890   4.042
 2338SOL    HW1 7580   0.055   3.973   3.988
 2338SOL    HW2 7581   0.162   3.853   4.020
 2339SOL     OW 7582   1.183   5.059   3.843
 2339SOL    HW1 7583   1.084   5.048   3.845
 2339SOL    HW2 7584   1.217   5.074   3.936
 2340SOL     OW 7585   0.613   4.566   5.155
 2340SOL    HW1 7586   0.669   4.647   5.138
 2340SOL    HW2 7587   0.672   4.486   5.158
 2341SOL     OW 7588   0.716   4.289   5.432
 2341SOL    HW1 7589   0.735   4.354   5.506
 2341SOL    HW2 7590   0.776   4.209   5.441
 2342SOL     OW 7591   1.450   4.944   5.357
 2342SOL    HW1 7592   1.441   4.934   5.456
 2342SOL    HW2 7593   1.546   4.937   5.331
 2343SOL     OW 7594   1.674   4.607   4.978
 2343SOL    HW1 7595   1.647   4.518   4.941
 2343SOL    HW2 7596   1.675   4.675   4.905
 2344SOL     OW 7597   1.225   4.049   4.173
 2344SOL    HW1 7598   1.290   3.975   4.162
 2344SOL    HW2 7599   1.245   4.099   4.257
 2345SOL     OW 7600   0.594   4.469   4.376
 2345SOL    HW1 7601   0.644   4.554   4.357
 2345SOL    HW2 7602   0.506   4.471   4.328
 2346SOL     OW 7603   1.777   4.066   5.366
 2346SOL    HW1 7604   1.760   4.097   5.272
 2346SOL    HW2 7605   1.693   4.029   5.404
 2347SOL     OW 7606   1.730   4.658   5.241
 2347SOL    HW1 7607   1.768   4.749   5.256
 2347SOL    HW2 7608   1.722   4.641   5.142
 2348SOL     OW 7609   0.859   5.098   3.740
 2348SOL    HW1 7610   0.813   5.113   3.828
 2348SOL    HW2 7611   0.903   5.183   3.710
 2349SOL     OW 7612   0.859   4.680   4.585
 2349SOL    HW1 7613   0.913   4.611   4.633
 2349SOL    HW2 7614   0.827   4.749   4.651
 2350SOL     OW 7615   1.083   4.708   3.811
 2350SOL    HW1 7616   1.060   4.761   3.729
 2350SOL    HW2 7617   1.164   4.652   3.792
 2351SOL     OW 7618   0.221   5.038   5.568
 2351SOL    HW1 7619   0.156   4.965   5.547
 2351SOL    HW2 7620   0.225   5.052   5.666
 2352SOL     OW 7621   0.079   4.964   4.377
 2352SOL    HW1 7622   0.078   4.917   4.465
 2352SOL    HW2 7623   0.161   4.936   4.326
 2353SOL     OW 7624   0.672   5.115   5.348
 2353SOL    HW1 7625   0.594   5.065   5.386
 2353SOL    HW2 7626   0.669   5.210   5.379
 2354SOL     OW 7627   1.824   3.916   4.951
 2354SOL    HW1 7628   1.820   3.826   4.995
 2354SOL    HW2 7629   1.827   3.905   4.852
 2355SOL     OW 7630   0.428   4.148   4.244
 2355SOL    HW1 7631   0.458   4.076   4.182
 2355SOL    HW2 7632   0.389   4.108   4.327
 2356SOL     OW 7633   1.705   5.211   4.828
 2356SOL    HW1 7634   1.612   5.186   4.801
 2356SOL    HW2 7635   1.731   5.161   4.910
 2357SOL     OW 7636   0.317   4.271   5.004
 2357SOL    HW1 7637   0.355   4.212   5.076
 2357SOL    HW2 7638   0.357   4.245   4.916
 2358SOL     OW 7639   1.424   3.938   4.836
 2358SOL    HW1 7640   1.476   3.873   4.891
 2358SOL    HW2 7641   1.375   4.001   4.897
 2359SOL     OW 7642   1.001   3.758   4.878
 2359SOL    HW1 7643   0.938   3.686   4.847
 2359SOL    HW2 7644   1.094   3.722   4.878
 2360SOL     OW 7645   0.770   5.054   4.025
 2360SOL    HW1 7646   0.724   4.967   4.042
 2360SOL    HW2 7647   0.861   5.051   4.066
 2361SOL     OW 7648   0.618   5.291   5.008
 2361SOL    HW1 7649   0.613   5.373   5.065
 2361SOL    HW2 7650   0.707   5.288   4.963
 2362SOL     OW 7651   1.352   3.776   3.892
 2362SOL    HW1 7652   1.387   3.735   3.808
 2362SOL    HW2 7653   1.262   3.738   3.912
 2363SOL     OW 7654   1.300   4.177   4.415
 2363SOL    HW1 7655   1.241   4.257   4.419
 2363SOL    HW2 7656   1.315   4.142   4.508
 2364SOL     OW 7657   1.593   3.945   4.606
 2364SOL    HW1 7658   1.509   3.944   4.660
 2364SOL    HW2 7659   1.595   4.028   4.550
 2365SOL     OW 7660   0.039   4.801   4.024
 2365SOL    HW1 7661   0.138   4.790   4.015
 2365SOL    HW2 7662  -0.001   4.715   4.056
 2366SOL     OW 7663   0.230   4.352   5.699
 2366SOL    HW1 7664   0.137   4.350   5.736
 2366SOL    HW2 7665   0.231   4.313   5.607
 2367SOL     OW 7666   0.225   3.999   6.582
 2367SOL    HW1 7667   0.260   3.982   6.674
 2367SOL    HW2 7668   0.137   3.954   6.570
 2368SOL     OW 7669   0.019   4.092   6.233
 2368SOL    HW1 7670  -0.063   4.135   6.272
 2368SOL    HW2 7671  -0.009   4.019   6.170
 2369SOL     OW 7672   0.569   4.999   6.751
 2369SOL    HW1 7673   0.476   4.992   6.714
 2369SOL    HW2 7674   0.580   5.088   6.795
 2370SOL     OW 7675   1.555   5.235   6.289
 2370SOL    HW1 7676   1.498   5.219   6.370
 2370SOL    HW2 7677   1.496   5.245   6.209
 2371SOL     OW 7678   1.135   4.427   6.303
 2371SOL    HW1 7679   1.192   4.505   6.278
 2371SOL    HW2 7680   1.075   4.453   6.379
 2372SOL     OW 7681   1.755   4.331   5.817
 2372SOL    HW1 7682   1.743   4.318   5.718
 2372SOL    HW2 7683   1.725   4.250   5.866
 2373SOL     OW 7684   0.768   4.868   6.609
 2373SOL    HW1 7685   0.690   4.885   6.669
 2373SOL    HW2 7686   0.802   4.955   6.573
 2374SOL     OW 7687   0.850   4.522   7.409
 2374SOL    HW1 7688   0.846   4.598   7.474
 2374SOL    HW2 7689   0.872   4.558   7.318
 2375SOL     OW 7690   0.685   4.736   6.251
 2375SOL    HW1 7691   0.754   4.720   6.321
 2375SOL    HW2 7692   0.612   4.793   6.289
 2376SOL     OW 7693   0.686   4.885   7.389
 2376SOL    HW1 7694   0.746   4.964   7.403
 2376SOL    HW2 7695   0.600   4.916   7.348
 2377SOL     OW 7696   0.335   5.159   6.647
 2377SOL    HW1 7697   0.257   5.128   6.594
 2377SOL    HW2 7698   0.393   5.217   6.590
 2378SOL     OW 7699   1.460   5.229   6.925
 2378SOL    HW1 7700   1.484   5.323   6.951
 2378SOL    HW2 7701   1.444   5.175   7.007
 2379SOL     OW 7702   0.438   4.116   7.085
 2379SOL    HW1 7703   0.520   4.060   7.094
 2379SOL    HW2 7704   0.357   4.058   7.089
 2380SOL     OW 7705   1.603   4.171   6.323
 2380SOL    HW1 7706   1.529   4.217   6.273
 2380SOL    HW2 7707   1.654   4.239   6.376
 2381SOL     OW 7708   1.127   5.065   7.276
 2381SOL    HW1 7709   1.174   5.065   7.364
 2381SOL    HW2 7710   1.079   4.978   7.265
 2382SOL     OW 7711   0.230   5.158   6.124
 2382SOL    HW1 7712   0.204   5.254   6.124
 2382SOL    HW2 7713   0.159   5.104   6.169
 2383SOL     OW 7714   0.240   4.815   6.472
 2383SOL    HW1 7715   0.254   4.731   6.524
 2383SOL    HW2 7716   0.185   4.879   6.527
 2384SOL     OW 7717   0.606   4.688   5.709
 2384SOL    HW1 7718   0.613   4.772   5.655
 2384SOL    HW2 7719   0.652   4.701   5.797
 2385SOL     OW 7720   1.594   3.838   7.066
 2385SOL    HW1 7721   1.576   3.905   6.994
 2385SOL    HW2 7722   1.591   3.884   7.155
 2386SOL     OW 7723   0.122   4.367   6.149
 2386SOL    HW1 7724   0.077   4.279   6.166
 2386SOL    HW2 7725   0.121   4.421   6.233
 2387SOL     OW 7726   0.027   5.320   5.703
 2387SOL    HW1 7727   0.008   5.224   5.724
 2387SOL    HW2 7728  -0.006   5.378   5.778
 2388SOL     OW 7729   1.689   4.646   6.198
 2388SOL    HW1 7730   1.784   4.617   6.206
 2388SOL    HW2 7731   1.681   4.711   6.123
 2389SOL     OW 7732   1.641   4.832   6.018
 2389SOL    HW1 7733   1.727   4.834   5.966
 2389SOL    HW2 7734   1.655   4.879   6.106
 2390SOL     OW 7735   0.113   4.461   7.183
 2390SOL    HW1 7736   0.201   4.448   7.228
 2390SOL    HW2 7737   0.100   4.558   7.161
 2391SOL     OW 7738   0.613   5.089   6.312
 2391SOL    HW1 7739   0.564   5.002   6.321
 2391SOL    HW2 7740   0.590   5.132   6.225
 2392SOL     OW 7741   1.293   4.952   7.009
 2392SOL    HW1 7742   1.330   4.879   6.951
 2392SOL    HW2 7743   1.345   4.957   7.094
 2393SOL     OW 7744   0.809   3.728   6.088
 2393SOL    HW1 7745   0.849   3.819   6.079
 2393SOL    HW2 7746   0.709   3.736   6.094
 2394SOL     OW 7747   0.197   4.700   6.850
 2394SOL    HW1 7748   0.286   4.655   6.836
 2394SOL    HW2 7749   0.124   4.635   6.831
 2395SOL     OW 7750   1.525   4.723   5.776
 2395SOL    HW1 7751   1.462   4.647   5.789
 2395SOL    HW2 7752   1.573   4.741   5.862
 2396SOL     OW 7753   0.317   3.975   7.387
 2396SOL    HW1 7754   0.388   4.046   7.393
 2396SOL    HW2 7755   0.229   4.014   7.415
 2397SOL     OW 7756   1.466   5.141   6.539
 2397SOL    HW1 7757   1.407   5.147   6.619
 2397SOL    HW2 7758   1.451   5.053   6.493
 2398SOL     OW 7759   0.598   4.453   5.856
 2398SOL    HW1 7760   0.622   4.522   5.788
 2398SOL    HW2 7761   0.520   4.486   5.910
 2399SOL     OW 7762   1.281   4.069   6.530
 2399SOL    HW1 7763   1.195   4.019   6.517
 2399SOL    HW2 7764   1.343   4.015   6.586
 2400SOL     OW 7765   0.807   4.329   7.051
 2400SOL    HW1 7766   0.760   4.326   7.140
 2400SOL    HW2 7767   0.756   4.274   6.985
 2401SOL     OW 7768   1.394   4.193   7.260
 2401SOL    HW1 7769   1.374   4.236   7.348
 2401SOL    HW2 7770   1.472   4.131   7.269
 2402SOL     OW 7771   0.973   4.614   7.158
 2402SOL    HW1 7772   1.019   4.530   7.129
 2402SOL    HW2 7773   0.917   4.648   7.083
 2403SOL     OW 7774   0.991   4.134   6.828
 2403SOL    HW1 7775   0.914   4.168   6.882
 2403SOL    HW2 7776   0.957   4.083   6.749
 2404SOL     OW 7777   1.041   4.425   6.015
 2404SOL    HW1 7778   1.067   4.421   6.111
 2404SOL    HW2 7779   0.956   4.374   6.001
 2405SOL     OW 7780   0.076   4.535   6.375
 2405SOL    HW1 7781   0.175   4.523   6.384
 2405SOL    HW2 7782   0.052   4.630   6.396
 2406SOL     OW 7783   0.865   4.072   5.781
 2406SOL    HW1 7784   0.924   4.135   5.732
 2406SOL    HW2 7785   0.884   3.978   5.752
 2407SOL     OW 7786   1.719   4.309   7.417
 2407SOL    HW1 7787   1.693   4.398   7.381
 2407SOL    HW2 7788   1.717   4.241   7.344
 2408SOL     OW 7789   1.362   4.868   6.131
 2408SOL    HW1 7790   1.445   4.839   6.083
 2408SOL    HW2 7791   1.313   4.935   6.075
 2409SOL     OW 7792   0.550   3.920   6.471
 2409SOL    HW1 7793   0.545   3.915   6.571
 2409SOL    HW2 7794   0.552   4.016   6.442
 2410SOL     OW 7795   1.008   5.180   6.063
 2410SOL    HW1 7796   0.962   5.252   6.011
 2410SOL    HW2 7797   1.004   5.200   6.161
 2411SOL     OW 7798   1.795   4.790   6.459
 2411SOL    HW1 7799   1.733   4.775   6.383
 2411SOL    HW2 7800   1.743   4.801   6.544
 2412SOL     OW 7801   1.227   5.274   7.092
 2412SOL    HW1 7802   1.233   5.197   7.156
 2412SOL    HW2 7803   1.175   5.248   7.012
 2413SOL     OW 7804   0.321   4.667   5.828
 2413SOL    HW1 7805   0.403   4.706   5.786
 2413SOL    HW2 7806   0.294   4.585   5.779
 2414SOL     OW 7807   1.458   4.459   6.314
 2414SOL    HW1 7808   1.453   4.394   6.389
 2414SOL    HW2 7809   1.538   4.518   6.327
 2415SOL     OW 7810   0.461   4.990   7.313
 2415SOL    HW1 7811   0.411   4.991   7.227
 2415SOL    HW2 7812   0.398   4.972   7.389
 2416SOL     OW 7813   1.111   5.500   5.823
 2416SOL    HW1 7814   1.051   5.438   5.873
 2416SOL    HW2 7815   1.142   5.456   5.738
 2417SOL     OW 7816   0.202   4.009   7.084
 2417SOL    HW1 7817   0.122   4.069   7.071
 2417SOL    HW2 7818   0.192   3.960   7.170
 2418SOL     OW 7819   1.632   5.101   5.667
 2418SOL    HW1 7820   1.600   5.195   5.657
 2418SOL    HW2 7821   1.556   5.038   5.655
 2419SOL     OW 7822   1.400   3.831   6.012
 2419SOL    HW1 7823   1.376   3.794   5.922
 2419SOL    HW2 7824   1.499   3.847   6.016
 2420SOL     OW 7825   0.382   4.424   6.066
 2420SOL    HW1 7826   0.427   4.334   6.063
 2420SOL    HW2 7827   0.288   4.413   6.099
 2421SOL     OW 7828   1.547   3.946   7.315
 2421SOL    HW1 7829   1.542   3.983   7.407
 2421SOL    HW2 7830   1.475   3.877   7.303
 2422SOL     OW 7831   0.614   3.846   5.703
 2422SOL    HW1 7832   0.712   3.824   5.710
 2422SOL    HW2 7833   0.583   3.829   5.610
 2423SOL     OW 7834   0.781   3.988   7.335
 2423SOL    HW1 7835   0.848   3.927   7.378
 2423SOL    HW2 7836   0.708   4.007   7.400
 2424SOL     OW 7837   1.351   4.314   7.019
 2424SOL    HW1 7838   1.379   4.271   7.104
 2424SOL    HW2 7839   1.376   4.410   7.020
 2425SOL     OW 7840   0.803   5.126   6.510
 2425SOL    HW1 7841   0.893   5.140   6.468
 2425SOL    HW2 7842   0.732   5.128   6.439
 2426SOL     OW 7843   0.922   4.227   6.485
 2426SOL    HW1 7844   0.897   4.218   6.389
 2426SOL    HW2 7845   0.970   4.145   6.516
 2427SOL     OW 7846   0.539   3.788   6.098
 2427SOL    HW1 7847   0.458   3.789   6.156
 2427SOL    HW2 7848   0.542   3.871   6.043
 2428SOL     OW 7849   1.434   4.912   5.627
 2428SOL    HW1 7850   1.466   4.836   5.684
 2428SOL    HW2 7851   1.342   4.939   5.657
 2429SOL     OW 7852   0.297   3.759   5.757
 2429SOL    HW1 7853   0.346   3.843   5.736
 2429SOL    HW2 7854   0.359   3.694   5.802
 2430SOL     OW 7855   0.935   3.960   6.066
 2430SOL    HW1 7856   0.887   4.001   5.988
 2430SOL    HW2 7857   1.034   3.958   6.047
 2431SOL     OW 7858   1.076   4.407   7.050
 2431SOL    HW1 7859   0.996   4.346   7.053
 2431SOL    HW2 7860   1.157   4.354   7.026
 2432SOL     OW 7861   1.227   5.294   6.379
 2432SOL    HW1 7862   1.248   5.368   6.314
 2432SOL    HW2 7863   1.295   5.294   6.452
 2433SOL     OW 7864   0.459   4.876   6.327
 2433SOL    HW1 7865   0.388   4.849   6.392
 2433SOL    HW2 7866   0.433   4.848   6.234
 2434SOL     OW 7867   1.032   4.273   5.602
 2434SOL    HW1 7868   0.991   4.355   5.563
 2434SOL    HW2 7869   1.096   4.299   5.675
 2435SOL     OW 7870   0.078   4.280   6.972
 2435SOL    HW1 7871   0.170   4.279   6.931
 2435SOL    HW2 7872   0.072   4.354   7.039
 2436SOL     OW 7873   0.561   3.946   6.733
 2436SOL    HW1 7874   0.599   3.862   6.770
 2436SOL    HW2 7875   0.473   3.965   6.777
 2437SOL     OW 7876   0.866   4.178   6.228
 2437SOL    HW1 7877   0.834   4.250   6.166
 2437SOL    HW2 7878   0.890   4.097   6.175
 2438SOL     OW 7879   1.017   3.763   6.339
 2438SOL    HW1 7880   0.945   3.768   6.270
 2438SOL    HW2 7881   0.993   3.694   6.408
 2439SOL     OW 7882   1.429   4.897   6.453
 2439SOL    HW1 7883   1.374   4.813   6.446
 2439SOL    HW2 7884   1.455   4.926   6.361
 2440SOL     OW 7885   1.466   4.314   6.578
 2440SOL    HW1 7886   1.436   4.219   6.585
 2440SOL    HW2 7887   1.539   4.330   6.644
 2441SOL     OW 7888   1.857   4.557   5.963
 2441SOL    HW1 7889   1.899   4.493   6.027
 2441SOL    HW2 7890   1.819   4.506   5.885
 2442SOL     OW 7891   0.488   5.109   5.760
 2442SOL    HW1 7892   0.401   5.094   5.807
 2442SOL    HW2 7893   0.471   5.135   5.665
 2443SOL     OW 7894   1.664   5.004   6.243
 2443SOL    HW1 7895   1.763   5.012   6.257
 2443SOL    HW2 7896   1.619   5.088   6.274
 2444SOL     OW 7897   1.390   4.299   5.664
 2444SOL    HW1 7898   1.336   4.278   5.745
 2444SOL    HW2 7899   1.481   4.258   5.673
 2445SOL     OW 7900   0.527   3.980   5.914
 2445SOL    HW1 7901   0.554   3.921   5.839
 2445SOL    HW2 7902   0.527   4.075   5.883
 2446SOL     OW 7903   1.754   4.947   7.174
 2446SOL    HW1 7904   1.845   4.908   7.161
 2446SOL    HW2 7905   1.762   5.043   7.198
 2447SOL     OW 7906   1.064   5.071   6.926
 2447SOL    HW1 7907   0.984   5.048   6.981
 2447SOL    HW2 7908   1.147   5.045   6.975
 2448SOL     OW 7909   1.111   4.919   6.686
 2448SOL    HW1 7910   1.071   4.963   6.767
 2448SOL    HW2 7911   1.070   4.956   6.603
 2449SOL     OW 7912   1.638   4.823   6.665
 2449SOL    HW1 7913   1.643   4.904   6.724
 2449SOL    HW2 7914   1.552   4.825   6.614
 2450SOL     OW 7915   0.915   3.813   6.988
 2450SOL    HW1 7916   0.940   3.793   6.893
 2450SOL    HW2 7917   0.987   3.869   7.030
 2451SOL     OW 7918   0.980   4.840   7.305
 2451SOL    HW1 7919   0.881   4.846   7.315
 2451SOL    HW2 7920   1.003   4.760   7.249
 2452SOL     OW 7921   0.705   4.774   5.954
 2452SOL    HW1 7922   0.691   4.781   6.053
 2452SOL    HW2 7923   0.789   4.723   5.936
 2453SOL     OW 7924   0.410   4.537   6.837
 2453SOL    HW1 7925   0.496   4.549   6.887
 2453SOL    HW2 7926   0.368   4.450   6.864
 2454SOL     OW 7927   1.274   4.110   6.848
 2454SOL    HW1 7928   1.295   4.184   6.912
 2454SOL    HW2 7929   1.185   4.127   6.805
 2455SOL     OW 7930   0.064   5.288   6.917
 2455SOL    HW1 7931   0.018   5.370   6.883
 2455SOL    HW2 7932   0.162   5.307   6.926
 2456SOL     OW 7933   0.367   4.824   6.087
 2456SOL    HW1 7934   0.360   4.907   6.031
 2456SOL    HW2 7935   0.371   4.744   6.027
 2457SOL     OW 7936   0.566   4.261   6.451
 2457SOL    HW1 7937   0.578   4.327   6.377
 2457SOL    HW2 7938   0.612   4.295   6.534
 2458SOL     OW 7939   1.252   5.072   5.974
 2458SOL    HW1 7940   1.302   5.149   6.014
 2458SOL    HW2 7941   1.157   5.074   6.006
 2459SOL     OW 7942   1.272   5.169   6.728
 2459SOL    HW1 7943   1.319   5.182   6.815
 2459SOL    HW2 7944   1.206   5.095   6.737
 2460SOL     OW 7945   1.582   4.363   6.058
 2460SOL    HW1 7946   1.551   4.424   6.131
 2460SOL    HW2 7947   1.632   4.415   5.989
 2461SOL     OW 7948   0.354   5.234   6.915
 2461SOL    HW1 7949   0.333   5.190   6.828
 2461SOL    HW2 7950   0.451   5.260   6.918
 2462SOL     OW 7951   0.402   4.475   7.184
 2462SOL    HW1 7952   0.470   4.530   7.137
 2462SOL    HW2 7953   0.442   4.387   7.211
 2463SOL     OW 7954   1.587   4.503   7.256
 2463SOL    HW1 7955   1.495   4.541   7.251
 2463SOL    HW2 7956   1.647   4.550   7.191
 2464SOL     OW 7957   1.013   3.829   7.356
 2464SOL    HW1 7958   1.019   3.914   7.304
 2464SOL    HW2 7959   1.045   3.753   7.299
 2465SOL     OW 7960   0.504   3.774   7.326
 2465SOL    HW1 7961   0.462   3.717   7.256
 2465SOL    HW2 7962   0.438   3.843   7.358
 2466SOL     OW 7963   0.573   4.594   6.615
 2466SOL    HW1 7964   0.617   4.683   6.606
 2466SOL    HW2 7965   0.510   4.594   6.692
 2467SOL     OW 7966   1.360   4.586   6.631
 2467SOL    HW1 7967   1.285   4.586   6.565
 2467SOL    HW2 7968   1.397   4.494   6.640
 2468SOL     OW 7969   1.209   4.249   5.861
 2468SOL    HW1 7970   1.222   4.165   5.915
 2468SOL    HW2 7971   1.180   4.323   5.921
 2469SOL     OW 7972   0.307   3.937   6.817
 2469SOL    HW1 7973   0.284   3.974   6.907
 2469SOL    HW2 7974   0.277   3.842   6.811
 2470SOL     OW 7975   0.037   5.034   6.868
 2470SOL    HW1 7976   0.090   4.985   6.936
 2470SOL    HW2 7977   0.059   5.132   6.873
 2471SOL     OW 7978   0.732   4.358   6.650
 2471SOL    HW1 7979   0.791   4.332   6.574
 2471SOL    HW2 7980   0.704   4.454   6.639
 2472SOL     OW 7981   1.728   4.659   7.440
 2472SOL    HW1 7982   1.682   4.652   7.351
 2472SOL    HW2 7983   1.666   4.703   7.506
 2473SOL     OW 7984   0.307   3.787   6.204
 2473SOL    HW1 7985   0.296   3.881   6.237
 2473SOL    HW2 7986   0.302   3.724   6.281
 2474SOL     OW 7987   1.622   4.091   5.960
 2474SOL    HW1 7988   1.624   4.015   6.024
 2474SOL    HW2 7989   1.574   4.168   6.000
 2475SOL     OW 7990   1.023   4.490   6.552
 2475SOL    HW1 7991   1.038   4.511   6.648
 2475SOL    HW2 7992   0.993   4.395   6.543
 2476SOL     OW 7993   1.859   5.242   7.191
 2476SOL    HW1 7994   1.873   5.269   7.096
 2476SOL    HW2 7995   1.942   5.264   7.244
 2477SOL     OW 7996   0.350   4.622   7.390
 2477SOL    HW1 7997   0.426   4.666   7.438
 2477SOL    HW2 7998   0.385   4.575   7.308
 2478SOL     OW 7999   1.540   3.998   5.711
 2478SOL    HW1 8000   1.479   3.923   5.734
 2478SOL    HW2 8001   1.562   4.050   5.794
 2479SOL     OW 8002   1.303   4.562   5.628
 2479SOL    HW1 8003   1.337   4.469   5.643
 2479SOL    HW2 8004   1.321   4.589   5.533
 2480SOL     OW 8005   1.068   5.057   6.435
 2480SOL    HW1 8006   1.075   4.973   6.380
 2480SOL    HW2 8007   1.130   5.126   6.399
 2481SOL     OW 8008   0.319   4.534   6.535
 2481SOL    HW1 8009   0.412   4.570   6.540
 2481SOL    HW2 8010   0.313   4.449   6.587
 2482SOL     OW 8011   0.339   4.233   6.592
 2482SOL    HW1 8012   0.287   4.150   6.575
 2482SOL    HW2 8013   0.416   4.238   6.528
 2483SOL     OW 8014   1.138   4.104   7.264
 2483SOL    HW1 8015   1.093   4.167   7.328
 2483SOL    HW2 8016   1.231   4.135   7.247
 2484SOL     OW 8017   1.160   3.931   7.063
 2484SOL    HW1 8018   1.160   3.995   7.140
 2484SOL    HW2 8019   1.188   3.979   6.980
 2485SOL     OW 8020   0.008   5.050   5.786
 2485SOL    HW1 8021  -0.085   5.071   5.755
 2485SOL    HW2 8022   0.018   4.951   5.799
 2486SOL     OW 8023   1.002   4.520   6.824
 2486SOL    HW1 8024   1.043   4.488   6.910
 2486SOL    HW2 8025   0.906   4.493   6.821
 2487SOL     OW 8026   0.040   4.268   6.700
 2487SOL    HW1 8027   0.125   4.235   6.659
 2487SOL    HW2 8028   0.053   4.283   6.798
 2488SOL     OW 8029   0.189   4.244   7.308
 2488SOL    HW1 8030   0.248   4.204   7.238
 2488SOL    HW2 8031   0.131   4.315   7.267
 2489SOL     OW 8032   1.369   4.674   7.246
 2489SOL    HW1 8033   1.408   4.763   7.266
 2489SOL    HW2 8034   1.379   4.654   7.149
 2490SOL     OW 8035   0.815   4.296   5.911
 2490SOL    HW1 8036   0.822   4.207   5.865
 2490SOL    HW2 8037   0.721   4.330   5.903
 2491SOL     OW 8038   1.657   4.328   6.792
 2491SOL    HW1 8039   1.619   4.259   6.854
 2491SOL    HW2 8040   1.739   4.292   6.748
 2492SOL     OW 8041   0.252   5.288   7.330
 2492SOL    HW1 8042   0.222   5.345   7.406
 2492SOL    HW2 8043   0.245   5.191   7.356
 2493SOL     OW 8044   0.671   4.188   6.855
 2493SOL    HW1 8045   0.637   4.099   6.825
 2493SOL    HW2 8046   0.697   4.242   6.775
 2494SOL     OW 8047   0.473   4.224   5.777
 2494SOL    HW1 8048   0.534   4.304   5.781
 2494SOL    HW2 8049   0.378   4.255   5.784
 2495SOL     OW 8050   0.159   4.861   7.052
 2495SOL    HW1 8051   0.181   4.800   7.128
 2495SOL    HW2 8052   0.169   4.812   6.966
 2496SOL     OW 8053   1.347   4.783   6.820
 2496SOL    HW1 8054   1.371   4.720   6.746
 2496SOL    HW2 8055   1.257   4.823   6.802
 2497SOL     OW 8056   1.302   4.579   5.895
 2497SOL    HW1 8057   1.216   4.548   5.937
 2497SOL    HW2 8058   1.298   4.565   5.796
 2498SOL     OW 8059   0.083   4.982   6.608
 2498SOL    HW1 8060   0.078   4.981   6.708
 2498SOL    HW2 8061   0.000   4.941   6.570
 2499SOL     OW 8062   0.688   5.386   7.302
 2499SOL    HW1 8063   0.632   5.467   7.311
 2499SOL    HW2 8064   0.740   5.390   7.216
 2500SOL     OW 8065   1.726   3.859   6.109
 2500SOL    HW1 8066   1.799   3.842   6.042
 2500SOL    HW2 8067   1.695   3.772   6.147
 2501SOL     OW 8068   1.280   4.651   6.258
 2501SOL    HW1 8069   1.340   4.570   6.260
 2501SOL    HW2 8070   1.320   4.720   6.198
 2502SOL     OW 8071   0.830   4.997   7.008
 2502SOL    HW1 8072   0.825   5.030   7.103
 2502SOL    HW2 8073   0.744   5.016   6.962
 2503SOL     OW 8074   1.841   3.899   6.549
 2503SOL    HW1 8075   1.880   3.814   6.513
 2503SOL    HW2 8076   1.743   3.901   6.530
 2504SOL     OW 8077   0.263   4.050   6.306
 2504SOL    HW1 8078   0.184   4.101   6.272
 2504SOL    HW2 8079   0.254   4.035   6.404
 2505SOL     OW 8080   0.822   4.726   6.958
 2505SOL    HW1 8081   0.862   4.725   6.866
 2505SOL    HW2 8082   0.832   4.818   6.998
 2506SOL     OW 8083   0.916   4.634   5.877
 2506SOL    HW1 8084   0.979   4.672   5.809
 2506SOL    HW2 8085   0.956   4.551   5.916
 2507SOL     OW 8086   0.372   5.012   7.076
 2507SOL    HW1 8087   0.359   5.105   7.042
 2507SOL    HW2 8088   0.288   4.960   7.063
 2508SOL     OW 8089   1.614   5.016   6.875
 2508SOL    HW1 8090   1.674   5.019   6.955
 2508SOL    HW2 8091   1.539   5.080   6.888
 2509SOL     OW 8092   1.039   4.822   6.282
 2509SOL    HW1 8093   0.969   4.775   6.336
 2509SOL    HW2 8094   1.098   4.754   6.239
 2510SOL     OW 8095   1.014   3.960   6.557
 2510SOL    HW1 8096   1.006   3.924   6.464
 2510SOL    HW2 8097   1.012   3.884   6.622
 2511SOL     OW 8098   1.709   4.109   6.967
 2511SOL    HW1 8099   1.782   4.178   6.971
 2511SOL    HW2 8100   1.737   4.034   6.908
 2512SOL     OW 8101   0.255   5.072   5.876
 2512SOL    HW1 8102   0.159   5.073   5.849
 2512SOL    HW2 8103   0.267   5.125   5.960
 2513SOL     OW 8104   0.105   4.737   7.312
 2513SOL    HW1 8105   0.028   4.704   7.366
 2513SOL    HW2 8106   0.190   4.707   7.354
 2514SOL     OW 8107   0.672   3.927   7.075
 2514SOL    HW1 8108   0.762   3.911   7.035
 2514SOL    HW2 8109   0.680   3.932   7.174
 2515SOL     OW 8110   0.075   4.069   5.619
 2515SOL    HW1 8111  -0.017   4.041   5.590
 2515SOL    HW2 8112   0.106   4.146   5.563
 2516SOL     OW 8113   1.440   4.580   6.984
 2516SOL    HW1 8114   1.383   4.632   6.921
 2516SOL    HW2 8115   1.536   4.592   6.960
 2517SOL     OW 8116   0.072   3.890   5.904
 2517SOL    HW1 8117   0.055   3.973   5.850
 2517SOL    HW2 8118   0.162   3.853   5.882
 2518SOL     OW 8119   1.183   5.059   5.705
 2518SOL    HW1 8120   1.084   5.048   5.707
 2518SOL    HW2 8121   1.217   5.074   5.798
 2519SOL     OW 8122   0.613   4.566   7.017
 2519SOL    HW1 8123   0.669   4.647   7.000
 2519SOL    HW2 8124   0.672   4.486   7.020
 2520SOL     OW 8125   0.716   4.289   7.294
 2520SOL    HW1 8126   0.735   4.354   7.368
 2520SOL    HW2 8127   0.776   4.209   7.303
 2521SOL     OW 8128   1.450   4.944   7.219
 2521SOL    HW1 8129   1.441   4.934   7.318
 2521SOL    HW2 8130   1.546   4.937   7.193
 2522SOL     OW 8131   1.674   4.607   6.840
 2522SOL    HW1 8132   1.647   4.518   6.803
 2522SOL    HW2 8133   1.675   4.675   6.767
 2523SOL     OW 8134   1.225   4.049   6.035
 2523SOL    HW1 8135   1.290   3.975   6.024
 2523SOL    HW2 8136   1.245   4.099   6.119
 2524SOL     OW 8137   0.594   4.469   6.238
 2524SOL    HW1 8138   0.644   4.554   6.219
 2524SOL    HW2 8139   0.506   4.471   6.190
 2525SOL     OW 8140   1.777   4.066   7.228
 2525SOL    HW1 8141   1.760   4.097   7.134
 2525SOL    HW2 8142   1.693   4.029   7.266
 2526SOL     OW 8143   1.730   4.658   7.103
 2526SOL    HW1 8144   1.768   4.749   7.118
 2526SOL    HW2 8145   1.722   4.641   7.004
 2527SOL     OW 8146   0.859   5.098   5.602
 2527SOL    HW1 8147   0.813   5.113   5.690
 2527SOL    HW2 8148   0.903   5.183   5.572
 2528SOL     OW 8149   0.859   4.680   6.447
 2528SOL    HW1 8150   0.913   4.611   6.495
 2528SOL    HW2 8151   0.827   4.749   6.513
 2529SOL     OW 8152   1.083   4.708   5.673
 2529SOL    HW1 8153   1.060   4.761   5.591
 2529SOL    HW2 8154   1.164   4.652   5.654
 2530SOL     OW 8155   0.221   5.038   7.430
 2530SOL    HW1 8156   0.156   4.965   7.409
 2530SOL    HW2 8157   0.225   5.052   7.528
 2531SOL     OW 8158   0.079   4.964   6.239
 2531SOL    HW1 8159   0.078   4.917   6.327
 2531SOL    HW2 8160   0.161   4.936   6.188
 2532SOL     OW 8161   0.672   5.115   7.210
 2532SOL    HW1 8162   0.594   5.065   7.248
 2532SOL    HW2 8163   0.669   5.210   7.241
 2533SOL     OW 8164   1.824   3.916   6.813
 2533SOL    HW1 8165   1.820   3.826   6.857
 2533SOL    HW2 8166   1.827   3.905   6.714
 2534SOL     OW 8167   0.428   4.148   6.106
 2534SOL    HW1 8168   0.458   4.076   6.044
 2534SOL    HW2 8169   0.389   4.108   6.189
 2535SOL     OW 8170   1.705   5.211   6.690
 2535SOL    HW1 8171   1.612   5.186   6.663
 2535SOL    HW2 8172   1.731   5.161   6.772
 2536SOL     OW 8173   0.317   4.271   6.866
 2536SOL    HW1 8174   0.355   4.212   6.938
 2536SOL    HW2 8175   0.357   4.245   6.778
 2537SOL     OW 8176   1.424   3.938   6.698
 2537SOL    HW1 8177   1.476   3.873   6.753
 2537SOL    HW2 8178   1.375   4.001   6.759
 2538SOL     OW 8179   1.001   3.758   6.740
 2538SOL    HW1 8180   0.938   3.686   6.709
 2538SOL    HW2 8181   1.094   3.722   6.740
 2539SOL     OW 8182   0.770   5.054   5.887
 2539SOL    HW1 8183   0.724   4.967   5.904
 2539SOL    HW2 8184   0.861   5.051   5.928
 2540SOL     OW 8185   0.618   5.291   6.870
 2540SOL    HW1 8186   0.613   5.373   6.927
 2540SOL    HW2 8187   0.707   5.288   6.825
 2541SOL     OW 8188   1.352   3.776   5.754
 2541SOL    HW1 8189   1.387   3.735   5.670
 2541SOL    HW2 8190   1.262   3.738   5.774
 2542SOL     OW 8191   1.300   4.177   6.277
 2542SOL    HW1 8192   1.241   4.257   6.281
 2542SOL    HW2 8193   1.315   4.142   6.370
 2543SOL     OW 8194   1.593   3.945   6.468
 2543SOL    HW1 8195   1.509   3.944   6.522
 2543SOL    HW2 8196   1.595   4.028   6.412
 2544SOL     OW 8197   0.039   4.801   5.886
 2544SOL    HW1 8198   0.138   4.790   5.877
 2544SOL    HW2 8199  -0.001   4.715   5.918
 2545SOL     OW 8200   0.230   4.352   7.561
 2545SOL    HW1 8201   0.137   4.350   7.598
 2545SOL    HW2 8202   0.231   4.313   7.469
 2546SOL     OW 8203   1.755   4.331   7.679
 2546SOL    HW1 8204   1.743   4.318   7.580
 2546SOL    HW2 8205   1.725   4.250   7.728
 2547SOL     OW 8206   0.231   5.437   7.931
 2547SOL    HW1 8207   0.265   5.514   7.985
 2547SOL    HW2 8208   0.275   5.437   7.841
 2548SOL     OW 8209   0.230   5.158   7.986
 2548SOL    HW1 8210   0.204   5.254   7.986
 2548SOL    HW2 8211   0.159   5.104   8.031
 2549SOL     OW 8212   0.606   4.688   7.571
 2549SOL    HW1 8213   0.613   4.772   7.517
 2549SOL    HW2 8214   0.652   4.701   7.659
 2550SOL     OW 8215   0.027   5.320   7.565
 2550SOL    HW1 8216   0.008   5.224   7.586
 2550SOL    HW2 8217  -0.006   5.378   7.640
 2551SOL     OW 8218   1.689   4.646   8.060
 2551SOL    HW1 8219   1.784   4.617   8.068
 2551SOL    HW2 8220   1.681   4.711   7.985
 2552SOL     OW 8221   1.641   4.832   7.880
 2552SOL    HW1 8222   1.727   4.834   7.828
 2552SOL    HW2 8223   1.655   4.879   7.968
 2553SOL     OW 8224   0.809   3.728   7.950
 2553SOL    HW1 8225   0.849   3.819   7.941
 2553SOL    HW2 8226   0.709   3.736   7.956
 2554SOL     OW 8227   1.525   4.723   7.638
 2554SOL    HW1 8228   1.462   4.647   7.651
 2554SOL    HW2 8229   1.573   4.741   7.724
 2555SOL     OW 8230   0.598   4.453   7.718
 2555SOL    HW1 8231   0.622   4.522   7.650
 2555SOL    HW2 8232   0.520   4.486   7.772
 2556SOL     OW 8233   0.076   4.535   8.237
 2556SOL    HW1 8234   0.175   4.523   8.246
 2556SOL    HW2 8235   0.052   4.630   8.258
 2557SOL     OW 8236   0.865   4.072   7.643
 2557SOL    HW1 8237   0.924   4.135   7.594
 2557SOL    HW2 8238   0.884   3.978   7.614
 2558SOL     OW 8239   0.321   4.667   7.690
 2558SOL    HW1 8240   0.403   4.706   7.648
 2558SOL    HW2 8241   0.294   4.585   7.641
 2559SOL     OW 8242   1.111   5.500   7.685
 2559SOL    HW1 8243   1.051   5.438   7.735
 2559SOL    HW2 8244   1.142   5.456   7.600
 2560SOL     OW 8245   1.632   5.101   7.529
 2560SOL    HW1 8246   1.600   5.195   7.519
 2560SOL    HW2 8247   1.556   5.038   7.517
 2561SOL     OW 8248   1.400   3.831   7.874
 2561SOL    HW1 8249   1.376   3.794   7.784
 2561SOL    HW2 8250   1.499   3.847   7.878
 2562SOL     OW 8251   0.382   4.424   7.928
 2562SOL    HW1 8252   0.427   4.334   7.925
 2562SOL    HW2 8253   0.288   4.413   7.961
 2563SOL     OW 8254   0.614   3.846   7.565
 2563SOL    HW1 8255   0.712   3.824   7.572
 2563SOL    HW2 8256   0.583   3.829   7.472
 2564SOL     OW 8257   0.539   3.788   7.960
 2564SOL    HW1 8258   0.458   3.789   8.018
 2564SOL    HW2 8259   0.542   3.871   7.905
 2565SOL     OW 8260   1.434   4.912   7.489
 2565SOL    HW1 8261   1.466   4.836   7.546
 2565SOL    HW2 8262   1.342   4.939   7.519
 2566SOL     OW 8263   0.297   3.759   7.619
 2566SOL    HW1 8264   0.346   3.843   7.598
 2566SOL    HW2 8265   0.359   3.694   7.664
 2567SOL     OW 8266   0.935   3.960   7.928
 2567SOL    HW1 8267   0.887   4.001   7.850
 2567SOL    HW2 8268   1.034   3.958   7.909
 2568SOL     OW 8269   0.459   4.876   8.189
 2568SOL    HW1 8270   0.388   4.849   8.254
 2568SOL    HW2 8271   0.433   4.848   8.096
 2569SOL     OW 8272   1.032   4.273   7.464
 2569SOL    HW1 8273   0.991   4.355   7.425
 2569SOL    HW2 8274   1.096   4.299   7.537
 2570SOL     OW 8275   1.857   4.557   7.825
 2570SOL    HW1 8276   1.899   4.493   7.889
 2570SOL    HW2 8277   1.819   4.506   7.747
 2571SOL     OW 8278   0.488   5.109   7.622
 2571SOL    HW1 8279   0.401   5.094   7.669
 2571SOL    HW2 8280   0.471   5.135   7.527
 2572SOL     OW 8281   1.390   4.299   7.526
 2572SOL    HW1 8282   1.336   4.278   7.607
 2572SOL    HW2 8283   1.481   4.258   7.535
 2573SOL     OW 8284   0.527   3.980   7.776
 2573SOL    HW1 8285   0.554   3.921   7.701
 2573SOL    HW2 8286   0.527   4.075   7.745
 2574SOL     OW 8287   0.705   4.774   7.816
 2574SOL    HW1 8288   0.691   4.781   7.915
 2574SOL    HW2 8289   0.789   4.723   7.798
 2575SOL     OW 8290   0.367   4.824   7.949
 2575SOL    HW1 8291   0.360   4.907   7.893
 2575SOL    HW2 8292   0.371   4.744   7.889
 2576SOL     OW 8293   1.252   5.072   7.836
 2576SOL    HW1 8294   1.302   5.149   7.876
 2576SOL    HW2 8295   1.157   5.074   7.868
 2577SOL     OW 8296   1.582   4.363   7.920
 2577SOL    HW1 8297   1.551   4.424   7.993
 2577SOL    HW2 8298   1.632   4.415   7.851
 2578SOL     OW 8299   1.209   4.249   7.723
 2578SOL    HW1 8300   1.222   4.165   7.777
 2578SOL    HW2 8301   1.180   4.323   7.783
 2579SOL     OW 8302   1.622   4.091   7.822
 2579SOL    HW1 8303   1.624   4.015   7.886
 2579SOL    HW2 8304   1.574   4.168   7.862
 2580SOL     OW 8305   1.540   3.998   7.573
 2580SOL    HW1 8306   1.479   3.923   7.596
 2580SOL    HW2 8307   1.562   4.050   7.656
 2581SOL     OW 8308   1.303   4.562   7.490
 2581SOL    HW1 8309   1.337   4.469   7.505
 2581SOL    HW2 8310   1.321   4.589   7.395
 2582SOL     OW 8311   0.008   5.050   7.648
 2582SOL    HW1 8312  -0.085   5.071   7.617
 2582SOL    HW2 8313   0.018   4.951   7.661
 2583SOL     OW 8314   0.815   4.296   7.773
 2583SOL    HW1 8315   0.822   4.207   7.727
 2583SOL    HW2 8316   0.721   4.330   7.765
 2584SOL     OW 8317   0.473   4.224   7.639
 2584SOL    HW1 8318   0.534   4.304   7.643
 2584SOL    HW2 8319   0.378   4.255   7.646
 2585SOL     OW 8320   1.302   4.579   7.757
 2585SOL    HW1 8321   1.216   4.548   7.799
 2585SOL    HW2 8322   1.298   4.565   7.658
 2586SOL     OW 8323   1.726   3.859   7.971
 2586SOL    HW1 8324   1.799   3.842   7.904
 2586SOL    HW2 8325   1.695   3.772   8.009
 2587SOL     OW 8326   0.916   4.634   7.739
 2587SOL    HW1 8327   0.979   4.672   7.671
 2587SOL    HW2 8328   0.956   4.551   7.778
 2588SOL     OW 8329   0.255   5.072   7.738
 2588SOL    HW1 8330   0.159   5.073   7.711
 2588SOL    HW2 8331   0.267   5.125   7.822
 2589SOL     OW 8332   0.075   4.069   7.481
 2589SOL    HW1 8333  -0.017   4.041   7.452
 2589SOL    HW2 8334   0.106   4.146   7.425
 2590SOL     OW 8335   0.072   3.890   7.766
 2590SOL    HW1 8336   0.055   3.973   7.712
 2590SOL    HW2 8337   0.162   3.853   7.744
 2591SOL     OW 8338   1.183   5.059   7.567
 2591SOL    HW1 8339   1.084   5.048   7.569
 2591SOL    HW2 8340   1.217   5.074   7.660
 2592SOL     OW 8341   1.225   4.049   7.897
 2592SOL    HW1 8342   1.290   3.975   7.886
 2592SOL    HW2 8343   1.245   4.099   7.981
 2593SOL     OW 8344   0.594   4.469   8.100
 2593SOL    HW1 8345   0.644   4.554   8.081
 2593SOL    HW2 8346   0.506   4.471   8.052
 2594SOL     OW 8347   0.859   5.098   7.464
 2594SOL    HW1 8348   0.813   5.113   7.552
 2594SOL    HW2 8349   0.903   5.183   7.434
 2595SOL     OW 8350   1.083   4.708   7.535
 2595SOL    HW1 8351   1.060   4.761   7.453
 2595SOL    HW2 8352   1.164   4.652   7.516
 2596SOL     OW 8353   0.428   4.148   7.968
 2596SOL    HW1 8354   0.458   4.076   7.906
 2596SOL    HW2 8355   0.389   4.108   8.051
 2597SOL     OW 8356   0.770   5.054   7.749
 2597SOL    HW1 8357   0.724   4.967   7.766
 2597SOL    HW2 8358   0.861   5.051   7.790
 2598SOL     OW 8359   1.352   3.776   7.616
 2598SOL    HW1 8360   1.387   3.735   7.532
 2598SOL    HW2 8361   1.262   3.738   7.636
 2599SOL     OW 8362   0.039   4.801   7.748
 2599SOL    HW1 8363   0.138   4.790   7.739
 2599SOL    HW2 8364  -0.001   4.715   7.780
 2600SOL     OW 8365   2.092   0.628   0.113
 2600SOL    HW1 8366   1.999   0.626   0.150
 2600SOL    HW2 8367   2.093   0.589   0.021
 2601SOL     OW 8368   2.087   0.275   0.996
 2601SOL    HW1 8369   2.122   0.258   1.088
 2601SOL    HW2 8370   1.999   0.230   0.984
 2602SOL     OW 8371   1.881   0.368   0.647
 2602SOL    HW1 8372   1.799   0.411   0.686
 2602SOL    HW2 8373   1.853   0.295   0.584
 2603SOL     OW 8374   2.431   1.275   1.165
 2603SOL    HW1 8375   2.338   1.268   1.128
 2603SOL    HW2 8376   2.442   1.364   1.209
 2604SOL     OW 8377   3.417   1.511   0.703
 2604SOL    HW1 8378   3.360   1.495   0.784
 2604SOL    HW2 8379   3.358   1.521   0.623
 2605SOL     OW 8380   2.997   0.703   0.717
 2605SOL    HW1 8381   3.054   0.781   0.692
 2605SOL    HW2 8382   2.937   0.729   0.793
 2606SOL     OW 8383   3.617   0.607   0.231
 2606SOL    HW1 8384   3.605   0.594   0.132
 2606SOL    HW2 8385   3.587   0.526   0.280
 2607SOL     OW 8386   2.630   1.144   1.023
 2607SOL    HW1 8387   2.552   1.161   1.083
 2607SOL    HW2 8388   2.664   1.231   0.987
 2608SOL     OW 8389   2.712   0.798   1.823
 2608SOL    HW1 8390   2.708   0.874   1.888
 2608SOL    HW2 8391   2.734   0.834   1.732
 2609SOL     OW 8392   2.547   1.012   0.665
 2609SOL    HW1 8393   2.616   0.996   0.735
 2609SOL    HW2 8394   2.474   1.069   0.703
 2610SOL     OW 8395   2.548   1.161   1.803
 2610SOL    HW1 8396   2.608   1.240   1.817
 2610SOL    HW2 8397   2.462   1.192   1.762
 2611SOL     OW 8398   2.197   1.435   1.061
 2611SOL    HW1 8399   2.119   1.404   1.008
 2611SOL    HW2 8400   2.255   1.493   1.004
 2612SOL     OW 8401   3.322   1.505   1.339
 2612SOL    HW1 8402   3.346   1.599   1.365
 2612SOL    HW2 8403   3.306   1.451   1.421
 2613SOL     OW 8404   2.300   0.392   1.499
 2613SOL    HW1 8405   2.382   0.336   1.508
 2613SOL    HW2 8406   2.219   0.334   1.503
 2614SOL     OW 8407   3.465   0.447   0.737
 2614SOL    HW1 8408   3.391   0.493   0.687
 2614SOL    HW2 8409   3.516   0.515   0.790
 2615SOL     OW 8410   2.093   1.713   0.483
 2615SOL    HW1 8411   2.127   1.790   0.537
 2615SOL    HW2 8412   2.137   1.713   0.393
 2616SOL     OW 8413   2.989   1.341   1.690
 2616SOL    HW1 8414   3.036   1.341   1.778
 2616SOL    HW2 8415   2.941   1.254   1.679
 2617SOL     OW 8416   2.092   1.434   0.538
 2617SOL    HW1 8417   2.066   1.530   0.538
 2617SOL    HW2 8418   2.021   1.380   0.583
 2618SOL     OW 8419   2.102   1.091   0.886
 2618SOL    HW1 8420   2.116   1.007   0.938
 2618SOL    HW2 8421   2.047   1.155   0.941
 2619SOL     OW 8422   2.482   1.786   1.439
 2619SOL    HW1 8423   2.390   1.769   1.474
 2619SOL    HW2 8424   2.510   1.878   1.465
 2620SOL     OW 8425   2.468   0.964   0.123
 2620SOL    HW1 8426   2.475   1.048   0.069
 2620SOL    HW2 8427   2.514   0.977   0.211
 2621SOL     OW 8428   3.456   0.114   1.480
 2621SOL    HW1 8429   3.438   0.181   1.408
 2621SOL    HW2 8430   3.453   0.160   1.569
 2622SOL     OW 8431   1.984   0.643   0.563
 2622SOL    HW1 8432   1.939   0.555   0.580
 2622SOL    HW2 8433   1.983   0.697   0.647
 2623SOL     OW 8434   3.704   1.767   0.359
 2623SOL    HW1 8435   3.758   1.738   0.439
 2623SOL    HW2 8436   3.734   1.857   0.330
 2624SOL     OW 8437   1.889   1.596   0.117
 2624SOL    HW1 8438   1.870   1.500   0.138
 2624SOL    HW2 8439   1.856   1.654   0.192
 2625SOL     OW 8440   3.551   0.922   0.612
 2625SOL    HW1 8441   3.646   0.893   0.620
 2625SOL    HW2 8442   3.543   0.987   0.537
 2626SOL     OW 8443   3.503   1.108   0.432
 2626SOL    HW1 8444   3.589   1.110   0.380
 2626SOL    HW2 8445   3.517   1.155   0.520
 2627SOL     OW 8446   1.975   0.737   1.597
 2627SOL    HW1 8447   2.063   0.724   1.642
 2627SOL    HW2 8448   1.962   0.834   1.575
 2628SOL     OW 8449   2.475   1.365   0.726
 2628SOL    HW1 8450   2.426   1.278   0.735
 2628SOL    HW2 8451   2.452   1.408   0.639
 2629SOL     OW 8452   3.155   1.228   1.423
 2629SOL    HW1 8453   3.192   1.155   1.365
 2629SOL    HW2 8454   3.207   1.233   1.508
 2630SOL     OW 8455   2.671   0.004   0.502
 2630SOL    HW1 8456   2.711   0.095   0.493
 2630SOL    HW2 8457   2.571   0.012   0.508
 2631SOL     OW 8458   2.059   0.976   1.264
 2631SOL    HW1 8459   2.148   0.931   1.250
 2631SOL    HW2 8460   1.986   0.911   1.245
 2632SOL     OW 8461   3.387   0.999   0.190
 2632SOL    HW1 8462   3.324   0.923   0.203
 2632SOL    HW2 8463   3.435   1.017   0.276
 2633SOL     OW 8464   3.049   1.792   1.616
 2633SOL    HW1 8465   3.073   1.852   1.540
 2633SOL    HW2 8466   3.056   1.697   1.586
 2634SOL     OW 8467   2.179   0.251   1.801
 2634SOL    HW1 8468   2.250   0.322   1.807
 2634SOL    HW2 8469   2.091   0.290   1.829
 2635SOL     OW 8470   3.328   1.417   0.953
 2635SOL    HW1 8471   3.269   1.423   1.033
 2635SOL    HW2 8472   3.313   1.329   0.907
 2636SOL     OW 8473   3.529   1.714   0.572
 2636SOL    HW1 8474   3.488   1.691   0.484
 2636SOL    HW2 8475   3.511   1.640   0.637
 2637SOL     OW 8476   2.460   0.729   0.270
 2637SOL    HW1 8477   2.484   0.798   0.202
 2637SOL    HW2 8478   2.382   0.762   0.324
 2638SOL     OW 8479   3.143   0.345   0.944
 2638SOL    HW1 8480   3.057   0.295   0.931
 2638SOL    HW2 8481   3.205   0.291   1.000
 2639SOL     OW 8482   3.438   1.662   0.307
 2639SOL    HW1 8483   3.527   1.708   0.310
 2639SOL    HW2 8484   3.417   1.638   0.212
 2640SOL     OW 8485   2.669   0.605   1.465
 2640SOL    HW1 8486   2.622   0.602   1.554
 2640SOL    HW2 8487   2.618   0.550   1.399
 2641SOL     OW 8488   3.256   0.469   1.674
 2641SOL    HW1 8489   3.236   0.512   1.762
 2641SOL    HW2 8490   3.334   0.407   1.683
 2642SOL     OW 8491   2.835   0.890   1.572
 2642SOL    HW1 8492   2.881   0.806   1.543
 2642SOL    HW2 8493   2.779   0.924   1.497
 2643SOL     OW 8494   2.853   0.410   1.242
 2643SOL    HW1 8495   2.776   0.444   1.296
 2643SOL    HW2 8496   2.819   0.359   1.163
 2644SOL     OW 8497   2.903   0.701   0.429
 2644SOL    HW1 8498   2.929   0.697   0.525
 2644SOL    HW2 8499   2.818   0.650   0.415
 2645SOL     OW 8500   1.938   0.811   0.789
 2645SOL    HW1 8501   2.037   0.799   0.798
 2645SOL    HW2 8502   1.914   0.906   0.810
 2646SOL     OW 8503   1.992   1.821   1.571
 2646SOL    HW1 8504   1.982   1.806   1.670
 2646SOL    HW2 8505   1.906   1.857   1.535
 2647SOL     OW 8506   2.727   0.348   0.195
 2647SOL    HW1 8507   2.786   0.411   0.146
 2647SOL    HW2 8508   2.746   0.254   0.166
 2648SOL     OW 8509   3.581   0.585   1.831
 2648SOL    HW1 8510   3.555   0.674   1.795
 2648SOL    HW2 8511   3.579   0.517   1.758
 2649SOL     OW 8512   3.224   1.144   0.545
 2649SOL    HW1 8513   3.307   1.115   0.497
 2649SOL    HW2 8514   3.175   1.211   0.489
 2650SOL     OW 8515   2.412   0.196   0.885
 2650SOL    HW1 8516   2.407   0.191   0.985
 2650SOL    HW2 8517   2.414   0.292   0.856
 2651SOL     OW 8518   2.870   1.456   0.477
 2651SOL    HW1 8519   2.824   1.528   0.425
 2651SOL    HW2 8520   2.866   1.476   0.575
 2652SOL     OW 8521   2.213   1.801   0.853
 2652SOL    HW1 8522   2.263   1.715   0.859
 2652SOL    HW2 8523   2.278   1.878   0.850
 2653SOL     OW 8524   3.657   1.066   0.873
 2653SOL    HW1 8525   3.595   1.051   0.797
 2653SOL    HW2 8526   3.605   1.077   0.958
 2654SOL     OW 8527   3.089   1.550   1.506
 2654SOL    HW1 8528   3.095   1.473   1.570
 2654SOL    HW2 8529   3.037   1.524   1.426
 2655SOL     OW 8530   2.183   0.943   0.242
 2655SOL    HW1 8531   2.265   0.982   0.200
 2655SOL    HW2 8532   2.156   0.861   0.193
 2656SOL     OW 8533   3.320   0.735   0.728
 2656SOL    HW1 8534   3.315   0.670   0.803
 2656SOL    HW2 8535   3.400   0.794   0.741
 2657SOL     OW 8536   2.323   1.266   1.727
 2657SOL    HW1 8537   2.273   1.267   1.641
 2657SOL    HW2 8538   2.260   1.248   1.803
 2658SOL     OW 8539   2.973   1.776   0.237
 2658SOL    HW1 8540   2.913   1.714   0.287
 2658SOL    HW2 8541   3.004   1.732   0.152
 2659SOL     OW 8542   2.064   0.285   1.498
 2659SOL    HW1 8543   1.984   0.345   1.485
 2659SOL    HW2 8544   2.054   0.236   1.584
 2660SOL     OW 8545   3.494   1.377   0.081
 2660SOL    HW1 8546   3.462   1.471   0.071
 2660SOL    HW2 8547   3.418   1.314   0.069
 2661SOL     OW 8548   2.326   1.743   0.323
 2661SOL    HW1 8549   2.359   1.782   0.409
 2661SOL    HW2 8550   2.402   1.736   0.258
 2662SOL     OW 8551   3.262   0.107   0.426
 2662SOL    HW1 8552   3.238   0.070   0.336
 2662SOL    HW2 8553   3.361   0.123   0.430
 2663SOL     OW 8554   2.111   1.785   1.241
 2663SOL    HW1 8555   2.168   1.720   1.291
 2663SOL    HW2 8556   2.095   1.752   1.148
 2664SOL     OW 8557   2.802   1.698   0.904
 2664SOL    HW1 8558   2.882   1.641   0.925
 2664SOL    HW2 8559   2.753   1.658   0.827
 2665SOL     OW 8560   2.244   0.700   0.480
 2665SOL    HW1 8561   2.289   0.610   0.477
 2665SOL    HW2 8562   2.150   0.689   0.513
 2666SOL     OW 8563   3.409   0.222   1.729
 2666SOL    HW1 8564   3.404   0.259   1.821
 2666SOL    HW2 8565   3.337   0.153   1.717
 2667SOL     OW 8566   2.476   0.122   0.117
 2667SOL    HW1 8567   2.574   0.100   0.124
 2667SOL    HW2 8568   2.445   0.105   0.024
 2668SOL     OW 8569   2.643   0.264   1.749
 2668SOL    HW1 8570   2.710   0.203   1.792
 2668SOL    HW2 8571   2.570   0.283   1.814
 2669SOL     OW 8572   2.750   1.514   1.195
 2669SOL    HW1 8573   2.727   1.489   1.101
 2669SOL    HW2 8574   2.811   1.445   1.234
 2670SOL     OW 8575   3.213   0.590   1.433
 2670SOL    HW1 8576   3.241   0.547   1.518
 2670SOL    HW2 8577   3.238   0.686   1.434
 2671SOL     OW 8578   2.665   1.402   0.924
 2671SOL    HW1 8579   2.755   1.416   0.882
 2671SOL    HW2 8580   2.594   1.404   0.853
 2672SOL     OW 8581   2.784   0.503   0.899
 2672SOL    HW1 8582   2.759   0.494   0.803
 2672SOL    HW2 8583   2.832   0.421   0.930
 2673SOL     OW 8584   2.401   0.064   0.512
 2673SOL    HW1 8585   2.320   0.065   0.570
 2673SOL    HW2 8586   2.404   0.147   0.457
 2674SOL     OW 8587   3.296   1.188   0.041
 2674SOL    HW1 8588   3.328   1.112   0.098
 2674SOL    HW2 8589   3.204   1.215   0.071
 2675SOL     OW 8590   2.159   0.035   0.171
 2675SOL    HW1 8591   2.208   0.119   0.150
 2675SOL    HW2 8592   2.221  -0.030   0.216
 2676SOL     OW 8593   2.797   0.236   0.480
 2676SOL    HW1 8594   2.749   0.277   0.402
 2676SOL    HW2 8595   2.896   0.234   0.461
 2677SOL     OW 8596   2.938   0.683   1.464
 2677SOL    HW1 8597   2.858   0.622   1.467
 2677SOL    HW2 8598   3.019   0.630   1.440
 2678SOL     OW 8599   3.089   1.570   0.793
 2678SOL    HW1 8600   3.110   1.644   0.728
 2678SOL    HW2 8601   3.157   1.570   0.866
 2679SOL     OW 8602   2.321   1.152   0.741
 2679SOL    HW1 8603   2.250   1.125   0.806
 2679SOL    HW2 8604   2.295   1.124   0.648
 2680SOL     OW 8605   3.133   1.797   0.591
 2680SOL    HW1 8606   3.177   1.861   0.527
 2680SOL    HW2 8607   3.083   1.849   0.661
 2681SOL     OW 8608   2.894   0.549   0.016
 2681SOL    HW1 8609   2.853   0.631  -0.023
 2681SOL    HW2 8610   2.958   0.575   0.089
 2682SOL     OW 8611   1.940   0.556   1.386
 2682SOL    HW1 8612   2.032   0.555   1.345
 2682SOL    HW2 8613   1.934   0.630   1.453
 2683SOL     OW 8614   2.423   0.222   1.147
 2683SOL    HW1 8615   2.461   0.138   1.184
 2683SOL    HW2 8616   2.335   0.241   1.191
 2684SOL     OW 8617   2.728   0.454   0.642
 2684SOL    HW1 8618   2.696   0.526   0.580
 2684SOL    HW2 8619   2.752   0.373   0.589
 2685SOL     OW 8620   2.879   0.039   0.753
 2685SOL    HW1 8621   2.807   0.044   0.684
 2685SOL    HW2 8622   2.855  -0.030   0.822
 2686SOL     OW 8623   3.291   1.173   0.867
 2686SOL    HW1 8624   3.236   1.089   0.860
 2686SOL    HW2 8625   3.317   1.202   0.775
 2687SOL     OW 8626   3.328   0.590   0.992
 2687SOL    HW1 8627   3.298   0.495   0.999
 2687SOL    HW2 8628   3.401   0.606   1.058
 2688SOL     OW 8629   3.719   0.833   0.377
 2688SOL    HW1 8630   3.761   0.769   0.441
 2688SOL    HW2 8631   3.681   0.782   0.299
 2689SOL     OW 8632   2.350   1.385   0.174
 2689SOL    HW1 8633   2.263   1.370   0.221
 2689SOL    HW2 8634   2.333   1.411   0.079
 2690SOL     OW 8635   3.526   1.280   0.657
 2690SOL    HW1 8636   3.625   1.288   0.671
 2690SOL    HW2 8637   3.481   1.364   0.688
 2691SOL     OW 8638   3.252   0.575   0.078
 2691SOL    HW1 8639   3.198   0.554   0.159
 2691SOL    HW2 8640   3.343   0.534   0.087
 2692SOL     OW 8641   2.389   0.256   0.328
 2692SOL    HW1 8642   2.416   0.197   0.253
 2692SOL    HW2 8643   2.389   0.351   0.297
 2693SOL     OW 8644   3.616   1.223   1.588
 2693SOL    HW1 8645   3.707   1.184   1.575
 2693SOL    HW2 8646   3.624   1.319   1.612
 2694SOL     OW 8647   2.926   1.347   1.340
 2694SOL    HW1 8648   2.846   1.324   1.395
 2694SOL    HW2 8649   3.009   1.321   1.389
 2695SOL     OW 8650   3.454   1.629   1.625
 2695SOL    HW1 8651   3.481   1.663   1.535
 2695SOL    HW2 8652   3.533   1.591   1.671
 2696SOL     OW 8653   2.973   1.195   1.100
 2696SOL    HW1 8654   2.933   1.239   1.181
 2696SOL    HW2 8655   2.932   1.232   1.017
 2697SOL     OW 8656   3.500   1.099   1.079
 2697SOL    HW1 8657   3.505   1.180   1.138
 2697SOL    HW2 8658   3.414   1.101   1.028
 2698SOL     OW 8659   2.777   0.089   1.402
 2698SOL    HW1 8660   2.802   0.069   1.307
 2698SOL    HW2 8661   2.849   0.145   1.444
 2699SOL     OW 8662   2.842   1.116   1.719
 2699SOL    HW1 8663   2.743   1.122   1.729
 2699SOL    HW2 8664   2.865   1.036   1.663
 2700SOL     OW 8665   2.567   1.050   0.368
 2700SOL    HW1 8666   2.553   1.057   0.467
 2700SOL    HW2 8667   2.651   0.999   0.350
 2701SOL     OW 8668   2.272   0.813   1.251
 2701SOL    HW1 8669   2.358   0.825   1.301
 2701SOL    HW2 8670   2.230   0.726   1.278
 2702SOL     OW 8671   3.136   0.386   1.262
 2702SOL    HW1 8672   3.157   0.460   1.326
 2702SOL    HW2 8673   3.047   0.403   1.219
 2703SOL     OW 8674   1.926   1.564   1.331
 2703SOL    HW1 8675   1.880   1.646   1.297
 2703SOL    HW2 8676   2.024   1.583   1.340
 2704SOL     OW 8677   2.229   1.100   0.501
 2704SOL    HW1 8678   2.222   1.183   0.445
 2704SOL    HW2 8679   2.233   1.020   0.441
 2705SOL     OW 8680   2.428   0.537   0.865
 2705SOL    HW1 8681   2.440   0.603   0.791
 2705SOL    HW2 8682   2.474   0.571   0.948
 2706SOL     OW 8683   3.114   1.348   0.388
 2706SOL    HW1 8684   3.164   1.425   0.428
 2706SOL    HW2 8685   3.019   1.350   0.420
 2707SOL     OW 8686   3.134   1.445   1.142
 2707SOL    HW1 8687   3.181   1.458   1.229
 2707SOL    HW2 8688   3.068   1.371   1.151
 2708SOL     OW 8689   3.444   0.639   0.472
 2708SOL    HW1 8690   3.413   0.700   0.545
 2708SOL    HW2 8691   3.494   0.691   0.403
 2709SOL     OW 8692   2.216   1.510   1.329
 2709SOL    HW1 8693   2.195   1.466   1.242
 2709SOL    HW2 8694   2.313   1.536   1.332
 2710SOL     OW 8695   2.264   0.751   1.598
 2710SOL    HW1 8696   2.332   0.806   1.551
 2710SOL    HW2 8697   2.304   0.663   1.625
 2711SOL     OW 8698   3.449   0.779   1.670
 2711SOL    HW1 8699   3.357   0.817   1.665
 2711SOL    HW2 8700   3.509   0.826   1.605
 2712SOL     OW 8701   2.875   0.105   1.770
 2712SOL    HW1 8702   2.881   0.190   1.718
 2712SOL    HW2 8703   2.907   0.029   1.713
 2713SOL     OW 8704   2.366   0.050   1.740
 2713SOL    HW1 8705   2.324  -0.007   1.670
 2713SOL    HW2 8706   2.300   0.119   1.772
 2714SOL     OW 8707   2.435   0.870   1.029
 2714SOL    HW1 8708   2.479   0.959   1.020
 2714SOL    HW2 8709   2.372   0.870   1.106
 2715SOL     OW 8710   3.222   0.862   1.045
 2715SOL    HW1 8711   3.147   0.862   0.979
 2715SOL    HW2 8712   3.259   0.770   1.054
 2716SOL     OW 8713   3.071   0.525   0.275
 2716SOL    HW1 8714   3.084   0.441   0.329
 2716SOL    HW2 8715   3.042   0.599   0.335
 2717SOL     OW 8716   2.169   0.213   1.231
 2717SOL    HW1 8717   2.146   0.250   1.321
 2717SOL    HW2 8718   2.139   0.118   1.225
 2718SOL     OW 8719   1.899   1.310   1.282
 2718SOL    HW1 8720   1.952   1.261   1.350
 2718SOL    HW2 8721   1.921   1.408   1.287
 2719SOL     OW 8722   2.594   0.634   1.064
 2719SOL    HW1 8723   2.653   0.608   0.988
 2719SOL    HW2 8724   2.566   0.730   1.053
 2720SOL     OW 8725   3.590   0.935   1.854
 2720SOL    HW1 8726   3.544   0.928   1.765
 2720SOL    HW2 8727   3.528   0.979   1.920
 2721SOL     OW 8728   2.169   0.063   0.618
 2721SOL    HW1 8729   2.158   0.157   0.651
 2721SOL    HW2 8730   2.164   0.000   0.695
 2722SOL     OW 8731   3.484   0.367   0.374
 2722SOL    HW1 8732   3.486   0.291   0.438
 2722SOL    HW2 8733   3.436   0.444   0.414
 2723SOL     OW 8734   2.885   0.766   0.966
 2723SOL    HW1 8735   2.900   0.787   1.062
 2723SOL    HW2 8736   2.855   0.671   0.957
 2724SOL     OW 8737   2.842   1.573   1.700
 2724SOL    HW1 8738   2.822   1.617   1.612
 2724SOL    HW2 8739   2.881   1.482   1.684
 2725SOL     OW 8740   3.721   1.518   1.605
 2725SOL    HW1 8741   3.735   1.545   1.510
 2725SOL    HW2 8742   3.804   1.540   1.658
 2726SOL     OW 8743   2.212   0.898   1.804
 2726SOL    HW1 8744   2.288   0.942   1.852
 2726SOL    HW2 8745   2.247   0.851   1.722
 2727SOL     OW 8746   3.402   0.274   0.125
 2727SOL    HW1 8747   3.341   0.199   0.148
 2727SOL    HW2 8748   3.424   0.326   0.208
 2728SOL     OW 8749   3.165   0.838   0.042
 2728SOL    HW1 8750   3.199   0.745   0.057
 2728SOL    HW2 8751   3.183   0.865  -0.053
 2729SOL     OW 8752   2.930   1.333   0.849
 2729SOL    HW1 8753   2.937   1.249   0.794
 2729SOL    HW2 8754   2.992   1.402   0.813
 2730SOL     OW 8755   2.181   0.810   0.949
 2730SOL    HW1 8756   2.274   0.846   0.954
 2730SOL    HW2 8757   2.175   0.725   1.001
 2731SOL     OW 8758   2.201   0.509   1.006
 2731SOL    HW1 8759   2.149   0.426   0.989
 2731SOL    HW2 8760   2.278   0.514   0.942
 2732SOL     OW 8761   3.000   0.380   1.678
 2732SOL    HW1 8762   2.955   0.443   1.742
 2732SOL    HW2 8763   3.093   0.411   1.661
 2733SOL     OW 8764   3.022   0.207   1.477
 2733SOL    HW1 8765   3.022   0.271   1.554
 2733SOL    HW2 8766   3.050   0.255   1.394
 2734SOL     OW 8767   1.870   1.326   0.200
 2734SOL    HW1 8768   1.777   1.347   0.169
 2734SOL    HW2 8769   1.880   1.227   0.213
 2735SOL     OW 8770   1.950   1.801   0.927
 2735SOL    HW1 8771   1.908   1.715   0.900
 2735SOL    HW2 8772   2.044   1.804   0.893
 2736SOL     OW 8773   2.366   1.568   0.910
 2736SOL    HW1 8774   2.432   1.642   0.919
 2736SOL    HW2 8775   2.410   1.489   0.868
 2737SOL     OW 8776   2.864   0.796   1.238
 2737SOL    HW1 8777   2.905   0.764   1.324
 2737SOL    HW2 8778   2.768   0.769   1.235
 2738SOL     OW 8779   1.902   0.544   1.114
 2738SOL    HW1 8780   1.987   0.511   1.073
 2738SOL    HW2 8781   1.915   0.559   1.212
 2739SOL     OW 8782   2.051   0.520   1.722
 2739SOL    HW1 8783   2.110   0.480   1.652
 2739SOL    HW2 8784   1.993   0.591   1.681
 2740SOL     OW 8785   3.231   0.950   1.660
 2740SOL    HW1 8786   3.270   1.039   1.680
 2740SOL    HW2 8787   3.241   0.930   1.563
 2741SOL     OW 8788   2.677   0.572   0.325
 2741SOL    HW1 8789   2.684   0.483   0.279
 2741SOL    HW2 8790   2.583   0.606   0.317
 2742SOL     OW 8791   3.519   0.604   1.206
 2742SOL    HW1 8792   3.481   0.535   1.268
 2742SOL    HW2 8793   3.601   0.568   1.162
 2743SOL     OW 8794   2.114   1.564   1.744
 2743SOL    HW1 8795   2.084   1.621   1.820
 2743SOL    HW2 8796   2.107   1.467   1.770
 2744SOL     OW 8797   2.533   0.464   1.269
 2744SOL    HW1 8798   2.499   0.375   1.239
 2744SOL    HW2 8799   2.559   0.518   1.189
 2745SOL     OW 8800   2.792   1.678   1.465
 2745SOL    HW1 8801   2.768   1.660   1.370
 2745SOL    HW2 8802   2.822   1.772   1.475
 2746SOL     OW 8803   2.335   0.500   0.191
 2746SOL    HW1 8804   2.396   0.580   0.195
 2746SOL    HW2 8805   2.240   0.531   0.198
 2747SOL     OW 8806   2.021   1.137   1.466
 2747SOL    HW1 8807   2.043   1.076   1.542
 2747SOL    HW2 8808   2.031   1.088   1.380
 2748SOL     OW 8809   3.209   1.059   1.234
 2748SOL    HW1 8810   3.233   0.996   1.160
 2748SOL    HW2 8811   3.119   1.099   1.216
 2749SOL     OW 8812   3.164   0.855   0.309
 2749SOL    HW1 8813   3.078   0.824   0.351
 2749SOL    HW2 8814   3.160   0.841   0.210
 2750SOL     OW 8815   3.621   1.747   1.154
 2750SOL    HW1 8816   3.682   1.777   1.081
 2750SOL    HW2 8817   3.583   1.658   1.132
 2751SOL     OW 8818   3.114   1.731   1.128
 2751SOL    HW1 8819   3.198   1.736   1.074
 2751SOL    HW2 8820   3.091   1.635   1.146
 2752SOL     OW 8821   1.945   1.258   1.022
 2752SOL    HW1 8822   1.940   1.257   1.122
 2752SOL    HW2 8823   1.862   1.217   0.984
 2753SOL     OW 8824   2.550   1.662   1.716
 2753SOL    HW1 8825   2.494   1.743   1.725
 2753SOL    HW2 8826   2.602   1.666   1.630
 2754SOL     OW 8827   2.765   0.086   0.133
 2754SOL    HW1 8828   2.816   0.087   0.047
 2754SOL    HW2 8829   2.821   0.044   0.204
 2755SOL     OW 8830   3.588   0.135   0.523
 2755SOL    HW1 8831   3.661   0.118   0.456
 2755SOL    HW2 8832   3.557   0.048   0.561
 2756SOL     OW 8833   3.250   1.573   0.477
 2756SOL    HW1 8834   3.317   1.585   0.403
 2756SOL    HW2 8835   3.210   1.662   0.500
 2757SOL     OW 8836   1.992   1.794   1.851
 2757SOL    HW1 8837   1.951   1.720   1.904
 2757SOL    HW2 8838   2.056   1.845   1.909
 2758SOL     OW 8839   3.142   0.927   0.672
 2758SOL    HW1 8840   3.202   0.846   0.674
 2758SOL    HW2 8841   3.182   0.996   0.612
 2759SOL     OW 8842   2.692   1.273   1.422
 2759SOL    HW1 8843   2.687   1.306   1.517
 2759SOL    HW2 8844   2.606   1.292   1.376
 2760SOL     OW 8845   2.534   1.616   0.154
 2760SOL    HW1 8846   2.543   1.626   0.055
 2760SOL    HW2 8847   2.494   1.527   0.175
 2761SOL     OW 8848   3.512   1.720   1.394
 2761SOL    HW1 8849   3.565   1.730   1.310
 2761SOL    HW2 8850   3.485   1.810   1.428
 2762SOL     OW 8851   3.703   0.175   0.963
 2762SOL    HW1 8852   3.742   0.090   0.927
 2762SOL    HW2 8853   3.605   0.177   0.944
 2763SOL     OW 8854   2.125   0.326   0.720
 2763SOL    HW1 8855   2.046   0.377   0.686
 2763SOL    HW2 8856   2.116   0.311   0.818
 2764SOL     OW 8857   3.056   1.612   0.031
 2764SOL    HW1 8858   3.062   1.519   0.068
 2764SOL    HW2 8859   2.997   1.612  -0.049
 2765SOL     OW 8860   2.684   1.002   1.372
 2765SOL    HW1 8861   2.724   1.001   1.280
 2765SOL    HW2 8862   2.694   1.094   1.412
 2766SOL     OW 8863   2.778   0.910   0.291
 2766SOL    HW1 8864   2.841   0.948   0.223
 2766SOL    HW2 8865   2.818   0.827   0.330
 2767SOL     OW 8866   3.366   1.607   0.044
 2767SOL    HW1 8867   3.274   1.644   0.051
 2767SOL    HW2 8868   3.404   1.627  -0.046
 2768SOL     OW 8869   2.234   1.288   1.490
 2768SOL    HW1 8870   2.221   1.381   1.456
 2768SOL    HW2 8871   2.150   1.236   1.477
 2769SOL     OW 8872   3.476   1.292   1.289
 2769SOL    HW1 8873   3.536   1.295   1.369
 2769SOL    HW2 8874   3.401   1.356   1.302
 2770SOL     OW 8875   2.901   1.098   0.696
 2770SOL    HW1 8876   2.831   1.051   0.750
 2770SOL    HW2 8877   2.960   1.030   0.653
 2771SOL     OW 8878   2.876   0.236   0.971
 2771SOL    HW1 8879   2.868   0.200   0.878
 2771SOL    HW2 8880   2.874   0.160   1.036
 2772SOL     OW 8881   2.452   1.487   0.491
 2772SOL    HW1 8882   2.494   1.429   0.421
 2772SOL    HW2 8883   2.408   1.566   0.447
 2773SOL     OW 8884   3.571   0.385   1.381
 2773SOL    HW1 8885   3.644   0.454   1.385
 2773SOL    HW2 8886   3.599   0.310   1.322
 2774SOL     OW 8887   2.117   1.348   0.290
 2774SOL    HW1 8888   2.021   1.349   0.263
 2774SOL    HW2 8889   2.129   1.401   0.374
 2775SOL     OW 8890   1.967   1.013   1.726
 2775SOL    HW1 8891   1.890   0.980   1.780
 2775SOL    HW2 8892   2.052   0.983   1.768
 2776SOL     OW 8893   2.534   0.203   1.489
 2776SOL    HW1 8894   2.624   0.187   1.449
 2776SOL    HW2 8895   2.542   0.208   1.588
 2777SOL     OW 8896   1.937   0.345   0.033
 2777SOL    HW1 8897   1.845   0.317   0.004
 2777SOL    HW2 8898   1.968   0.422  -0.023
 2778SOL     OW 8899   3.302   0.856   1.398
 2778SOL    HW1 8900   3.245   0.908   1.335
 2778SOL    HW2 8901   3.398   0.868   1.374
 2779SOL     OW 8902   1.934   0.166   0.318
 2779SOL    HW1 8903   1.917   0.249   0.264
 2779SOL    HW2 8904   2.024   0.129   0.296
 2780SOL     OW 8905   3.045   1.335   0.119
 2780SOL    HW1 8906   2.946   1.324   0.121
 2780SOL    HW2 8907   3.079   1.350   0.212
 2781SOL     OW 8908   2.475   0.842   1.431
 2781SOL    HW1 8909   2.531   0.923   1.414
 2781SOL    HW2 8910   2.534   0.762   1.434
 2782SOL     OW 8911   3.355   1.767   0.959
 2782SOL    HW1 8912   3.388   1.831   0.890
 2782SOL    HW2 8913   3.421   1.761   1.034
 2783SOL     OW 8914   2.578   0.565   1.708
 2783SOL    HW1 8915   2.597   0.630   1.782
 2783SOL    HW2 8916   2.638   0.485   1.717
 2784SOL     OW 8917   3.312   1.220   1.633
 2784SOL    HW1 8918   3.303   1.210   1.732
 2784SOL    HW2 8919   3.408   1.213   1.607
 2785SOL     OW 8920   2.252   1.741   1.560
 2785SOL    HW1 8921   2.161   1.782   1.558
 2785SOL    HW2 8922   2.245   1.647   1.592
 2786SOL     OW 8923   3.536   0.883   1.254
 2786SOL    HW1 8924   3.509   0.794   1.217
 2786SOL    HW2 8925   3.537   0.951   1.181
 2787SOL     OW 8926   3.087   0.325   0.449
 2787SOL    HW1 8927   3.152   0.251   0.438
 2787SOL    HW2 8928   3.107   0.375   0.533
 2788SOL     OW 8929   2.456   0.745   0.652
 2788SOL    HW1 8930   2.506   0.830   0.633
 2788SOL    HW2 8931   2.368   0.747   0.604
 2789SOL     OW 8932   3.639   0.342   1.642
 2789SOL    HW1 8933   3.622   0.373   1.548
 2789SOL    HW2 8934   3.555   0.305   1.680
 2790SOL     OW 8935   3.592   0.934   1.517
 2790SOL    HW1 8936   3.630   1.025   1.532
 2790SOL    HW2 8937   3.584   0.917   1.418
 2791SOL     OW 8938   2.721   1.374   0.016
 2791SOL    HW1 8939   2.675   1.389   0.104
 2791SOL    HW2 8940   2.765   1.459  -0.014
 2792SOL     OW 8941   2.523   1.790   0.953
 2792SOL    HW1 8942   2.477   1.878   0.940
 2792SOL    HW2 8943   2.622   1.802   0.946
 2793SOL     OW 8944   2.721   0.956   0.861
 2793SOL    HW1 8945   2.775   0.887   0.909
 2793SOL    HW2 8946   2.689   1.025   0.927
 2794SOL     OW 8947   2.945   0.984   0.087
 2794SOL    HW1 8948   2.922   1.037   0.005
 2794SOL    HW2 8949   3.026   0.928   0.068
 2795SOL     OW 8950   3.723   1.569   0.851
 2795SOL    HW1 8951   3.652   1.557   0.781
 2795SOL    HW2 8952   3.724   1.490   0.911
 2796SOL     OW 8953   2.083   1.314   1.844
 2796SOL    HW1 8954   2.018   1.241   1.823
 2796SOL    HW2 8955   2.087   1.328   1.942
 2797SOL     OW 8956   1.941   1.240   0.653
 2797SOL    HW1 8957   1.940   1.193   0.741
 2797SOL    HW2 8958   2.023   1.212   0.602
 2798SOL     OW 8959   2.534   1.391   1.624
 2798SOL    HW1 8960   2.456   1.341   1.662
 2798SOL    HW2 8961   2.531   1.486   1.655
 2799SOL     OW 8962   3.686   0.192   1.227
 2799SOL    HW1 8963   3.682   0.102   1.271
 2799SOL    HW2 8964   3.689   0.181   1.128
 2800SOL     OW 8965   2.290   0.424   0.520
 2800SOL    HW1 8966   2.320   0.352   0.458
 2800SOL    HW2 8967   2.251   0.384   0.603
 2801SOL     OW 8968   3.567   1.487   1.104
 2801SOL    HW1 8969   3.474   1.462   1.077
 2801SOL    HW2 8970   3.593   1.437   1.186
 2802SOL     OW 8971   2.179   0.547   1.280
 2802SOL    HW1 8972   2.217   0.488   1.352
 2802SOL    HW2 8973   2.219   0.521   1.192
 2803SOL     OW 8974   2.674   1.586   0.687
 2803SOL    HW1 8975   2.706   1.596   0.593
 2803SOL    HW2 8976   2.595   1.524   0.689
 2804SOL     OW 8977   3.286   0.214   1.112
 2804SOL    HW1 8978   3.338   0.149   1.167
 2804SOL    HW2 8979   3.237   0.277   1.173
 2805SOL     OW 8980   2.863   0.034   1.154
 2805SOL    HW1 8981   2.800  -0.038   1.123
 2805SOL    HW2 8982   2.956  -0.002   1.154
 2806SOL     OW 8983   2.632   1.330   0.301
 2806SOL    HW1 8984   2.586   1.243   0.318
 2806SOL    HW2 8985   2.723   1.327   0.342
 2807SOL     OW 8986   2.480   1.567   1.284
 2807SOL    HW1 8987   2.475   1.649   1.341
 2807SOL    HW2 8988   2.569   1.564   1.239
 2808SOL     OW 8989   3.214   0.052   0.168
 2808SOL    HW1 8990   3.249   0.011   0.084
 2808SOL    HW2 8991   3.124   0.014   0.188
 2809SOL     OW 8992   3.162   0.453   0.691
 2809SOL    HW1 8993   3.103   0.533   0.695
 2809SOL    HW2 8994   3.177   0.418   0.784
 2810SOL     OW 8995   3.455   0.221   0.882
 2810SOL    HW1 8996   3.371   0.220   0.936
 2810SOL    HW2 8997   3.457   0.304   0.826
 2811SOL     OW 8998   1.901   1.077   0.300
 2811SOL    HW1 8999   2.000   1.066   0.291
 2811SOL    HW2 9000   1.861   0.991   0.332
 2812SOL     OW 9001   2.737   1.646   0.337
 2812SOL    HW1 9002   2.660   1.611   0.283
 2812SOL    HW2 9003   2.705   1.717   0.399
 2813SOL     OW 9004   2.092   0.628   1.975
 2813SOL    HW1 9005   1.999   0.626   2.012
 2813SOL    HW2 9006   2.093   0.589   1.883
 2814SOL     OW 9007   2.087   0.275   2.858
 2814SOL    HW1 9008   2.122   0.258   2.950
 2814SOL    HW2 9009   1.999   0.230   2.846
 2815SOL     OW 9010   1.881   0.368   2.509
 2815SOL    HW1 9011   1.799   0.411   2.548
 2815SOL    HW2 9012   1.853   0.295   2.446
 2816SOL     OW 9013   2.431   1.275   3.027
 2816SOL    HW1 9014   2.338   1.268   2.990
 2816SOL    HW2 9015   2.442   1.364   3.071
 2817SOL     OW 9016   3.417   1.511   2.565
 2817SOL    HW1 9017   3.360   1.495   2.646
 2817SOL    HW2 9018   3.358   1.521   2.485
 2818SOL     OW 9019   2.997   0.703   2.579
 2818SOL    HW1 9020   3.054   0.781   2.554
 2818SOL    HW2 9021   2.937   0.729   2.655
 2819SOL     OW 9022   3.617   0.607   2.093
 2819SOL    HW1 9023   3.605   0.594   1.994
 2819SOL    HW2 9024   3.587   0.526   2.142
 2820SOL     OW 9025   2.630   1.144   2.885
 2820SOL    HW1 9026   2.552   1.161   2.945
 2820SOL    HW2 9027   2.664   1.231   2.849
 2821SOL     OW 9028   2.712   0.798   3.685
 2821SOL    HW1 9029   2.708   0.874   3.750
 2821SOL    HW2 9030   2.734   0.834   3.594
 2822SOL     OW 9031   2.547   1.012   2.527
 2822SOL    HW1 9032   2.616   0.996   2.597
 2822SOL    HW2 9033   2.474   1.069   2.565
 2823SOL     OW 9034   2.548   1.161   3.665
 2823SOL    HW1 9035   2.608   1.240   3.679
 2823SOL    HW2 9036   2.462   1.192   3.624
 2824SOL     OW 9037   2.197   1.435   2.923
 2824SOL    HW1 9038   2.119   1.404   2.870
 2824SOL    HW2 9039   2.255   1.493   2.866
 2825SOL     OW 9040   3.322   1.505   3.201
 2825SOL    HW1 9041   3.346   1.599   3.227
 2825SOL    HW2 9042   3.306   1.451   3.283
 2826SOL     OW 9043   2.300   0.392   3.361
 2826SOL    HW1 9044   2.382   0.336   3.370
 2826SOL    HW2 9045   2.219   0.334   3.365
 2827SOL     OW 9046   3.465   0.447   2.599
 2827SOL    HW1 9047   3.391   0.493   2.549
 2827SOL    HW2 9048   3.516   0.515   2.652
 2828SOL     OW 9049   2.093   1.713   2.345
 2828SOL    HW1 9050   2.127   1.790   2.399
 2828SOL    HW2 9051   2.137   1.713   2.255
 2829SOL     OW 9052   2.989   1.341   3.552
 2829SOL    HW1 9053   3.036   1.341   3.640
 2829SOL    HW2 9054   2.941   1.254   3.541
 2830SOL     OW 9055   2.092   1.434   2.400
 2830SOL    HW1 9056   2.066   1.530   2.400
 2830SOL    HW2 9057   2.021   1.380   2.445
 2831SOL     OW 9058   2.102   1.091   2.748
 2831SOL    HW1 9059   2.116   1.007   2.800
 2831SOL    HW2 9060   2.047   1.155   2.803
 2832SOL     OW 9061   2.482   1.786   3.301
 2832SOL    HW1 9062   2.390   1.769   3.336
 2832SOL    HW2 9063   2.510   1.878   3.327
 2833SOL     OW 9064   2.468   0.964   1.985
 2833SOL    HW1 9065   2.475   1.048   1.931
 2833SOL    HW2 9066   2.514   0.977   2.073
 2834SOL     OW 9067   3.456   0.114   3.342
 2834SOL    HW1 9068   3.438   0.181   3.270
 2834SOL    HW2 9069   3.453   0.160   3.431
 2835SOL     OW 9070   1.984   0.643   2.425
 2835SOL    HW1 9071   1.939   0.555   2.442
 2835SOL    HW2 9072   1.983   0.697   2.509
 2836SOL     OW 9073   3.704   1.767   2.221
 2836SOL    HW1 9074   3.758   1.738   2.301
 2836SOL    HW2 9075   3.734   1.857   2.192
 2837SOL     OW 9076   1.889   1.596   1.979
 2837SOL    HW1 9077   1.870   1.500   2.000
 2837SOL    HW2 9078   1.856   1.654   2.054
 2838SOL     OW 9079   3.551   0.922   2.474
 2838SOL    HW1 9080   3.646   0.893   2.482
 2838SOL    HW2 9081   3.543   0.987   2.399
 2839SOL     OW 9082   3.503   1.108   2.294
 2839SOL    HW1 9083   3.589   1.110   2.242
 2839SOL    HW2 9084   3.517   1.155   2.382
 2840SOL     OW 9085   1.975   0.737   3.459
 2840SOL    HW1 9086   2.063   0.724   3.504
 2840SOL    HW2 9087   1.962   0.834   3.437
 2841SOL     OW 9088   2.475   1.365   2.588
 2841SOL    HW1 9089   2.426   1.278   2.597
 2841SOL    HW2 9090   2.452   1.408   2.501
 2842SOL     OW 9091   3.155   1.228   3.285
 2842SOL    HW1 9092   3.192   1.155   3.227
 2842SOL    HW2 9093   3.207   1.233   3.370
 2843SOL     OW 9094   2.671   0.004   2.364
 2843SOL    HW1 9095   2.711   0.095   2.355
 2843SOL    HW2 9096   2.571   0.012   2.370
 2844SOL     OW 9097   2.059   0.976   3.126
 2844SOL    HW1 9098   2.148   0.931   3.112
 2844SOL    HW2 9099   1.986   0.911   3.107
 2845SOL     OW 9100   3.387   0.999   2.052
 2845SOL    HW1 9101   3.324   0.923   2.065
 2845SOL    HW2 9102   3.435   1.017   2.138
 2846SOL     OW 9103   3.049   1.792   3.478
 2846SOL    HW1 9104   3.073   1.852   3.402
 2846SOL    HW2 9105   3.056   1.697   3.448
 2847SOL     OW 9106   2.179   0.251   3.663
 2847SOL    HW1 9107   2.250   0.322   3.669
 2847SOL    HW2 9108   2.091   0.290   3.691
 2848SOL     OW 9109   3.328   1.417   2.815
 2848SOL    HW1 9110   3.269   1.423   2.895
 2848SOL    HW2 9111   3.313   1.329   2.769
 2849SOL     OW 9112   3.529   1.714   2.434
 2849SOL    HW1 9113   3.488   1.691   2.346
 2849SOL    HW2 9114   3.511   1.640   2.499
 2850SOL     OW 9115   2.460   0.729   2.132
 2850SOL    HW1 9116   2.484   0.798   2.064
 2850SOL    HW2 9117   2.382   0.762   2.186
 2851SOL     OW 9118   3.143   0.345   2.806
 2851SOL    HW1 9119   3.057   0.295   2.793
 2851SOL    HW2 9120   3.205   0.291   2.862
 2852SOL     OW 9121   3.438   1.662   2.169
 2852SOL    HW1 9122   3.527   1.708   2.172
 2852SOL    HW2 9123   3.417   1.638   2.074
 2853SOL     OW 9124   2.669   0.605   3.327
 2853SOL    HW1 9125   2.622   0.602   3.416
 2853SOL    HW2 9126   2.618   0.550   3.261
 2854SOL     OW 9127   3.256   0.469   3.536
 2854SOL    HW1 9128   3.236   0.512   3.624
 2854SOL    HW2 9129   3.334   0.407   3.545
 2855SOL     OW 9130   2.835   0.890   3.434
 2855SOL    HW1 9131   2.881   0.806   3.405
 2855SOL    HW2 9132   2.779   0.924   3.359
 2856SOL     OW 9133   2.853   0.410   3.104
 2856SOL    HW1 9134   2.776   0.444   3.158
 2856SOL    HW2 9135   2.819   0.359   3.025
 2857SOL     OW 9136   2.903   0.701   2.291
 2857SOL    HW1 9137   2.929   0.697   2.387
 2857SOL    HW2 9138   2.818   0.650   2.277
 2858SOL     OW 9139   1.938   0.811   2.651
 2858SOL    HW1 9140   2.037   0.799   2.660
 2858SOL    HW2 9141   1.914   0.906   2.672
 2859SOL     OW 9142   1.992   1.821   3.433
 2859SOL    HW1 9143   1.982   1.806   3.532
 2859SOL    HW2 9144   1.906   1.857   3.397
 2860SOL     OW 9145   2.727   0.348   2.057
 2860SOL    HW1 9146   2.786   0.411   2.008
 2860SOL    HW2 9147   2.746   0.254   2.028
 2861SOL     OW 9148   3.581   0.585   3.693
 2861SOL    HW1 9149   3.555   0.674   3.657
 2861SOL    HW2 9150   3.579   0.517   3.620
 2862SOL     OW 9151   3.224   1.144   2.407
 2862SOL    HW1 9152   3.307   1.115   2.359
 2862SOL    HW2 9153   3.175   1.211   2.351
 2863SOL     OW 9154   2.412   0.196   2.747
 2863SOL    HW1 9155   2.407   0.191   2.847
 2863SOL    HW2 9156   2.414   0.292   2.718
 2864SOL     OW 9157   2.870   1.456   2.339
 2864SOL    HW1 9158   2.824   1.528   2.287
 2864SOL    HW2 9159   2.866   1.476   2.437
 2865SOL     OW 9160   2.213   1.801   2.715
 2865SOL    HW1 9161   2.263   1.715   2.721
 2865SOL    HW2 9162   2.278   1.878   2.712
 2866SOL     OW 9163   3.657   1.066   2.735
 2866SOL    HW1 9164   3.595   1.051   2.659
 2866SOL    HW2 9165   3.605   1.077   2.820
 2867SOL     OW 9166   3.089   1.550   3.368
 2867SOL    HW1 9167   3.095   1.473   3.432
 2867SOL    HW2 9168   3.037   1.524   3.288
 2868SOL     OW 9169   2.183   0.943   2.104
 2868SOL    HW1 9170   2.265   0.982   2.062
 2868SOL    HW2 9171   2.156   0.861   2.055
 2869SOL     OW 9172   3.320   0.735   2.590
 2869SOL    HW1 9173   3.315   0.670   2.665
 2869SOL    HW2 9174   3.400   0.794   2.603
 2870SOL     OW 9175   2.323   1.266   3.589
 2870SOL    HW1 9176   2.273   1.267   3.503
 2870SOL    HW2 9177   2.260   1.248   3.665
 2871SOL     OW 9178   2.973   1.776   2.099
 2871SOL    HW1 9179   2.913   1.714   2.149
 2871SOL    HW2 9180   3.004   1.732   2.014
 2872SOL     OW 9181   2.064   0.285   3.360
 2872SOL    HW1 9182   1.984   0.345   3.347
 2872SOL    HW2 9183   2.054   0.236   3.446
 2873SOL     OW 9184   3.494   1.377   1.943
 2873SOL    HW1 9185   3.462   1.471   1.933
 2873SOL    HW2 9186   3.418   1.314   1.931
 2874SOL     OW 9187   2.326   1.743   2.185
 2874SOL    HW1 9188   2.359   1.782   2.271
 2874SOL    HW2 9189   2.402   1.736   2.120
 2875SOL     OW 9190   3.262   0.107   2.288
 2875SOL    HW1 9191   3.238   0.070   2.198
 2875SOL    HW2 9192   3.361   0.123   2.292
 2876SOL     OW 9193   2.111   1.785   3.103
 2876SOL    HW1 9194   2.168   1.720   3.153
 2876SOL    HW2 9195   2.095   1.752   3.010
 2877SOL     OW 9196   2.802   1.698   2.766
 2877SOL    HW1 9197   2.882   1.641   2.787
 2877SOL    HW2 9198   2.753   1.658   2.689
 2878SOL     OW 9199   2.244   0.700   2.342
 2878SOL    HW1 9200   2.289   0.610   2.339
 2878SOL    HW2 9201   2.150   0.689   2.375
 2879SOL     OW 9202   3.409   0.222   3.591
 2879SOL    HW1 9203   3.404   0.259   3.683
 2879SOL    HW2 9204   3.337   0.153   3.579
 2880SOL     OW 9205   2.476   0.122   1.979
 2880SOL    HW1 9206   2.574   0.100   1.986
 2880SOL    HW2 9207   2.445   0.105   1.886
 2881SOL     OW 9208   2.643   0.264   3.611
 2881SOL    HW1 9209   2.710   0.203   3.654
 2881SOL    HW2 9210   2.570   0.283   3.676
 2882SOL     OW 9211   2.750   1.514   3.057
 2882SOL    HW1 9212   2.727   1.489   2.963
 2882SOL    HW2 9213   2.811   1.445   3.096
 2883SOL     OW 9214   3.213   0.590   3.295
 2883SOL    HW1 9215   3.241   0.547   3.380
 2883SOL    HW2 9216   3.238   0.686   3.296
 2884SOL     OW 9217   2.665   1.402   2.786
 2884SOL    HW1 9218   2.755   1.416   2.744
 2884SOL    HW2 9219   2.594   1.404   2.715
 2885SOL     OW 9220   2.784   0.503   2.761
 2885SOL    HW1 9221   2.759   0.494   2.665
 2885SOL    HW2 9222   2.832   0.421   2.792
 2886SOL     OW 9223   2.401   0.064   2.374
 2886SOL    HW1 9224   2.320   0.065   2.432
 2886SOL    HW2 9225   2.404   0.147   2.319
 2887SOL     OW 9226   3.296   1.188   1.903
 2887SOL    HW1 9227   3.328   1.112   1.960
 2887SOL    HW2 9228   3.204   1.215   1.933
 2888SOL     OW 9229   2.159   0.035   2.033
 2888SOL    HW1 9230   2.208   0.119   2.012
 2888SOL    HW2 9231   2.221  -0.030   2.078
 2889SOL     OW 9232   2.797   0.236   2.342
 2889SOL    HW1 9233   2.749   0.277   2.264
 2889SOL    HW2 9234   2.896   0.234   2.323
 2890SOL     OW 9235   2.938   0.683   3.326
 2890SOL    HW1 9236   2.858   0.622   3.329
 2890SOL    HW2 9237   3.019   0.630   3.302
 2891SOL     OW 9238   3.089   1.570   2.655
 2891SOL    HW1 9239   3.110   1.644   2.590
 2891SOL    HW2 9240   3.157   1.570   2.728
 2892SOL     OW 9241   2.321   1.152   2.603
 2892SOL    HW1 9242   2.250   1.125   2.668
 2892SOL    HW2 9243   2.295   1.124   2.510
 2893SOL     OW 9244   3.133   1.797   2.453
 2893SOL    HW1 9245   3.177   1.861   2.389
 2893SOL    HW2 9246   3.083   1.849   2.523
 2894SOL     OW 9247   2.894   0.549   1.878
 2894SOL    HW1 9248   2.853   0.631   1.839
 2894SOL    HW2 9249   2.958   0.575   1.951
 2895SOL     OW 9250   1.940   0.556   3.248
 2895SOL    HW1 9251   2.032   0.555   3.207
 2895SOL    HW2 9252   1.934   0.630   3.315
 2896SOL     OW 9253   2.423   0.222   3.009
 2896SOL    HW1 9254   2.461   0.138   3.046
 2896SOL    HW2 9255   2.335   0.241   3.053
 2897SOL     OW 9256   2.728   0.454   2.504
 2897SOL    HW1 9257   2.696   0.526   2.442
 2897SOL    HW2 9258   2.752   0.373   2.451
 2898SOL     OW 9259   2.879   0.039   2.615
 2898SOL    HW1 9260   2.807   0.044   2.546
 2898SOL    HW2 9261   2.855  -0.030   2.684
 2899SOL     OW 9262   3.291   1.173   2.729
 2899SOL    HW1 9263   3.236   1.089   2.722
 2899SOL    HW2 9264   3.317   1.202   2.637
 2900SOL     OW 9265   3.328   0.590   2.854
 2900SOL    HW1 9266   3.298   0.495   2.861
 2900SOL    HW2 9267   3.401   0.606   2.920
 2901SOL     OW 9268   3.719   0.833   2.239
 2901SOL    HW1 9269   3.761   0.769   2.303
 2901SOL    HW2 9270   3.681   0.782   2.161
 2902SOL     OW 9271   2.350   1.385   2.036
 2902SOL    HW1 9272   2.263   1.370   2.083
 2902SOL    HW2 9273   2.333   1.411   1.941
 2903SOL     OW 9274   3.526   1.280   2.519
 2903SOL    HW1 9275   3.625   1.288   2.533
 2903SOL    HW2 9276   3.481   1.364   2.550
 2904SOL     OW 9277   3.252   0.575   1.940
 2904SOL    HW1 9278   3.198   0.554   2.021
 2904SOL    HW2 9279   3.343   0.534   1.949
 2905SOL     OW 9280   2.389   0.256   2.190
 2905SOL    HW1 9281   2.416   0.197   2.115
 2905SOL    HW2 9282   2.389   0.351   2.159
 2906SOL     OW 9283   3.616   1.223   3.450
 2906SOL    HW1 9284   3.707   1.184   3.437
 2906SOL    HW2 9285   3.624   1.319   3.474
 2907SOL     OW 9286   2.926   1.347   3.202
 2907SOL    HW1 9287   2.846   1.324   3.257
 2907SOL    HW2 9288   3.009   1.321   3.251
 2908SOL     OW 9289   3.454   1.629   3.487
 2908SOL    HW1 9290   3.481   1.663   3.397
 2908SOL    HW2 9291   3.533   1.591   3.533
 2909SOL     OW 9292   2.973   1.195   2.962
 2909SOL    HW1 9293   2.933   1.239   3.043
 2909SOL    HW2 9294   2.932   1.232   2.879
 2910SOL     OW 9295   3.500   1.099   2.941
 2910SOL    HW1 9296   3.505   1.180   3.000
 2910SOL    HW2 9297   3.414   1.101   2.890
 2911SOL     OW 9298   2.777   0.089   3.264
 2911SOL    HW1 9299   2.802   0.069   3.169
 2911SOL    HW2 9300   2.849   0.145   3.306
 2912SOL     OW 9301   2.842   1.116   3.581
 2912SOL    HW1 9302   2.743   1.122   3.591
 2912SOL    HW2 9303   2.865   1.036   3.525
 2913SOL     OW 9304   2.567   1.050   2.230
 2913SOL    HW1 9305   2.553   1.057   2.329
 2913SOL    HW2 9306   2.651   0.999   2.212
 2914SOL     OW 9307   2.272   0.813   3.113
 2914SOL    HW1 9308   2.358   0.825   3.163
 2914SOL    HW2 9309   2.230   0.726   3.140
 2915SOL     OW 9310   3.136   0.386   3.124
 2915SOL    HW1 9311   3.157   0.460   3.188
 2915SOL    HW2 9312   3.047   0.403   3.081
 2916SOL     OW 9313   1.926   1.564   3.193
 2916SOL    HW1 9314   1.880   1.646   3.159
 2916SOL    HW2 9315   2.024   1.583   3.202
 2917SOL     OW 9316   2.229   1.100   2.363
 2917SOL    HW1 9317   2.222   1.183   2.307
 2917SOL    HW2 9318   2.233   1.020   2.303
 2918SOL     OW 9319   2.428   0.537   2.727
 2918SOL    HW1 9320   2.440   0.603   2.653
 2918SOL    HW2 9321   2.474   0.571   2.810
 2919SOL     OW 9322   3.114   1.348   2.250
 2919SOL    HW1 9323   3.164   1.425   2.290
 2919SOL    HW2 9324   3.019   1.350   2.282
 2920SOL     OW 9325   3.134   1.445   3.004
 2920SOL    HW1 9326   3.181   1.458   3.091
 2920SOL    HW2 9327   3.068   1.371   3.013
 2921SOL     OW 9328   3.444   0.639   2.334
 2921SOL    HW1 9329   3.413   0.700   2.407
 2921SOL    HW2 9330   3.494   0.691   2.265
 2922SOL     OW 9331   2.216   1.510   3.191
 2922SOL    HW1 9332   2.195   1.466   3.104
 2922SOL    HW2 9333   2.313   1.536   3.194
 2923SOL     OW 9334   2.264   0.751   3.460
 2923SOL    HW1 9335   2.332   0.806   3.413
 2923SOL    HW2 9336   2.304   0.663   3.487
 2924SOL     OW 9337   3.449   0.779   3.532
 2924SOL    HW1 9338   3.357   0.817   3.527
 2924SOL    HW2 9339   3.509   0.826   3.467
 2925SOL     OW 9340   2.875   0.105   3.632
 2925SOL    HW1 9341   2.881   0.190   3.580
 2925SOL    HW2 9342   2.907   0.029   3.575
 2926SOL     OW 9343   2.366   0.050   3.602
 2926SOL    HW1 9344   2.324  -0.007   3.532
 2926SOL    HW2 9345   2.300   0.119   3.634
 2927SOL     OW 9346   2.435   0.870   2.891
 2927SOL    HW1 9347   2.479   0.959   2.882
 2927SOL    HW2 9348   2.372   0.870   2.968
 2928SOL     OW 9349   3.222   0.862   2.907
 2928SOL    HW1 9350   3.147   0.862   2.841
 2928SOL    HW2 9351   3.259   0.770   2.916
 2929SOL     OW 9352   3.071   0.525   2.137
 2929SOL    HW1 9353   3.084   0.441   2.191
 2929SOL    HW2 9354   3.042   0.599   2.197
 2930SOL     OW 9355   2.169   0.213   3.093
 2930SOL    HW1 9356   2.146   0.250   3.183
 2930SOL    HW2 9357   2.139   0.118   3.087
 2931SOL     OW 9358   1.899   1.310   3.144
 2931SOL    HW1 9359   1.952   1.261   3.212
 2931SOL    HW2 9360   1.921   1.408   3.149
 2932SOL     OW 9361   2.594   0.634   2.926
 2932SOL    HW1 9362   2.653   0.608   2.850
 2932SOL    HW2 9363   2.566   0.730   2.915
 2933SOL     OW 9364   3.590   0.935   3.716
 2933SOL    HW1 9365   3.544   0.928   3.627
 2933SOL    HW2 9366   3.528   0.979   3.782
 2934SOL     OW 9367   2.169   0.063   2.480
 2934SOL    HW1 9368   2.158   0.157   2.513
 2934SOL    HW2 9369   2.164   0.000   2.557
 2935SOL     OW 9370   3.484   0.367   2.236
 2935SOL    HW1 9371   3.486   0.291   2.300
 2935SOL    HW2 9372   3.436   0.444   2.276
 2936SOL     OW 9373   2.885   0.766   2.828
 2936SOL    HW1 9374   2.900   0.787   2.924
 2936SOL    HW2 9375   2.855   0.671   2.819
 2937SOL     OW 9376   2.842   1.573   3.562
 2937SOL    HW1 9377   2.822   1.617   3.474
 2937SOL    HW2 9378   2.881   1.482   3.546
 2938SOL     OW 9379   3.721   1.518   3.467
 2938SOL    HW1 9380   3.735   1.545   3.372
 2938SOL    HW2 9381   3.804   1.540   3.520
 2939SOL     OW 9382   2.212   0.898   3.666
 2939SOL    HW1 9383   2.288   0.942   3.714
 2939SOL    HW2 9384   2.247   0.851   3.584
 2940SOL     OW 9385   3.402   0.274   1.987
 2940SOL    HW1 9386   3.341   0.199   2.010
 2940SOL    HW2 9387   3.424   0.326   2.070
 2941SOL     OW 9388   3.165   0.838   1.904
 2941SOL    HW1 9389   3.199   0.745   1.919
 2941SOL    HW2 9390   3.183   0.865   1.809
 2942SOL     OW 9391   2.930   1.333   2.711
 2942SOL    HW1 9392   2.937   1.249   2.656
 2942SOL    HW2 9393   2.992   1.402   2.675
 2943SOL     OW 9394   2.181   0.810   2.811
 2943SOL    HW1 9395   2.274   0.846   2.816
 2943SOL    HW2 9396   2.175   0.725   2.863
 2944SOL     OW 9397   2.201   0.509   2.868
 2944SOL    HW1 9398   2.149   0.426   2.851
 2944SOL    HW2 9399   2.278   0.514   2.804
 2945SOL     OW 9400   3.000   0.380   3.540
 2945SOL    HW1 9401   2.955   0.443   3.604
 2945SOL    HW2 9402   3.093   0.411   3.523
 2946SOL     OW 9403   3.022   0.207   3.339
 2946SOL    HW1 9404   3.022   0.271   3.416
 2946SOL    HW2 9405   3.050   0.255   3.256
 2947SOL     OW 9406   1.870   1.326   2.062
 2947SOL    HW1 9407   1.777   1.347   2.031
 2947SOL    HW2 9408   1.880   1.227   2.075
 2948SOL     OW 9409   1.950   1.801   2.789
 2948SOL    HW1 9410   1.908   1.715   2.762
 2948SOL    HW2 9411   2.044   1.804   2.755
 2949SOL     OW 9412   2.366   1.568   2.772
 2949SOL    HW1 9413   2.432   1.642   2.781
 2949SOL    HW2 9414   2.410   1.489   2.730
 2950SOL     OW 9415   2.864   0.796   3.100
 2950SOL    HW1 9416   2.905   0.764   3.186
 2950SOL    HW2 9417   2.768   0.769   3.097
 2951SOL     OW 9418   1.902   0.544   2.976
 2951SOL    HW1 9419   1.987   0.511   2.935
 2951SOL    HW2 9420   1.915   0.559   3.074
 2952SOL     OW 9421   2.051   0.520   3.584
 2952SOL    HW1 9422   2.110   0.480   3.514
 2952SOL    HW2 9423   1.993   0.591   3.543
 2953SOL     OW 9424   3.231   0.950   3.522
 2953SOL    HW1 9425   3.270   1.039   3.542
 2953SOL    HW2 9426   3.241   0.930   3.425
 2954SOL     OW 9427   2.677   0.572   2.187
 2954SOL    HW1 9428   2.684   0.483   2.141
 2954SOL    HW2 9429   2.583   0.606   2.179
 2955SOL     OW 9430   3.519   0.604   3.068
 2955SOL    HW1 9431   3.481   0.535   3.130
 2955SOL    HW2 9432   3.601   0.568   3.024
 2956SOL     OW 9433   2.114   1.564   3.606
 2956SOL    HW1 9434   2.084   1.621   3.682
 2956SOL    HW2 9435   2.107   1.467   3.632
 2957SOL     OW 9436   2.533   0.464   3.131
 2957SOL    HW1 9437   2.499   0.375   3.101
 2957SOL    HW2 9438   2.559   0.518   3.051
 2958SOL     OW 9439   2.792   1.678   3.327
 2958SOL    HW1 9440   2.768   1.660   3.232
 2958SOL    HW2 9441   2.822   1.772   3.337
 2959SOL     OW 9442   2.335   0.500   2.053
 2959SOL    HW1 9443   2.396   0.580   2.057
 2959SOL    HW2 9444   2.240   0.531   2.060
 2960SOL     OW 9445   2.021   1.137   3.328
 2960SOL    HW1 9446   2.043   1.076   3.404
 2960SOL    HW2 9447   2.031   1.088   3.242
 2961SOL     OW 9448   3.209   1.059   3.096
 2961SOL    HW1 9449   3.233   0.996   3.022
 2961SOL    HW2 9450   3.119   1.099   3.078
 2962SOL     OW 9451   3.164   0.855   2.171
 2962SOL    HW1 9452   3.078   0.824   2.213
 2962SOL    HW2 9453   3.160   0.841   2.072
 2963SOL     OW 9454   3.621   1.747   3.016
 2963SOL    HW1 9455   3.682   1.777   2.943
 2963SOL    HW2 9456   3.583   1.658   2.994
 2964SOL     OW 9457   3.114   1.731   2.990
 2964SOL    HW1 9458   3.198   1.736   2.936
 2964SOL    HW2 9459   3.091   1.635   3.008
 2965SOL     OW 9460   1.945   1.258   2.884
 2965SOL    HW1 9461   1.940   1.257   2.984
 2965SOL    HW2 9462   1.862   1.217   2.846
 2966SOL     OW 9463   2.550   1.662   3.578
 2966SOL    HW1 9464   2.494   1.743   3.587
 2966SOL    HW2 9465   2.602   1.666   3.492
 2967SOL     OW 9466   3.588   0.135   2.385
 2967SOL    HW1 9467   3.661   0.118   2.318
 2967SOL    HW2 9468   3.557   0.048   2.423
 2968SOL     OW 9469   3.250   1.573   2.339
 2968SOL    HW1 9470   3.317   1.585   2.265
 2968SOL    HW2 9471   3.210   1.662   2.362
 2969SOL     OW 9472   1.992   1.794   3.713
 2969SOL    HW1 9473   1.951   1.720   3.766
 2969SOL    HW2 9474   2.056   1.845   3.771
 2970SOL     OW 9475   3.142   0.927   2.534
 2970SOL    HW1 9476   3.202   0.846   2.536
 2970SOL    HW2 9477   3.182   0.996   2.474
 2971SOL     OW 9478   2.692   1.273   3.284
 2971SOL    HW1 9479   2.687   1.306   3.379
 2971SOL    HW2 9480   2.606   1.292   3.238
 2972SOL     OW 9481   2.534   1.616   2.016
 2972SOL    HW1 9482   2.543   1.626   1.917
 2972SOL    HW2 9483   2.494   1.527   2.037
 2973SOL     OW 9484   3.512   1.720   3.256
 2973SOL    HW1 9485   3.565   1.730   3.172
 2973SOL    HW2 9486   3.485   1.810   3.290
 2974SOL     OW 9487   3.703   0.175   2.825
 2974SOL    HW1 9488   3.742   0.090   2.789
 2974SOL    HW2 9489   3.605   0.177   2.806
 2975SOL     OW 9490   2.125   0.326   2.582
 2975SOL    HW1 9491   2.046   0.377   2.548
 2975SOL    HW2 9492   2.116   0.311   2.680
 2976SOL     OW 9493   3.056   1.612   1.893
 2976SOL    HW1 9494   3.062   1.519   1.930
 2976SOL    HW2 9495   2.997   1.612   1.813
 2977SOL     OW 9496   2.684   1.002   3.234
 2977SOL    HW1 9497   2.724   1.001   3.142
 2977SOL    HW2 9498   2.694   1.094   3.274
 2978SOL     OW 9499   2.778   0.910   2.153
 2978SOL    HW1 9500   2.841   0.948   2.085
 2978SOL    HW2 9501   2.818   0.827   2.192
 2979SOL     OW 9502   3.366   1.607   1.906
 2979SOL    HW1 9503   3.274   1.644   1.913
 2979SOL    HW2 9504   3.404   1.627   1.816
 2980SOL     OW 9505   2.234   1.288   3.352
 2980SOL    HW1 9506   2.221   1.381   3.318
 2980SOL    HW2 9507   2.150   1.236   3.339
 2981SOL     OW 9508   3.476   1.292   3.151
 2981SOL    HW1 9509   3.536   1.295   3.231
 2981SOL    HW2 9510   3.401   1.356   3.164
 2982SOL     OW 9511   2.901   1.098   2.558
 2982SOL    HW1 9512   2.831   1.051   2.612
 2982SOL    HW2 9513   2.960   1.030   2.515
 2983SOL     OW 9514   2.876   0.236   2.833
 2983SOL    HW1 9515   2.868   0.200   2.740
 2983SOL    HW2 9516   2.874   0.160   2.898
 2984SOL     OW 9517   2.452   1.487   2.353
 2984SOL    HW1 9518   2.494   1.429   2.283
 2984SOL    HW2 9519   2.408   1.566   2.309
 2985SOL     OW 9520   3.571   0.385   3.243
 2985SOL    HW1 9521   3.644   0.454   3.247
 2985SOL    HW2 9522   3.599   0.310   3.184
 2986SOL     OW 9523   2.117   1.348   2.152
 2986SOL    HW1 9524   2.021   1.349   2.125
 2986SOL    HW2 9525   2.129   1.401   2.236
 2987SOL     OW 9526   1.967   1.013   3.588
 2987SOL    HW1 9527   1.890   0.980   3.642
 2987SOL    HW2 9528   2.052   0.983   3.630
 2988SOL     OW 9529   2.534   0.203   3.351
 2988SOL    HW1 9530   2.624   0.187   3.311
 2988SOL    HW2 9531   2.542   0.208   3.450
 2989SOL     OW 9532   1.937   0.345   1.895
 2989SOL    HW1 9533   1.845   0.317   1.866
 2989SOL    HW2 9534   1.968   0.422   1.839
 2990SOL     OW 9535   3.302   0.856   3.260
 2990SOL    HW1 9536   3.245   0.908   3.197
 2990SOL    HW2 9537   3.398   0.868   3.236
 2991SOL     OW 9538   1.934   0.166   2.180
 2991SOL    HW1 9539   1.917   0.249   2.126
 2991SOL    HW2 9540   2.024   0.129   2.158
 2992SOL     OW 9541   3.045   1.335   1.981
 2992SOL    HW1 9542   2.946   1.324   1.983
 2992SOL    HW2 9543   3.079   1.350   2.074
 2993SOL     OW 9544   2.475   0.842   3.293
 2993SOL    HW1 9545   2.531   0.923   3.276
 2993SOL    HW2 9546   2.534   0.762   3.296
 2994SOL     OW 9547   3.355   1.767   2.821
 2994SOL    HW1 9548   3.388   1.831   2.752
 2994SOL    HW2 9549   3.421   1.761   2.896
 2995SOL     OW 9550   2.578   0.565   3.570
 2995SOL    HW1 9551   2.597   0.630   3.644
 2995SOL    HW2 9552   2.638   0.485   3.579
 2996SOL     OW 9553   3.312   1.220   3.495
 2996SOL    HW1 9554   3.303   1.210   3.594
 2996SOL    HW2 9555   3.408   1.213   3.469
 2997SOL     OW 9556   2.252   1.741   3.422
 2997SOL    HW1 9557   2.161   1.782   3.420
 2997SOL    HW2 9558   2.245   1.647   3.454
 2998SOL     OW 9559   3.536   0.883   3.116
 2998SOL    HW1 9560   3.509   0.794   3.079
 2998SOL    HW2 9561   3.537   0.951   3.043
 2999SOL     OW 9562   3.087   0.325   2.311
 2999SOL    HW1 9563   3.152   0.251   2.300
 2999SOL    HW2 9564   3.107   0.375   2.395
 3000SOL     OW 9565   2.456   0.745   2.514
 3000SOL    HW1 9566   2.506   0.830   2.495
 3000SOL    HW2 9567   2.368   0.747   2.466
 3001SOL     OW 9568   3.639   0.342   3.504
 3001SOL    HW1 9569   3.622   0.373   3.410
 3001SOL    HW2 9570   3.555   0.305   3.542
 3002SOL     OW 9571   3.592   0.934   3.379
 3002SOL    HW1 9572   3.630   1.025   3.394
 3002SOL    HW2 9573   3.584   0.917   3.280
 3003SOL     OW 9574   2.721   1.374   1.878
 3003SOL    HW1 9575   2.675   1.389   1.966
 3003SOL    HW2 9576   2.765   1.459   1.848
 3004SOL     OW 9577   2.523   1.790   2.815
 3004SOL    HW1 9578   2.477   1.878   2.802
 3004SOL    HW2 9579   2.622   1.802   2.808
 3005SOL     OW 9580   2.721   0.956   2.723
 3005SOL    HW1 9581   2.775   0.887   2.771
 3005SOL    HW2 9582   2.689   1.025   2.789
 3006SOL     OW 9583   2.945   0.984   1.949
 3006SOL    HW1 9584   2.922   1.037   1.867
 3006SOL    HW2 9585   3.026   0.928   1.930
 3007SOL     OW 9586   3.723   1.569   2.713
 3007SOL    HW1 9587   3.652   1.557   2.643
 3007SOL    HW2 9588   3.724   1.490   2.773
 3008SOL     OW 9589   2.083   1.314   3.706
 3008SOL    HW1 9590   2.018   1.241   3.685
 3008SOL    HW2 9591   2.087   1.328   3.804
 3009SOL     OW 9592   1.941   1.240   2.515
 3009SOL    HW1 9593   1.940   1.193   2.603
 3009SOL    HW2 9594   2.023   1.212   2.464
 3010SOL     OW 9595   2.534   1.391   3.486
 3010SOL    HW1 9596   2.456   1.341   3.524
 3010SOL    HW2 9597   2.531   1.486   3.517
 3011SOL     OW 9598   3.686   0.192   3.089
 3011SOL    HW1 9599   3.682   0.102   3.133
 3011SOL    HW2 9600   3.689   0.181   2.990
 3012SOL     OW 9601   2.290   0.424   2.382
 3012SOL    HW1 9602   2.320   0.352   2.320
 3012SOL    HW2 9603   2.251   0.384   2.465
 3013SOL     OW 9604   3.567   1.487   2.966
 3013SOL    HW1 9605   3.474   1.462   2.939
 3013SOL    HW2 9606   3.593   1.437   3.048
 3014SOL     OW 9607   2.179   0.547   3.142
 3014SOL    HW1 9608   2.217   0.488   3.214
 3014SOL    HW2 9609   2.219   0.521   3.054
 3015SOL     OW 9610   2.674   1.586   2.549
 3015SOL    HW1 9611   2.706   1.596   2.455
 3015SOL    HW2 9612   2.595   1.524   2.551
 3016SOL     OW 9613   3.286   0.214   2.974
 3016SOL    HW1 9614   3.338   0.149   3.029
 3016SOL    HW2 9615   3.237   0.277   3.035
 3017SOL     OW 9616   2.863   0.034   3.016
 3017SOL    HW1 9617   2.800  -0.038   2.985
 3017SOL    HW2 9618   2.956  -0.002   3.016
 3018SOL     OW 9619   2.632   1.330   2.163
 3018SOL    HW1 9620   2.586   1.243   2.180
 3018SOL    HW2 9621   2.723   1.327   2.204
 3019SOL     OW 9622   2.480   1.567   3.146
 3019SOL    HW1 9623   2.475   1.649   3.203
 3019SOL    HW2 9624   2.569   1.564   3.101
 3020SOL     OW 9625   3.214   0.052   2.030
 3020SOL    HW1 9626   3.249   0.011   1.946
 3020SOL    HW2 9627   3.124   0.014   2.050
 3021SOL     OW 9628   3.162   0.453   2.553
 3021SOL    HW1 9629   3.103   0.533   2.557
 3021SOL    HW2 9630   3.177   0.418   2.646
 3022SOL     OW 9631   3.455   0.221   2.744
 3022SOL    HW1 9632   3.371   0.220   2.798
 3022SOL    HW2 9633   3.457   0.304   2.688
 3023SOL     OW 9634   1.901   1.077   2.162
 3023SOL    HW1 9635   2.000   1.066   2.153
 3023SOL    HW2 9636   1.861   0.991   2.194
 3024SOL     OW 9637   2.737   1.646   2.199
 3024SOL    HW1 9638   2.660   1.611   2.145
 3024SOL    HW2 9639   2.705   1.717   2.261
 3025SOL     OW 9640   2.092   0.628   3.837
 3025SOL    HW1 9641   1.999   0.626   3.874
 3025SOL    HW2 9642   2.093   0.589   3.745
 3026SOL     OW 9643   2.087   0.275   4.720
 3026SOL    HW1 9644   2.122   0.258   4.812
 3026SOL    HW2 9645   1.999   0.230   4.708
 3027SOL     OW 9646   1.881   0.368   4.371
 3027SOL    HW1 9647   1.799   0.411   4.410
 3027SOL    HW2 9648   1.853   0.295   4.308
 3028SOL     OW 9649   2.431   1.275   4.889
 3028SOL    HW1 9650   2.338   1.268   4.852
 3028SOL    HW2 9651   2.442   1.364   4.933
 3029SOL     OW 9652   3.417   1.511   4.427
 3029SOL    HW1 9653   3.360   1.495   4.508
 3029SOL    HW2 9654   3.358   1.521   4.347
 3030SOL     OW 9655   2.997   0.703   4.441
 3030SOL    HW1 9656   3.054   0.781   4.416
 3030SOL    HW2 9657   2.937   0.729   4.517
 3031SOL     OW 9658   3.617   0.607   3.955
 3031SOL    HW1 9659   3.605   0.594   3.856
 3031SOL    HW2 9660   3.587   0.526   4.004
 3032SOL     OW 9661   2.630   1.144   4.747
 3032SOL    HW1 9662   2.552   1.161   4.807
 3032SOL    HW2 9663   2.664   1.231   4.711
 3033SOL     OW 9664   2.712   0.798   5.547
 3033SOL    HW1 9665   2.708   0.874   5.612
 3033SOL    HW2 9666   2.734   0.834   5.456
 3034SOL     OW 9667   2.547   1.012   4.389
 3034SOL    HW1 9668   2.616   0.996   4.459
 3034SOL    HW2 9669   2.474   1.069   4.427
 3035SOL     OW 9670   2.548   1.161   5.527
 3035SOL    HW1 9671   2.608   1.240   5.541
 3035SOL    HW2 9672   2.462   1.192   5.486
 3036SOL     OW 9673   2.197   1.435   4.785
 3036SOL    HW1 9674   2.119   1.404   4.732
 3036SOL    HW2 9675   2.255   1.493   4.728
 3037SOL     OW 9676   3.322   1.505   5.063
 3037SOL    HW1 9677   3.346   1.599   5.089
 3037SOL    HW2 9678   3.306   1.451   5.145
 3038SOL     OW 9679   2.300   0.392   5.223
 3038SOL    HW1 9680   2.382   0.336   5.232
 3038SOL    HW2 9681   2.219   0.334   5.227
 3039SOL     OW 9682   3.465   0.447   4.461
 3039SOL    HW1 9683   3.391   0.493   4.411
 3039SOL    HW2 9684   3.516   0.515   4.514
 3040SOL     OW 9685   2.093   1.713   4.207
 3040SOL    HW1 9686   2.127   1.790   4.261
 3040SOL    HW2 9687   2.137   1.713   4.117
 3041SOL     OW 9688   2.989   1.341   5.414
 3041SOL    HW1 9689   3.036   1.341   5.502
 3041SOL    HW2 9690   2.941   1.254   5.403
 3042SOL     OW 9691   2.092   1.434   4.262
 3042SOL    HW1 9692   2.066   1.530   4.262
 3042SOL    HW2 9693   2.021   1.380   4.307
 3043SOL     OW 9694   2.102   1.091   4.610
 3043SOL    HW1 9695   2.116   1.007   4.662
 3043SOL    HW2 9696   2.047   1.155   4.665
 3044SOL     OW 9697   2.482   1.786   5.163
 3044SOL    HW1 9698   2.390   1.769   5.198
 3044SOL    HW2 9699   2.510   1.878   5.189
 3045SOL     OW 9700   2.468   0.964   3.847
 3045SOL    HW1 9701   2.475   1.048   3.793
 3045SOL    HW2 9702   2.514   0.977   3.935
 3046SOL     OW 9703   3.456   0.114   5.204
 3046SOL    HW1 9704   3.438   0.181   5.132
 3046SOL    HW2 9705   3.453   0.160   5.293
 3047SOL     OW 9706   1.984   0.643   4.287
 3047SOL    HW1 9707   1.939   0.555   4.304
 3047SOL    HW2 9708   1.983   0.697   4.371
 3048SOL     OW 9709   3.704   1.767   4.083
 3048SOL    HW1 9710   3.758   1.738   4.163
 3048SOL    HW2 9711   3.734   1.857   4.054
 3049SOL     OW 9712   1.889   1.596   3.841
 3049SOL    HW1 9713   1.870   1.500   3.862
 3049SOL    HW2 9714   1.856   1.654   3.916
 3050SOL     OW 9715   3.551   0.922   4.336
 3050SOL    HW1 9716   3.646   0.893   4.344
 3050SOL    HW2 9717   3.543   0.987   4.261
 3051SOL     OW 9718   3.503   1.108   4.156
 3051SOL    HW1 9719   3.589   1.110   4.104
 3051SOL    HW2 9720   3.517   1.155   4.244
 3052SOL     OW 9721   1.975   0.737   5.321
 3052SOL    HW1 9722   2.063   0.724   5.366
 3052SOL    HW2 9723   1.962   0.834   5.299
 3053SOL     OW 9724   2.475   1.365   4.450
 3053SOL    HW1 9725   2.426   1.278   4.459
 3053SOL    HW2 9726   2.452   1.408   4.363
 3054SOL     OW 9727   3.155   1.228   5.147
 3054SOL    HW1 9728   3.192   1.155   5.089
 3054SOL    HW2 9729   3.207   1.233   5.232
 3055SOL     OW 9730   2.671   0.004   4.226
 3055SOL    HW1 9731   2.711   0.095   4.217
 3055SOL    HW2 9732   2.571   0.012   4.232
 3056SOL     OW 9733   2.059   0.976   4.988
 3056SOL    HW1 9734   2.148   0.931   4.974
 3056SOL    HW2 9735   1.986   0.911   4.969
 3057SOL     OW 9736   3.387   0.999   3.914
 3057SOL    HW1 9737   3.324   0.923   3.927
 3057SOL    HW2 9738   3.435   1.017   4.000
 3058SOL     OW 9739   3.049   1.792   5.340
 3058SOL    HW1 9740   3.073   1.852   5.264
 3058SOL    HW2 9741   3.056   1.697   5.310
 3059SOL     OW 9742   2.179   0.251   5.525
 3059SOL    HW1 9743   2.250   0.322   5.531
 3059SOL    HW2 9744   2.091   0.290   5.553
 3060SOL     OW 9745   3.328   1.417   4.677
 3060SOL    HW1 9746   3.269   1.423   4.757
 3060SOL    HW2 9747   3.313   1.329   4.631
 3061SOL     OW 9748   3.529   1.714   4.296
 3061SOL    HW1 9749   3.488   1.691   4.208
 3061SOL    HW2 9750   3.511   1.640   4.361
 3062SOL     OW 9751   2.460   0.729   3.994
 3062SOL    HW1 9752   2.484   0.798   3.926
 3062SOL    HW2 9753   2.382   0.762   4.048
 3063SOL     OW 9754   3.143   0.345   4.668
 3063SOL    HW1 9755   3.057   0.295   4.655
 3063SOL    HW2 9756   3.205   0.291   4.724
 3064SOL     OW 9757   3.438   1.662   4.031
 3064SOL    HW1 9758   3.527   1.708   4.034
 3064SOL    HW2 9759   3.417   1.638   3.936
 3065SOL     OW 9760   2.669   0.605   5.189
 3065SOL    HW1 9761   2.622   0.602   5.278
 3065SOL    HW2 9762   2.618   0.550   5.123
 3066SOL     OW 9763   3.256   0.469   5.398
 3066SOL    HW1 9764   3.236   0.512   5.486
 3066SOL    HW2 9765   3.334   0.407   5.407
 3067SOL     OW 9766   2.835   0.890   5.296
 3067SOL    HW1 9767   2.881   0.806   5.267
 3067SOL    HW2 9768   2.779   0.924   5.221
 3068SOL     OW 9769   2.853   0.410   4.966
 3068SOL    HW1 9770   2.776   0.444   5.020
 3068SOL    HW2 9771   2.819   0.359   4.887
 3069SOL     OW 9772   2.903   0.701   4.153
 3069SOL    HW1 9773   2.929   0.697   4.249
 3069SOL    HW2 9774   2.818   0.650   4.139
 3070SOL     OW 9775   1.938   0.811   4.513
 3070SOL    HW1 9776   2.037   0.799   4.522
 3070SOL    HW2 9777   1.914   0.906   4.534
 3071SOL     OW 9778   1.992   1.821   5.295
 3071SOL    HW1 9779   1.982   1.806   5.394
 3071SOL    HW2 9780   1.906   1.857   5.259
 3072SOL     OW 9781   2.727   0.348   3.919
 3072SOL    HW1 9782   2.786   0.411   3.870
 3072SOL    HW2 9783   2.746   0.254   3.890
 3073SOL     OW 9784   3.581   0.585   5.555
 3073SOL    HW1 9785   3.555   0.674   5.519
 3073SOL    HW2 9786   3.579   0.517   5.482
 3074SOL     OW 9787   3.224   1.144   4.269
 3074SOL    HW1 9788   3.307   1.115   4.221
 3074SOL    HW2 9789   3.175   1.211   4.213
 3075SOL     OW 9790   2.412   0.196   4.609
 3075SOL    HW1 9791   2.407   0.191   4.709
 3075SOL    HW2 9792   2.414   0.292   4.580
 3076SOL     OW 9793   2.870   1.456   4.201
 3076SOL    HW1 9794   2.824   1.528   4.149
 3076SOL    HW2 9795   2.866   1.476   4.299
 3077SOL     OW 9796   2.213   1.801   4.577
 3077SOL    HW1 9797   2.263   1.715   4.583
 3077SOL    HW2 9798   2.278   1.878   4.574
 3078SOL     OW 9799   3.657   1.066   4.597
 3078SOL    HW1 9800   3.595   1.051   4.521
 3078SOL    HW2 9801   3.605   1.077   4.682
 3079SOL     OW 9802   3.089   1.550   5.230
 3079SOL    HW1 9803   3.095   1.473   5.294
 3079SOL    HW2 9804   3.037   1.524   5.150
 3080SOL     OW 9805   2.183   0.943   3.966
 3080SOL    HW1 9806   2.265   0.982   3.924
 3080SOL    HW2 9807   2.156   0.861   3.917
 3081SOL     OW 9808   3.320   0.735   4.452
 3081SOL    HW1 9809   3.315   0.670   4.527
 3081SOL    HW2 9810   3.400   0.794   4.465
 3082SOL     OW 9811   2.323   1.266   5.451
 3082SOL    HW1 9812   2.273   1.267   5.365
 3082SOL    HW2 9813   2.260   1.248   5.527
 3083SOL     OW 9814   2.973   1.776   3.961
 3083SOL    HW1 9815   2.913   1.714   4.011
 3083SOL    HW2 9816   3.004   1.732   3.876
 3084SOL     OW 9817   2.064   0.285   5.222
 3084SOL    HW1 9818   1.984   0.345   5.209
 3084SOL    HW2 9819   2.054   0.236   5.308
 3085SOL     OW 9820   3.494   1.377   3.805
 3085SOL    HW1 9821   3.462   1.471   3.795
 3085SOL    HW2 9822   3.418   1.314   3.793
 3086SOL     OW 9823   2.326   1.743   4.047
 3086SOL    HW1 9824   2.359   1.782   4.133
 3086SOL    HW2 9825   2.402   1.736   3.982
 3087SOL     OW 9826   3.262   0.107   4.150
 3087SOL    HW1 9827   3.238   0.070   4.060
 3087SOL    HW2 9828   3.361   0.123   4.154
 3088SOL     OW 9829   2.111   1.785   4.965
 3088SOL    HW1 9830   2.168   1.720   5.015
 3088SOL    HW2 9831   2.095   1.752   4.872
 3089SOL     OW 9832   2.802   1.698   4.628
 3089SOL    HW1 9833   2.882   1.641   4.649
 3089SOL    HW2 9834   2.753   1.658   4.551
 3090SOL     OW 9835   2.244   0.700   4.204
 3090SOL    HW1 9836   2.289   0.610   4.201
 3090SOL    HW2 9837   2.150   0.689   4.237
 3091SOL     OW 9838   3.409   0.222   5.453
 3091SOL    HW1 9839   3.404   0.259   5.545
 3091SOL    HW2 9840   3.337   0.153   5.441
 3092SOL     OW 9841   2.476   0.122   3.841
 3092SOL    HW1 9842   2.574   0.100   3.848
 3092SOL    HW2 9843   2.445   0.105   3.748
 3093SOL     OW 9844   2.643   0.264   5.473
 3093SOL    HW1 9845   2.710   0.203   5.516
 3093SOL    HW2 9846   2.570   0.283   5.538
 3094SOL     OW 9847   2.750   1.514   4.919
 3094SOL    HW1 9848   2.727   1.489   4.825
 3094SOL    HW2 9849   2.811   1.445   4.958
 3095SOL     OW 9850   3.213   0.590   5.157
 3095SOL    HW1 9851   3.241   0.547   5.242
 3095SOL    HW2 9852   3.238   0.686   5.158
 3096SOL     OW 9853   2.665   1.402   4.648
 3096SOL    HW1 9854   2.755   1.416   4.606
 3096SOL    HW2 9855   2.594   1.404   4.577
 3097SOL     OW 9856   2.784   0.503   4.623
 3097SOL    HW1 9857   2.759   0.494   4.527
 3097SOL    HW2 9858   2.832   0.421   4.654
 3098SOL     OW 9859   2.401   0.064   4.236
 3098SOL    HW1 9860   2.320   0.065   4.294
 3098SOL    HW2 9861   2.404   0.147   4.181
 3099SOL     OW 9862   3.296   1.188   3.765
 3099SOL    HW1 9863   3.328   1.112   3.822
 3099SOL    HW2 9864   3.204   1.215   3.795
 3100SOL     OW 9865   2.159   0.035   3.895
 3100SOL    HW1 9866   2.208   0.119   3.874
 3100SOL    HW2 9867   2.221  -0.030   3.940
 3101SOL     OW 9868   2.797   0.236   4.204
 3101SOL    HW1 9869   2.749   0.277   4.126
 3101SOL    HW2 9870   2.896   0.234   4.185
 3102SOL     OW 9871   2.938   0.683   5.188
 3102SOL    HW1 9872   2.858   0.622   5.191
 3102SOL    HW2 9873   3.019   0.630   5.164
 3103SOL     OW 9874   3.089   1.570   4.517
 3103SOL    HW1 9875   3.110   1.644   4.452
 3103SOL    HW2 9876   3.157   1.570   4.590
 3104SOL     OW 9877   2.321   1.152   4.465
 3104SOL    HW1 9878   2.250   1.125   4.530
 3104SOL    HW2 9879   2.295   1.124   4.372
 3105SOL     OW 9880   3.133   1.797   4.315
 3105SOL    HW1 9881   3.177   1.861   4.251
 3105SOL    HW2 9882   3.083   1.849   4.385
 3106SOL     OW 9883   2.894   0.549   3.740
 3106SOL    HW1 9884   2.853   0.631   3.701
 3106SOL    HW2 9885   2.958   0.575   3.813
 3107SOL     OW 9886   1.940   0.556   5.110
 3107SOL    HW1 9887   2.032   0.555   5.069
 3107SOL    HW2 9888   1.934   0.630   5.177
 3108SOL     OW 9889   2.423   0.222   4.871
 3108SOL    HW1 9890   2.461   0.138   4.908
 3108SOL    HW2 9891   2.335   0.241   4.915
 3109SOL     OW 9892   2.728   0.454   4.366
 3109SOL    HW1 9893   2.696   0.526   4.304
 3109SOL    HW2 9894   2.752   0.373   4.313
 3110SOL     OW 9895   2.879   0.039   4.477
 3110SOL    HW1 9896   2.807   0.044   4.408
 3110SOL    HW2 9897   2.855  -0.030   4.546
 3111SOL     OW 9898   3.291   1.173   4.591
 3111SOL    HW1 9899   3.236   1.089   4.584
 3111SOL    HW2 9900   3.317   1.202   4.499
 3112SOL     OW 9901   3.328   0.590   4.716
 3112SOL    HW1 9902   3.298   0.495   4.723
 3112SOL    HW2 9903   3.401   0.606   4.782
 3113SOL     OW 9904   3.719   0.833   4.101
 3113SOL    HW1 9905   3.761   0.769   4.165
 3113SOL    HW2 9906   3.681   0.782   4.023
 3114SOL     OW 9907   2.350   1.385   3.898
 3114SOL    HW1 9908   2.263   1.370   3.945
 3114SOL    HW2 9909   2.333   1.411   3.803
 3115SOL     OW 9910   3.526   1.280   4.381
 3115SOL    HW1 9911   3.625   1.288   4.395
 3115SOL    HW2 9912   3.481   1.364   4.412
 3116SOL     OW 9913   3.252   0.575   3.802
 3116SOL    HW1 9914   3.198   0.554   3.883
 3116SOL    HW2 9915   3.343   0.534   3.811
 3117SOL     OW 9916   2.389   0.256   4.052
 3117SOL    HW1 9917   2.416   0.197   3.977
 3117SOL    HW2 9918   2.389   0.351   4.021
 3118SOL     OW 9919   3.616   1.223   5.312
 3118SOL    HW1 9920   3.707   1.184   5.299
 3118SOL    HW2 9921   3.624   1.319   5.336
 3119SOL     OW 9922   2.926   1.347   5.064
 3119SOL    HW1 9923   2.846   1.324   5.119
 3119SOL    HW2 9924   3.009   1.321   5.113
 3120SOL     OW 9925   3.454   1.629   5.349
 3120SOL    HW1 9926   3.481   1.663   5.259
 3120SOL    HW2 9927   3.533   1.591   5.395
 3121SOL     OW 9928   2.973   1.195   4.824
 3121SOL    HW1 9929   2.933   1.239   4.905
 3121SOL    HW2 9930   2.932   1.232   4.741
 3122SOL     OW 9931   3.500   1.099   4.803
 3122SOL    HW1 9932   3.505   1.180   4.862
 3122SOL    HW2 9933   3.414   1.101   4.752
 3123SOL     OW 9934   2.777   0.089   5.126
 3123SOL    HW1 9935   2.802   0.069   5.031
 3123SOL    HW2 9936   2.849   0.145   5.168
 3124SOL     OW 9937   2.842   1.116   5.443
 3124SOL    HW1 9938   2.743   1.122   5.453
 3124SOL    HW2 9939   2.865   1.036   5.387
 3125SOL     OW 9940   2.567   1.050   4.092
 3125SOL    HW1 9941   2.553   1.057   4.191
 3125SOL    HW2 9942   2.651   0.999   4.074
 3126SOL     OW 9943   2.272   0.813   4.975
 3126SOL    HW1 9944   2.358   0.825   5.025
 3126SOL    HW2 9945   2.230   0.726   5.002
 3127SOL     OW 9946   3.136   0.386   4.986
 3127SOL    HW1 9947   3.157   0.460   5.050
 3127SOL    HW2 9948   3.047   0.403   4.943
 3128SOL     OW 9949   1.926   1.564   5.055
 3128SOL    HW1 9950   1.880   1.646   5.021
 3128SOL    HW2 9951   2.024   1.583   5.064
 3129SOL     OW 9952   2.229   1.100   4.225
 3129SOL    HW1 9953   2.222   1.183   4.169
 3129SOL    HW2 9954   2.233   1.020   4.165
 3130SOL     OW 9955   2.428   0.537   4.589
 3130SOL    HW1 9956   2.440   0.603   4.515
 3130SOL    HW2 9957   2.474   0.571   4.672
 3131SOL     OW 9958   3.114   1.348   4.112
 3131SOL    HW1 9959   3.164   1.425   4.152
 3131SOL    HW2 9960   3.019   1.350   4.144
 3132SOL     OW 9961   3.134   1.445   4.866
 3132SOL    HW1 9962   3.181   1.458   4.953
 3132SOL    HW2 9963   3.068   1.371   4.875
 3133SOL     OW 9964   3.444   0.639   4.196
 3133SOL    HW1 9965   3.413   0.700   4.269
 3133SOL    HW2 9966   3.494   0.691   4.127
 3134SOL     OW 9967   2.216   1.510   5.053
 3134SOL    HW1 9968   2.195   1.466   4.966
 3134SOL    HW2 9969   2.313   1.536   5.056
 3135SOL     OW 9970   2.264   0.751   5.322
 3135SOL    HW1 9971   2.332   0.806   5.275
 3135SOL    HW2 9972   2.304   0.663   5.349
 3136SOL     OW 9973   3.449   0.779   5.394
 3136SOL    HW1 9974   3.357   0.817   5.389
 3136SOL    HW2 9975   3.509   0.826   5.329
 3137SOL     OW 9976   2.875   0.105   5.494
 3137SOL    HW1 9977   2.881   0.190   5.442
 3137SOL    HW2 9978   2.907   0.029   5.437
 3138SOL     OW 9979   2.366   0.050   5.464
 3138SOL    HW1 9980   2.324  -0.007   5.394
 3138SOL    HW2 9981   2.300   0.119   5.496
 3139SOL     OW 9982   2.435   0.870   4.753
 3139SOL    HW1 9983   2.479   0.959   4.744
 3139SOL    HW2 9984   2.372   0.870   4.830
 3140SOL     OW 9985   3.222   0.862   4.769
 3140SOL    HW1 9986   3.147   0.862   4.703
 3140SOL    HW2 9987   3.259   0.770   4.778
 3141SOL     OW 9988   3.071   0.525   3.999
 3141SOL    HW1 9989   3.084   0.441   4.053
 3141SOL    HW2 9990   3.042   0.599   4.059
 3142SOL     OW 9991   2.169   0.213   4.955
 3142SOL    HW1 9992   2.146   0.250   5.045
 3142SOL    HW2 9993   2.139   0.118   4.949
 3143SOL     OW 9994   1.899   1.310   5.006
 3143SOL    HW1 9995   1.952   1.261   5.074
 3143SOL    HW2 9996   1.921   1.408   5.011
 3144SOL     OW 9997   2.594   0.634   4.788
 3144SOL    HW1 9998   2.653   0.608   4.712
 3144SOL    HW2 9999   2.566   0.730   4.777
 3145SOL     OW10000   3.590   0.935   5.578
 3145SOL    HW110001   3.544   0.928   5.489
 3145SOL    HW210002   3.528   0.979   5.644
 3146SOL     OW10003   2.169   0.063   4.342
 3146SOL    HW110004   2.158   0.157   4.375
 3146SOL    HW210005   2.164   0.000   4.419
 3147SOL     OW10006   3.484   0.367   4.098
 3147SOL    HW110007   3.486   0.291   4.162
 3147SOL    HW210008   3.436   0.444   4.138
 3148SOL     OW10009   2.885   0.766   4.690
 3148SOL    HW110010   2.900   0.787   4.786
 3148SOL    HW210011   2.855   0.671   4.681
 3149SOL     OW10012   2.842   1.573   5.424
 3149SOL    HW110013   2.822   1.617   5.336
 3149SOL    HW210014   2.881   1.482   5.408
 3150SOL     OW10015   3.721   1.518   5.329
 3150SOL    HW110016   3.735   1.545   5.234
 3150SOL    HW210017   3.804   1.540   5.382
 3151SOL     OW10018   2.212   0.898   5.528
 3151SOL    HW110019   2.288   0.942   5.576
 3151SOL    HW210020   2.247   0.851   5.446
 3152SOL     OW10021   3.402   0.274   3.849
 3152SOL    HW110022   3.341   0.199   3.872
 3152SOL    HW210023   3.424   0.326   3.932
 3153SOL     OW10024   3.165   0.838   3.766
 3153SOL    HW110025   3.199   0.745   3.781
 3153SOL    HW210026   3.183   0.865   3.671
 3154SOL     OW10027   2.930   1.333   4.573
 3154SOL    HW110028   2.937   1.249   4.518
 3154SOL    HW210029   2.992   1.402   4.537
 3155SOL     OW10030   2.181   0.810   4.673
 3155SOL    HW110031   2.274   0.846   4.678
 3155SOL    HW210032   2.175   0.725   4.725
 3156SOL     OW10033   2.201   0.509   4.730
 3156SOL    HW110034   2.149   0.426   4.713
 3156SOL    HW210035   2.278   0.514   4.666
 3157SOL     OW10036   3.000   0.380   5.402
 3157SOL    HW110037   2.955   0.443   5.466
 3157SOL    HW210038   3.093   0.411   5.385
 3158SOL     OW10039   3.022   0.207   5.201
 3158SOL    HW110040   3.022   0.271   5.278
 3158SOL    HW210041   3.050   0.255   5.118
 3159SOL     OW10042   1.870   1.326   3.924
 3159SOL    HW110043   1.777   1.347   3.893
 3159SOL    HW210044   1.880   1.227   3.937
 3160SOL     OW10045   1.950   1.801   4.651
 3160SOL    HW110046   1.908   1.715   4.624
 3160SOL    HW210047   2.044   1.804   4.617
 3161SOL     OW10048   2.366   1.568   4.634
 3161SOL    HW110049   2.432   1.642   4.643
 3161SOL    HW210050   2.410   1.489   4.592
 3162SOL     OW10051   2.864   0.796   4.962
 3162SOL    HW110052   2.905   0.764   5.048
 3162SOL    HW210053   2.768   0.769   4.959
 3163SOL     OW10054   1.902   0.544   4.838
 3163SOL    HW110055   1.987   0.511   4.797
 3163SOL    HW210056   1.915   0.559   4.936
 3164SOL     OW10057   2.051   0.520   5.446
 3164SOL    HW110058   2.110   0.480   5.376
 3164SOL    HW210059   1.993   0.591   5.405
 3165SOL     OW10060   3.231   0.950   5.384
 3165SOL    HW110061   3.270   1.039   5.404
 3165SOL    HW210062   3.241   0.930   5.287
 3166SOL     OW10063   2.677   0.572   4.049
 3166SOL    HW110064   2.684   0.483   4.003
 3166SOL    HW210065   2.583   0.606   4.041
 3167SOL     OW10066   3.519   0.604   4.930
 3167SOL    HW110067   3.481   0.535   4.992
 3167SOL    HW210068   3.601   0.568   4.886
 3168SOL     OW10069   2.114   1.564   5.468
 3168SOL    HW110070   2.084   1.621   5.544
 3168SOL    HW210071   2.107   1.467   5.494
 3169SOL     OW10072   2.533   0.464   4.993
 3169SOL    HW110073   2.499   0.375   4.963
 3169SOL    HW210074   2.559   0.518   4.913
 3170SOL     OW10075   2.792   1.678   5.189
 3170SOL    HW110076   2.768   1.660   5.094
 3170SOL    HW210077   2.822   1.772   5.199
 3171SOL     OW10078   2.335   0.500   3.915
 3171SOL    HW110079   2.396   0.580   3.919
 3171SOL    HW210080   2.240   0.531   3.922
 3172SOL     OW10081   2.021   1.137   5.190
 3172SOL    HW110082   2.043   1.076   5.266
 3172SOL    HW210083   2.031   1.088   5.104
 3173SOL     OW10084   3.209   1.059   4.958
 3173SOL    HW110085   3.233   0.996   4.884
 3173SOL    HW210086   3.119   1.099   4.940
 3174SOL     OW10087   3.164   0.855   4.033
 3174SOL    HW110088   3.078   0.824   4.075
 3174SOL    HW210089   3.160   0.841   3.934
 3175SOL     OW10090   3.621   1.747   4.878
 3175SOL    HW110091   3.682   1.777   4.805
 3175SOL    HW210092   3.583   1.658   4.856
 3176SOL     OW10093   3.114   1.731   4.852
 3176SOL    HW110094   3.198   1.736   4.798
 3176SOL    HW210095   3.091   1.635   4.870
 3177SOL     OW10096   1.945   1.258   4.746
 3177SOL    HW110097   1.940   1.257   4.846
 3177SOL    HW210098   1.862   1.217   4.708
 3178SOL     OW10099   2.550   1.662   5.440
 3178SOL    HW110100   2.494   1.743   5.449
 3178SOL    HW210101   2.602   1.666   5.354
 3179SOL     OW10102   3.588   0.135   4.247
 3179SOL    HW110103   3.661   0.118   4.180
 3179SOL    HW210104   3.557   0.048   4.285
 3180SOL     OW10105   3.250   1.573   4.201
 3180SOL    HW110106   3.317   1.585   4.127
 3180SOL    HW210107   3.210   1.662   4.224
 3181SOL     OW10108   1.992   1.794   5.575
 3181SOL    HW110109   1.951   1.720   5.628
 3181SOL    HW210110   2.056   1.845   5.633
 3182SOL     OW10111   3.142   0.927   4.396
 3182SOL    HW110112   3.202   0.846   4.398
 3182SOL    HW210113   3.182   0.996   4.336
 3183SOL     OW10114   2.692   1.273   5.146
 3183SOL    HW110115   2.687   1.306   5.241
 3183SOL    HW210116   2.606   1.292   5.100
 3184SOL     OW10117   2.534   1.616   3.878
 3184SOL    HW110118   2.543   1.626   3.779
 3184SOL    HW210119   2.494   1.527   3.899
 3185SOL     OW10120   3.512   1.720   5.118
 3185SOL    HW110121   3.565   1.730   5.034
 3185SOL    HW210122   3.485   1.810   5.152
 3186SOL     OW10123   3.703   0.175   4.687
 3186SOL    HW110124   3.742   0.090   4.651
 3186SOL    HW210125   3.605   0.177   4.668
 3187SOL     OW10126   2.125   0.326   4.444
 3187SOL    HW110127   2.046   0.377   4.410
 3187SOL    HW210128   2.116   0.311   4.542
 3188SOL     OW10129   3.056   1.612   3.755
 3188SOL    HW110130   3.062   1.519   3.792
 3188SOL    HW210131   2.997   1.612   3.675
 3189SOL     OW10132   2.684   1.002   5.096
 3189SOL    HW110133   2.724   1.001   5.004
 3189SOL    HW210134   2.694   1.094   5.136
 3190SOL     OW10135   2.778   0.910   4.015
 3190SOL    HW110136   2.841   0.948   3.947
 3190SOL    HW210137   2.818   0.827   4.054
 3191SOL     OW10138   3.366   1.607   3.768
 3191SOL    HW110139   3.274   1.644   3.775
 3191SOL    HW210140   3.404   1.627   3.678
 3192SOL     OW10141   2.234   1.288   5.214
 3192SOL    HW110142   2.221   1.381   5.180
 3192SOL    HW210143   2.150   1.236   5.201
 3193SOL     OW10144   3.476   1.292   5.013
 3193SOL    HW110145   3.536   1.295   5.093
 3193SOL    HW210146   3.401   1.356   5.026
 3194SOL     OW10147   2.901   1.098   4.420
 3194SOL    HW110148   2.831   1.051   4.474
 3194SOL    HW210149   2.960   1.030   4.377
 3195SOL     OW10150   2.876   0.236   4.695
 3195SOL    HW110151   2.868   0.200   4.602
 3195SOL    HW210152   2.874   0.160   4.760
 3196SOL     OW10153   2.452   1.487   4.215
 3196SOL    HW110154   2.494   1.429   4.145
 3196SOL    HW210155   2.408   1.566   4.171
 3197SOL     OW10156   3.571   0.385   5.105
 3197SOL    HW110157   3.644   0.454   5.109
 3197SOL    HW210158   3.599   0.310   5.046
 3198SOL     OW10159   2.117   1.348   4.014
 3198SOL    HW110160   2.021   1.349   3.987
 3198SOL    HW210161   2.129   1.401   4.098
 3199SOL     OW10162   1.967   1.013   5.450
 3199SOL    HW110163   1.890   0.980   5.504
 3199SOL    HW210164   2.052   0.983   5.492
 3200SOL     OW10165   2.534   0.203   5.213
 3200SOL    HW110166   2.624   0.187   5.173
 3200SOL    HW210167   2.542   0.208   5.312
 3201SOL     OW10168   1.937   0.345   3.757
 3201SOL    HW110169   1.845   0.317   3.728
 3201SOL    HW210170   1.968   0.422   3.701
 3202SOL     OW10171   3.302   0.856   5.122
 3202SOL    HW110172   3.245   0.908   5.059
 3202SOL    HW210173   3.398   0.868   5.098
 3203SOL     OW10174   1.934   0.166   4.042
 3203SOL    HW110175   1.917   0.249   3.988
 3203SOL    HW210176   2.024   0.129   4.020
 3204SOL     OW10177   3.045   1.335   3.843
 3204SOL    HW110178   2.946   1.324   3.845
 3204SOL    HW210179   3.079   1.350   3.936
 3205SOL     OW10180   2.475   0.842   5.155
 3205SOL    HW110181   2.531   0.923   5.138
 3205SOL    HW210182   2.534   0.762   5.158
 3206SOL     OW10183   3.355   1.767   4.683
 3206SOL    HW110184   3.388   1.831   4.614
 3206SOL    HW210185   3.421   1.761   4.758
 3207SOL     OW10186   2.578   0.565   5.432
 3207SOL    HW110187   2.597   0.630   5.506
 3207SOL    HW210188   2.638   0.485   5.441
 3208SOL     OW10189   3.312   1.220   5.357
 3208SOL    HW110190   3.303   1.210   5.456
 3208SOL    HW210191   3.408   1.213   5.331
 3209SOL     OW10192   2.252   1.741   5.284
 3209SOL    HW110193   2.161   1.782   5.282
 3209SOL    HW210194   2.245   1.647   5.316
 3210SOL     OW10195   3.536   0.883   4.978
 3210SOL    HW110196   3.509   0.794   4.941
 3210SOL    HW210197   3.537   0.951   4.905
 3211SOL     OW10198   3.087   0.325   4.173
 3211SOL    HW110199   3.152   0.251   4.162
 3211SOL    HW210200   3.107   0.375   4.257
 3212SOL     OW10201   2.456   0.745   4.376
 3212SOL    HW110202   2.506   0.830   4.357
 3212SOL    HW210203   2.368   0.747   4.328
 3213SOL     OW10204   3.639   0.342   5.366
 3213SOL    HW110205   3.622   0.373   5.272
 3213SOL    HW210206   3.555   0.305   5.404
 3214SOL     OW10207   3.592   0.934   5.241
 3214SOL    HW110208   3.630   1.025   5.256
 3214SOL    HW210209   3.584   0.917   5.142
 3215SOL     OW10210   2.721   1.374   3.740
 3215SOL    HW110211   2.675   1.389   3.828
 3215SOL    HW210212   2.765   1.459   3.710
 3216SOL     OW10213   2.523   1.790   4.677
 3216SOL    HW110214   2.477   1.878   4.664
 3216SOL    HW210215   2.622   1.802   4.670
 3217SOL     OW10216   2.721   0.956   4.585
 3217SOL    HW110217   2.775   0.887   4.633
 3217SOL    HW210218   2.689   1.025   4.651
 3218SOL     OW10219   2.945   0.984   3.811
 3218SOL    HW110220   2.922   1.037   3.729
 3218SOL    HW210221   3.026   0.928   3.792
 3219SOL     OW10222   3.723   1.569   4.575
 3219SOL    HW110223   3.652   1.557   4.505
 3219SOL    HW210224   3.724   1.490   4.635
 3220SOL     OW10225   2.083   1.314   5.568
 3220SOL    HW110226   2.018   1.241   5.547
 3220SOL    HW210227   2.087   1.328   5.666
 3221SOL     OW10228   1.941   1.240   4.377
 3221SOL    HW110229   1.940   1.193   4.465
 3221SOL    HW210230   2.023   1.212   4.326
 3222SOL     OW10231   2.534   1.391   5.348
 3222SOL    HW110232   2.456   1.341   5.386
 3222SOL    HW210233   2.531   1.486   5.379
 3223SOL     OW10234   3.686   0.192   4.951
 3223SOL    HW110235   3.682   0.102   4.995
 3223SOL    HW210236   3.689   0.181   4.852
 3224SOL     OW10237   2.290   0.424   4.244
 3224SOL    HW110238   2.320   0.352   4.182
 3224SOL    HW210239   2.251   0.384   4.327
 3225SOL     OW10240   3.567   1.487   4.828
 3225SOL    HW110241   3.474   1.462   4.801
 3225SOL    HW210242   3.593   1.437   4.910
 3226SOL     OW10243   2.179   0.547   5.004
 3226SOL    HW110244   2.217   0.488   5.076
 3226SOL    HW210245   2.219   0.521   4.916
 3227SOL     OW10246   2.674   1.586   4.411
 3227SOL    HW110247   2.706   1.596   4.317
 3227SOL    HW210248   2.595   1.524   4.413
 3228SOL     OW10249   3.286   0.214   4.836
 3228SOL    HW110250   3.338   0.149   4.891
 3228SOL    HW210251   3.237   0.277   4.897
 3229SOL     OW10252   2.863   0.034   4.878
 3229SOL    HW110253   2.800  -0.038   4.847
 3229SOL    HW210254   2.956  -0.002   4.878
 3230SOL     OW10255   2.632   1.330   4.025
 3230SOL    HW110256   2.586   1.243   4.042
 3230SOL    HW210257   2.723   1.327   4.066
 3231SOL     OW10258   2.480   1.567   5.008
 3231SOL    HW110259   2.475   1.649   5.065
 3231SOL    HW210260   2.569   1.564   4.963
 3232SOL     OW10261   3.214   0.052   3.892
 3232SOL    HW110262   3.249   0.011   3.808
 3232SOL    HW210263   3.124   0.014   3.912
 3233SOL     OW10264   3.162   0.453   4.415
 3233SOL    HW110265   3.103   0.533   4.419
 3233SOL    HW210266   3.177   0.418   4.508
 3234SOL     OW10267   3.455   0.221   4.606
 3234SOL    HW110268   3.371   0.220   4.660
 3234SOL    HW210269   3.457   0.304   4.550
 3235SOL     OW10270   1.901   1.077   4.024
 3235SOL    HW110271   2.000   1.066   4.015
 3235SOL    HW210272   1.861   0.991   4.056
 3236SOL     OW10273   2.737   1.646   4.061
 3236SOL    HW110274   2.660   1.611   4.007
 3236SOL    HW210275   2.705   1.717   4.123
 3237SOL     OW10276   2.092   0.628   5.699
 3237SOL    HW110277   1.999   0.626   5.736
 3237SOL    HW210278   2.093   0.589   5.607
 3238SOL     OW10279   2.087   0.275   6.582
 3238SOL    HW110280   2.122   0.258   6.674
 3238SOL    HW210281   1.999   0.230   6.570
 3239SOL     OW10282   1.881   0.368   6.233
 3239SOL    HW110283   1.799   0.411   6.272
 3239SOL    HW210284   1.853   0.295   6.170
 3240SOL     OW10285   2.431   1.275   6.751
 3240SOL    HW110286   2.338   1.268   6.714
 3240SOL    HW210287   2.442   1.364   6.795
 3241SOL     OW10288   3.417   1.511   6.289
 3241SOL    HW110289   3.360   1.495   6.370
 3241SOL    HW210290   3.358   1.521   6.209
 3242SOL     OW10291   2.997   0.703   6.303
 3242SOL    HW110292   3.054   0.781   6.278
 3242SOL    HW210293   2.937   0.729   6.379
 3243SOL     OW10294   3.617   0.607   5.817
 3243SOL    HW110295   3.605   0.594   5.718
 3243SOL    HW210296   3.587   0.526   5.866
 3244SOL     OW10297   2.630   1.144   6.609
 3244SOL    HW110298   2.552   1.161   6.669
 3244SOL    HW210299   2.664   1.231   6.573
 3245SOL     OW10300   2.712   0.798   7.409
 3245SOL    HW110301   2.708   0.874   7.474
 3245SOL    HW210302   2.734   0.834   7.318
 3246SOL     OW10303   2.547   1.012   6.251
 3246SOL    HW110304   2.616   0.996   6.321
 3246SOL    HW210305   2.474   1.069   6.289
 3247SOL     OW10306   2.548   1.161   7.389
 3247SOL    HW110307   2.608   1.240   7.403
 3247SOL    HW210308   2.462   1.192   7.348
 3248SOL     OW10309   2.197   1.435   6.647
 3248SOL    HW110310   2.119   1.404   6.594
 3248SOL    HW210311   2.255   1.493   6.590
 3249SOL     OW10312   3.322   1.505   6.925
 3249SOL    HW110313   3.346   1.599   6.951
 3249SOL    HW210314   3.306   1.451   7.007
 3250SOL     OW10315   2.300   0.392   7.085
 3250SOL    HW110316   2.382   0.336   7.094
 3250SOL    HW210317   2.219   0.334   7.089
 3251SOL     OW10318   3.465   0.447   6.323
 3251SOL    HW110319   3.391   0.493   6.273
 3251SOL    HW210320   3.516   0.515   6.376
 3252SOL     OW10321   2.093   1.713   6.069
 3252SOL    HW110322   2.127   1.790   6.123
 3252SOL    HW210323   2.137   1.713   5.979
 3253SOL     OW10324   2.989   1.341   7.276
 3253SOL    HW110325   3.036   1.341   7.364
 3253SOL    HW210326   2.941   1.254   7.265
 3254SOL     OW10327   2.092   1.434   6.124
 3254SOL    HW110328   2.066   1.530   6.124
 3254SOL    HW210329   2.021   1.380   6.169
 3255SOL     OW10330   2.102   1.091   6.472
 3255SOL    HW110331   2.116   1.007   6.524
 3255SOL    HW210332   2.047   1.155   6.527
 3256SOL     OW10333   2.482   1.786   7.025
 3256SOL    HW110334   2.390   1.769   7.060
 3256SOL    HW210335   2.510   1.878   7.051
 3257SOL     OW10336   2.468   0.964   5.709
 3257SOL    HW110337   2.475   1.048   5.655
 3257SOL    HW210338   2.514   0.977   5.797
 3258SOL     OW10339   3.456   0.114   7.066
 3258SOL    HW110340   3.438   0.181   6.994
 3258SOL    HW210341   3.453   0.160   7.155
 3259SOL     OW10342   1.984   0.643   6.149
 3259SOL    HW110343   1.939   0.555   6.166
 3259SOL    HW210344   1.983   0.697   6.233
 3260SOL     OW10345   3.704   1.767   5.945
 3260SOL    HW110346   3.758   1.738   6.025
 3260SOL    HW210347   3.734   1.857   5.916
 3261SOL     OW10348   1.889   1.596   5.703
 3261SOL    HW110349   1.870   1.500   5.724
 3261SOL    HW210350   1.856   1.654   5.778
 3262SOL     OW10351   3.551   0.922   6.198
 3262SOL    HW110352   3.646   0.893   6.206
 3262SOL    HW210353   3.543   0.987   6.123
 3263SOL     OW10354   3.503   1.108   6.018
 3263SOL    HW110355   3.589   1.110   5.966
 3263SOL    HW210356   3.517   1.155   6.106
 3264SOL     OW10357   1.975   0.737   7.183
 3264SOL    HW110358   2.063   0.724   7.228
 3264SOL    HW210359   1.962   0.834   7.161
 3265SOL     OW10360   2.475   1.365   6.312
 3265SOL    HW110361   2.426   1.278   6.321
 3265SOL    HW210362   2.452   1.408   6.225
 3266SOL     OW10363   3.155   1.228   7.009
 3266SOL    HW110364   3.192   1.155   6.951
 3266SOL    HW210365   3.207   1.233   7.094
 3267SOL     OW10366   2.671   0.004   6.088
 3267SOL    HW110367   2.711   0.095   6.079
 3267SOL    HW210368   2.571   0.012   6.094
 3268SOL     OW10369   2.059   0.976   6.850
 3268SOL    HW110370   2.148   0.931   6.836
 3268SOL    HW210371   1.986   0.911   6.831
 3269SOL     OW10372   3.387   0.999   5.776
 3269SOL    HW110373   3.324   0.923   5.789
 3269SOL    HW210374   3.435   1.017   5.862
 3270SOL     OW10375   3.049   1.792   7.202
 3270SOL    HW110376   3.073   1.852   7.126
 3270SOL    HW210377   3.056   1.697   7.172
 3271SOL     OW10378   2.179   0.251   7.387
 3271SOL    HW110379   2.250   0.322   7.393
 3271SOL    HW210380   2.091   0.290   7.415
 3272SOL     OW10381   3.328   1.417   6.539
 3272SOL    HW110382   3.269   1.423   6.619
 3272SOL    HW210383   3.313   1.329   6.493
 3273SOL     OW10384   3.529   1.714   6.158
 3273SOL    HW110385   3.488   1.691   6.070
 3273SOL    HW210386   3.511   1.640   6.223
 3274SOL     OW10387   2.460   0.729   5.856
 3274SOL    HW110388   2.484   0.798   5.788
 3274SOL    HW210389   2.382   0.762   5.910
 3275SOL     OW10390   3.143   0.345   6.530
 3275SOL    HW110391   3.057   0.295   6.517
 3275SOL    HW210392   3.205   0.291   6.586
 3276SOL     OW10393   3.438   1.662   5.893
 3276SOL    HW110394   3.527   1.708   5.896
 3276SOL    HW210395   3.417   1.638   5.798
 3277SOL     OW10396   2.669   0.605   7.051
 3277SOL    HW110397   2.622   0.602   7.140
 3277SOL    HW210398   2.618   0.550   6.985
 3278SOL     OW10399   3.256   0.469   7.260
 3278SOL    HW110400   3.236   0.512   7.348
 3278SOL    HW210401   3.334   0.407   7.269
 3279SOL     OW10402   2.835   0.890   7.158
 3279SOL    HW110403   2.881   0.806   7.129
 3279SOL    HW210404   2.779   0.924   7.083
 3280SOL     OW10405   2.853   0.410   6.828
 3280SOL    HW110406   2.776   0.444   6.882
 3280SOL    HW210407   2.819   0.359   6.749
 3281SOL     OW10408   2.903   0.701   6.015
 3281SOL    HW110409   2.929   0.697   6.111
 3281SOL    HW210410   2.818   0.650   6.001
 3282SOL     OW10411   1.938   0.811   6.375
 3282SOL    HW110412   2.037   0.799   6.384
 3282SOL    HW210413   1.914   0.906   6.396
 3283SOL     OW10414   1.992   1.821   7.157
 3283SOL    HW110415   1.982   1.806   7.256
 3283SOL    HW210416   1.906   1.857   7.121
 3284SOL     OW10417   2.727   0.348   5.781
 3284SOL    HW110418   2.786   0.411   5.732
 3284SOL    HW210419   2.746   0.254   5.752
 3285SOL     OW10420   3.581   0.585   7.417
 3285SOL    HW110421   3.555   0.674   7.381
 3285SOL    HW210422   3.579   0.517   7.344
 3286SOL     OW10423   3.224   1.144   6.131
 3286SOL    HW110424   3.307   1.115   6.083
 3286SOL    HW210425   3.175   1.211   6.075
 3287SOL     OW10426   2.412   0.196   6.471
 3287SOL    HW110427   2.407   0.191   6.571
 3287SOL    HW210428   2.414   0.292   6.442
 3288SOL     OW10429   2.870   1.456   6.063
 3288SOL    HW110430   2.824   1.528   6.011
 3288SOL    HW210431   2.866   1.476   6.161
 3289SOL     OW10432   2.213   1.801   6.439
 3289SOL    HW110433   2.263   1.715   6.445
 3289SOL    HW210434   2.278   1.878   6.436
 3290SOL     OW10435   3.657   1.066   6.459
 3290SOL    HW110436   3.595   1.051   6.383
 3290SOL    HW210437   3.605   1.077   6.544
 3291SOL     OW10438   3.089   1.550   7.092
 3291SOL    HW110439   3.095   1.473   7.156
 3291SOL    HW210440   3.037   1.524   7.012
 3292SOL     OW10441   2.183   0.943   5.828
 3292SOL    HW110442   2.265   0.982   5.786
 3292SOL    HW210443   2.156   0.861   5.779
 3293SOL     OW10444   3.320   0.735   6.314
 3293SOL    HW110445   3.315   0.670   6.389
 3293SOL    HW210446   3.400   0.794   6.327
 3294SOL     OW10447   2.323   1.266   7.313
 3294SOL    HW110448   2.273   1.267   7.227
 3294SOL    HW210449   2.260   1.248   7.389
 3295SOL     OW10450   2.973   1.776   5.823
 3295SOL    HW110451   2.913   1.714   5.873
 3295SOL    HW210452   3.004   1.732   5.738
 3296SOL     OW10453   2.064   0.285   7.084
 3296SOL    HW110454   1.984   0.345   7.071
 3296SOL    HW210455   2.054   0.236   7.170
 3297SOL     OW10456   3.494   1.377   5.667
 3297SOL    HW110457   3.462   1.471   5.657
 3297SOL    HW210458   3.418   1.314   5.655
 3298SOL     OW10459   2.326   1.743   5.909
 3298SOL    HW110460   2.359   1.782   5.995
 3298SOL    HW210461   2.402   1.736   5.844
 3299SOL     OW10462   3.262   0.107   6.012
 3299SOL    HW110463   3.238   0.070   5.922
 3299SOL    HW210464   3.361   0.123   6.016
 3300SOL     OW10465   2.111   1.785   6.827
 3300SOL    HW110466   2.168   1.720   6.877
 3300SOL    HW210467   2.095   1.752   6.734
 3301SOL     OW10468   2.802   1.698   6.490
 3301SOL    HW110469   2.882   1.641   6.511
 3301SOL    HW210470   2.753   1.658   6.413
 3302SOL     OW10471   2.244   0.700   6.066
 3302SOL    HW110472   2.289   0.610   6.063
 3302SOL    HW210473   2.150   0.689   6.099
 3303SOL     OW10474   3.409   0.222   7.315
 3303SOL    HW110475   3.404   0.259   7.407
 3303SOL    HW210476   3.337   0.153   7.303
 3304SOL     OW10477   2.476   0.122   5.703
 3304SOL    HW110478   2.574   0.100   5.710
 3304SOL    HW210479   2.445   0.105   5.610
 3305SOL     OW10480   2.643   0.264   7.335
 3305SOL    HW110481   2.710   0.203   7.378
 3305SOL    HW210482   2.570   0.283   7.400
 3306SOL     OW10483   2.750   1.514   6.781
 3306SOL    HW110484   2.727   1.489   6.687
 3306SOL    HW210485   2.811   1.445   6.820
 3307SOL     OW10486   3.213   0.590   7.019
 3307SOL    HW110487   3.241   0.547   7.104
 3307SOL    HW210488   3.238   0.686   7.020
 3308SOL     OW10489   2.665   1.402   6.510
 3308SOL    HW110490   2.755   1.416   6.468
 3308SOL    HW210491   2.594   1.404   6.439
 3309SOL     OW10492   2.784   0.503   6.485
 3309SOL    HW110493   2.759   0.494   6.389
 3309SOL    HW210494   2.832   0.421   6.516
 3310SOL     OW10495   2.401   0.064   6.098
 3310SOL    HW110496   2.320   0.065   6.156
 3310SOL    HW210497   2.404   0.147   6.043
 3311SOL     OW10498   3.296   1.188   5.627
 3311SOL    HW110499   3.328   1.112   5.684
 3311SOL    HW210500   3.204   1.215   5.657
 3312SOL     OW10501   2.159   0.035   5.757
 3312SOL    HW110502   2.208   0.119   5.736
 3312SOL    HW210503   2.221  -0.030   5.802
 3313SOL     OW10504   2.797   0.236   6.066
 3313SOL    HW110505   2.749   0.277   5.988
 3313SOL    HW210506   2.896   0.234   6.047
 3314SOL     OW10507   2.938   0.683   7.050
 3314SOL    HW110508   2.858   0.622   7.053
 3314SOL    HW210509   3.019   0.630   7.026
 3315SOL     OW10510   3.089   1.570   6.379
 3315SOL    HW110511   3.110   1.644   6.314
 3315SOL    HW210512   3.157   1.570   6.452
 3316SOL     OW10513   2.321   1.152   6.327
 3316SOL    HW110514   2.250   1.125   6.392
 3316SOL    HW210515   2.295   1.124   6.234
 3317SOL     OW10516   3.133   1.797   6.177
 3317SOL    HW110517   3.177   1.861   6.113
 3317SOL    HW210518   3.083   1.849   6.247
 3318SOL     OW10519   2.894   0.549   5.602
 3318SOL    HW110520   2.853   0.631   5.563
 3318SOL    HW210521   2.958   0.575   5.675
 3319SOL     OW10522   1.940   0.556   6.972
 3319SOL    HW110523   2.032   0.555   6.931
 3319SOL    HW210524   1.934   0.630   7.039
 3320SOL     OW10525   2.423   0.222   6.733
 3320SOL    HW110526   2.461   0.138   6.770
 3320SOL    HW210527   2.335   0.241   6.777
 3321SOL     OW10528   2.728   0.454   6.228
 3321SOL    HW110529   2.696   0.526   6.166
 3321SOL    HW210530   2.752   0.373   6.175
 3322SOL     OW10531   2.879   0.039   6.339
 3322SOL    HW110532   2.807   0.044   6.270
 3322SOL    HW210533   2.855  -0.030   6.408
 3323SOL     OW10534   3.291   1.173   6.453
 3323SOL    HW110535   3.236   1.089   6.446
 3323SOL    HW210536   3.317   1.202   6.361
 3324SOL     OW10537   3.328   0.590   6.578
 3324SOL    HW110538   3.298   0.495   6.585
 3324SOL    HW210539   3.401   0.606   6.644
 3325SOL     OW10540   3.719   0.833   5.963
 3325SOL    HW110541   3.761   0.769   6.027
 3325SOL    HW210542   3.681   0.782   5.885
 3326SOL     OW10543   2.350   1.385   5.760
 3326SOL    HW110544   2.263   1.370   5.807
 3326SOL    HW210545   2.333   1.411   5.665
 3327SOL     OW10546   3.526   1.280   6.243
 3327SOL    HW110547   3.625   1.288   6.257
 3327SOL    HW210548   3.481   1.364   6.274
 3328SOL     OW10549   3.252   0.575   5.664
 3328SOL    HW110550   3.198   0.554   5.745
 3328SOL    HW210551   3.343   0.534   5.673
 3329SOL     OW10552   2.389   0.256   5.914
 3329SOL    HW110553   2.416   0.197   5.839
 3329SOL    HW210554   2.389   0.351   5.883
 3330SOL     OW10555   3.616   1.223   7.174
 3330SOL    HW110556   3.707   1.184   7.161
 3330SOL    HW210557   3.624   1.319   7.198
 3331SOL     OW10558   2.926   1.347   6.926
 3331SOL    HW110559   2.846   1.324   6.981
 3331SOL    HW210560   3.009   1.321   6.975
 3332SOL     OW10561   3.454   1.629   7.211
 3332SOL    HW110562   3.481   1.663   7.121
 3332SOL    HW210563   3.533   1.591   7.257
 3333SOL     OW10564   2.973   1.195   6.686
 3333SOL    HW110565   2.933   1.239   6.767
 3333SOL    HW210566   2.932   1.232   6.603
 3334SOL     OW10567   3.500   1.099   6.665
 3334SOL    HW110568   3.505   1.180   6.724
 3334SOL    HW210569   3.414   1.101   6.614
 3335SOL     OW10570   2.777   0.089   6.988
 3335SOL    HW110571   2.802   0.069   6.893
 3335SOL    HW210572   2.849   0.145   7.030
 3336SOL     OW10573   2.842   1.116   7.305
 3336SOL    HW110574   2.743   1.122   7.315
 3336SOL    HW210575   2.865   1.036   7.249
 3337SOL     OW10576   2.567   1.050   5.954
 3337SOL    HW110577   2.553   1.057   6.053
 3337SOL    HW210578   2.651   0.999   5.936
 3338SOL     OW10579   2.272   0.813   6.837
 3338SOL    HW110580   2.358   0.825   6.887
 3338SOL    HW210581   2.230   0.726   6.864
 3339SOL     OW10582   3.136   0.386   6.848
 3339SOL    HW110583   3.157   0.460   6.912
 3339SOL    HW210584   3.047   0.403   6.805
 3340SOL     OW10585   1.926   1.564   6.917
 3340SOL    HW110586   1.880   1.646   6.883
 3340SOL    HW210587   2.024   1.583   6.926
 3341SOL     OW10588   2.229   1.100   6.087
 3341SOL    HW110589   2.222   1.183   6.031
 3341SOL    HW210590   2.233   1.020   6.027
 3342SOL     OW10591   2.428   0.537   6.451
 3342SOL    HW110592   2.440   0.603   6.377
 3342SOL    HW210593   2.474   0.571   6.534
 3343SOL     OW10594   3.114   1.348   5.974
 3343SOL    HW110595   3.164   1.425   6.014
 3343SOL    HW210596   3.019   1.350   6.006
 3344SOL     OW10597   3.134   1.445   6.728
 3344SOL    HW110598   3.181   1.458   6.815
 3344SOL    HW210599   3.068   1.371   6.737
 3345SOL     OW10600   3.444   0.639   6.058
 3345SOL    HW110601   3.413   0.700   6.131
 3345SOL    HW210602   3.494   0.691   5.989
 3346SOL     OW10603   2.216   1.510   6.915
 3346SOL    HW110604   2.195   1.466   6.828
 3346SOL    HW210605   2.313   1.536   6.918
 3347SOL     OW10606   2.264   0.751   7.184
 3347SOL    HW110607   2.332   0.806   7.137
 3347SOL    HW210608   2.304   0.663   7.211
 3348SOL     OW10609   3.449   0.779   7.256
 3348SOL    HW110610   3.357   0.817   7.251
 3348SOL    HW210611   3.509   0.826   7.191
 3349SOL     OW10612   2.875   0.105   7.356
 3349SOL    HW110613   2.881   0.190   7.304
 3349SOL    HW210614   2.907   0.029   7.299
 3350SOL     OW10615   2.366   0.050   7.326
 3350SOL    HW110616   2.324  -0.007   7.256
 3350SOL    HW210617   2.300   0.119   7.358
 3351SOL     OW10618   2.435   0.870   6.615
 3351SOL    HW110619   2.479   0.959   6.606
 3351SOL    HW210620   2.372   0.870   6.692
 3352SOL     OW10621   3.222   0.862   6.631
 3352SOL    HW110622   3.147   0.862   6.565
 3352SOL    HW210623   3.259   0.770   6.640
 3353SOL     OW10624   3.071   0.525   5.861
 3353SOL    HW110625   3.084   0.441   5.915
 3353SOL    HW210626   3.042   0.599   5.921
 3354SOL     OW10627   2.169   0.213   6.817
 3354SOL    HW110628   2.146   0.250   6.907
 3354SOL    HW210629   2.139   0.118   6.811
 3355SOL     OW10630   1.899   1.310   6.868
 3355SOL    HW110631   1.952   1.261   6.936
 3355SOL    HW210632   1.921   1.408   6.873
 3356SOL     OW10633   2.594   0.634   6.650
 3356SOL    HW110634   2.653   0.608   6.574
 3356SOL    HW210635   2.566   0.730   6.639
 3357SOL     OW10636   3.590   0.935   7.440
 3357SOL    HW110637   3.544   0.928   7.351
 3357SOL    HW210638   3.528   0.979   7.506
 3358SOL     OW10639   2.169   0.063   6.204
 3358SOL    HW110640   2.158   0.157   6.237
 3358SOL    HW210641   2.164   0.000   6.281
 3359SOL     OW10642   3.484   0.367   5.960
 3359SOL    HW110643   3.486   0.291   6.024
 3359SOL    HW210644   3.436   0.444   6.000
 3360SOL     OW10645   2.885   0.766   6.552
 3360SOL    HW110646   2.900   0.787   6.648
 3360SOL    HW210647   2.855   0.671   6.543
 3361SOL     OW10648   2.842   1.573   7.286
 3361SOL    HW110649   2.822   1.617   7.198
 3361SOL    HW210650   2.881   1.482   7.270
 3362SOL     OW10651   3.721   1.518   7.191
 3362SOL    HW110652   3.735   1.545   7.096
 3362SOL    HW210653   3.804   1.540   7.244
 3363SOL     OW10654   2.212   0.898   7.390
 3363SOL    HW110655   2.288   0.942   7.438
 3363SOL    HW210656   2.247   0.851   7.308
 3364SOL     OW10657   3.402   0.274   5.711
 3364SOL    HW110658   3.341   0.199   5.734
 3364SOL    HW210659   3.424   0.326   5.794
 3365SOL     OW10660   3.165   0.838   5.628
 3365SOL    HW110661   3.199   0.745   5.643
 3365SOL    HW210662   3.183   0.865   5.533
 3366SOL     OW10663   2.930   1.333   6.435
 3366SOL    HW110664   2.937   1.249   6.380
 3366SOL    HW210665   2.992   1.402   6.399
 3367SOL     OW10666   2.181   0.810   6.535
 3367SOL    HW110667   2.274   0.846   6.540
 3367SOL    HW210668   2.175   0.725   6.587
 3368SOL     OW10669   2.201   0.509   6.592
 3368SOL    HW110670   2.149   0.426   6.575
 3368SOL    HW210671   2.278   0.514   6.528
 3369SOL     OW10672   3.000   0.380   7.264
 3369SOL    HW110673   2.955   0.443   7.328
 3369SOL    HW210674   3.093   0.411   7.247
 3370SOL     OW10675   3.022   0.207   7.063
 3370SOL    HW110676   3.022   0.271   7.140
 3370SOL    HW210677   3.050   0.255   6.980
 3371SOL     OW10678   1.870   1.326   5.786
 3371SOL    HW110679   1.777   1.347   5.755
 3371SOL    HW210680   1.880   1.227   5.799
 3372SOL     OW10681   1.950   1.801   6.513
 3372SOL    HW110682   1.908   1.715   6.486
 3372SOL    HW210683   2.044   1.804   6.479
 3373SOL     OW10684   2.366   1.568   6.496
 3373SOL    HW110685   2.432   1.642   6.505
 3373SOL    HW210686   2.410   1.489   6.454
 3374SOL     OW10687   2.864   0.796   6.824
 3374SOL    HW110688   2.905   0.764   6.910
 3374SOL    HW210689   2.768   0.769   6.821
 3375SOL     OW10690   1.902   0.544   6.700
 3375SOL    HW110691   1.987   0.511   6.659
 3375SOL    HW210692   1.915   0.559   6.798
 3376SOL     OW10693   2.051   0.520   7.308
 3376SOL    HW110694   2.110   0.480   7.238
 3376SOL    HW210695   1.993   0.591   7.267
 3377SOL     OW10696   3.231   0.950   7.246
 3377SOL    HW110697   3.270   1.039   7.266
 3377SOL    HW210698   3.241   0.930   7.149
 3378SOL     OW10699   2.677   0.572   5.911
 3378SOL    HW110700   2.684   0.483   5.865
 3378SOL    HW210701   2.583   0.606   5.903
 3379SOL     OW10702   3.519   0.604   6.792
 3379SOL    HW110703   3.481   0.535   6.854
 3379SOL    HW210704   3.601   0.568   6.748
 3380SOL     OW10705   2.114   1.564   7.330
 3380SOL    HW110706   2.084   1.621   7.406
 3380SOL    HW210707   2.107   1.467   7.356
 3381SOL     OW10708   2.533   0.464   6.855
 3381SOL    HW110709   2.499   0.375   6.825
 3381SOL    HW210710   2.559   0.518   6.775
 3382SOL     OW10711   2.792   1.678   7.051
 3382SOL    HW110712   2.768   1.660   6.956
 3382SOL    HW210713   2.822   1.772   7.061
 3383SOL     OW10714   2.335   0.500   5.777
 3383SOL    HW110715   2.396   0.580   5.781
 3383SOL    HW210716   2.240   0.531   5.784
 3384SOL     OW10717   2.021   1.137   7.052
 3384SOL    HW110718   2.043   1.076   7.128
 3384SOL    HW210719   2.031   1.088   6.966
 3385SOL     OW10720   3.209   1.059   6.820
 3385SOL    HW110721   3.233   0.996   6.746
 3385SOL    HW210722   3.119   1.099   6.802
 3386SOL     OW10723   3.164   0.855   5.895
 3386SOL    HW110724   3.078   0.824   5.937
 3386SOL    HW210725   3.160   0.841   5.796
 3387SOL     OW10726   3.621   1.747   6.740
 3387SOL    HW110727   3.682   1.777   6.667
 3387SOL    HW210728   3.583   1.658   6.718
 3388SOL     OW10729   3.114   1.731   6.714
 3388SOL    HW110730   3.198   1.736   6.660
 3388SOL    HW210731   3.091   1.635   6.732
 3389SOL     OW10732   1.945   1.258   6.608
 3389SOL    HW110733   1.940   1.257   6.708
 3389SOL    HW210734   1.862   1.217   6.570
 3390SOL     OW10735   2.550   1.662   7.302
 3390SOL    HW110736   2.494   1.743   7.311
 3390SOL    HW210737   2.602   1.666   7.216
 3391SOL     OW10738   3.588   0.135   6.109
 3391SOL    HW110739   3.661   0.118   6.042
 3391SOL    HW210740   3.557   0.048   6.147
 3392SOL     OW10741   3.250   1.573   6.063
 3392SOL    HW110742   3.317   1.585   5.989
 3392SOL    HW210743   3.210   1.662   6.086
 3393SOL     OW10744   1.992   1.794   7.437
 3393SOL    HW110745   1.951   1.720   7.490
 3393SOL    HW210746   2.056   1.845   7.495
 3394SOL     OW10747   3.142   0.927   6.258
 3394SOL    HW110748   3.202   0.846   6.260
 3394SOL    HW210749   3.182   0.996   6.198
 3395SOL     OW10750   2.692   1.273   7.008
 3395SOL    HW110751   2.687   1.306   7.103
 3395SOL    HW210752   2.606   1.292   6.962
 3396SOL     OW10753   2.534   1.616   5.740
 3396SOL    HW110754   2.543   1.626   5.641
 3396SOL    HW210755   2.494   1.527   5.761
 3397SOL     OW10756   3.512   1.720   6.980
 3397SOL    HW110757   3.565   1.730   6.896
 3397SOL    HW210758   3.485   1.810   7.014
 3398SOL     OW10759   3.703   0.175   6.549
 3398SOL    HW110760   3.742   0.090   6.513
 3398SOL    HW210761   3.605   0.177   6.530
 3399SOL     OW10762   2.125   0.326   6.306
 3399SOL    HW110763   2.046   0.377   6.272
 3399SOL    HW210764   2.116   0.311   6.404
 3400SOL     OW10765   3.056   1.612   5.617
 3400SOL    HW110766   3.062   1.519   5.654
 3400SOL    HW210767   2.997   1.612   5.537
 3401SOL     OW10768   2.684   1.002   6.958
 3401SOL    HW110769   2.724   1.001   6.866
 3401SOL    HW210770   2.694   1.094   6.998
 3402SOL     OW10771   2.778   0.910   5.877
 3402SOL    HW110772   2.841   0.948   5.809
 3402SOL    HW210773   2.818   0.827   5.916
 3403SOL     OW10774   3.366   1.607   5.630
 3403SOL    HW110775   3.274   1.644   5.637
 3403SOL    HW210776   3.404   1.627   5.540
 3404SOL     OW10777   2.234   1.288   7.076
 3404SOL    HW110778   2.221   1.381   7.042
 3404SOL    HW210779   2.150   1.236   7.063
 3405SOL     OW10780   3.476   1.292   6.875
 3405SOL    HW110781   3.536   1.295   6.955
 3405SOL    HW210782   3.401   1.356   6.888
 3406SOL     OW10783   2.901   1.098   6.282
 3406SOL    HW110784   2.831   1.051   6.336
 3406SOL    HW210785   2.960   1.030   6.239
 3407SOL     OW10786   2.876   0.236   6.557
 3407SOL    HW110787   2.868   0.200   6.464
 3407SOL    HW210788   2.874   0.160   6.622
 3408SOL     OW10789   2.452   1.487   6.077
 3408SOL    HW110790   2.494   1.429   6.007
 3408SOL    HW210791   2.408   1.566   6.033
 3409SOL     OW10792   3.571   0.385   6.967
 3409SOL    HW110793   3.644   0.454   6.971
 3409SOL    HW210794   3.599   0.310   6.908
 3410SOL     OW10795   2.117   1.348   5.876
 3410SOL    HW110796   2.021   1.349   5.849
 3410SOL    HW210797   2.129   1.401   5.960
 3411SOL     OW10798   1.967   1.013   7.312
 3411SOL    HW110799   1.890   0.980   7.366
 3411SOL    HW210800   2.052   0.983   7.354
 3412SOL     OW10801   2.534   0.203   7.075
 3412SOL    HW110802   2.624   0.187   7.035
 3412SOL    HW210803   2.542   0.208   7.174
 3413SOL     OW10804   1.937   0.345   5.619
 3413SOL    HW110805   1.845   0.317   5.590
 3413SOL    HW210806   1.968   0.422   5.563
 3414SOL     OW10807   3.302   0.856   6.984
 3414SOL    HW110808   3.245   0.908   6.921
 3414SOL    HW210809   3.398   0.868   6.960
 3415SOL     OW10810   1.934   0.166   5.904
 3415SOL    HW110811   1.917   0.249   5.850
 3415SOL    HW210812   2.024   0.129   5.882
 3416SOL     OW10813   3.045   1.335   5.705
 3416SOL    HW110814   2.946   1.324   5.707
 3416SOL    HW210815   3.079   1.350   5.798
 3417SOL     OW10816   2.475   0.842   7.017
 3417SOL    HW110817   2.531   0.923   7.000
 3417SOL    HW210818   2.534   0.762   7.020
 3418SOL     OW10819   3.355   1.767   6.545
 3418SOL    HW110820   3.388   1.831   6.476
 3418SOL    HW210821   3.421   1.761   6.620
 3419SOL     OW10822   2.578   0.565   7.294
 3419SOL    HW110823   2.597   0.630   7.368
 3419SOL    HW210824   2.638   0.485   7.303
 3420SOL     OW10825   3.312   1.220   7.219
 3420SOL    HW110826   3.303   1.210   7.318
 3420SOL    HW210827   3.408   1.213   7.193
 3421SOL     OW10828   2.252   1.741   7.146
 3421SOL    HW110829   2.161   1.782   7.144
 3421SOL    HW210830   2.245   1.647   7.178
 3422SOL     OW10831   3.536   0.883   6.840
 3422SOL    HW110832   3.509   0.794   6.803
 3422SOL    HW210833   3.537   0.951   6.767
 3423SOL     OW10834   3.087   0.325   6.035
 3423SOL    HW110835   3.152   0.251   6.024
 3423SOL    HW210836   3.107   0.375   6.119
 3424SOL     OW10837   2.456   0.745   6.238
 3424SOL    HW110838   2.506   0.830   6.219
 3424SOL    HW210839   2.368   0.747   6.190
 3425SOL     OW10840   3.639   0.342   7.228
 3425SOL    HW110841   3.622   0.373   7.134
 3425SOL    HW210842   3.555   0.305   7.266
 3426SOL     OW10843   3.592   0.934   7.103
 3426SOL    HW110844   3.630   1.025   7.118
 3426SOL    HW210845   3.584   0.917   7.004
 3427SOL     OW10846   2.721   1.374   5.602
 3427SOL    HW110847   2.675   1.389   5.690
 3427SOL    HW210848   2.765   1.459   5.572
 3428SOL     OW10849   2.523   1.790   6.539
 3428SOL    HW110850   2.477   1.878   6.526
 3428SOL    HW210851   2.622   1.802   6.532
 3429SOL     OW10852   2.721   0.956   6.447
 3429SOL    HW110853   2.775   0.887   6.495
 3429SOL    HW210854   2.689   1.025   6.513
 3430SOL     OW10855   2.945   0.984   5.673
 3430SOL    HW110856   2.922   1.037   5.591
 3430SOL    HW210857   3.026   0.928   5.654
 3431SOL     OW10858   3.723   1.569   6.437
 3431SOL    HW110859   3.652   1.557   6.367
 3431SOL    HW210860   3.724   1.490   6.497
 3432SOL     OW10861   2.083   1.314   7.430
 3432SOL    HW110862   2.018   1.241   7.409
 3432SOL    HW210863   2.087   1.328   7.528
 3433SOL     OW10864   1.941   1.240   6.239
 3433SOL    HW110865   1.940   1.193   6.327
 3433SOL    HW210866   2.023   1.212   6.188
 3434SOL     OW10867   2.534   1.391   7.210
 3434SOL    HW110868   2.456   1.341   7.248
 3434SOL    HW210869   2.531   1.486   7.241
 3435SOL     OW10870   3.686   0.192   6.813
 3435SOL    HW110871   3.682   0.102   6.857
 3435SOL    HW210872   3.689   0.181   6.714
 3436SOL     OW10873   2.290   0.424   6.106
 3436SOL    HW110874   2.320   0.352   6.044
 3436SOL    HW210875   2.251   0.384   6.189
 3437SOL     OW10876   3.567   1.487   6.690
 3437SOL    HW110877   3.474   1.462   6.663
 3437SOL    HW210878   3.593   1.437   6.772
 3438SOL     OW10879   2.179   0.547   6.866
 3438SOL    HW110880   2.217   0.488   6.938
 3438SOL    HW210881   2.219   0.521   6.778
 3439SOL     OW10882   2.674   1.586   6.273
 3439SOL    HW110883   2.706   1.596   6.179
 3439SOL    HW210884   2.595   1.524   6.275
 3440SOL     OW10885   3.286   0.214   6.698
 3440SOL    HW110886   3.338   0.149   6.753
 3440SOL    HW210887   3.237   0.277   6.759
 3441SOL     OW10888   2.863   0.034   6.740
 3441SOL    HW110889   2.800  -0.038   6.709
 3441SOL    HW210890   2.956  -0.002   6.740
 3442SOL     OW10891   2.632   1.330   5.887
 3442SOL    HW110892   2.586   1.243   5.904
 3442SOL    HW210893   2.723   1.327   5.928
 3443SOL     OW10894   2.480   1.567   6.870
 3443SOL    HW110895   2.475   1.649   6.927
 3443SOL    HW210896   2.569   1.564   6.825
 3444SOL     OW10897   3.214   0.052   5.754
 3444SOL    HW110898   3.249   0.011   5.670
 3444SOL    HW210899   3.124   0.014   5.774
 3445SOL     OW10900   3.162   0.453   6.277
 3445SOL    HW110901   3.103   0.533   6.281
 3445SOL    HW210902   3.177   0.418   6.370
 3446SOL     OW10903   3.455   0.221   6.468
 3446SOL    HW110904   3.371   0.220   6.522
 3446SOL    HW210905   3.457   0.304   6.412
 3447SOL     OW10906   1.901   1.077   5.886
 3447SOL    HW110907   2.000   1.066   5.877
 3447SOL    HW210908   1.861   0.991   5.918
 3448SOL     OW10909   2.737   1.646   5.923
 3448SOL    HW110910   2.660   1.611   5.869
 3448SOL    HW210911   2.705   1.717   5.985
 3449SOL     OW10912   2.092   0.628   7.561
 3449SOL    HW110913   1.999   0.626   7.598
 3449SOL    HW210914   2.093   0.589   7.469
 3450SOL     OW10915   3.617   0.607   7.679
 3450SOL    HW110916   3.605   0.594   7.580
 3450SOL    HW210917   3.587   0.526   7.728
 3451SOL     OW10918   2.093   1.713   7.931
 3451SOL    HW110919   2.127   1.790   7.985
 3451SOL    HW210920   2.137   1.713   7.841
 3452SOL     OW10921   2.092   1.434   7.986
 3452SOL    HW110922   2.066   1.530   7.986
 3452SOL    HW210923   2.021   1.380   8.031
 3453SOL     OW10924   2.468   0.964   7.571
 3453SOL    HW110925   2.475   1.048   7.517
 3453SOL    HW210926   2.514   0.977   7.659
 3454SOL     OW10927   3.704   1.767   7.807
 3454SOL    HW110928   3.758   1.738   7.887
 3454SOL    HW210929   3.734   1.857   7.778
 3455SOL     OW10930   1.889   1.596   7.565
 3455SOL    HW110931   1.870   1.500   7.586
 3455SOL    HW210932   1.856   1.654   7.640
 3456SOL     OW10933   3.551   0.922   8.060
 3456SOL    HW110934   3.646   0.893   8.068
 3456SOL    HW210935   3.543   0.987   7.985
 3457SOL     OW10936   3.503   1.108   7.880
 3457SOL    HW110937   3.589   1.110   7.828
 3457SOL    HW210938   3.517   1.155   7.968
 3458SOL     OW10939   2.671   0.004   7.950
 3458SOL    HW110940   2.711   0.095   7.941
 3458SOL    HW210941   2.571   0.012   7.956
 3459SOL     OW10942   3.387   0.999   7.638
 3459SOL    HW110943   3.324   0.923   7.651
 3459SOL    HW210944   3.435   1.017   7.724
 3460SOL     OW10945   2.460   0.729   7.718
 3460SOL    HW110946   2.484   0.798   7.650
 3460SOL    HW210947   2.382   0.762   7.772
 3461SOL     OW10948   3.438   1.662   7.755
 3461SOL    HW110949   3.527   1.708   7.758
 3461SOL    HW210950   3.417   1.638   7.660
 3462SOL     OW10951   1.938   0.811   8.237
 3462SOL    HW110952   2.037   0.799   8.246
 3462SOL    HW210953   1.914   0.906   8.258
 3463SOL     OW10954   2.727   0.348   7.643
 3463SOL    HW110955   2.786   0.411   7.594
 3463SOL    HW210956   2.746   0.254   7.614
 3464SOL     OW10957   2.183   0.943   7.690
 3464SOL    HW110958   2.265   0.982   7.648
 3464SOL    HW210959   2.156   0.861   7.641
 3465SOL     OW10960   2.973   1.776   7.685
 3465SOL    HW110961   2.913   1.714   7.735
 3465SOL    HW210962   3.004   1.732   7.600
 3466SOL     OW10963   3.494   1.377   7.529
 3466SOL    HW110964   3.462   1.471   7.519
 3466SOL    HW210965   3.418   1.314   7.517
 3467SOL     OW10966   2.326   1.743   7.771
 3467SOL    HW110967   2.359   1.782   7.857
 3467SOL    HW210968   2.402   1.736   7.706
 3468SOL     OW10969   3.262   0.107   7.874
 3468SOL    HW110970   3.238   0.070   7.784
 3468SOL    HW210971   3.361   0.123   7.878
 3469SOL     OW10972   2.244   0.700   7.928
 3469SOL    HW110973   2.289   0.610   7.925
 3469SOL    HW210974   2.150   0.689   7.961
 3470SOL     OW10975   2.476   0.122   7.565
 3470SOL    HW110976   2.574   0.100   7.572
 3470SOL    HW210977   2.445   0.105   7.472
 3471SOL     OW10978   2.401   0.064   7.960
 3471SOL    HW110979   2.320   0.065   8.018
 3471SOL    HW210980   2.404   0.147   7.905
 3472SOL     OW10981   3.296   1.188   7.489
 3472SOL    HW110982   3.328   1.112   7.546
 3472SOL    HW210983   3.204   1.215   7.519
 3473SOL     OW10984   2.159   0.035   7.619
 3473SOL    HW110985   2.208   0.119   7.598
 3473SOL    HW210986   2.221  -0.030   7.664
 3474SOL     OW10987   2.797   0.236   7.928
 3474SOL    HW110988   2.749   0.277   7.850
 3474SOL    HW210989   2.896   0.234   7.909
 3475SOL     OW10990   2.321   1.152   8.189
 3475SOL    HW110991   2.250   1.125   8.254
 3475SOL    HW210992   2.295   1.124   8.096
 3476SOL     OW10993   3.133   1.797   8.039
 3476SOL    HW110994   3.177   1.861   7.975
 3476SOL    HW210995   3.083   1.849   8.109
 3477SOL     OW10996   2.894   0.549   7.464
 3477SOL    HW110997   2.853   0.631   7.425
 3477SOL    HW210998   2.958   0.575   7.537
 3478SOL     OW10999   3.719   0.833   7.825
 3478SOL    HW111000   3.761   0.769   7.889
 3478SOL    HW211001   3.681   0.782   7.747
 3479SOL     OW11002   2.350   1.385   7.622
 3479SOL    HW111003   2.263   1.370   7.669
 3479SOL    HW211004   2.333   1.411   7.527
 3480SOL     OW11005   3.252   0.575   7.526
 3480SOL    HW111006   3.198   0.554   7.607
 3480SOL    HW211007   3.343   0.534   7.535
 3481SOL     OW11008   2.389   0.256   7.776
 3481SOL    HW111009   2.416   0.197   7.701
 3481SOL    HW211010   2.389   0.351   7.745
 3482SOL     OW11011   2.567   1.050   7.816
 3482SOL    HW111012   2.553   1.057   7.915
 3482SOL    HW211013   2.651   0.999   7.798
 3483SOL     OW11014   2.229   1.100   7.949
 3483SOL    HW111015   2.222   1.183   7.893
 3483SOL    HW211016   2.233   1.020   7.889
 3484SOL     OW11017   3.114   1.348   7.836
 3484SOL    HW111018   3.164   1.425   7.876
 3484SOL    HW211019   3.019   1.350   7.868
 3485SOL     OW11020   3.444   0.639   7.920
 3485SOL    HW111021   3.413   0.700   7.993
 3485SOL    HW211022   3.494   0.691   7.851
 3486SOL     OW11023   3.071   0.525   7.723
 3486SOL    HW111024   3.084   0.441   7.777
 3486SOL    HW211025   3.042   0.599   7.783
 3487SOL     OW11026   3.484   0.367   7.822
 3487SOL    HW111027   3.486   0.291   7.886
 3487SOL    HW211028   3.436   0.444   7.862
 3488SOL     OW11029   3.402   0.274   7.573
 3488SOL    HW111030   3.341   0.199   7.596
 3488SOL    HW211031   3.424   0.326   7.656
 3489SOL     OW11032   3.165   0.838   7.490
 3489SOL    HW111033   3.199   0.745   7.505
 3489SOL    HW211034   3.183   0.865   7.395
 3490SOL     OW11035   1.870   1.326   7.648
 3490SOL    HW111036   1.777   1.347   7.617
 3490SOL    HW211037   1.880   1.227   7.661
 3491SOL     OW11038   2.677   0.572   7.773
 3491SOL    HW111039   2.684   0.483   7.727
 3491SOL    HW211040   2.583   0.606   7.765
 3492SOL     OW11041   2.335   0.500   7.639
 3492SOL    HW111042   2.396   0.580   7.643
 3492SOL    HW211043   2.240   0.531   7.646
 3493SOL     OW11044   3.164   0.855   7.757
 3493SOL    HW111045   3.078   0.824   7.799
 3493SOL    HW211046   3.160   0.841   7.658
 3494SOL     OW11047   3.588   0.135   7.971
 3494SOL    HW111048   3.661   0.118   7.904
 3494SOL    HW211049   3.557   0.048   8.009
 3495SOL     OW11050   3.250   1.573   7.925
 3495SOL    HW111051   3.317   1.585   7.851
 3495SOL    HW211052   3.210   1.662   7.948
 3496SOL     OW11053   2.534   1.616   7.602
 3496SOL    HW111054   2.543   1.626   7.503
 3496SOL    HW211055   2.494   1.527   7.623
 3497SOL     OW11056   3.056   1.612   7.479
 3497SOL    HW111057   3.062   1.519   7.516
 3497SOL    HW211058   2.997   1.612   7.399
 3498SOL     OW11059   2.778   0.910   7.739
 3498SOL    HW111060   2.841   0.948   7.671
 3498SOL    HW211061   2.818   0.827   7.778
 3499SOL     OW11062   3.366   1.607   7.492
 3499SOL    HW111063   3.274   1.644   7.499
 3499SOL    HW211064   3.404   1.627   7.402
 3500SOL     OW11065   2.452   1.487   7.939
 3500SOL    HW111066   2.494   1.429   7.869
 3500SOL    HW211067   2.408   1.566   7.895
 3501SOL     OW11068   2.117   1.348   7.738
 3501SOL    HW111069   2.021   1.349   7.711
 3501SOL    HW211070   2.129   1.401   7.822
 3502SOL     OW11071   1.937   0.345   7.481
 3502SOL    HW111072   1.845   0.317   7.452
 3502SOL    HW211073   1.968   0.422   7.425
 3503SOL     OW11074   1.934   0.166   7.766
 3503SOL    HW111075   1.917   0.249   7.712
 3503SOL    HW211076   2.024   0.129   7.744
 3504SOL     OW11077   3.045   1.335   7.567
 3504SOL    HW111078   2.946   1.324   7.569
 3504SOL    HW211079   3.079   1.350   7.660
 3505SOL     OW11080   3.087   0.325   7.897
 3505SOL    HW111081   3.152   0.251   7.886
 3505SOL    HW211082   3.107   0.375   7.981
 3506SOL     OW11083   2.456   0.745   8.100
 3506SOL    HW111084   2.506   0.830   8.081
 3506SOL    HW211085   2.368   0.747   8.052
 3507SOL     OW11086   2.721   1.374   7.464
 3507SOL    HW111087   2.675   1.389   7.552
 3507SOL    HW211088   2.765   1.459   7.434
 3508SOL     OW11089   2.945   0.984   7.535
 3508SOL    HW111090   2.922   1.037   7.453
 3508SOL    HW211091   3.026   0.928   7.516
 3509SOL     OW11092   2.290   0.424   7.968
 3509SOL    HW111093   2.320   0.352   7.906
 3509SOL    HW211094   2.251   0.384   8.051
 3510SOL     OW11095   2.632   1.330   7.749
 3510SOL    HW111096   2.586   1.243   7.766
 3510SOL    HW211097   2.723   1.327   7.790
 3511SOL     OW11098   3.214   0.052   7.616
 3511SOL    HW111099   3.249   0.011   7.532
 3511SOL    HW211100   3.124   0.014   7.636
 3512SOL     OW11101   1.901   1.077   7.748
 3512SOL    HW111102   2.000   1.066   7.739
 3512SOL    HW211103   1.861   0.991   7.780
 3513SOL     OW11104   2.737   1.646   7.785
 3513SOL    HW111105   2.660   1.611   7.731
 3513SOL    HW211106   2.705   1.717   7.847
 3514SOL     OW11107   2.092   2.490   0.113
 3514SOL    HW111108   1.999   2.488   0.150
 3514SOL    HW211109   2.093   2.451   0.021
 3515SOL     OW11110   2.087   2.137   0.996
 3515SOL    HW111111   2.122   2.120   1.088
 3515SOL    HW211112   1.999   2.092   0.984
 3516SOL     OW11113   1.881   2.230   0.647
 3516SOL    HW111114   1.799   2.273   0.686
 3516SOL    HW211115   1.853   2.157   0.584
 3517SOL     OW11116   2.431   3.137   1.165
 3517SOL    HW111117   2.338   3.130   1.128
 3517SOL    HW211118   2.442   3.226   1.209
 3518SOL     OW11119   3.417   3.373   0.703
 3518SOL    HW111120   3.360   3.357   0.784
 3518SOL    HW211121   3.358   3.383   0.623
 3519SOL     OW11122   2.997   2.565   0.717
 3519SOL    HW111123   3.054   2.643   0.692
 3519SOL    HW211124   2.937   2.591   0.793
 3520SOL     OW11125   3.617   2.469   0.231
 3520SOL    HW111126   3.605   2.456   0.132
 3520SOL    HW211127   3.587   2.388   0.280
 3521SOL     OW11128   2.630   3.006   1.023
 3521SOL    HW111129   2.552   3.023   1.083
 3521SOL    HW211130   2.664   3.093   0.987
 3522SOL     OW11131   2.548   3.023   1.803
 3522SOL    HW111132   2.608   3.102   1.817
 3522SOL    HW211133   2.462   3.054   1.762
 3523SOL     OW11134   2.197   3.297   1.061
 3523SOL    HW111135   2.119   3.266   1.008
 3523SOL    HW211136   2.255   3.355   1.004
 3524SOL     OW11137   3.322   3.367   1.339
 3524SOL    HW111138   3.346   3.461   1.365
 3524SOL    HW211139   3.306   3.313   1.421
 3525SOL     OW11140   2.300   2.254   1.499
 3525SOL    HW111141   2.382   2.198   1.508
 3525SOL    HW211142   2.219   2.196   1.503
 3526SOL     OW11143   3.465   2.309   0.737
 3526SOL    HW111144   3.391   2.355   0.687
 3526SOL    HW211145   3.516   2.377   0.790
 3527SOL     OW11146   2.093   3.575   0.483
 3527SOL    HW111147   2.127   3.652   0.537
 3527SOL    HW211148   2.137   3.575   0.393
 3528SOL     OW11149   2.989   3.203   1.690
 3528SOL    HW111150   3.036   3.203   1.778
 3528SOL    HW211151   2.941   3.116   1.679
 3529SOL     OW11152   2.092   3.296   0.538
 3529SOL    HW111153   2.066   3.392   0.538
 3529SOL    HW211154   2.021   3.242   0.583
 3530SOL     OW11155   2.102   2.953   0.886
 3530SOL    HW111156   2.116   2.869   0.938
 3530SOL    HW211157   2.047   3.017   0.941
 3531SOL     OW11158   2.482   3.648   1.439
 3531SOL    HW111159   2.390   3.631   1.474
 3531SOL    HW211160   2.510   3.740   1.465
 3532SOL     OW11161   2.468   2.826   0.123
 3532SOL    HW111162   2.475   2.910   0.069
 3532SOL    HW211163   2.514   2.839   0.211
 3533SOL     OW11164   3.456   1.976   1.480
 3533SOL    HW111165   3.438   2.043   1.408
 3533SOL    HW211166   3.453   2.022   1.569
 3534SOL     OW11167   1.984   2.505   0.563
 3534SOL    HW111168   1.939   2.417   0.580
 3534SOL    HW211169   1.983   2.559   0.647
 3535SOL     OW11170   3.704   3.629   0.359
 3535SOL    HW111171   3.758   3.600   0.439
 3535SOL    HW211172   3.734   3.719   0.330
 3536SOL     OW11173   1.889   3.458   0.117
 3536SOL    HW111174   1.870   3.362   0.138
 3536SOL    HW211175   1.856   3.516   0.192
 3537SOL     OW11176   3.551   2.784   0.612
 3537SOL    HW111177   3.646   2.755   0.620
 3537SOL    HW211178   3.543   2.849   0.537
 3538SOL     OW11179   3.503   2.970   0.432
 3538SOL    HW111180   3.589   2.972   0.380
 3538SOL    HW211181   3.517   3.017   0.520
 3539SOL     OW11182   1.975   2.599   1.597
 3539SOL    HW111183   2.063   2.586   1.642
 3539SOL    HW211184   1.962   2.696   1.575
 3540SOL     OW11185   2.475   3.227   0.726
 3540SOL    HW111186   2.426   3.140   0.735
 3540SOL    HW211187   2.452   3.270   0.639
 3541SOL     OW11188   3.155   3.090   1.423
 3541SOL    HW111189   3.192   3.017   1.365
 3541SOL    HW211190   3.207   3.095   1.508
 3542SOL     OW11191   2.671   1.866   0.502
 3542SOL    HW111192   2.711   1.957   0.493
 3542SOL    HW211193   2.571   1.874   0.508
 3543SOL     OW11194   2.059   2.838   1.264
 3543SOL    HW111195   2.148   2.793   1.250
 3543SOL    HW211196   1.986   2.773   1.245
 3544SOL     OW11197   3.387   2.861   0.190
 3544SOL    HW111198   3.324   2.785   0.203
 3544SOL    HW211199   3.435   2.879   0.276
 3545SOL     OW11200   3.049   3.654   1.616
 3545SOL    HW111201   3.073   3.714   1.540
 3545SOL    HW211202   3.056   3.559   1.586
 3546SOL     OW11203   2.179   2.113   1.801
 3546SOL    HW111204   2.250   2.184   1.807
 3546SOL    HW211205   2.091   2.152   1.829
 3547SOL     OW11206   3.328   3.279   0.953
 3547SOL    HW111207   3.269   3.285   1.033
 3547SOL    HW211208   3.313   3.191   0.907
 3548SOL     OW11209   3.529   3.576   0.572
 3548SOL    HW111210   3.488   3.553   0.484
 3548SOL    HW211211   3.511   3.502   0.637
 3549SOL     OW11212   3.143   2.207   0.944
 3549SOL    HW111213   3.057   2.157   0.931
 3549SOL    HW211214   3.205   2.153   1.000
 3550SOL     OW11215   3.438   3.524   0.307
 3550SOL    HW111216   3.527   3.570   0.310
 3550SOL    HW211217   3.417   3.500   0.212
 3551SOL     OW11218   3.256   2.331   1.674
 3551SOL    HW111219   3.236   2.374   1.762
 3551SOL    HW211220   3.334   2.269   1.683
 3552SOL     OW11221   2.853   2.272   1.242
 3552SOL    HW111222   2.776   2.306   1.296
 3552SOL    HW211223   2.819   2.221   1.163
 3553SOL     OW11224   1.938   2.673   0.789
 3553SOL    HW111225   2.037   2.661   0.798
 3553SOL    HW211226   1.914   2.768   0.810
 3554SOL     OW11227   1.992   3.683   1.571
 3554SOL    HW111228   1.982   3.668   1.670
 3554SOL    HW211229   1.906   3.719   1.535
 3555SOL     OW11230   2.727   2.210   0.195
 3555SOL    HW111231   2.786   2.273   0.146
 3555SOL    HW211232   2.746   2.116   0.166
 3556SOL     OW11233   3.581   2.447   1.831
 3556SOL    HW111234   3.555   2.536   1.795
 3556SOL    HW211235   3.579   2.379   1.758
 3557SOL     OW11236   3.224   3.006   0.545
 3557SOL    HW111237   3.307   2.977   0.497
 3557SOL    HW211238   3.175   3.073   0.489
 3558SOL     OW11239   2.412   2.058   0.885
 3558SOL    HW111240   2.407   2.053   0.985
 3558SOL    HW211241   2.414   2.154   0.856
 3559SOL     OW11242   2.870   3.318   0.477
 3559SOL    HW111243   2.824   3.390   0.425
 3559SOL    HW211244   2.866   3.338   0.575
 3560SOL     OW11245   2.213   3.663   0.853
 3560SOL    HW111246   2.263   3.577   0.859
 3560SOL    HW211247   2.278   3.740   0.850
 3561SOL     OW11248   3.657   2.928   0.873
 3561SOL    HW111249   3.595   2.913   0.797
 3561SOL    HW211250   3.605   2.939   0.958
 3562SOL     OW11251   3.089   3.412   1.506
 3562SOL    HW111252   3.095   3.335   1.570
 3562SOL    HW211253   3.037   3.386   1.426
 3563SOL     OW11254   2.183   2.805   0.242
 3563SOL    HW111255   2.265   2.844   0.200
 3563SOL    HW211256   2.156   2.723   0.193
 3564SOL     OW11257   3.320   2.597   0.728
 3564SOL    HW111258   3.315   2.532   0.803
 3564SOL    HW211259   3.400   2.656   0.741
 3565SOL     OW11260   2.323   3.128   1.727
 3565SOL    HW111261   2.273   3.129   1.641
 3565SOL    HW211262   2.260   3.110   1.803
 3566SOL     OW11263   2.973   3.638   0.237
 3566SOL    HW111264   2.913   3.576   0.287
 3566SOL    HW211265   3.004   3.594   0.152
 3567SOL     OW11266   2.064   2.147   1.498
 3567SOL    HW111267   1.984   2.207   1.485
 3567SOL    HW211268   2.054   2.098   1.584
 3568SOL     OW11269   3.494   3.239   0.081
 3568SOL    HW111270   3.462   3.333   0.071
 3568SOL    HW211271   3.418   3.176   0.069
 3569SOL     OW11272   2.326   3.605   0.323
 3569SOL    HW111273   2.359   3.644   0.409
 3569SOL    HW211274   2.402   3.598   0.258
 3570SOL     OW11275   3.262   1.969   0.426
 3570SOL    HW111276   3.238   1.932   0.336
 3570SOL    HW211277   3.361   1.985   0.430
 3571SOL     OW11278   2.111   3.647   1.241
 3571SOL    HW111279   2.168   3.582   1.291
 3571SOL    HW211280   2.095   3.614   1.148
 3572SOL     OW11281   2.802   3.560   0.904
 3572SOL    HW111282   2.882   3.503   0.925
 3572SOL    HW211283   2.753   3.520   0.827
 3573SOL     OW11284   2.244   2.562   0.480
 3573SOL    HW111285   2.289   2.472   0.477
 3573SOL    HW211286   2.150   2.551   0.513
 3574SOL     OW11287   3.409   2.084   1.729
 3574SOL    HW111288   3.404   2.121   1.821
 3574SOL    HW211289   3.337   2.015   1.717
 3575SOL     OW11290   2.476   1.984   0.117
 3575SOL    HW111291   2.574   1.962   0.124
 3575SOL    HW211292   2.445   1.967   0.024
 3576SOL     OW11293   2.643   2.126   1.749
 3576SOL    HW111294   2.710   2.065   1.792
 3576SOL    HW211295   2.570   2.145   1.814
 3577SOL     OW11296   2.750   3.376   1.195
 3577SOL    HW111297   2.727   3.351   1.101
 3577SOL    HW211298   2.811   3.307   1.234
 3578SOL     OW11299   3.213   2.452   1.433
 3578SOL    HW111300   3.241   2.409   1.518
 3578SOL    HW211301   3.238   2.548   1.434
 3579SOL     OW11302   2.665   3.264   0.924
 3579SOL    HW111303   2.755   3.278   0.882
 3579SOL    HW211304   2.594   3.266   0.853
 3580SOL     OW11305   2.784   2.365   0.899
 3580SOL    HW111306   2.759   2.356   0.803
 3580SOL    HW211307   2.832   2.283   0.930
 3581SOL     OW11308   2.401   1.926   0.512
 3581SOL    HW111309   2.320   1.927   0.570
 3581SOL    HW211310   2.404   2.009   0.457
 3582SOL     OW11311   3.296   3.050   0.041
 3582SOL    HW111312   3.328   2.974   0.098
 3582SOL    HW211313   3.204   3.077   0.071
 3583SOL     OW11314   2.159   1.897   0.171
 3583SOL    HW111315   2.208   1.981   0.150
 3583SOL    HW211316   2.221   1.832   0.216
 3584SOL     OW11317   2.797   2.098   0.480
 3584SOL    HW111318   2.749   2.139   0.402
 3584SOL    HW211319   2.896   2.096   0.461
 3585SOL     OW11320   2.938   2.545   1.464
 3585SOL    HW111321   2.858   2.484   1.467
 3585SOL    HW211322   3.019   2.492   1.440
 3586SOL     OW11323   3.089   3.432   0.793
 3586SOL    HW111324   3.110   3.506   0.728
 3586SOL    HW211325   3.157   3.432   0.866
 3587SOL     OW11326   2.321   3.014   0.741
 3587SOL    HW111327   2.250   2.987   0.806
 3587SOL    HW211328   2.295   2.986   0.648
 3588SOL     OW11329   3.133   3.659   0.591
 3588SOL    HW111330   3.177   3.723   0.527
 3588SOL    HW211331   3.083   3.711   0.661
 3589SOL     OW11332   2.894   2.411   0.016
 3589SOL    HW111333   2.853   2.493  -0.023
 3589SOL    HW211334   2.958   2.437   0.089
 3590SOL     OW11335   1.940   2.418   1.386
 3590SOL    HW111336   2.032   2.417   1.345
 3590SOL    HW211337   1.934   2.492   1.453
 3591SOL     OW11338   2.423   2.084   1.147
 3591SOL    HW111339   2.461   2.000   1.184
 3591SOL    HW211340   2.335   2.103   1.191
 3592SOL     OW11341   2.728   2.316   0.642
 3592SOL    HW111342   2.696   2.388   0.580
 3592SOL    HW211343   2.752   2.235   0.589
 3593SOL     OW11344   2.879   1.901   0.753
 3593SOL    HW111345   2.807   1.906   0.684
 3593SOL    HW211346   2.855   1.832   0.822
 3594SOL     OW11347   3.291   3.035   0.867
 3594SOL    HW111348   3.236   2.951   0.860
 3594SOL    HW211349   3.317   3.064   0.775
 3595SOL     OW11350   3.328   2.452   0.992
 3595SOL    HW111351   3.298   2.357   0.999
 3595SOL    HW211352   3.401   2.468   1.058
 3596SOL     OW11353   3.719   2.695   0.377
 3596SOL    HW111354   3.761   2.631   0.441
 3596SOL    HW211355   3.681   2.644   0.299
 3597SOL     OW11356   2.350   3.247   0.174
 3597SOL    HW111357   2.263   3.232   0.221
 3597SOL    HW211358   2.333   3.273   0.079
 3598SOL     OW11359   3.526   3.142   0.657
 3598SOL    HW111360   3.625   3.150   0.671
 3598SOL    HW211361   3.481   3.226   0.688
 3599SOL     OW11362   3.252   2.437   0.078
 3599SOL    HW111363   3.198   2.416   0.159
 3599SOL    HW211364   3.343   2.396   0.087
 3600SOL     OW11365   2.389   2.118   0.328
 3600SOL    HW111366   2.416   2.059   0.253
 3600SOL    HW211367   2.389   2.213   0.297
 3601SOL     OW11368   3.616   3.085   1.588
 3601SOL    HW111369   3.707   3.046   1.575
 3601SOL    HW211370   3.624   3.181   1.612
 3602SOL     OW11371   2.926   3.209   1.340
 3602SOL    HW111372   2.846   3.186   1.395
 3602SOL    HW211373   3.009   3.183   1.389
 3603SOL     OW11374   3.454   3.491   1.625
 3603SOL    HW111375   3.481   3.525   1.535
 3603SOL    HW211376   3.533   3.453   1.671
 3604SOL     OW11377   2.973   3.057   1.100
 3604SOL    HW111378   2.933   3.101   1.181
 3604SOL    HW211379   2.932   3.094   1.017
 3605SOL     OW11380   3.500   2.961   1.079
 3605SOL    HW111381   3.505   3.042   1.138
 3605SOL    HW211382   3.414   2.963   1.028
 3606SOL     OW11383   2.777   1.951   1.402
 3606SOL    HW111384   2.802   1.931   1.307
 3606SOL    HW211385   2.849   2.007   1.444
 3607SOL     OW11386   2.842   2.978   1.719
 3607SOL    HW111387   2.743   2.984   1.729
 3607SOL    HW211388   2.865   2.898   1.663
 3608SOL     OW11389   2.567   2.912   0.368
 3608SOL    HW111390   2.553   2.919   0.467
 3608SOL    HW211391   2.651   2.861   0.350
 3609SOL     OW11392   2.272   2.675   1.251
 3609SOL    HW111393   2.358   2.687   1.301
 3609SOL    HW211394   2.230   2.588   1.278
 3610SOL     OW11395   3.136   2.248   1.262
 3610SOL    HW111396   3.157   2.322   1.326
 3610SOL    HW211397   3.047   2.265   1.219
 3611SOL     OW11398   1.926   3.426   1.331
 3611SOL    HW111399   1.880   3.508   1.297
 3611SOL    HW211400   2.024   3.445   1.340
 3612SOL     OW11401   2.229   2.962   0.501
 3612SOL    HW111402   2.222   3.045   0.445
 3612SOL    HW211403   2.233   2.882   0.441
 3613SOL     OW11404   2.428   2.399   0.865
 3613SOL    HW111405   2.440   2.465   0.791
 3613SOL    HW211406   2.474   2.433   0.948
 3614SOL     OW11407   3.114   3.210   0.388
 3614SOL    HW111408   3.164   3.287   0.428
 3614SOL    HW211409   3.019   3.212   0.420
 3615SOL     OW11410   3.134   3.307   1.142
 3615SOL    HW111411   3.181   3.320   1.229
 3615SOL    HW211412   3.068   3.233   1.151
 3616SOL     OW11413   3.444   2.501   0.472
 3616SOL    HW111414   3.413   2.562   0.545
 3616SOL    HW211415   3.494   2.553   0.403
 3617SOL     OW11416   2.216   3.372   1.329
 3617SOL    HW111417   2.195   3.328   1.242
 3617SOL    HW211418   2.313   3.398   1.332
 3618SOL     OW11419   2.264   2.613   1.598
 3618SOL    HW111420   2.332   2.668   1.551
 3618SOL    HW211421   2.304   2.525   1.625
 3619SOL     OW11422   3.449   2.641   1.670
 3619SOL    HW111423   3.357   2.679   1.665
 3619SOL    HW211424   3.509   2.688   1.605
 3620SOL     OW11425   2.875   1.967   1.770
 3620SOL    HW111426   2.881   2.052   1.718
 3620SOL    HW211427   2.907   1.891   1.713
 3621SOL     OW11428   2.366   1.912   1.740
 3621SOL    HW111429   2.324   1.855   1.670
 3621SOL    HW211430   2.300   1.981   1.772
 3622SOL     OW11431   3.222   2.724   1.045
 3622SOL    HW111432   3.147   2.724   0.979
 3622SOL    HW211433   3.259   2.632   1.054
 3623SOL     OW11434   3.071   2.387   0.275
 3623SOL    HW111435   3.084   2.303   0.329
 3623SOL    HW211436   3.042   2.461   0.335
 3624SOL     OW11437   2.169   2.075   1.231
 3624SOL    HW111438   2.146   2.112   1.321
 3624SOL    HW211439   2.139   1.980   1.225
 3625SOL     OW11440   1.899   3.172   1.282
 3625SOL    HW111441   1.952   3.123   1.350
 3625SOL    HW211442   1.921   3.270   1.287
 3626SOL     OW11443   3.590   2.797   1.854
 3626SOL    HW111444   3.544   2.790   1.765
 3626SOL    HW211445   3.528   2.841   1.920
 3627SOL     OW11446   2.169   1.925   0.618
 3627SOL    HW111447   2.158   2.019   0.651
 3627SOL    HW211448   2.164   1.862   0.695
 3628SOL     OW11449   3.484   2.229   0.374
 3628SOL    HW111450   3.486   2.153   0.438
 3628SOL    HW211451   3.436   2.306   0.414
 3629SOL     OW11452   2.842   3.435   1.700
 3629SOL    HW111453   2.822   3.479   1.612
 3629SOL    HW211454   2.881   3.344   1.684
 3630SOL     OW11455   3.721   3.380   1.605
 3630SOL    HW111456   3.735   3.407   1.510
 3630SOL    HW211457   3.804   3.402   1.658
 3631SOL     OW11458   2.212   2.760   1.804
 3631SOL    HW111459   2.288   2.804   1.852
 3631SOL    HW211460   2.247   2.713   1.722
 3632SOL     OW11461   3.402   2.136   0.125
 3632SOL    HW111462   3.341   2.061   0.148
 3632SOL    HW211463   3.424   2.188   0.208
 3633SOL     OW11464   3.165   2.700   0.042
 3633SOL    HW111465   3.199   2.607   0.057
 3633SOL    HW211466   3.183   2.727  -0.053
 3634SOL     OW11467   2.930   3.195   0.849
 3634SOL    HW111468   2.937   3.111   0.794
 3634SOL    HW211469   2.992   3.264   0.813
 3635SOL     OW11470   2.181   2.672   0.949
 3635SOL    HW111471   2.274   2.708   0.954
 3635SOL    HW211472   2.175   2.587   1.001
 3636SOL     OW11473   2.201   2.371   1.006
 3636SOL    HW111474   2.149   2.288   0.989
 3636SOL    HW211475   2.278   2.376   0.942
 3637SOL     OW11476   3.000   2.242   1.678
 3637SOL    HW111477   2.955   2.305   1.742
 3637SOL    HW211478   3.093   2.273   1.661
 3638SOL     OW11479   3.022   2.069   1.477
 3638SOL    HW111480   3.022   2.133   1.554
 3638SOL    HW211481   3.050   2.117   1.394
 3639SOL     OW11482   1.870   3.188   0.200
 3639SOL    HW111483   1.777   3.209   0.169
 3639SOL    HW211484   1.880   3.089   0.213
 3640SOL     OW11485   1.950   3.663   0.927
 3640SOL    HW111486   1.908   3.577   0.900
 3640SOL    HW211487   2.044   3.666   0.893
 3641SOL     OW11488   2.366   3.430   0.910
 3641SOL    HW111489   2.432   3.504   0.919
 3641SOL    HW211490   2.410   3.351   0.868
 3642SOL     OW11491   1.902   2.406   1.114
 3642SOL    HW111492   1.987   2.373   1.073
 3642SOL    HW211493   1.915   2.421   1.212
 3643SOL     OW11494   2.051   2.382   1.722
 3643SOL    HW111495   2.110   2.342   1.652
 3643SOL    HW211496   1.993   2.453   1.681
 3644SOL     OW11497   3.231   2.812   1.660
 3644SOL    HW111498   3.270   2.901   1.680
 3644SOL    HW211499   3.241   2.792   1.563
 3645SOL     OW11500   3.519   2.466   1.206
 3645SOL    HW111501   3.481   2.397   1.268
 3645SOL    HW211502   3.601   2.430   1.162
 3646SOL     OW11503   2.114   3.426   1.744
 3646SOL    HW111504   2.084   3.483   1.820
 3646SOL    HW211505   2.107   3.329   1.770
 3647SOL     OW11506   2.533   2.326   1.269
 3647SOL    HW111507   2.499   2.237   1.239
 3647SOL    HW211508   2.559   2.380   1.189
 3648SOL     OW11509   2.792   3.540   1.465
 3648SOL    HW111510   2.768   3.522   1.370
 3648SOL    HW211511   2.822   3.634   1.475
 3649SOL     OW11512   2.335   2.362   0.191
 3649SOL    HW111513   2.396   2.442   0.195
 3649SOL    HW211514   2.240   2.393   0.198
 3650SOL     OW11515   2.021   2.999   1.466
 3650SOL    HW111516   2.043   2.938   1.542
 3650SOL    HW211517   2.031   2.950   1.380
 3651SOL     OW11518   3.209   2.921   1.234
 3651SOL    HW111519   3.233   2.858   1.160
 3651SOL    HW211520   3.119   2.961   1.216
 3652SOL     OW11521   3.164   2.717   0.309
 3652SOL    HW111522   3.078   2.686   0.351
 3652SOL    HW211523   3.160   2.703   0.210
 3653SOL     OW11524   3.621   3.609   1.154
 3653SOL    HW111525   3.682   3.639   1.081
 3653SOL    HW211526   3.583   3.520   1.132
 3654SOL     OW11527   3.114   3.593   1.128
 3654SOL    HW111528   3.198   3.598   1.074
 3654SOL    HW211529   3.091   3.497   1.146
 3655SOL     OW11530   1.945   3.120   1.022
 3655SOL    HW111531   1.940   3.119   1.122
 3655SOL    HW211532   1.862   3.079   0.984
 3656SOL     OW11533   2.550   3.524   1.716
 3656SOL    HW111534   2.494   3.605   1.725
 3656SOL    HW211535   2.602   3.528   1.630
 3657SOL     OW11536   2.765   1.948   0.133
 3657SOL    HW111537   2.816   1.949   0.047
 3657SOL    HW211538   2.821   1.906   0.204
 3658SOL     OW11539   3.588   1.997   0.523
 3658SOL    HW111540   3.661   1.980   0.456
 3658SOL    HW211541   3.557   1.910   0.561
 3659SOL     OW11542   3.250   3.435   0.477
 3659SOL    HW111543   3.317   3.447   0.403
 3659SOL    HW211544   3.210   3.524   0.500
 3660SOL     OW11545   1.992   3.656   1.851
 3660SOL    HW111546   1.951   3.582   1.904
 3660SOL    HW211547   2.056   3.707   1.909
 3661SOL     OW11548   3.142   2.789   0.672
 3661SOL    HW111549   3.202   2.708   0.674
 3661SOL    HW211550   3.182   2.858   0.612
 3662SOL     OW11551   2.692   3.135   1.422
 3662SOL    HW111552   2.687   3.168   1.517
 3662SOL    HW211553   2.606   3.154   1.376
 3663SOL     OW11554   2.534   3.478   0.154
 3663SOL    HW111555   2.543   3.488   0.055
 3663SOL    HW211556   2.494   3.389   0.175
 3664SOL     OW11557   3.512   3.582   1.394
 3664SOL    HW111558   3.565   3.592   1.310
 3664SOL    HW211559   3.485   3.672   1.428
 3665SOL     OW11560   3.703   2.037   0.963
 3665SOL    HW111561   3.742   1.952   0.927
 3665SOL    HW211562   3.605   2.039   0.944
 3666SOL     OW11563   2.125   2.188   0.720
 3666SOL    HW111564   2.046   2.239   0.686
 3666SOL    HW211565   2.116   2.173   0.818
 3667SOL     OW11566   3.056   3.474   0.031
 3667SOL    HW111567   3.062   3.381   0.068
 3667SOL    HW211568   2.997   3.474  -0.049
 3668SOL     OW11569   3.366   3.469   0.044
 3668SOL    HW111570   3.274   3.506   0.051
 3668SOL    HW211571   3.404   3.489  -0.046
 3669SOL     OW11572   2.234   3.150   1.490
 3669SOL    HW111573   2.221   3.243   1.456
 3669SOL    HW211574   2.150   3.098   1.477
 3670SOL     OW11575   3.476   3.154   1.289
 3670SOL    HW111576   3.536   3.157   1.369
 3670SOL    HW211577   3.401   3.218   1.302
 3671SOL     OW11578   2.901   2.960   0.696
 3671SOL    HW111579   2.831   2.913   0.750
 3671SOL    HW211580   2.960   2.892   0.653
 3672SOL     OW11581   2.876   2.098   0.971
 3672SOL    HW111582   2.868   2.062   0.878
 3672SOL    HW211583   2.874   2.022   1.036
 3673SOL     OW11584   2.452   3.349   0.491
 3673SOL    HW111585   2.494   3.291   0.421
 3673SOL    HW211586   2.408   3.428   0.447
 3674SOL     OW11587   3.571   2.247   1.381
 3674SOL    HW111588   3.644   2.316   1.385
 3674SOL    HW211589   3.599   2.172   1.322
 3675SOL     OW11590   2.117   3.210   0.290
 3675SOL    HW111591   2.021   3.211   0.263
 3675SOL    HW211592   2.129   3.263   0.374
 3676SOL     OW11593   1.967   2.875   1.726
 3676SOL    HW111594   1.890   2.842   1.780
 3676SOL    HW211595   2.052   2.845   1.768
 3677SOL     OW11596   2.534   2.065   1.489
 3677SOL    HW111597   2.624   2.049   1.449
 3677SOL    HW211598   2.542   2.070   1.588
 3678SOL     OW11599   1.937   2.207   0.033
 3678SOL    HW111600   1.845   2.179   0.004
 3678SOL    HW211601   1.968   2.284  -0.023
 3679SOL     OW11602   3.302   2.718   1.398
 3679SOL    HW111603   3.245   2.770   1.335
 3679SOL    HW211604   3.398   2.730   1.374
 3680SOL     OW11605   1.934   2.028   0.318
 3680SOL    HW111606   1.917   2.111   0.264
 3680SOL    HW211607   2.024   1.991   0.296
 3681SOL     OW11608   3.045   3.197   0.119
 3681SOL    HW111609   2.946   3.186   0.121
 3681SOL    HW211610   3.079   3.212   0.212
 3682SOL     OW11611   3.355   3.629   0.959
 3682SOL    HW111612   3.388   3.693   0.890
 3682SOL    HW211613   3.421   3.623   1.034
 3683SOL     OW11614   3.312   3.082   1.633
 3683SOL    HW111615   3.303   3.072   1.732
 3683SOL    HW211616   3.408   3.075   1.607
 3684SOL     OW11617   2.252   3.603   1.560
 3684SOL    HW111618   2.161   3.644   1.558
 3684SOL    HW211619   2.245   3.509   1.592
 3685SOL     OW11620   3.536   2.745   1.254
 3685SOL    HW111621   3.509   2.656   1.217
 3685SOL    HW211622   3.537   2.813   1.181
 3686SOL     OW11623   3.087   2.187   0.449
 3686SOL    HW111624   3.152   2.113   0.438
 3686SOL    HW211625   3.107   2.237   0.533
 3687SOL     OW11626   3.639   2.204   1.642
 3687SOL    HW111627   3.622   2.235   1.548
 3687SOL    HW211628   3.555   2.167   1.680
 3688SOL     OW11629   3.592   2.796   1.517
 3688SOL    HW111630   3.630   2.887   1.532
 3688SOL    HW211631   3.584   2.779   1.418
 3689SOL     OW11632   2.721   3.236   0.016
 3689SOL    HW111633   2.675   3.251   0.104
 3689SOL    HW211634   2.765   3.321  -0.014
 3690SOL     OW11635   2.523   3.652   0.953
 3690SOL    HW111636   2.477   3.740   0.940
 3690SOL    HW211637   2.622   3.664   0.946
 3691SOL     OW11638   2.945   2.846   0.087
 3691SOL    HW111639   2.922   2.899   0.005
 3691SOL    HW211640   3.026   2.790   0.068
 3692SOL     OW11641   3.723   3.431   0.851
 3692SOL    HW111642   3.652   3.419   0.781
 3692SOL    HW211643   3.724   3.352   0.911
 3693SOL     OW11644   2.083   3.176   1.844
 3693SOL    HW111645   2.018   3.103   1.823
 3693SOL    HW211646   2.087   3.190   1.942
 3694SOL     OW11647   1.941   3.102   0.653
 3694SOL    HW111648   1.940   3.055   0.741
 3694SOL    HW211649   2.023   3.074   0.602
 3695SOL     OW11650   2.534   3.253   1.624
 3695SOL    HW111651   2.456   3.203   1.662
 3695SOL    HW211652   2.531   3.348   1.655
 3696SOL     OW11653   3.686   2.054   1.227
 3696SOL    HW111654   3.682   1.964   1.271
 3696SOL    HW211655   3.689   2.043   1.128
 3697SOL     OW11656   2.290   2.286   0.520
 3697SOL    HW111657   2.320   2.214   0.458
 3697SOL    HW211658   2.251   2.246   0.603
 3698SOL     OW11659   3.567   3.349   1.104
 3698SOL    HW111660   3.474   3.324   1.077
 3698SOL    HW211661   3.593   3.299   1.186
 3699SOL     OW11662   2.179   2.409   1.280
 3699SOL    HW111663   2.217   2.350   1.352
 3699SOL    HW211664   2.219   2.383   1.192
 3700SOL     OW11665   2.674   3.448   0.687
 3700SOL    HW111666   2.706   3.458   0.593
 3700SOL    HW211667   2.595   3.386   0.689
 3701SOL     OW11668   3.286   2.076   1.112
 3701SOL    HW111669   3.338   2.011   1.167
 3701SOL    HW211670   3.237   2.139   1.173
 3702SOL     OW11671   2.863   1.896   1.154
 3702SOL    HW111672   2.800   1.824   1.123
 3702SOL    HW211673   2.956   1.860   1.154
 3703SOL     OW11674   2.632   3.192   0.301
 3703SOL    HW111675   2.586   3.105   0.318
 3703SOL    HW211676   2.723   3.189   0.342
 3704SOL     OW11677   2.480   3.429   1.284
 3704SOL    HW111678   2.475   3.511   1.341
 3704SOL    HW211679   2.569   3.426   1.239
 3705SOL     OW11680   3.214   1.914   0.168
 3705SOL    HW111681   3.249   1.873   0.084
 3705SOL    HW211682   3.124   1.876   0.188
 3706SOL     OW11683   3.162   2.315   0.691
 3706SOL    HW111684   3.103   2.395   0.695
 3706SOL    HW211685   3.177   2.280   0.784
 3707SOL     OW11686   3.455   2.083   0.882
 3707SOL    HW111687   3.371   2.082   0.936
 3707SOL    HW211688   3.457   2.166   0.826
 3708SOL     OW11689   1.901   2.939   0.300
 3708SOL    HW111690   2.000   2.928   0.291
 3708SOL    HW211691   1.861   2.853   0.332
 3709SOL     OW11692   2.737   3.508   0.337
 3709SOL    HW111693   2.660   3.473   0.283
 3709SOL    HW211694   2.705   3.579   0.399
 3710SOL     OW11695   2.092   2.490   1.975
 3710SOL    HW111696   1.999   2.488   2.012
 3710SOL    HW211697   2.093   2.451   1.883
 3711SOL     OW11698   2.087   2.137   2.858
 3711SOL    HW111699   2.122   2.120   2.950
 3711SOL    HW211700   1.999   2.092   2.846
 3712SOL     OW11701   1.881   2.230   2.509
 3712SOL    HW111702   1.799   2.273   2.548
 3712SOL    HW211703   1.853   2.157   2.446
 3713SOL     OW11704   2.431   3.137   3.027
 3713SOL    HW111705   2.338   3.130   2.990
 3713SOL    HW211706   2.442   3.226   3.071
 3714SOL     OW11707   3.417   3.373   2.565
 3714SOL    HW111708   3.360   3.357   2.646
 3714SOL    HW211709   3.358   3.383   2.485
 3715SOL     OW11710   2.997   2.565   2.579
 3715SOL    HW111711   3.054   2.643   2.554
 3715SOL    HW211712   2.937   2.591   2.655
 3716SOL     OW11713   3.617   2.469   2.093
 3716SOL    HW111714   3.605   2.456   1.994
 3716SOL    HW211715   3.587   2.388   2.142
 3717SOL     OW11716   2.630   3.006   2.885
 3717SOL    HW111717   2.552   3.023   2.945
 3717SOL    HW211718   2.664   3.093   2.849
 3718SOL     OW11719   2.197   3.297   2.923
 3718SOL    HW111720   2.119   3.266   2.870
 3718SOL    HW211721   2.255   3.355   2.866
 3719SOL     OW11722   3.322   3.367   3.201
 3719SOL    HW111723   3.346   3.461   3.227
 3719SOL    HW211724   3.306   3.313   3.283
 3720SOL     OW11725   3.465   2.309   2.599
 3720SOL    HW111726   3.391   2.355   2.549
 3720SOL    HW211727   3.516   2.377   2.652
 3721SOL     OW11728   2.093   3.575   2.345
 3721SOL    HW111729   2.127   3.652   2.399
 3721SOL    HW211730   2.137   3.575   2.255
 3722SOL     OW11731   2.092   3.296   2.400
 3722SOL    HW111732   2.066   3.392   2.400
 3722SOL    HW211733   2.021   3.242   2.445
 3723SOL     OW11734   2.102   2.953   2.748
 3723SOL    HW111735   2.116   2.869   2.800
 3723SOL    HW211736   2.047   3.017   2.803
 3724SOL     OW11737   2.482   3.648   3.301
 3724SOL    HW111738   2.390   3.631   3.336
 3724SOL    HW211739   2.510   3.740   3.327
 3725SOL     OW11740   2.468   2.826   1.985
 3725SOL    HW111741   2.475   2.910   1.931
 3725SOL    HW211742   2.514   2.839   2.073
 3726SOL     OW11743   3.456   1.976   3.342
 3726SOL    HW111744   3.438   2.043   3.270
 3726SOL    HW211745   3.453   2.022   3.431
 3727SOL     OW11746   1.984   2.505   2.425
 3727SOL    HW111747   1.939   2.417   2.442
 3727SOL    HW211748   1.983   2.559   2.509
 3728SOL     OW11749   3.704   3.629   2.221
 3728SOL    HW111750   3.758   3.600   2.301
 3728SOL    HW211751   3.734   3.719   2.192
 3729SOL     OW11752   1.889   3.458   1.979
 3729SOL    HW111753   1.870   3.362   2.000
 3729SOL    HW211754   1.856   3.516   2.054
 3730SOL     OW11755   3.551   2.784   2.474
 3730SOL    HW111756   3.646   2.755   2.482
 3730SOL    HW211757   3.543   2.849   2.399
 3731SOL     OW11758   3.503   2.970   2.294
 3731SOL    HW111759   3.589   2.972   2.242
 3731SOL    HW211760   3.517   3.017   2.382
 3732SOL     OW11761   2.475   3.227   2.588
 3732SOL    HW111762   2.426   3.140   2.597
 3732SOL    HW211763   2.452   3.270   2.501
 3733SOL     OW11764   2.671   1.866   2.364
 3733SOL    HW111765   2.711   1.957   2.355
 3733SOL    HW211766   2.571   1.874   2.370
 3734SOL     OW11767   3.387   2.861   2.052
 3734SOL    HW111768   3.324   2.785   2.065
 3734SOL    HW211769   3.435   2.879   2.138
 3735SOL     OW11770   3.049   3.654   3.478
 3735SOL    HW111771   3.073   3.714   3.402
 3735SOL    HW211772   3.056   3.559   3.448
 3736SOL     OW11773   3.328   3.279   2.815
 3736SOL    HW111774   3.269   3.285   2.895
 3736SOL    HW211775   3.313   3.191   2.769
 3737SOL     OW11776   3.529   3.576   2.434
 3737SOL    HW111777   3.488   3.553   2.346
 3737SOL    HW211778   3.511   3.502   2.499
 3738SOL     OW11779   3.143   2.207   2.806
 3738SOL    HW111780   3.057   2.157   2.793
 3738SOL    HW211781   3.205   2.153   2.862
 3739SOL     OW11782   3.438   3.524   2.169
 3739SOL    HW111783   3.527   3.570   2.172
 3739SOL    HW211784   3.417   3.500   2.074
 3740SOL     OW11785   1.938   2.673   2.651
 3740SOL    HW111786   2.037   2.661   2.660
 3740SOL    HW211787   1.914   2.768   2.672
 3741SOL     OW11788   1.992   3.683   3.433
 3741SOL    HW111789   1.982   3.668   3.532
 3741SOL    HW211790   1.906   3.719   3.397
 3742SOL     OW11791   2.727   2.210   2.057
 3742SOL    HW111792   2.786   2.273   2.008
 3742SOL    HW211793   2.746   2.116   2.028
 3743SOL     OW11794   3.581   2.447   3.693
 3743SOL    HW111795   3.555   2.536   3.657
 3743SOL    HW211796   3.579   2.379   3.620
 3744SOL     OW11797   3.224   3.006   2.407
 3744SOL    HW111798   3.307   2.977   2.359
 3744SOL    HW211799   3.175   3.073   2.351
 3745SOL     OW11800   2.412   2.058   2.747
 3745SOL    HW111801   2.407   2.053   2.847
 3745SOL    HW211802   2.414   2.154   2.718
 3746SOL     OW11803   2.870   3.318   2.339
 3746SOL    HW111804   2.824   3.390   2.287
 3746SOL    HW211805   2.866   3.338   2.437
 3747SOL     OW11806   2.213   3.663   2.715
 3747SOL    HW111807   2.263   3.577   2.721
 3747SOL    HW211808   2.278   3.740   2.712
 3748SOL     OW11809   3.657   2.928   2.735
 3748SOL    HW111810   3.595   2.913   2.659
 3748SOL    HW211811   3.605   2.939   2.820
 3749SOL     OW11812   2.183   2.805   2.104
 3749SOL    HW111813   2.265   2.844   2.062
 3749SOL    HW211814   2.156   2.723   2.055
 3750SOL     OW11815   3.320   2.597   2.590
 3750SOL    HW111816   3.315   2.532   2.665
 3750SOL    HW211817   3.400   2.656   2.603
 3751SOL     OW11818   2.973   3.638   2.099
 3751SOL    HW111819   2.913   3.576   2.149
 3751SOL    HW211820   3.004   3.594   2.014
 3752SOL     OW11821   3.494   3.239   1.943
 3752SOL    HW111822   3.462   3.333   1.933
 3752SOL    HW211823   3.418   3.176   1.931
 3753SOL     OW11824   2.326   3.605   2.185
 3753SOL    HW111825   2.359   3.644   2.271
 3753SOL    HW211826   2.402   3.598   2.120
 3754SOL     OW11827   3.262   1.969   2.288
 3754SOL    HW111828   3.238   1.932   2.198
 3754SOL    HW211829   3.361   1.985   2.292
 3755SOL     OW11830   2.111   3.647   3.103
 3755SOL    HW111831   2.168   3.582   3.153
 3755SOL    HW211832   2.095   3.614   3.010
 3756SOL     OW11833   2.802   3.560   2.766
 3756SOL    HW111834   2.882   3.503   2.787
 3756SOL    HW211835   2.753   3.520   2.689
 3757SOL     OW11836   2.244   2.562   2.342
 3757SOL    HW111837   2.289   2.472   2.339
 3757SOL    HW211838   2.150   2.551   2.375
 3758SOL     OW11839   3.409   2.084   3.591
 3758SOL    HW111840   3.404   2.121   3.683
 3758SOL    HW211841   3.337   2.015   3.579
 3759SOL     OW11842   2.476   1.984   1.979
 3759SOL    HW111843   2.574   1.962   1.986
 3759SOL    HW211844   2.445   1.967   1.886
 3760SOL     OW11845   2.665   3.264   2.786
 3760SOL    HW111846   2.755   3.278   2.744
 3760SOL    HW211847   2.594   3.266   2.715
 3761SOL     OW11848   2.784   2.365   2.761
 3761SOL    HW111849   2.759   2.356   2.665
 3761SOL    HW211850   2.832   2.283   2.792
 3762SOL     OW11851   2.401   1.926   2.374
 3762SOL    HW111852   2.320   1.927   2.432
 3762SOL    HW211853   2.404   2.009   2.319
 3763SOL     OW11854   3.296   3.050   1.903
 3763SOL    HW111855   3.328   2.974   1.960
 3763SOL    HW211856   3.204   3.077   1.933
 3764SOL     OW11857   2.159   1.897   2.033
 3764SOL    HW111858   2.208   1.981   2.012
 3764SOL    HW211859   2.221   1.832   2.078
 3765SOL     OW11860   2.797   2.098   2.342
 3765SOL    HW111861   2.749   2.139   2.264
 3765SOL    HW211862   2.896   2.096   2.323
 3766SOL     OW11863   3.089   3.432   2.655
 3766SOL    HW111864   3.110   3.506   2.590
 3766SOL    HW211865   3.157   3.432   2.728
 3767SOL     OW11866   2.321   3.014   2.603
 3767SOL    HW111867   2.250   2.987   2.668
 3767SOL    HW211868   2.295   2.986   2.510
 3768SOL     OW11869   3.133   3.659   2.453
 3768SOL    HW111870   3.177   3.723   2.389
 3768SOL    HW211871   3.083   3.711   2.523
 3769SOL     OW11872   2.894   2.411   1.878
 3769SOL    HW111873   2.853   2.493   1.839
 3769SOL    HW211874   2.958   2.437   1.951
 3770SOL     OW11875   2.728   2.316   2.504
 3770SOL    HW111876   2.696   2.388   2.442
 3770SOL    HW211877   2.752   2.235   2.451
 3771SOL     OW11878   2.879   1.901   2.615
 3771SOL    HW111879   2.807   1.906   2.546
 3771SOL    HW211880   2.855   1.832   2.684
 3772SOL     OW11881   3.291   3.035   2.729
 3772SOL    HW111882   3.236   2.951   2.722
 3772SOL    HW211883   3.317   3.064   2.637
 3773SOL     OW11884   3.328   2.452   2.854
 3773SOL    HW111885   3.298   2.357   2.861
 3773SOL    HW211886   3.401   2.468   2.920
 3774SOL     OW11887   3.719   2.695   2.239
 3774SOL    HW111888   3.761   2.631   2.303
 3774SOL    HW211889   3.681   2.644   2.161
 3775SOL     OW11890   2.350   3.247   2.036
 3775SOL    HW111891   2.263   3.232   2.083
 3775SOL    HW211892   2.333   3.273   1.941
 3776SOL     OW11893   3.526   3.142   2.519
 3776SOL    HW111894   3.625   3.150   2.533
 3776SOL    HW211895   3.481   3.226   2.550
 3777SOL     OW11896   3.252   2.437   1.940
 3777SOL    HW111897   3.198   2.416   2.021
 3777SOL    HW211898   3.343   2.396   1.949
 3778SOL     OW11899   2.389   2.118   2.190
 3778SOL    HW111900   2.416   2.059   2.115
 3778SOL    HW211901   2.389   2.213   2.159
 3779SOL     OW11902   3.616   3.085   3.450
 3779SOL    HW111903   3.707   3.046   3.437
 3779SOL    HW211904   3.624   3.181   3.474
 3780SOL     OW11905   3.454   3.491   3.487
 3780SOL    HW111906   3.481   3.525   3.397
 3780SOL    HW211907   3.533   3.453   3.533
 3781SOL     OW11908   2.973   3.057   2.962
 3781SOL    HW111909   2.933   3.101   3.043
 3781SOL    HW211910   2.932   3.094   2.879
 3782SOL     OW11911   3.500   2.961   2.941
 3782SOL    HW111912   3.505   3.042   3.000
 3782SOL    HW211913   3.414   2.963   2.890
 3783SOL     OW11914   1.926   3.426   3.193
 3783SOL    HW111915   1.880   3.508   3.159
 3783SOL    HW211916   2.024   3.445   3.202
 3784SOL     OW11917   2.229   2.962   2.363
 3784SOL    HW111918   2.222   3.045   2.307
 3784SOL    HW211919   2.233   2.882   2.303
 3785SOL     OW11920   2.428   2.399   2.727
 3785SOL    HW111921   2.440   2.465   2.653
 3785SOL    HW211922   2.474   2.433   2.810
 3786SOL     OW11923   3.114   3.210   2.250
 3786SOL    HW111924   3.164   3.287   2.290
 3786SOL    HW211925   3.019   3.212   2.282
 3787SOL     OW11926   3.134   3.307   3.004
 3787SOL    HW111927   3.181   3.320   3.091
 3787SOL    HW211928   3.068   3.233   3.013
 3788SOL     OW11929   3.444   2.501   2.334
 3788SOL    HW111930   3.413   2.562   2.407
 3788SOL    HW211931   3.494   2.553   2.265
 3789SOL     OW11932   2.366   1.912   3.602
 3789SOL    HW111933   2.324   1.855   3.532
 3789SOL    HW211934   2.300   1.981   3.634
 3790SOL     OW11935   3.222   2.724   2.907
 3790SOL    HW111936   3.147   2.724   2.841
 3790SOL    HW211937   3.259   2.632   2.916
 3791SOL     OW11938   3.071   2.387   2.137
 3791SOL    HW111939   3.084   2.303   2.191
 3791SOL    HW211940   3.042   2.461   2.197
 3792SOL     OW11941   1.899   3.172   3.144
 3792SOL    HW111942   1.952   3.123   3.212
 3792SOL    HW211943   1.921   3.270   3.149
 3793SOL     OW11944   3.590   2.797   3.716
 3793SOL    HW111945   3.544   2.790   3.627
 3793SOL    HW211946   3.528   2.841   3.782
 3794SOL     OW11947   2.169   1.925   2.480
 3794SOL    HW111948   2.158   2.019   2.513
 3794SOL    HW211949   2.164   1.862   2.557
 3795SOL     OW11950   3.484   2.229   2.236
 3795SOL    HW111951   3.486   2.153   2.300
 3795SOL    HW211952   3.436   2.306   2.276
 3796SOL     OW11953   2.842   3.435   3.562
 3796SOL    HW111954   2.822   3.479   3.474
 3796SOL    HW211955   2.881   3.344   3.546
 3797SOL     OW11956   3.721   3.380   3.467
 3797SOL    HW111957   3.735   3.407   3.372
 3797SOL    HW211958   3.804   3.402   3.520
 3798SOL     OW11959   3.402   2.136   1.987
 3798SOL    HW111960   3.341   2.061   2.010
 3798SOL    HW211961   3.424   2.188   2.070
 3799SOL     OW11962   3.165   2.700   1.904
 3799SOL    HW111963   3.199   2.607   1.919
 3799SOL    HW211964   3.183   2.727   1.809
 3800SOL     OW11965   2.930   3.195   2.711
 3800SOL    HW111966   2.937   3.111   2.656
 3800SOL    HW211967   2.992   3.264   2.675
 3801SOL     OW11968   2.181   2.672   2.811
 3801SOL    HW111969   2.274   2.708   2.816
 3801SOL    HW211970   2.175   2.587   2.863
 3802SOL     OW11971   2.201   2.371   2.868
 3802SOL    HW111972   2.149   2.288   2.851
 3802SOL    HW211973   2.278   2.376   2.804
 3803SOL     OW11974   1.870   3.188   2.062
 3803SOL    HW111975   1.777   3.209   2.031
 3803SOL    HW211976   1.880   3.089   2.075
 3804SOL     OW11977   1.950   3.663   2.789
 3804SOL    HW111978   1.908   3.577   2.762
 3804SOL    HW211979   2.044   3.666   2.755
 3805SOL     OW11980   2.366   3.430   2.772
 3805SOL    HW111981   2.432   3.504   2.781
 3805SOL    HW211982   2.410   3.351   2.730
 3806SOL     OW11983   1.902   2.406   2.976
 3806SOL    HW111984   1.987   2.373   2.935
 3806SOL    HW211985   1.915   2.421   3.074
 3807SOL     OW11986   2.677   2.434   2.187
 3807SOL    HW111987   2.684   2.345   2.141
 3807SOL    HW211988   2.583   2.468   2.179
 3808SOL     OW11989   3.519   2.466   3.068
 3808SOL    HW111990   3.481   2.397   3.130
 3808SOL    HW211991   3.601   2.430   3.024
 3809SOL     OW11992   2.114   3.426   3.606
 3809SOL    HW111993   2.084   3.483   3.682
 3809SOL    HW211994   2.107   3.329   3.632
 3810SOL     OW11995   2.792   3.540   3.327
 3810SOL    HW111996   2.768   3.522   3.232
 3810SOL    HW211997   2.822   3.634   3.337
 3811SOL     OW11998   2.335   2.362   2.053
 3811SOL    HW111999   2.396   2.442   2.057
 3811SOL    HW212000   2.240   2.393   2.060
 3812SOL     OW12001   3.164   2.717   2.171
 3812SOL    HW112002   3.078   2.686   2.213
 3812SOL    HW212003   3.160   2.703   2.072
 3813SOL     OW12004   3.621   3.609   3.016
 3813SOL    HW112005   3.682   3.639   2.943
 3813SOL    HW212006   3.583   3.520   2.994
 3814SOL     OW12007   3.114   3.593   2.990
 3814SOL    HW112008   3.198   3.598   2.936
 3814SOL    HW212009   3.091   3.497   3.008
 3815SOL     OW12010   1.945   3.120   2.884
 3815SOL    HW112011   1.940   3.119   2.984
 3815SOL    HW212012   1.862   3.079   2.846
 3816SOL     OW12013   2.550   3.524   3.578
 3816SOL    HW112014   2.494   3.605   3.587
 3816SOL    HW212015   2.602   3.528   3.492
 3817SOL     OW12016   3.588   1.997   2.385
 3817SOL    HW112017   3.661   1.980   2.318
 3817SOL    HW212018   3.557   1.910   2.423
 3818SOL     OW12019   3.250   3.435   2.339
 3818SOL    HW112020   3.317   3.447   2.265
 3818SOL    HW212021   3.210   3.524   2.362
 3819SOL     OW12022   1.992   3.656   3.713
 3819SOL    HW112023   1.951   3.582   3.766
 3819SOL    HW212024   2.056   3.707   3.771
 3820SOL     OW12025   3.142   2.789   2.534
 3820SOL    HW112026   3.202   2.708   2.536
 3820SOL    HW212027   3.182   2.858   2.474
 3821SOL     OW12028   2.534   3.478   2.016
 3821SOL    HW112029   2.543   3.488   1.917
 3821SOL    HW212030   2.494   3.389   2.037
 3822SOL     OW12031   3.512   3.582   3.256
 3822SOL    HW112032   3.565   3.592   3.172
 3822SOL    HW212033   3.485   3.672   3.290
 3823SOL     OW12034   3.703   2.037   2.825
 3823SOL    HW112035   3.742   1.952   2.789
 3823SOL    HW212036   3.605   2.039   2.806
 3824SOL     OW12037   2.125   2.188   2.582
 3824SOL    HW112038   2.046   2.239   2.548
 3824SOL    HW212039   2.116   2.173   2.680
 3825SOL     OW12040   3.056   3.474   1.893
 3825SOL    HW112041   3.062   3.381   1.930
 3825SOL    HW212042   2.997   3.474   1.813
 3826SOL     OW12043   3.366   3.469   1.906
 3826SOL    HW112044   3.274   3.506   1.913
 3826SOL    HW212045   3.404   3.489   1.816
 3827SOL     OW12046   3.476   3.154   3.151
 3827SOL    HW112047   3.536   3.157   3.231
 3827SOL    HW212048   3.401   3.218   3.164
 3828SOL     OW12049   2.901   2.960   2.558
 3828SOL    HW112050   2.831   2.913   2.612
 3828SOL    HW212051   2.960   2.892   2.515
 3829SOL     OW12052   2.876   2.098   2.833
 3829SOL    HW112053   2.868   2.062   2.740
 3829SOL    HW212054   2.874   2.022   2.898
 3830SOL     OW12055   2.452   3.349   2.353
 3830SOL    HW112056   2.494   3.291   2.283
 3830SOL    HW212057   2.408   3.428   2.309
 3831SOL     OW12058   3.571   2.247   3.243
 3831SOL    HW112059   3.644   2.316   3.247
 3831SOL    HW212060   3.599   2.172   3.184
 3832SOL     OW12061   2.117   3.210   2.152
 3832SOL    HW112062   2.021   3.211   2.125
 3832SOL    HW212063   2.129   3.263   2.236
 3833SOL     OW12064   1.937   2.207   1.895
 3833SOL    HW112065   1.845   2.179   1.866
 3833SOL    HW212066   1.968   2.284   1.839
 3834SOL     OW12067   1.934   2.028   2.180
 3834SOL    HW112068   1.917   2.111   2.126
 3834SOL    HW212069   2.024   1.991   2.158
 3835SOL     OW12070   3.045   3.197   1.981
 3835SOL    HW112071   2.946   3.186   1.983
 3835SOL    HW212072   3.079   3.212   2.074
 3836SOL     OW12073   3.355   3.629   2.821
 3836SOL    HW112074   3.388   3.693   2.752
 3836SOL    HW212075   3.421   3.623   2.896
 3837SOL     OW12076   2.252   3.603   3.422
 3837SOL    HW112077   2.161   3.644   3.420
 3837SOL    HW212078   2.245   3.509   3.454
 3838SOL     OW12079   3.536   2.745   3.116
 3838SOL    HW112080   3.509   2.656   3.079
 3838SOL    HW212081   3.537   2.813   3.043
 3839SOL     OW12082   3.087   2.187   2.311
 3839SOL    HW112083   3.152   2.113   2.300
 3839SOL    HW212084   3.107   2.237   2.395
 3840SOL     OW12085   3.639   2.204   3.504
 3840SOL    HW112086   3.622   2.235   3.410
 3840SOL    HW212087   3.555   2.167   3.542
 3841SOL     OW12088   3.592   2.796   3.379
 3841SOL    HW112089   3.630   2.887   3.394
 3841SOL    HW212090   3.584   2.779   3.280
 3842SOL     OW12091   2.721   3.236   1.878
 3842SOL    HW112092   2.675   3.251   1.966
 3842SOL    HW212093   2.765   3.321   1.848
 3843SOL     OW12094   2.523   3.652   2.815
 3843SOL    HW112095   2.477   3.740   2.802
 3843SOL    HW212096   2.622   3.664   2.808
 3844SOL     OW12097   2.945   2.846   1.949
 3844SOL    HW112098   2.922   2.899   1.867
 3844SOL    HW212099   3.026   2.790   1.930
 3845SOL     OW12100   3.723   3.431   2.713
 3845SOL    HW112101   3.652   3.419   2.643
 3845SOL    HW212102   3.724   3.352   2.773
 3846SOL     OW12103   2.083   3.176   3.706
 3846SOL    HW112104   2.018   3.103   3.685
 3846SOL    HW212105   2.087   3.190   3.804
 3847SOL     OW12106   1.941   3.102   2.515
 3847SOL    HW112107   1.940   3.055   2.603
 3847SOL    HW212108   2.023   3.074   2.464
 3848SOL     OW12109   3.686   2.054   3.089
 3848SOL    HW112110   3.682   1.964   3.133
 3848SOL    HW212111   3.689   2.043   2.990
 3849SOL     OW12112   2.290   2.286   2.382
 3849SOL    HW112113   2.320   2.214   2.320
 3849SOL    HW212114   2.251   2.246   2.465
 3850SOL     OW12115   3.567   3.349   2.966
 3850SOL    HW112116   3.474   3.324   2.939
 3850SOL    HW212117   3.593   3.299   3.048
 3851SOL     OW12118   2.674   3.448   2.549
 3851SOL    HW112119   2.706   3.458   2.455
 3851SOL    HW212120   2.595   3.386   2.551
 3852SOL     OW12121   3.286   2.076   2.974
 3852SOL    HW112122   3.338   2.011   3.029
 3852SOL    HW212123   3.237   2.139   3.035
 3853SOL     OW12124   2.863   1.896   3.016
 3853SOL    HW112125   2.800   1.824   2.985
 3853SOL    HW212126   2.956   1.860   3.016
 3854SOL     OW12127   2.632   3.192   2.163
 3854SOL    HW112128   2.586   3.105   2.180
 3854SOL    HW212129   2.723   3.189   2.204
 3855SOL     OW12130   2.480   3.429   3.146
 3855SOL    HW112131   2.475   3.511   3.203
 3855SOL    HW212132   2.569   3.426   3.101
 3856SOL     OW12133   3.214   1.914   2.030
 3856SOL    HW112134   3.249   1.873   1.946
 3856SOL    HW212135   3.124   1.876   2.050
 3857SOL     OW12136   3.162   2.315   2.553
 3857SOL    HW112137   3.103   2.395   2.557
 3857SOL    HW212138   3.177   2.280   2.646
 3858SOL     OW12139   3.455   2.083   2.744
 3858SOL    HW112140   3.371   2.082   2.798
 3858SOL    HW212141   3.457   2.166   2.688
 3859SOL     OW12142   1.901   2.939   2.162
 3859SOL    HW112143   2.000   2.928   2.153
 3859SOL    HW212144   1.861   2.853   2.194
 3860SOL     OW12145   2.737   3.508   2.199
 3860SOL    HW112146   2.660   3.473   2.145
 3860SOL    HW212147   2.705   3.579   2.261
 3861SOL     OW12148   2.087   2.137   4.720
 3861SOL    HW112149   2.122   2.120   4.812
 3861SOL    HW212150   1.999   2.092   4.708
 3862SOL     OW12151   1.881   2.230   4.371
 3862SOL    HW112152   1.799   2.273   4.410
 3862SOL    HW212153   1.853   2.157   4.308
 3863SOL     OW12154   2.431   3.137   4.889
 3863SOL    HW112155   2.338   3.130   4.852
 3863SOL    HW212156   2.442   3.226   4.933
 3864SOL     OW12157   3.417   3.373   4.427
 3864SOL    HW112158   3.360   3.357   4.508
 3864SOL    HW212159   3.358   3.383   4.347
 3865SOL     OW12160   3.617   2.469   3.955
 3865SOL    HW112161   3.605   2.456   3.856
 3865SOL    HW212162   3.587   2.388   4.004
 3866SOL     OW12163   2.548   3.023   5.527
 3866SOL    HW112164   2.608   3.102   5.541
 3866SOL    HW212165   2.462   3.054   5.486
 3867SOL     OW12166   2.197   3.297   4.785
 3867SOL    HW112167   2.119   3.266   4.732
 3867SOL    HW212168   2.255   3.355   4.728
 3868SOL     OW12169   3.322   3.367   5.063
 3868SOL    HW112170   3.346   3.461   5.089
 3868SOL    HW212171   3.306   3.313   5.145
 3869SOL     OW12172   2.300   2.254   5.223
 3869SOL    HW112173   2.382   2.198   5.232
 3869SOL    HW212174   2.219   2.196   5.227
 3870SOL     OW12175   3.465   2.309   4.461
 3870SOL    HW112176   3.391   2.355   4.411
 3870SOL    HW212177   3.516   2.377   4.514
 3871SOL     OW12178   2.093   3.575   4.207
 3871SOL    HW112179   2.127   3.652   4.261
 3871SOL    HW212180   2.137   3.575   4.117
 3872SOL     OW12181   2.989   3.203   5.414
 3872SOL    HW112182   3.036   3.203   5.502
 3872SOL    HW212183   2.941   3.116   5.403
 3873SOL     OW12184   2.092   3.296   4.262
 3873SOL    HW112185   2.066   3.392   4.262
 3873SOL    HW212186   2.021   3.242   4.307
 3874SOL     OW12187   2.482   3.648   5.163
 3874SOL    HW112188   2.390   3.631   5.198
 3874SOL    HW212189   2.510   3.740   5.189
 3875SOL     OW12190   3.456   1.976   5.204
 3875SOL    HW112191   3.438   2.043   5.132
 3875SOL    HW212192   3.453   2.022   5.293
 3876SOL     OW12193   3.704   3.629   4.083
 3876SOL    HW112194   3.758   3.600   4.163
 3876SOL    HW212195   3.734   3.719   4.054
 3877SOL     OW12196   1.889   3.458   3.841
 3877SOL    HW112197   1.870   3.362   3.862
 3877SOL    HW212198   1.856   3.516   3.916
 3878SOL     OW12199   3.551   2.784   4.336
 3878SOL    HW112200   3.646   2.755   4.344
 3878SOL    HW212201   3.543   2.849   4.261
 3879SOL     OW12202   3.503   2.970   4.156
 3879SOL    HW112203   3.589   2.972   4.104
 3879SOL    HW212204   3.517   3.017   4.244
 3880SOL     OW12205   1.975   2.599   5.321
 3880SOL    HW112206   2.063   2.586   5.366
 3880SOL    HW212207   1.962   2.696   5.299
 3881SOL     OW12208   3.155   3.090   5.147
 3881SOL    HW112209   3.192   3.017   5.089
 3881SOL    HW212210   3.207   3.095   5.232
 3882SOL     OW12211   2.671   1.866   4.226
 3882SOL    HW112212   2.711   1.957   4.217
 3882SOL    HW212213   2.571   1.874   4.232
 3883SOL     OW12214   2.059   2.838   4.988
 3883SOL    HW112215   2.148   2.793   4.974
 3883SOL    HW212216   1.986   2.773   4.969
 3884SOL     OW12217   3.049   3.654   5.340
 3884SOL    HW112218   3.073   3.714   5.264
 3884SOL    HW212219   3.056   3.559   5.310
 3885SOL     OW12220   2.179   2.113   5.525
 3885SOL    HW112221   2.250   2.184   5.531
 3885SOL    HW212222   2.091   2.152   5.553
 3886SOL     OW12223   3.328   3.279   4.677
 3886SOL    HW112224   3.269   3.285   4.757
 3886SOL    HW212225   3.313   3.191   4.631
 3887SOL     OW12226   3.529   3.576   4.296
 3887SOL    HW112227   3.488   3.553   4.208
 3887SOL    HW212228   3.511   3.502   4.361
 3888SOL     OW12229   3.438   3.524   4.031
 3888SOL    HW112230   3.527   3.570   4.034
 3888SOL    HW212231   3.417   3.500   3.936
 3889SOL     OW12232   3.256   2.331   5.398
 3889SOL    HW112233   3.236   2.374   5.486
 3889SOL    HW212234   3.334   2.269   5.407
 3890SOL     OW12235   2.903   2.563   4.153
 3890SOL    HW112236   2.929   2.559   4.249
 3890SOL    HW212237   2.818   2.512   4.139
 3891SOL     OW12238   1.992   3.683   5.295
 3891SOL    HW112239   1.982   3.668   5.394
 3891SOL    HW212240   1.906   3.719   5.259
 3892SOL     OW12241   3.581   2.447   5.555
 3892SOL    HW112242   3.555   2.536   5.519
 3892SOL    HW212243   3.579   2.379   5.482
 3893SOL     OW12244   2.213   3.663   4.577
 3893SOL    HW112245   2.263   3.577   4.583
 3893SOL    HW212246   2.278   3.740   4.574
 3894SOL     OW12247   3.657   2.928   4.597
 3894SOL    HW112248   3.595   2.913   4.521
 3894SOL    HW212249   3.605   2.939   4.682
 3895SOL     OW12250   3.089   3.412   5.230
 3895SOL    HW112251   3.095   3.335   5.294
 3895SOL    HW212252   3.037   3.386   5.150
 3896SOL     OW12253   2.323   3.128   5.451
 3896SOL    HW112254   2.273   3.129   5.365
 3896SOL    HW212255   2.260   3.110   5.527
 3897SOL     OW12256   2.973   3.638   3.961
 3897SOL    HW112257   2.913   3.576   4.011
 3897SOL    HW212258   3.004   3.594   3.876
 3898SOL     OW12259   2.064   2.147   5.222
 3898SOL    HW112260   1.984   2.207   5.209
 3898SOL    HW212261   2.054   2.098   5.308
 3899SOL     OW12262   3.494   3.239   3.805
 3899SOL    HW112263   3.462   3.333   3.795
 3899SOL    HW212264   3.418   3.176   3.793
 3900SOL     OW12265   2.326   3.605   4.047
 3900SOL    HW112266   2.359   3.644   4.133
 3900SOL    HW212267   2.402   3.598   3.982
 3901SOL     OW12268   3.262   1.969   4.150
 3901SOL    HW112269   3.238   1.932   4.060
 3901SOL    HW212270   3.361   1.985   4.154
 3902SOL     OW12271   2.111   3.647   4.965
 3902SOL    HW112272   2.168   3.582   5.015
 3902SOL    HW212273   2.095   3.614   4.872
 3903SOL     OW12274   2.802   3.560   4.628
 3903SOL    HW112275   2.882   3.503   4.649
 3903SOL    HW212276   2.753   3.520   4.551
 3904SOL     OW12277   3.409   2.084   5.453
 3904SOL    HW112278   3.404   2.121   5.545
 3904SOL    HW212279   3.337   2.015   5.441
 3905SOL     OW12280   2.476   1.984   3.841
 3905SOL    HW112281   2.574   1.962   3.848
 3905SOL    HW212282   2.445   1.967   3.748
 3906SOL     OW12283   2.643   2.126   5.473
 3906SOL    HW112284   2.710   2.065   5.516
 3906SOL    HW212285   2.570   2.145   5.538
 3907SOL     OW12286   2.750   3.376   4.919
 3907SOL    HW112287   2.727   3.351   4.825
 3907SOL    HW212288   2.811   3.307   4.958
 3908SOL     OW12289   3.213   2.452   5.157
 3908SOL    HW112290   3.241   2.409   5.242
 3908SOL    HW212291   3.238   2.548   5.158
 3909SOL     OW12292   3.296   3.050   3.765
 3909SOL    HW112293   3.328   2.974   3.822
 3909SOL    HW212294   3.204   3.077   3.795
 3910SOL     OW12295   2.159   1.897   3.895
 3910SOL    HW112296   2.208   1.981   3.874
 3910SOL    HW212297   2.221   1.832   3.940
 3911SOL     OW12298   2.938   2.545   5.188
 3911SOL    HW112299   2.858   2.484   5.191
 3911SOL    HW212300   3.019   2.492   5.164
 3912SOL     OW12301   3.089   3.432   4.517
 3912SOL    HW112302   3.110   3.506   4.452
 3912SOL    HW212303   3.157   3.432   4.590
 3913SOL     OW12304   3.133   3.659   4.315
 3913SOL    HW112305   3.177   3.723   4.251
 3913SOL    HW212306   3.083   3.711   4.385
 3914SOL     OW12307   3.328   2.452   4.716
 3914SOL    HW112308   3.298   2.357   4.723
 3914SOL    HW212309   3.401   2.468   4.782
 3915SOL     OW12310   3.719   2.695   4.101
 3915SOL    HW112311   3.761   2.631   4.165
 3915SOL    HW212312   3.681   2.644   4.023
 3916SOL     OW12313   2.350   3.247   3.898
 3916SOL    HW112314   2.263   3.232   3.945
 3916SOL    HW212315   2.333   3.273   3.803
 3917SOL     OW12316   3.526   3.142   4.381
 3917SOL    HW112317   3.625   3.150   4.395
 3917SOL    HW212318   3.481   3.226   4.412
 3918SOL     OW12319   3.252   2.437   3.802
 3918SOL    HW112320   3.198   2.416   3.883
 3918SOL    HW212321   3.343   2.396   3.811
 3919SOL     OW12322   3.616   3.085   5.312
 3919SOL    HW112323   3.707   3.046   5.299
 3919SOL    HW212324   3.624   3.181   5.336
 3920SOL     OW12325   2.926   3.209   5.064
 3920SOL    HW112326   2.846   3.186   5.119
 3920SOL    HW212327   3.009   3.183   5.113
 3921SOL     OW12328   3.454   3.491   5.349
 3921SOL    HW112329   3.481   3.525   5.259
 3921SOL    HW212330   3.533   3.453   5.395
 3922SOL     OW12331   3.500   2.961   4.803
 3922SOL    HW112332   3.505   3.042   4.862
 3922SOL    HW212333   3.414   2.963   4.752
 3923SOL     OW12334   2.777   1.951   5.126
 3923SOL    HW112335   2.802   1.931   5.031
 3923SOL    HW212336   2.849   2.007   5.168
 3924SOL     OW12337   2.842   2.978   5.443
 3924SOL    HW112338   2.743   2.984   5.453
 3924SOL    HW212339   2.865   2.898   5.387
 3925SOL     OW12340   1.926   3.426   5.055
 3925SOL    HW112341   1.880   3.508   5.021
 3925SOL    HW212342   2.024   3.445   5.064
 3926SOL     OW12343   3.134   3.307   4.866
 3926SOL    HW112344   3.181   3.320   4.953
 3926SOL    HW212345   3.068   3.233   4.875
 3927SOL     OW12346   2.216   3.372   5.053
 3927SOL    HW112347   2.195   3.328   4.966
 3927SOL    HW212348   2.313   3.398   5.056
 3928SOL     OW12349   2.264   2.613   5.322
 3928SOL    HW112350   2.332   2.668   5.275
 3928SOL    HW212351   2.304   2.525   5.349
 3929SOL     OW12352   3.449   2.641   5.394
 3929SOL    HW112353   3.357   2.679   5.389
 3929SOL    HW212354   3.509   2.688   5.329
 3930SOL     OW12355   2.875   1.967   5.494
 3930SOL    HW112356   2.881   2.052   5.442
 3930SOL    HW212357   2.907   1.891   5.437
 3931SOL     OW12358   2.366   1.912   5.464
 3931SOL    HW112359   2.324   1.855   5.394
 3931SOL    HW212360   2.300   1.981   5.496
 3932SOL     OW12361   2.169   2.075   4.955
 3932SOL    HW112362   2.146   2.112   5.045
 3932SOL    HW212363   2.139   1.980   4.949
 3933SOL     OW12364   1.899   3.172   5.006
 3933SOL    HW112365   1.952   3.123   5.074
 3933SOL    HW212366   1.921   3.270   5.011
 3934SOL     OW12367   3.590   2.797   5.578
 3934SOL    HW112368   3.544   2.790   5.489
 3934SOL    HW212369   3.528   2.841   5.644
 3935SOL     OW12370   3.484   2.229   4.098
 3935SOL    HW112371   3.486   2.153   4.162
 3935SOL    HW212372   3.436   2.306   4.138
 3936SOL     OW12373   2.842   3.435   5.424
 3936SOL    HW112374   2.822   3.479   5.336
 3936SOL    HW212375   2.881   3.344   5.408
 3937SOL     OW12376   3.721   3.380   5.329
 3937SOL    HW112377   3.735   3.407   5.234
 3937SOL    HW212378   3.804   3.402   5.382
 3938SOL     OW12379   2.212   2.760   5.528
 3938SOL    HW112380   2.288   2.804   5.576
 3938SOL    HW212381   2.247   2.713   5.446
 3939SOL     OW12382   3.402   2.136   3.849
 3939SOL    HW112383   3.341   2.061   3.872
 3939SOL    HW212384   3.424   2.188   3.932
 3940SOL     OW12385   3.000   2.242   5.402
 3940SOL    HW112386   2.955   2.305   5.466
 3940SOL    HW212387   3.093   2.273   5.385
 3941SOL     OW12388   3.022   2.069   5.201
 3941SOL    HW112389   3.022   2.133   5.278
 3941SOL    HW212390   3.050   2.117   5.118
 3942SOL     OW12391   1.870   3.188   3.924
 3942SOL    HW112392   1.777   3.209   3.893
 3942SOL    HW212393   1.880   3.089   3.937
 3943SOL     OW12394   1.950   3.663   4.651
 3943SOL    HW112395   1.908   3.577   4.624
 3943SOL    HW212396   2.044   3.666   4.617
 3944SOL     OW12397   2.366   3.430   4.634
 3944SOL    HW112398   2.432   3.504   4.643
 3944SOL    HW212399   2.410   3.351   4.592
 3945SOL     OW12400   2.051   2.382   5.446
 3945SOL    HW112401   2.110   2.342   5.376
 3945SOL    HW212402   1.993   2.453   5.405
 3946SOL     OW12403   3.231   2.812   5.384
 3946SOL    HW112404   3.270   2.901   5.404
 3946SOL    HW212405   3.241   2.792   5.287
 3947SOL     OW12406   3.519   2.466   4.930
 3947SOL    HW112407   3.481   2.397   4.992
 3947SOL    HW212408   3.601   2.430   4.886
 3948SOL     OW12409   2.114   3.426   5.468
 3948SOL    HW112410   2.084   3.483   5.544
 3948SOL    HW212411   2.107   3.329   5.494
 3949SOL     OW12412   2.792   3.540   5.189
 3949SOL    HW112413   2.768   3.522   5.094
 3949SOL    HW212414   2.822   3.634   5.199
 3950SOL     OW12415   2.021   2.999   5.190
 3950SOL    HW112416   2.043   2.938   5.266
 3950SOL    HW212417   2.031   2.950   5.104
 3951SOL     OW12418   3.621   3.609   4.878
 3951SOL    HW112419   3.682   3.639   4.805
 3951SOL    HW212420   3.583   3.520   4.856
 3952SOL     OW12421   3.114   3.593   4.852
 3952SOL    HW112422   3.198   3.598   4.798
 3952SOL    HW212423   3.091   3.497   4.870
 3953SOL     OW12424   1.945   3.120   4.746
 3953SOL    HW112425   1.940   3.119   4.846
 3953SOL    HW212426   1.862   3.079   4.708
 3954SOL     OW12427   2.550   3.524   5.440
 3954SOL    HW112428   2.494   3.605   5.449
 3954SOL    HW212429   2.602   3.528   5.354
 3955SOL     OW12430   3.588   1.997   4.247
 3955SOL    HW112431   3.661   1.980   4.180
 3955SOL    HW212432   3.557   1.910   4.285
 3956SOL     OW12433   3.250   3.435   4.201
 3956SOL    HW112434   3.317   3.447   4.127
 3956SOL    HW212435   3.210   3.524   4.224
 3957SOL     OW12436   1.992   3.656   5.575
 3957SOL    HW112437   1.951   3.582   5.628
 3957SOL    HW212438   2.056   3.707   5.633
 3958SOL     OW12439   2.534   3.478   3.878
 3958SOL    HW112440   2.543   3.488   3.779
 3958SOL    HW212441   2.494   3.389   3.899
 3959SOL     OW12442   3.512   3.582   5.118
 3959SOL    HW112443   3.565   3.592   5.034
 3959SOL    HW212444   3.485   3.672   5.152
 3960SOL     OW12445   3.703   2.037   4.687
 3960SOL    HW112446   3.742   1.952   4.651
 3960SOL    HW212447   3.605   2.039   4.668
 3961SOL     OW12448   3.056   3.474   3.755
 3961SOL    HW112449   3.062   3.381   3.792
 3961SOL    HW212450   2.997   3.474   3.675
 3962SOL     OW12451   3.366   3.469   3.768
 3962SOL    HW112452   3.274   3.506   3.775
 3962SOL    HW212453   3.404   3.489   3.678
 3963SOL     OW12454   2.234   3.150   5.214
 3963SOL    HW112455   2.221   3.243   5.180
 3963SOL    HW212456   2.150   3.098   5.201
 3964SOL     OW12457   3.476   3.154   5.013
 3964SOL    HW112458   3.536   3.157   5.093
 3964SOL    HW212459   3.401   3.218   5.026
 3965SOL     OW12460   3.571   2.247   5.105
 3965SOL    HW112461   3.644   2.316   5.109
 3965SOL    HW212462   3.599   2.172   5.046
 3966SOL     OW12463   2.117   3.210   4.014
 3966SOL    HW112464   2.021   3.211   3.987
 3966SOL    HW212465   2.129   3.263   4.098
 3967SOL     OW12466   1.967   2.875   5.450
 3967SOL    HW112467   1.890   2.842   5.504
 3967SOL    HW212468   2.052   2.845   5.492
 3968SOL     OW12469   2.534   2.065   5.213
 3968SOL    HW112470   2.624   2.049   5.173
 3968SOL    HW212471   2.542   2.070   5.312
 3969SOL     OW12472   1.937   2.207   3.757
 3969SOL    HW112473   1.845   2.179   3.728
 3969SOL    HW212474   1.968   2.284   3.701
 3970SOL     OW12475   1.934   2.028   4.042
 3970SOL    HW112476   1.917   2.111   3.988
 3970SOL    HW212477   2.024   1.991   4.020
 3971SOL     OW12478   3.045   3.197   3.843
 3971SOL    HW112479   2.946   3.186   3.845
 3971SOL    HW212480   3.079   3.212   3.936
 3972SOL     OW12481   3.355   3.629   4.683
 3972SOL    HW112482   3.388   3.693   4.614
 3972SOL    HW212483   3.421   3.623   4.758
 3973SOL     OW12484   3.312   3.082   5.357
 3973SOL    HW112485   3.303   3.072   5.456
 3973SOL    HW212486   3.408   3.075   5.331
 3974SOL     OW12487   2.252   3.603   5.284
 3974SOL    HW112488   2.161   3.644   5.282
 3974SOL    HW212489   2.245   3.509   5.316
 3975SOL     OW12490   3.536   2.745   4.978
 3975SOL    HW112491   3.509   2.656   4.941
 3975SOL    HW212492   3.537   2.813   4.905
 3976SOL     OW12493   3.639   2.204   5.366
 3976SOL    HW112494   3.622   2.235   5.272
 3976SOL    HW212495   3.555   2.167   5.404
 3977SOL     OW12496   3.592   2.796   5.241
 3977SOL    HW112497   3.630   2.887   5.256
 3977SOL    HW212498   3.584   2.779   5.142
 3978SOL     OW12499   2.523   3.652   4.677
 3978SOL    HW112500   2.477   3.740   4.664
 3978SOL    HW212501   2.622   3.664   4.670
 3979SOL     OW12502   3.723   3.431   4.575
 3979SOL    HW112503   3.652   3.419   4.505
 3979SOL    HW212504   3.724   3.352   4.635
 3980SOL     OW12505   2.083   3.176   5.568
 3980SOL    HW112506   2.018   3.103   5.547
 3980SOL    HW212507   2.087   3.190   5.666
 3981SOL     OW12508   1.941   3.102   4.377
 3981SOL    HW112509   1.940   3.055   4.465
 3981SOL    HW212510   2.023   3.074   4.326
 3982SOL     OW12511   2.534   3.253   5.348
 3982SOL    HW112512   2.456   3.203   5.386
 3982SOL    HW212513   2.531   3.348   5.379
 3983SOL     OW12514   3.686   2.054   4.951
 3983SOL    HW112515   3.682   1.964   4.995
 3983SOL    HW212516   3.689   2.043   4.852
 3984SOL     OW12517   3.567   3.349   4.828
 3984SOL    HW112518   3.474   3.324   4.801
 3984SOL    HW212519   3.593   3.299   4.910
 3985SOL     OW12520   3.286   2.076   4.836
 3985SOL    HW112521   3.338   2.011   4.891
 3985SOL    HW212522   3.237   2.139   4.897
 3986SOL     OW12523   2.863   1.896   4.878
 3986SOL    HW112524   2.800   1.824   4.847
 3986SOL    HW212525   2.956   1.860   4.878
 3987SOL     OW12526   2.480   3.429   5.008
 3987SOL    HW112527   2.475   3.511   5.065
 3987SOL    HW212528   2.569   3.426   4.963
 3988SOL     OW12529   3.214   1.914   3.892
 3988SOL    HW112530   3.249   1.873   3.808
 3988SOL    HW212531   3.124   1.876   3.912
 3989SOL     OW12532   3.455   2.083   4.606
 3989SOL    HW112533   3.371   2.082   4.660
 3989SOL    HW212534   3.457   2.166   4.550
 3990SOL     OW12535   1.901   2.939   4.024
 3990SOL    HW112536   2.000   2.928   4.015
 3990SOL    HW212537   1.861   2.853   4.056
 3991SOL     OW12538   2.737   3.508   4.061
 3991SOL    HW112539   2.660   3.473   4.007
 3991SOL    HW212540   2.705   3.579   4.123
 3992SOL     OW12541   2.092   2.490   5.699
 3992SOL    HW112542   1.999   2.488   5.736
 3992SOL    HW212543   2.093   2.451   5.607
 3993SOL     OW12544   2.087   2.137   6.582
 3993SOL    HW112545   2.122   2.120   6.674
 3993SOL    HW212546   1.999   2.092   6.570
 3994SOL     OW12547   1.881   2.230   6.233
 3994SOL    HW112548   1.799   2.273   6.272
 3994SOL    HW212549   1.853   2.157   6.170
 3995SOL     OW12550   2.431   3.137   6.751
 3995SOL    HW112551   2.338   3.130   6.714
 3995SOL    HW212552   2.442   3.226   6.795
 3996SOL     OW12553   3.417   3.373   6.289
 3996SOL    HW112554   3.360   3.357   6.370
 3996SOL    HW212555   3.358   3.383   6.209
 3997SOL     OW12556   2.997   2.565   6.303
 3997SOL    HW112557   3.054   2.643   6.278
 3997SOL    HW212558   2.937   2.591   6.379
 3998SOL     OW12559   3.617   2.469   5.817
 3998SOL    HW112560   3.605   2.456   5.718
 3998SOL    HW212561   3.587   2.388   5.866
 3999SOL     OW12562   2.630   3.006   6.609
 3999SOL    HW112563   2.552   3.023   6.669
 3999SOL    HW212564   2.664   3.093   6.573
 4000SOL     OW12565   2.548   3.023   7.389
 4000SOL    HW112566   2.608   3.102   7.403
 4000SOL    HW212567   2.462   3.054   7.348
 4001SOL     OW12568   2.197   3.297   6.647
 4001SOL    HW112569   2.119   3.266   6.594
 4001SOL    HW212570   2.255   3.355   6.590
 4002SOL     OW12571   3.322   3.367   6.925
 4002SOL    HW112572   3.346   3.461   6.951
 4002SOL    HW212573   3.306   3.313   7.007
 4003SOL     OW12574   2.300   2.254   7.085
 4003SOL    HW112575   2.382   2.198   7.094
 4003SOL    HW212576   2.219   2.196   7.089
 4004SOL     OW12577   3.465   2.309   6.323
 4004SOL    HW112578   3.391   2.355   6.273
 4004SOL    HW212579   3.516   2.377   6.376
 4005SOL     OW12580   2.093   3.575   6.069
 4005SOL    HW112581   2.127   3.652   6.123
 4005SOL    HW212582   2.137   3.575   5.979
 4006SOL     OW12583   2.989   3.203   7.276
 4006SOL    HW112584   3.036   3.203   7.364
 4006SOL    HW212585   2.941   3.116   7.265
 4007SOL     OW12586   2.092   3.296   6.124
 4007SOL    HW112587   2.066   3.392   6.124
 4007SOL    HW212588   2.021   3.242   6.169
 4008SOL     OW12589   2.102   2.953   6.472
 4008SOL    HW112590   2.116   2.869   6.524
 4008SOL    HW212591   2.047   3.017   6.527
 4009SOL     OW12592   2.482   3.648   7.025
 4009SOL    HW112593   2.390   3.631   7.060
 4009SOL    HW212594   2.510   3.740   7.051
 4010SOL     OW12595   2.468   2.826   5.709
 4010SOL    HW112596   2.475   2.910   5.655
 4010SOL    HW212597   2.514   2.839   5.797
 4011SOL     OW12598   3.456   1.976   7.066
 4011SOL    HW112599   3.438   2.043   6.994
 4011SOL    HW212600   3.453   2.022   7.155
 4012SOL     OW12601   1.984   2.505   6.149
 4012SOL    HW112602   1.939   2.417   6.166
 4012SOL    HW212603   1.983   2.559   6.233
 4013SOL     OW12604   3.704   3.629   5.945
 4013SOL    HW112605   3.758   3.600   6.025
 4013SOL    HW212606   3.734   3.719   5.916
 4014SOL     OW12607   1.889   3.458   5.703
 4014SOL    HW112608   1.870   3.362   5.724
 4014SOL    HW212609   1.856   3.516   5.778
 4015SOL     OW12610   3.551   2.784   6.198
 4015SOL    HW112611   3.646   2.755   6.206
 4015SOL    HW212612   3.543   2.849   6.123
 4016SOL     OW12613   3.503   2.970   6.018
 4016SOL    HW112614   3.589   2.972   5.966
 4016SOL    HW212615   3.517   3.017   6.106
 4017SOL     OW12616   1.975   2.599   7.183
 4017SOL    HW112617   2.063   2.586   7.228
 4017SOL    HW212618   1.962   2.696   7.161
 4018SOL     OW12619   2.475   3.227   6.312
 4018SOL    HW112620   2.426   3.140   6.321
 4018SOL    HW212621   2.452   3.270   6.225
 4019SOL     OW12622   3.155   3.090   7.009
 4019SOL    HW112623   3.192   3.017   6.951
 4019SOL    HW212624   3.207   3.095   7.094
 4020SOL     OW12625   2.671   1.866   6.088
 4020SOL    HW112626   2.711   1.957   6.079
 4020SOL    HW212627   2.571   1.874   6.094
 4021SOL     OW12628   2.059   2.838   6.850
 4021SOL    HW112629   2.148   2.793   6.836
 4021SOL    HW212630   1.986   2.773   6.831
 4022SOL     OW12631   3.387   2.861   5.776
 4022SOL    HW112632   3.324   2.785   5.789
 4022SOL    HW212633   3.435   2.879   5.862
 4023SOL     OW12634   3.049   3.654   7.202
 4023SOL    HW112635   3.073   3.714   7.126
 4023SOL    HW212636   3.056   3.559   7.172
 4024SOL     OW12637   2.179   2.113   7.387
 4024SOL    HW112638   2.250   2.184   7.393
 4024SOL    HW212639   2.091   2.152   7.415
 4025SOL     OW12640   3.328   3.279   6.539
 4025SOL    HW112641   3.269   3.285   6.619
 4025SOL    HW212642   3.313   3.191   6.493
 4026SOL     OW12643   3.529   3.576   6.158
 4026SOL    HW112644   3.488   3.553   6.070
 4026SOL    HW212645   3.511   3.502   6.223
 4027SOL     OW12646   3.143   2.207   6.530
 4027SOL    HW112647   3.057   2.157   6.517
 4027SOL    HW212648   3.205   2.153   6.586
 4028SOL     OW12649   3.438   3.524   5.893
 4028SOL    HW112650   3.527   3.570   5.896
 4028SOL    HW212651   3.417   3.500   5.798
 4029SOL     OW12652   3.256   2.331   7.260
 4029SOL    HW112653   3.236   2.374   7.348
 4029SOL    HW212654   3.334   2.269   7.269
 4030SOL     OW12655   2.853   2.272   6.828
 4030SOL    HW112656   2.776   2.306   6.882
 4030SOL    HW212657   2.819   2.221   6.749
 4031SOL     OW12658   1.938   2.673   6.375
 4031SOL    HW112659   2.037   2.661   6.384
 4031SOL    HW212660   1.914   2.768   6.396
 4032SOL     OW12661   1.992   3.683   7.157
 4032SOL    HW112662   1.982   3.668   7.256
 4032SOL    HW212663   1.906   3.719   7.121
 4033SOL     OW12664   2.727   2.210   5.781
 4033SOL    HW112665   2.786   2.273   5.732
 4033SOL    HW212666   2.746   2.116   5.752
 4034SOL     OW12667   3.581   2.447   7.417
 4034SOL    HW112668   3.555   2.536   7.381
 4034SOL    HW212669   3.579   2.379   7.344
 4035SOL     OW12670   3.224   3.006   6.131
 4035SOL    HW112671   3.307   2.977   6.083
 4035SOL    HW212672   3.175   3.073   6.075
 4036SOL     OW12673   2.412   2.058   6.471
 4036SOL    HW112674   2.407   2.053   6.571
 4036SOL    HW212675   2.414   2.154   6.442
 4037SOL     OW12676   2.870   3.318   6.063
 4037SOL    HW112677   2.824   3.390   6.011
 4037SOL    HW212678   2.866   3.338   6.161
 4038SOL     OW12679   2.213   3.663   6.439
 4038SOL    HW112680   2.263   3.577   6.445
 4038SOL    HW212681   2.278   3.740   6.436
 4039SOL     OW12682   3.657   2.928   6.459
 4039SOL    HW112683   3.595   2.913   6.383
 4039SOL    HW212684   3.605   2.939   6.544
 4040SOL     OW12685   3.089   3.412   7.092
 4040SOL    HW112686   3.095   3.335   7.156
 4040SOL    HW212687   3.037   3.386   7.012
 4041SOL     OW12688   2.183   2.805   5.828
 4041SOL    HW112689   2.265   2.844   5.786
 4041SOL    HW212690   2.156   2.723   5.779
 4042SOL     OW12691   3.320   2.597   6.314
 4042SOL    HW112692   3.315   2.532   6.389
 4042SOL    HW212693   3.400   2.656   6.327
 4043SOL     OW12694   2.323   3.128   7.313
 4043SOL    HW112695   2.273   3.129   7.227
 4043SOL    HW212696   2.260   3.110   7.389
 4044SOL     OW12697   2.973   3.638   5.823
 4044SOL    HW112698   2.913   3.576   5.873
 4044SOL    HW212699   3.004   3.594   5.738
 4045SOL     OW12700   2.064   2.147   7.084
 4045SOL    HW112701   1.984   2.207   7.071
 4045SOL    HW212702   2.054   2.098   7.170
 4046SOL     OW12703   3.494   3.239   5.667
 4046SOL    HW112704   3.462   3.333   5.657
 4046SOL    HW212705   3.418   3.176   5.655
 4047SOL     OW12706   2.326   3.605   5.909
 4047SOL    HW112707   2.359   3.644   5.995
 4047SOL    HW212708   2.402   3.598   5.844
 4048SOL     OW12709   3.262   1.969   6.012
 4048SOL    HW112710   3.238   1.932   5.922
 4048SOL    HW212711   3.361   1.985   6.016
 4049SOL     OW12712   2.111   3.647   6.827
 4049SOL    HW112713   2.168   3.582   6.877
 4049SOL    HW212714   2.095   3.614   6.734
 4050SOL     OW12715   2.802   3.560   6.490
 4050SOL    HW112716   2.882   3.503   6.511
 4050SOL    HW212717   2.753   3.520   6.413
 4051SOL     OW12718   2.244   2.562   6.066
 4051SOL    HW112719   2.289   2.472   6.063
 4051SOL    HW212720   2.150   2.551   6.099
 4052SOL     OW12721   3.409   2.084   7.315
 4052SOL    HW112722   3.404   2.121   7.407
 4052SOL    HW212723   3.337   2.015   7.303
 4053SOL     OW12724   2.476   1.984   5.703
 4053SOL    HW112725   2.574   1.962   5.710
 4053SOL    HW212726   2.445   1.967   5.610
 4054SOL     OW12727   2.643   2.126   7.335
 4054SOL    HW112728   2.710   2.065   7.378
 4054SOL    HW212729   2.570   2.145   7.400
 4055SOL     OW12730   2.750   3.376   6.781
 4055SOL    HW112731   2.727   3.351   6.687
 4055SOL    HW212732   2.811   3.307   6.820
 4056SOL     OW12733   3.213   2.452   7.019
 4056SOL    HW112734   3.241   2.409   7.104
 4056SOL    HW212735   3.238   2.548   7.020
 4057SOL     OW12736   2.665   3.264   6.510
 4057SOL    HW112737   2.755   3.278   6.468
 4057SOL    HW212738   2.594   3.266   6.439
 4058SOL     OW12739   2.784   2.365   6.485
 4058SOL    HW112740   2.759   2.356   6.389
 4058SOL    HW212741   2.832   2.283   6.516
 4059SOL     OW12742   2.401   1.926   6.098
 4059SOL    HW112743   2.320   1.927   6.156
 4059SOL    HW212744   2.404   2.009   6.043
 4060SOL     OW12745   3.296   3.050   5.627
 4060SOL    HW112746   3.328   2.974   5.684
 4060SOL    HW212747   3.204   3.077   5.657
 4061SOL     OW12748   2.159   1.897   5.757
 4061SOL    HW112749   2.208   1.981   5.736
 4061SOL    HW212750   2.221   1.832   5.802
 4062SOL     OW12751   2.797   2.098   6.066
 4062SOL    HW112752   2.749   2.139   5.988
 4062SOL    HW212753   2.896   2.096   6.047
 4063SOL     OW12754   2.938   2.545   7.050
 4063SOL    HW112755   2.858   2.484   7.053
 4063SOL    HW212756   3.019   2.492   7.026
 4064SOL     OW12757   3.089   3.432   6.379
 4064SOL    HW112758   3.110   3.506   6.314
 4064SOL    HW212759   3.157   3.432   6.452
 4065SOL     OW12760   2.321   3.014   6.327
 4065SOL    HW112761   2.250   2.987   6.392
 4065SOL    HW212762   2.295   2.986   6.234
 4066SOL     OW12763   3.133   3.659   6.177
 4066SOL    HW112764   3.177   3.723   6.113
 4066SOL    HW212765   3.083   3.711   6.247
 4067SOL     OW12766   2.894   2.411   5.602
 4067SOL    HW112767   2.853   2.493   5.563
 4067SOL    HW212768   2.958   2.437   5.675
 4068SOL     OW12769   1.940   2.418   6.972
 4068SOL    HW112770   2.032   2.417   6.931
 4068SOL    HW212771   1.934   2.492   7.039
 4069SOL     OW12772   2.423   2.084   6.733
 4069SOL    HW112773   2.461   2.000   6.770
 4069SOL    HW212774   2.335   2.103   6.777
 4070SOL     OW12775   2.728   2.316   6.228
 4070SOL    HW112776   2.696   2.388   6.166
 4070SOL    HW212777   2.752   2.235   6.175
 4071SOL     OW12778   2.879   1.901   6.339
 4071SOL    HW112779   2.807   1.906   6.270
 4071SOL    HW212780   2.855   1.832   6.408
 4072SOL     OW12781   3.291   3.035   6.453
 4072SOL    HW112782   3.236   2.951   6.446
 4072SOL    HW212783   3.317   3.064   6.361
 4073SOL     OW12784   3.328   2.452   6.578
 4073SOL    HW112785   3.298   2.357   6.585
 4073SOL    HW212786   3.401   2.468   6.644
 4074SOL     OW12787   3.719   2.695   5.963
 4074SOL    HW112788   3.761   2.631   6.027
 4074SOL    HW212789   3.681   2.644   5.885
 4075SOL     OW12790   2.350   3.247   5.760
 4075SOL    HW112791   2.263   3.232   5.807
 4075SOL    HW212792   2.333   3.273   5.665
 4076SOL     OW12793   3.526   3.142   6.243
 4076SOL    HW112794   3.625   3.150   6.257
 4076SOL    HW212795   3.481   3.226   6.274
 4077SOL     OW12796   3.252   2.437   5.664
 4077SOL    HW112797   3.198   2.416   5.745
 4077SOL    HW212798   3.343   2.396   5.673
 4078SOL     OW12799   2.389   2.118   5.914
 4078SOL    HW112800   2.416   2.059   5.839
 4078SOL    HW212801   2.389   2.213   5.883
 4079SOL     OW12802   3.616   3.085   7.174
 4079SOL    HW112803   3.707   3.046   7.161
 4079SOL    HW212804   3.624   3.181   7.198
 4080SOL     OW12805   2.926   3.209   6.926
 4080SOL    HW112806   2.846   3.186   6.981
 4080SOL    HW212807   3.009   3.183   6.975
 4081SOL     OW12808   3.454   3.491   7.211
 4081SOL    HW112809   3.481   3.525   7.121
 4081SOL    HW212810   3.533   3.453   7.257
 4082SOL     OW12811   2.973   3.057   6.686
 4082SOL    HW112812   2.933   3.101   6.767
 4082SOL    HW212813   2.932   3.094   6.603
 4083SOL     OW12814   3.500   2.961   6.665
 4083SOL    HW112815   3.505   3.042   6.724
 4083SOL    HW212816   3.414   2.963   6.614
 4084SOL     OW12817   2.777   1.951   6.988
 4084SOL    HW112818   2.802   1.931   6.893
 4084SOL    HW212819   2.849   2.007   7.030
 4085SOL     OW12820   2.842   2.978   7.305
 4085SOL    HW112821   2.743   2.984   7.315
 4085SOL    HW212822   2.865   2.898   7.249
 4086SOL     OW12823   2.272   2.675   6.837
 4086SOL    HW112824   2.358   2.687   6.887
 4086SOL    HW212825   2.230   2.588   6.864
 4087SOL     OW12826   3.136   2.248   6.848
 4087SOL    HW112827   3.157   2.322   6.912
 4087SOL    HW212828   3.047   2.265   6.805
 4088SOL     OW12829   1.926   3.426   6.917
 4088SOL    HW112830   1.880   3.508   6.883
 4088SOL    HW212831   2.024   3.445   6.926
 4089SOL     OW12832   2.229   2.962   6.087
 4089SOL    HW112833   2.222   3.045   6.031
 4089SOL    HW212834   2.233   2.882   6.027
 4090SOL     OW12835   2.428   2.399   6.451
 4090SOL    HW112836   2.440   2.465   6.377
 4090SOL    HW212837   2.474   2.433   6.534
 4091SOL     OW12838   3.114   3.210   5.974
 4091SOL    HW112839   3.164   3.287   6.014
 4091SOL    HW212840   3.019   3.212   6.006
 4092SOL     OW12841   3.134   3.307   6.728
 4092SOL    HW112842   3.181   3.320   6.815
 4092SOL    HW212843   3.068   3.233   6.737
 4093SOL     OW12844   3.444   2.501   6.058
 4093SOL    HW112845   3.413   2.562   6.131
 4093SOL    HW212846   3.494   2.553   5.989
 4094SOL     OW12847   2.216   3.372   6.915
 4094SOL    HW112848   2.195   3.328   6.828
 4094SOL    HW212849   2.313   3.398   6.918
 4095SOL     OW12850   2.264   2.613   7.184
 4095SOL    HW112851   2.332   2.668   7.137
 4095SOL    HW212852   2.304   2.525   7.211
 4096SOL     OW12853   3.449   2.641   7.256
 4096SOL    HW112854   3.357   2.679   7.251
 4096SOL    HW212855   3.509   2.688   7.191
 4097SOL     OW12856   2.875   1.967   7.356
 4097SOL    HW112857   2.881   2.052   7.304
 4097SOL    HW212858   2.907   1.891   7.299
 4098SOL     OW12859   2.366   1.912   7.326
 4098SOL    HW112860   2.324   1.855   7.256
 4098SOL    HW212861   2.300   1.981   7.358
 4099SOL     OW12862   3.222   2.724   6.631
 4099SOL    HW112863   3.147   2.724   6.565
 4099SOL    HW212864   3.259   2.632   6.640
 4100SOL     OW12865   3.071   2.387   5.861
 4100SOL    HW112866   3.084   2.303   5.915
 4100SOL    HW212867   3.042   2.461   5.921
 4101SOL     OW12868   2.169   2.075   6.817
 4101SOL    HW112869   2.146   2.112   6.907
 4101SOL    HW212870   2.139   1.980   6.811
 4102SOL     OW12871   1.899   3.172   6.868
 4102SOL    HW112872   1.952   3.123   6.936
 4102SOL    HW212873   1.921   3.270   6.873
 4103SOL     OW12874   3.590   2.797   7.440
 4103SOL    HW112875   3.544   2.790   7.351
 4103SOL    HW212876   3.528   2.841   7.506
 4104SOL     OW12877   2.169   1.925   6.204
 4104SOL    HW112878   2.158   2.019   6.237
 4104SOL    HW212879   2.164   1.862   6.281
 4105SOL     OW12880   3.484   2.229   5.960
 4105SOL    HW112881   3.486   2.153   6.024
 4105SOL    HW212882   3.436   2.306   6.000
 4106SOL     OW12883   2.842   3.435   7.286
 4106SOL    HW112884   2.822   3.479   7.198
 4106SOL    HW212885   2.881   3.344   7.270
 4107SOL     OW12886   3.721   3.380   7.191
 4107SOL    HW112887   3.735   3.407   7.096
 4107SOL    HW212888   3.804   3.402   7.244
 4108SOL     OW12889   2.212   2.760   7.390
 4108SOL    HW112890   2.288   2.804   7.438
 4108SOL    HW212891   2.247   2.713   7.308
 4109SOL     OW12892   3.402   2.136   5.711
 4109SOL    HW112893   3.341   2.061   5.734
 4109SOL    HW212894   3.424   2.188   5.794
 4110SOL     OW12895   3.165   2.700   5.628
 4110SOL    HW112896   3.199   2.607   5.643
 4110SOL    HW212897   3.183   2.727   5.533
 4111SOL     OW12898   2.930   3.195   6.435
 4111SOL    HW112899   2.937   3.111   6.380
 4111SOL    HW212900   2.992   3.264   6.399
 4112SOL     OW12901   2.181   2.672   6.535
 4112SOL    HW112902   2.274   2.708   6.540
 4112SOL    HW212903   2.175   2.587   6.587
 4113SOL     OW12904   2.201   2.371   6.592
 4113SOL    HW112905   2.149   2.288   6.575
 4113SOL    HW212906   2.278   2.376   6.528
 4114SOL     OW12907   3.000   2.242   7.264
 4114SOL    HW112908   2.955   2.305   7.328
 4114SOL    HW212909   3.093   2.273   7.247
 4115SOL     OW12910   3.022   2.069   7.063
 4115SOL    HW112911   3.022   2.133   7.140
 4115SOL    HW212912   3.050   2.117   6.980
 4116SOL     OW12913   1.870   3.188   5.786
 4116SOL    HW112914   1.777   3.209   5.755
 4116SOL    HW212915   1.880   3.089   5.799
 4117SOL     OW12916   1.950   3.663   6.513
 4117SOL    HW112917   1.908   3.577   6.486
 4117SOL    HW212918   2.044   3.666   6.479
 4118SOL     OW12919   2.366   3.430   6.496
 4118SOL    HW112920   2.432   3.504   6.505
 4118SOL    HW212921   2.410   3.351   6.454
 4119SOL     OW12922   1.902   2.406   6.700
 4119SOL    HW112923   1.987   2.373   6.659
 4119SOL    HW212924   1.915   2.421   6.798
 4120SOL     OW12925   2.051   2.382   7.308
 4120SOL    HW112926   2.110   2.342   7.238
 4120SOL    HW212927   1.993   2.453   7.267
 4121SOL     OW12928   3.231   2.812   7.246
 4121SOL    HW112929   3.270   2.901   7.266
 4121SOL    HW212930   3.241   2.792   7.149
 4122SOL     OW12931   2.677   2.434   5.911
 4122SOL    HW112932   2.684   2.345   5.865
 4122SOL    HW212933   2.583   2.468   5.903
 4123SOL     OW12934   3.519   2.466   6.792
 4123SOL    HW112935   3.481   2.397   6.854
 4123SOL    HW212936   3.601   2.430   6.748
 4124SOL     OW12937   2.114   3.426   7.330
 4124SOL    HW112938   2.084   3.483   7.406
 4124SOL    HW212939   2.107   3.329   7.356
 4125SOL     OW12940   2.533   2.326   6.855
 4125SOL    HW112941   2.499   2.237   6.825
 4125SOL    HW212942   2.559   2.380   6.775
 4126SOL     OW12943   2.792   3.540   7.051
 4126SOL    HW112944   2.768   3.522   6.956
 4126SOL    HW212945   2.822   3.634   7.061
 4127SOL     OW12946   2.335   2.362   5.777
 4127SOL    HW112947   2.396   2.442   5.781
 4127SOL    HW212948   2.240   2.393   5.784
 4128SOL     OW12949   2.021   2.999   7.052
 4128SOL    HW112950   2.043   2.938   7.128
 4128SOL    HW212951   2.031   2.950   6.966
 4129SOL     OW12952   3.209   2.921   6.820
 4129SOL    HW112953   3.233   2.858   6.746
 4129SOL    HW212954   3.119   2.961   6.802
 4130SOL     OW12955   3.164   2.717   5.895
 4130SOL    HW112956   3.078   2.686   5.937
 4130SOL    HW212957   3.160   2.703   5.796
 4131SOL     OW12958   3.621   3.609   6.740
 4131SOL    HW112959   3.682   3.639   6.667
 4131SOL    HW212960   3.583   3.520   6.718
 4132SOL     OW12961   3.114   3.593   6.714
 4132SOL    HW112962   3.198   3.598   6.660
 4132SOL    HW212963   3.091   3.497   6.732
 4133SOL     OW12964   1.945   3.120   6.608
 4133SOL    HW112965   1.940   3.119   6.708
 4133SOL    HW212966   1.862   3.079   6.570
 4134SOL     OW12967   2.550   3.524   7.302
 4134SOL    HW112968   2.494   3.605   7.311
 4134SOL    HW212969   2.602   3.528   7.216
 4135SOL     OW12970   3.588   1.997   6.109
 4135SOL    HW112971   3.661   1.980   6.042
 4135SOL    HW212972   3.557   1.910   6.147
 4136SOL     OW12973   3.250   3.435   6.063
 4136SOL    HW112974   3.317   3.447   5.989
 4136SOL    HW212975   3.210   3.524   6.086
 4137SOL     OW12976   1.992   3.656   7.437
 4137SOL    HW112977   1.951   3.582   7.490
 4137SOL    HW212978   2.056   3.707   7.495
 4138SOL     OW12979   3.142   2.789   6.258
 4138SOL    HW112980   3.202   2.708   6.260
 4138SOL    HW212981   3.182   2.858   6.198
 4139SOL     OW12982   2.692   3.135   7.008
 4139SOL    HW112983   2.687   3.168   7.103
 4139SOL    HW212984   2.606   3.154   6.962
 4140SOL     OW12985   2.534   3.478   5.740
 4140SOL    HW112986   2.543   3.488   5.641
 4140SOL    HW212987   2.494   3.389   5.761
 4141SOL     OW12988   3.512   3.582   6.980
 4141SOL    HW112989   3.565   3.592   6.896
 4141SOL    HW212990   3.485   3.672   7.014
 4142SOL     OW12991   3.703   2.037   6.549
 4142SOL    HW112992   3.742   1.952   6.513
 4142SOL    HW212993   3.605   2.039   6.530
 4143SOL     OW12994   2.125   2.188   6.306
 4143SOL    HW112995   2.046   2.239   6.272
 4143SOL    HW212996   2.116   2.173   6.404
 4144SOL     OW12997   3.056   3.474   5.617
 4144SOL    HW112998   3.062   3.381   5.654
 4144SOL    HW212999   2.997   3.474   5.537
 4145SOL     OW13000   3.366   3.469   5.630
 4145SOL    HW113001   3.274   3.506   5.637
 4145SOL    HW213002   3.404   3.489   5.540
 4146SOL     OW13003   2.234   3.150   7.076
 4146SOL    HW113004   2.221   3.243   7.042
 4146SOL    HW213005   2.150   3.098   7.063
 4147SOL     OW13006   3.476   3.154   6.875
 4147SOL    HW113007   3.536   3.157   6.955
 4147SOL    HW213008   3.401   3.218   6.888
 4148SOL     OW13009   2.901   2.960   6.282
 4148SOL    HW113010   2.831   2.913   6.336
 4148SOL    HW213011   2.960   2.892   6.239
 4149SOL     OW13012   2.876   2.098   6.557
 4149SOL    HW113013   2.868   2.062   6.464
 4149SOL    HW213014   2.874   2.022   6.622
 4150SOL     OW13015   2.452   3.349   6.077
 4150SOL    HW113016   2.494   3.291   6.007
 4150SOL    HW213017   2.408   3.428   6.033
 4151SOL     OW13018   3.571   2.247   6.967
 4151SOL    HW113019   3.644   2.316   6.971
 4151SOL    HW213020   3.599   2.172   6.908
 4152SOL     OW13021   2.117   3.210   5.876
 4152SOL    HW113022   2.021   3.211   5.849
 4152SOL    HW213023   2.129   3.263   5.960
 4153SOL     OW13024   1.967   2.875   7.312
 4153SOL    HW113025   1.890   2.842   7.366
 4153SOL    HW213026   2.052   2.845   7.354
 4154SOL     OW13027   2.534   2.065   7.075
 4154SOL    HW113028   2.624   2.049   7.035
 4154SOL    HW213029   2.542   2.070   7.174
 4155SOL     OW13030   1.937   2.207   5.619
 4155SOL    HW113031   1.845   2.179   5.590
 4155SOL    HW213032   1.968   2.284   5.563
 4156SOL     OW13033   3.302   2.718   6.984
 4156SOL    HW113034   3.245   2.770   6.921
 4156SOL    HW213035   3.398   2.730   6.960
 4157SOL     OW13036   1.934   2.028   5.904
 4157SOL    HW113037   1.917   2.111   5.850
 4157SOL    HW213038   2.024   1.991   5.882
 4158SOL     OW13039   3.045   3.197   5.705
 4158SOL    HW113040   2.946   3.186   5.707
 4158SOL    HW213041   3.079   3.212   5.798
 4159SOL     OW13042   3.355   3.629   6.545
 4159SOL    HW113043   3.388   3.693   6.476
 4159SOL    HW213044   3.421   3.623   6.620
 4160SOL     OW13045   3.312   3.082   7.219
 4160SOL    HW113046   3.303   3.072   7.318
 4160SOL    HW213047   3.408   3.075   7.193
 4161SOL     OW13048   2.252   3.603   7.146
 4161SOL    HW113049   2.161   3.644   7.144
 4161SOL    HW213050   2.245   3.509   7.178
 4162SOL     OW13051   3.536   2.745   6.840
 4162SOL    HW113052   3.509   2.656   6.803
 4162SOL    HW213053   3.537   2.813   6.767
 4163SOL     OW13054   3.087   2.187   6.035
 4163SOL    HW113055   3.152   2.113   6.024
 4163SOL    HW213056   3.107   2.237   6.119
 4164SOL     OW13057   3.639   2.204   7.228
 4164SOL    HW113058   3.622   2.235   7.134
 4164SOL    HW213059   3.555   2.167   7.266
 4165SOL     OW13060   3.592   2.796   7.103
 4165SOL    HW113061   3.630   2.887   7.118
 4165SOL    HW213062   3.584   2.779   7.004
 4166SOL     OW13063   2.721   3.236   5.602
 4166SOL    HW113064   2.675   3.251   5.690
 4166SOL    HW213065   2.765   3.321   5.572
 4167SOL     OW13066   2.523   3.652   6.539
 4167SOL    HW113067   2.477   3.740   6.526
 4167SOL    HW213068   2.622   3.664   6.532
 4168SOL     OW13069   2.945   2.846   5.673
 4168SOL    HW113070   2.922   2.899   5.591
 4168SOL    HW213071   3.026   2.790   5.654
 4169SOL     OW13072   3.723   3.431   6.437
 4169SOL    HW113073   3.652   3.419   6.367
 4169SOL    HW213074   3.724   3.352   6.497
 4170SOL     OW13075   2.083   3.176   7.430
 4170SOL    HW113076   2.018   3.103   7.409
 4170SOL    HW213077   2.087   3.190   7.528
 4171SOL     OW13078   1.941   3.102   6.239
 4171SOL    HW113079   1.940   3.055   6.327
 4171SOL    HW213080   2.023   3.074   6.188
 4172SOL     OW13081   2.534   3.253   7.210
 4172SOL    HW113082   2.456   3.203   7.248
 4172SOL    HW213083   2.531   3.348   7.241
 4173SOL     OW13084   3.686   2.054   6.813
 4173SOL    HW113085   3.682   1.964   6.857
 4173SOL    HW213086   3.689   2.043   6.714
 4174SOL     OW13087   2.290   2.286   6.106
 4174SOL    HW113088   2.320   2.214   6.044
 4174SOL    HW213089   2.251   2.246   6.189
 4175SOL     OW13090   3.567   3.349   6.690
 4175SOL    HW113091   3.474   3.324   6.663
 4175SOL    HW213092   3.593   3.299   6.772
 4176SOL     OW13093   2.179   2.409   6.866
 4176SOL    HW113094   2.217   2.350   6.938
 4176SOL    HW213095   2.219   2.383   6.778
 4177SOL     OW13096   2.674   3.448   6.273
 4177SOL    HW113097   2.706   3.458   6.179
 4177SOL    HW213098   2.595   3.386   6.275
 4178SOL     OW13099   3.286   2.076   6.698
 4178SOL    HW113100   3.338   2.011   6.753
 4178SOL    HW213101   3.237   2.139   6.759
 4179SOL     OW13102   2.863   1.896   6.740
 4179SOL    HW113103   2.800   1.824   6.709
 4179SOL    HW213104   2.956   1.860   6.740
 4180SOL     OW13105   2.632   3.192   5.887
 4180SOL    HW113106   2.586   3.105   5.904
 4180SOL    HW213107   2.723   3.189   5.928
 4181SOL     OW13108   2.480   3.429   6.870
 4181SOL    HW113109   2.475   3.511   6.927
 4181SOL    HW213110   2.569   3.426   6.825
 4182SOL     OW13111   3.214   1.914   5.754
 4182SOL    HW113112   3.249   1.873   5.670
 4182SOL    HW213113   3.124   1.876   5.774
 4183SOL     OW13114   3.162   2.315   6.277
 4183SOL    HW113115   3.103   2.395   6.281
 4183SOL    HW213116   3.177   2.280   6.370
 4184SOL     OW13117   3.455   2.083   6.468
 4184SOL    HW113118   3.371   2.082   6.522
 4184SOL    HW213119   3.457   2.166   6.412
 4185SOL     OW13120   1.901   2.939   5.886
 4185SOL    HW113121   2.000   2.928   5.877
 4185SOL    HW213122   1.861   2.853   5.918
 4186SOL     OW13123   2.737   3.508   5.923
 4186SOL    HW113124   2.660   3.473   5.869
 4186SOL    HW213125   2.705   3.579   5.985
 4187SOL     OW13126   2.092   2.490   7.561
 4187SOL    HW113127   1.999   2.488   7.598
 4187SOL    HW213128   2.093   2.451   7.469
 4188SOL     OW13129   3.617   2.469   7.679
 4188SOL    HW113130   3.605   2.456   7.580
 4188SOL    HW213131   3.587   2.388   7.728
 4189SOL     OW13132   2.093   3.575   7.931
 4189SOL    HW113133   2.127   3.652   7.985
 4189SOL    HW213134   2.137   3.575   7.841
 4190SOL     OW13135   2.092   3.296   7.986
 4190SOL    HW113136   2.066   3.392   7.986
 4190SOL    HW213137   2.021   3.242   8.031
 4191SOL     OW13138   2.468   2.826   7.571
 4191SOL    HW113139   2.475   2.910   7.517
 4191SOL    HW213140   2.514   2.839   7.659
 4192SOL     OW13141   3.704   3.629   7.807
 4192SOL    HW113142   3.758   3.600   7.887
 4192SOL    HW213143   3.734   3.719   7.778
 4193SOL     OW13144   1.889   3.458   7.565
 4193SOL    HW113145   1.870   3.362   7.586
 4193SOL    HW213146   1.856   3.516   7.640
 4194SOL     OW13147   3.551   2.784   8.060
 4194SOL    HW113148   3.646   2.755   8.068
 4194SOL    HW213149   3.543   2.849   7.985
 4195SOL     OW13150   3.503   2.970   7.880
 4195SOL    HW113151   3.589   2.972   7.828
 4195SOL    HW213152   3.517   3.017   7.968
 4196SOL     OW13153   2.671   1.866   7.950
 4196SOL    HW113154   2.711   1.957   7.941
 4196SOL    HW213155   2.571   1.874   7.956
 4197SOL     OW13156   3.387   2.861   7.638
 4197SOL    HW113157   3.324   2.785   7.651
 4197SOL    HW213158   3.435   2.879   7.724
 4198SOL     OW13159   3.438   3.524   7.755
 4198SOL    HW113160   3.527   3.570   7.758
 4198SOL    HW213161   3.417   3.500   7.660
 4199SOL     OW13162   1.938   2.673   8.237
 4199SOL    HW113163   2.037   2.661   8.246
 4199SOL    HW213164   1.914   2.768   8.258
 4200SOL     OW13165   2.727   2.210   7.643
 4200SOL    HW113166   2.786   2.273   7.594
 4200SOL    HW213167   2.746   2.116   7.614
 4201SOL     OW13168   2.183   2.805   7.690
 4201SOL    HW113169   2.265   2.844   7.648
 4201SOL    HW213170   2.156   2.723   7.641
 4202SOL     OW13171   2.973   3.638   7.685
 4202SOL    HW113172   2.913   3.576   7.735
 4202SOL    HW213173   3.004   3.594   7.600
 4203SOL     OW13174   3.494   3.239   7.529
 4203SOL    HW113175   3.462   3.333   7.519
 4203SOL    HW213176   3.418   3.176   7.517
 4204SOL     OW13177   2.326   3.605   7.771
 4204SOL    HW113178   2.359   3.644   7.857
 4204SOL    HW213179   2.402   3.598   7.706
 4205SOL     OW13180   3.262   1.969   7.874
 4205SOL    HW113181   3.238   1.932   7.784
 4205SOL    HW213182   3.361   1.985   7.878
 4206SOL     OW13183   2.244   2.562   7.928
 4206SOL    HW113184   2.289   2.472   7.925
 4206SOL    HW213185   2.150   2.551   7.961
 4207SOL     OW13186   2.476   1.984   7.565
 4207SOL    HW113187   2.574   1.962   7.572
 4207SOL    HW213188   2.445   1.967   7.472
 4208SOL     OW13189   2.401   1.926   7.960
 4208SOL    HW113190   2.320   1.927   8.018
 4208SOL    HW213191   2.404   2.009   7.905
 4209SOL     OW13192   3.296   3.050   7.489
 4209SOL    HW113193   3.328   2.974   7.546
 4209SOL    HW213194   3.204   3.077   7.519
 4210SOL     OW13195   2.159   1.897   7.619
 4210SOL    HW113196   2.208   1.981   7.598
 4210SOL    HW213197   2.221   1.832   7.664
 4211SOL     OW13198   2.797   2.098   7.928
 4211SOL    HW113199   2.749   2.139   7.850
 4211SOL    HW213200   2.896   2.096   7.909
 4212SOL     OW13201   2.321   3.014   8.189
 4212SOL    HW113202   2.250   2.987   8.254
 4212SOL    HW213203   2.295   2.986   8.096
 4213SOL     OW13204   3.133   3.659   8.039
 4213SOL    HW113205   3.177   3.723   7.975
 4213SOL    HW213206   3.083   3.711   8.109
 4214SOL     OW13207   2.894   2.411   7.464
 4214SOL    HW113208   2.853   2.493   7.425
 4214SOL    HW213209   2.958   2.437   7.537
 4215SOL     OW13210   3.719   2.695   7.825
 4215SOL    HW113211   3.761   2.631   7.889
 4215SOL    HW213212   3.681   2.644   7.747
 4216SOL     OW13213   2.350   3.247   7.622
 4216SOL    HW113214   2.263   3.232   7.669
 4216SOL    HW213215   2.333   3.273   7.527
 4217SOL     OW13216   3.252   2.437   7.526
 4217SOL    HW113217   3.198   2.416   7.607
 4217SOL    HW213218   3.343   2.396   7.535
 4218SOL     OW13219   2.389   2.118   7.776
 4218SOL    HW113220   2.416   2.059   7.701
 4218SOL    HW213221   2.389   2.213   7.745
 4219SOL     OW13222   2.567   2.912   7.816
 4219SOL    HW113223   2.553   2.919   7.915
 4219SOL    HW213224   2.651   2.861   7.798
 4220SOL     OW13225   2.229   2.962   7.949
 4220SOL    HW113226   2.222   3.045   7.893
 4220SOL    HW213227   2.233   2.882   7.889
 4221SOL     OW13228   3.114   3.210   7.836
 4221SOL    HW113229   3.164   3.287   7.876
 4221SOL    HW213230   3.019   3.212   7.868
 4222SOL     OW13231   3.444   2.501   7.920
 4222SOL    HW113232   3.413   2.562   7.993
 4222SOL    HW213233   3.494   2.553   7.851
 4223SOL     OW13234   3.071   2.387   7.723
 4223SOL    HW113235   3.084   2.303   7.777
 4223SOL    HW213236   3.042   2.461   7.783
 4224SOL     OW13237   3.484   2.229   7.822
 4224SOL    HW113238   3.486   2.153   7.886
 4224SOL    HW213239   3.436   2.306   7.862
 4225SOL     OW13240   3.402   2.136   7.573
 4225SOL    HW113241   3.341   2.061   7.596
 4225SOL    HW213242   3.424   2.188   7.656
 4226SOL     OW13243   3.165   2.700   7.490
 4226SOL    HW113244   3.199   2.607   7.505
 4226SOL    HW213245   3.183   2.727   7.395
 4227SOL     OW13246   1.870   3.188   7.648
 4227SOL    HW113247   1.777   3.209   7.617
 4227SOL    HW213248   1.880   3.089   7.661
 4228SOL     OW13249   2.335   2.362   7.639
 4228SOL    HW113250   2.396   2.442   7.643
 4228SOL    HW213251   2.240   2.393   7.646
 4229SOL     OW13252   3.164   2.717   7.757
 4229SOL    HW113253   3.078   2.686   7.799
 4229SOL    HW213254   3.160   2.703   7.658
 4230SOL     OW13255   3.588   1.997   7.971
 4230SOL    HW113256   3.661   1.980   7.904
 4230SOL    HW213257   3.557   1.910   8.009
 4231SOL     OW13258   3.250   3.435   7.925
 4231SOL    HW113259   3.317   3.447   7.851
 4231SOL    HW213260   3.210   3.524   7.948
 4232SOL     OW13261   2.534   3.478   7.602
 4232SOL    HW113262   2.543   3.488   7.503
 4232SOL    HW213263   2.494   3.389   7.623
 4233SOL     OW13264   3.056   3.474   7.479
 4233SOL    HW113265   3.062   3.381   7.516
 4233SOL    HW213266   2.997   3.474   7.399
 4234SOL     OW13267   3.366   3.469   7.492
 4234SOL    HW113268   3.274   3.506   7.499
 4234SOL    HW213269   3.404   3.489   7.402
 4235SOL     OW13270   2.452   3.349   7.939
 4235SOL    HW113271   2.494   3.291   7.869
 4235SOL    HW213272   2.408   3.428   7.895
 4236SOL     OW13273   2.117   3.210   7.738
 4236SOL    HW113274   2.021   3.211   7.711
 4236SOL    HW213275   2.129   3.263   7.822
 4237SOL     OW13276   1.937   2.207   7.481
 4237SOL    HW113277   1.845   2.179   7.452
 4237SOL    HW213278   1.968   2.284   7.425
 4238SOL     OW13279   1.934   2.028   7.766
 4238SOL    HW113280   1.917   2.111   7.712
 4238SOL    HW213281   2.024   1.991   7.744
 4239SOL     OW13282   3.045   3.197   7.567
 4239SOL    HW113283   2.946   3.186   7.569
 4239SOL    HW213284   3.079   3.212   7.660
 4240SOL     OW13285   3.087   2.187   7.897
 4240SOL    HW113286   3.152   2.113   7.886
 4240SOL    HW213287   3.107   2.237   7.981
 4241SOL     OW13288   2.721   3.236   7.464
 4241SOL    HW113289   2.675   3.251   7.552
 4241SOL    HW213290   2.765   3.321   7.434
 4242SOL     OW13291   2.945   2.846   7.535
 4242SOL    HW113292   2.922   2.899   7.453
 4242SOL    HW213293   3.026   2.790   7.516
 4243SOL     OW13294   2.290   2.286   7.968
 4243SOL    HW113295   2.320   2.214   7.906
 4243SOL    HW213296   2.251   2.246   8.051
 4244SOL     OW13297   2.632   3.192   7.749
 4244SOL    HW113298   2.586   3.105   7.766
 4244SOL    HW213299   2.723   3.189   7.790
 4245SOL     OW13300   3.214   1.914   7.616
 4245SOL    HW113301   3.249   1.873   7.532
 4245SOL    HW213302   3.124   1.876   7.636
 4246SOL     OW13303   1.901   2.939   7.748
 4246SOL    HW113304   2.000   2.928   7.739
 4246SOL    HW213305   1.861   2.853   7.780
 4247SOL     OW13306   2.737   3.508   7.785
 4247SOL    HW113307   2.660   3.473   7.731
 4247SOL    HW213308   2.705   3.579   7.847
 4248SOL     OW13309   2.092   4.352   0.113
 4248SOL    HW113310   1.999   4.350   0.150
 4248SOL    HW213311   2.093   4.313   0.021
 4249SOL     OW13312   2.087   3.999   0.996
 4249SOL    HW113313   2.122   3.982   1.088
 4249SOL    HW213314   1.999   3.954   0.984
 4250SOL     OW13315   1.881   4.092   0.647
 4250SOL    HW113316   1.799   4.135   0.686
 4250SOL    HW213317   1.853   4.019   0.584
 4251SOL     OW13318   2.431   4.999   1.165
 4251SOL    HW113319   2.338   4.992   1.128
 4251SOL    HW213320   2.442   5.088   1.209
 4252SOL     OW13321   3.417   5.235   0.703
 4252SOL    HW113322   3.360   5.219   0.784
 4252SOL    HW213323   3.358   5.245   0.623
 4253SOL     OW13324   2.997   4.427   0.717
 4253SOL    HW113325   3.054   4.505   0.692
 4253SOL    HW213326   2.937   4.453   0.793
 4254SOL     OW13327   3.617   4.331   0.231
 4254SOL    HW113328   3.605   4.318   0.132
 4254SOL    HW213329   3.587   4.250   0.280
 4255SOL     OW13330   2.630   4.868   1.023
 4255SOL    HW113331   2.552   4.885   1.083
 4255SOL    HW213332   2.664   4.955   0.987
 4256SOL     OW13333   2.712   4.522   1.823
 4256SOL    HW113334   2.708   4.598   1.888
 4256SOL    HW213335   2.734   4.558   1.732
 4257SOL     OW13336   2.547   4.736   0.665
 4257SOL    HW113337   2.616   4.720   0.735
 4257SOL    HW213338   2.474   4.793   0.703
 4258SOL     OW13339   2.548   4.885   1.803
 4258SOL    HW113340   2.608   4.964   1.817
 4258SOL    HW213341   2.462   4.916   1.762
 4259SOL     OW13342   2.197   5.159   1.061
 4259SOL    HW113343   2.119   5.128   1.008
 4259SOL    HW213344   2.255   5.217   1.004
 4260SOL     OW13345   3.322   5.229   1.339
 4260SOL    HW113346   3.346   5.323   1.365
 4260SOL    HW213347   3.306   5.175   1.421
 4261SOL     OW13348   2.300   4.116   1.499
 4261SOL    HW113349   2.382   4.060   1.508
 4261SOL    HW213350   2.219   4.058   1.503
 4262SOL     OW13351   3.465   4.171   0.737
 4262SOL    HW113352   3.391   4.217   0.687
 4262SOL    HW213353   3.516   4.239   0.790
 4263SOL     OW13354   2.989   5.065   1.690
 4263SOL    HW113355   3.036   5.065   1.778
 4263SOL    HW213356   2.941   4.978   1.679
 4264SOL     OW13357   2.092   5.158   0.538
 4264SOL    HW113358   2.066   5.254   0.538
 4264SOL    HW213359   2.021   5.104   0.583
 4265SOL     OW13360   2.102   4.815   0.886
 4265SOL    HW113361   2.116   4.731   0.938
 4265SOL    HW213362   2.047   4.879   0.941
 4266SOL     OW13363   2.468   4.688   0.123
 4266SOL    HW113364   2.475   4.772   0.069
 4266SOL    HW213365   2.514   4.701   0.211
 4267SOL     OW13366   3.456   3.838   1.480
 4267SOL    HW113367   3.438   3.905   1.408
 4267SOL    HW213368   3.453   3.884   1.569
 4268SOL     OW13369   1.984   4.367   0.563
 4268SOL    HW113370   1.939   4.279   0.580
 4268SOL    HW213371   1.983   4.421   0.647
 4269SOL     OW13372   1.889   5.320   0.117
 4269SOL    HW113373   1.870   5.224   0.138
 4269SOL    HW213374   1.856   5.378   0.192
 4270SOL     OW13375   3.551   4.646   0.612
 4270SOL    HW113376   3.646   4.617   0.620
 4270SOL    HW213377   3.543   4.711   0.537
 4271SOL     OW13378   3.503   4.832   0.432
 4271SOL    HW113379   3.589   4.834   0.380
 4271SOL    HW213380   3.517   4.879   0.520
 4272SOL     OW13381   1.975   4.461   1.597
 4272SOL    HW113382   2.063   4.448   1.642
 4272SOL    HW213383   1.962   4.558   1.575
 4273SOL     OW13384   2.475   5.089   0.726
 4273SOL    HW113385   2.426   5.002   0.735
 4273SOL    HW213386   2.452   5.132   0.639
 4274SOL     OW13387   3.155   4.952   1.423
 4274SOL    HW113388   3.192   4.879   1.365
 4274SOL    HW213389   3.207   4.957   1.508
 4275SOL     OW13390   2.671   3.728   0.502
 4275SOL    HW113391   2.711   3.819   0.493
 4275SOL    HW213392   2.571   3.736   0.508
 4276SOL     OW13393   2.059   4.700   1.264
 4276SOL    HW113394   2.148   4.655   1.250
 4276SOL    HW213395   1.986   4.635   1.245
 4277SOL     OW13396   3.387   4.723   0.190
 4277SOL    HW113397   3.324   4.647   0.203
 4277SOL    HW213398   3.435   4.741   0.276
 4278SOL     OW13399   2.179   3.975   1.801
 4278SOL    HW113400   2.250   4.046   1.807
 4278SOL    HW213401   2.091   4.014   1.829
 4279SOL     OW13402   3.328   5.141   0.953
 4279SOL    HW113403   3.269   5.147   1.033
 4279SOL    HW213404   3.313   5.053   0.907
 4280SOL     OW13405   2.460   4.453   0.270
 4280SOL    HW113406   2.484   4.522   0.202
 4280SOL    HW213407   2.382   4.486   0.324
 4281SOL     OW13408   3.143   4.069   0.944
 4281SOL    HW113409   3.057   4.019   0.931
 4281SOL    HW213410   3.205   4.015   1.000
 4282SOL     OW13411   2.669   4.329   1.465
 4282SOL    HW113412   2.622   4.326   1.554
 4282SOL    HW213413   2.618   4.274   1.399
 4283SOL     OW13414   3.256   4.193   1.674
 4283SOL    HW113415   3.236   4.236   1.762
 4283SOL    HW213416   3.334   4.131   1.683
 4284SOL     OW13417   2.835   4.614   1.572
 4284SOL    HW113418   2.881   4.530   1.543
 4284SOL    HW213419   2.779   4.648   1.497
 4285SOL     OW13420   2.853   4.134   1.242
 4285SOL    HW113421   2.776   4.168   1.296
 4285SOL    HW213422   2.819   4.083   1.163
 4286SOL     OW13423   2.903   4.425   0.429
 4286SOL    HW113424   2.929   4.421   0.525
 4286SOL    HW213425   2.818   4.374   0.415
 4287SOL     OW13426   1.938   4.535   0.789
 4287SOL    HW113427   2.037   4.523   0.798
 4287SOL    HW213428   1.914   4.630   0.810
 4288SOL     OW13429   2.727   4.072   0.195
 4288SOL    HW113430   2.786   4.135   0.146
 4288SOL    HW213431   2.746   3.978   0.166
 4289SOL     OW13432   3.581   4.309   1.831
 4289SOL    HW113433   3.555   4.398   1.795
 4289SOL    HW213434   3.579   4.241   1.758
 4290SOL     OW13435   3.224   4.868   0.545
 4290SOL    HW113436   3.307   4.839   0.497
 4290SOL    HW213437   3.175   4.935   0.489
 4291SOL     OW13438   2.412   3.920   0.885
 4291SOL    HW113439   2.407   3.915   0.985
 4291SOL    HW213440   2.414   4.016   0.856
 4292SOL     OW13441   2.870   5.180   0.477
 4292SOL    HW113442   2.824   5.252   0.425
 4292SOL    HW213443   2.866   5.200   0.575
 4293SOL     OW13444   3.657   4.790   0.873
 4293SOL    HW113445   3.595   4.775   0.797
 4293SOL    HW213446   3.605   4.801   0.958
 4294SOL     OW13447   3.089   5.274   1.506
 4294SOL    HW113448   3.095   5.197   1.570
 4294SOL    HW213449   3.037   5.248   1.426
 4295SOL     OW13450   2.183   4.667   0.242
 4295SOL    HW113451   2.265   4.706   0.200
 4295SOL    HW213452   2.156   4.585   0.193
 4296SOL     OW13453   3.320   4.459   0.728
 4296SOL    HW113454   3.315   4.394   0.803
 4296SOL    HW213455   3.400   4.518   0.741
 4297SOL     OW13456   2.323   4.990   1.727
 4297SOL    HW113457   2.273   4.991   1.641
 4297SOL    HW213458   2.260   4.972   1.803
 4298SOL     OW13459   2.973   5.500   0.237
 4298SOL    HW113460   2.913   5.438   0.287
 4298SOL    HW213461   3.004   5.456   0.152
 4299SOL     OW13462   2.064   4.009   1.498
 4299SOL    HW113463   1.984   4.069   1.485
 4299SOL    HW213464   2.054   3.960   1.584
 4300SOL     OW13465   3.494   5.101   0.081
 4300SOL    HW113466   3.462   5.195   0.071
 4300SOL    HW213467   3.418   5.038   0.069
 4301SOL     OW13468   3.262   3.831   0.426
 4301SOL    HW113469   3.238   3.794   0.336
 4301SOL    HW213470   3.361   3.847   0.430
 4302SOL     OW13471   2.244   4.424   0.480
 4302SOL    HW113472   2.289   4.334   0.477
 4302SOL    HW213473   2.150   4.413   0.513
 4303SOL     OW13474   3.409   3.946   1.729
 4303SOL    HW113475   3.404   3.983   1.821
 4303SOL    HW213476   3.337   3.877   1.717
 4304SOL     OW13477   2.476   3.846   0.117
 4304SOL    HW113478   2.574   3.824   0.124
 4304SOL    HW213479   2.445   3.829   0.024
 4305SOL     OW13480   2.643   3.988   1.749
 4305SOL    HW113481   2.710   3.927   1.792
 4305SOL    HW213482   2.570   4.007   1.814
 4306SOL     OW13483   3.213   4.314   1.433
 4306SOL    HW113484   3.241   4.271   1.518
 4306SOL    HW213485   3.238   4.410   1.434
 4307SOL     OW13486   2.665   5.126   0.924
 4307SOL    HW113487   2.755   5.140   0.882
 4307SOL    HW213488   2.594   5.128   0.853
 4308SOL     OW13489   2.784   4.227   0.899
 4308SOL    HW113490   2.759   4.218   0.803
 4308SOL    HW213491   2.832   4.145   0.930
 4309SOL     OW13492   2.401   3.788   0.512
 4309SOL    HW113493   2.320   3.789   0.570
 4309SOL    HW213494   2.404   3.871   0.457
 4310SOL     OW13495   3.296   4.912   0.041
 4310SOL    HW113496   3.328   4.836   0.098
 4310SOL    HW213497   3.204   4.939   0.071
 4311SOL     OW13498   2.159   3.759   0.171
 4311SOL    HW113499   2.208   3.843   0.150
 4311SOL    HW213500   2.221   3.694   0.216
 4312SOL     OW13501   2.797   3.960   0.480
 4312SOL    HW113502   2.749   4.001   0.402
 4312SOL    HW213503   2.896   3.958   0.461
 4313SOL     OW13504   2.938   4.407   1.464
 4313SOL    HW113505   2.858   4.346   1.467
 4313SOL    HW213506   3.019   4.354   1.440
 4314SOL     OW13507   3.089   5.294   0.793
 4314SOL    HW113508   3.110   5.368   0.728
 4314SOL    HW213509   3.157   5.294   0.866
 4315SOL     OW13510   2.321   4.876   0.741
 4315SOL    HW113511   2.250   4.849   0.806
 4315SOL    HW213512   2.295   4.848   0.648
 4316SOL     OW13513   2.894   4.273   0.016
 4316SOL    HW113514   2.853   4.355  -0.023
 4316SOL    HW213515   2.958   4.299   0.089
 4317SOL     OW13516   1.940   4.280   1.386
 4317SOL    HW113517   2.032   4.279   1.345
 4317SOL    HW213518   1.934   4.354   1.453
 4318SOL     OW13519   2.423   3.946   1.147
 4318SOL    HW113520   2.461   3.862   1.184
 4318SOL    HW213521   2.335   3.965   1.191
 4319SOL     OW13522   2.728   4.178   0.642
 4319SOL    HW113523   2.696   4.250   0.580
 4319SOL    HW213524   2.752   4.097   0.589
 4320SOL     OW13525   2.879   3.763   0.753
 4320SOL    HW113526   2.807   3.768   0.684
 4320SOL    HW213527   2.855   3.694   0.822
 4321SOL     OW13528   3.291   4.897   0.867
 4321SOL    HW113529   3.236   4.813   0.860
 4321SOL    HW213530   3.317   4.926   0.775
 4322SOL     OW13531   3.328   4.314   0.992
 4322SOL    HW113532   3.298   4.219   0.999
 4322SOL    HW213533   3.401   4.330   1.058
 4323SOL     OW13534   3.719   4.557   0.377
 4323SOL    HW113535   3.761   4.493   0.441
 4323SOL    HW213536   3.681   4.506   0.299
 4324SOL     OW13537   2.350   5.109   0.174
 4324SOL    HW113538   2.263   5.094   0.221
 4324SOL    HW213539   2.333   5.135   0.079
 4325SOL     OW13540   3.526   5.004   0.657
 4325SOL    HW113541   3.625   5.012   0.671
 4325SOL    HW213542   3.481   5.088   0.688
 4326SOL     OW13543   3.252   4.299   0.078
 4326SOL    HW113544   3.198   4.278   0.159
 4326SOL    HW213545   3.343   4.258   0.087
 4327SOL     OW13546   2.389   3.980   0.328
 4327SOL    HW113547   2.416   3.921   0.253
 4327SOL    HW213548   2.389   4.075   0.297
 4328SOL     OW13549   3.616   4.947   1.588
 4328SOL    HW113550   3.707   4.908   1.575
 4328SOL    HW213551   3.624   5.043   1.612
 4329SOL     OW13552   2.926   5.071   1.340
 4329SOL    HW113553   2.846   5.048   1.395
 4329SOL    HW213554   3.009   5.045   1.389
 4330SOL     OW13555   2.973   4.919   1.100
 4330SOL    HW113556   2.933   4.963   1.181
 4330SOL    HW213557   2.932   4.956   1.017
 4331SOL     OW13558   3.500   4.823   1.079
 4331SOL    HW113559   3.505   4.904   1.138
 4331SOL    HW213560   3.414   4.825   1.028
 4332SOL     OW13561   2.777   3.813   1.402
 4332SOL    HW113562   2.802   3.793   1.307
 4332SOL    HW213563   2.849   3.869   1.444
 4333SOL     OW13564   2.842   4.840   1.719
 4333SOL    HW113565   2.743   4.846   1.729
 4333SOL    HW213566   2.865   4.760   1.663
 4334SOL     OW13567   2.567   4.774   0.368
 4334SOL    HW113568   2.553   4.781   0.467
 4334SOL    HW213569   2.651   4.723   0.350
 4335SOL     OW13570   2.272   4.537   1.251
 4335SOL    HW113571   2.358   4.549   1.301
 4335SOL    HW213572   2.230   4.450   1.278
 4336SOL     OW13573   3.136   4.110   1.262
 4336SOL    HW113574   3.157   4.184   1.326
 4336SOL    HW213575   3.047   4.127   1.219
 4337SOL     OW13576   2.229   4.824   0.501
 4337SOL    HW113577   2.222   4.907   0.445
 4337SOL    HW213578   2.233   4.744   0.441
 4338SOL     OW13579   2.428   4.261   0.865
 4338SOL    HW113580   2.440   4.327   0.791
 4338SOL    HW213581   2.474   4.295   0.948
 4339SOL     OW13582   3.114   5.072   0.388
 4339SOL    HW113583   3.164   5.149   0.428
 4339SOL    HW213584   3.019   5.074   0.420
 4340SOL     OW13585   3.134   5.169   1.142
 4340SOL    HW113586   3.181   5.182   1.229
 4340SOL    HW213587   3.068   5.095   1.151
 4341SOL     OW13588   3.444   4.363   0.472
 4341SOL    HW113589   3.413   4.424   0.545
 4341SOL    HW213590   3.494   4.415   0.403
 4342SOL     OW13591   2.216   5.234   1.329
 4342SOL    HW113592   2.195   5.190   1.242
 4342SOL    HW213593   2.313   5.260   1.332
 4343SOL     OW13594   2.264   4.475   1.598
 4343SOL    HW113595   2.332   4.530   1.551
 4343SOL    HW213596   2.304   4.387   1.625
 4344SOL     OW13597   3.449   4.503   1.670
 4344SOL    HW113598   3.357   4.541   1.665
 4344SOL    HW213599   3.509   4.550   1.605
 4345SOL     OW13600   2.875   3.829   1.770
 4345SOL    HW113601   2.881   3.914   1.718
 4345SOL    HW213602   2.907   3.753   1.713
 4346SOL     OW13603   2.366   3.774   1.740
 4346SOL    HW113604   2.324   3.717   1.670
 4346SOL    HW213605   2.300   3.843   1.772
 4347SOL     OW13606   2.435   4.594   1.029
 4347SOL    HW113607   2.479   4.683   1.020
 4347SOL    HW213608   2.372   4.594   1.106
 4348SOL     OW13609   3.222   4.586   1.045
 4348SOL    HW113610   3.147   4.586   0.979
 4348SOL    HW213611   3.259   4.494   1.054
 4349SOL     OW13612   3.071   4.249   0.275
 4349SOL    HW113613   3.084   4.165   0.329
 4349SOL    HW213614   3.042   4.323   0.335
 4350SOL     OW13615   2.169   3.937   1.231
 4350SOL    HW113616   2.146   3.974   1.321
 4350SOL    HW213617   2.139   3.842   1.225
 4351SOL     OW13618   1.899   5.034   1.282
 4351SOL    HW113619   1.952   4.985   1.350
 4351SOL    HW213620   1.921   5.132   1.287
 4352SOL     OW13621   2.594   4.358   1.064
 4352SOL    HW113622   2.653   4.332   0.988
 4352SOL    HW213623   2.566   4.454   1.053
 4353SOL     OW13624   3.590   4.659   1.854
 4353SOL    HW113625   3.544   4.652   1.765
 4353SOL    HW213626   3.528   4.703   1.920
 4354SOL     OW13627   2.169   3.787   0.618
 4354SOL    HW113628   2.158   3.881   0.651
 4354SOL    HW213629   2.164   3.724   0.695
 4355SOL     OW13630   3.484   4.091   0.374
 4355SOL    HW113631   3.486   4.015   0.438
 4355SOL    HW213632   3.436   4.168   0.414
 4356SOL     OW13633   2.885   4.490   0.966
 4356SOL    HW113634   2.900   4.511   1.062
 4356SOL    HW213635   2.855   4.395   0.957
 4357SOL     OW13636   3.721   5.242   1.605
 4357SOL    HW113637   3.735   5.269   1.510
 4357SOL    HW213638   3.804   5.264   1.658
 4358SOL     OW13639   2.212   4.622   1.804
 4358SOL    HW113640   2.288   4.666   1.852
 4358SOL    HW213641   2.247   4.575   1.722
 4359SOL     OW13642   3.402   3.998   0.125
 4359SOL    HW113643   3.341   3.923   0.148
 4359SOL    HW213644   3.424   4.050   0.208
 4360SOL     OW13645   3.165   4.562   0.042
 4360SOL    HW113646   3.199   4.469   0.057
 4360SOL    HW213647   3.183   4.589  -0.053
 4361SOL     OW13648   2.930   5.057   0.849
 4361SOL    HW113649   2.937   4.973   0.794
 4361SOL    HW213650   2.992   5.126   0.813
 4362SOL     OW13651   2.181   4.534   0.949
 4362SOL    HW113652   2.274   4.570   0.954
 4362SOL    HW213653   2.175   4.449   1.001
 4363SOL     OW13654   2.201   4.233   1.006
 4363SOL    HW113655   2.149   4.150   0.989
 4363SOL    HW213656   2.278   4.238   0.942
 4364SOL     OW13657   3.000   4.104   1.678
 4364SOL    HW113658   2.955   4.167   1.742
 4364SOL    HW213659   3.093   4.135   1.661
 4365SOL     OW13660   3.022   3.931   1.477
 4365SOL    HW113661   3.022   3.995   1.554
 4365SOL    HW213662   3.050   3.979   1.394
 4366SOL     OW13663   1.870   5.050   0.200
 4366SOL    HW113664   1.777   5.071   0.169
 4366SOL    HW213665   1.880   4.951   0.213
 4367SOL     OW13666   2.864   4.520   1.238
 4367SOL    HW113667   2.905   4.488   1.324
 4367SOL    HW213668   2.768   4.493   1.235
 4368SOL     OW13669   1.902   4.268   1.114
 4368SOL    HW113670   1.987   4.235   1.073
 4368SOL    HW213671   1.915   4.283   1.212
 4369SOL     OW13672   2.051   4.244   1.722
 4369SOL    HW113673   2.110   4.204   1.652
 4369SOL    HW213674   1.993   4.315   1.681
 4370SOL     OW13675   3.231   4.674   1.660
 4370SOL    HW113676   3.270   4.763   1.680
 4370SOL    HW213677   3.241   4.654   1.563
 4371SOL     OW13678   2.677   4.296   0.325
 4371SOL    HW113679   2.684   4.207   0.279
 4371SOL    HW213680   2.583   4.330   0.317
 4372SOL     OW13681   3.519   4.328   1.206
 4372SOL    HW113682   3.481   4.259   1.268
 4372SOL    HW213683   3.601   4.292   1.162
 4373SOL     OW13684   2.114   5.288   1.744
 4373SOL    HW113685   2.084   5.345   1.820
 4373SOL    HW213686   2.107   5.191   1.770
 4374SOL     OW13687   2.533   4.188   1.269
 4374SOL    HW113688   2.499   4.099   1.239
 4374SOL    HW213689   2.559   4.242   1.189
 4375SOL     OW13690   2.335   4.224   0.191
 4375SOL    HW113691   2.396   4.304   0.195
 4375SOL    HW213692   2.240   4.255   0.198
 4376SOL     OW13693   2.021   4.861   1.466
 4376SOL    HW113694   2.043   4.800   1.542
 4376SOL    HW213695   2.031   4.812   1.380
 4377SOL     OW13696   3.209   4.783   1.234
 4377SOL    HW113697   3.233   4.720   1.160
 4377SOL    HW213698   3.119   4.823   1.216
 4378SOL     OW13699   3.164   4.579   0.309
 4378SOL    HW113700   3.078   4.548   0.351
 4378SOL    HW213701   3.160   4.565   0.210
 4379SOL     OW13702   1.945   4.982   1.022
 4379SOL    HW113703   1.940   4.981   1.122
 4379SOL    HW213704   1.862   4.941   0.984
 4380SOL     OW13705   2.550   5.386   1.716
 4380SOL    HW113706   2.494   5.467   1.725
 4380SOL    HW213707   2.602   5.390   1.630
 4381SOL     OW13708   2.765   3.810   0.133
 4381SOL    HW113709   2.816   3.811   0.047
 4381SOL    HW213710   2.821   3.768   0.204
 4382SOL     OW13711   3.588   3.859   0.523
 4382SOL    HW113712   3.661   3.842   0.456
 4382SOL    HW213713   3.557   3.772   0.561
 4383SOL     OW13714   3.142   4.651   0.672
 4383SOL    HW113715   3.202   4.570   0.674
 4383SOL    HW213716   3.182   4.720   0.612
 4384SOL     OW13717   2.692   4.997   1.422
 4384SOL    HW113718   2.687   5.030   1.517
 4384SOL    HW213719   2.606   5.016   1.376
 4385SOL     OW13720   3.703   3.899   0.963
 4385SOL    HW113721   3.742   3.814   0.927
 4385SOL    HW213722   3.605   3.901   0.944
 4386SOL     OW13723   2.125   4.050   0.720
 4386SOL    HW113724   2.046   4.101   0.686
 4386SOL    HW213725   2.116   4.035   0.818
 4387SOL     OW13726   3.056   5.336   0.031
 4387SOL    HW113727   3.062   5.243   0.068
 4387SOL    HW213728   2.997   5.336  -0.049
 4388SOL     OW13729   2.684   4.726   1.372
 4388SOL    HW113730   2.724   4.725   1.280
 4388SOL    HW213731   2.694   4.818   1.412
 4389SOL     OW13732   2.778   4.634   0.291
 4389SOL    HW113733   2.841   4.672   0.223
 4389SOL    HW213734   2.818   4.551   0.330
 4390SOL     OW13735   2.234   5.012   1.490
 4390SOL    HW113736   2.221   5.105   1.456
 4390SOL    HW213737   2.150   4.960   1.477
 4391SOL     OW13738   3.476   5.016   1.289
 4391SOL    HW113739   3.536   5.019   1.369
 4391SOL    HW213740   3.401   5.080   1.302
 4392SOL     OW13741   2.901   4.822   0.696
 4392SOL    HW113742   2.831   4.775   0.750
 4392SOL    HW213743   2.960   4.754   0.653
 4393SOL     OW13744   2.876   3.960   0.971
 4393SOL    HW113745   2.868   3.924   0.878
 4393SOL    HW213746   2.874   3.884   1.036
 4394SOL     OW13747   3.571   4.109   1.381
 4394SOL    HW113748   3.644   4.178   1.385
 4394SOL    HW213749   3.599   4.034   1.322
 4395SOL     OW13750   2.117   5.072   0.290
 4395SOL    HW113751   2.021   5.073   0.263
 4395SOL    HW213752   2.129   5.125   0.374
 4396SOL     OW13753   1.967   4.737   1.726
 4396SOL    HW113754   1.890   4.704   1.780
 4396SOL    HW213755   2.052   4.707   1.768
 4397SOL     OW13756   2.534   3.927   1.489
 4397SOL    HW113757   2.624   3.911   1.449
 4397SOL    HW213758   2.542   3.932   1.588
 4398SOL     OW13759   1.937   4.069   0.033
 4398SOL    HW113760   1.845   4.041   0.004
 4398SOL    HW213761   1.968   4.146  -0.023
 4399SOL     OW13762   3.302   4.580   1.398
 4399SOL    HW113763   3.245   4.632   1.335
 4399SOL    HW213764   3.398   4.592   1.374
 4400SOL     OW13765   1.934   3.890   0.318
 4400SOL    HW113766   1.917   3.973   0.264
 4400SOL    HW213767   2.024   3.853   0.296
 4401SOL     OW13768   3.045   5.059   0.119
 4401SOL    HW113769   2.946   5.048   0.121
 4401SOL    HW213770   3.079   5.074   0.212
 4402SOL     OW13771   2.475   4.566   1.431
 4402SOL    HW113772   2.531   4.647   1.414
 4402SOL    HW213773   2.534   4.486   1.434
 4403SOL     OW13774   2.578   4.289   1.708
 4403SOL    HW113775   2.597   4.354   1.782
 4403SOL    HW213776   2.638   4.209   1.717
 4404SOL     OW13777   3.312   4.944   1.633
 4404SOL    HW113778   3.303   4.934   1.732
 4404SOL    HW213779   3.408   4.937   1.607
 4405SOL     OW13780   3.536   4.607   1.254
 4405SOL    HW113781   3.509   4.518   1.217
 4405SOL    HW213782   3.537   4.675   1.181
 4406SOL     OW13783   3.087   4.049   0.449
 4406SOL    HW113784   3.152   3.975   0.438
 4406SOL    HW213785   3.107   4.099   0.533
 4407SOL     OW13786   2.456   4.469   0.652
 4407SOL    HW113787   2.506   4.554   0.633
 4407SOL    HW213788   2.368   4.471   0.604
 4408SOL     OW13789   3.639   4.066   1.642
 4408SOL    HW113790   3.622   4.097   1.548
 4408SOL    HW213791   3.555   4.029   1.680
 4409SOL     OW13792   3.592   4.658   1.517
 4409SOL    HW113793   3.630   4.749   1.532
 4409SOL    HW213794   3.584   4.641   1.418
 4410SOL     OW13795   2.721   5.098   0.016
 4410SOL    HW113796   2.675   5.113   0.104
 4410SOL    HW213797   2.765   5.183  -0.014
 4411SOL     OW13798   2.721   4.680   0.861
 4411SOL    HW113799   2.775   4.611   0.909
 4411SOL    HW213800   2.689   4.749   0.927
 4412SOL     OW13801   2.945   4.708   0.087
 4412SOL    HW113802   2.922   4.761   0.005
 4412SOL    HW213803   3.026   4.652   0.068
 4413SOL     OW13804   2.083   5.038   1.844
 4413SOL    HW113805   2.018   4.965   1.823
 4413SOL    HW213806   2.087   5.052   1.942
 4414SOL     OW13807   1.941   4.964   0.653
 4414SOL    HW113808   1.940   4.917   0.741
 4414SOL    HW213809   2.023   4.936   0.602
 4415SOL     OW13810   2.534   5.115   1.624
 4415SOL    HW113811   2.456   5.065   1.662
 4415SOL    HW213812   2.531   5.210   1.655
 4416SOL     OW13813   3.686   3.916   1.227
 4416SOL    HW113814   3.682   3.826   1.271
 4416SOL    HW213815   3.689   3.905   1.128
 4417SOL     OW13816   2.290   4.148   0.520
 4417SOL    HW113817   2.320   4.076   0.458
 4417SOL    HW213818   2.251   4.108   0.603
 4418SOL     OW13819   3.567   5.211   1.104
 4418SOL    HW113820   3.474   5.186   1.077
 4418SOL    HW213821   3.593   5.161   1.186
 4419SOL     OW13822   2.179   4.271   1.280
 4419SOL    HW113823   2.217   4.212   1.352
 4419SOL    HW213824   2.219   4.245   1.192
 4420SOL     OW13825   3.286   3.938   1.112
 4420SOL    HW113826   3.338   3.873   1.167
 4420SOL    HW213827   3.237   4.001   1.173
 4421SOL     OW13828   2.863   3.758   1.154
 4421SOL    HW113829   2.800   3.686   1.123
 4421SOL    HW213830   2.956   3.722   1.154
 4422SOL     OW13831   2.632   5.054   0.301
 4422SOL    HW113832   2.586   4.967   0.318
 4422SOL    HW213833   2.723   5.051   0.342
 4423SOL     OW13834   2.480   5.291   1.284
 4423SOL    HW113835   2.475   5.373   1.341
 4423SOL    HW213836   2.569   5.288   1.239
 4424SOL     OW13837   3.214   3.776   0.168
 4424SOL    HW113838   3.249   3.735   0.084
 4424SOL    HW213839   3.124   3.738   0.188
 4425SOL     OW13840   3.162   4.177   0.691
 4425SOL    HW113841   3.103   4.257   0.695
 4425SOL    HW213842   3.177   4.142   0.784
 4426SOL     OW13843   3.455   3.945   0.882
 4426SOL    HW113844   3.371   3.944   0.936
 4426SOL    HW213845   3.457   4.028   0.826
 4427SOL     OW13846   1.901   4.801   0.300
 4427SOL    HW113847   2.000   4.790   0.291
 4427SOL    HW213848   1.861   4.715   0.332
 4428SOL     OW13849   2.092   4.352   1.975
 4428SOL    HW113850   1.999   4.350   2.012
 4428SOL    HW213851   2.093   4.313   1.883
 4429SOL     OW13852   2.087   3.999   2.858
 4429SOL    HW113853   2.122   3.982   2.950
 4429SOL    HW213854   1.999   3.954   2.846
 4430SOL     OW13855   1.881   4.092   2.509
 4430SOL    HW113856   1.799   4.135   2.548
 4430SOL    HW213857   1.853   4.019   2.446
 4431SOL     OW13858   2.431   4.999   3.027
 4431SOL    HW113859   2.338   4.992   2.990
 4431SOL    HW213860   2.442   5.088   3.071
 4432SOL     OW13861   3.417   5.235   2.565
 4432SOL    HW113862   3.360   5.219   2.646
 4432SOL    HW213863   3.358   5.245   2.485
 4433SOL     OW13864   2.997   4.427   2.579
 4433SOL    HW113865   3.054   4.505   2.554
 4433SOL    HW213866   2.937   4.453   2.655
 4434SOL     OW13867   3.617   4.331   2.093
 4434SOL    HW113868   3.605   4.318   1.994
 4434SOL    HW213869   3.587   4.250   2.142
 4435SOL     OW13870   2.630   4.868   2.885
 4435SOL    HW113871   2.552   4.885   2.945
 4435SOL    HW213872   2.664   4.955   2.849
 4436SOL     OW13873   2.712   4.522   3.685
 4436SOL    HW113874   2.708   4.598   3.750
 4436SOL    HW213875   2.734   4.558   3.594
 4437SOL     OW13876   2.547   4.736   2.527
 4437SOL    HW113877   2.616   4.720   2.597
 4437SOL    HW213878   2.474   4.793   2.565
 4438SOL     OW13879   2.548   4.885   3.665
 4438SOL    HW113880   2.608   4.964   3.679
 4438SOL    HW213881   2.462   4.916   3.624
 4439SOL     OW13882   2.197   5.159   2.923
 4439SOL    HW113883   2.119   5.128   2.870
 4439SOL    HW213884   2.255   5.217   2.866
 4440SOL     OW13885   3.322   5.229   3.201
 4440SOL    HW113886   3.346   5.323   3.227
 4440SOL    HW213887   3.306   5.175   3.283
 4441SOL     OW13888   2.300   4.116   3.361
 4441SOL    HW113889   2.382   4.060   3.370
 4441SOL    HW213890   2.219   4.058   3.365
 4442SOL     OW13891   3.465   4.171   2.599
 4442SOL    HW113892   3.391   4.217   2.549
 4442SOL    HW213893   3.516   4.239   2.652
 4443SOL     OW13894   2.989   5.065   3.552
 4443SOL    HW113895   3.036   5.065   3.640
 4443SOL    HW213896   2.941   4.978   3.541
 4444SOL     OW13897   2.092   5.158   2.400
 4444SOL    HW113898   2.066   5.254   2.400
 4444SOL    HW213899   2.021   5.104   2.445
 4445SOL     OW13900   2.102   4.815   2.748
 4445SOL    HW113901   2.116   4.731   2.800
 4445SOL    HW213902   2.047   4.879   2.803
 4446SOL     OW13903   2.468   4.688   1.985
 4446SOL    HW113904   2.475   4.772   1.931
 4446SOL    HW213905   2.514   4.701   2.073
 4447SOL     OW13906   3.456   3.838   3.342
 4447SOL    HW113907   3.438   3.905   3.270
 4447SOL    HW213908   3.453   3.884   3.431
 4448SOL     OW13909   1.984   4.367   2.425
 4448SOL    HW113910   1.939   4.279   2.442
 4448SOL    HW213911   1.983   4.421   2.509
 4449SOL     OW13912   1.889   5.320   1.979
 4449SOL    HW113913   1.870   5.224   2.000
 4449SOL    HW213914   1.856   5.378   2.054
 4450SOL     OW13915   3.551   4.646   2.474
 4450SOL    HW113916   3.646   4.617   2.482
 4450SOL    HW213917   3.543   4.711   2.399
 4451SOL     OW13918   3.503   4.832   2.294
 4451SOL    HW113919   3.589   4.834   2.242
 4451SOL    HW213920   3.517   4.879   2.382
 4452SOL     OW13921   1.975   4.461   3.459
 4452SOL    HW113922   2.063   4.448   3.504
 4452SOL    HW213923   1.962   4.558   3.437
 4453SOL     OW13924   2.475   5.089   2.588
 4453SOL    HW113925   2.426   5.002   2.597
 4453SOL    HW213926   2.452   5.132   2.501
 4454SOL     OW13927   3.155   4.952   3.285
 4454SOL    HW113928   3.192   4.879   3.227
 4454SOL    HW213929   3.207   4.957   3.370
 4455SOL     OW13930   2.671   3.728   2.364
 4455SOL    HW113931   2.711   3.819   2.355
 4455SOL    HW213932   2.571   3.736   2.370
 4456SOL     OW13933   2.059   4.700   3.126
 4456SOL    HW113934   2.148   4.655   3.112
 4456SOL    HW213935   1.986   4.635   3.107
 4457SOL     OW13936   3.387   4.723   2.052
 4457SOL    HW113937   3.324   4.647   2.065
 4457SOL    HW213938   3.435   4.741   2.138
 4458SOL     OW13939   2.179   3.975   3.663
 4458SOL    HW113940   2.250   4.046   3.669
 4458SOL    HW213941   2.091   4.014   3.691
 4459SOL     OW13942   3.328   5.141   2.815
 4459SOL    HW113943   3.269   5.147   2.895
 4459SOL    HW213944   3.313   5.053   2.769
 4460SOL     OW13945   2.460   4.453   2.132
 4460SOL    HW113946   2.484   4.522   2.064
 4460SOL    HW213947   2.382   4.486   2.186
 4461SOL     OW13948   3.143   4.069   2.806
 4461SOL    HW113949   3.057   4.019   2.793
 4461SOL    HW213950   3.205   4.015   2.862
 4462SOL     OW13951   2.669   4.329   3.327
 4462SOL    HW113952   2.622   4.326   3.416
 4462SOL    HW213953   2.618   4.274   3.261
 4463SOL     OW13954   3.256   4.193   3.536
 4463SOL    HW113955   3.236   4.236   3.624
 4463SOL    HW213956   3.334   4.131   3.545
 4464SOL     OW13957   2.835   4.614   3.434
 4464SOL    HW113958   2.881   4.530   3.405
 4464SOL    HW213959   2.779   4.648   3.359
 4465SOL     OW13960   2.853   4.134   3.104
 4465SOL    HW113961   2.776   4.168   3.158
 4465SOL    HW213962   2.819   4.083   3.025
 4466SOL     OW13963   2.903   4.425   2.291
 4466SOL    HW113964   2.929   4.421   2.387
 4466SOL    HW213965   2.818   4.374   2.277
 4467SOL     OW13966   1.938   4.535   2.651
 4467SOL    HW113967   2.037   4.523   2.660
 4467SOL    HW213968   1.914   4.630   2.672
 4468SOL     OW13969   2.727   4.072   2.057
 4468SOL    HW113970   2.786   4.135   2.008
 4468SOL    HW213971   2.746   3.978   2.028
 4469SOL     OW13972   3.581   4.309   3.693
 4469SOL    HW113973   3.555   4.398   3.657
 4469SOL    HW213974   3.579   4.241   3.620
 4470SOL     OW13975   3.224   4.868   2.407
 4470SOL    HW113976   3.307   4.839   2.359
 4470SOL    HW213977   3.175   4.935   2.351
 4471SOL     OW13978   2.412   3.920   2.747
 4471SOL    HW113979   2.407   3.915   2.847
 4471SOL    HW213980   2.414   4.016   2.718
 4472SOL     OW13981   2.870   5.180   2.339
 4472SOL    HW113982   2.824   5.252   2.287
 4472SOL    HW213983   2.866   5.200   2.437
 4473SOL     OW13984   3.657   4.790   2.735
 4473SOL    HW113985   3.595   4.775   2.659
 4473SOL    HW213986   3.605   4.801   2.820
 4474SOL     OW13987   3.089   5.274   3.368
 4474SOL    HW113988   3.095   5.197   3.432
 4474SOL    HW213989   3.037   5.248   3.288
 4475SOL     OW13990   2.183   4.667   2.104
 4475SOL    HW113991   2.265   4.706   2.062
 4475SOL    HW213992   2.156   4.585   2.055
 4476SOL     OW13993   3.320   4.459   2.590
 4476SOL    HW113994   3.315   4.394   2.665
 4476SOL    HW213995   3.400   4.518   2.603
 4477SOL     OW13996   2.323   4.990   3.589
 4477SOL    HW113997   2.273   4.991   3.503
 4477SOL    HW213998   2.260   4.972   3.665
 4478SOL     OW13999   2.973   5.500   2.099
 4478SOL    HW114000   2.913   5.438   2.149
 4478SOL    HW214001   3.004   5.456   2.014
 4479SOL     OW14002   2.064   4.009   3.360
 4479SOL    HW114003   1.984   4.069   3.347
 4479SOL    HW214004   2.054   3.960   3.446
 4480SOL     OW14005   3.494   5.101   1.943
 4480SOL    HW114006   3.462   5.195   1.933
 4480SOL    HW214007   3.418   5.038   1.931
 4481SOL     OW14008   3.262   3.831   2.288
 4481SOL    HW114009   3.238   3.794   2.198
 4481SOL    HW214010   3.361   3.847   2.292
 4482SOL     OW14011   2.244   4.424   2.342
 4482SOL    HW114012   2.289   4.334   2.339
 4482SOL    HW214013   2.150   4.413   2.375
 4483SOL     OW14014   3.409   3.946   3.591
 4483SOL    HW114015   3.404   3.983   3.683
 4483SOL    HW214016   3.337   3.877   3.579
 4484SOL     OW14017   2.476   3.846   1.979
 4484SOL    HW114018   2.574   3.824   1.986
 4484SOL    HW214019   2.445   3.829   1.886
 4485SOL     OW14020   2.643   3.988   3.611
 4485SOL    HW114021   2.710   3.927   3.654
 4485SOL    HW214022   2.570   4.007   3.676
 4486SOL     OW14023   3.213   4.314   3.295
 4486SOL    HW114024   3.241   4.271   3.380
 4486SOL    HW214025   3.238   4.410   3.296
 4487SOL     OW14026   2.665   5.126   2.786
 4487SOL    HW114027   2.755   5.140   2.744
 4487SOL    HW214028   2.594   5.128   2.715
 4488SOL     OW14029   2.784   4.227   2.761
 4488SOL    HW114030   2.759   4.218   2.665
 4488SOL    HW214031   2.832   4.145   2.792
 4489SOL     OW14032   2.401   3.788   2.374
 4489SOL    HW114033   2.320   3.789   2.432
 4489SOL    HW214034   2.404   3.871   2.319
 4490SOL     OW14035   3.296   4.912   1.903
 4490SOL    HW114036   3.328   4.836   1.960
 4490SOL    HW214037   3.204   4.939   1.933
 4491SOL     OW14038   2.159   3.759   2.033
 4491SOL    HW114039   2.208   3.843   2.012
 4491SOL    HW214040   2.221   3.694   2.078
 4492SOL     OW14041   2.797   3.960   2.342
 4492SOL    HW114042   2.749   4.001   2.264
 4492SOL    HW214043   2.896   3.958   2.323
 4493SOL     OW14044   2.938   4.407   3.326
 4493SOL    HW114045   2.858   4.346   3.329
 4493SOL    HW214046   3.019   4.354   3.302
 4494SOL     OW14047   3.089   5.294   2.655
 4494SOL    HW114048   3.110   5.368   2.590
 4494SOL    HW214049   3.157   5.294   2.728
 4495SOL     OW14050   2.321   4.876   2.603
 4495SOL    HW114051   2.250   4.849   2.668
 4495SOL    HW214052   2.295   4.848   2.510
 4496SOL     OW14053   2.894   4.273   1.878
 4496SOL    HW114054   2.853   4.355   1.839
 4496SOL    HW214055   2.958   4.299   1.951
 4497SOL     OW14056   1.940   4.280   3.248
 4497SOL    HW114057   2.032   4.279   3.207
 4497SOL    HW214058   1.934   4.354   3.315
 4498SOL     OW14059   2.423   3.946   3.009
 4498SOL    HW114060   2.461   3.862   3.046
 4498SOL    HW214061   2.335   3.965   3.053
 4499SOL     OW14062   2.728   4.178   2.504
 4499SOL    HW114063   2.696   4.250   2.442
 4499SOL    HW214064   2.752   4.097   2.451
 4500SOL     OW14065   2.879   3.763   2.615
 4500SOL    HW114066   2.807   3.768   2.546
 4500SOL    HW214067   2.855   3.694   2.684
 4501SOL     OW14068   3.291   4.897   2.729
 4501SOL    HW114069   3.236   4.813   2.722
 4501SOL    HW214070   3.317   4.926   2.637
 4502SOL     OW14071   3.328   4.314   2.854
 4502SOL    HW114072   3.298   4.219   2.861
 4502SOL    HW214073   3.401   4.330   2.920
 4503SOL     OW14074   3.719   4.557   2.239
 4503SOL    HW114075   3.761   4.493   2.303
 4503SOL    HW214076   3.681   4.506   2.161
 4504SOL     OW14077   2.350   5.109   2.036
 4504SOL    HW114078   2.263   5.094   2.083
 4504SOL    HW214079   2.333   5.135   1.941
 4505SOL     OW14080   3.526   5.004   2.519
 4505SOL    HW114081   3.625   5.012   2.533
 4505SOL    HW214082   3.481   5.088   2.550
 4506SOL     OW14083   3.252   4.299   1.940
 4506SOL    HW114084   3.198   4.278   2.021
 4506SOL    HW214085   3.343   4.258   1.949
 4507SOL     OW14086   2.389   3.980   2.190
 4507SOL    HW114087   2.416   3.921   2.115
 4507SOL    HW214088   2.389   4.075   2.159
 4508SOL     OW14089   3.616   4.947   3.450
 4508SOL    HW114090   3.707   4.908   3.437
 4508SOL    HW214091   3.624   5.043   3.474
 4509SOL     OW14092   2.926   5.071   3.202
 4509SOL    HW114093   2.846   5.048   3.257
 4509SOL    HW214094   3.009   5.045   3.251
 4510SOL     OW14095   2.973   4.919   2.962
 4510SOL    HW114096   2.933   4.963   3.043
 4510SOL    HW214097   2.932   4.956   2.879
 4511SOL     OW14098   3.500   4.823   2.941
 4511SOL    HW114099   3.505   4.904   3.000
 4511SOL    HW214100   3.414   4.825   2.890
 4512SOL     OW14101   2.777   3.813   3.264
 4512SOL    HW114102   2.802   3.793   3.169
 4512SOL    HW214103   2.849   3.869   3.306
 4513SOL     OW14104   2.842   4.840   3.581
 4513SOL    HW114105   2.743   4.846   3.591
 4513SOL    HW214106   2.865   4.760   3.525
 4514SOL     OW14107   2.567   4.774   2.230
 4514SOL    HW114108   2.553   4.781   2.329
 4514SOL    HW214109   2.651   4.723   2.212
 4515SOL     OW14110   2.272   4.537   3.113
 4515SOL    HW114111   2.358   4.549   3.163
 4515SOL    HW214112   2.230   4.450   3.140
 4516SOL     OW14113   3.136   4.110   3.124
 4516SOL    HW114114   3.157   4.184   3.188
 4516SOL    HW214115   3.047   4.127   3.081
 4517SOL     OW14116   2.229   4.824   2.363
 4517SOL    HW114117   2.222   4.907   2.307
 4517SOL    HW214118   2.233   4.744   2.303
 4518SOL     OW14119   2.428   4.261   2.727
 4518SOL    HW114120   2.440   4.327   2.653
 4518SOL    HW214121   2.474   4.295   2.810
 4519SOL     OW14122   3.114   5.072   2.250
 4519SOL    HW114123   3.164   5.149   2.290
 4519SOL    HW214124   3.019   5.074   2.282
 4520SOL     OW14125   3.134   5.169   3.004
 4520SOL    HW114126   3.181   5.182   3.091
 4520SOL    HW214127   3.068   5.095   3.013
 4521SOL     OW14128   3.444   4.363   2.334
 4521SOL    HW114129   3.413   4.424   2.407
 4521SOL    HW214130   3.494   4.415   2.265
 4522SOL     OW14131   2.216   5.234   3.191
 4522SOL    HW114132   2.195   5.190   3.104
 4522SOL    HW214133   2.313   5.260   3.194
 4523SOL     OW14134   2.264   4.475   3.460
 4523SOL    HW114135   2.332   4.530   3.413
 4523SOL    HW214136   2.304   4.387   3.487
 4524SOL     OW14137   3.449   4.503   3.532
 4524SOL    HW114138   3.357   4.541   3.527
 4524SOL    HW214139   3.509   4.550   3.467
 4525SOL     OW14140   2.875   3.829   3.632
 4525SOL    HW114141   2.881   3.914   3.580
 4525SOL    HW214142   2.907   3.753   3.575
 4526SOL     OW14143   2.366   3.774   3.602
 4526SOL    HW114144   2.324   3.717   3.532
 4526SOL    HW214145   2.300   3.843   3.634
 4527SOL     OW14146   2.435   4.594   2.891
 4527SOL    HW114147   2.479   4.683   2.882
 4527SOL    HW214148   2.372   4.594   2.968
 4528SOL     OW14149   3.222   4.586   2.907
 4528SOL    HW114150   3.147   4.586   2.841
 4528SOL    HW214151   3.259   4.494   2.916
 4529SOL     OW14152   3.071   4.249   2.137
 4529SOL    HW114153   3.084   4.165   2.191
 4529SOL    HW214154   3.042   4.323   2.197
 4530SOL     OW14155   2.169   3.937   3.093
 4530SOL    HW114156   2.146   3.974   3.183
 4530SOL    HW214157   2.139   3.842   3.087
 4531SOL     OW14158   1.899   5.034   3.144
 4531SOL    HW114159   1.952   4.985   3.212
 4531SOL    HW214160   1.921   5.132   3.149
 4532SOL     OW14161   2.594   4.358   2.926
 4532SOL    HW114162   2.653   4.332   2.850
 4532SOL    HW214163   2.566   4.454   2.915
 4533SOL     OW14164   3.590   4.659   3.716
 4533SOL    HW114165   3.544   4.652   3.627
 4533SOL    HW214166   3.528   4.703   3.782
 4534SOL     OW14167   2.169   3.787   2.480
 4534SOL    HW114168   2.158   3.881   2.513
 4534SOL    HW214169   2.164   3.724   2.557
 4535SOL     OW14170   3.484   4.091   2.236
 4535SOL    HW114171   3.486   4.015   2.300
 4535SOL    HW214172   3.436   4.168   2.276
 4536SOL     OW14173   2.885   4.490   2.828
 4536SOL    HW114174   2.900   4.511   2.924
 4536SOL    HW214175   2.855   4.395   2.819
 4537SOL     OW14176   3.721   5.242   3.467
 4537SOL    HW114177   3.735   5.269   3.372
 4537SOL    HW214178   3.804   5.264   3.520
 4538SOL     OW14179   2.212   4.622   3.666
 4538SOL    HW114180   2.288   4.666   3.714
 4538SOL    HW214181   2.247   4.575   3.584
 4539SOL     OW14182   3.402   3.998   1.987
 4539SOL    HW114183   3.341   3.923   2.010
 4539SOL    HW214184   3.424   4.050   2.070
 4540SOL     OW14185   3.165   4.562   1.904
 4540SOL    HW114186   3.199   4.469   1.919
 4540SOL    HW214187   3.183   4.589   1.809
 4541SOL     OW14188   2.930   5.057   2.711
 4541SOL    HW114189   2.937   4.973   2.656
 4541SOL    HW214190   2.992   5.126   2.675
 4542SOL     OW14191   2.181   4.534   2.811
 4542SOL    HW114192   2.274   4.570   2.816
 4542SOL    HW214193   2.175   4.449   2.863
 4543SOL     OW14194   2.201   4.233   2.868
 4543SOL    HW114195   2.149   4.150   2.851
 4543SOL    HW214196   2.278   4.238   2.804
 4544SOL     OW14197   3.000   4.104   3.540
 4544SOL    HW114198   2.955   4.167   3.604
 4544SOL    HW214199   3.093   4.135   3.523
 4545SOL     OW14200   3.022   3.931   3.339
 4545SOL    HW114201   3.022   3.995   3.416
 4545SOL    HW214202   3.050   3.979   3.256
 4546SOL     OW14203   1.870   5.050   2.062
 4546SOL    HW114204   1.777   5.071   2.031
 4546SOL    HW214205   1.880   4.951   2.075
 4547SOL     OW14206   2.864   4.520   3.100
 4547SOL    HW114207   2.905   4.488   3.186
 4547SOL    HW214208   2.768   4.493   3.097
 4548SOL     OW14209   1.902   4.268   2.976
 4548SOL    HW114210   1.987   4.235   2.935
 4548SOL    HW214211   1.915   4.283   3.074
 4549SOL     OW14212   2.051   4.244   3.584
 4549SOL    HW114213   2.110   4.204   3.514
 4549SOL    HW214214   1.993   4.315   3.543
 4550SOL     OW14215   3.231   4.674   3.522
 4550SOL    HW114216   3.270   4.763   3.542
 4550SOL    HW214217   3.241   4.654   3.425
 4551SOL     OW14218   2.677   4.296   2.187
 4551SOL    HW114219   2.684   4.207   2.141
 4551SOL    HW214220   2.583   4.330   2.179
 4552SOL     OW14221   3.519   4.328   3.068
 4552SOL    HW114222   3.481   4.259   3.130
 4552SOL    HW214223   3.601   4.292   3.024
 4553SOL     OW14224   2.114   5.288   3.606
 4553SOL    HW114225   2.084   5.345   3.682
 4553SOL    HW214226   2.107   5.191   3.632
 4554SOL     OW14227   2.533   4.188   3.131
 4554SOL    HW114228   2.499   4.099   3.101
 4554SOL    HW214229   2.559   4.242   3.051
 4555SOL     OW14230   2.335   4.224   2.053
 4555SOL    HW114231   2.396   4.304   2.057
 4555SOL    HW214232   2.240   4.255   2.060
 4556SOL     OW14233   2.021   4.861   3.328
 4556SOL    HW114234   2.043   4.800   3.404
 4556SOL    HW214235   2.031   4.812   3.242
 4557SOL     OW14236   3.209   4.783   3.096
 4557SOL    HW114237   3.233   4.720   3.022
 4557SOL    HW214238   3.119   4.823   3.078
 4558SOL     OW14239   3.164   4.579   2.171
 4558SOL    HW114240   3.078   4.548   2.213
 4558SOL    HW214241   3.160   4.565   2.072
 4559SOL     OW14242   1.945   4.982   2.884
 4559SOL    HW114243   1.940   4.981   2.984
 4559SOL    HW214244   1.862   4.941   2.846
 4560SOL     OW14245   2.550   5.386   3.578
 4560SOL    HW114246   2.494   5.467   3.587
 4560SOL    HW214247   2.602   5.390   3.492
 4561SOL     OW14248   3.588   3.859   2.385
 4561SOL    HW114249   3.661   3.842   2.318
 4561SOL    HW214250   3.557   3.772   2.423
 4562SOL     OW14251   3.142   4.651   2.534
 4562SOL    HW114252   3.202   4.570   2.536
 4562SOL    HW214253   3.182   4.720   2.474
 4563SOL     OW14254   2.692   4.997   3.284
 4563SOL    HW114255   2.687   5.030   3.379
 4563SOL    HW214256   2.606   5.016   3.238
 4564SOL     OW14257   3.703   3.899   2.825
 4564SOL    HW114258   3.742   3.814   2.789
 4564SOL    HW214259   3.605   3.901   2.806
 4565SOL     OW14260   2.125   4.050   2.582
 4565SOL    HW114261   2.046   4.101   2.548
 4565SOL    HW214262   2.116   4.035   2.680
 4566SOL     OW14263   2.684   4.726   3.234
 4566SOL    HW114264   2.724   4.725   3.142
 4566SOL    HW214265   2.694   4.818   3.274
 4567SOL     OW14266   2.778   4.634   2.153
 4567SOL    HW114267   2.841   4.672   2.085
 4567SOL    HW214268   2.818   4.551   2.192
 4568SOL     OW14269   2.234   5.012   3.352
 4568SOL    HW114270   2.221   5.105   3.318
 4568SOL    HW214271   2.150   4.960   3.339
 4569SOL     OW14272   3.476   5.016   3.151
 4569SOL    HW114273   3.536   5.019   3.231
 4569SOL    HW214274   3.401   5.080   3.164
 4570SOL     OW14275   2.901   4.822   2.558
 4570SOL    HW114276   2.831   4.775   2.612
 4570SOL    HW214277   2.960   4.754   2.515
 4571SOL     OW14278   2.876   3.960   2.833
 4571SOL    HW114279   2.868   3.924   2.740
 4571SOL    HW214280   2.874   3.884   2.898
 4572SOL     OW14281   3.571   4.109   3.243
 4572SOL    HW114282   3.644   4.178   3.247
 4572SOL    HW214283   3.599   4.034   3.184
 4573SOL     OW14284   2.117   5.072   2.152
 4573SOL    HW114285   2.021   5.073   2.125
 4573SOL    HW214286   2.129   5.125   2.236
 4574SOL     OW14287   1.967   4.737   3.588
 4574SOL    HW114288   1.890   4.704   3.642
 4574SOL    HW214289   2.052   4.707   3.630
 4575SOL     OW14290   2.534   3.927   3.351
 4575SOL    HW114291   2.624   3.911   3.311
 4575SOL    HW214292   2.542   3.932   3.450
 4576SOL     OW14293   1.937   4.069   1.895
 4576SOL    HW114294   1.845   4.041   1.866
 4576SOL    HW214295   1.968   4.146   1.839
 4577SOL     OW14296   3.302   4.580   3.260
 4577SOL    HW114297   3.245   4.632   3.197
 4577SOL    HW214298   3.398   4.592   3.236
 4578SOL     OW14299   1.934   3.890   2.180
 4578SOL    HW114300   1.917   3.973   2.126
 4578SOL    HW214301   2.024   3.853   2.158
 4579SOL     OW14302   3.045   5.059   1.981
 4579SOL    HW114303   2.946   5.048   1.983
 4579SOL    HW214304   3.079   5.074   2.074
 4580SOL     OW14305   2.475   4.566   3.293
 4580SOL    HW114306   2.531   4.647   3.276
 4580SOL    HW214307   2.534   4.486   3.296
 4581SOL     OW14308   2.578   4.289   3.570
 4581SOL    HW114309   2.597   4.354   3.644
 4581SOL    HW214310   2.638   4.209   3.579
 4582SOL     OW14311   3.312   4.944   3.495
 4582SOL    HW114312   3.303   4.934   3.594
 4582SOL    HW214313   3.408   4.937   3.469
 4583SOL     OW14314   3.536   4.607   3.116
 4583SOL    HW114315   3.509   4.518   3.079
 4583SOL    HW214316   3.537   4.675   3.043
 4584SOL     OW14317   3.087   4.049   2.311
 4584SOL    HW114318   3.152   3.975   2.300
 4584SOL    HW214319   3.107   4.099   2.395
 4585SOL     OW14320   2.456   4.469   2.514
 4585SOL    HW114321   2.506   4.554   2.495
 4585SOL    HW214322   2.368   4.471   2.466
 4586SOL     OW14323   3.639   4.066   3.504
 4586SOL    HW114324   3.622   4.097   3.410
 4586SOL    HW214325   3.555   4.029   3.542
 4587SOL     OW14326   3.592   4.658   3.379
 4587SOL    HW114327   3.630   4.749   3.394
 4587SOL    HW214328   3.584   4.641   3.280
 4588SOL     OW14329   2.721   5.098   1.878
 4588SOL    HW114330   2.675   5.113   1.966
 4588SOL    HW214331   2.765   5.183   1.848
 4589SOL     OW14332   2.721   4.680   2.723
 4589SOL    HW114333   2.775   4.611   2.771
 4589SOL    HW214334   2.689   4.749   2.789
 4590SOL     OW14335   2.945   4.708   1.949
 4590SOL    HW114336   2.922   4.761   1.867
 4590SOL    HW214337   3.026   4.652   1.930
 4591SOL     OW14338   2.083   5.038   3.706
 4591SOL    HW114339   2.018   4.965   3.685
 4591SOL    HW214340   2.087   5.052   3.804
 4592SOL     OW14341   1.941   4.964   2.515
 4592SOL    HW114342   1.940   4.917   2.603
 4592SOL    HW214343   2.023   4.936   2.464
 4593SOL     OW14344   2.534   5.115   3.486
 4593SOL    HW114345   2.456   5.065   3.524
 4593SOL    HW214346   2.531   5.210   3.517
 4594SOL     OW14347   3.686   3.916   3.089
 4594SOL    HW114348   3.682   3.826   3.133
 4594SOL    HW214349   3.689   3.905   2.990
 4595SOL     OW14350   2.290   4.148   2.382
 4595SOL    HW114351   2.320   4.076   2.320
 4595SOL    HW214352   2.251   4.108   2.465
 4596SOL     OW14353   3.567   5.211   2.966
 4596SOL    HW114354   3.474   5.186   2.939
 4596SOL    HW214355   3.593   5.161   3.048
 4597SOL     OW14356   2.179   4.271   3.142
 4597SOL    HW114357   2.217   4.212   3.214
 4597SOL    HW214358   2.219   4.245   3.054
 4598SOL     OW14359   3.286   3.938   2.974
 4598SOL    HW114360   3.338   3.873   3.029
 4598SOL    HW214361   3.237   4.001   3.035
 4599SOL     OW14362   2.863   3.758   3.016
 4599SOL    HW114363   2.800   3.686   2.985
 4599SOL    HW214364   2.956   3.722   3.016
 4600SOL     OW14365   2.632   5.054   2.163
 4600SOL    HW114366   2.586   4.967   2.180
 4600SOL    HW214367   2.723   5.051   2.204
 4601SOL     OW14368   2.480   5.291   3.146
 4601SOL    HW114369   2.475   5.373   3.203
 4601SOL    HW214370   2.569   5.288   3.101
 4602SOL     OW14371   3.214   3.776   2.030
 4602SOL    HW114372   3.249   3.735   1.946
 4602SOL    HW214373   3.124   3.738   2.050
 4603SOL     OW14374   3.162   4.177   2.553
 4603SOL    HW114375   3.103   4.257   2.557
 4603SOL    HW214376   3.177   4.142   2.646
 4604SOL     OW14377   3.455   3.945   2.744
 4604SOL    HW114378   3.371   3.944   2.798
 4604SOL    HW214379   3.457   4.028   2.688
 4605SOL     OW14380   1.901   4.801   2.162
 4605SOL    HW114381   2.000   4.790   2.153
 4605SOL    HW214382   1.861   4.715   2.194
 4606SOL     OW14383   2.092   4.352   3.837
 4606SOL    HW114384   1.999   4.350   3.874
 4606SOL    HW214385   2.093   4.313   3.745
 4607SOL     OW14386   2.087   3.999   4.720
 4607SOL    HW114387   2.122   3.982   4.812
 4607SOL    HW214388   1.999   3.954   4.708
 4608SOL     OW14389   1.881   4.092   4.371
 4608SOL    HW114390   1.799   4.135   4.410
 4608SOL    HW214391   1.853   4.019   4.308
 4609SOL     OW14392   2.431   4.999   4.889
 4609SOL    HW114393   2.338   4.992   4.852
 4609SOL    HW214394   2.442   5.088   4.933
 4610SOL     OW14395   3.417   5.235   4.427
 4610SOL    HW114396   3.360   5.219   4.508
 4610SOL    HW214397   3.358   5.245   4.347
 4611SOL     OW14398   2.997   4.427   4.441
 4611SOL    HW114399   3.054   4.505   4.416
 4611SOL    HW214400   2.937   4.453   4.517
 4612SOL     OW14401   3.617   4.331   3.955
 4612SOL    HW114402   3.605   4.318   3.856
 4612SOL    HW214403   3.587   4.250   4.004
 4613SOL     OW14404   2.630   4.868   4.747
 4613SOL    HW114405   2.552   4.885   4.807
 4613SOL    HW214406   2.664   4.955   4.711
 4614SOL     OW14407   2.712   4.522   5.547
 4614SOL    HW114408   2.708   4.598   5.612
 4614SOL    HW214409   2.734   4.558   5.456
 4615SOL     OW14410   2.547   4.736   4.389
 4615SOL    HW114411   2.616   4.720   4.459
 4615SOL    HW214412   2.474   4.793   4.427
 4616SOL     OW14413   2.548   4.885   5.527
 4616SOL    HW114414   2.608   4.964   5.541
 4616SOL    HW214415   2.462   4.916   5.486
 4617SOL     OW14416   2.197   5.159   4.785
 4617SOL    HW114417   2.119   5.128   4.732
 4617SOL    HW214418   2.255   5.217   4.728
 4618SOL     OW14419   3.322   5.229   5.063
 4618SOL    HW114420   3.346   5.323   5.089
 4618SOL    HW214421   3.306   5.175   5.145
 4619SOL     OW14422   2.300   4.116   5.223
 4619SOL    HW114423   2.382   4.060   5.232
 4619SOL    HW214424   2.219   4.058   5.227
 4620SOL     OW14425   3.465   4.171   4.461
 4620SOL    HW114426   3.391   4.217   4.411
 4620SOL    HW214427   3.516   4.239   4.514
 4621SOL     OW14428   2.989   5.065   5.414
 4621SOL    HW114429   3.036   5.065   5.502
 4621SOL    HW214430   2.941   4.978   5.403
 4622SOL     OW14431   2.092   5.158   4.262
 4622SOL    HW114432   2.066   5.254   4.262
 4622SOL    HW214433   2.021   5.104   4.307
 4623SOL     OW14434   2.102   4.815   4.610
 4623SOL    HW114435   2.116   4.731   4.662
 4623SOL    HW214436   2.047   4.879   4.665
 4624SOL     OW14437   2.468   4.688   3.847
 4624SOL    HW114438   2.475   4.772   3.793
 4624SOL    HW214439   2.514   4.701   3.935
 4625SOL     OW14440   3.456   3.838   5.204
 4625SOL    HW114441   3.438   3.905   5.132
 4625SOL    HW214442   3.453   3.884   5.293
 4626SOL     OW14443   1.984   4.367   4.287
 4626SOL    HW114444   1.939   4.279   4.304
 4626SOL    HW214445   1.983   4.421   4.371
 4627SOL     OW14446   1.889   5.320   3.841
 4627SOL    HW114447   1.870   5.224   3.862
 4627SOL    HW214448   1.856   5.378   3.916
 4628SOL     OW14449   3.551   4.646   4.336
 4628SOL    HW114450   3.646   4.617   4.344
 4628SOL    HW214451   3.543   4.711   4.261
 4629SOL     OW14452   3.503   4.832   4.156
 4629SOL    HW114453   3.589   4.834   4.104
 4629SOL    HW214454   3.517   4.879   4.244
 4630SOL     OW14455   1.975   4.461   5.321
 4630SOL    HW114456   2.063   4.448   5.366
 4630SOL    HW214457   1.962   4.558   5.299
 4631SOL     OW14458   2.475   5.089   4.450
 4631SOL    HW114459   2.426   5.002   4.459
 4631SOL    HW214460   2.452   5.132   4.363
 4632SOL     OW14461   3.155   4.952   5.147
 4632SOL    HW114462   3.192   4.879   5.089
 4632SOL    HW214463   3.207   4.957   5.232
 4633SOL     OW14464   2.671   3.728   4.226
 4633SOL    HW114465   2.711   3.819   4.217
 4633SOL    HW214466   2.571   3.736   4.232
 4634SOL     OW14467   2.059   4.700   4.988
 4634SOL    HW114468   2.148   4.655   4.974
 4634SOL    HW214469   1.986   4.635   4.969
 4635SOL     OW14470   3.387   4.723   3.914
 4635SOL    HW114471   3.324   4.647   3.927
 4635SOL    HW214472   3.435   4.741   4.000
 4636SOL     OW14473   2.179   3.975   5.525
 4636SOL    HW114474   2.250   4.046   5.531
 4636SOL    HW214475   2.091   4.014   5.553
 4637SOL     OW14476   3.328   5.141   4.677
 4637SOL    HW114477   3.269   5.147   4.757
 4637SOL    HW214478   3.313   5.053   4.631
 4638SOL     OW14479   2.460   4.453   3.994
 4638SOL    HW114480   2.484   4.522   3.926
 4638SOL    HW214481   2.382   4.486   4.048
 4639SOL     OW14482   3.143   4.069   4.668
 4639SOL    HW114483   3.057   4.019   4.655
 4639SOL    HW214484   3.205   4.015   4.724
 4640SOL     OW14485   2.669   4.329   5.189
 4640SOL    HW114486   2.622   4.326   5.278
 4640SOL    HW214487   2.618   4.274   5.123
 4641SOL     OW14488   3.256   4.193   5.398
 4641SOL    HW114489   3.236   4.236   5.486
 4641SOL    HW214490   3.334   4.131   5.407
 4642SOL     OW14491   2.835   4.614   5.296
 4642SOL    HW114492   2.881   4.530   5.267
 4642SOL    HW214493   2.779   4.648   5.221
 4643SOL     OW14494   2.853   4.134   4.966
 4643SOL    HW114495   2.776   4.168   5.020
 4643SOL    HW214496   2.819   4.083   4.887
 4644SOL     OW14497   2.903   4.425   4.153
 4644SOL    HW114498   2.929   4.421   4.249
 4644SOL    HW214499   2.818   4.374   4.139
 4645SOL     OW14500   1.938   4.535   4.513
 4645SOL    HW114501   2.037   4.523   4.522
 4645SOL    HW214502   1.914   4.630   4.534
 4646SOL     OW14503   2.727   4.072   3.919
 4646SOL    HW114504   2.786   4.135   3.870
 4646SOL    HW214505   2.746   3.978   3.890
 4647SOL     OW14506   3.581   4.309   5.555
 4647SOL    HW114507   3.555   4.398   5.519
 4647SOL    HW214508   3.579   4.241   5.482
 4648SOL     OW14509   3.224   4.868   4.269
 4648SOL    HW114510   3.307   4.839   4.221
 4648SOL    HW214511   3.175   4.935   4.213
 4649SOL     OW14512   2.412   3.920   4.609
 4649SOL    HW114513   2.407   3.915   4.709
 4649SOL    HW214514   2.414   4.016   4.580
 4650SOL     OW14515   2.870   5.180   4.201
 4650SOL    HW114516   2.824   5.252   4.149
 4650SOL    HW214517   2.866   5.200   4.299
 4651SOL     OW14518   3.657   4.790   4.597
 4651SOL    HW114519   3.595   4.775   4.521
 4651SOL    HW214520   3.605   4.801   4.682
 4652SOL     OW14521   3.089   5.274   5.230
 4652SOL    HW114522   3.095   5.197   5.294
 4652SOL    HW214523   3.037   5.248   5.150
 4653SOL     OW14524   2.183   4.667   3.966
 4653SOL    HW114525   2.265   4.706   3.924
 4653SOL    HW214526   2.156   4.585   3.917
 4654SOL     OW14527   3.320   4.459   4.452
 4654SOL    HW114528   3.315   4.394   4.527
 4654SOL    HW214529   3.400   4.518   4.465
 4655SOL     OW14530   2.323   4.990   5.451
 4655SOL    HW114531   2.273   4.991   5.365
 4655SOL    HW214532   2.260   4.972   5.527
 4656SOL     OW14533   2.973   5.500   3.961
 4656SOL    HW114534   2.913   5.438   4.011
 4656SOL    HW214535   3.004   5.456   3.876
 4657SOL     OW14536   2.064   4.009   5.222
 4657SOL    HW114537   1.984   4.069   5.209
 4657SOL    HW214538   2.054   3.960   5.308
 4658SOL     OW14539   3.494   5.101   3.805
 4658SOL    HW114540   3.462   5.195   3.795
 4658SOL    HW214541   3.418   5.038   3.793
 4659SOL     OW14542   3.262   3.831   4.150
 4659SOL    HW114543   3.238   3.794   4.060
 4659SOL    HW214544   3.361   3.847   4.154
 4660SOL     OW14545   2.244   4.424   4.204
 4660SOL    HW114546   2.289   4.334   4.201
 4660SOL    HW214547   2.150   4.413   4.237
 4661SOL     OW14548   3.409   3.946   5.453
 4661SOL    HW114549   3.404   3.983   5.545
 4661SOL    HW214550   3.337   3.877   5.441
 4662SOL     OW14551   2.476   3.846   3.841
 4662SOL    HW114552   2.574   3.824   3.848
 4662SOL    HW214553   2.445   3.829   3.748
 4663SOL     OW14554   2.643   3.988   5.473
 4663SOL    HW114555   2.710   3.927   5.516
 4663SOL    HW214556   2.570   4.007   5.538
 4664SOL     OW14557   3.213   4.314   5.157
 4664SOL    HW114558   3.241   4.271   5.242
 4664SOL    HW214559   3.238   4.410   5.158
 4665SOL     OW14560   2.665   5.126   4.648
 4665SOL    HW114561   2.755   5.140   4.606
 4665SOL    HW214562   2.594   5.128   4.577
 4666SOL     OW14563   2.784   4.227   4.623
 4666SOL    HW114564   2.759   4.218   4.527
 4666SOL    HW214565   2.832   4.145   4.654
 4667SOL     OW14566   2.401   3.788   4.236
 4667SOL    HW114567   2.320   3.789   4.294
 4667SOL    HW214568   2.404   3.871   4.181
 4668SOL     OW14569   3.296   4.912   3.765
 4668SOL    HW114570   3.328   4.836   3.822
 4668SOL    HW214571   3.204   4.939   3.795
 4669SOL     OW14572   2.159   3.759   3.895
 4669SOL    HW114573   2.208   3.843   3.874
 4669SOL    HW214574   2.221   3.694   3.940
 4670SOL     OW14575   2.797   3.960   4.204
 4670SOL    HW114576   2.749   4.001   4.126
 4670SOL    HW214577   2.896   3.958   4.185
 4671SOL     OW14578   2.938   4.407   5.188
 4671SOL    HW114579   2.858   4.346   5.191
 4671SOL    HW214580   3.019   4.354   5.164
 4672SOL     OW14581   3.089   5.294   4.517
 4672SOL    HW114582   3.110   5.368   4.452
 4672SOL    HW214583   3.157   5.294   4.590
 4673SOL     OW14584   2.321   4.876   4.465
 4673SOL    HW114585   2.250   4.849   4.530
 4673SOL    HW214586   2.295   4.848   4.372
 4674SOL     OW14587   2.894   4.273   3.740
 4674SOL    HW114588   2.853   4.355   3.701
 4674SOL    HW214589   2.958   4.299   3.813
 4675SOL     OW14590   1.940   4.280   5.110
 4675SOL    HW114591   2.032   4.279   5.069
 4675SOL    HW214592   1.934   4.354   5.177
 4676SOL     OW14593   2.423   3.946   4.871
 4676SOL    HW114594   2.461   3.862   4.908
 4676SOL    HW214595   2.335   3.965   4.915
 4677SOL     OW14596   2.728   4.178   4.366
 4677SOL    HW114597   2.696   4.250   4.304
 4677SOL    HW214598   2.752   4.097   4.313
 4678SOL     OW14599   2.879   3.763   4.477
 4678SOL    HW114600   2.807   3.768   4.408
 4678SOL    HW214601   2.855   3.694   4.546
 4679SOL     OW14602   3.291   4.897   4.591
 4679SOL    HW114603   3.236   4.813   4.584
 4679SOL    HW214604   3.317   4.926   4.499
 4680SOL     OW14605   3.328   4.314   4.716
 4680SOL    HW114606   3.298   4.219   4.723
 4680SOL    HW214607   3.401   4.330   4.782
 4681SOL     OW14608   3.719   4.557   4.101
 4681SOL    HW114609   3.761   4.493   4.165
 4681SOL    HW214610   3.681   4.506   4.023
 4682SOL     OW14611   2.350   5.109   3.898
 4682SOL    HW114612   2.263   5.094   3.945
 4682SOL    HW214613   2.333   5.135   3.803
 4683SOL     OW14614   3.526   5.004   4.381
 4683SOL    HW114615   3.625   5.012   4.395
 4683SOL    HW214616   3.481   5.088   4.412
 4684SOL     OW14617   3.252   4.299   3.802
 4684SOL    HW114618   3.198   4.278   3.883
 4684SOL    HW214619   3.343   4.258   3.811
 4685SOL     OW14620   2.389   3.980   4.052
 4685SOL    HW114621   2.416   3.921   3.977
 4685SOL    HW214622   2.389   4.075   4.021
 4686SOL     OW14623   3.616   4.947   5.312
 4686SOL    HW114624   3.707   4.908   5.299
 4686SOL    HW214625   3.624   5.043   5.336
 4687SOL     OW14626   2.926   5.071   5.064
 4687SOL    HW114627   2.846   5.048   5.119
 4687SOL    HW214628   3.009   5.045   5.113
 4688SOL     OW14629   2.973   4.919   4.824
 4688SOL    HW114630   2.933   4.963   4.905
 4688SOL    HW214631   2.932   4.956   4.741
 4689SOL     OW14632   3.500   4.823   4.803
 4689SOL    HW114633   3.505   4.904   4.862
 4689SOL    HW214634   3.414   4.825   4.752
 4690SOL     OW14635   2.777   3.813   5.126
 4690SOL    HW114636   2.802   3.793   5.031
 4690SOL    HW214637   2.849   3.869   5.168
 4691SOL     OW14638   2.842   4.840   5.443
 4691SOL    HW114639   2.743   4.846   5.453
 4691SOL    HW214640   2.865   4.760   5.387
 4692SOL     OW14641   2.567   4.774   4.092
 4692SOL    HW114642   2.553   4.781   4.191
 4692SOL    HW214643   2.651   4.723   4.074
 4693SOL     OW14644   2.272   4.537   4.975
 4693SOL    HW114645   2.358   4.549   5.025
 4693SOL    HW214646   2.230   4.450   5.002
 4694SOL     OW14647   3.136   4.110   4.986
 4694SOL    HW114648   3.157   4.184   5.050
 4694SOL    HW214649   3.047   4.127   4.943
 4695SOL     OW14650   2.229   4.824   4.225
 4695SOL    HW114651   2.222   4.907   4.169
 4695SOL    HW214652   2.233   4.744   4.165
 4696SOL     OW14653   2.428   4.261   4.589
 4696SOL    HW114654   2.440   4.327   4.515
 4696SOL    HW214655   2.474   4.295   4.672
 4697SOL     OW14656   3.114   5.072   4.112
 4697SOL    HW114657   3.164   5.149   4.152
 4697SOL    HW214658   3.019   5.074   4.144
 4698SOL     OW14659   3.134   5.169   4.866
 4698SOL    HW114660   3.181   5.182   4.953
 4698SOL    HW214661   3.068   5.095   4.875
 4699SOL     OW14662   3.444   4.363   4.196
 4699SOL    HW114663   3.413   4.424   4.269
 4699SOL    HW214664   3.494   4.415   4.127
 4700SOL     OW14665   2.216   5.234   5.053
 4700SOL    HW114666   2.195   5.190   4.966
 4700SOL    HW214667   2.313   5.260   5.056
 4701SOL     OW14668   2.264   4.475   5.322
 4701SOL    HW114669   2.332   4.530   5.275
 4701SOL    HW214670   2.304   4.387   5.349
 4702SOL     OW14671   3.449   4.503   5.394
 4702SOL    HW114672   3.357   4.541   5.389
 4702SOL    HW214673   3.509   4.550   5.329
 4703SOL     OW14674   2.875   3.829   5.494
 4703SOL    HW114675   2.881   3.914   5.442
 4703SOL    HW214676   2.907   3.753   5.437
 4704SOL     OW14677   2.366   3.774   5.464
 4704SOL    HW114678   2.324   3.717   5.394
 4704SOL    HW214679   2.300   3.843   5.496
 4705SOL     OW14680   2.435   4.594   4.753
 4705SOL    HW114681   2.479   4.683   4.744
 4705SOL    HW214682   2.372   4.594   4.830
 4706SOL     OW14683   3.222   4.586   4.769
 4706SOL    HW114684   3.147   4.586   4.703
 4706SOL    HW214685   3.259   4.494   4.778
 4707SOL     OW14686   3.071   4.249   3.999
 4707SOL    HW114687   3.084   4.165   4.053
 4707SOL    HW214688   3.042   4.323   4.059
 4708SOL     OW14689   2.169   3.937   4.955
 4708SOL    HW114690   2.146   3.974   5.045
 4708SOL    HW214691   2.139   3.842   4.949
 4709SOL     OW14692   1.899   5.034   5.006
 4709SOL    HW114693   1.952   4.985   5.074
 4709SOL    HW214694   1.921   5.132   5.011
 4710SOL     OW14695   2.594   4.358   4.788
 4710SOL    HW114696   2.653   4.332   4.712
 4710SOL    HW214697   2.566   4.454   4.777
 4711SOL     OW14698   3.590   4.659   5.578
 4711SOL    HW114699   3.544   4.652   5.489
 4711SOL    HW214700   3.528   4.703   5.644
 4712SOL     OW14701   2.169   3.787   4.342
 4712SOL    HW114702   2.158   3.881   4.375
 4712SOL    HW214703   2.164   3.724   4.419
 4713SOL     OW14704   3.484   4.091   4.098
 4713SOL    HW114705   3.486   4.015   4.162
 4713SOL    HW214706   3.436   4.168   4.138
 4714SOL     OW14707   2.885   4.490   4.690
 4714SOL    HW114708   2.900   4.511   4.786
 4714SOL    HW214709   2.855   4.395   4.681
 4715SOL     OW14710   3.721   5.242   5.329
 4715SOL    HW114711   3.735   5.269   5.234
 4715SOL    HW214712   3.804   5.264   5.382
 4716SOL     OW14713   2.212   4.622   5.528
 4716SOL    HW114714   2.288   4.666   5.576
 4716SOL    HW214715   2.247   4.575   5.446
 4717SOL     OW14716   3.402   3.998   3.849
 4717SOL    HW114717   3.341   3.923   3.872
 4717SOL    HW214718   3.424   4.050   3.932
 4718SOL     OW14719   3.165   4.562   3.766
 4718SOL    HW114720   3.199   4.469   3.781
 4718SOL    HW214721   3.183   4.589   3.671
 4719SOL     OW14722   2.930   5.057   4.573
 4719SOL    HW114723   2.937   4.973   4.518
 4719SOL    HW214724   2.992   5.126   4.537
 4720SOL     OW14725   2.181   4.534   4.673
 4720SOL    HW114726   2.274   4.570   4.678
 4720SOL    HW214727   2.175   4.449   4.725
 4721SOL     OW14728   2.201   4.233   4.730
 4721SOL    HW114729   2.149   4.150   4.713
 4721SOL    HW214730   2.278   4.238   4.666
 4722SOL     OW14731   3.000   4.104   5.402
 4722SOL    HW114732   2.955   4.167   5.466
 4722SOL    HW214733   3.093   4.135   5.385
 4723SOL     OW14734   3.022   3.931   5.201
 4723SOL    HW114735   3.022   3.995   5.278
 4723SOL    HW214736   3.050   3.979   5.118
 4724SOL     OW14737   1.870   5.050   3.924
 4724SOL    HW114738   1.777   5.071   3.893
 4724SOL    HW214739   1.880   4.951   3.937
 4725SOL     OW14740   2.864   4.520   4.962
 4725SOL    HW114741   2.905   4.488   5.048
 4725SOL    HW214742   2.768   4.493   4.959
 4726SOL     OW14743   1.902   4.268   4.838
 4726SOL    HW114744   1.987   4.235   4.797
 4726SOL    HW214745   1.915   4.283   4.936
 4727SOL     OW14746   2.051   4.244   5.446
 4727SOL    HW114747   2.110   4.204   5.376
 4727SOL    HW214748   1.993   4.315   5.405
 4728SOL     OW14749   3.231   4.674   5.384
 4728SOL    HW114750   3.270   4.763   5.404
 4728SOL    HW214751   3.241   4.654   5.287
 4729SOL     OW14752   2.677   4.296   4.049
 4729SOL    HW114753   2.684   4.207   4.003
 4729SOL    HW214754   2.583   4.330   4.041
 4730SOL     OW14755   3.519   4.328   4.930
 4730SOL    HW114756   3.481   4.259   4.992
 4730SOL    HW214757   3.601   4.292   4.886
 4731SOL     OW14758   2.114   5.288   5.468
 4731SOL    HW114759   2.084   5.345   5.544
 4731SOL    HW214760   2.107   5.191   5.494
 4732SOL     OW14761   2.533   4.188   4.993
 4732SOL    HW114762   2.499   4.099   4.963
 4732SOL    HW214763   2.559   4.242   4.913
 4733SOL     OW14764   2.335   4.224   3.915
 4733SOL    HW114765   2.396   4.304   3.919
 4733SOL    HW214766   2.240   4.255   3.922
 4734SOL     OW14767   2.021   4.861   5.190
 4734SOL    HW114768   2.043   4.800   5.266
 4734SOL    HW214769   2.031   4.812   5.104
 4735SOL     OW14770   3.209   4.783   4.958
 4735SOL    HW114771   3.233   4.720   4.884
 4735SOL    HW214772   3.119   4.823   4.940
 4736SOL     OW14773   3.164   4.579   4.033
 4736SOL    HW114774   3.078   4.548   4.075
 4736SOL    HW214775   3.160   4.565   3.934
 4737SOL     OW14776   1.945   4.982   4.746
 4737SOL    HW114777   1.940   4.981   4.846
 4737SOL    HW214778   1.862   4.941   4.708
 4738SOL     OW14779   2.550   5.386   5.440
 4738SOL    HW114780   2.494   5.467   5.449
 4738SOL    HW214781   2.602   5.390   5.354
 4739SOL     OW14782   3.588   3.859   4.247
 4739SOL    HW114783   3.661   3.842   4.180
 4739SOL    HW214784   3.557   3.772   4.285
 4740SOL     OW14785   3.142   4.651   4.396
 4740SOL    HW114786   3.202   4.570   4.398
 4740SOL    HW214787   3.182   4.720   4.336
 4741SOL     OW14788   2.692   4.997   5.146
 4741SOL    HW114789   2.687   5.030   5.241
 4741SOL    HW214790   2.606   5.016   5.100
 4742SOL     OW14791   3.703   3.899   4.687
 4742SOL    HW114792   3.742   3.814   4.651
 4742SOL    HW214793   3.605   3.901   4.668
 4743SOL     OW14794   2.125   4.050   4.444
 4743SOL    HW114795   2.046   4.101   4.410
 4743SOL    HW214796   2.116   4.035   4.542
 4744SOL     OW14797   2.684   4.726   5.096
 4744SOL    HW114798   2.724   4.725   5.004
 4744SOL    HW214799   2.694   4.818   5.136
 4745SOL     OW14800   2.778   4.634   4.015
 4745SOL    HW114801   2.841   4.672   3.947
 4745SOL    HW214802   2.818   4.551   4.054
 4746SOL     OW14803   2.234   5.012   5.214
 4746SOL    HW114804   2.221   5.105   5.180
 4746SOL    HW214805   2.150   4.960   5.201
 4747SOL     OW14806   3.476   5.016   5.013
 4747SOL    HW114807   3.536   5.019   5.093
 4747SOL    HW214808   3.401   5.080   5.026
 4748SOL     OW14809   2.901   4.822   4.420
 4748SOL    HW114810   2.831   4.775   4.474
 4748SOL    HW214811   2.960   4.754   4.377
 4749SOL     OW14812   2.876   3.960   4.695
 4749SOL    HW114813   2.868   3.924   4.602
 4749SOL    HW214814   2.874   3.884   4.760
 4750SOL     OW14815   3.571   4.109   5.105
 4750SOL    HW114816   3.644   4.178   5.109
 4750SOL    HW214817   3.599   4.034   5.046
 4751SOL     OW14818   2.117   5.072   4.014
 4751SOL    HW114819   2.021   5.073   3.987
 4751SOL    HW214820   2.129   5.125   4.098
 4752SOL     OW14821   1.967   4.737   5.450
 4752SOL    HW114822   1.890   4.704   5.504
 4752SOL    HW214823   2.052   4.707   5.492
 4753SOL     OW14824   2.534   3.927   5.213
 4753SOL    HW114825   2.624   3.911   5.173
 4753SOL    HW214826   2.542   3.932   5.312
 4754SOL     OW14827   1.937   4.069   3.757
 4754SOL    HW114828   1.845   4.041   3.728
 4754SOL    HW214829   1.968   4.146   3.701
 4755SOL     OW14830   3.302   4.580   5.122
 4755SOL    HW114831   3.245   4.632   5.059
 4755SOL    HW214832   3.398   4.592   5.098
 4756SOL     OW14833   1.934   3.890   4.042
 4756SOL    HW114834   1.917   3.973   3.988
 4756SOL    HW214835   2.024   3.853   4.020
 4757SOL     OW14836   3.045   5.059   3.843
 4757SOL    HW114837   2.946   5.048   3.845
 4757SOL    HW214838   3.079   5.074   3.936
 4758SOL     OW14839   2.475   4.566   5.155
 4758SOL    HW114840   2.531   4.647   5.138
 4758SOL    HW214841   2.534   4.486   5.158
 4759SOL     OW14842   2.578   4.289   5.432
 4759SOL    HW114843   2.597   4.354   5.506
 4759SOL    HW214844   2.638   4.209   5.441
 4760SOL     OW14845   3.312   4.944   5.357
 4760SOL    HW114846   3.303   4.934   5.456
 4760SOL    HW214847   3.408   4.937   5.331
 4761SOL     OW14848   3.536   4.607   4.978
 4761SOL    HW114849   3.509   4.518   4.941
 4761SOL    HW214850   3.537   4.675   4.905
 4762SOL     OW14851   3.087   4.049   4.173
 4762SOL    HW114852   3.152   3.975   4.162
 4762SOL    HW214853   3.107   4.099   4.257
 4763SOL     OW14854   2.456   4.469   4.376
 4763SOL    HW114855   2.506   4.554   4.357
 4763SOL    HW214856   2.368   4.471   4.328
 4764SOL     OW14857   3.639   4.066   5.366
 4764SOL    HW114858   3.622   4.097   5.272
 4764SOL    HW214859   3.555   4.029   5.404
 4765SOL     OW14860   3.592   4.658   5.241
 4765SOL    HW114861   3.630   4.749   5.256
 4765SOL    HW214862   3.584   4.641   5.142
 4766SOL     OW14863   2.721   5.098   3.740
 4766SOL    HW114864   2.675   5.113   3.828
 4766SOL    HW214865   2.765   5.183   3.710
 4767SOL     OW14866   2.721   4.680   4.585
 4767SOL    HW114867   2.775   4.611   4.633
 4767SOL    HW214868   2.689   4.749   4.651
 4768SOL     OW14869   2.945   4.708   3.811
 4768SOL    HW114870   2.922   4.761   3.729
 4768SOL    HW214871   3.026   4.652   3.792
 4769SOL     OW14872   2.083   5.038   5.568
 4769SOL    HW114873   2.018   4.965   5.547
 4769SOL    HW214874   2.087   5.052   5.666
 4770SOL     OW14875   1.941   4.964   4.377
 4770SOL    HW114876   1.940   4.917   4.465
 4770SOL    HW214877   2.023   4.936   4.326
 4771SOL     OW14878   2.534   5.115   5.348
 4771SOL    HW114879   2.456   5.065   5.386
 4771SOL    HW214880   2.531   5.210   5.379
 4772SOL     OW14881   3.686   3.916   4.951
 4772SOL    HW114882   3.682   3.826   4.995
 4772SOL    HW214883   3.689   3.905   4.852
 4773SOL     OW14884   2.290   4.148   4.244
 4773SOL    HW114885   2.320   4.076   4.182
 4773SOL    HW214886   2.251   4.108   4.327
 4774SOL     OW14887   3.567   5.211   4.828
 4774SOL    HW114888   3.474   5.186   4.801
 4774SOL    HW214889   3.593   5.161   4.910
 4775SOL     OW14890   2.179   4.271   5.004
 4775SOL    HW114891   2.217   4.212   5.076
 4775SOL    HW214892   2.219   4.245   4.916
 4776SOL     OW14893   3.286   3.938   4.836
 4776SOL    HW114894   3.338   3.873   4.891
 4776SOL    HW214895   3.237   4.001   4.897
 4777SOL     OW14896   2.863   3.758   4.878
 4777SOL    HW114897   2.800   3.686   4.847
 4777SOL    HW214898   2.956   3.722   4.878
 4778SOL     OW14899   2.632   5.054   4.025
 4778SOL    HW114900   2.586   4.967   4.042
 4778SOL    HW214901   2.723   5.051   4.066
 4779SOL     OW14902   2.480   5.291   5.008
 4779SOL    HW114903   2.475   5.373   5.065
 4779SOL    HW214904   2.569   5.288   4.963
 4780SOL     OW14905   3.214   3.776   3.892
 4780SOL    HW114906   3.249   3.735   3.808
 4780SOL    HW214907   3.124   3.738   3.912
 4781SOL     OW14908   3.162   4.177   4.415
 4781SOL    HW114909   3.103   4.257   4.419
 4781SOL    HW214910   3.177   4.142   4.508
 4782SOL     OW14911   3.455   3.945   4.606
 4782SOL    HW114912   3.371   3.944   4.660
 4782SOL    HW214913   3.457   4.028   4.550
 4783SOL     OW14914   1.901   4.801   4.024
 4783SOL    HW114915   2.000   4.790   4.015
 4783SOL    HW214916   1.861   4.715   4.056
 4784SOL     OW14917   2.092   4.352   5.699
 4784SOL    HW114918   1.999   4.350   5.736
 4784SOL    HW214919   2.093   4.313   5.607
 4785SOL     OW14920   2.087   3.999   6.582
 4785SOL    HW114921   2.122   3.982   6.674
 4785SOL    HW214922   1.999   3.954   6.570
 4786SOL     OW14923   1.881   4.092   6.233
 4786SOL    HW114924   1.799   4.135   6.272
 4786SOL    HW214925   1.853   4.019   6.170
 4787SOL     OW14926   2.431   4.999   6.751
 4787SOL    HW114927   2.338   4.992   6.714
 4787SOL    HW214928   2.442   5.088   6.795
 4788SOL     OW14929   3.417   5.235   6.289
 4788SOL    HW114930   3.360   5.219   6.370
 4788SOL    HW214931   3.358   5.245   6.209
 4789SOL     OW14932   2.997   4.427   6.303
 4789SOL    HW114933   3.054   4.505   6.278
 4789SOL    HW214934   2.937   4.453   6.379
 4790SOL     OW14935   3.617   4.331   5.817
 4790SOL    HW114936   3.605   4.318   5.718
 4790SOL    HW214937   3.587   4.250   5.866
 4791SOL     OW14938   2.630   4.868   6.609
 4791SOL    HW114939   2.552   4.885   6.669
 4791SOL    HW214940   2.664   4.955   6.573
 4792SOL     OW14941   2.712   4.522   7.409
 4792SOL    HW114942   2.708   4.598   7.474
 4792SOL    HW214943   2.734   4.558   7.318
 4793SOL     OW14944   2.547   4.736   6.251
 4793SOL    HW114945   2.616   4.720   6.321
 4793SOL    HW214946   2.474   4.793   6.289
 4794SOL     OW14947   2.548   4.885   7.389
 4794SOL    HW114948   2.608   4.964   7.403
 4794SOL    HW214949   2.462   4.916   7.348
 4795SOL     OW14950   2.197   5.159   6.647
 4795SOL    HW114951   2.119   5.128   6.594
 4795SOL    HW214952   2.255   5.217   6.590
 4796SOL     OW14953   3.322   5.229   6.925
 4796SOL    HW114954   3.346   5.323   6.951
 4796SOL    HW214955   3.306   5.175   7.007
 4797SOL     OW14956   2.300   4.116   7.085
 4797SOL    HW114957   2.382   4.060   7.094
 4797SOL    HW214958   2.219   4.058   7.089
 4798SOL     OW14959   3.465   4.171   6.323
 4798SOL    HW114960   3.391   4.217   6.273
 4798SOL    HW214961   3.516   4.239   6.376
 4799SOL     OW14962   2.989   5.065   7.276
 4799SOL    HW114963   3.036   5.065   7.364
 4799SOL    HW214964   2.941   4.978   7.265
 4800SOL     OW14965   2.092   5.158   6.124
 4800SOL    HW114966   2.066   5.254   6.124
 4800SOL    HW214967   2.021   5.104   6.169
 4801SOL     OW14968   2.102   4.815   6.472
 4801SOL    HW114969   2.116   4.731   6.524
 4801SOL    HW214970   2.047   4.879   6.527
 4802SOL     OW14971   2.468   4.688   5.709
 4802SOL    HW114972   2.475   4.772   5.655
 4802SOL    HW214973   2.514   4.701   5.797
 4803SOL     OW14974   3.456   3.838   7.066
 4803SOL    HW114975   3.438   3.905   6.994
 4803SOL    HW214976   3.453   3.884   7.155
 4804SOL     OW14977   1.984   4.367   6.149
 4804SOL    HW114978   1.939   4.279   6.166
 4804SOL    HW214979   1.983   4.421   6.233
 4805SOL     OW14980   1.889   5.320   5.703
 4805SOL    HW114981   1.870   5.224   5.724
 4805SOL    HW214982   1.856   5.378   5.778
 4806SOL     OW14983   3.551   4.646   6.198
 4806SOL    HW114984   3.646   4.617   6.206
 4806SOL    HW214985   3.543   4.711   6.123
 4807SOL     OW14986   3.503   4.832   6.018
 4807SOL    HW114987   3.589   4.834   5.966
 4807SOL    HW214988   3.517   4.879   6.106
 4808SOL     OW14989   1.975   4.461   7.183
 4808SOL    HW114990   2.063   4.448   7.228
 4808SOL    HW214991   1.962   4.558   7.161
 4809SOL     OW14992   2.475   5.089   6.312
 4809SOL    HW114993   2.426   5.002   6.321
 4809SOL    HW214994   2.452   5.132   6.225
 4810SOL     OW14995   3.155   4.952   7.009
 4810SOL    HW114996   3.192   4.879   6.951
 4810SOL    HW214997   3.207   4.957   7.094
 4811SOL     OW14998   2.671   3.728   6.088
 4811SOL    HW114999   2.711   3.819   6.079
 4811SOL    HW215000   2.571   3.736   6.094
 4812SOL     OW15001   2.059   4.700   6.850
 4812SOL    HW115002   2.148   4.655   6.836
 4812SOL    HW215003   1.986   4.635   6.831
 4813SOL     OW15004   3.387   4.723   5.776
 4813SOL    HW115005   3.324   4.647   5.789
 4813SOL    HW215006   3.435   4.741   5.862
 4814SOL     OW15007   2.179   3.975   7.387
 4814SOL    HW115008   2.250   4.046   7.393
 4814SOL    HW215009   2.091   4.014   7.415
 4815SOL     OW15010   3.328   5.141   6.539
 4815SOL    HW115011   3.269   5.147   6.619
 4815SOL    HW215012   3.313   5.053   6.493
 4816SOL     OW15013   2.460   4.453   5.856
 4816SOL    HW115014   2.484   4.522   5.788
 4816SOL    HW215015   2.382   4.486   5.910
 4817SOL     OW15016   3.143   4.069   6.530
 4817SOL    HW115017   3.057   4.019   6.517
 4817SOL    HW215018   3.205   4.015   6.586
 4818SOL     OW15019   2.669   4.329   7.051
 4818SOL    HW115020   2.622   4.326   7.140
 4818SOL    HW215021   2.618   4.274   6.985
 4819SOL     OW15022   3.256   4.193   7.260
 4819SOL    HW115023   3.236   4.236   7.348
 4819SOL    HW215024   3.334   4.131   7.269
 4820SOL     OW15025   2.835   4.614   7.158
 4820SOL    HW115026   2.881   4.530   7.129
 4820SOL    HW215027   2.779   4.648   7.083
 4821SOL     OW15028   2.853   4.134   6.828
 4821SOL    HW115029   2.776   4.168   6.882
 4821SOL    HW215030   2.819   4.083   6.749
 4822SOL     OW15031   2.903   4.425   6.015
 4822SOL    HW115032   2.929   4.421   6.111
 4822SOL    HW215033   2.818   4.374   6.001
 4823SOL     OW15034   1.938   4.535   6.375
 4823SOL    HW115035   2.037   4.523   6.384
 4823SOL    HW215036   1.914   4.630   6.396
 4824SOL     OW15037   2.727   4.072   5.781
 4824SOL    HW115038   2.786   4.135   5.732
 4824SOL    HW215039   2.746   3.978   5.752
 4825SOL     OW15040   3.581   4.309   7.417
 4825SOL    HW115041   3.555   4.398   7.381
 4825SOL    HW215042   3.579   4.241   7.344
 4826SOL     OW15043   3.224   4.868   6.131
 4826SOL    HW115044   3.307   4.839   6.083
 4826SOL    HW215045   3.175   4.935   6.075
 4827SOL     OW15046   2.412   3.920   6.471
 4827SOL    HW115047   2.407   3.915   6.571
 4827SOL    HW215048   2.414   4.016   6.442
 4828SOL     OW15049   2.870   5.180   6.063
 4828SOL    HW115050   2.824   5.252   6.011
 4828SOL    HW215051   2.866   5.200   6.161
 4829SOL     OW15052   3.657   4.790   6.459
 4829SOL    HW115053   3.595   4.775   6.383
 4829SOL    HW215054   3.605   4.801   6.544
 4830SOL     OW15055   3.089   5.274   7.092
 4830SOL    HW115056   3.095   5.197   7.156
 4830SOL    HW215057   3.037   5.248   7.012
 4831SOL     OW15058   2.183   4.667   5.828
 4831SOL    HW115059   2.265   4.706   5.786
 4831SOL    HW215060   2.156   4.585   5.779
 4832SOL     OW15061   3.320   4.459   6.314
 4832SOL    HW115062   3.315   4.394   6.389
 4832SOL    HW215063   3.400   4.518   6.327
 4833SOL     OW15064   2.323   4.990   7.313
 4833SOL    HW115065   2.273   4.991   7.227
 4833SOL    HW215066   2.260   4.972   7.389
 4834SOL     OW15067   2.973   5.500   5.823
 4834SOL    HW115068   2.913   5.438   5.873
 4834SOL    HW215069   3.004   5.456   5.738
 4835SOL     OW15070   2.064   4.009   7.084
 4835SOL    HW115071   1.984   4.069   7.071
 4835SOL    HW215072   2.054   3.960   7.170
 4836SOL     OW15073   3.494   5.101   5.667
 4836SOL    HW115074   3.462   5.195   5.657
 4836SOL    HW215075   3.418   5.038   5.655
 4837SOL     OW15076   3.262   3.831   6.012
 4837SOL    HW115077   3.238   3.794   5.922
 4837SOL    HW215078   3.361   3.847   6.016
 4838SOL     OW15079   2.244   4.424   6.066
 4838SOL    HW115080   2.289   4.334   6.063
 4838SOL    HW215081   2.150   4.413   6.099
 4839SOL     OW15082   3.409   3.946   7.315
 4839SOL    HW115083   3.404   3.983   7.407
 4839SOL    HW215084   3.337   3.877   7.303
 4840SOL     OW15085   2.476   3.846   5.703
 4840SOL    HW115086   2.574   3.824   5.710
 4840SOL    HW215087   2.445   3.829   5.610
 4841SOL     OW15088   2.643   3.988   7.335
 4841SOL    HW115089   2.710   3.927   7.378
 4841SOL    HW215090   2.570   4.007   7.400
 4842SOL     OW15091   3.213   4.314   7.019
 4842SOL    HW115092   3.241   4.271   7.104
 4842SOL    HW215093   3.238   4.410   7.020
 4843SOL     OW15094   2.665   5.126   6.510
 4843SOL    HW115095   2.755   5.140   6.468
 4843SOL    HW215096   2.594   5.128   6.439
 4844SOL     OW15097   2.784   4.227   6.485
 4844SOL    HW115098   2.759   4.218   6.389
 4844SOL    HW215099   2.832   4.145   6.516
 4845SOL     OW15100   2.401   3.788   6.098
 4845SOL    HW115101   2.320   3.789   6.156
 4845SOL    HW215102   2.404   3.871   6.043
 4846SOL     OW15103   3.296   4.912   5.627
 4846SOL    HW115104   3.328   4.836   5.684
 4846SOL    HW215105   3.204   4.939   5.657
 4847SOL     OW15106   2.159   3.759   5.757
 4847SOL    HW115107   2.208   3.843   5.736
 4847SOL    HW215108   2.221   3.694   5.802
 4848SOL     OW15109   2.797   3.960   6.066
 4848SOL    HW115110   2.749   4.001   5.988
 4848SOL    HW215111   2.896   3.958   6.047
 4849SOL     OW15112   2.938   4.407   7.050
 4849SOL    HW115113   2.858   4.346   7.053
 4849SOL    HW215114   3.019   4.354   7.026
 4850SOL     OW15115   3.089   5.294   6.379
 4850SOL    HW115116   3.110   5.368   6.314
 4850SOL    HW215117   3.157   5.294   6.452
 4851SOL     OW15118   2.321   4.876   6.327
 4851SOL    HW115119   2.250   4.849   6.392
 4851SOL    HW215120   2.295   4.848   6.234
 4852SOL     OW15121   2.894   4.273   5.602
 4852SOL    HW115122   2.853   4.355   5.563
 4852SOL    HW215123   2.958   4.299   5.675
 4853SOL     OW15124   1.940   4.280   6.972
 4853SOL    HW115125   2.032   4.279   6.931
 4853SOL    HW215126   1.934   4.354   7.039
 4854SOL     OW15127   2.423   3.946   6.733
 4854SOL    HW115128   2.461   3.862   6.770
 4854SOL    HW215129   2.335   3.965   6.777
 4855SOL     OW15130   2.728   4.178   6.228
 4855SOL    HW115131   2.696   4.250   6.166
 4855SOL    HW215132   2.752   4.097   6.175
 4856SOL     OW15133   2.879   3.763   6.339
 4856SOL    HW115134   2.807   3.768   6.270
 4856SOL    HW215135   2.855   3.694   6.408
 4857SOL     OW15136   3.291   4.897   6.453
 4857SOL    HW115137   3.236   4.813   6.446
 4857SOL    HW215138   3.317   4.926   6.361
 4858SOL     OW15139   3.328   4.314   6.578
 4858SOL    HW115140   3.298   4.219   6.585
 4858SOL    HW215141   3.401   4.330   6.644
 4859SOL     OW15142   3.719   4.557   5.963
 4859SOL    HW115143   3.761   4.493   6.027
 4859SOL    HW215144   3.681   4.506   5.885
 4860SOL     OW15145   2.350   5.109   5.760
 4860SOL    HW115146   2.263   5.094   5.807
 4860SOL    HW215147   2.333   5.135   5.665
 4861SOL     OW15148   3.526   5.004   6.243
 4861SOL    HW115149   3.625   5.012   6.257
 4861SOL    HW215150   3.481   5.088   6.274
 4862SOL     OW15151   3.252   4.299   5.664
 4862SOL    HW115152   3.198   4.278   5.745
 4862SOL    HW215153   3.343   4.258   5.673
 4863SOL     OW15154   2.389   3.980   5.914
 4863SOL    HW115155   2.416   3.921   5.839
 4863SOL    HW215156   2.389   4.075   5.883
 4864SOL     OW15157   3.616   4.947   7.174
 4864SOL    HW115158   3.707   4.908   7.161
 4864SOL    HW215159   3.624   5.043   7.198
 4865SOL     OW15160   2.926   5.071   6.926
 4865SOL    HW115161   2.846   5.048   6.981
 4865SOL    HW215162   3.009   5.045   6.975
 4866SOL     OW15163   2.973   4.919   6.686
 4866SOL    HW115164   2.933   4.963   6.767
 4866SOL    HW215165   2.932   4.956   6.603
 4867SOL     OW15166   3.500   4.823   6.665
 4867SOL    HW115167   3.505   4.904   6.724
 4867SOL    HW215168   3.414   4.825   6.614
 4868SOL     OW15169   2.777   3.813   6.988
 4868SOL    HW115170   2.802   3.793   6.893
 4868SOL    HW215171   2.849   3.869   7.030
 4869SOL     OW15172   2.842   4.840   7.305
 4869SOL    HW115173   2.743   4.846   7.315
 4869SOL    HW215174   2.865   4.760   7.249
 4870SOL     OW15175   2.567   4.774   5.954
 4870SOL    HW115176   2.553   4.781   6.053
 4870SOL    HW215177   2.651   4.723   5.936
 4871SOL     OW15178   2.272   4.537   6.837
 4871SOL    HW115179   2.358   4.549   6.887
 4871SOL    HW215180   2.230   4.450   6.864
 4872SOL     OW15181   3.136   4.110   6.848
 4872SOL    HW115182   3.157   4.184   6.912
 4872SOL    HW215183   3.047   4.127   6.805
 4873SOL     OW15184   2.229   4.824   6.087
 4873SOL    HW115185   2.222   4.907   6.031
 4873SOL    HW215186   2.233   4.744   6.027
 4874SOL     OW15187   2.428   4.261   6.451
 4874SOL    HW115188   2.440   4.327   6.377
 4874SOL    HW215189   2.474   4.295   6.534
 4875SOL     OW15190   3.114   5.072   5.974
 4875SOL    HW115191   3.164   5.149   6.014
 4875SOL    HW215192   3.019   5.074   6.006
 4876SOL     OW15193   3.134   5.169   6.728
 4876SOL    HW115194   3.181   5.182   6.815
 4876SOL    HW215195   3.068   5.095   6.737
 4877SOL     OW15196   3.444   4.363   6.058
 4877SOL    HW115197   3.413   4.424   6.131
 4877SOL    HW215198   3.494   4.415   5.989
 4878SOL     OW15199   2.216   5.234   6.915
 4878SOL    HW115200   2.195   5.190   6.828
 4878SOL    HW215201   2.313   5.260   6.918
 4879SOL     OW15202   2.264   4.475   7.184
 4879SOL    HW115203   2.332   4.530   7.137
 4879SOL    HW215204   2.304   4.387   7.211
 4880SOL     OW15205   3.449   4.503   7.256
 4880SOL    HW115206   3.357   4.541   7.251
 4880SOL    HW215207   3.509   4.550   7.191
 4881SOL     OW15208   2.875   3.829   7.356
 4881SOL    HW115209   2.881   3.914   7.304
 4881SOL    HW215210   2.907   3.753   7.299
 4882SOL     OW15211   2.366   3.774   7.326
 4882SOL    HW115212   2.324   3.717   7.256
 4882SOL    HW215213   2.300   3.843   7.358
 4883SOL     OW15214   2.435   4.594   6.615
 4883SOL    HW115215   2.479   4.683   6.606
 4883SOL    HW215216   2.372   4.594   6.692
 4884SOL     OW15217   3.222   4.586   6.631
 4884SOL    HW115218   3.147   4.586   6.565
 4884SOL    HW215219   3.259   4.494   6.640
 4885SOL     OW15220   3.071   4.249   5.861
 4885SOL    HW115221   3.084   4.165   5.915
 4885SOL    HW215222   3.042   4.323   5.921
 4886SOL     OW15223   2.169   3.937   6.817
 4886SOL    HW115224   2.146   3.974   6.907
 4886SOL    HW215225   2.139   3.842   6.811
 4887SOL     OW15226   1.899   5.034   6.868
 4887SOL    HW115227   1.952   4.985   6.936
 4887SOL    HW215228   1.921   5.132   6.873
 4888SOL     OW15229   2.594   4.358   6.650
 4888SOL    HW115230   2.653   4.332   6.574
 4888SOL    HW215231   2.566   4.454   6.639
 4889SOL     OW15232   3.590   4.659   7.440
 4889SOL    HW115233   3.544   4.652   7.351
 4889SOL    HW215234   3.528   4.703   7.506
 4890SOL     OW15235   2.169   3.787   6.204
 4890SOL    HW115236   2.158   3.881   6.237
 4890SOL    HW215237   2.164   3.724   6.281
 4891SOL     OW15238   3.484   4.091   5.960
 4891SOL    HW115239   3.486   4.015   6.024
 4891SOL    HW215240   3.436   4.168   6.000
 4892SOL     OW15241   2.885   4.490   6.552
 4892SOL    HW115242   2.900   4.511   6.648
 4892SOL    HW215243   2.855   4.395   6.543
 4893SOL     OW15244   3.721   5.242   7.191
 4893SOL    HW115245   3.735   5.269   7.096
 4893SOL    HW215246   3.804   5.264   7.244
 4894SOL     OW15247   2.212   4.622   7.390
 4894SOL    HW115248   2.288   4.666   7.438
 4894SOL    HW215249   2.247   4.575   7.308
 4895SOL     OW15250   3.402   3.998   5.711
 4895SOL    HW115251   3.341   3.923   5.734
 4895SOL    HW215252   3.424   4.050   5.794
 4896SOL     OW15253   3.165   4.562   5.628
 4896SOL    HW115254   3.199   4.469   5.643
 4896SOL    HW215255   3.183   4.589   5.533
 4897SOL     OW15256   2.930   5.057   6.435
 4897SOL    HW115257   2.937   4.973   6.380
 4897SOL    HW215258   2.992   5.126   6.399
 4898SOL     OW15259   2.181   4.534   6.535
 4898SOL    HW115260   2.274   4.570   6.540
 4898SOL    HW215261   2.175   4.449   6.587
 4899SOL     OW15262   2.201   4.233   6.592
 4899SOL    HW115263   2.149   4.150   6.575
 4899SOL    HW215264   2.278   4.238   6.528
 4900SOL     OW15265   3.000   4.104   7.264
 4900SOL    HW115266   2.955   4.167   7.328
 4900SOL    HW215267   3.093   4.135   7.247
 4901SOL     OW15268   3.022   3.931   7.063
 4901SOL    HW115269   3.022   3.995   7.140
 4901SOL    HW215270   3.050   3.979   6.980
 4902SOL     OW15271   1.870   5.050   5.786
 4902SOL    HW115272   1.777   5.071   5.755
 4902SOL    HW215273   1.880   4.951   5.799
 4903SOL     OW15274   2.864   4.520   6.824
 4903SOL    HW115275   2.905   4.488   6.910
 4903SOL    HW215276   2.768   4.493   6.821
 4904SOL     OW15277   1.902   4.268   6.700
 4904SOL    HW115278   1.987   4.235   6.659
 4904SOL    HW215279   1.915   4.283   6.798
 4905SOL     OW15280   2.051   4.244   7.308
 4905SOL    HW115281   2.110   4.204   7.238
 4905SOL    HW215282   1.993   4.315   7.267
 4906SOL     OW15283   3.231   4.674   7.246
 4906SOL    HW115284   3.270   4.763   7.266
 4906SOL    HW215285   3.241   4.654   7.149
 4907SOL     OW15286   2.677   4.296   5.911
 4907SOL    HW115287   2.684   4.207   5.865
 4907SOL    HW215288   2.583   4.330   5.903
 4908SOL     OW15289   3.519   4.328   6.792
 4908SOL    HW115290   3.481   4.259   6.854
 4908SOL    HW215291   3.601   4.292   6.748
 4909SOL     OW15292   2.114   5.288   7.330
 4909SOL    HW115293   2.084   5.345   7.406
 4909SOL    HW215294   2.107   5.191   7.356
 4910SOL     OW15295   2.533   4.188   6.855
 4910SOL    HW115296   2.499   4.099   6.825
 4910SOL    HW215297   2.559   4.242   6.775
 4911SOL     OW15298   2.335   4.224   5.777
 4911SOL    HW115299   2.396   4.304   5.781
 4911SOL    HW215300   2.240   4.255   5.784
 4912SOL     OW15301   2.021   4.861   7.052
 4912SOL    HW115302   2.043   4.800   7.128
 4912SOL    HW215303   2.031   4.812   6.966
 4913SOL     OW15304   3.209   4.783   6.820
 4913SOL    HW115305   3.233   4.720   6.746
 4913SOL    HW215306   3.119   4.823   6.802
 4914SOL     OW15307   3.164   4.579   5.895
 4914SOL    HW115308   3.078   4.548   5.937
 4914SOL    HW215309   3.160   4.565   5.796
 4915SOL     OW15310   1.945   4.982   6.608
 4915SOL    HW115311   1.940   4.981   6.708
 4915SOL    HW215312   1.862   4.941   6.570
 4916SOL     OW15313   2.550   5.386   7.302
 4916SOL    HW115314   2.494   5.467   7.311
 4916SOL    HW215315   2.602   5.390   7.216
 4917SOL     OW15316   3.588   3.859   6.109
 4917SOL    HW115317   3.661   3.842   6.042
 4917SOL    HW215318   3.557   3.772   6.147
 4918SOL     OW15319   3.142   4.651   6.258
 4918SOL    HW115320   3.202   4.570   6.260
 4918SOL    HW215321   3.182   4.720   6.198
 4919SOL     OW15322   2.692   4.997   7.008
 4919SOL    HW115323   2.687   5.030   7.103
 4919SOL    HW215324   2.606   5.016   6.962
 4920SOL     OW15325   3.703   3.899   6.549
 4920SOL    HW115326   3.742   3.814   6.513
 4920SOL    HW215327   3.605   3.901   6.530
 4921SOL     OW15328   2.125   4.050   6.306
 4921SOL    HW115329   2.046   4.101   6.272
 4921SOL    HW215330   2.116   4.035   6.404
 4922SOL     OW15331   2.684   4.726   6.958
 4922SOL    HW115332   2.724   4.725   6.866
 4922SOL    HW215333   2.694   4.818   6.998
 4923SOL     OW15334   2.778   4.634   5.877
 4923SOL    HW115335   2.841   4.672   5.809
 4923SOL    HW215336   2.818   4.551   5.916
 4924SOL     OW15337   2.234   5.012   7.076
 4924SOL    HW115338   2.221   5.105   7.042
 4924SOL    HW215339   2.150   4.960   7.063
 4925SOL     OW15340   3.476   5.016   6.875
 4925SOL    HW115341   3.536   5.019   6.955
 4925SOL    HW215342   3.401   5.080   6.888
 4926SOL     OW15343   2.901   4.822   6.282
 4926SOL    HW115344   2.831   4.775   6.336
 4926SOL    HW215345   2.960   4.754   6.239
 4927SOL     OW15346   2.876   3.960   6.557
 4927SOL    HW115347   2.868   3.924   6.464
 4927SOL    HW215348   2.874   3.884   6.622
 4928SOL     OW15349   3.571   4.109   6.967
 4928SOL    HW115350   3.644   4.178   6.971
 4928SOL    HW215351   3.599   4.034   6.908
 4929SOL     OW15352   2.117   5.072   5.876
 4929SOL    HW115353   2.021   5.073   5.849
 4929SOL    HW215354   2.129   5.125   5.960
 4930SOL     OW15355   1.967   4.737   7.312
 4930SOL    HW115356   1.890   4.704   7.366
 4930SOL    HW215357   2.052   4.707   7.354
 4931SOL     OW15358   2.534   3.927   7.075
 4931SOL    HW115359   2.624   3.911   7.035
 4931SOL    HW215360   2.542   3.932   7.174
 4932SOL     OW15361   1.937   4.069   5.619
 4932SOL    HW115362   1.845   4.041   5.590
 4932SOL    HW215363   1.968   4.146   5.563
 4933SOL     OW15364   3.302   4.580   6.984
 4933SOL    HW115365   3.245   4.632   6.921
 4933SOL    HW215366   3.398   4.592   6.960
 4934SOL     OW15367   1.934   3.890   5.904
 4934SOL    HW115368   1.917   3.973   5.850
 4934SOL    HW215369   2.024   3.853   5.882
 4935SOL     OW15370   3.045   5.059   5.705
 4935SOL    HW115371   2.946   5.048   5.707
 4935SOL    HW215372   3.079   5.074   5.798
 4936SOL     OW15373   2.475   4.566   7.017
 4936SOL    HW115374   2.531   4.647   7.000
 4936SOL    HW215375   2.534   4.486   7.020
 4937SOL     OW15376   2.578   4.289   7.294
 4937SOL    HW115377   2.597   4.354   7.368
 4937SOL    HW215378   2.638   4.209   7.303
 4938SOL     OW15379   3.312   4.944   7.219
 4938SOL    HW115380   3.303   4.934   7.318
 4938SOL    HW215381   3.408   4.937   7.193
 4939SOL     OW15382   3.536   4.607   6.840
 4939SOL    HW115383   3.509   4.518   6.803
 4939SOL    HW215384   3.537   4.675   6.767
 4940SOL     OW15385   3.087   4.049   6.035
 4940SOL    HW115386   3.152   3.975   6.024
 4940SOL    HW215387   3.107   4.099   6.119
 4941SOL     OW15388   2.456   4.469   6.238
 4941SOL    HW115389   2.506   4.554   6.219
 4941SOL    HW215390   2.368   4.471   6.190
 4942SOL     OW15391   3.639   4.066   7.228
 4942SOL    HW115392   3.622   4.097   7.134
 4942SOL    HW215393   3.555   4.029   7.266
 4943SOL     OW15394   3.592   4.658   7.103
 4943SOL    HW115395   3.630   4.749   7.118
 4943SOL    HW215396   3.584   4.641   7.004
 4944SOL     OW15397   2.721   5.098   5.602
 4944SOL    HW115398   2.675   5.113   5.690
 4944SOL    HW215399   2.765   5.183   5.572
 4945SOL     OW15400   2.721   4.680   6.447
 4945SOL    HW115401   2.775   4.611   6.495
 4945SOL    HW215402   2.689   4.749   6.513
 4946SOL     OW15403   2.945   4.708   5.673
 4946SOL    HW115404   2.922   4.761   5.591
 4946SOL    HW215405   3.026   4.652   5.654
 4947SOL     OW15406   2.083   5.038   7.430
 4947SOL    HW115407   2.018   4.965   7.409
 4947SOL    HW215408   2.087   5.052   7.528
 4948SOL     OW15409   1.941   4.964   6.239
 4948SOL    HW115410   1.940   4.917   6.327
 4948SOL    HW215411   2.023   4.936   6.188
 4949SOL     OW15412   2.534   5.115   7.210
 4949SOL    HW115413   2.456   5.065   7.248
 4949SOL    HW215414   2.531   5.210   7.241
 4950SOL     OW15415   3.686   3.916   6.813
 4950SOL    HW115416   3.682   3.826   6.857
 4950SOL    HW215417   3.689   3.905   6.714
 4951SOL     OW15418   2.290   4.148   6.106
 4951SOL    HW115419   2.320   4.076   6.044
 4951SOL    HW215420   2.251   4.108   6.189
 4952SOL     OW15421   3.567   5.211   6.690
 4952SOL    HW115422   3.474   5.186   6.663
 4952SOL    HW215423   3.593   5.161   6.772
 4953SOL     OW15424   2.179   4.271   6.866
 4953SOL    HW115425   2.217   4.212   6.938
 4953SOL    HW215426   2.219   4.245   6.778
 4954SOL     OW15427   3.286   3.938   6.698
 4954SOL    HW115428   3.338   3.873   6.753
 4954SOL    HW215429   3.237   4.001   6.759
 4955SOL     OW15430   2.863   3.758   6.740
 4955SOL    HW115431   2.800   3.686   6.709
 4955SOL    HW215432   2.956   3.722   6.740
 4956SOL     OW15433   2.632   5.054   5.887
 4956SOL    HW115434   2.586   4.967   5.904
 4956SOL    HW215435   2.723   5.051   5.928
 4957SOL     OW15436   2.480   5.291   6.870
 4957SOL    HW115437   2.475   5.373   6.927
 4957SOL    HW215438   2.569   5.288   6.825
 4958SOL     OW15439   3.214   3.776   5.754
 4958SOL    HW115440   3.249   3.735   5.670
 4958SOL    HW215441   3.124   3.738   5.774
 4959SOL     OW15442   3.162   4.177   6.277
 4959SOL    HW115443   3.103   4.257   6.281
 4959SOL    HW215444   3.177   4.142   6.370
 4960SOL     OW15445   3.455   3.945   6.468
 4960SOL    HW115446   3.371   3.944   6.522
 4960SOL    HW215447   3.457   4.028   6.412
 4961SOL     OW15448   1.901   4.801   5.886
 4961SOL    HW115449   2.000   4.790   5.877
 4961SOL    HW215450   1.861   4.715   5.918
 4962SOL     OW15451   2.092   4.352   7.561
 4962SOL    HW115452   1.999   4.350   7.598
 4962SOL    HW215453   2.093   4.313   7.469
 4963SOL     OW15454   3.617   4.331   7.679
 4963SOL    HW115455   3.605   4.318   7.580
 4963SOL    HW215456   3.587   4.250   7.728
 4964SOL     OW15457   2.093   5.437   7.931
 4964SOL    HW115458   2.127   5.514   7.985
 4964SOL    HW215459   2.137   5.437   7.841
 4965SOL     OW15460   2.092   5.158   7.986
 4965SOL    HW115461   2.066   5.254   7.986
 4965SOL    HW215462   2.021   5.104   8.031
 4966SOL     OW15463   2.468   4.688   7.571
 4966SOL    HW115464   2.475   4.772   7.517
 4966SOL    HW215465   2.514   4.701   7.659
 4967SOL     OW15466   1.889   5.320   7.565
 4967SOL    HW115467   1.870   5.224   7.586
 4967SOL    HW215468   1.856   5.378   7.640
 4968SOL     OW15469   3.551   4.646   8.060
 4968SOL    HW115470   3.646   4.617   8.068
 4968SOL    HW215471   3.543   4.711   7.985
 4969SOL     OW15472   3.503   4.832   7.880
 4969SOL    HW115473   3.589   4.834   7.828
 4969SOL    HW215474   3.517   4.879   7.968
 4970SOL     OW15475   2.671   3.728   7.950
 4970SOL    HW115476   2.711   3.819   7.941
 4970SOL    HW215477   2.571   3.736   7.956
 4971SOL     OW15478   3.387   4.723   7.638
 4971SOL    HW115479   3.324   4.647   7.651
 4971SOL    HW215480   3.435   4.741   7.724
 4972SOL     OW15481   2.460   4.453   7.718
 4972SOL    HW115482   2.484   4.522   7.650
 4972SOL    HW215483   2.382   4.486   7.772
 4973SOL     OW15484   1.938   4.535   8.237
 4973SOL    HW115485   2.037   4.523   8.246
 4973SOL    HW215486   1.914   4.630   8.258
 4974SOL     OW15487   2.727   4.072   7.643
 4974SOL    HW115488   2.786   4.135   7.594
 4974SOL    HW215489   2.746   3.978   7.614
 4975SOL     OW15490   2.183   4.667   7.690
 4975SOL    HW115491   2.265   4.706   7.648
 4975SOL    HW215492   2.156   4.585   7.641
 4976SOL     OW15493   2.973   5.500   7.685
 4976SOL    HW115494   2.913   5.438   7.735
 4976SOL    HW215495   3.004   5.456   7.600
 4977SOL     OW15496   3.494   5.101   7.529
 4977SOL    HW115497   3.462   5.195   7.519
 4977SOL    HW215498   3.418   5.038   7.517
 4978SOL     OW15499   3.262   3.831   7.874
 4978SOL    HW115500   3.238   3.794   7.784
 4978SOL    HW215501   3.361   3.847   7.878
 4979SOL     OW15502   2.244   4.424   7.928
 4979SOL    HW115503   2.289   4.334   7.925
 4979SOL    HW215504   2.150   4.413   7.961
 4980SOL     OW15505   2.476   3.846   7.565
 4980SOL    HW115506   2.574   3.824   7.572
 4980SOL    HW215507   2.445   3.829   7.472
 4981SOL     OW15508   2.401   3.788   7.960
 4981SOL    HW115509   2.320   3.789   8.018
 4981SOL    HW215510   2.404   3.871   7.905
 4982SOL     OW15511   3.296   4.912   7.489
 4982SOL    HW115512   3.328   4.836   7.546
 4982SOL    HW215513   3.204   4.939   7.519
 4983SOL     OW15514   2.159   3.759   7.619
 4983SOL    HW115515   2.208   3.843   7.598
 4983SOL    HW215516   2.221   3.694   7.664
 4984SOL     OW15517   2.797   3.960   7.928
 4984SOL    HW115518   2.749   4.001   7.850
 4984SOL    HW215519   2.896   3.958   7.909
 4985SOL     OW15520   2.321   4.876   8.189
 4985SOL    HW115521   2.250   4.849   8.254
 4985SOL    HW215522   2.295   4.848   8.096
 4986SOL     OW15523   2.894   4.273   7.464
 4986SOL    HW115524   2.853   4.355   7.425
 4986SOL    HW215525   2.958   4.299   7.537
 4987SOL     OW15526   3.719   4.557   7.825
 4987SOL    HW115527   3.761   4.493   7.889
 4987SOL    HW215528   3.681   4.506   7.747
 4988SOL     OW15529   2.350   5.109   7.622
 4988SOL    HW115530   2.263   5.094   7.669
 4988SOL    HW215531   2.333   5.135   7.527
 4989SOL     OW15532   3.252   4.299   7.526
 4989SOL    HW115533   3.198   4.278   7.607
 4989SOL    HW215534   3.343   4.258   7.535
 4990SOL     OW15535   2.389   3.980   7.776
 4990SOL    HW115536   2.416   3.921   7.701
 4990SOL    HW215537   2.389   4.075   7.745
 4991SOL     OW15538   2.567   4.774   7.816
 4991SOL    HW115539   2.553   4.781   7.915
 4991SOL    HW215540   2.651   4.723   7.798
 4992SOL     OW15541   2.229   4.824   7.949
 4992SOL    HW115542   2.222   4.907   7.893
 4992SOL    HW215543   2.233   4.744   7.889
 4993SOL     OW15544   3.114   5.072   7.836
 4993SOL    HW115545   3.164   5.149   7.876
 4993SOL    HW215546   3.019   5.074   7.868
 4994SOL     OW15547   3.444   4.363   7.920
 4994SOL    HW115548   3.413   4.424   7.993
 4994SOL    HW215549   3.494   4.415   7.851
 4995SOL     OW15550   3.071   4.249   7.723
 4995SOL    HW115551   3.084   4.165   7.777
 4995SOL    HW215552   3.042   4.323   7.783
 4996SOL     OW15553   3.484   4.091   7.822
 4996SOL    HW115554   3.486   4.015   7.886
 4996SOL    HW215555   3.436   4.168   7.862
 4997SOL     OW15556   3.402   3.998   7.573
 4997SOL    HW115557   3.341   3.923   7.596
 4997SOL    HW215558   3.424   4.050   7.656
 4998SOL     OW15559   3.165   4.562   7.490
 4998SOL    HW115560   3.199   4.469   7.505
 4998SOL    HW215561   3.183   4.589   7.395
 4999SOL     OW15562   1.870   5.050   7.648
 4999SOL    HW115563   1.777   5.071   7.617
 4999SOL    HW215564   1.880   4.951   7.661
 5000SOL     OW15565   2.677   4.296   7.773
 5000SOL    HW115566   2.684   4.207   7.727
 5000SOL    HW215567   2.583   4.330   7.765
 5001SOL     OW15568   2.335   4.224   7.639
 5001SOL    HW115569   2.396   4.304   7.643
 5001SOL    HW215570   2.240   4.255   7.646
 5002SOL     OW15571   3.164   4.579   7.757
 5002SOL    HW115572   3.078   4.548   7.799
 5002SOL    HW215573   3.160   4.565   7.658
 5003SOL     OW15574   3.588   3.859   7.971
 5003SOL    HW115575   3.661   3.842   7.904
 5003SOL    HW215576   3.557   3.772   8.009
 5004SOL     OW15577   2.778   4.634   7.739
 5004SOL    HW115578   2.841   4.672   7.671
 5004SOL    HW215579   2.818   4.551   7.778
 5005SOL     OW15580   2.117   5.072   7.738
 5005SOL    HW115581   2.021   5.073   7.711
 5005SOL    HW215582   2.129   5.125   7.822
 5006SOL     OW15583   1.937   4.069   7.481
 5006SOL    HW115584   1.845   4.041   7.452
 5006SOL    HW215585   1.968   4.146   7.425
 5007SOL     OW15586   1.934   3.890   7.766
 5007SOL    HW115587   1.917   3.973   7.712
 5007SOL    HW215588   2.024   3.853   7.744
 5008SOL     OW15589   3.045   5.059   7.567
 5008SOL    HW115590   2.946   5.048   7.569
 5008SOL    HW215591   3.079   5.074   7.660
 5009SOL     OW15592   3.087   4.049   7.897
 5009SOL    HW115593   3.152   3.975   7.886
 5009SOL    HW215594   3.107   4.099   7.981
 5010SOL     OW15595   2.456   4.469   8.100
 5010SOL    HW115596   2.506   4.554   8.081
 5010SOL    HW215597   2.368   4.471   8.052
 5011SOL     OW15598   2.721   5.098   7.464
 5011SOL    HW115599   2.675   5.113   7.552
 5011SOL    HW215600   2.765   5.183   7.434
 5012SOL     OW15601   2.945   4.708   7.535
 5012SOL    HW115602   2.922   4.761   7.453
 5012SOL    HW215603   3.026   4.652   7.516
 5013SOL     OW15604   2.290   4.148   7.968
 5013SOL    HW115605   2.320   4.076   7.906
 5013SOL    HW215606   2.251   4.108   8.051
 5014SOL     OW15607   2.632   5.054   7.749
 5014SOL    HW115608   2.586   4.967   7.766
 5014SOL    HW215609   2.723   5.051   7.790
 5015SOL     OW15610   3.214   3.776   7.616
 5015SOL    HW115611   3.249   3.735   7.532
 5015SOL    HW215612   3.124   3.738   7.636
 5016SOL     OW15613   1.901   4.801   7.748
 5016SOL    HW115614   2.000   4.790   7.739
 5016SOL    HW215615   1.861   4.715   7.780
 5017SOL     OW15616   3.954   0.628   0.113
 5017SOL    HW115617   3.861   0.626   0.150
 5017SOL    HW215618   3.955   0.589   0.021
 5018SOL     OW15619   3.949   0.275   0.996
 5018SOL    HW115620   3.984   0.258   1.088
 5018SOL    HW215621   3.861   0.230   0.984
 5019SOL     OW15622   3.743   0.368   0.647
 5019SOL    HW115623   3.661   0.411   0.686
 5019SOL    HW215624   3.715   0.295   0.584
 5020SOL     OW15625   4.293   1.275   1.165
 5020SOL    HW115626   4.200   1.268   1.128
 5020SOL    HW215627   4.304   1.364   1.209
 5021SOL     OW15628   5.279   1.511   0.703
 5021SOL    HW115629   5.222   1.495   0.784
 5021SOL    HW215630   5.220   1.521   0.623
 5022SOL     OW15631   4.859   0.703   0.717
 5022SOL    HW115632   4.916   0.781   0.692
 5022SOL    HW215633   4.799   0.729   0.793
 5023SOL     OW15634   4.492   1.144   1.023
 5023SOL    HW115635   4.414   1.161   1.083
 5023SOL    HW215636   4.526   1.231   0.987
 5024SOL     OW15637   4.574   0.798   1.823
 5024SOL    HW115638   4.570   0.874   1.888
 5024SOL    HW215639   4.596   0.834   1.732
 5025SOL     OW15640   4.409   1.012   0.665
 5025SOL    HW115641   4.478   0.996   0.735
 5025SOL    HW215642   4.336   1.069   0.703
 5026SOL     OW15643   4.410   1.161   1.803
 5026SOL    HW115644   4.470   1.240   1.817
 5026SOL    HW215645   4.324   1.192   1.762
 5027SOL     OW15646   4.059   1.435   1.061
 5027SOL    HW115647   3.981   1.404   1.008
 5027SOL    HW215648   4.117   1.493   1.004
 5028SOL     OW15649   5.184   1.505   1.339
 5028SOL    HW115650   5.208   1.599   1.365
 5028SOL    HW215651   5.168   1.451   1.421
 5029SOL     OW15652   4.162   0.392   1.499
 5029SOL    HW115653   4.244   0.336   1.508
 5029SOL    HW215654   4.081   0.334   1.503
 5030SOL     OW15655   3.955   1.713   0.483
 5030SOL    HW115656   3.989   1.790   0.537
 5030SOL    HW215657   3.999   1.713   0.393
 5031SOL     OW15658   4.851   1.341   1.690
 5031SOL    HW115659   4.898   1.341   1.778
 5031SOL    HW215660   4.803   1.254   1.679
 5032SOL     OW15661   3.954   1.434   0.538
 5032SOL    HW115662   3.928   1.530   0.538
 5032SOL    HW215663   3.883   1.380   0.583
 5033SOL     OW15664   3.964   1.091   0.886
 5033SOL    HW115665   3.978   1.007   0.938
 5033SOL    HW215666   3.909   1.155   0.941
 5034SOL     OW15667   4.344   1.786   1.439
 5034SOL    HW115668   4.252   1.769   1.474
 5034SOL    HW215669   4.372   1.878   1.465
 5035SOL     OW15670   4.330   0.964   0.123
 5035SOL    HW115671   4.337   1.048   0.069
 5035SOL    HW215672   4.376   0.977   0.211
 5036SOL     OW15673   5.318   0.114   1.480
 5036SOL    HW115674   5.300   0.181   1.408
 5036SOL    HW215675   5.315   0.160   1.569
 5037SOL     OW15676   3.846   0.643   0.563
 5037SOL    HW115677   3.801   0.555   0.580
 5037SOL    HW215678   3.845   0.697   0.647
 5038SOL     OW15679   3.751   1.596   0.117
 5038SOL    HW115680   3.732   1.500   0.138
 5038SOL    HW215681   3.718   1.654   0.192
 5039SOL     OW15682   5.413   0.922   0.612
 5039SOL    HW115683   5.508   0.893   0.620
 5039SOL    HW215684   5.405   0.987   0.537
 5040SOL     OW15685   3.837   0.737   1.597
 5040SOL    HW115686   3.925   0.724   1.642
 5040SOL    HW215687   3.824   0.834   1.575
 5041SOL     OW15688   4.337   1.365   0.726
 5041SOL    HW115689   4.288   1.278   0.735
 5041SOL    HW215690   4.314   1.408   0.639
 5042SOL     OW15691   5.017   1.228   1.423
 5042SOL    HW115692   5.054   1.155   1.365
 5042SOL    HW215693   5.069   1.233   1.508
 5043SOL     OW15694   4.533   0.004   0.502
 5043SOL    HW115695   4.573   0.095   0.493
 5043SOL    HW215696   4.433   0.012   0.508
 5044SOL     OW15697   3.921   0.976   1.264
 5044SOL    HW115698   4.010   0.931   1.250
 5044SOL    HW215699   3.848   0.911   1.245
 5045SOL     OW15700   4.911   1.792   1.616
 5045SOL    HW115701   4.935   1.852   1.540
 5045SOL    HW215702   4.918   1.697   1.586
 5046SOL     OW15703   4.041   0.251   1.801
 5046SOL    HW115704   4.112   0.322   1.807
 5046SOL    HW215705   3.953   0.290   1.829
 5047SOL     OW15706   5.190   1.417   0.953
 5047SOL    HW115707   5.131   1.423   1.033
 5047SOL    HW215708   5.175   1.329   0.907
 5048SOL     OW15709   4.322   0.729   0.270
 5048SOL    HW115710   4.346   0.798   0.202
 5048SOL    HW215711   4.244   0.762   0.324
 5049SOL     OW15712   5.005   0.345   0.944
 5049SOL    HW115713   4.919   0.295   0.931
 5049SOL    HW215714   5.067   0.291   1.000
 5050SOL     OW15715   4.531   0.605   1.465
 5050SOL    HW115716   4.484   0.602   1.554
 5050SOL    HW215717   4.480   0.550   1.399
 5051SOL     OW15718   5.118   0.469   1.674
 5051SOL    HW115719   5.098   0.512   1.762
 5051SOL    HW215720   5.196   0.407   1.683
 5052SOL     OW15721   4.697   0.890   1.572
 5052SOL    HW115722   4.743   0.806   1.543
 5052SOL    HW215723   4.641   0.924   1.497
 5053SOL     OW15724   4.715   0.410   1.242
 5053SOL    HW115725   4.638   0.444   1.296
 5053SOL    HW215726   4.681   0.359   1.163
 5054SOL     OW15727   4.765   0.701   0.429
 5054SOL    HW115728   4.791   0.697   0.525
 5054SOL    HW215729   4.680   0.650   0.415
 5055SOL     OW15730   3.800   0.811   0.789
 5055SOL    HW115731   3.899   0.799   0.798
 5055SOL    HW215732   3.776   0.906   0.810
 5056SOL     OW15733   3.854   1.821   1.571
 5056SOL    HW115734   3.844   1.806   1.670
 5056SOL    HW215735   3.768   1.857   1.535
 5057SOL     OW15736   4.589   0.348   0.195
 5057SOL    HW115737   4.648   0.411   0.146
 5057SOL    HW215738   4.608   0.254   0.166
 5058SOL     OW15739   5.086   1.144   0.545
 5058SOL    HW115740   5.169   1.115   0.497
 5058SOL    HW215741   5.037   1.211   0.489
 5059SOL     OW15742   4.274   0.196   0.885
 5059SOL    HW115743   4.269   0.191   0.985
 5059SOL    HW215744   4.276   0.292   0.856
 5060SOL     OW15745   4.732   1.456   0.477
 5060SOL    HW115746   4.686   1.528   0.425
 5060SOL    HW215747   4.728   1.476   0.575
 5061SOL     OW15748   4.075   1.801   0.853
 5061SOL    HW115749   4.125   1.715   0.859
 5061SOL    HW215750   4.140   1.878   0.850
 5062SOL     OW15751   4.951   1.550   1.506
 5062SOL    HW115752   4.957   1.473   1.570
 5062SOL    HW215753   4.899   1.524   1.426
 5063SOL     OW15754   4.045   0.943   0.242
 5063SOL    HW115755   4.127   0.982   0.200
 5063SOL    HW215756   4.018   0.861   0.193
 5064SOL     OW15757   4.185   1.266   1.727
 5064SOL    HW115758   4.135   1.267   1.641
 5064SOL    HW215759   4.122   1.248   1.803
 5065SOL     OW15760   4.835   1.776   0.237
 5065SOL    HW115761   4.775   1.714   0.287
 5065SOL    HW215762   4.866   1.732   0.152
 5066SOL     OW15763   3.926   0.285   1.498
 5066SOL    HW115764   3.846   0.345   1.485
 5066SOL    HW215765   3.916   0.236   1.584
 5067SOL     OW15766   4.188   1.743   0.323
 5067SOL    HW115767   4.221   1.782   0.409
 5067SOL    HW215768   4.264   1.736   0.258
 5068SOL     OW15769   5.124   0.107   0.426
 5068SOL    HW115770   5.100   0.070   0.336
 5068SOL    HW215771   5.223   0.123   0.430
 5069SOL     OW15772   3.973   1.785   1.241
 5069SOL    HW115773   4.030   1.720   1.291
 5069SOL    HW215774   3.957   1.752   1.148
 5070SOL     OW15775   4.664   1.698   0.904
 5070SOL    HW115776   4.744   1.641   0.925
 5070SOL    HW215777   4.615   1.658   0.827
 5071SOL     OW15778   4.106   0.700   0.480
 5071SOL    HW115779   4.151   0.610   0.477
 5071SOL    HW215780   4.012   0.689   0.513
 5072SOL     OW15781   4.338   0.122   0.117
 5072SOL    HW115782   4.436   0.100   0.124
 5072SOL    HW215783   4.307   0.105   0.024
 5073SOL     OW15784   4.505   0.264   1.749
 5073SOL    HW115785   4.572   0.203   1.792
 5073SOL    HW215786   4.432   0.283   1.814
 5074SOL     OW15787   4.612   1.514   1.195
 5074SOL    HW115788   4.589   1.489   1.101
 5074SOL    HW215789   4.673   1.445   1.234
 5075SOL     OW15790   5.075   0.590   1.433
 5075SOL    HW115791   5.103   0.547   1.518
 5075SOL    HW215792   5.100   0.686   1.434
 5076SOL     OW15793   4.527   1.402   0.924
 5076SOL    HW115794   4.617   1.416   0.882
 5076SOL    HW215795   4.456   1.404   0.853
 5077SOL     OW15796   4.646   0.503   0.899
 5077SOL    HW115797   4.621   0.494   0.803
 5077SOL    HW215798   4.694   0.421   0.930
 5078SOL     OW15799   4.263   0.064   0.512
 5078SOL    HW115800   4.182   0.065   0.570
 5078SOL    HW215801   4.266   0.147   0.457
 5079SOL     OW15802   5.158   1.188   0.041
 5079SOL    HW115803   5.190   1.112   0.098
 5079SOL    HW215804   5.066   1.215   0.071
 5080SOL     OW15805   4.021   0.035   0.171
 5080SOL    HW115806   4.070   0.119   0.150
 5080SOL    HW215807   4.083  -0.030   0.216
 5081SOL     OW15808   4.659   0.236   0.480
 5081SOL    HW115809   4.611   0.277   0.402
 5081SOL    HW215810   4.758   0.234   0.461
 5082SOL     OW15811   4.800   0.683   1.464
 5082SOL    HW115812   4.720   0.622   1.467
 5082SOL    HW215813   4.881   0.630   1.440
 5083SOL     OW15814   4.951   1.570   0.793
 5083SOL    HW115815   4.972   1.644   0.728
 5083SOL    HW215816   5.019   1.570   0.866
 5084SOL     OW15817   4.183   1.152   0.741
 5084SOL    HW115818   4.112   1.125   0.806
 5084SOL    HW215819   4.157   1.124   0.648
 5085SOL     OW15820   4.995   1.797   0.591
 5085SOL    HW115821   5.039   1.861   0.527
 5085SOL    HW215822   4.945   1.849   0.661
 5086SOL     OW15823   4.756   0.549   0.016
 5086SOL    HW115824   4.715   0.631  -0.023
 5086SOL    HW215825   4.820   0.575   0.089
 5087SOL     OW15826   3.802   0.556   1.386
 5087SOL    HW115827   3.894   0.555   1.345
 5087SOL    HW215828   3.796   0.630   1.453
 5088SOL     OW15829   4.285   0.222   1.147
 5088SOL    HW115830   4.323   0.138   1.184
 5088SOL    HW215831   4.197   0.241   1.191
 5089SOL     OW15832   4.590   0.454   0.642
 5089SOL    HW115833   4.558   0.526   0.580
 5089SOL    HW215834   4.614   0.373   0.589
 5090SOL     OW15835   4.741   0.039   0.753
 5090SOL    HW115836   4.669   0.044   0.684
 5090SOL    HW215837   4.717  -0.030   0.822
 5091SOL     OW15838   5.153   1.173   0.867
 5091SOL    HW115839   5.098   1.089   0.860
 5091SOL    HW215840   5.179   1.202   0.775
 5092SOL     OW15841   4.212   1.385   0.174
 5092SOL    HW115842   4.125   1.370   0.221
 5092SOL    HW215843   4.195   1.411   0.079
 5093SOL     OW15844   5.114   0.575   0.078
 5093SOL    HW115845   5.060   0.554   0.159
 5093SOL    HW215846   5.205   0.534   0.087
 5094SOL     OW15847   4.251   0.256   0.328
 5094SOL    HW115848   4.278   0.197   0.253
 5094SOL    HW215849   4.251   0.351   0.297
 5095SOL     OW15850   4.788   1.347   1.340
 5095SOL    HW115851   4.708   1.324   1.395
 5095SOL    HW215852   4.871   1.321   1.389
 5096SOL     OW15853   5.316   1.629   1.625
 5096SOL    HW115854   5.343   1.663   1.535
 5096SOL    HW215855   5.395   1.591   1.671
 5097SOL     OW15856   4.835   1.195   1.100
 5097SOL    HW115857   4.795   1.239   1.181
 5097SOL    HW215858   4.794   1.232   1.017
 5098SOL     OW15859   4.639   0.089   1.402
 5098SOL    HW115860   4.664   0.069   1.307
 5098SOL    HW215861   4.711   0.145   1.444
 5099SOL     OW15862   4.704   1.116   1.719
 5099SOL    HW115863   4.605   1.122   1.729
 5099SOL    HW215864   4.727   1.036   1.663
 5100SOL     OW15865   4.429   1.050   0.368
 5100SOL    HW115866   4.415   1.057   0.467
 5100SOL    HW215867   4.513   0.999   0.350
 5101SOL     OW15868   4.134   0.813   1.251
 5101SOL    HW115869   4.220   0.825   1.301
 5101SOL    HW215870   4.092   0.726   1.278
 5102SOL     OW15871   4.998   0.386   1.262
 5102SOL    HW115872   5.019   0.460   1.326
 5102SOL    HW215873   4.909   0.403   1.219
 5103SOL     OW15874   3.788   1.564   1.331
 5103SOL    HW115875   3.742   1.646   1.297
 5103SOL    HW215876   3.886   1.583   1.340
 5104SOL     OW15877   4.091   1.100   0.501
 5104SOL    HW115878   4.084   1.183   0.445
 5104SOL    HW215879   4.095   1.020   0.441
 5105SOL     OW15880   4.290   0.537   0.865
 5105SOL    HW115881   4.302   0.603   0.791
 5105SOL    HW215882   4.336   0.571   0.948
 5106SOL     OW15883   4.976   1.348   0.388
 5106SOL    HW115884   5.026   1.425   0.428
 5106SOL    HW215885   4.881   1.350   0.420
 5107SOL     OW15886   4.996   1.445   1.142
 5107SOL    HW115887   5.043   1.458   1.229
 5107SOL    HW215888   4.930   1.371   1.151
 5108SOL     OW15889   4.078   1.510   1.329
 5108SOL    HW115890   4.057   1.466   1.242
 5108SOL    HW215891   4.175   1.536   1.332
 5109SOL     OW15892   4.126   0.751   1.598
 5109SOL    HW115893   4.194   0.806   1.551
 5109SOL    HW215894   4.166   0.663   1.625
 5110SOL     OW15895   4.737   0.105   1.770
 5110SOL    HW115896   4.743   0.190   1.718
 5110SOL    HW215897   4.769   0.029   1.713
 5111SOL     OW15898   4.228   0.050   1.740
 5111SOL    HW115899   4.186  -0.007   1.670
 5111SOL    HW215900   4.162   0.119   1.772
 5112SOL     OW15901   4.297   0.870   1.029
 5112SOL    HW115902   4.341   0.959   1.020
 5112SOL    HW215903   4.234   0.870   1.106
 5113SOL     OW15904   5.084   0.862   1.045
 5113SOL    HW115905   5.009   0.862   0.979
 5113SOL    HW215906   5.121   0.770   1.054
 5114SOL     OW15907   4.933   0.525   0.275
 5114SOL    HW115908   4.946   0.441   0.329
 5114SOL    HW215909   4.904   0.599   0.335
 5115SOL     OW15910   4.031   0.213   1.231
 5115SOL    HW115911   4.008   0.250   1.321
 5115SOL    HW215912   4.001   0.118   1.225
 5116SOL     OW15913   3.761   1.310   1.282
 5116SOL    HW115914   3.814   1.261   1.350
 5116SOL    HW215915   3.783   1.408   1.287
 5117SOL     OW15916   4.456   0.634   1.064
 5117SOL    HW115917   4.515   0.608   0.988
 5117SOL    HW215918   4.428   0.730   1.053
 5118SOL     OW15919   4.031   0.063   0.618
 5118SOL    HW115920   4.020   0.157   0.651
 5118SOL    HW215921   4.026   0.000   0.695
 5119SOL     OW15922   5.346   0.367   0.374
 5119SOL    HW115923   5.348   0.291   0.438
 5119SOL    HW215924   5.298   0.444   0.414
 5120SOL     OW15925   4.747   0.766   0.966
 5120SOL    HW115926   4.762   0.787   1.062
 5120SOL    HW215927   4.717   0.671   0.957
 5121SOL     OW15928   4.704   1.573   1.700
 5121SOL    HW115929   4.684   1.617   1.612
 5121SOL    HW215930   4.743   1.482   1.684
 5122SOL     OW15931   4.074   0.898   1.804
 5122SOL    HW115932   4.150   0.942   1.852
 5122SOL    HW215933   4.109   0.851   1.722
 5123SOL     OW15934   5.027   0.838   0.042
 5123SOL    HW115935   5.061   0.745   0.057
 5123SOL    HW215936   5.045   0.865  -0.053
 5124SOL     OW15937   4.792   1.333   0.849
 5124SOL    HW115938   4.799   1.249   0.794
 5124SOL    HW215939   4.854   1.402   0.813
 5125SOL     OW15940   4.043   0.810   0.949
 5125SOL    HW115941   4.136   0.846   0.954
 5125SOL    HW215942   4.037   0.725   1.001
 5126SOL     OW15943   4.063   0.509   1.006
 5126SOL    HW115944   4.011   0.426   0.989
 5126SOL    HW215945   4.140   0.514   0.942
 5127SOL     OW15946   4.862   0.380   1.678
 5127SOL    HW115947   4.817   0.443   1.742
 5127SOL    HW215948   4.955   0.411   1.661
 5128SOL     OW15949   4.884   0.207   1.477
 5128SOL    HW115950   4.884   0.271   1.554
 5128SOL    HW215951   4.912   0.255   1.394
 5129SOL     OW15952   3.732   1.326   0.200
 5129SOL    HW115953   3.639   1.347   0.169
 5129SOL    HW215954   3.742   1.227   0.213
 5130SOL     OW15955   3.812   1.801   0.927
 5130SOL    HW115956   3.770   1.715   0.900
 5130SOL    HW215957   3.906   1.804   0.893
 5131SOL     OW15958   4.228   1.568   0.910
 5131SOL    HW115959   4.294   1.642   0.919
 5131SOL    HW215960   4.272   1.489   0.868
 5132SOL     OW15961   4.726   0.796   1.238
 5132SOL    HW115962   4.767   0.764   1.324
 5132SOL    HW215963   4.630   0.769   1.235
 5133SOL     OW15964   3.764   0.544   1.114
 5133SOL    HW115965   3.849   0.511   1.073
 5133SOL    HW215966   3.777   0.559   1.212
 5134SOL     OW15967   3.913   0.520   1.722
 5134SOL    HW115968   3.972   0.480   1.652
 5134SOL    HW215969   3.855   0.591   1.681
 5135SOL     OW15970   5.093   0.950   1.660
 5135SOL    HW115971   5.132   1.039   1.680
 5135SOL    HW215972   5.103   0.930   1.563
 5136SOL     OW15973   4.539   0.572   0.325
 5136SOL    HW115974   4.546   0.483   0.279
 5136SOL    HW215975   4.445   0.606   0.317
 5137SOL     OW15976   3.976   1.564   1.744
 5137SOL    HW115977   3.946   1.621   1.820
 5137SOL    HW215978   3.969   1.467   1.770
 5138SOL     OW15979   4.395   0.464   1.269
 5138SOL    HW115980   4.361   0.375   1.239
 5138SOL    HW215981   4.421   0.518   1.189
 5139SOL     OW15982   4.654   1.678   1.465
 5139SOL    HW115983   4.630   1.660   1.370
 5139SOL    HW215984   4.684   1.772   1.475
 5140SOL     OW15985   4.197   0.500   0.191
 5140SOL    HW115986   4.258   0.580   0.195
 5140SOL    HW215987   4.102   0.531   0.198
 5141SOL     OW15988   3.883   1.137   1.466
 5141SOL    HW115989   3.905   1.076   1.542
 5141SOL    HW215990   3.893   1.088   1.380
 5142SOL     OW15991   5.071   1.059   1.234
 5142SOL    HW115992   5.095   0.996   1.160
 5142SOL    HW215993   4.981   1.099   1.216
 5143SOL     OW15994   5.026   0.855   0.309
 5143SOL    HW115995   4.940   0.824   0.351
 5143SOL    HW215996   5.022   0.841   0.210
 5144SOL     OW15997   4.976   1.731   1.128
 5144SOL    HW115998   5.060   1.736   1.074
 5144SOL    HW215999   4.953   1.635   1.146
 5145SOL     OW16000   3.807   1.258   1.022
 5145SOL    HW116001   3.802   1.257   1.122
 5145SOL    HW216002   3.724   1.217   0.984
 5146SOL     OW16003   4.412   1.662   1.716
 5146SOL    HW116004   4.356   1.743   1.725
 5146SOL    HW216005   4.464   1.666   1.630
 5147SOL     OW16006   4.627   0.086   0.133
 5147SOL    HW116007   4.678   0.087   0.047
 5147SOL    HW216008   4.683   0.044   0.204
 5148SOL     OW16009   5.112   1.573   0.477
 5148SOL    HW116010   5.179   1.585   0.403
 5148SOL    HW216011   5.072   1.662   0.500
 5149SOL     OW16012   3.854   1.794   1.851
 5149SOL    HW116013   3.813   1.720   1.904
 5149SOL    HW216014   3.918   1.845   1.909
 5150SOL     OW16015   5.004   0.927   0.672
 5150SOL    HW116016   5.064   0.846   0.674
 5150SOL    HW216017   5.044   0.996   0.612
 5151SOL     OW16018   4.554   1.273   1.422
 5151SOL    HW116019   4.549   1.306   1.517
 5151SOL    HW216020   4.468   1.292   1.376
 5152SOL     OW16021   4.396   1.616   0.154
 5152SOL    HW116022   4.405   1.626   0.055
 5152SOL    HW216023   4.356   1.527   0.175
 5153SOL     OW16024   3.987   0.326   0.720
 5153SOL    HW116025   3.908   0.377   0.686
 5153SOL    HW216026   3.978   0.311   0.818
 5154SOL     OW16027   4.918   1.612   0.031
 5154SOL    HW116028   4.924   1.519   0.068
 5154SOL    HW216029   4.859   1.612  -0.049
 5155SOL     OW16030   4.546   1.002   1.372
 5155SOL    HW116031   4.586   1.001   1.280
 5155SOL    HW216032   4.556   1.094   1.412
 5156SOL     OW16033   4.640   0.910   0.291
 5156SOL    HW116034   4.703   0.948   0.223
 5156SOL    HW216035   4.680   0.827   0.330
 5157SOL     OW16036   4.096   1.288   1.490
 5157SOL    HW116037   4.083   1.381   1.456
 5157SOL    HW216038   4.012   1.236   1.477
 5158SOL     OW16039   4.763   1.098   0.696
 5158SOL    HW116040   4.693   1.051   0.750
 5158SOL    HW216041   4.822   1.030   0.653
 5159SOL     OW16042   4.738   0.236   0.971
 5159SOL    HW116043   4.730   0.200   0.878
 5159SOL    HW216044   4.736   0.160   1.036
 5160SOL     OW16045   4.314   1.487   0.491
 5160SOL    HW116046   4.356   1.429   0.421
 5160SOL    HW216047   4.270   1.566   0.447
 5161SOL     OW16048   3.979   1.348   0.290
 5161SOL    HW116049   3.883   1.349   0.263
 5161SOL    HW216050   3.991   1.401   0.374
 5162SOL     OW16051   3.829   1.013   1.726
 5162SOL    HW116052   3.752   0.980   1.780
 5162SOL    HW216053   3.914   0.983   1.768
 5163SOL     OW16054   4.396   0.203   1.489
 5163SOL    HW116055   4.486   0.187   1.449
 5163SOL    HW216056   4.404   0.208   1.588
 5164SOL     OW16057   3.799   0.345   0.033
 5164SOL    HW116058   3.707   0.317   0.004
 5164SOL    HW216059   3.830   0.422  -0.023
 5165SOL     OW16060   5.164   0.856   1.398
 5165SOL    HW116061   5.107   0.908   1.335
 5165SOL    HW216062   5.260   0.868   1.374
 5166SOL     OW16063   3.796   0.166   0.318
 5166SOL    HW116064   3.779   0.249   0.264
 5166SOL    HW216065   3.886   0.129   0.296
 5167SOL     OW16066   4.907   1.335   0.119
 5167SOL    HW116067   4.808   1.324   0.121
 5167SOL    HW216068   4.941   1.350   0.212
 5168SOL     OW16069   4.337   0.842   1.431
 5168SOL    HW116070   4.393   0.923   1.414
 5168SOL    HW216071   4.396   0.762   1.434
 5169SOL     OW16072   4.440   0.565   1.708
 5169SOL    HW116073   4.459   0.630   1.782
 5169SOL    HW216074   4.500   0.485   1.717
 5170SOL     OW16075   5.174   1.220   1.633
 5170SOL    HW116076   5.165   1.210   1.732
 5170SOL    HW216077   5.270   1.213   1.607
 5171SOL     OW16078   4.114   1.741   1.560
 5171SOL    HW116079   4.023   1.782   1.558
 5171SOL    HW216080   4.107   1.647   1.592
 5172SOL     OW16081   4.949   0.325   0.449
 5172SOL    HW116082   5.014   0.251   0.438
 5172SOL    HW216083   4.969   0.375   0.533
 5173SOL     OW16084   4.318   0.745   0.652
 5173SOL    HW116085   4.368   0.830   0.633
 5173SOL    HW216086   4.230   0.747   0.604
 5174SOL     OW16087   4.583   1.374   0.016
 5174SOL    HW116088   4.537   1.389   0.104
 5174SOL    HW216089   4.627   1.459  -0.014
 5175SOL     OW16090   4.385   1.790   0.953
 5175SOL    HW116091   4.339   1.878   0.940
 5175SOL    HW216092   4.484   1.802   0.946
 5176SOL     OW16093   4.583   0.956   0.861
 5176SOL    HW116094   4.637   0.887   0.909
 5176SOL    HW216095   4.551   1.025   0.927
 5177SOL     OW16096   4.807   0.984   0.087
 5177SOL    HW116097   4.784   1.037   0.005
 5177SOL    HW216098   4.888   0.928   0.068
 5178SOL     OW16099   3.945   1.314   1.844
 5178SOL    HW116100   3.880   1.241   1.823
 5178SOL    HW216101   3.949   1.328   1.942
 5179SOL     OW16102   3.803   1.240   0.653
 5179SOL    HW116103   3.802   1.193   0.741
 5179SOL    HW216104   3.885   1.212   0.602
 5180SOL     OW16105   4.396   1.391   1.624
 5180SOL    HW116106   4.318   1.341   1.662
 5180SOL    HW216107   4.393   1.486   1.655
 5181SOL     OW16108   4.152   0.424   0.520
 5181SOL    HW116109   4.182   0.352   0.458
 5181SOL    HW216110   4.113   0.384   0.603
 5182SOL     OW16111   5.429   1.487   1.104
 5182SOL    HW116112   5.336   1.462   1.077
 5182SOL    HW216113   5.455   1.437   1.186
 5183SOL     OW16114   4.041   0.547   1.280
 5183SOL    HW116115   4.079   0.488   1.352
 5183SOL    HW216116   4.081   0.521   1.192
 5184SOL     OW16117   4.536   1.586   0.687
 5184SOL    HW116118   4.568   1.596   0.593
 5184SOL    HW216119   4.457   1.524   0.689
 5185SOL     OW16120   5.148   0.214   1.112
 5185SOL    HW116121   5.200   0.149   1.167
 5185SOL    HW216122   5.099   0.277   1.173
 5186SOL     OW16123   4.725   0.034   1.154
 5186SOL    HW116124   4.662  -0.038   1.123
 5186SOL    HW216125   4.818  -0.002   1.154
 5187SOL     OW16126   4.494   1.330   0.301
 5187SOL    HW116127   4.448   1.243   0.318
 5187SOL    HW216128   4.585   1.327   0.342
 5188SOL     OW16129   4.342   1.567   1.284
 5188SOL    HW116130   4.337   1.649   1.341
 5188SOL    HW216131   4.431   1.564   1.239
 5189SOL     OW16132   5.076   0.052   0.168
 5189SOL    HW116133   5.111   0.011   0.084
 5189SOL    HW216134   4.986   0.014   0.188
 5190SOL     OW16135   5.024   0.453   0.691
 5190SOL    HW116136   4.965   0.533   0.695
 5190SOL    HW216137   5.039   0.418   0.784
 5191SOL     OW16138   5.317   0.221   0.882
 5191SOL    HW116139   5.233   0.220   0.936
 5191SOL    HW216140   5.319   0.304   0.826
 5192SOL     OW16141   3.763   1.077   0.300
 5192SOL    HW116142   3.862   1.066   0.291
 5192SOL    HW216143   3.723   0.991   0.332
 5193SOL     OW16144   4.599   1.646   0.337
 5193SOL    HW116145   4.522   1.611   0.283
 5193SOL    HW216146   4.567   1.717   0.399
 5194SOL     OW16147   3.954   0.628   1.975
 5194SOL    HW116148   3.861   0.626   2.012
 5194SOL    HW216149   3.955   0.589   1.883
 5195SOL     OW16150   3.949   0.275   2.858
 5195SOL    HW116151   3.984   0.258   2.950
 5195SOL    HW216152   3.861   0.230   2.846
 5196SOL     OW16153   3.743   0.368   2.509
 5196SOL    HW116154   3.661   0.411   2.548
 5196SOL    HW216155   3.715   0.295   2.446
 5197SOL     OW16156   4.293   1.275   3.027
 5197SOL    HW116157   4.200   1.268   2.990
 5197SOL    HW216158   4.304   1.364   3.071
 5198SOL     OW16159   5.279   1.511   2.565
 5198SOL    HW116160   5.222   1.495   2.646
 5198SOL    HW216161   5.220   1.521   2.485
 5199SOL     OW16162   4.859   0.703   2.579
 5199SOL    HW116163   4.916   0.781   2.554
 5199SOL    HW216164   4.799   0.729   2.655
 5200SOL     OW16165   4.492   1.144   2.885
 5200SOL    HW116166   4.414   1.161   2.945
 5200SOL    HW216167   4.526   1.231   2.849
 5201SOL     OW16168   4.574   0.798   3.685
 5201SOL    HW116169   4.570   0.874   3.750
 5201SOL    HW216170   4.596   0.834   3.594
 5202SOL     OW16171   4.409   1.012   2.527
 5202SOL    HW116172   4.478   0.996   2.597
 5202SOL    HW216173   4.336   1.069   2.565
 5203SOL     OW16174   4.410   1.161   3.665
 5203SOL    HW116175   4.470   1.240   3.679
 5203SOL    HW216176   4.324   1.192   3.624
 5204SOL     OW16177   4.059   1.435   2.923
 5204SOL    HW116178   3.981   1.404   2.870
 5204SOL    HW216179   4.117   1.493   2.866
 5205SOL     OW16180   5.184   1.505   3.201
 5205SOL    HW116181   5.208   1.599   3.227
 5205SOL    HW216182   5.168   1.451   3.283
 5206SOL     OW16183   4.162   0.392   3.361
 5206SOL    HW116184   4.244   0.336   3.370
 5206SOL    HW216185   4.081   0.334   3.365
 5207SOL     OW16186   3.955   1.713   2.345
 5207SOL    HW116187   3.989   1.790   2.399
 5207SOL    HW216188   3.999   1.713   2.255
 5208SOL     OW16189   4.851   1.341   3.552
 5208SOL    HW116190   4.898   1.341   3.640
 5208SOL    HW216191   4.803   1.254   3.541
 5209SOL     OW16192   3.954   1.434   2.400
 5209SOL    HW116193   3.928   1.530   2.400
 5209SOL    HW216194   3.883   1.380   2.445
 5210SOL     OW16195   3.964   1.091   2.748
 5210SOL    HW116196   3.978   1.007   2.800
 5210SOL    HW216197   3.909   1.155   2.803
 5211SOL     OW16198   4.344   1.786   3.301
 5211SOL    HW116199   4.252   1.769   3.336
 5211SOL    HW216200   4.372   1.878   3.327
 5212SOL     OW16201   4.330   0.964   1.985
 5212SOL    HW116202   4.337   1.048   1.931
 5212SOL    HW216203   4.376   0.977   2.073
 5213SOL     OW16204   5.318   0.114   3.342
 5213SOL    HW116205   5.300   0.181   3.270
 5213SOL    HW216206   5.315   0.160   3.431
 5214SOL     OW16207   3.846   0.643   2.425
 5214SOL    HW116208   3.801   0.555   2.442
 5214SOL    HW216209   3.845   0.697   2.509
 5215SOL     OW16210   3.751   1.596   1.979
 5215SOL    HW116211   3.732   1.500   2.000
 5215SOL    HW216212   3.718   1.654   2.054
 5216SOL     OW16213   5.413   0.922   2.474
 5216SOL    HW116214   5.508   0.893   2.482
 5216SOL    HW216215   5.405   0.987   2.399
 5217SOL     OW16216   3.837   0.737   3.459
 5217SOL    HW116217   3.925   0.724   3.504
 5217SOL    HW216218   3.824   0.834   3.437
 5218SOL     OW16219   4.337   1.365   2.588
 5218SOL    HW116220   4.288   1.278   2.597
 5218SOL    HW216221   4.314   1.408   2.501
 5219SOL     OW16222   5.017   1.228   3.285
 5219SOL    HW116223   5.054   1.155   3.227
 5219SOL    HW216224   5.069   1.233   3.370
 5220SOL     OW16225   4.533   0.004   2.364
 5220SOL    HW116226   4.573   0.095   2.355
 5220SOL    HW216227   4.433   0.012   2.370
 5221SOL     OW16228   3.921   0.976   3.126
 5221SOL    HW116229   4.010   0.931   3.112
 5221SOL    HW216230   3.848   0.911   3.107
 5222SOL     OW16231   4.911   1.792   3.478
 5222SOL    HW116232   4.935   1.852   3.402
 5222SOL    HW216233   4.918   1.697   3.448
 5223SOL     OW16234   4.041   0.251   3.663
 5223SOL    HW116235   4.112   0.322   3.669
 5223SOL    HW216236   3.953   0.290   3.691
 5224SOL     OW16237   5.190   1.417   2.815
 5224SOL    HW116238   5.131   1.423   2.895
 5224SOL    HW216239   5.175   1.329   2.769
 5225SOL     OW16240   4.322   0.729   2.132
 5225SOL    HW116241   4.346   0.798   2.064
 5225SOL    HW216242   4.244   0.762   2.186
 5226SOL     OW16243   5.005   0.345   2.806
 5226SOL    HW116244   4.919   0.295   2.793
 5226SOL    HW216245   5.067   0.291   2.862
 5227SOL     OW16246   4.531   0.605   3.327
 5227SOL    HW116247   4.484   0.602   3.416
 5227SOL    HW216248   4.480   0.550   3.261
 5228SOL     OW16249   5.118   0.469   3.536
 5228SOL    HW116250   5.098   0.512   3.624
 5228SOL    HW216251   5.196   0.407   3.545
 5229SOL     OW16252   4.697   0.890   3.434
 5229SOL    HW116253   4.743   0.806   3.405
 5229SOL    HW216254   4.641   0.924   3.359
 5230SOL     OW16255   4.715   0.410   3.104
 5230SOL    HW116256   4.638   0.444   3.158
 5230SOL    HW216257   4.681   0.359   3.025
 5231SOL     OW16258   4.765   0.701   2.291
 5231SOL    HW116259   4.791   0.697   2.387
 5231SOL    HW216260   4.680   0.650   2.277
 5232SOL     OW16261   3.800   0.811   2.651
 5232SOL    HW116262   3.899   0.799   2.660
 5232SOL    HW216263   3.776   0.906   2.672
 5233SOL     OW16264   3.854   1.821   3.433
 5233SOL    HW116265   3.844   1.806   3.532
 5233SOL    HW216266   3.768   1.857   3.397
 5234SOL     OW16267   4.589   0.348   2.057
 5234SOL    HW116268   4.648   0.411   2.008
 5234SOL    HW216269   4.608   0.254   2.028
 5235SOL     OW16270   5.086   1.144   2.407
 5235SOL    HW116271   5.169   1.115   2.359
 5235SOL    HW216272   5.037   1.211   2.351
 5236SOL     OW16273   4.274   0.196   2.747
 5236SOL    HW116274   4.269   0.191   2.847
 5236SOL    HW216275   4.276   0.292   2.718
 5237SOL     OW16276   4.732   1.456   2.339
 5237SOL    HW116277   4.686   1.528   2.287
 5237SOL    HW216278   4.728   1.476   2.437
 5238SOL     OW16279   4.075   1.801   2.715
 5238SOL    HW116280   4.125   1.715   2.721
 5238SOL    HW216281   4.140   1.878   2.712
 5239SOL     OW16282   4.951   1.550   3.368
 5239SOL    HW116283   4.957   1.473   3.432
 5239SOL    HW216284   4.899   1.524   3.288
 5240SOL     OW16285   4.045   0.943   2.104
 5240SOL    HW116286   4.127   0.982   2.062
 5240SOL    HW216287   4.018   0.861   2.055
 5241SOL     OW16288   4.185   1.266   3.589
 5241SOL    HW116289   4.135   1.267   3.503
 5241SOL    HW216290   4.122   1.248   3.665
 5242SOL     OW16291   4.835   1.776   2.099
 5242SOL    HW116292   4.775   1.714   2.149
 5242SOL    HW216293   4.866   1.732   2.014
 5243SOL     OW16294   3.926   0.285   3.360
 5243SOL    HW116295   3.846   0.345   3.347
 5243SOL    HW216296   3.916   0.236   3.446
 5244SOL     OW16297   4.188   1.743   2.185
 5244SOL    HW116298   4.221   1.782   2.271
 5244SOL    HW216299   4.264   1.736   2.120
 5245SOL     OW16300   5.124   0.107   2.288
 5245SOL    HW116301   5.100   0.070   2.198
 5245SOL    HW216302   5.223   0.123   2.292
 5246SOL     OW16303   3.973   1.785   3.103
 5246SOL    HW116304   4.030   1.720   3.153
 5246SOL    HW216305   3.957   1.752   3.010
 5247SOL     OW16306   4.664   1.698   2.766
 5247SOL    HW116307   4.744   1.641   2.787
 5247SOL    HW216308   4.615   1.658   2.689
 5248SOL     OW16309   4.106   0.700   2.342
 5248SOL    HW116310   4.151   0.610   2.339
 5248SOL    HW216311   4.012   0.689   2.375
 5249SOL     OW16312   4.338   0.122   1.979
 5249SOL    HW116313   4.436   0.100   1.986
 5249SOL    HW216314   4.307   0.105   1.886
 5250SOL     OW16315   4.505   0.264   3.611
 5250SOL    HW116316   4.572   0.203   3.654
 5250SOL    HW216317   4.432   0.283   3.676
 5251SOL     OW16318   4.612   1.514   3.057
 5251SOL    HW116319   4.589   1.489   2.963
 5251SOL    HW216320   4.673   1.445   3.096
 5252SOL     OW16321   5.075   0.590   3.295
 5252SOL    HW116322   5.103   0.547   3.380
 5252SOL    HW216323   5.100   0.686   3.296
 5253SOL     OW16324   4.527   1.402   2.786
 5253SOL    HW116325   4.617   1.416   2.744
 5253SOL    HW216326   4.456   1.404   2.715
 5254SOL     OW16327   4.646   0.503   2.761
 5254SOL    HW116328   4.621   0.494   2.665
 5254SOL    HW216329   4.694   0.421   2.792
 5255SOL     OW16330   4.263   0.064   2.374
 5255SOL    HW116331   4.182   0.065   2.432
 5255SOL    HW216332   4.266   0.147   2.319
 5256SOL     OW16333   5.158   1.188   1.903
 5256SOL    HW116334   5.190   1.112   1.960
 5256SOL    HW216335   5.066   1.215   1.933
 5257SOL     OW16336   4.021   0.035   2.033
 5257SOL    HW116337   4.070   0.119   2.012
 5257SOL    HW216338   4.083  -0.030   2.078
 5258SOL     OW16339   4.659   0.236   2.342
 5258SOL    HW116340   4.611   0.277   2.264
 5258SOL    HW216341   4.758   0.234   2.323
 5259SOL     OW16342   4.800   0.683   3.326
 5259SOL    HW116343   4.720   0.622   3.329
 5259SOL    HW216344   4.881   0.630   3.302
 5260SOL     OW16345   4.951   1.570   2.655
 5260SOL    HW116346   4.972   1.644   2.590
 5260SOL    HW216347   5.019   1.570   2.728
 5261SOL     OW16348   4.183   1.152   2.603
 5261SOL    HW116349   4.112   1.125   2.668
 5261SOL    HW216350   4.157   1.124   2.510
 5262SOL     OW16351   4.995   1.797   2.453
 5262SOL    HW116352   5.039   1.861   2.389
 5262SOL    HW216353   4.945   1.849   2.523
 5263SOL     OW16354   4.756   0.549   1.878
 5263SOL    HW116355   4.715   0.631   1.839
 5263SOL    HW216356   4.820   0.575   1.951
 5264SOL     OW16357   3.802   0.556   3.248
 5264SOL    HW116358   3.894   0.555   3.207
 5264SOL    HW216359   3.796   0.630   3.315
 5265SOL     OW16360   4.285   0.222   3.009
 5265SOL    HW116361   4.323   0.138   3.046
 5265SOL    HW216362   4.197   0.241   3.053
 5266SOL     OW16363   4.590   0.454   2.504
 5266SOL    HW116364   4.558   0.526   2.442
 5266SOL    HW216365   4.614   0.373   2.451
 5267SOL     OW16366   4.741   0.039   2.615
 5267SOL    HW116367   4.669   0.044   2.546
 5267SOL    HW216368   4.717  -0.030   2.684
 5268SOL     OW16369   5.153   1.173   2.729
 5268SOL    HW116370   5.098   1.089   2.722
 5268SOL    HW216371   5.179   1.202   2.637
 5269SOL     OW16372   4.212   1.385   2.036
 5269SOL    HW116373   4.125   1.370   2.083
 5269SOL    HW216374   4.195   1.411   1.941
 5270SOL     OW16375   5.114   0.575   1.940
 5270SOL    HW116376   5.060   0.554   2.021
 5270SOL    HW216377   5.205   0.534   1.949
 5271SOL     OW16378   4.251   0.256   2.190
 5271SOL    HW116379   4.278   0.197   2.115
 5271SOL    HW216380   4.251   0.351   2.159
 5272SOL     OW16381   4.788   1.347   3.202
 5272SOL    HW116382   4.708   1.324   3.257
 5272SOL    HW216383   4.871   1.321   3.251
 5273SOL     OW16384   5.316   1.629   3.487
 5273SOL    HW116385   5.343   1.663   3.397
 5273SOL    HW216386   5.395   1.591   3.533
 5274SOL     OW16387   4.835   1.195   2.962
 5274SOL    HW116388   4.795   1.239   3.043
 5274SOL    HW216389   4.794   1.232   2.879
 5275SOL     OW16390   4.639   0.089   3.264
 5275SOL    HW116391   4.664   0.069   3.169
 5275SOL    HW216392   4.711   0.145   3.306
 5276SOL     OW16393   4.704   1.116   3.581
 5276SOL    HW116394   4.605   1.122   3.591
 5276SOL    HW216395   4.727   1.036   3.525
 5277SOL     OW16396   4.429   1.050   2.230
 5277SOL    HW116397   4.415   1.057   2.329
 5277SOL    HW216398   4.513   0.999   2.212
 5278SOL     OW16399   4.134   0.813   3.113
 5278SOL    HW116400   4.220   0.825   3.163
 5278SOL    HW216401   4.092   0.726   3.140
 5279SOL     OW16402   4.998   0.386   3.124
 5279SOL    HW116403   5.019   0.460   3.188
 5279SOL    HW216404   4.909   0.403   3.081
 5280SOL     OW16405   3.788   1.564   3.193
 5280SOL    HW116406   3.742   1.646   3.159
 5280SOL    HW216407   3.886   1.583   3.202
 5281SOL     OW16408   4.091   1.100   2.363
 5281SOL    HW116409   4.084   1.183   2.307
 5281SOL    HW216410   4.095   1.020   2.303
 5282SOL     OW16411   4.290   0.537   2.727
 5282SOL    HW116412   4.302   0.603   2.653
 5282SOL    HW216413   4.336   0.571   2.810
 5283SOL     OW16414   4.976   1.348   2.250
 5283SOL    HW116415   5.026   1.425   2.290
 5283SOL    HW216416   4.881   1.350   2.282
 5284SOL     OW16417   4.996   1.445   3.004
 5284SOL    HW116418   5.043   1.458   3.091
 5284SOL    HW216419   4.930   1.371   3.013
 5285SOL     OW16420   4.078   1.510   3.191
 5285SOL    HW116421   4.057   1.466   3.104
 5285SOL    HW216422   4.175   1.536   3.194
 5286SOL     OW16423   4.126   0.751   3.460
 5286SOL    HW116424   4.194   0.806   3.413
 5286SOL    HW216425   4.166   0.663   3.487
 5287SOL     OW16426   4.737   0.105   3.632
 5287SOL    HW116427   4.743   0.190   3.580
 5287SOL    HW216428   4.769   0.029   3.575
 5288SOL     OW16429   4.228   0.050   3.602
 5288SOL    HW116430   4.186  -0.007   3.532
 5288SOL    HW216431   4.162   0.119   3.634
 5289SOL     OW16432   4.297   0.870   2.891
 5289SOL    HW116433   4.341   0.959   2.882
 5289SOL    HW216434   4.234   0.870   2.968
 5290SOL     OW16435   5.084   0.862   2.907
 5290SOL    HW116436   5.009   0.862   2.841
 5290SOL    HW216437   5.121   0.770   2.916
 5291SOL     OW16438   4.933   0.525   2.137
 5291SOL    HW116439   4.946   0.441   2.191
 5291SOL    HW216440   4.904   0.599   2.197
 5292SOL     OW16441   4.031   0.213   3.093
 5292SOL    HW116442   4.008   0.250   3.183
 5292SOL    HW216443   4.001   0.118   3.087
 5293SOL     OW16444   3.761   1.310   3.144
 5293SOL    HW116445   3.814   1.261   3.212
 5293SOL    HW216446   3.783   1.408   3.149
 5294SOL     OW16447   4.456   0.634   2.926
 5294SOL    HW116448   4.515   0.608   2.850
 5294SOL    HW216449   4.428   0.730   2.915
 5295SOL     OW16450   4.031   0.063   2.480
 5295SOL    HW116451   4.020   0.157   2.513
 5295SOL    HW216452   4.026   0.000   2.557
 5296SOL     OW16453   5.346   0.367   2.236
 5296SOL    HW116454   5.348   0.291   2.300
 5296SOL    HW216455   5.298   0.444   2.276
 5297SOL     OW16456   4.747   0.766   2.828
 5297SOL    HW116457   4.762   0.787   2.924
 5297SOL    HW216458   4.717   0.671   2.819
 5298SOL     OW16459   4.704   1.573   3.562
 5298SOL    HW116460   4.684   1.617   3.474
 5298SOL    HW216461   4.743   1.482   3.546
 5299SOL     OW16462   4.074   0.898   3.666
 5299SOL    HW116463   4.150   0.942   3.714
 5299SOL    HW216464   4.109   0.851   3.584
 5300SOL     OW16465   5.027   0.838   1.904
 5300SOL    HW116466   5.061   0.745   1.919
 5300SOL    HW216467   5.045   0.865   1.809
 5301SOL     OW16468   4.792   1.333   2.711
 5301SOL    HW116469   4.799   1.249   2.656
 5301SOL    HW216470   4.854   1.402   2.675
 5302SOL     OW16471   4.043   0.810   2.811
 5302SOL    HW116472   4.136   0.846   2.816
 5302SOL    HW216473   4.037   0.725   2.863
 5303SOL     OW16474   4.063   0.509   2.868
 5303SOL    HW116475   4.011   0.426   2.851
 5303SOL    HW216476   4.140   0.514   2.804
 5304SOL     OW16477   4.862   0.380   3.540
 5304SOL    HW116478   4.817   0.443   3.604
 5304SOL    HW216479   4.955   0.411   3.523
 5305SOL     OW16480   4.884   0.207   3.339
 5305SOL    HW116481   4.884   0.271   3.416
 5305SOL    HW216482   4.912   0.255   3.256
 5306SOL     OW16483   3.732   1.326   2.062
 5306SOL    HW116484   3.639   1.347   2.031
 5306SOL    HW216485   3.742   1.227   2.075
 5307SOL     OW16486   3.812   1.801   2.789
 5307SOL    HW116487   3.770   1.715   2.762
 5307SOL    HW216488   3.906   1.804   2.755
 5308SOL     OW16489   4.228   1.568   2.772
 5308SOL    HW116490   4.294   1.642   2.781
 5308SOL    HW216491   4.272   1.489   2.730
 5309SOL     OW16492   4.726   0.796   3.100
 5309SOL    HW116493   4.767   0.764   3.186
 5309SOL    HW216494   4.630   0.769   3.097
 5310SOL     OW16495   3.764   0.544   2.976
 5310SOL    HW116496   3.849   0.511   2.935
 5310SOL    HW216497   3.777   0.559   3.074
 5311SOL     OW16498   3.913   0.520   3.584
 5311SOL    HW116499   3.972   0.480   3.514
 5311SOL    HW216500   3.855   0.591   3.543
 5312SOL     OW16501   5.093   0.950   3.522
 5312SOL    HW116502   5.132   1.039   3.542
 5312SOL    HW216503   5.103   0.930   3.425
 5313SOL     OW16504   4.539   0.572   2.187
 5313SOL    HW116505   4.546   0.483   2.141
 5313SOL    HW216506   4.445   0.606   2.179
 5314SOL     OW16507   3.976   1.564   3.606
 5314SOL    HW116508   3.946   1.621   3.682
 5314SOL    HW216509   3.969   1.467   3.632
 5315SOL     OW16510   4.395   0.464   3.131
 5315SOL    HW116511   4.361   0.375   3.101
 5315SOL    HW216512   4.421   0.518   3.051
 5316SOL     OW16513   4.654   1.678   3.327
 5316SOL    HW116514   4.630   1.660   3.232
 5316SOL    HW216515   4.684   1.772   3.337
 5317SOL     OW16516   4.197   0.500   2.053
 5317SOL    HW116517   4.258   0.580   2.057
 5317SOL    HW216518   4.102   0.531   2.060
 5318SOL     OW16519   3.883   1.137   3.328
 5318SOL    HW116520   3.905   1.076   3.404
 5318SOL    HW216521   3.893   1.088   3.242
 5319SOL     OW16522   5.071   1.059   3.096
 5319SOL    HW116523   5.095   0.996   3.022
 5319SOL    HW216524   4.981   1.099   3.078
 5320SOL     OW16525   5.026   0.855   2.171
 5320SOL    HW116526   4.940   0.824   2.213
 5320SOL    HW216527   5.022   0.841   2.072
 5321SOL     OW16528   4.976   1.731   2.990
 5321SOL    HW116529   5.060   1.736   2.936
 5321SOL    HW216530   4.953   1.635   3.008
 5322SOL     OW16531   3.807   1.258   2.884
 5322SOL    HW116532   3.802   1.257   2.984
 5322SOL    HW216533   3.724   1.217   2.846
 5323SOL     OW16534   4.412   1.662   3.578
 5323SOL    HW116535   4.356   1.743   3.587
 5323SOL    HW216536   4.464   1.666   3.492
 5324SOL     OW16537   5.112   1.573   2.339
 5324SOL    HW116538   5.179   1.585   2.265
 5324SOL    HW216539   5.072   1.662   2.362
 5325SOL     OW16540   3.854   1.794   3.713
 5325SOL    HW116541   3.813   1.720   3.766
 5325SOL    HW216542   3.918   1.845   3.771
 5326SOL     OW16543   5.004   0.927   2.534
 5326SOL    HW116544   5.064   0.846   2.536
 5326SOL    HW216545   5.044   0.996   2.474
 5327SOL     OW16546   4.554   1.273   3.284
 5327SOL    HW116547   4.549   1.306   3.379
 5327SOL    HW216548   4.468   1.292   3.238
 5328SOL     OW16549   4.396   1.616   2.016
 5328SOL    HW116550   4.405   1.626   1.917
 5328SOL    HW216551   4.356   1.527   2.037
 5329SOL     OW16552   3.987   0.326   2.582
 5329SOL    HW116553   3.908   0.377   2.548
 5329SOL    HW216554   3.978   0.311   2.680
 5330SOL     OW16555   4.918   1.612   1.893
 5330SOL    HW116556   4.924   1.519   1.930
 5330SOL    HW216557   4.859   1.612   1.813
 5331SOL     OW16558   4.546   1.002   3.234
 5331SOL    HW116559   4.586   1.001   3.142
 5331SOL    HW216560   4.556   1.094   3.274
 5332SOL     OW16561   4.640   0.910   2.153
 5332SOL    HW116562   4.703   0.948   2.085
 5332SOL    HW216563   4.680   0.827   2.192
 5333SOL     OW16564   4.096   1.288   3.352
 5333SOL    HW116565   4.083   1.381   3.318
 5333SOL    HW216566   4.012   1.236   3.339
 5334SOL     OW16567   4.763   1.098   2.558
 5334SOL    HW116568   4.693   1.051   2.612
 5334SOL    HW216569   4.822   1.030   2.515
 5335SOL     OW16570   4.738   0.236   2.833
 5335SOL    HW116571   4.730   0.200   2.740
 5335SOL    HW216572   4.736   0.160   2.898
 5336SOL     OW16573   4.314   1.487   2.353
 5336SOL    HW116574   4.356   1.429   2.283
 5336SOL    HW216575   4.270   1.566   2.309
 5337SOL     OW16576   3.979   1.348   2.152
 5337SOL    HW116577   3.883   1.349   2.125
 5337SOL    HW216578   3.991   1.401   2.236
 5338SOL     OW16579   3.829   1.013   3.588
 5338SOL    HW116580   3.752   0.980   3.642
 5338SOL    HW216581   3.914   0.983   3.630
 5339SOL     OW16582   4.396   0.203   3.351
 5339SOL    HW116583   4.486   0.187   3.311
 5339SOL    HW216584   4.404   0.208   3.450
 5340SOL     OW16585   3.799   0.345   1.895
 5340SOL    HW116586   3.707   0.317   1.866
 5340SOL    HW216587   3.830   0.422   1.839
 5341SOL     OW16588   5.164   0.856   3.260
 5341SOL    HW116589   5.107   0.908   3.197
 5341SOL    HW216590   5.260   0.868   3.236
 5342SOL     OW16591   3.796   0.166   2.180
 5342SOL    HW116592   3.779   0.249   2.126
 5342SOL    HW216593   3.886   0.129   2.158
 5343SOL     OW16594   4.907   1.335   1.981
 5343SOL    HW116595   4.808   1.324   1.983
 5343SOL    HW216596   4.941   1.350   2.074
 5344SOL     OW16597   4.337   0.842   3.293
 5344SOL    HW116598   4.393   0.923   3.276
 5344SOL    HW216599   4.396   0.762   3.296
 5345SOL     OW16600   4.440   0.565   3.570
 5345SOL    HW116601   4.459   0.630   3.644
 5345SOL    HW216602   4.500   0.485   3.579
 5346SOL     OW16603   5.174   1.220   3.495
 5346SOL    HW116604   5.165   1.210   3.594
 5346SOL    HW216605   5.270   1.213   3.469
 5347SOL     OW16606   4.114   1.741   3.422
 5347SOL    HW116607   4.023   1.782   3.420
 5347SOL    HW216608   4.107   1.647   3.454
 5348SOL     OW16609   4.949   0.325   2.311
 5348SOL    HW116610   5.014   0.251   2.300
 5348SOL    HW216611   4.969   0.375   2.395
 5349SOL     OW16612   4.318   0.745   2.514
 5349SOL    HW116613   4.368   0.830   2.495
 5349SOL    HW216614   4.230   0.747   2.466
 5350SOL     OW16615   4.583   1.374   1.878
 5350SOL    HW116616   4.537   1.389   1.966
 5350SOL    HW216617   4.627   1.459   1.848
 5351SOL     OW16618   4.385   1.790   2.815
 5351SOL    HW116619   4.339   1.878   2.802
 5351SOL    HW216620   4.484   1.802   2.808
 5352SOL     OW16621   4.583   0.956   2.723
 5352SOL    HW116622   4.637   0.887   2.771
 5352SOL    HW216623   4.551   1.025   2.789
 5353SOL     OW16624   4.807   0.984   1.949
 5353SOL    HW116625   4.784   1.037   1.867
 5353SOL    HW216626   4.888   0.928   1.930
 5354SOL     OW16627   3.945   1.314   3.706
 5354SOL    HW116628   3.880   1.241   3.685
 5354SOL    HW216629   3.949   1.328   3.804
 5355SOL     OW16630   3.803   1.240   2.515
 5355SOL    HW116631   3.802   1.193   2.603
 5355SOL    HW216632   3.885   1.212   2.464
 5356SOL     OW16633   4.396   1.391   3.486
 5356SOL    HW116634   4.318   1.341   3.524
 5356SOL    HW216635   4.393   1.486   3.517
 5357SOL     OW16636   4.152   0.424   2.382
 5357SOL    HW116637   4.182   0.352   2.320
 5357SOL    HW216638   4.113   0.384   2.465
 5358SOL     OW16639   5.429   1.487   2.966
 5358SOL    HW116640   5.336   1.462   2.939
 5358SOL    HW216641   5.455   1.437   3.048
 5359SOL     OW16642   4.041   0.547   3.142
 5359SOL    HW116643   4.079   0.488   3.214
 5359SOL    HW216644   4.081   0.521   3.054
 5360SOL     OW16645   4.536   1.586   2.549
 5360SOL    HW116646   4.568   1.596   2.455
 5360SOL    HW216647   4.457   1.524   2.551
 5361SOL     OW16648   5.148   0.214   2.974
 5361SOL    HW116649   5.200   0.149   3.029
 5361SOL    HW216650   5.099   0.277   3.035
 5362SOL     OW16651   4.725   0.034   3.016
 5362SOL    HW116652   4.662  -0.038   2.985
 5362SOL    HW216653   4.818  -0.002   3.016
 5363SOL     OW16654   4.494   1.330   2.163
 5363SOL    HW116655   4.448   1.243   2.180
 5363SOL    HW216656   4.585   1.327   2.204
 5364SOL     OW16657   4.342   1.567   3.146
 5364SOL    HW116658   4.337   1.649   3.203
 5364SOL    HW216659   4.431   1.564   3.101
 5365SOL     OW16660   5.076   0.052   2.030
 5365SOL    HW116661   5.111   0.011   1.946
 5365SOL    HW216662   4.986   0.014   2.050
 5366SOL     OW16663   5.024   0.453   2.553
 5366SOL    HW116664   4.965   0.533   2.557
 5366SOL    HW216665   5.039   0.418   2.646
 5367SOL     OW16666   5.317   0.221   2.744
 5367SOL    HW116667   5.233   0.220   2.798
 5367SOL    HW216668   5.319   0.304   2.688
 5368SOL     OW16669   3.763   1.077   2.162
 5368SOL    HW116670   3.862   1.066   2.153
 5368SOL    HW216671   3.723   0.991   2.194
 5369SOL     OW16672   4.599   1.646   2.199
 5369SOL    HW116673   4.522   1.611   2.145
 5369SOL    HW216674   4.567   1.717   2.261
 5370SOL     OW16675   3.954   0.628   3.837
 5370SOL    HW116676   3.861   0.626   3.874
 5370SOL    HW216677   3.955   0.589   3.745
 5371SOL     OW16678   3.949   0.275   4.720
 5371SOL    HW116679   3.984   0.258   4.812
 5371SOL    HW216680   3.861   0.230   4.708
 5372SOL     OW16681   3.743   0.368   4.371
 5372SOL    HW116682   3.661   0.411   4.410
 5372SOL    HW216683   3.715   0.295   4.308
 5373SOL     OW16684   4.293   1.275   4.889
 5373SOL    HW116685   4.200   1.268   4.852
 5373SOL    HW216686   4.304   1.364   4.933
 5374SOL     OW16687   5.279   1.511   4.427
 5374SOL    HW116688   5.222   1.495   4.508
 5374SOL    HW216689   5.220   1.521   4.347
 5375SOL     OW16690   4.859   0.703   4.441
 5375SOL    HW116691   4.916   0.781   4.416
 5375SOL    HW216692   4.799   0.729   4.517
 5376SOL     OW16693   4.492   1.144   4.747
 5376SOL    HW116694   4.414   1.161   4.807
 5376SOL    HW216695   4.526   1.231   4.711
 5377SOL     OW16696   4.574   0.798   5.547
 5377SOL    HW116697   4.570   0.874   5.612
 5377SOL    HW216698   4.596   0.834   5.456
 5378SOL     OW16699   4.409   1.012   4.389
 5378SOL    HW116700   4.478   0.996   4.459
 5378SOL    HW216701   4.336   1.069   4.427
 5379SOL     OW16702   4.410   1.161   5.527
 5379SOL    HW116703   4.470   1.240   5.541
 5379SOL    HW216704   4.324   1.192   5.486
 5380SOL     OW16705   4.059   1.435   4.785
 5380SOL    HW116706   3.981   1.404   4.732
 5380SOL    HW216707   4.117   1.493   4.728
 5381SOL     OW16708   5.184   1.505   5.063
 5381SOL    HW116709   5.208   1.599   5.089
 5381SOL    HW216710   5.168   1.451   5.145
 5382SOL     OW16711   4.162   0.392   5.223
 5382SOL    HW116712   4.244   0.336   5.232
 5382SOL    HW216713   4.081   0.334   5.227
 5383SOL     OW16714   3.955   1.713   4.207
 5383SOL    HW116715   3.989   1.790   4.261
 5383SOL    HW216716   3.999   1.713   4.117
 5384SOL     OW16717   4.851   1.341   5.414
 5384SOL    HW116718   4.898   1.341   5.502
 5384SOL    HW216719   4.803   1.254   5.403
 5385SOL     OW16720   3.954   1.434   4.262
 5385SOL    HW116721   3.928   1.530   4.262
 5385SOL    HW216722   3.883   1.380   4.307
 5386SOL     OW16723   3.964   1.091   4.610
 5386SOL    HW116724   3.978   1.007   4.662
 5386SOL    HW216725   3.909   1.155   4.665
 5387SOL     OW16726   4.344   1.786   5.163
 5387SOL    HW116727   4.252   1.769   5.198
 5387SOL    HW216728   4.372   1.878   5.189
 5388SOL     OW16729   4.330   0.964   3.847
 5388SOL    HW116730   4.337   1.048   3.793
 5388SOL    HW216731   4.376   0.977   3.935
 5389SOL     OW16732   5.318   0.114   5.204
 5389SOL    HW116733   5.300   0.181   5.132
 5389SOL    HW216734   5.315   0.160   5.293
 5390SOL     OW16735   3.846   0.643   4.287
 5390SOL    HW116736   3.801   0.555   4.304
 5390SOL    HW216737   3.845   0.697   4.371
 5391SOL     OW16738   3.751   1.596   3.841
 5391SOL    HW116739   3.732   1.500   3.862
 5391SOL    HW216740   3.718   1.654   3.916
 5392SOL     OW16741   5.413   0.922   4.336
 5392SOL    HW116742   5.508   0.893   4.344
 5392SOL    HW216743   5.405   0.987   4.261
 5393SOL     OW16744   3.837   0.737   5.321
 5393SOL    HW116745   3.925   0.724   5.366
 5393SOL    HW216746   3.824   0.834   5.299
 5394SOL     OW16747   4.337   1.365   4.450
 5394SOL    HW116748   4.288   1.278   4.459
 5394SOL    HW216749   4.314   1.408   4.363
 5395SOL     OW16750   5.017   1.228   5.147
 5395SOL    HW116751   5.054   1.155   5.089
 5395SOL    HW216752   5.069   1.233   5.232
 5396SOL     OW16753   4.533   0.004   4.226
 5396SOL    HW116754   4.573   0.095   4.217
 5396SOL    HW216755   4.433   0.012   4.232
 5397SOL     OW16756   3.921   0.976   4.988
 5397SOL    HW116757   4.010   0.931   4.974
 5397SOL    HW216758   3.848   0.911   4.969
 5398SOL     OW16759   4.911   1.792   5.340
 5398SOL    HW116760   4.935   1.852   5.264
 5398SOL    HW216761   4.918   1.697   5.310
 5399SOL     OW16762   4.041   0.251   5.525
 5399SOL    HW116763   4.112   0.322   5.531
 5399SOL    HW216764   3.953   0.290   5.553
 5400SOL     OW16765   5.190   1.417   4.677
 5400SOL    HW116766   5.131   1.423   4.757
 5400SOL    HW216767   5.175   1.329   4.631
 5401SOL     OW16768   4.322   0.729   3.994
 5401SOL    HW116769   4.346   0.798   3.926
 5401SOL    HW216770   4.244   0.762   4.048
 5402SOL     OW16771   5.005   0.345   4.668
 5402SOL    HW116772   4.919   0.295   4.655
 5402SOL    HW216773   5.067   0.291   4.724
 5403SOL     OW16774   4.531   0.605   5.189
 5403SOL    HW116775   4.484   0.602   5.278
 5403SOL    HW216776   4.480   0.550   5.123
 5404SOL     OW16777   5.118   0.469   5.398
 5404SOL    HW116778   5.098   0.512   5.486
 5404SOL    HW216779   5.196   0.407   5.407
 5405SOL     OW16780   4.697   0.890   5.296
 5405SOL    HW116781   4.743   0.806   5.267
 5405SOL    HW216782   4.641   0.924   5.221
 5406SOL     OW16783   4.715   0.410   4.966
 5406SOL    HW116784   4.638   0.444   5.020
 5406SOL    HW216785   4.681   0.359   4.887
 5407SOL     OW16786   4.765   0.701   4.153
 5407SOL    HW116787   4.791   0.697   4.249
 5407SOL    HW216788   4.680   0.650   4.139
 5408SOL     OW16789   3.800   0.811   4.513
 5408SOL    HW116790   3.899   0.799   4.522
 5408SOL    HW216791   3.776   0.906   4.534
 5409SOL     OW16792   3.854   1.821   5.295
 5409SOL    HW116793   3.844   1.806   5.394
 5409SOL    HW216794   3.768   1.857   5.259
 5410SOL     OW16795   4.589   0.348   3.919
 5410SOL    HW116796   4.648   0.411   3.870
 5410SOL    HW216797   4.608   0.254   3.890
 5411SOL     OW16798   5.086   1.144   4.269
 5411SOL    HW116799   5.169   1.115   4.221
 5411SOL    HW216800   5.037   1.211   4.213
 5412SOL     OW16801   4.274   0.196   4.609
 5412SOL    HW116802   4.269   0.191   4.709
 5412SOL    HW216803   4.276   0.292   4.580
 5413SOL     OW16804   4.732   1.456   4.201
 5413SOL    HW116805   4.686   1.528   4.149
 5413SOL    HW216806   4.728   1.476   4.299
 5414SOL     OW16807   4.075   1.801   4.577
 5414SOL    HW116808   4.125   1.715   4.583
 5414SOL    HW216809   4.140   1.878   4.574
 5415SOL     OW16810   4.951   1.550   5.230
 5415SOL    HW116811   4.957   1.473   5.294
 5415SOL    HW216812   4.899   1.524   5.150
 5416SOL     OW16813   4.045   0.943   3.966
 5416SOL    HW116814   4.127   0.982   3.924
 5416SOL    HW216815   4.018   0.861   3.917
 5417SOL     OW16816   4.185   1.266   5.451
 5417SOL    HW116817   4.135   1.267   5.365
 5417SOL    HW216818   4.122   1.248   5.527
 5418SOL     OW16819   4.835   1.776   3.961
 5418SOL    HW116820   4.775   1.714   4.011
 5418SOL    HW216821   4.866   1.732   3.876
 5419SOL     OW16822   3.926   0.285   5.222
 5419SOL    HW116823   3.846   0.345   5.209
 5419SOL    HW216824   3.916   0.236   5.308
 5420SOL     OW16825   4.188   1.743   4.047
 5420SOL    HW116826   4.221   1.782   4.133
 5420SOL    HW216827   4.264   1.736   3.982
 5421SOL     OW16828   5.124   0.107   4.150
 5421SOL    HW116829   5.100   0.070   4.060
 5421SOL    HW216830   5.223   0.123   4.154
 5422SOL     OW16831   3.973   1.785   4.965
 5422SOL    HW116832   4.030   1.720   5.015
 5422SOL    HW216833   3.957   1.752   4.872
 5423SOL     OW16834   4.664   1.698   4.628
 5423SOL    HW116835   4.744   1.641   4.649
 5423SOL    HW216836   4.615   1.658   4.551
 5424SOL     OW16837   4.106   0.700   4.204
 5424SOL    HW116838   4.151   0.610   4.201
 5424SOL    HW216839   4.012   0.689   4.237
 5425SOL     OW16840   4.338   0.122   3.841
 5425SOL    HW116841   4.436   0.100   3.848
 5425SOL    HW216842   4.307   0.105   3.748
 5426SOL     OW16843   4.505   0.264   5.473
 5426SOL    HW116844   4.572   0.203   5.516
 5426SOL    HW216845   4.432   0.283   5.538
 5427SOL     OW16846   4.612   1.514   4.919
 5427SOL    HW116847   4.589   1.489   4.825
 5427SOL    HW216848   4.673   1.445   4.958
 5428SOL     OW16849   5.075   0.590   5.157
 5428SOL    HW116850   5.103   0.547   5.242
 5428SOL    HW216851   5.100   0.686   5.158
 5429SOL     OW16852   4.527   1.402   4.648
 5429SOL    HW116853   4.617   1.416   4.606
 5429SOL    HW216854   4.456   1.404   4.577
 5430SOL     OW16855   4.646   0.503   4.623
 5430SOL    HW116856   4.621   0.494   4.527
 5430SOL    HW216857   4.694   0.421   4.654
 5431SOL     OW16858   4.263   0.064   4.236
 5431SOL    HW116859   4.182   0.065   4.294
 5431SOL    HW216860   4.266   0.147   4.181
 5432SOL     OW16861   5.158   1.188   3.765
 5432SOL    HW116862   5.190   1.112   3.822
 5432SOL    HW216863   5.066   1.215   3.795
 5433SOL     OW16864   4.021   0.035   3.895
 5433SOL    HW116865   4.070   0.119   3.874
 5433SOL    HW216866   4.083  -0.030   3.940
 5434SOL     OW16867   4.659   0.236   4.204
 5434SOL    HW116868   4.611   0.277   4.126
 5434SOL    HW216869   4.758   0.234   4.185
 5435SOL     OW16870   4.800   0.683   5.188
 5435SOL    HW116871   4.720   0.622   5.191
 5435SOL    HW216872   4.881   0.630   5.164
 5436SOL     OW16873   4.951   1.570   4.517
 5436SOL    HW116874   4.972   1.644   4.452
 5436SOL    HW216875   5.019   1.570   4.590
 5437SOL     OW16876   4.183   1.152   4.465
 5437SOL    HW116877   4.112   1.125   4.530
 5437SOL    HW216878   4.157   1.124   4.372
 5438SOL     OW16879   4.995   1.797   4.315
 5438SOL    HW116880   5.039   1.861   4.251
 5438SOL    HW216881   4.945   1.849   4.385
 5439SOL     OW16882   4.756   0.549   3.740
 5439SOL    HW116883   4.715   0.631   3.701
 5439SOL    HW216884   4.820   0.575   3.813
 5440SOL     OW16885   3.802   0.556   5.110
 5440SOL    HW116886   3.894   0.555   5.069
 5440SOL    HW216887   3.796   0.630   5.177
 5441SOL     OW16888   4.285   0.222   4.871
 5441SOL    HW116889   4.323   0.138   4.908
 5441SOL    HW216890   4.197   0.241   4.915
 5442SOL     OW16891   4.590   0.454   4.366
 5442SOL    HW116892   4.558   0.526   4.304
 5442SOL    HW216893   4.614   0.373   4.313
 5443SOL     OW16894   4.741   0.039   4.477
 5443SOL    HW116895   4.669   0.044   4.408
 5443SOL    HW216896   4.717  -0.030   4.546
 5444SOL     OW16897   5.153   1.173   4.591
 5444SOL    HW116898   5.098   1.089   4.584
 5444SOL    HW216899   5.179   1.202   4.499
 5445SOL     OW16900   4.212   1.385   3.898
 5445SOL    HW116901   4.125   1.370   3.945
 5445SOL    HW216902   4.195   1.411   3.803
 5446SOL     OW16903   5.114   0.575   3.802
 5446SOL    HW116904   5.060   0.554   3.883
 5446SOL    HW216905   5.205   0.534   3.811
 5447SOL     OW16906   4.251   0.256   4.052
 5447SOL    HW116907   4.278   0.197   3.977
 5447SOL    HW216908   4.251   0.351   4.021
 5448SOL     OW16909   4.788   1.347   5.064
 5448SOL    HW116910   4.708   1.324   5.119
 5448SOL    HW216911   4.871   1.321   5.113
 5449SOL     OW16912   5.316   1.629   5.349
 5449SOL    HW116913   5.343   1.663   5.259
 5449SOL    HW216914   5.395   1.591   5.395
 5450SOL     OW16915   4.835   1.195   4.824
 5450SOL    HW116916   4.795   1.239   4.905
 5450SOL    HW216917   4.794   1.232   4.741
 5451SOL     OW16918   4.639   0.089   5.126
 5451SOL    HW116919   4.664   0.069   5.031
 5451SOL    HW216920   4.711   0.145   5.168
 5452SOL     OW16921   4.704   1.116   5.443
 5452SOL    HW116922   4.605   1.122   5.453
 5452SOL    HW216923   4.727   1.036   5.387
 5453SOL     OW16924   4.429   1.050   4.092
 5453SOL    HW116925   4.415   1.057   4.191
 5453SOL    HW216926   4.513   0.999   4.074
 5454SOL     OW16927   4.134   0.813   4.975
 5454SOL    HW116928   4.220   0.825   5.025
 5454SOL    HW216929   4.092   0.726   5.002
 5455SOL     OW16930   4.998   0.386   4.986
 5455SOL    HW116931   5.019   0.460   5.050
 5455SOL    HW216932   4.909   0.403   4.943
 5456SOL     OW16933   3.788   1.564   5.055
 5456SOL    HW116934   3.742   1.646   5.021
 5456SOL    HW216935   3.886   1.583   5.064
 5457SOL     OW16936   4.091   1.100   4.225
 5457SOL    HW116937   4.084   1.183   4.169
 5457SOL    HW216938   4.095   1.020   4.165
 5458SOL     OW16939   4.290   0.537   4.589
 5458SOL    HW116940   4.302   0.603   4.515
 5458SOL    HW216941   4.336   0.571   4.672
 5459SOL     OW16942   4.976   1.348   4.112
 5459SOL    HW116943   5.026   1.425   4.152
 5459SOL    HW216944   4.881   1.350   4.144
 5460SOL     OW16945   4.996   1.445   4.866
 5460SOL    HW116946   5.043   1.458   4.953
 5460SOL    HW216947   4.930   1.371   4.875
 5461SOL     OW16948   4.078   1.510   5.053
 5461SOL    HW116949   4.057   1.466   4.966
 5461SOL    HW216950   4.175   1.536   5.056
 5462SOL     OW16951   4.126   0.751   5.322
 5462SOL    HW116952   4.194   0.806   5.275
 5462SOL    HW216953   4.166   0.663   5.349
 5463SOL     OW16954   4.737   0.105   5.494
 5463SOL    HW116955   4.743   0.190   5.442
 5463SOL    HW216956   4.769   0.029   5.437
 5464SOL     OW16957   4.228   0.050   5.464
 5464SOL    HW116958   4.186  -0.007   5.394
 5464SOL    HW216959   4.162   0.119   5.496
 5465SOL     OW16960   4.297   0.870   4.753
 5465SOL    HW116961   4.341   0.959   4.744
 5465SOL    HW216962   4.234   0.870   4.830
 5466SOL     OW16963   5.084   0.862   4.769
 5466SOL    HW116964   5.009   0.862   4.703
 5466SOL    HW216965   5.121   0.770   4.778
 5467SOL     OW16966   4.933   0.525   3.999
 5467SOL    HW116967   4.946   0.441   4.053
 5467SOL    HW216968   4.904   0.599   4.059
 5468SOL     OW16969   4.031   0.213   4.955
 5468SOL    HW116970   4.008   0.250   5.045
 5468SOL    HW216971   4.001   0.118   4.949
 5469SOL     OW16972   3.761   1.310   5.006
 5469SOL    HW116973   3.814   1.261   5.074
 5469SOL    HW216974   3.783   1.408   5.011
 5470SOL     OW16975   4.456   0.634   4.788
 5470SOL    HW116976   4.515   0.608   4.712
 5470SOL    HW216977   4.428   0.730   4.777
 5471SOL     OW16978   4.031   0.063   4.342
 5471SOL    HW116979   4.020   0.157   4.375
 5471SOL    HW216980   4.026   0.000   4.419
 5472SOL     OW16981   5.346   0.367   4.098
 5472SOL    HW116982   5.348   0.291   4.162
 5472SOL    HW216983   5.298   0.444   4.138
 5473SOL     OW16984   4.747   0.766   4.690
 5473SOL    HW116985   4.762   0.787   4.786
 5473SOL    HW216986   4.717   0.671   4.681
 5474SOL     OW16987   4.704   1.573   5.424
 5474SOL    HW116988   4.684   1.617   5.336
 5474SOL    HW216989   4.743   1.482   5.408
 5475SOL     OW16990   4.074   0.898   5.528
 5475SOL    HW116991   4.150   0.942   5.576
 5475SOL    HW216992   4.109   0.851   5.446
 5476SOL     OW16993   5.027   0.838   3.766
 5476SOL    HW116994   5.061   0.745   3.781
 5476SOL    HW216995   5.045   0.865   3.671
 5477SOL     OW16996   4.792   1.333   4.573
 5477SOL    HW116997   4.799   1.249   4.518
 5477SOL    HW216998   4.854   1.402   4.537
 5478SOL     OW16999   4.043   0.810   4.673
 5478SOL    HW117000   4.136   0.846   4.678
 5478SOL    HW217001   4.037   0.725   4.725
 5479SOL     OW17002   4.063   0.509   4.730
 5479SOL    HW117003   4.011   0.426   4.713
 5479SOL    HW217004   4.140   0.514   4.666
 5480SOL     OW17005   4.862   0.380   5.402
 5480SOL    HW117006   4.817   0.443   5.466
 5480SOL    HW217007   4.955   0.411   5.385
 5481SOL     OW17008   4.884   0.207   5.201
 5481SOL    HW117009   4.884   0.271   5.278
 5481SOL    HW217010   4.912   0.255   5.118
 5482SOL     OW17011   3.732   1.326   3.924
 5482SOL    HW117012   3.639   1.347   3.893
 5482SOL    HW217013   3.742   1.227   3.937
 5483SOL     OW17014   3.812   1.801   4.651
 5483SOL    HW117015   3.770   1.715   4.624
 5483SOL    HW217016   3.906   1.804   4.617
 5484SOL     OW17017   4.228   1.568   4.634
 5484SOL    HW117018   4.294   1.642   4.643
 5484SOL    HW217019   4.272   1.489   4.592
 5485SOL     OW17020   4.726   0.796   4.962
 5485SOL    HW117021   4.767   0.764   5.048
 5485SOL    HW217022   4.630   0.769   4.959
 5486SOL     OW17023   3.764   0.544   4.838
 5486SOL    HW117024   3.849   0.511   4.797
 5486SOL    HW217025   3.777   0.559   4.936
 5487SOL     OW17026   3.913   0.520   5.446
 5487SOL    HW117027   3.972   0.480   5.376
 5487SOL    HW217028   3.855   0.591   5.405
 5488SOL     OW17029   5.093   0.950   5.384
 5488SOL    HW117030   5.132   1.039   5.404
 5488SOL    HW217031   5.103   0.930   5.287
 5489SOL     OW17032   4.539   0.572   4.049
 5489SOL    HW117033   4.546   0.483   4.003
 5489SOL    HW217034   4.445   0.606   4.041
 5490SOL     OW17035   3.976   1.564   5.468
 5490SOL    HW117036   3.946   1.621   5.544
 5490SOL    HW217037   3.969   1.467   5.494
 5491SOL     OW17038   4.395   0.464   4.993
 5491SOL    HW117039   4.361   0.375   4.963
 5491SOL    HW217040   4.421   0.518   4.913
 5492SOL     OW17041   4.654   1.678   5.189
 5492SOL    HW117042   4.630   1.660   5.094
 5492SOL    HW217043   4.684   1.772   5.199
 5493SOL     OW17044   4.197   0.500   3.915
 5493SOL    HW117045   4.258   0.580   3.919
 5493SOL    HW217046   4.102   0.531   3.922
 5494SOL     OW17047   3.883   1.137   5.190
 5494SOL    HW117048   3.905   1.076   5.266
 5494SOL    HW217049   3.893   1.088   5.104
 5495SOL     OW17050   5.071   1.059   4.958
 5495SOL    HW117051   5.095   0.996   4.884
 5495SOL    HW217052   4.981   1.099   4.940
 5496SOL     OW17053   5.026   0.855   4.033
 5496SOL    HW117054   4.940   0.824   4.075
 5496SOL    HW217055   5.022   0.841   3.934
 5497SOL     OW17056   4.976   1.731   4.852
 5497SOL    HW117057   5.060   1.736   4.798
 5497SOL    HW217058   4.953   1.635   4.870
 5498SOL     OW17059   3.807   1.258   4.746
 5498SOL    HW117060   3.802   1.257   4.846
 5498SOL    HW217061   3.724   1.217   4.708
 5499SOL     OW17062   4.412   1.662   5.440
 5499SOL    HW117063   4.356   1.743   5.449
 5499SOL    HW217064   4.464   1.666   5.354
 5500SOL     OW17065   5.112   1.573   4.201
 5500SOL    HW117066   5.179   1.585   4.127
 5500SOL    HW217067   5.072   1.662   4.224
 5501SOL     OW17068   3.854   1.794   5.575
 5501SOL    HW117069   3.813   1.720   5.628
 5501SOL    HW217070   3.918   1.845   5.633
 5502SOL     OW17071   5.004   0.927   4.396
 5502SOL    HW117072   5.064   0.846   4.398
 5502SOL    HW217073   5.044   0.996   4.336
 5503SOL     OW17074   4.554   1.273   5.146
 5503SOL    HW117075   4.549   1.306   5.241
 5503SOL    HW217076   4.468   1.292   5.100
 5504SOL     OW17077   4.396   1.616   3.878
 5504SOL    HW117078   4.405   1.626   3.779
 5504SOL    HW217079   4.356   1.527   3.899
 5505SOL     OW17080   3.987   0.326   4.444
 5505SOL    HW117081   3.908   0.377   4.410
 5505SOL    HW217082   3.978   0.311   4.542
 5506SOL     OW17083   4.918   1.612   3.755
 5506SOL    HW117084   4.924   1.519   3.792
 5506SOL    HW217085   4.859   1.612   3.675
 5507SOL     OW17086   4.546   1.002   5.096
 5507SOL    HW117087   4.586   1.001   5.004
 5507SOL    HW217088   4.556   1.094   5.136
 5508SOL     OW17089   4.640   0.910   4.015
 5508SOL    HW117090   4.703   0.948   3.947
 5508SOL    HW217091   4.680   0.827   4.054
 5509SOL     OW17092   4.096   1.288   5.214
 5509SOL    HW117093   4.083   1.381   5.180
 5509SOL    HW217094   4.012   1.236   5.201
 5510SOL     OW17095   4.763   1.098   4.420
 5510SOL    HW117096   4.693   1.051   4.474
 5510SOL    HW217097   4.822   1.030   4.377
 5511SOL     OW17098   4.738   0.236   4.695
 5511SOL    HW117099   4.730   0.200   4.602
 5511SOL    HW217100   4.736   0.160   4.760
 5512SOL     OW17101   4.314   1.487   4.215
 5512SOL    HW117102   4.356   1.429   4.145
 5512SOL    HW217103   4.270   1.566   4.171
 5513SOL     OW17104   3.979   1.348   4.014
 5513SOL    HW117105   3.883   1.349   3.987
 5513SOL    HW217106   3.991   1.401   4.098
 5514SOL     OW17107   3.829   1.013   5.450
 5514SOL    HW117108   3.752   0.980   5.504
 5514SOL    HW217109   3.914   0.983   5.492
 5515SOL     OW17110   4.396   0.203   5.213
 5515SOL    HW117111   4.486   0.187   5.173
 5515SOL    HW217112   4.404   0.208   5.312
 5516SOL     OW17113   3.799   0.345   3.757
 5516SOL    HW117114   3.707   0.317   3.728
 5516SOL    HW217115   3.830   0.422   3.701
 5517SOL     OW17116   5.164   0.856   5.122
 5517SOL    HW117117   5.107   0.908   5.059
 5517SOL    HW217118   5.260   0.868   5.098
 5518SOL     OW17119   3.796   0.166   4.042
 5518SOL    HW117120   3.779   0.249   3.988
 5518SOL    HW217121   3.886   0.129   4.020
 5519SOL     OW17122   4.907   1.335   3.843
 5519SOL    HW117123   4.808   1.324   3.845
 5519SOL    HW217124   4.941   1.350   3.936
 5520SOL     OW17125   4.337   0.842   5.155
 5520SOL    HW117126   4.393   0.923   5.138
 5520SOL    HW217127   4.396   0.762   5.158
 5521SOL     OW17128   4.440   0.565   5.432
 5521SOL    HW117129   4.459   0.630   5.506
 5521SOL    HW217130   4.500   0.485   5.441
 5522SOL     OW17131   5.174   1.220   5.357
 5522SOL    HW117132   5.165   1.210   5.456
 5522SOL    HW217133   5.270   1.213   5.331
 5523SOL     OW17134   4.114   1.741   5.284
 5523SOL    HW117135   4.023   1.782   5.282
 5523SOL    HW217136   4.107   1.647   5.316
 5524SOL     OW17137   4.949   0.325   4.173
 5524SOL    HW117138   5.014   0.251   4.162
 5524SOL    HW217139   4.969   0.375   4.257
 5525SOL     OW17140   4.318   0.745   4.376
 5525SOL    HW117141   4.368   0.830   4.357
 5525SOL    HW217142   4.230   0.747   4.328
 5526SOL     OW17143   4.583   1.374   3.740
 5526SOL    HW117144   4.537   1.389   3.828
 5526SOL    HW217145   4.627   1.459   3.710
 5527SOL     OW17146   4.385   1.790   4.677
 5527SOL    HW117147   4.339   1.878   4.664
 5527SOL    HW217148   4.484   1.802   4.670
 5528SOL     OW17149   4.583   0.956   4.585
 5528SOL    HW117150   4.637   0.887   4.633
 5528SOL    HW217151   4.551   1.025   4.651
 5529SOL     OW17152   4.807   0.984   3.811
 5529SOL    HW117153   4.784   1.037   3.729
 5529SOL    HW217154   4.888   0.928   3.792
 5530SOL     OW17155   3.945   1.314   5.568
 5530SOL    HW117156   3.880   1.241   5.547
 5530SOL    HW217157   3.949   1.328   5.666
 5531SOL     OW17158   3.803   1.240   4.377
 5531SOL    HW117159   3.802   1.193   4.465
 5531SOL    HW217160   3.885   1.212   4.326
 5532SOL     OW17161   4.396   1.391   5.348
 5532SOL    HW117162   4.318   1.341   5.386
 5532SOL    HW217163   4.393   1.486   5.379
 5533SOL     OW17164   4.152   0.424   4.244
 5533SOL    HW117165   4.182   0.352   4.182
 5533SOL    HW217166   4.113   0.384   4.327
 5534SOL     OW17167   5.429   1.487   4.828
 5534SOL    HW117168   5.336   1.462   4.801
 5534SOL    HW217169   5.455   1.437   4.910
 5535SOL     OW17170   4.041   0.547   5.004
 5535SOL    HW117171   4.079   0.488   5.076
 5535SOL    HW217172   4.081   0.521   4.916
 5536SOL     OW17173   4.536   1.586   4.411
 5536SOL    HW117174   4.568   1.596   4.317
 5536SOL    HW217175   4.457   1.524   4.413
 5537SOL     OW17176   5.148   0.214   4.836
 5537SOL    HW117177   5.200   0.149   4.891
 5537SOL    HW217178   5.099   0.277   4.897
 5538SOL     OW17179   4.725   0.034   4.878
 5538SOL    HW117180   4.662  -0.038   4.847
 5538SOL    HW217181   4.818  -0.002   4.878
 5539SOL     OW17182   4.494   1.330   4.025
 5539SOL    HW117183   4.448   1.243   4.042
 5539SOL    HW217184   4.585   1.327   4.066
 5540SOL     OW17185   4.342   1.567   5.008
 5540SOL    HW117186   4.337   1.649   5.065
 5540SOL    HW217187   4.431   1.564   4.963
 5541SOL     OW17188   5.076   0.052   3.892
 5541SOL    HW117189   5.111   0.011   3.808
 5541SOL    HW217190   4.986   0.014   3.912
 5542SOL     OW17191   5.024   0.453   4.415
 5542SOL    HW117192   4.965   0.533   4.419
 5542SOL    HW217193   5.039   0.418   4.508
 5543SOL     OW17194   5.317   0.221   4.606
 5543SOL    HW117195   5.233   0.220   4.660
 5543SOL    HW217196   5.319   0.304   4.550
 5544SOL     OW17197   3.763   1.077   4.024
 5544SOL    HW117198   3.862   1.066   4.015
 5544SOL    HW217199   3.723   0.991   4.056
 5545SOL     OW17200   4.599   1.646   4.061
 5545SOL    HW117201   4.522   1.611   4.007
 5545SOL    HW217202   4.567   1.717   4.123
 5546SOL     OW17203   3.954   0.628   5.699
 5546SOL    HW117204   3.861   0.626   5.736
 5546SOL    HW217205   3.955   0.589   5.607
 5547SOL     OW17206   3.949   0.275   6.582
 5547SOL    HW117207   3.984   0.258   6.674
 5547SOL    HW217208   3.861   0.230   6.570
 5548SOL     OW17209   3.743   0.368   6.233
 5548SOL    HW117210   3.661   0.411   6.272
 5548SOL    HW217211   3.715   0.295   6.170
 5549SOL     OW17212   4.293   1.275   6.751
 5549SOL    HW117213   4.200   1.268   6.714
 5549SOL    HW217214   4.304   1.364   6.795
 5550SOL     OW17215   5.279   1.511   6.289
 5550SOL    HW117216   5.222   1.495   6.370
 5550SOL    HW217217   5.220   1.521   6.209
 5551SOL     OW17218   4.859   0.703   6.303
 5551SOL    HW117219   4.916   0.781   6.278
 5551SOL    HW217220   4.799   0.729   6.379
 5552SOL     OW17221   4.492   1.144   6.609
 5552SOL    HW117222   4.414   1.161   6.669
 5552SOL    HW217223   4.526   1.231   6.573
 5553SOL     OW17224   4.574   0.798   7.409
 5553SOL    HW117225   4.570   0.874   7.474
 5553SOL    HW217226   4.596   0.834   7.318
 5554SOL     OW17227   4.409   1.012   6.251
 5554SOL    HW117228   4.478   0.996   6.321
 5554SOL    HW217229   4.336   1.069   6.289
 5555SOL     OW17230   4.410   1.161   7.389
 5555SOL    HW117231   4.470   1.240   7.403
 5555SOL    HW217232   4.324   1.192   7.348
 5556SOL     OW17233   4.059   1.435   6.647
 5556SOL    HW117234   3.981   1.404   6.594
 5556SOL    HW217235   4.117   1.493   6.590
 5557SOL     OW17236   5.184   1.505   6.925
 5557SOL    HW117237   5.208   1.599   6.951
 5557SOL    HW217238   5.168   1.451   7.007
 5558SOL     OW17239   4.162   0.392   7.085
 5558SOL    HW117240   4.244   0.336   7.094
 5558SOL    HW217241   4.081   0.334   7.089
 5559SOL     OW17242   3.955   1.713   6.069
 5559SOL    HW117243   3.989   1.790   6.123
 5559SOL    HW217244   3.999   1.713   5.979
 5560SOL     OW17245   4.851   1.341   7.276
 5560SOL    HW117246   4.898   1.341   7.364
 5560SOL    HW217247   4.803   1.254   7.265
 5561SOL     OW17248   3.954   1.434   6.124
 5561SOL    HW117249   3.928   1.530   6.124
 5561SOL    HW217250   3.883   1.380   6.169
 5562SOL     OW17251   3.964   1.091   6.472
 5562SOL    HW117252   3.978   1.007   6.524
 5562SOL    HW217253   3.909   1.155   6.527
 5563SOL     OW17254   4.344   1.786   7.025
 5563SOL    HW117255   4.252   1.769   7.060
 5563SOL    HW217256   4.372   1.878   7.051
 5564SOL     OW17257   4.330   0.964   5.709
 5564SOL    HW117258   4.337   1.048   5.655
 5564SOL    HW217259   4.376   0.977   5.797
 5565SOL     OW17260   5.318   0.114   7.066
 5565SOL    HW117261   5.300   0.181   6.994
 5565SOL    HW217262   5.315   0.160   7.155
 5566SOL     OW17263   3.846   0.643   6.149
 5566SOL    HW117264   3.801   0.555   6.166
 5566SOL    HW217265   3.845   0.697   6.233
 5567SOL     OW17266   3.751   1.596   5.703
 5567SOL    HW117267   3.732   1.500   5.724
 5567SOL    HW217268   3.718   1.654   5.778
 5568SOL     OW17269   5.413   0.922   6.198
 5568SOL    HW117270   5.508   0.893   6.206
 5568SOL    HW217271   5.405   0.987   6.123
 5569SOL     OW17272   3.837   0.737   7.183
 5569SOL    HW117273   3.925   0.724   7.228
 5569SOL    HW217274   3.824   0.834   7.161
 5570SOL     OW17275   4.337   1.365   6.312
 5570SOL    HW117276   4.288   1.278   6.321
 5570SOL    HW217277   4.314   1.408   6.225
 5571SOL     OW17278   5.017   1.228   7.009
 5571SOL    HW117279   5.054   1.155   6.951
 5571SOL    HW217280   5.069   1.233   7.094
 5572SOL     OW17281   4.533   0.004   6.088
 5572SOL    HW117282   4.573   0.095   6.079
 5572SOL    HW217283   4.433   0.012   6.094
 5573SOL     OW17284   3.921   0.976   6.850
 5573SOL    HW117285   4.010   0.931   6.836
 5573SOL    HW217286   3.848   0.911   6.831
 5574SOL     OW17287   4.911   1.792   7.202
 5574SOL    HW117288   4.935   1.852   7.126
 5574SOL    HW217289   4.918   1.697   7.172
 5575SOL     OW17290   4.041   0.251   7.387
 5575SOL    HW117291   4.112   0.322   7.393
 5575SOL    HW217292   3.953   0.290   7.415
 5576SOL     OW17293   5.190   1.417   6.539
 5576SOL    HW117294   5.131   1.423   6.619
 5576SOL    HW217295   5.175   1.329   6.493
 5577SOL     OW17296   4.322   0.729   5.856
 5577SOL    HW117297   4.346   0.798   5.788
 5577SOL    HW217298   4.244   0.762   5.910
 5578SOL     OW17299   5.005   0.345   6.530
 5578SOL    HW117300   4.919   0.295   6.517
 5578SOL    HW217301   5.067   0.291   6.586
 5579SOL     OW17302   4.531   0.605   7.051
 5579SOL    HW117303   4.484   0.602   7.140
 5579SOL    HW217304   4.480   0.550   6.985
 5580SOL     OW17305   5.118   0.469   7.260
 5580SOL    HW117306   5.098   0.512   7.348
 5580SOL    HW217307   5.196   0.407   7.269
 5581SOL     OW17308   4.697   0.890   7.158
 5581SOL    HW117309   4.743   0.806   7.129
 5581SOL    HW217310   4.641   0.924   7.083
 5582SOL     OW17311   4.715   0.410   6.828
 5582SOL    HW117312   4.638   0.444   6.882
 5582SOL    HW217313   4.681   0.359   6.749
 5583SOL     OW17314   4.765   0.701   6.015
 5583SOL    HW117315   4.791   0.697   6.111
 5583SOL    HW217316   4.680   0.650   6.001
 5584SOL     OW17317   3.800   0.811   6.375
 5584SOL    HW117318   3.899   0.799   6.384
 5584SOL    HW217319   3.776   0.906   6.396
 5585SOL     OW17320   3.854   1.821   7.157
 5585SOL    HW117321   3.844   1.806   7.256
 5585SOL    HW217322   3.768   1.857   7.121
 5586SOL     OW17323   4.589   0.348   5.781
 5586SOL    HW117324   4.648   0.411   5.732
 5586SOL    HW217325   4.608   0.254   5.752
 5587SOL     OW17326   5.086   1.144   6.131
 5587SOL    HW117327   5.169   1.115   6.083
 5587SOL    HW217328   5.037   1.211   6.075
 5588SOL     OW17329   4.274   0.196   6.471
 5588SOL    HW117330   4.269   0.191   6.571
 5588SOL    HW217331   4.276   0.292   6.442
 5589SOL     OW17332   4.732   1.456   6.063
 5589SOL    HW117333   4.686   1.528   6.011
 5589SOL    HW217334   4.728   1.476   6.161
 5590SOL     OW17335   4.075   1.801   6.439
 5590SOL    HW117336   4.125   1.715   6.445
 5590SOL    HW217337   4.140   1.878   6.436
 5591SOL     OW17338   4.951   1.550   7.092
 5591SOL    HW117339   4.957   1.473   7.156
 5591SOL    HW217340   4.899   1.524   7.012
 5592SOL     OW17341   4.045   0.943   5.828
 5592SOL    HW117342   4.127   0.982   5.786
 5592SOL    HW217343   4.018   0.861   5.779
 5593SOL     OW17344   4.185   1.266   7.313
 5593SOL    HW117345   4.135   1.267   7.227
 5593SOL    HW217346   4.122   1.248   7.389
 5594SOL     OW17347   4.835   1.776   5.823
 5594SOL    HW117348   4.775   1.714   5.873
 5594SOL    HW217349   4.866   1.732   5.738
 5595SOL     OW17350   3.926   0.285   7.084
 5595SOL    HW117351   3.846   0.345   7.071
 5595SOL    HW217352   3.916   0.236   7.170
 5596SOL     OW17353   4.188   1.743   5.909
 5596SOL    HW117354   4.221   1.782   5.995
 5596SOL    HW217355   4.264   1.736   5.844
 5597SOL     OW17356   5.124   0.107   6.012
 5597SOL    HW117357   5.100   0.070   5.922
 5597SOL    HW217358   5.223   0.123   6.016
 5598SOL     OW17359   3.973   1.785   6.827
 5598SOL    HW117360   4.030   1.720   6.877
 5598SOL    HW217361   3.957   1.752   6.734
 5599SOL     OW17362   4.664   1.698   6.490
 5599SOL    HW117363   4.744   1.641   6.511
 5599SOL    HW217364   4.615   1.658   6.413
 5600SOL     OW17365   4.106   0.700   6.066
 5600SOL    HW117366   4.151   0.610   6.063
 5600SOL    HW217367   4.012   0.689   6.099
 5601SOL     OW17368   4.338   0.122   5.703
 5601SOL    HW117369   4.436   0.100   5.710
 5601SOL    HW217370   4.307   0.105   5.610
 5602SOL     OW17371   4.505   0.264   7.335
 5602SOL    HW117372   4.572   0.203   7.378
 5602SOL    HW217373   4.432   0.283   7.400
 5603SOL     OW17374   4.612   1.514   6.781
 5603SOL    HW117375   4.589   1.489   6.687
 5603SOL    HW217376   4.673   1.445   6.820
 5604SOL     OW17377   5.075   0.590   7.019
 5604SOL    HW117378   5.103   0.547   7.104
 5604SOL    HW217379   5.100   0.686   7.020
 5605SOL     OW17380   4.527   1.402   6.510
 5605SOL    HW117381   4.617   1.416   6.468
 5605SOL    HW217382   4.456   1.404   6.439
 5606SOL     OW17383   4.646   0.503   6.485
 5606SOL    HW117384   4.621   0.494   6.389
 5606SOL    HW217385   4.694   0.421   6.516
 5607SOL     OW17386   4.263   0.064   6.098
 5607SOL    HW117387   4.182   0.065   6.156
 5607SOL    HW217388   4.266   0.147   6.043
 5608SOL     OW17389   5.158   1.188   5.627
 5608SOL    HW117390   5.190   1.112   5.684
 5608SOL    HW217391   5.066   1.215   5.657
 5609SOL     OW17392   4.021   0.035   5.757
 5609SOL    HW117393   4.070   0.119   5.736
 5609SOL    HW217394   4.083  -0.030   5.802
 5610SOL     OW17395   4.659   0.236   6.066
 5610SOL    HW117396   4.611   0.277   5.988
 5610SOL    HW217397   4.758   0.234   6.047
 5611SOL     OW17398   4.800   0.683   7.050
 5611SOL    HW117399   4.720   0.622   7.053
 5611SOL    HW217400   4.881   0.630   7.026
 5612SOL     OW17401   4.951   1.570   6.379
 5612SOL    HW117402   4.972   1.644   6.314
 5612SOL    HW217403   5.019   1.570   6.452
 5613SOL     OW17404   4.183   1.152   6.327
 5613SOL    HW117405   4.112   1.125   6.392
 5613SOL    HW217406   4.157   1.124   6.234
 5614SOL     OW17407   4.995   1.797   6.177
 5614SOL    HW117408   5.039   1.861   6.113
 5614SOL    HW217409   4.945   1.849   6.247
 5615SOL     OW17410   4.756   0.549   5.602
 5615SOL    HW117411   4.715   0.631   5.563
 5615SOL    HW217412   4.820   0.575   5.675
 5616SOL     OW17413   3.802   0.556   6.972
 5616SOL    HW117414   3.894   0.555   6.931
 5616SOL    HW217415   3.796   0.630   7.039
 5617SOL     OW17416   4.285   0.222   6.733
 5617SOL    HW117417   4.323   0.138   6.770
 5617SOL    HW217418   4.197   0.241   6.777
 5618SOL     OW17419   4.590   0.454   6.228
 5618SOL    HW117420   4.558   0.526   6.166
 5618SOL    HW217421   4.614   0.373   6.175
 5619SOL     OW17422   4.741   0.039   6.339
 5619SOL    HW117423   4.669   0.044   6.270
 5619SOL    HW217424   4.717  -0.030   6.408
 5620SOL     OW17425   5.153   1.173   6.453
 5620SOL    HW117426   5.098   1.089   6.446
 5620SOL    HW217427   5.179   1.202   6.361
 5621SOL     OW17428   4.212   1.385   5.760
 5621SOL    HW117429   4.125   1.370   5.807
 5621SOL    HW217430   4.195   1.411   5.665
 5622SOL     OW17431   5.114   0.575   5.664
 5622SOL    HW117432   5.060   0.554   5.745
 5622SOL    HW217433   5.205   0.534   5.673
 5623SOL     OW17434   4.251   0.256   5.914
 5623SOL    HW117435   4.278   0.197   5.839
 5623SOL    HW217436   4.251   0.351   5.883
 5624SOL     OW17437   4.788   1.347   6.926
 5624SOL    HW117438   4.708   1.324   6.981
 5624SOL    HW217439   4.871   1.321   6.975
 5625SOL     OW17440   5.316   1.629   7.211
 5625SOL    HW117441   5.343   1.663   7.121
 5625SOL    HW217442   5.395   1.591   7.257
 5626SOL     OW17443   4.835   1.195   6.686
 5626SOL    HW117444   4.795   1.239   6.767
 5626SOL    HW217445   4.794   1.232   6.603
 5627SOL     OW17446   4.639   0.089   6.988
 5627SOL    HW117447   4.664   0.069   6.893
 5627SOL    HW217448   4.711   0.145   7.030
 5628SOL     OW17449   4.704   1.116   7.305
 5628SOL    HW117450   4.605   1.122   7.315
 5628SOL    HW217451   4.727   1.036   7.249
 5629SOL     OW17452   4.429   1.050   5.954
 5629SOL    HW117453   4.415   1.057   6.053
 5629SOL    HW217454   4.513   0.999   5.936
 5630SOL     OW17455   4.134   0.813   6.837
 5630SOL    HW117456   4.220   0.825   6.887
 5630SOL    HW217457   4.092   0.726   6.864
 5631SOL     OW17458   4.998   0.386   6.848
 5631SOL    HW117459   5.019   0.460   6.912
 5631SOL    HW217460   4.909   0.403   6.805
 5632SOL     OW17461   3.788   1.564   6.917
 5632SOL    HW117462   3.742   1.646   6.883
 5632SOL    HW217463   3.886   1.583   6.926
 5633SOL     OW17464   4.091   1.100   6.087
 5633SOL    HW117465   4.084   1.183   6.031
 5633SOL    HW217466   4.095   1.020   6.027
 5634SOL     OW17467   4.290   0.537   6.451
 5634SOL    HW117468   4.302   0.603   6.377
 5634SOL    HW217469   4.336   0.571   6.534
 5635SOL     OW17470   4.976   1.348   5.974
 5635SOL    HW117471   5.026   1.425   6.014
 5635SOL    HW217472   4.881   1.350   6.006
 5636SOL     OW17473   4.996   1.445   6.728
 5636SOL    HW117474   5.043   1.458   6.815
 5636SOL    HW217475   4.930   1.371   6.737
 5637SOL     OW17476   4.078   1.510   6.915
 5637SOL    HW117477   4.057   1.466   6.828
 5637SOL    HW217478   4.175   1.536   6.918
 5638SOL     OW17479   4.126   0.751   7.184
 5638SOL    HW117480   4.194   0.806   7.137
 5638SOL    HW217481   4.166   0.663   7.211
 5639SOL     OW17482   4.737   0.105   7.356
 5639SOL    HW117483   4.743   0.190   7.304
 5639SOL    HW217484   4.769   0.029   7.299
 5640SOL     OW17485   4.228   0.050   7.326
 5640SOL    HW117486   4.186  -0.007   7.256
 5640SOL    HW217487   4.162   0.119   7.358
 5641SOL     OW17488   4.297   0.870   6.615
 5641SOL    HW117489   4.341   0.959   6.606
 5641SOL    HW217490   4.234   0.870   6.692
 5642SOL     OW17491   5.084   0.862   6.631
 5642SOL    HW117492   5.009   0.862   6.565
 5642SOL    HW217493   5.121   0.770   6.640
 5643SOL     OW17494   4.933   0.525   5.861
 5643SOL    HW117495   4.946   0.441   5.915
 5643SOL    HW217496   4.904   0.599   5.921
 5644SOL     OW17497   4.031   0.213   6.817
 5644SOL    HW117498   4.008   0.250   6.907
 5644SOL    HW217499   4.001   0.118   6.811
 5645SOL     OW17500   3.761   1.310   6.868
 5645SOL    HW117501   3.814   1.261   6.936
 5645SOL    HW217502   3.783   1.408   6.873
 5646SOL     OW17503   4.456   0.634   6.650
 5646SOL    HW117504   4.515   0.608   6.574
 5646SOL    HW217505   4.428   0.730   6.639
 5647SOL     OW17506   4.031   0.063   6.204
 5647SOL    HW117507   4.020   0.157   6.237
 5647SOL    HW217508   4.026   0.000   6.281
 5648SOL     OW17509   5.346   0.367   5.960
 5648SOL    HW117510   5.348   0.291   6.024
 5648SOL    HW217511   5.298   0.444   6.000
 5649SOL     OW17512   4.747   0.766   6.552
 5649SOL    HW117513   4.762   0.787   6.648
 5649SOL    HW217514   4.717   0.671   6.543
 5650SOL     OW17515   4.704   1.573   7.286
 5650SOL    HW117516   4.684   1.617   7.198
 5650SOL    HW217517   4.743   1.482   7.270
 5651SOL     OW17518   4.074   0.898   7.390
 5651SOL    HW117519   4.150   0.942   7.438
 5651SOL    HW217520   4.109   0.851   7.308
 5652SOL     OW17521   5.027   0.838   5.628
 5652SOL    HW117522   5.061   0.745   5.643
 5652SOL    HW217523   5.045   0.865   5.533
 5653SOL     OW17524   4.792   1.333   6.435
 5653SOL    HW117525   4.799   1.249   6.380
 5653SOL    HW217526   4.854   1.402   6.399
 5654SOL     OW17527   4.043   0.810   6.535
 5654SOL    HW117528   4.136   0.846   6.540
 5654SOL    HW217529   4.037   0.725   6.587
 5655SOL     OW17530   4.063   0.509   6.592
 5655SOL    HW117531   4.011   0.426   6.575
 5655SOL    HW217532   4.140   0.514   6.528
 5656SOL     OW17533   4.862   0.380   7.264
 5656SOL    HW117534   4.817   0.443   7.328
 5656SOL    HW217535   4.955   0.411   7.247
 5657SOL     OW17536   4.884   0.207   7.063
 5657SOL    HW117537   4.884   0.271   7.140
 5657SOL    HW217538   4.912   0.255   6.980
 5658SOL     OW17539   3.732   1.326   5.786
 5658SOL    HW117540   3.639   1.347   5.755
 5658SOL    HW217541   3.742   1.227   5.799
 5659SOL     OW17542   3.812   1.801   6.513
 5659SOL    HW117543   3.770   1.715   6.486
 5659SOL    HW217544   3.906   1.804   6.479
 5660SOL     OW17545   4.228   1.568   6.496
 5660SOL    HW117546   4.294   1.642   6.505
 5660SOL    HW217547   4.272   1.489   6.454
 5661SOL     OW17548   4.726   0.796   6.824
 5661SOL    HW117549   4.767   0.764   6.910
 5661SOL    HW217550   4.630   0.769   6.821
 5662SOL     OW17551   3.764   0.544   6.700
 5662SOL    HW117552   3.849   0.511   6.659
 5662SOL    HW217553   3.777   0.559   6.798
 5663SOL     OW17554   3.913   0.520   7.308
 5663SOL    HW117555   3.972   0.480   7.238
 5663SOL    HW217556   3.855   0.591   7.267
 5664SOL     OW17557   5.093   0.950   7.246
 5664SOL    HW117558   5.132   1.039   7.266
 5664SOL    HW217559   5.103   0.930   7.149
 5665SOL     OW17560   4.539   0.572   5.911
 5665SOL    HW117561   4.546   0.483   5.865
 5665SOL    HW217562   4.445   0.606   5.903
 5666SOL     OW17563   3.976   1.564   7.330
 5666SOL    HW117564   3.946   1.621   7.406
 5666SOL    HW217565   3.969   1.467   7.356
 5667SOL     OW17566   4.395   0.464   6.855
 5667SOL    HW117567   4.361   0.375   6.825
 5667SOL    HW217568   4.421   0.518   6.775
 5668SOL     OW17569   4.654   1.678   7.051
 5668SOL    HW117570   4.630   1.660   6.956
 5668SOL    HW217571   4.684   1.772   7.061
 5669SOL     OW17572   4.197   0.500   5.777
 5669SOL    HW117573   4.258   0.580   5.781
 5669SOL    HW217574   4.102   0.531   5.784
 5670SOL     OW17575   3.883   1.137   7.052
 5670SOL    HW117576   3.905   1.076   7.128
 5670SOL    HW217577   3.893   1.088   6.966
 5671SOL     OW17578   5.071   1.059   6.820
 5671SOL    HW117579   5.095   0.996   6.746
 5671SOL    HW217580   4.981   1.099   6.802
 5672SOL     OW17581   5.026   0.855   5.895
 5672SOL    HW117582   4.940   0.824   5.937
 5672SOL    HW217583   5.022   0.841   5.796
 5673SOL     OW17584   4.976   1.731   6.714
 5673SOL    HW117585   5.060   1.736   6.660
 5673SOL    HW217586   4.953   1.635   6.732
 5674SOL     OW17587   3.807   1.258   6.608
 5674SOL    HW117588   3.802   1.257   6.708
 5674SOL    HW217589   3.724   1.217   6.570
 5675SOL     OW17590   4.412   1.662   7.302
 5675SOL    HW117591   4.356   1.743   7.311
 5675SOL    HW217592   4.464   1.666   7.216
 5676SOL     OW17593   5.112   1.573   6.063
 5676SOL    HW117594   5.179   1.585   5.989
 5676SOL    HW217595   5.072   1.662   6.086
 5677SOL     OW17596   3.854   1.794   7.437
 5677SOL    HW117597   3.813   1.720   7.490
 5677SOL    HW217598   3.918   1.845   7.495
 5678SOL     OW17599   5.004   0.927   6.258
 5678SOL    HW117600   5.064   0.846   6.260
 5678SOL    HW217601   5.044   0.996   6.198
 5679SOL     OW17602   4.554   1.273   7.008
 5679SOL    HW117603   4.549   1.306   7.103
 5679SOL    HW217604   4.468   1.292   6.962
 5680SOL     OW17605   4.396   1.616   5.740
 5680SOL    HW117606   4.405   1.626   5.641
 5680SOL    HW217607   4.356   1.527   5.761
 5681SOL     OW17608   3.987   0.326   6.306
 5681SOL    HW117609   3.908   0.377   6.272
 5681SOL    HW217610   3.978   0.311   6.404
 5682SOL     OW17611   4.918   1.612   5.617
 5682SOL    HW117612   4.924   1.519   5.654
 5682SOL    HW217613   4.859   1.612   5.537
 5683SOL     OW17614   4.546   1.002   6.958
 5683SOL    HW117615   4.586   1.001   6.866
 5683SOL    HW217616   4.556   1.094   6.998
 5684SOL     OW17617   4.640   0.910   5.877
 5684SOL    HW117618   4.703   0.948   5.809
 5684SOL    HW217619   4.680   0.827   5.916
 5685SOL     OW17620   4.096   1.288   7.076
 5685SOL    HW117621   4.083   1.381   7.042
 5685SOL    HW217622   4.012   1.236   7.063
 5686SOL     OW17623   4.763   1.098   6.282
 5686SOL    HW117624   4.693   1.051   6.336
 5686SOL    HW217625   4.822   1.030   6.239
 5687SOL     OW17626   4.738   0.236   6.557
 5687SOL    HW117627   4.730   0.200   6.464
 5687SOL    HW217628   4.736   0.160   6.622
 5688SOL     OW17629   4.314   1.487   6.077
 5688SOL    HW117630   4.356   1.429   6.007
 5688SOL    HW217631   4.270   1.566   6.033
 5689SOL     OW17632   3.979   1.348   5.876
 5689SOL    HW117633   3.883   1.349   5.849
 5689SOL    HW217634   3.991   1.401   5.960
 5690SOL     OW17635   3.829   1.013   7.312
 5690SOL    HW117636   3.752   0.980   7.366
 5690SOL    HW217637   3.914   0.983   7.354
 5691SOL     OW17638   4.396   0.203   7.075
 5691SOL    HW117639   4.486   0.187   7.035
 5691SOL    HW217640   4.404   0.208   7.174
 5692SOL     OW17641   3.799   0.345   5.619
 5692SOL    HW117642   3.707   0.317   5.590
 5692SOL    HW217643   3.830   0.422   5.563
 5693SOL     OW17644   5.164   0.856   6.984
 5693SOL    HW117645   5.107   0.908   6.921
 5693SOL    HW217646   5.260   0.868   6.960
 5694SOL     OW17647   3.796   0.166   5.904
 5694SOL    HW117648   3.779   0.249   5.850
 5694SOL    HW217649   3.886   0.129   5.882
 5695SOL     OW17650   4.907   1.335   5.705
 5695SOL    HW117651   4.808   1.324   5.707
 5695SOL    HW217652   4.941   1.350   5.798
 5696SOL     OW17653   4.337   0.842   7.017
 5696SOL    HW117654   4.393   0.923   7.000
 5696SOL    HW217655   4.396   0.762   7.020
 5697SOL     OW17656   4.440   0.565   7.294
 5697SOL    HW117657   4.459   0.630   7.368
 5697SOL    HW217658   4.500   0.485   7.303
 5698SOL     OW17659   5.174   1.220   7.219
 5698SOL    HW117660   5.165   1.210   7.318
 5698SOL    HW217661   5.270   1.213   7.193
 5699SOL     OW17662   4.114   1.741   7.146
 5699SOL    HW117663   4.023   1.782   7.144
 5699SOL    HW217664   4.107   1.647   7.178
 5700SOL     OW17665   4.949   0.325   6.035
 5700SOL    HW117666   5.014   0.251   6.024
 5700SOL    HW217667   4.969   0.375   6.119
 5701SOL     OW17668   4.318   0.745   6.238
 5701SOL    HW117669   4.368   0.830   6.219
 5701SOL    HW217670   4.230   0.747   6.190
 5702SOL     OW17671   4.583   1.374   5.602
 5702SOL    HW117672   4.537   1.389   5.690
 5702SOL    HW217673   4.627   1.459   5.572
 5703SOL     OW17674   4.385   1.790   6.539
 5703SOL    HW117675   4.339   1.878   6.526
 5703SOL    HW217676   4.484   1.802   6.532
 5704SOL     OW17677   4.583   0.956   6.447
 5704SOL    HW117678   4.637   0.887   6.495
 5704SOL    HW217679   4.551   1.025   6.513
 5705SOL     OW17680   4.807   0.984   5.673
 5705SOL    HW117681   4.784   1.037   5.591
 5705SOL    HW217682   4.888   0.928   5.654
 5706SOL     OW17683   3.945   1.314   7.430
 5706SOL    HW117684   3.880   1.241   7.409
 5706SOL    HW217685   3.949   1.328   7.528
 5707SOL     OW17686   3.803   1.240   6.239
 5707SOL    HW117687   3.802   1.193   6.327
 5707SOL    HW217688   3.885   1.212   6.188
 5708SOL     OW17689   4.396   1.391   7.210
 5708SOL    HW117690   4.318   1.341   7.248
 5708SOL    HW217691   4.393   1.486   7.241
 5709SOL     OW17692   4.152   0.424   6.106
 5709SOL    HW117693   4.182   0.352   6.044
 5709SOL    HW217694   4.113   0.384   6.189
 5710SOL     OW17695   5.429   1.487   6.690
 5710SOL    HW117696   5.336   1.462   6.663
 5710SOL    HW217697   5.455   1.437   6.772
 5711SOL     OW17698   4.041   0.547   6.866
 5711SOL    HW117699   4.079   0.488   6.938
 5711SOL    HW217700   4.081   0.521   6.778
 5712SOL     OW17701   4.536   1.586   6.273
 5712SOL    HW117702   4.568   1.596   6.179
 5712SOL    HW217703   4.457   1.524   6.275
 5713SOL     OW17704   5.148   0.214   6.698
 5713SOL    HW117705   5.200   0.149   6.753
 5713SOL    HW217706   5.099   0.277   6.759
 5714SOL     OW17707   4.725   0.034   6.740
 5714SOL    HW117708   4.662  -0.038   6.709
 5714SOL    HW217709   4.818  -0.002   6.740
 5715SOL     OW17710   4.494   1.330   5.887
 5715SOL    HW117711   4.448   1.243   5.904
 5715SOL    HW217712   4.585   1.327   5.928
 5716SOL     OW17713   4.342   1.567   6.870
 5716SOL    HW117714   4.337   1.649   6.927
 5716SOL    HW217715   4.431   1.564   6.825
 5717SOL     OW17716   5.076   0.052   5.754
 5717SOL    HW117717   5.111   0.011   5.670
 5717SOL    HW217718   4.986   0.014   5.774
 5718SOL     OW17719   5.024   0.453   6.277
 5718SOL    HW117720   4.965   0.533   6.281
 5718SOL    HW217721   5.039   0.418   6.370
 5719SOL     OW17722   5.317   0.221   6.468
 5719SOL    HW117723   5.233   0.220   6.522
 5719SOL    HW217724   5.319   0.304   6.412
 5720SOL     OW17725   3.763   1.077   5.886
 5720SOL    HW117726   3.862   1.066   5.877
 5720SOL    HW217727   3.723   0.991   5.918
 5721SOL     OW17728   4.599   1.646   5.923
 5721SOL    HW117729   4.522   1.611   5.869
 5721SOL    HW217730   4.567   1.717   5.985
 5722SOL     OW17731   3.954   0.628   7.561
 5722SOL    HW117732   3.861   0.626   7.598
 5722SOL    HW217733   3.955   0.589   7.469
 5723SOL     OW17734   3.955   1.713   7.931
 5723SOL    HW117735   3.989   1.790   7.985
 5723SOL    HW217736   3.999   1.713   7.841
 5724SOL     OW17737   3.954   1.434   7.986
 5724SOL    HW117738   3.928   1.530   7.986
 5724SOL    HW217739   3.883   1.380   8.031
 5725SOL     OW17740   4.330   0.964   7.571
 5725SOL    HW117741   4.337   1.048   7.517
 5725SOL    HW217742   4.376   0.977   7.659
 5726SOL     OW17743   3.751   1.596   7.565
 5726SOL    HW117744   3.732   1.500   7.586
 5726SOL    HW217745   3.718   1.654   7.640
 5727SOL     OW17746   5.413   0.922   8.060
 5727SOL    HW117747   5.508   0.893   8.068
 5727SOL    HW217748   5.405   0.987   7.985
 5728SOL     OW17749   4.533   0.004   7.950
 5728SOL    HW117750   4.573   0.095   7.941
 5728SOL    HW217751   4.433   0.012   7.956
 5729SOL     OW17752   4.322   0.729   7.718
 5729SOL    HW117753   4.346   0.798   7.650
 5729SOL    HW217754   4.244   0.762   7.772
 5730SOL     OW17755   3.800   0.811   8.237
 5730SOL    HW117756   3.899   0.799   8.246
 5730SOL    HW217757   3.776   0.906   8.258
 5731SOL     OW17758   4.589   0.348   7.643
 5731SOL    HW117759   4.648   0.411   7.594
 5731SOL    HW217760   4.608   0.254   7.614
 5732SOL     OW17761   4.045   0.943   7.690
 5732SOL    HW117762   4.127   0.982   7.648
 5732SOL    HW217763   4.018   0.861   7.641
 5733SOL     OW17764   4.835   1.776   7.685
 5733SOL    HW117765   4.775   1.714   7.735
 5733SOL    HW217766   4.866   1.732   7.600
 5734SOL     OW17767   4.188   1.743   7.771
 5734SOL    HW117768   4.221   1.782   7.857
 5734SOL    HW217769   4.264   1.736   7.706
 5735SOL     OW17770   5.124   0.107   7.874
 5735SOL    HW117771   5.100   0.070   7.784
 5735SOL    HW217772   5.223   0.123   7.878
 5736SOL     OW17773   4.106   0.700   7.928
 5736SOL    HW117774   4.151   0.610   7.925
 5736SOL    HW217775   4.012   0.689   7.961
 5737SOL     OW17776   4.338   0.122   7.565
 5737SOL    HW117777   4.436   0.100   7.572
 5737SOL    HW217778   4.307   0.105   7.472
 5738SOL     OW17779   4.263   0.064   7.960
 5738SOL    HW117780   4.182   0.065   8.018
 5738SOL    HW217781   4.266   0.147   7.905
 5739SOL     OW17782   5.158   1.188   7.489
 5739SOL    HW117783   5.190   1.112   7.546
 5739SOL    HW217784   5.066   1.215   7.519
 5740SOL     OW17785   4.021   0.035   7.619
 5740SOL    HW117786   4.070   0.119   7.598
 5740SOL    HW217787   4.083  -0.030   7.664
 5741SOL     OW17788   4.659   0.236   7.928
 5741SOL    HW117789   4.611   0.277   7.850
 5741SOL    HW217790   4.758   0.234   7.909
 5742SOL     OW17791   4.183   1.152   8.189
 5742SOL    HW117792   4.112   1.125   8.254
 5742SOL    HW217793   4.157   1.124   8.096
 5743SOL     OW17794   4.995   1.797   8.039
 5743SOL    HW117795   5.039   1.861   7.975
 5743SOL    HW217796   4.945   1.849   8.109
 5744SOL     OW17797   4.756   0.549   7.464
 5744SOL    HW117798   4.715   0.631   7.425
 5744SOL    HW217799   4.820   0.575   7.537
 5745SOL     OW17800   4.212   1.385   7.622
 5745SOL    HW117801   4.125   1.370   7.669
 5745SOL    HW217802   4.195   1.411   7.527
 5746SOL     OW17803   5.114   0.575   7.526
 5746SOL    HW117804   5.060   0.554   7.607
 5746SOL    HW217805   5.205   0.534   7.535
 5747SOL     OW17806   4.251   0.256   7.776
 5747SOL    HW117807   4.278   0.197   7.701
 5747SOL    HW217808   4.251   0.351   7.745
 5748SOL     OW17809   4.429   1.050   7.816
 5748SOL    HW117810   4.415   1.057   7.915
 5748SOL    HW217811   4.513   0.999   7.798
 5749SOL     OW17812   4.091   1.100   7.949
 5749SOL    HW117813   4.084   1.183   7.893
 5749SOL    HW217814   4.095   1.020   7.889
 5750SOL     OW17815   4.976   1.348   7.836
 5750SOL    HW117816   5.026   1.425   7.876
 5750SOL    HW217817   4.881   1.350   7.868
 5751SOL     OW17818   5.306   0.639   7.920
 5751SOL    HW117819   5.275   0.700   7.993
 5751SOL    HW217820   5.356   0.691   7.851
 5752SOL     OW17821   4.933   0.525   7.723
 5752SOL    HW117822   4.946   0.441   7.777
 5752SOL    HW217823   4.904   0.599   7.783
 5753SOL     OW17824   5.346   0.367   7.822
 5753SOL    HW117825   5.348   0.291   7.886
 5753SOL    HW217826   5.298   0.444   7.862
 5754SOL     OW17827   5.027   0.838   7.490
 5754SOL    HW117828   5.061   0.745   7.505
 5754SOL    HW217829   5.045   0.865   7.395
 5755SOL     OW17830   3.732   1.326   7.648
 5755SOL    HW117831   3.639   1.347   7.617
 5755SOL    HW217832   3.742   1.227   7.661
 5756SOL     OW17833   4.539   0.572   7.773
 5756SOL    HW117834   4.546   0.483   7.727
 5756SOL    HW217835   4.445   0.606   7.765
 5757SOL     OW17836   4.197   0.500   7.639
 5757SOL    HW117837   4.258   0.580   7.643
 5757SOL    HW217838   4.102   0.531   7.646
 5758SOL     OW17839   5.026   0.855   7.757
 5758SOL    HW117840   4.940   0.824   7.799
 5758SOL    HW217841   5.022   0.841   7.658
 5759SOL     OW17842   5.112   1.573   7.925
 5759SOL    HW117843   5.179   1.585   7.851
 5759SOL    HW217844   5.072   1.662   7.948
 5760SOL     OW17845   4.396   1.616   7.602
 5760SOL    HW117846   4.405   1.626   7.503
 5760SOL    HW217847   4.356   1.527   7.623
 5761SOL     OW17848   4.918   1.612   7.479
 5761SOL    HW117849   4.924   1.519   7.516
 5761SOL    HW217850   4.859   1.612   7.399
 5762SOL     OW17851   4.640   0.910   7.739
 5762SOL    HW117852   4.703   0.948   7.671
 5762SOL    HW217853   4.680   0.827   7.778
 5763SOL     OW17854   4.314   1.487   7.939
 5763SOL    HW117855   4.356   1.429   7.869
 5763SOL    HW217856   4.270   1.566   7.895
 5764SOL     OW17857   3.979   1.348   7.738
 5764SOL    HW117858   3.883   1.349   7.711
 5764SOL    HW217859   3.991   1.401   7.822
 5765SOL     OW17860   3.799   0.345   7.481
 5765SOL    HW117861   3.707   0.317   7.452
 5765SOL    HW217862   3.830   0.422   7.425
 5766SOL     OW17863   3.796   0.166   7.766
 5766SOL    HW117864   3.779   0.249   7.712
 5766SOL    HW217865   3.886   0.129   7.744
 5767SOL     OW17866   4.907   1.335   7.567
 5767SOL    HW117867   4.808   1.324   7.569
 5767SOL    HW217868   4.941   1.350   7.660
 5768SOL     OW17869   5.217   1.767   8.407
 5768SOL    HW117870   5.250   1.831   8.338
 5768SOL    HW217871   5.283   1.761   8.482
 5769SOL     OW17872   4.949   0.325   7.897
 5769SOL    HW117873   5.014   0.251   7.886
 5769SOL    HW217874   4.969   0.375   7.981
 5770SOL     OW17875   4.318   0.745   8.100
 5770SOL    HW117876   4.368   0.830   8.081
 5770SOL    HW217877   4.230   0.747   8.052
 5771SOL     OW17878   4.583   1.374   7.464
 5771SOL    HW117879   4.537   1.389   7.552
 5771SOL    HW217880   4.627   1.459   7.434
 5772SOL     OW17881   4.807   0.984   7.535
 5772SOL    HW117882   4.784   1.037   7.453
 5772SOL    HW217883   4.888   0.928   7.516
 5773SOL     OW17884   4.152   0.424   7.968
 5773SOL    HW117885   4.182   0.352   7.906
 5773SOL    HW217886   4.113   0.384   8.051
 5774SOL     OW17887   4.494   1.330   7.749
 5774SOL    HW117888   4.448   1.243   7.766
 5774SOL    HW217889   4.585   1.327   7.790
 5775SOL     OW17890   5.076   0.052   7.616
 5775SOL    HW117891   5.111   0.011   7.532
 5775SOL    HW217892   4.986   0.014   7.636
 5776SOL     OW17893   3.763   1.077   7.748
 5776SOL    HW117894   3.862   1.066   7.739
 5776SOL    HW217895   3.723   0.991   7.780
 5777SOL     OW17896   4.599   1.646   7.785
 5777SOL    HW117897   4.522   1.611   7.731
 5777SOL    HW217898   4.567   1.717   7.847
 5778SOL     OW17899   3.954   2.490   0.113
 5778SOL    HW117900   3.861   2.488   0.150
 5778SOL    HW217901   3.955   2.451   0.021
 5779SOL     OW17902   3.949   2.137   0.996
 5779SOL    HW117903   3.984   2.120   1.088
 5779SOL    HW217904   3.861   2.092   0.984
 5780SOL     OW17905   3.743   2.230   0.647
 5780SOL    HW117906   3.661   2.273   0.686
 5780SOL    HW217907   3.715   2.157   0.584
 5781SOL     OW17908   4.293   3.137   1.165
 5781SOL    HW117909   4.200   3.130   1.128
 5781SOL    HW217910   4.304   3.226   1.209
 5782SOL     OW17911   5.279   3.373   0.703
 5782SOL    HW117912   5.222   3.357   0.784
 5782SOL    HW217913   5.220   3.383   0.623
 5783SOL     OW17914   4.859   2.565   0.717
 5783SOL    HW117915   4.916   2.643   0.692
 5783SOL    HW217916   4.799   2.591   0.793
 5784SOL     OW17917   4.492   3.006   1.023
 5784SOL    HW117918   4.414   3.023   1.083
 5784SOL    HW217919   4.526   3.093   0.987
 5785SOL     OW17920   4.574   2.660   1.823
 5785SOL    HW117921   4.570   2.736   1.888
 5785SOL    HW217922   4.596   2.696   1.732
 5786SOL     OW17923   4.409   2.874   0.665
 5786SOL    HW117924   4.478   2.858   0.735
 5786SOL    HW217925   4.336   2.931   0.703
 5787SOL     OW17926   4.410   3.023   1.803
 5787SOL    HW117927   4.470   3.102   1.817
 5787SOL    HW217928   4.324   3.054   1.762
 5788SOL     OW17929   4.059   3.297   1.061
 5788SOL    HW117930   3.981   3.266   1.008
 5788SOL    HW217931   4.117   3.355   1.004
 5789SOL     OW17932   5.184   3.367   1.339
 5789SOL    HW117933   5.208   3.461   1.365
 5789SOL    HW217934   5.168   3.313   1.421
 5790SOL     OW17935   4.162   2.254   1.499
 5790SOL    HW117936   4.244   2.198   1.508
 5790SOL    HW217937   4.081   2.196   1.503
 5791SOL     OW17938   3.955   3.575   0.483
 5791SOL    HW117939   3.989   3.652   0.537
 5791SOL    HW217940   3.999   3.575   0.393
 5792SOL     OW17941   4.851   3.203   1.690
 5792SOL    HW117942   4.898   3.203   1.778
 5792SOL    HW217943   4.803   3.116   1.679
 5793SOL     OW17944   3.954   3.296   0.538
 5793SOL    HW117945   3.928   3.392   0.538
 5793SOL    HW217946   3.883   3.242   0.583
 5794SOL     OW17947   3.964   2.953   0.886
 5794SOL    HW117948   3.978   2.869   0.938
 5794SOL    HW217949   3.909   3.017   0.941
 5795SOL     OW17950   4.344   3.648   1.439
 5795SOL    HW117951   4.252   3.631   1.474
 5795SOL    HW217952   4.372   3.740   1.465
 5796SOL     OW17953   4.330   2.826   0.123
 5796SOL    HW117954   4.337   2.910   0.069
 5796SOL    HW217955   4.376   2.839   0.211
 5797SOL     OW17956   3.846   2.505   0.563
 5797SOL    HW117957   3.801   2.417   0.580
 5797SOL    HW217958   3.845   2.559   0.647
 5798SOL     OW17959   3.751   3.458   0.117
 5798SOL    HW117960   3.732   3.362   0.138
 5798SOL    HW217961   3.718   3.516   0.192
 5799SOL     OW17962   5.413   2.784   0.612
 5799SOL    HW117963   5.508   2.755   0.620
 5799SOL    HW217964   5.405   2.849   0.537
 5800SOL     OW17965   3.837   2.599   1.597
 5800SOL    HW117966   3.925   2.586   1.642
 5800SOL    HW217967   3.824   2.696   1.575
 5801SOL     OW17968   4.337   3.227   0.726
 5801SOL    HW117969   4.288   3.140   0.735
 5801SOL    HW217970   4.314   3.270   0.639
 5802SOL     OW17971   5.017   3.090   1.423
 5802SOL    HW117972   5.054   3.017   1.365
 5802SOL    HW217973   5.069   3.095   1.508
 5803SOL     OW17974   4.533   1.866   0.502
 5803SOL    HW117975   4.573   1.957   0.493
 5803SOL    HW217976   4.433   1.874   0.508
 5804SOL     OW17977   3.921   2.838   1.264
 5804SOL    HW117978   4.010   2.793   1.250
 5804SOL    HW217979   3.848   2.773   1.245
 5805SOL     OW17980   4.911   3.654   1.616
 5805SOL    HW117981   4.935   3.714   1.540
 5805SOL    HW217982   4.918   3.559   1.586
 5806SOL     OW17983   4.041   2.113   1.801
 5806SOL    HW117984   4.112   2.184   1.807
 5806SOL    HW217985   3.953   2.152   1.829
 5807SOL     OW17986   5.190   3.279   0.953
 5807SOL    HW117987   5.131   3.285   1.033
 5807SOL    HW217988   5.175   3.191   0.907
 5808SOL     OW17989   4.322   2.591   0.270
 5808SOL    HW117990   4.346   2.660   0.202
 5808SOL    HW217991   4.244   2.624   0.324
 5809SOL     OW17992   5.005   2.207   0.944
 5809SOL    HW117993   4.919   2.157   0.931
 5809SOL    HW217994   5.067   2.153   1.000
 5810SOL     OW17995   4.531   2.467   1.465
 5810SOL    HW117996   4.484   2.464   1.554
 5810SOL    HW217997   4.480   2.412   1.399
 5811SOL     OW17998   5.118   2.331   1.674
 5811SOL    HW117999   5.098   2.374   1.762
 5811SOL    HW218000   5.196   2.269   1.683
 5812SOL     OW18001   4.697   2.752   1.572
 5812SOL    HW118002   4.743   2.668   1.543
 5812SOL    HW218003   4.641   2.786   1.497
 5813SOL     OW18004   4.715   2.272   1.242
 5813SOL    HW118005   4.638   2.306   1.296
 5813SOL    HW218006   4.681   2.221   1.163
 5814SOL     OW18007   4.765   2.563   0.429
 5814SOL    HW118008   4.791   2.559   0.525
 5814SOL    HW218009   4.680   2.512   0.415
 5815SOL     OW18010   3.800   2.673   0.789
 5815SOL    HW118011   3.899   2.661   0.798
 5815SOL    HW218012   3.776   2.768   0.810
 5816SOL     OW18013   3.854   3.683   1.571
 5816SOL    HW118014   3.844   3.668   1.670
 5816SOL    HW218015   3.768   3.719   1.535
 5817SOL     OW18016   4.589   2.210   0.195
 5817SOL    HW118017   4.648   2.273   0.146
 5817SOL    HW218018   4.608   2.116   0.166
 5818SOL     OW18019   5.086   3.006   0.545
 5818SOL    HW118020   5.169   2.977   0.497
 5818SOL    HW218021   5.037   3.073   0.489
 5819SOL     OW18022   4.274   2.058   0.885
 5819SOL    HW118023   4.269   2.053   0.985
 5819SOL    HW218024   4.276   2.154   0.856
 5820SOL     OW18025   4.732   3.318   0.477
 5820SOL    HW118026   4.686   3.390   0.425
 5820SOL    HW218027   4.728   3.338   0.575
 5821SOL     OW18028   4.075   3.663   0.853
 5821SOL    HW118029   4.125   3.577   0.859
 5821SOL    HW218030   4.140   3.740   0.850
 5822SOL     OW18031   4.951   3.412   1.506
 5822SOL    HW118032   4.957   3.335   1.570
 5822SOL    HW218033   4.899   3.386   1.426
 5823SOL     OW18034   4.045   2.805   0.242
 5823SOL    HW118035   4.127   2.844   0.200
 5823SOL    HW218036   4.018   2.723   0.193
 5824SOL     OW18037   4.185   3.128   1.727
 5824SOL    HW118038   4.135   3.129   1.641
 5824SOL    HW218039   4.122   3.110   1.803
 5825SOL     OW18040   4.835   3.638   0.237
 5825SOL    HW118041   4.775   3.576   0.287
 5825SOL    HW218042   4.866   3.594   0.152
 5826SOL     OW18043   3.926   2.147   1.498
 5826SOL    HW118044   3.846   2.207   1.485
 5826SOL    HW218045   3.916   2.098   1.584
 5827SOL     OW18046   4.188   3.605   0.323
 5827SOL    HW118047   4.221   3.644   0.409
 5827SOL    HW218048   4.264   3.598   0.258
 5828SOL     OW18049   5.124   1.969   0.426
 5828SOL    HW118050   5.100   1.932   0.336
 5828SOL    HW218051   5.223   1.985   0.430
 5829SOL     OW18052   3.973   3.647   1.241
 5829SOL    HW118053   4.030   3.582   1.291
 5829SOL    HW218054   3.957   3.614   1.148
 5830SOL     OW18055   4.664   3.560   0.904
 5830SOL    HW118056   4.744   3.503   0.925
 5830SOL    HW218057   4.615   3.520   0.827
 5831SOL     OW18058   4.106   2.562   0.480
 5831SOL    HW118059   4.151   2.472   0.477
 5831SOL    HW218060   4.012   2.551   0.513
 5832SOL     OW18061   4.338   1.984   0.117
 5832SOL    HW118062   4.436   1.962   0.124
 5832SOL    HW218063   4.307   1.967   0.024
 5833SOL     OW18064   4.505   2.126   1.749
 5833SOL    HW118065   4.572   2.065   1.792
 5833SOL    HW218066   4.432   2.145   1.814
 5834SOL     OW18067   4.612   3.376   1.195
 5834SOL    HW118068   4.589   3.351   1.101
 5834SOL    HW218069   4.673   3.307   1.234
 5835SOL     OW18070   5.075   2.452   1.433
 5835SOL    HW118071   5.103   2.409   1.518
 5835SOL    HW218072   5.100   2.548   1.434
 5836SOL     OW18073   4.527   3.264   0.924
 5836SOL    HW118074   4.617   3.278   0.882
 5836SOL    HW218075   4.456   3.266   0.853
 5837SOL     OW18076   4.646   2.365   0.899
 5837SOL    HW118077   4.621   2.356   0.803
 5837SOL    HW218078   4.694   2.283   0.930
 5838SOL     OW18079   4.263   1.926   0.512
 5838SOL    HW118080   4.182   1.927   0.570
 5838SOL    HW218081   4.266   2.009   0.457
 5839SOL     OW18082   5.158   3.050   0.041
 5839SOL    HW118083   5.190   2.974   0.098
 5839SOL    HW218084   5.066   3.077   0.071
 5840SOL     OW18085   4.021   1.897   0.171
 5840SOL    HW118086   4.070   1.981   0.150
 5840SOL    HW218087   4.083   1.832   0.216
 5841SOL     OW18088   4.659   2.098   0.480
 5841SOL    HW118089   4.611   2.139   0.402
 5841SOL    HW218090   4.758   2.096   0.461
 5842SOL     OW18091   4.800   2.545   1.464
 5842SOL    HW118092   4.720   2.484   1.467
 5842SOL    HW218093   4.881   2.492   1.440
 5843SOL     OW18094   4.951   3.432   0.793
 5843SOL    HW118095   4.972   3.506   0.728
 5843SOL    HW218096   5.019   3.432   0.866
 5844SOL     OW18097   4.183   3.014   0.741
 5844SOL    HW118098   4.112   2.987   0.806
 5844SOL    HW218099   4.157   2.986   0.648
 5845SOL     OW18100   4.995   3.659   0.591
 5845SOL    HW118101   5.039   3.723   0.527
 5845SOL    HW218102   4.945   3.711   0.661
 5846SOL     OW18103   4.756   2.411   0.016
 5846SOL    HW118104   4.715   2.493  -0.023
 5846SOL    HW218105   4.820   2.437   0.089
 5847SOL     OW18106   3.802   2.418   1.386
 5847SOL    HW118107   3.894   2.417   1.345
 5847SOL    HW218108   3.796   2.492   1.453
 5848SOL     OW18109   4.285   2.084   1.147
 5848SOL    HW118110   4.323   2.000   1.184
 5848SOL    HW218111   4.197   2.103   1.191
 5849SOL     OW18112   4.590   2.316   0.642
 5849SOL    HW118113   4.558   2.388   0.580
 5849SOL    HW218114   4.614   2.235   0.589
 5850SOL     OW18115   4.741   1.901   0.753
 5850SOL    HW118116   4.669   1.906   0.684
 5850SOL    HW218117   4.717   1.832   0.822
 5851SOL     OW18118   5.153   3.035   0.867
 5851SOL    HW118119   5.098   2.951   0.860
 5851SOL    HW218120   5.179   3.064   0.775
 5852SOL     OW18121   4.212   3.247   0.174
 5852SOL    HW118122   4.125   3.232   0.221
 5852SOL    HW218123   4.195   3.273   0.079
 5853SOL     OW18124   5.114   2.437   0.078
 5853SOL    HW118125   5.060   2.416   0.159
 5853SOL    HW218126   5.205   2.396   0.087
 5854SOL     OW18127   4.251   2.118   0.328
 5854SOL    HW118128   4.278   2.059   0.253
 5854SOL    HW218129   4.251   2.213   0.297
 5855SOL     OW18130   4.788   3.209   1.340
 5855SOL    HW118131   4.708   3.186   1.395
 5855SOL    HW218132   4.871   3.183   1.389
 5856SOL     OW18133   5.316   3.491   1.625
 5856SOL    HW118134   5.343   3.525   1.535
 5856SOL    HW218135   5.395   3.453   1.671
 5857SOL     OW18136   4.835   3.057   1.100
 5857SOL    HW118137   4.795   3.101   1.181
 5857SOL    HW218138   4.794   3.094   1.017
 5858SOL     OW18139   4.639   1.951   1.402
 5858SOL    HW118140   4.664   1.931   1.307
 5858SOL    HW218141   4.711   2.007   1.444
 5859SOL     OW18142   4.704   2.978   1.719
 5859SOL    HW118143   4.605   2.984   1.729
 5859SOL    HW218144   4.727   2.898   1.663
 5860SOL     OW18145   4.429   2.912   0.368
 5860SOL    HW118146   4.415   2.919   0.467
 5860SOL    HW218147   4.513   2.861   0.350
 5861SOL     OW18148   4.134   2.675   1.251
 5861SOL    HW118149   4.220   2.687   1.301
 5861SOL    HW218150   4.092   2.588   1.278
 5862SOL     OW18151   4.998   2.248   1.262
 5862SOL    HW118152   5.019   2.322   1.326
 5862SOL    HW218153   4.909   2.265   1.219
 5863SOL     OW18154   3.788   3.426   1.331
 5863SOL    HW118155   3.742   3.508   1.297
 5863SOL    HW218156   3.886   3.445   1.340
 5864SOL     OW18157   4.091   2.962   0.501
 5864SOL    HW118158   4.084   3.045   0.445
 5864SOL    HW218159   4.095   2.882   0.441
 5865SOL     OW18160   4.290   2.399   0.865
 5865SOL    HW118161   4.302   2.465   0.791
 5865SOL    HW218162   4.336   2.433   0.948
 5866SOL     OW18163   4.976   3.210   0.388
 5866SOL    HW118164   5.026   3.287   0.428
 5866SOL    HW218165   4.881   3.212   0.420
 5867SOL     OW18166   4.996   3.307   1.142
 5867SOL    HW118167   5.043   3.320   1.229
 5867SOL    HW218168   4.930   3.233   1.151
 5868SOL     OW18169   4.078   3.372   1.329
 5868SOL    HW118170   4.057   3.328   1.242
 5868SOL    HW218171   4.175   3.398   1.332
 5869SOL     OW18172   4.126   2.613   1.598
 5869SOL    HW118173   4.194   2.668   1.551
 5869SOL    HW218174   4.166   2.525   1.625
 5870SOL     OW18175   4.737   1.967   1.770
 5870SOL    HW118176   4.743   2.052   1.718
 5870SOL    HW218177   4.769   1.891   1.713
 5871SOL     OW18178   4.228   1.912   1.740
 5871SOL    HW118179   4.186   1.855   1.670
 5871SOL    HW218180   4.162   1.981   1.772
 5872SOL     OW18181   4.297   2.732   1.029
 5872SOL    HW118182   4.341   2.821   1.020
 5872SOL    HW218183   4.234   2.732   1.106
 5873SOL     OW18184   5.084   2.724   1.045
 5873SOL    HW118185   5.009   2.724   0.979
 5873SOL    HW218186   5.121   2.632   1.054
 5874SOL     OW18187   4.933   2.387   0.275
 5874SOL    HW118188   4.946   2.303   0.329
 5874SOL    HW218189   4.904   2.461   0.335
 5875SOL     OW18190   4.031   2.075   1.231
 5875SOL    HW118191   4.008   2.112   1.321
 5875SOL    HW218192   4.001   1.980   1.225
 5876SOL     OW18193   3.761   3.172   1.282
 5876SOL    HW118194   3.814   3.123   1.350
 5876SOL    HW218195   3.783   3.270   1.287
 5877SOL     OW18196   4.456   2.496   1.064
 5877SOL    HW118197   4.515   2.470   0.988
 5877SOL    HW218198   4.428   2.592   1.053
 5878SOL     OW18199   4.031   1.925   0.618
 5878SOL    HW118200   4.020   2.019   0.651
 5878SOL    HW218201   4.026   1.862   0.695
 5879SOL     OW18202   5.346   2.229   0.374
 5879SOL    HW118203   5.348   2.153   0.438
 5879SOL    HW218204   5.298   2.306   0.414
 5880SOL     OW18205   4.747   2.628   0.966
 5880SOL    HW118206   4.762   2.649   1.062
 5880SOL    HW218207   4.717   2.533   0.957
 5881SOL     OW18208   4.704   3.435   1.700
 5881SOL    HW118209   4.684   3.479   1.612
 5881SOL    HW218210   4.743   3.344   1.684
 5882SOL     OW18211   4.074   2.760   1.804
 5882SOL    HW118212   4.150   2.804   1.852
 5882SOL    HW218213   4.109   2.713   1.722
 5883SOL     OW18214   5.027   2.700   0.042
 5883SOL    HW118215   5.061   2.607   0.057
 5883SOL    HW218216   5.045   2.727  -0.053
 5884SOL     OW18217   4.792   3.195   0.849
 5884SOL    HW118218   4.799   3.111   0.794
 5884SOL    HW218219   4.854   3.264   0.813
 5885SOL     OW18220   4.043   2.672   0.949
 5885SOL    HW118221   4.136   2.708   0.954
 5885SOL    HW218222   4.037   2.587   1.001
 5886SOL     OW18223   4.063   2.371   1.006
 5886SOL    HW118224   4.011   2.288   0.989
 5886SOL    HW218225   4.140   2.376   0.942
 5887SOL     OW18226   4.862   2.242   1.678
 5887SOL    HW118227   4.817   2.305   1.742
 5887SOL    HW218228   4.955   2.273   1.661
 5888SOL     OW18229   4.884   2.069   1.477
 5888SOL    HW118230   4.884   2.133   1.554
 5888SOL    HW218231   4.912   2.117   1.394
 5889SOL     OW18232   3.732   3.188   0.200
 5889SOL    HW118233   3.639   3.209   0.169
 5889SOL    HW218234   3.742   3.089   0.213
 5890SOL     OW18235   3.812   3.663   0.927
 5890SOL    HW118236   3.770   3.577   0.900
 5890SOL    HW218237   3.906   3.666   0.893
 5891SOL     OW18238   4.228   3.430   0.910
 5891SOL    HW118239   4.294   3.504   0.919
 5891SOL    HW218240   4.272   3.351   0.868
 5892SOL     OW18241   4.726   2.658   1.238
 5892SOL    HW118242   4.767   2.626   1.324
 5892SOL    HW218243   4.630   2.631   1.235
 5893SOL     OW18244   3.764   2.406   1.114
 5893SOL    HW118245   3.849   2.373   1.073
 5893SOL    HW218246   3.777   2.421   1.212
 5894SOL     OW18247   3.913   2.382   1.722
 5894SOL    HW118248   3.972   2.342   1.652
 5894SOL    HW218249   3.855   2.453   1.681
 5895SOL     OW18250   5.093   2.812   1.660
 5895SOL    HW118251   5.132   2.901   1.680
 5895SOL    HW218252   5.103   2.792   1.563
 5896SOL     OW18253   4.539   2.434   0.325
 5896SOL    HW118254   4.546   2.345   0.279
 5896SOL    HW218255   4.445   2.468   0.317
 5897SOL     OW18256   3.976   3.426   1.744
 5897SOL    HW118257   3.946   3.483   1.820
 5897SOL    HW218258   3.969   3.329   1.770
 5898SOL     OW18259   4.395   2.326   1.269
 5898SOL    HW118260   4.361   2.237   1.239
 5898SOL    HW218261   4.421   2.380   1.189
 5899SOL     OW18262   4.654   3.540   1.465
 5899SOL    HW118263   4.630   3.522   1.370
 5899SOL    HW218264   4.684   3.634   1.475
 5900SOL     OW18265   4.197   2.362   0.191
 5900SOL    HW118266   4.258   2.442   0.195
 5900SOL    HW218267   4.102   2.393   0.198
 5901SOL     OW18268   3.883   2.999   1.466
 5901SOL    HW118269   3.905   2.938   1.542
 5901SOL    HW218270   3.893   2.950   1.380
 5902SOL     OW18271   5.071   2.921   1.234
 5902SOL    HW118272   5.095   2.858   1.160
 5902SOL    HW218273   4.981   2.961   1.216
 5903SOL     OW18274   5.026   2.717   0.309
 5903SOL    HW118275   4.940   2.686   0.351
 5903SOL    HW218276   5.022   2.703   0.210
 5904SOL     OW18277   4.976   3.593   1.128
 5904SOL    HW118278   5.060   3.598   1.074
 5904SOL    HW218279   4.953   3.497   1.146
 5905SOL     OW18280   3.807   3.120   1.022
 5905SOL    HW118281   3.802   3.119   1.122
 5905SOL    HW218282   3.724   3.079   0.984
 5906SOL     OW18283   4.412   3.524   1.716
 5906SOL    HW118284   4.356   3.605   1.725
 5906SOL    HW218285   4.464   3.528   1.630
 5907SOL     OW18286   4.627   1.948   0.133
 5907SOL    HW118287   4.678   1.949   0.047
 5907SOL    HW218288   4.683   1.906   0.204
 5908SOL     OW18289   5.450   1.997   0.523
 5908SOL    HW118290   5.523   1.980   0.456
 5908SOL    HW218291   5.419   1.910   0.561
 5909SOL     OW18292   5.112   3.435   0.477
 5909SOL    HW118293   5.179   3.447   0.403
 5909SOL    HW218294   5.072   3.524   0.500
 5910SOL     OW18295   3.854   3.656   1.851
 5910SOL    HW118296   3.813   3.582   1.904
 5910SOL    HW218297   3.918   3.707   1.909
 5911SOL     OW18298   5.004   2.789   0.672
 5911SOL    HW118299   5.064   2.708   0.674
 5911SOL    HW218300   5.044   2.858   0.612
 5912SOL     OW18301   4.554   3.135   1.422
 5912SOL    HW118302   4.549   3.168   1.517
 5912SOL    HW218303   4.468   3.154   1.376
 5913SOL     OW18304   4.396   3.478   0.154
 5913SOL    HW118305   4.405   3.488   0.055
 5913SOL    HW218306   4.356   3.389   0.175
 5914SOL     OW18307   3.987   2.188   0.720
 5914SOL    HW118308   3.908   2.239   0.686
 5914SOL    HW218309   3.978   2.173   0.818
 5915SOL     OW18310   4.918   3.474   0.031
 5915SOL    HW118311   4.924   3.381   0.068
 5915SOL    HW218312   4.859   3.474  -0.049
 5916SOL     OW18313   4.546   2.864   1.372
 5916SOL    HW118314   4.586   2.863   1.280
 5916SOL    HW218315   4.556   2.956   1.412
 5917SOL     OW18316   4.640   2.772   0.291
 5917SOL    HW118317   4.703   2.810   0.223
 5917SOL    HW218318   4.680   2.689   0.330
 5918SOL     OW18319   4.096   3.150   1.490
 5918SOL    HW118320   4.083   3.243   1.456
 5918SOL    HW218321   4.012   3.098   1.477
 5919SOL     OW18322   4.763   2.960   0.696
 5919SOL    HW118323   4.693   2.913   0.750
 5919SOL    HW218324   4.822   2.892   0.653
 5920SOL     OW18325   4.738   2.098   0.971
 5920SOL    HW118326   4.730   2.062   0.878
 5920SOL    HW218327   4.736   2.022   1.036
 5921SOL     OW18328   4.314   3.349   0.491
 5921SOL    HW118329   4.356   3.291   0.421
 5921SOL    HW218330   4.270   3.428   0.447
 5922SOL     OW18331   3.979   3.210   0.290
 5922SOL    HW118332   3.883   3.211   0.263
 5922SOL    HW218333   3.991   3.263   0.374
 5923SOL     OW18334   3.829   2.875   1.726
 5923SOL    HW118335   3.752   2.842   1.780
 5923SOL    HW218336   3.914   2.845   1.768
 5924SOL     OW18337   4.396   2.065   1.489
 5924SOL    HW118338   4.486   2.049   1.449
 5924SOL    HW218339   4.404   2.070   1.588
 5925SOL     OW18340   3.799   2.207   0.033
 5925SOL    HW118341   3.707   2.179   0.004
 5925SOL    HW218342   3.830   2.284  -0.023
 5926SOL     OW18343   5.164   2.718   1.398
 5926SOL    HW118344   5.107   2.770   1.335
 5926SOL    HW218345   5.260   2.730   1.374
 5927SOL     OW18346   3.796   2.028   0.318
 5927SOL    HW118347   3.779   2.111   0.264
 5927SOL    HW218348   3.886   1.991   0.296
 5928SOL     OW18349   4.907   3.197   0.119
 5928SOL    HW118350   4.808   3.186   0.121
 5928SOL    HW218351   4.941   3.212   0.212
 5929SOL     OW18352   4.337   2.704   1.431
 5929SOL    HW118353   4.393   2.785   1.414
 5929SOL    HW218354   4.396   2.624   1.434
 5930SOL     OW18355   4.440   2.427   1.708
 5930SOL    HW118356   4.459   2.492   1.782
 5930SOL    HW218357   4.500   2.347   1.717
 5931SOL     OW18358   5.174   3.082   1.633
 5931SOL    HW118359   5.165   3.072   1.732
 5931SOL    HW218360   5.270   3.075   1.607
 5932SOL     OW18361   4.114   3.603   1.560
 5932SOL    HW118362   4.023   3.644   1.558
 5932SOL    HW218363   4.107   3.509   1.592
 5933SOL     OW18364   4.949   2.187   0.449
 5933SOL    HW118365   5.014   2.113   0.438
 5933SOL    HW218366   4.969   2.237   0.533
 5934SOL     OW18367   4.318   2.607   0.652
 5934SOL    HW118368   4.368   2.692   0.633
 5934SOL    HW218369   4.230   2.609   0.604
 5935SOL     OW18370   4.583   3.236   0.016
 5935SOL    HW118371   4.537   3.251   0.104
 5935SOL    HW218372   4.627   3.321  -0.014
 5936SOL     OW18373   4.385   3.652   0.953
 5936SOL    HW118374   4.339   3.740   0.940
 5936SOL    HW218375   4.484   3.664   0.946
 5937SOL     OW18376   4.583   2.818   0.861
 5937SOL    HW118377   4.637   2.749   0.909
 5937SOL    HW218378   4.551   2.887   0.927
 5938SOL     OW18379   4.807   2.846   0.087
 5938SOL    HW118380   4.784   2.899   0.005
 5938SOL    HW218381   4.888   2.790   0.068
 5939SOL     OW18382   3.945   3.176   1.844
 5939SOL    HW118383   3.880   3.103   1.823
 5939SOL    HW218384   3.949   3.190   1.942
 5940SOL     OW18385   3.803   3.102   0.653
 5940SOL    HW118386   3.802   3.055   0.741
 5940SOL    HW218387   3.885   3.074   0.602
 5941SOL     OW18388   4.396   3.253   1.624
 5941SOL    HW118389   4.318   3.203   1.662
 5941SOL    HW218390   4.393   3.348   1.655
 5942SOL     OW18391   4.152   2.286   0.520
 5942SOL    HW118392   4.182   2.214   0.458
 5942SOL    HW218393   4.113   2.246   0.603
 5943SOL     OW18394   5.429   3.349   1.104
 5943SOL    HW118395   5.336   3.324   1.077
 5943SOL    HW218396   5.455   3.299   1.186
 5944SOL     OW18397   4.041   2.409   1.280
 5944SOL    HW118398   4.079   2.350   1.352
 5944SOL    HW218399   4.081   2.383   1.192
 5945SOL     OW18400   4.536   3.448   0.687
 5945SOL    HW118401   4.568   3.458   0.593
 5945SOL    HW218402   4.457   3.386   0.689
 5946SOL     OW18403   5.148   2.076   1.112
 5946SOL    HW118404   5.200   2.011   1.167
 5946SOL    HW218405   5.099   2.139   1.173
 5947SOL     OW18406   4.725   1.896   1.154
 5947SOL    HW118407   4.662   1.824   1.123
 5947SOL    HW218408   4.818   1.860   1.154
 5948SOL     OW18409   4.494   3.192   0.301
 5948SOL    HW118410   4.448   3.105   0.318
 5948SOL    HW218411   4.585   3.189   0.342
 5949SOL     OW18412   4.342   3.429   1.284
 5949SOL    HW118413   4.337   3.511   1.341
 5949SOL    HW218414   4.431   3.426   1.239
 5950SOL     OW18415   5.076   1.914   0.168
 5950SOL    HW118416   5.111   1.873   0.084
 5950SOL    HW218417   4.986   1.876   0.188
 5951SOL     OW18418   5.024   2.315   0.691
 5951SOL    HW118419   4.965   2.395   0.695
 5951SOL    HW218420   5.039   2.280   0.784
 5952SOL     OW18421   5.317   2.083   0.882
 5952SOL    HW118422   5.233   2.082   0.936
 5952SOL    HW218423   5.319   2.166   0.826
 5953SOL     OW18424   3.763   2.939   0.300
 5953SOL    HW118425   3.862   2.928   0.291
 5953SOL    HW218426   3.723   2.853   0.332
 5954SOL     OW18427   4.599   3.508   0.337
 5954SOL    HW118428   4.522   3.473   0.283
 5954SOL    HW218429   4.567   3.579   0.399
 5955SOL     OW18430   3.954   2.490   1.975
 5955SOL    HW118431   3.861   2.488   2.012
 5955SOL    HW218432   3.955   2.451   1.883
 5956SOL     OW18433   3.949   2.137   2.858
 5956SOL    HW118434   3.984   2.120   2.950
 5956SOL    HW218435   3.861   2.092   2.846
 5957SOL     OW18436   3.743   2.230   2.509
 5957SOL    HW118437   3.661   2.273   2.548
 5957SOL    HW218438   3.715   2.157   2.446
 5958SOL     OW18439   4.293   3.137   3.027
 5958SOL    HW118440   4.200   3.130   2.990
 5958SOL    HW218441   4.304   3.226   3.071
 5959SOL     OW18442   5.279   3.373   2.565
 5959SOL    HW118443   5.222   3.357   2.646
 5959SOL    HW218444   5.220   3.383   2.485
 5960SOL     OW18445   4.859   2.565   2.579
 5960SOL    HW118446   4.916   2.643   2.554
 5960SOL    HW218447   4.799   2.591   2.655
 5961SOL     OW18448   4.492   3.006   2.885
 5961SOL    HW118449   4.414   3.023   2.945
 5961SOL    HW218450   4.526   3.093   2.849
 5962SOL     OW18451   4.574   2.660   3.685
 5962SOL    HW118452   4.570   2.736   3.750
 5962SOL    HW218453   4.596   2.696   3.594
 5963SOL     OW18454   4.409   2.874   2.527
 5963SOL    HW118455   4.478   2.858   2.597
 5963SOL    HW218456   4.336   2.931   2.565
 5964SOL     OW18457   4.410   3.023   3.665
 5964SOL    HW118458   4.470   3.102   3.679
 5964SOL    HW218459   4.324   3.054   3.624
 5965SOL     OW18460   4.059   3.297   2.923
 5965SOL    HW118461   3.981   3.266   2.870
 5965SOL    HW218462   4.117   3.355   2.866
 5966SOL     OW18463   5.184   3.367   3.201
 5966SOL    HW118464   5.208   3.461   3.227
 5966SOL    HW218465   5.168   3.313   3.283
 5967SOL     OW18466   4.162   2.254   3.361
 5967SOL    HW118467   4.244   2.198   3.370
 5967SOL    HW218468   4.081   2.196   3.365
 5968SOL     OW18469   3.955   3.575   2.345
 5968SOL    HW118470   3.989   3.652   2.399
 5968SOL    HW218471   3.999   3.575   2.255
 5969SOL     OW18472   4.851   3.203   3.552
 5969SOL    HW118473   4.898   3.203   3.640
 5969SOL    HW218474   4.803   3.116   3.541
 5970SOL     OW18475   3.954   3.296   2.400
 5970SOL    HW118476   3.928   3.392   2.400
 5970SOL    HW218477   3.883   3.242   2.445
 5971SOL     OW18478   3.964   2.953   2.748
 5971SOL    HW118479   3.978   2.869   2.800
 5971SOL    HW218480   3.909   3.017   2.803
 5972SOL     OW18481   4.344   3.648   3.301
 5972SOL    HW118482   4.252   3.631   3.336
 5972SOL    HW218483   4.372   3.740   3.327
 5973SOL     OW18484   4.330   2.826   1.985
 5973SOL    HW118485   4.337   2.910   1.931
 5973SOL    HW218486   4.376   2.839   2.073
 5974SOL     OW18487   3.846   2.505   2.425
 5974SOL    HW118488   3.801   2.417   2.442
 5974SOL    HW218489   3.845   2.559   2.509
 5975SOL     OW18490   3.751   3.458   1.979
 5975SOL    HW118491   3.732   3.362   2.000
 5975SOL    HW218492   3.718   3.516   2.054
 5976SOL     OW18493   5.413   2.784   2.474
 5976SOL    HW118494   5.508   2.755   2.482
 5976SOL    HW218495   5.405   2.849   2.399
 5977SOL     OW18496   3.837   2.599   3.459
 5977SOL    HW118497   3.925   2.586   3.504
 5977SOL    HW218498   3.824   2.696   3.437
 5978SOL     OW18499   4.337   3.227   2.588
 5978SOL    HW118500   4.288   3.140   2.597
 5978SOL    HW218501   4.314   3.270   2.501
 5979SOL     OW18502   5.017   3.090   3.285
 5979SOL    HW118503   5.054   3.017   3.227
 5979SOL    HW218504   5.069   3.095   3.370
 5980SOL     OW18505   4.533   1.866   2.364
 5980SOL    HW118506   4.573   1.957   2.355
 5980SOL    HW218507   4.433   1.874   2.370
 5981SOL     OW18508   3.921   2.838   3.126
 5981SOL    HW118509   4.010   2.793   3.112
 5981SOL    HW218510   3.848   2.773   3.107
 5982SOL     OW18511   4.911   3.654   3.478
 5982SOL    HW118512   4.935   3.714   3.402
 5982SOL    HW218513   4.918   3.559   3.448
 5983SOL     OW18514   4.041   2.113   3.663
 5983SOL    HW118515   4.112   2.184   3.669
 5983SOL    HW218516   3.953   2.152   3.691
 5984SOL     OW18517   5.190   3.279   2.815
 5984SOL    HW118518   5.131   3.285   2.895
 5984SOL    HW218519   5.175   3.191   2.769
 5985SOL     OW18520   4.322   2.591   2.132
 5985SOL    HW118521   4.346   2.660   2.064
 5985SOL    HW218522   4.244   2.624   2.186
 5986SOL     OW18523   5.005   2.207   2.806
 5986SOL    HW118524   4.919   2.157   2.793
 5986SOL    HW218525   5.067   2.153   2.862
 5987SOL     OW18526   4.531   2.467   3.327
 5987SOL    HW118527   4.484   2.464   3.416
 5987SOL    HW218528   4.480   2.412   3.261
 5988SOL     OW18529   5.118   2.331   3.536
 5988SOL    HW118530   5.098   2.374   3.624
 5988SOL    HW218531   5.196   2.269   3.545
 5989SOL     OW18532   4.697   2.752   3.434
 5989SOL    HW118533   4.743   2.668   3.405
 5989SOL    HW218534   4.641   2.786   3.359
 5990SOL     OW18535   4.715   2.272   3.104
 5990SOL    HW118536   4.638   2.306   3.158
 5990SOL    HW218537   4.681   2.221   3.025
 5991SOL     OW18538   4.765   2.563   2.291
 5991SOL    HW118539   4.791   2.559   2.387
 5991SOL    HW218540   4.680   2.512   2.277
 5992SOL     OW18541   3.800   2.673   2.651
 5992SOL    HW118542   3.899   2.661   2.660
 5992SOL    HW218543   3.776   2.768   2.672
 5993SOL     OW18544   3.854   3.683   3.433
 5993SOL    HW118545   3.844   3.668   3.532
 5993SOL    HW218546   3.768   3.719   3.397
 5994SOL     OW18547   4.589   2.210   2.057
 5994SOL    HW118548   4.648   2.273   2.008
 5994SOL    HW218549   4.608   2.116   2.028
 5995SOL     OW18550   5.086   3.006   2.407
 5995SOL    HW118551   5.169   2.977   2.359
 5995SOL    HW218552   5.037   3.073   2.351
 5996SOL     OW18553   4.274   2.058   2.747
 5996SOL    HW118554   4.269   2.053   2.847
 5996SOL    HW218555   4.276   2.154   2.718
 5997SOL     OW18556   4.732   3.318   2.339
 5997SOL    HW118557   4.686   3.390   2.287
 5997SOL    HW218558   4.728   3.338   2.437
 5998SOL     OW18559   4.075   3.663   2.715
 5998SOL    HW118560   4.125   3.577   2.721
 5998SOL    HW218561   4.140   3.740   2.712
 5999SOL     OW18562   4.951   3.412   3.368
 5999SOL    HW118563   4.957   3.335   3.432
 5999SOL    HW218564   4.899   3.386   3.288
 6000SOL     OW18565   4.045   2.805   2.104
 6000SOL    HW118566   4.127   2.844   2.062
 6000SOL    HW218567   4.018   2.723   2.055
 6001SOL     OW18568   4.185   3.128   3.589
 6001SOL    HW118569   4.135   3.129   3.503
 6001SOL    HW218570   4.122   3.110   3.665
 6002SOL     OW18571   4.835   3.638   2.099
 6002SOL    HW118572   4.775   3.576   2.149
 6002SOL    HW218573   4.866   3.594   2.014
 6003SOL     OW18574   3.926   2.147   3.360
 6003SOL    HW118575   3.846   2.207   3.347
 6003SOL    HW218576   3.916   2.098   3.446
 6004SOL     OW18577   4.188   3.605   2.185
 6004SOL    HW118578   4.221   3.644   2.271
 6004SOL    HW218579   4.264   3.598   2.120
 6005SOL     OW18580   5.124   1.969   2.288
 6005SOL    HW118581   5.100   1.932   2.198
 6005SOL    HW218582   5.223   1.985   2.292
 6006SOL     OW18583   3.973   3.647   3.103
 6006SOL    HW118584   4.030   3.582   3.153
 6006SOL    HW218585   3.957   3.614   3.010
 6007SOL     OW18586   4.664   3.560   2.766
 6007SOL    HW118587   4.744   3.503   2.787
 6007SOL    HW218588   4.615   3.520   2.689
 6008SOL     OW18589   4.106   2.562   2.342
 6008SOL    HW118590   4.151   2.472   2.339
 6008SOL    HW218591   4.012   2.551   2.375
 6009SOL     OW18592   4.338   1.984   1.979
 6009SOL    HW118593   4.436   1.962   1.986
 6009SOL    HW218594   4.307   1.967   1.886
 6010SOL     OW18595   4.505   2.126   3.611
 6010SOL    HW118596   4.572   2.065   3.654
 6010SOL    HW218597   4.432   2.145   3.676
 6011SOL     OW18598   4.612   3.376   3.057
 6011SOL    HW118599   4.589   3.351   2.963
 6011SOL    HW218600   4.673   3.307   3.096
 6012SOL     OW18601   5.075   2.452   3.295
 6012SOL    HW118602   5.103   2.409   3.380
 6012SOL    HW218603   5.100   2.548   3.296
 6013SOL     OW18604   4.527   3.264   2.786
 6013SOL    HW118605   4.617   3.278   2.744
 6013SOL    HW218606   4.456   3.266   2.715
 6014SOL     OW18607   4.646   2.365   2.761
 6014SOL    HW118608   4.621   2.356   2.665
 6014SOL    HW218609   4.694   2.283   2.792
 6015SOL     OW18610   4.263   1.926   2.374
 6015SOL    HW118611   4.182   1.927   2.432
 6015SOL    HW218612   4.266   2.009   2.319
 6016SOL     OW18613   5.158   3.050   1.903
 6016SOL    HW118614   5.190   2.974   1.960
 6016SOL    HW218615   5.066   3.077   1.933
 6017SOL     OW18616   4.021   1.897   2.033
 6017SOL    HW118617   4.070   1.981   2.012
 6017SOL    HW218618   4.083   1.832   2.078
 6018SOL     OW18619   4.659   2.098   2.342
 6018SOL    HW118620   4.611   2.139   2.264
 6018SOL    HW218621   4.758   2.096   2.323
 6019SOL     OW18622   4.800   2.545   3.326
 6019SOL    HW118623   4.720   2.484   3.329
 6019SOL    HW218624   4.881   2.492   3.302
 6020SOL     OW18625   4.951   3.432   2.655
 6020SOL    HW118626   4.972   3.506   2.590
 6020SOL    HW218627   5.019   3.432   2.728
 6021SOL     OW18628   4.183   3.014   2.603
 6021SOL    HW118629   4.112   2.987   2.668
 6021SOL    HW218630   4.157   2.986   2.510
 6022SOL     OW18631   4.995   3.659   2.453
 6022SOL    HW118632   5.039   3.723   2.389
 6022SOL    HW218633   4.945   3.711   2.523
 6023SOL     OW18634   4.756   2.411   1.878
 6023SOL    HW118635   4.715   2.493   1.839
 6023SOL    HW218636   4.820   2.437   1.951
 6024SOL     OW18637   3.802   2.418   3.248
 6024SOL    HW118638   3.894   2.417   3.207
 6024SOL    HW218639   3.796   2.492   3.315
 6025SOL     OW18640   4.285   2.084   3.009
 6025SOL    HW118641   4.323   2.000   3.046
 6025SOL    HW218642   4.197   2.103   3.053
 6026SOL     OW18643   4.590   2.316   2.504
 6026SOL    HW118644   4.558   2.388   2.442
 6026SOL    HW218645   4.614   2.235   2.451
 6027SOL     OW18646   4.741   1.901   2.615
 6027SOL    HW118647   4.669   1.906   2.546
 6027SOL    HW218648   4.717   1.832   2.684
 6028SOL     OW18649   5.153   3.035   2.729
 6028SOL    HW118650   5.098   2.951   2.722
 6028SOL    HW218651   5.179   3.064   2.637
 6029SOL     OW18652   4.212   3.247   2.036
 6029SOL    HW118653   4.125   3.232   2.083
 6029SOL    HW218654   4.195   3.273   1.941
 6030SOL     OW18655   5.114   2.437   1.940
 6030SOL    HW118656   5.060   2.416   2.021
 6030SOL    HW218657   5.205   2.396   1.949
 6031SOL     OW18658   4.251   2.118   2.190
 6031SOL    HW118659   4.278   2.059   2.115
 6031SOL    HW218660   4.251   2.213   2.159
 6032SOL     OW18661   4.788   3.209   3.202
 6032SOL    HW118662   4.708   3.186   3.257
 6032SOL    HW218663   4.871   3.183   3.251
 6033SOL     OW18664   5.316   3.491   3.487
 6033SOL    HW118665   5.343   3.525   3.397
 6033SOL    HW218666   5.395   3.453   3.533
 6034SOL     OW18667   4.835   3.057   2.962
 6034SOL    HW118668   4.795   3.101   3.043
 6034SOL    HW218669   4.794   3.094   2.879
 6035SOL     OW18670   4.639   1.951   3.264
 6035SOL    HW118671   4.664   1.931   3.169
 6035SOL    HW218672   4.711   2.007   3.306
 6036SOL     OW18673   4.704   2.978   3.581
 6036SOL    HW118674   4.605   2.984   3.591
 6036SOL    HW218675   4.727   2.898   3.525
 6037SOL     OW18676   4.429   2.912   2.230
 6037SOL    HW118677   4.415   2.919   2.329
 6037SOL    HW218678   4.513   2.861   2.212
 6038SOL     OW18679   4.134   2.675   3.113
 6038SOL    HW118680   4.220   2.687   3.163
 6038SOL    HW218681   4.092   2.588   3.140
 6039SOL     OW18682   4.998   2.248   3.124
 6039SOL    HW118683   5.019   2.322   3.188
 6039SOL    HW218684   4.909   2.265   3.081
 6040SOL     OW18685   3.788   3.426   3.193
 6040SOL    HW118686   3.742   3.508   3.159
 6040SOL    HW218687   3.886   3.445   3.202
 6041SOL     OW18688   4.091   2.962   2.363
 6041SOL    HW118689   4.084   3.045   2.307
 6041SOL    HW218690   4.095   2.882   2.303
 6042SOL     OW18691   4.290   2.399   2.727
 6042SOL    HW118692   4.302   2.465   2.653
 6042SOL    HW218693   4.336   2.433   2.810
 6043SOL     OW18694   4.976   3.210   2.250
 6043SOL    HW118695   5.026   3.287   2.290
 6043SOL    HW218696   4.881   3.212   2.282
 6044SOL     OW18697   4.996   3.307   3.004
 6044SOL    HW118698   5.043   3.320   3.091
 6044SOL    HW218699   4.930   3.233   3.013
 6045SOL     OW18700   4.078   3.372   3.191
 6045SOL    HW118701   4.057   3.328   3.104
 6045SOL    HW218702   4.175   3.398   3.194
 6046SOL     OW18703   4.126   2.613   3.460
 6046SOL    HW118704   4.194   2.668   3.413
 6046SOL    HW218705   4.166   2.525   3.487
 6047SOL     OW18706   4.737   1.967   3.632
 6047SOL    HW118707   4.743   2.052   3.580
 6047SOL    HW218708   4.769   1.891   3.575
 6048SOL     OW18709   4.228   1.912   3.602
 6048SOL    HW118710   4.186   1.855   3.532
 6048SOL    HW218711   4.162   1.981   3.634
 6049SOL     OW18712   4.297   2.732   2.891
 6049SOL    HW118713   4.341   2.821   2.882
 6049SOL    HW218714   4.234   2.732   2.968
 6050SOL     OW18715   5.084   2.724   2.907
 6050SOL    HW118716   5.009   2.724   2.841
 6050SOL    HW218717   5.121   2.632   2.916
 6051SOL     OW18718   4.933   2.387   2.137
 6051SOL    HW118719   4.946   2.303   2.191
 6051SOL    HW218720   4.904   2.461   2.197
 6052SOL     OW18721   4.031   2.075   3.093
 6052SOL    HW118722   4.008   2.112   3.183
 6052SOL    HW218723   4.001   1.980   3.087
 6053SOL     OW18724   3.761   3.172   3.144
 6053SOL    HW118725   3.814   3.123   3.212
 6053SOL    HW218726   3.783   3.270   3.149
 6054SOL     OW18727   4.456   2.496   2.926
 6054SOL    HW118728   4.515   2.470   2.850
 6054SOL    HW218729   4.428   2.592   2.915
 6055SOL     OW18730   4.031   1.925   2.480
 6055SOL    HW118731   4.020   2.019   2.513
 6055SOL    HW218732   4.026   1.862   2.557
 6056SOL     OW18733   5.346   2.229   2.236
 6056SOL    HW118734   5.348   2.153   2.300
 6056SOL    HW218735   5.298   2.306   2.276
 6057SOL     OW18736   4.747   2.628   2.828
 6057SOL    HW118737   4.762   2.649   2.924
 6057SOL    HW218738   4.717   2.533   2.819
 6058SOL     OW18739   4.704   3.435   3.562
 6058SOL    HW118740   4.684   3.479   3.474
 6058SOL    HW218741   4.743   3.344   3.546
 6059SOL     OW18742   4.074   2.760   3.666
 6059SOL    HW118743   4.150   2.804   3.714
 6059SOL    HW218744   4.109   2.713   3.584
 6060SOL     OW18745   5.027   2.700   1.904
 6060SOL    HW118746   5.061   2.607   1.919
 6060SOL    HW218747   5.045   2.727   1.809
 6061SOL     OW18748   4.792   3.195   2.711
 6061SOL    HW118749   4.799   3.111   2.656
 6061SOL    HW218750   4.854   3.264   2.675
 6062SOL     OW18751   4.043   2.672   2.811
 6062SOL    HW118752   4.136   2.708   2.816
 6062SOL    HW218753   4.037   2.587   2.863
 6063SOL     OW18754   4.063   2.371   2.868
 6063SOL    HW118755   4.011   2.288   2.851
 6063SOL    HW218756   4.140   2.376   2.804
 6064SOL     OW18757   4.862   2.242   3.540
 6064SOL    HW118758   4.817   2.305   3.604
 6064SOL    HW218759   4.955   2.273   3.523
 6065SOL     OW18760   4.884   2.069   3.339
 6065SOL    HW118761   4.884   2.133   3.416
 6065SOL    HW218762   4.912   2.117   3.256
 6066SOL     OW18763   3.732   3.188   2.062
 6066SOL    HW118764   3.639   3.209   2.031
 6066SOL    HW218765   3.742   3.089   2.075
 6067SOL     OW18766   3.812   3.663   2.789
 6067SOL    HW118767   3.770   3.577   2.762
 6067SOL    HW218768   3.906   3.666   2.755
 6068SOL     OW18769   4.228   3.430   2.772
 6068SOL    HW118770   4.294   3.504   2.781
 6068SOL    HW218771   4.272   3.351   2.730
 6069SOL     OW18772   4.726   2.658   3.100
 6069SOL    HW118773   4.767   2.626   3.186
 6069SOL    HW218774   4.630   2.631   3.097
 6070SOL     OW18775   3.764   2.406   2.976
 6070SOL    HW118776   3.849   2.373   2.935
 6070SOL    HW218777   3.777   2.421   3.074
 6071SOL     OW18778   3.913   2.382   3.584
 6071SOL    HW118779   3.972   2.342   3.514
 6071SOL    HW218780   3.855   2.453   3.543
 6072SOL     OW18781   5.093   2.812   3.522
 6072SOL    HW118782   5.132   2.901   3.542
 6072SOL    HW218783   5.103   2.792   3.425
 6073SOL     OW18784   4.539   2.434   2.187
 6073SOL    HW118785   4.546   2.345   2.141
 6073SOL    HW218786   4.445   2.468   2.179
 6074SOL     OW18787   3.976   3.426   3.606
 6074SOL    HW118788   3.946   3.483   3.682
 6074SOL    HW218789   3.969   3.329   3.632
 6075SOL     OW18790   4.395   2.326   3.131
 6075SOL    HW118791   4.361   2.237   3.101
 6075SOL    HW218792   4.421   2.380   3.051
 6076SOL     OW18793   4.654   3.540   3.327
 6076SOL    HW118794   4.630   3.522   3.232
 6076SOL    HW218795   4.684   3.634   3.337
 6077SOL     OW18796   4.197   2.362   2.053
 6077SOL    HW118797   4.258   2.442   2.057
 6077SOL    HW218798   4.102   2.393   2.060
 6078SOL     OW18799   3.883   2.999   3.328
 6078SOL    HW118800   3.905   2.938   3.404
 6078SOL    HW218801   3.893   2.950   3.242
 6079SOL     OW18802   5.071   2.921   3.096
 6079SOL    HW118803   5.095   2.858   3.022
 6079SOL    HW218804   4.981   2.961   3.078
 6080SOL     OW18805   5.026   2.717   2.171
 6080SOL    HW118806   4.940   2.686   2.213
 6080SOL    HW218807   5.022   2.703   2.072
 6081SOL     OW18808   4.976   3.593   2.990
 6081SOL    HW118809   5.060   3.598   2.936
 6081SOL    HW218810   4.953   3.497   3.008
 6082SOL     OW18811   3.807   3.120   2.884
 6082SOL    HW118812   3.802   3.119   2.984
 6082SOL    HW218813   3.724   3.079   2.846
 6083SOL     OW18814   4.412   3.524   3.578
 6083SOL    HW118815   4.356   3.605   3.587
 6083SOL    HW218816   4.464   3.528   3.492
 6084SOL     OW18817   5.450   1.997   2.385
 6084SOL    HW118818   5.523   1.980   2.318
 6084SOL    HW218819   5.419   1.910   2.423
 6085SOL     OW18820   5.112   3.435   2.339
 6085SOL    HW118821   5.179   3.447   2.265
 6085SOL    HW218822   5.072   3.524   2.362
 6086SOL     OW18823   3.854   3.656   3.713
 6086SOL    HW118824   3.813   3.582   3.766
 6086SOL    HW218825   3.918   3.707   3.771
 6087SOL     OW18826   5.004   2.789   2.534
 6087SOL    HW118827   5.064   2.708   2.536
 6087SOL    HW218828   5.044   2.858   2.474
 6088SOL     OW18829   4.554   3.135   3.284
 6088SOL    HW118830   4.549   3.168   3.379
 6088SOL    HW218831   4.468   3.154   3.238
 6089SOL     OW18832   4.396   3.478   2.016
 6089SOL    HW118833   4.405   3.488   1.917
 6089SOL    HW218834   4.356   3.389   2.037
 6090SOL     OW18835   3.987   2.188   2.582
 6090SOL    HW118836   3.908   2.239   2.548
 6090SOL    HW218837   3.978   2.173   2.680
 6091SOL     OW18838   4.918   3.474   1.893
 6091SOL    HW118839   4.924   3.381   1.930
 6091SOL    HW218840   4.859   3.474   1.813
 6092SOL     OW18841   4.546   2.864   3.234
 6092SOL    HW118842   4.586   2.863   3.142
 6092SOL    HW218843   4.556   2.956   3.274
 6093SOL     OW18844   4.640   2.772   2.153
 6093SOL    HW118845   4.703   2.810   2.085
 6093SOL    HW218846   4.680   2.689   2.192
 6094SOL     OW18847   4.096   3.150   3.352
 6094SOL    HW118848   4.083   3.243   3.318
 6094SOL    HW218849   4.012   3.098   3.339
 6095SOL     OW18850   4.763   2.960   2.558
 6095SOL    HW118851   4.693   2.913   2.612
 6095SOL    HW218852   4.822   2.892   2.515
 6096SOL     OW18853   4.738   2.098   2.833
 6096SOL    HW118854   4.730   2.062   2.740
 6096SOL    HW218855   4.736   2.022   2.898
 6097SOL     OW18856   4.314   3.349   2.353
 6097SOL    HW118857   4.356   3.291   2.283
 6097SOL    HW218858   4.270   3.428   2.309
 6098SOL     OW18859   3.979   3.210   2.152
 6098SOL    HW118860   3.883   3.211   2.125
 6098SOL    HW218861   3.991   3.263   2.236
 6099SOL     OW18862   3.829   2.875   3.588
 6099SOL    HW118863   3.752   2.842   3.642
 6099SOL    HW218864   3.914   2.845   3.630
 6100SOL     OW18865   4.396   2.065   3.351
 6100SOL    HW118866   4.486   2.049   3.311
 6100SOL    HW218867   4.404   2.070   3.450
 6101SOL     OW18868   3.799   2.207   1.895
 6101SOL    HW118869   3.707   2.179   1.866
 6101SOL    HW218870   3.830   2.284   1.839
 6102SOL     OW18871   5.164   2.718   3.260
 6102SOL    HW118872   5.107   2.770   3.197
 6102SOL    HW218873   5.260   2.730   3.236
 6103SOL     OW18874   3.796   2.028   2.180
 6103SOL    HW118875   3.779   2.111   2.126
 6103SOL    HW218876   3.886   1.991   2.158
 6104SOL     OW18877   4.907   3.197   1.981
 6104SOL    HW118878   4.808   3.186   1.983
 6104SOL    HW218879   4.941   3.212   2.074
 6105SOL     OW18880   4.337   2.704   3.293
 6105SOL    HW118881   4.393   2.785   3.276
 6105SOL    HW218882   4.396   2.624   3.296
 6106SOL     OW18883   4.440   2.427   3.570
 6106SOL    HW118884   4.459   2.492   3.644
 6106SOL    HW218885   4.500   2.347   3.579
 6107SOL     OW18886   5.174   3.082   3.495
 6107SOL    HW118887   5.165   3.072   3.594
 6107SOL    HW218888   5.270   3.075   3.469
 6108SOL     OW18889   4.114   3.603   3.422
 6108SOL    HW118890   4.023   3.644   3.420
 6108SOL    HW218891   4.107   3.509   3.454
 6109SOL     OW18892   4.949   2.187   2.311
 6109SOL    HW118893   5.014   2.113   2.300
 6109SOL    HW218894   4.969   2.237   2.395
 6110SOL     OW18895   4.318   2.607   2.514
 6110SOL    HW118896   4.368   2.692   2.495
 6110SOL    HW218897   4.230   2.609   2.466
 6111SOL     OW18898   4.583   3.236   1.878
 6111SOL    HW118899   4.537   3.251   1.966
 6111SOL    HW218900   4.627   3.321   1.848
 6112SOL     OW18901   4.385   3.652   2.815
 6112SOL    HW118902   4.339   3.740   2.802
 6112SOL    HW218903   4.484   3.664   2.808
 6113SOL     OW18904   4.583   2.818   2.723
 6113SOL    HW118905   4.637   2.749   2.771
 6113SOL    HW218906   4.551   2.887   2.789
 6114SOL     OW18907   4.807   2.846   1.949
 6114SOL    HW118908   4.784   2.899   1.867
 6114SOL    HW218909   4.888   2.790   1.930
 6115SOL     OW18910   3.945   3.176   3.706
 6115SOL    HW118911   3.880   3.103   3.685
 6115SOL    HW218912   3.949   3.190   3.804
 6116SOL     OW18913   3.803   3.102   2.515
 6116SOL    HW118914   3.802   3.055   2.603
 6116SOL    HW218915   3.885   3.074   2.464
 6117SOL     OW18916   4.396   3.253   3.486
 6117SOL    HW118917   4.318   3.203   3.524
 6117SOL    HW218918   4.393   3.348   3.517
 6118SOL     OW18919   4.152   2.286   2.382
 6118SOL    HW118920   4.182   2.214   2.320
 6118SOL    HW218921   4.113   2.246   2.465
 6119SOL     OW18922   5.429   3.349   2.966
 6119SOL    HW118923   5.336   3.324   2.939
 6119SOL    HW218924   5.455   3.299   3.048
 6120SOL     OW18925   4.041   2.409   3.142
 6120SOL    HW118926   4.079   2.350   3.214
 6120SOL    HW218927   4.081   2.383   3.054
 6121SOL     OW18928   4.536   3.448   2.549
 6121SOL    HW118929   4.568   3.458   2.455
 6121SOL    HW218930   4.457   3.386   2.551
 6122SOL     OW18931   5.148   2.076   2.974
 6122SOL    HW118932   5.200   2.011   3.029
 6122SOL    HW218933   5.099   2.139   3.035
 6123SOL     OW18934   4.725   1.896   3.016
 6123SOL    HW118935   4.662   1.824   2.985
 6123SOL    HW218936   4.818   1.860   3.016
 6124SOL     OW18937   4.494   3.192   2.163
 6124SOL    HW118938   4.448   3.105   2.180
 6124SOL    HW218939   4.585   3.189   2.204
 6125SOL     OW18940   4.342   3.429   3.146
 6125SOL    HW118941   4.337   3.511   3.203
 6125SOL    HW218942   4.431   3.426   3.101
 6126SOL     OW18943   5.076   1.914   2.030
 6126SOL    HW118944   5.111   1.873   1.946
 6126SOL    HW218945   4.986   1.876   2.050
 6127SOL     OW18946   5.024   2.315   2.553
 6127SOL    HW118947   4.965   2.395   2.557
 6127SOL    HW218948   5.039   2.280   2.646
 6128SOL     OW18949   5.317   2.083   2.744
 6128SOL    HW118950   5.233   2.082   2.798
 6128SOL    HW218951   5.319   2.166   2.688
 6129SOL     OW18952   3.763   2.939   2.162
 6129SOL    HW118953   3.862   2.928   2.153
 6129SOL    HW218954   3.723   2.853   2.194
 6130SOL     OW18955   4.599   3.508   2.199
 6130SOL    HW118956   4.522   3.473   2.145
 6130SOL    HW218957   4.567   3.579   2.261
 6131SOL     OW18958   3.954   2.490   3.837
 6131SOL    HW118959   3.861   2.488   3.874
 6131SOL    HW218960   3.955   2.451   3.745
 6132SOL     OW18961   3.949   2.137   4.720
 6132SOL    HW118962   3.984   2.120   4.812
 6132SOL    HW218963   3.861   2.092   4.708
 6133SOL     OW18964   3.743   2.230   4.371
 6133SOL    HW118965   3.661   2.273   4.410
 6133SOL    HW218966   3.715   2.157   4.308
 6134SOL     OW18967   4.293   3.137   4.889
 6134SOL    HW118968   4.200   3.130   4.852
 6134SOL    HW218969   4.304   3.226   4.933
 6135SOL     OW18970   5.279   3.373   4.427
 6135SOL    HW118971   5.222   3.357   4.508
 6135SOL    HW218972   5.220   3.383   4.347
 6136SOL     OW18973   4.859   2.565   4.441
 6136SOL    HW118974   4.916   2.643   4.416
 6136SOL    HW218975   4.799   2.591   4.517
 6137SOL     OW18976   4.492   3.006   4.747
 6137SOL    HW118977   4.414   3.023   4.807
 6137SOL    HW218978   4.526   3.093   4.711
 6138SOL     OW18979   4.574   2.660   5.547
 6138SOL    HW118980   4.570   2.736   5.612
 6138SOL    HW218981   4.596   2.696   5.456
 6139SOL     OW18982   4.409   2.874   4.389
 6139SOL    HW118983   4.478   2.858   4.459
 6139SOL    HW218984   4.336   2.931   4.427
 6140SOL     OW18985   4.410   3.023   5.527
 6140SOL    HW118986   4.470   3.102   5.541
 6140SOL    HW218987   4.324   3.054   5.486
 6141SOL     OW18988   4.059   3.297   4.785
 6141SOL    HW118989   3.981   3.266   4.732
 6141SOL    HW218990   4.117   3.355   4.728
 6142SOL     OW18991   5.184   3.367   5.063
 6142SOL    HW118992   5.208   3.461   5.089
 6142SOL    HW218993   5.168   3.313   5.145
 6143SOL     OW18994   4.162   2.254   5.223
 6143SOL    HW118995   4.244   2.198   5.232
 6143SOL    HW218996   4.081   2.196   5.227
 6144SOL     OW18997   3.955   3.575   4.207
 6144SOL    HW118998   3.989   3.652   4.261
 6144SOL    HW218999   3.999   3.575   4.117
 6145SOL     OW19000   4.851   3.203   5.414
 6145SOL    HW119001   4.898   3.203   5.502
 6145SOL    HW219002   4.803   3.116   5.403
 6146SOL     OW19003   3.954   3.296   4.262
 6146SOL    HW119004   3.928   3.392   4.262
 6146SOL    HW219005   3.883   3.242   4.307
 6147SOL     OW19006   3.964   2.953   4.610
 6147SOL    HW119007   3.978   2.869   4.662
 6147SOL    HW219008   3.909   3.017   4.665
 6148SOL     OW19009   4.344   3.648   5.163
 6148SOL    HW119010   4.252   3.631   5.198
 6148SOL    HW219011   4.372   3.740   5.189
 6149SOL     OW19012   4.330   2.826   3.847
 6149SOL    HW119013   4.337   2.910   3.793
 6149SOL    HW219014   4.376   2.839   3.935
 6150SOL     OW19015   3.846   2.505   4.287
 6150SOL    HW119016   3.801   2.417   4.304
 6150SOL    HW219017   3.845   2.559   4.371
 6151SOL     OW19018   3.751   3.458   3.841
 6151SOL    HW119019   3.732   3.362   3.862
 6151SOL    HW219020   3.718   3.516   3.916
 6152SOL     OW19021   5.413   2.784   4.336
 6152SOL    HW119022   5.508   2.755   4.344
 6152SOL    HW219023   5.405   2.849   4.261
 6153SOL     OW19024   3.837   2.599   5.321
 6153SOL    HW119025   3.925   2.586   5.366
 6153SOL    HW219026   3.824   2.696   5.299
 6154SOL     OW19027   4.337   3.227   4.450
 6154SOL    HW119028   4.288   3.140   4.459
 6154SOL    HW219029   4.314   3.270   4.363
 6155SOL     OW19030   5.017   3.090   5.147
 6155SOL    HW119031   5.054   3.017   5.089
 6155SOL    HW219032   5.069   3.095   5.232
 6156SOL     OW19033   4.533   1.866   4.226
 6156SOL    HW119034   4.573   1.957   4.217
 6156SOL    HW219035   4.433   1.874   4.232
 6157SOL     OW19036   3.921   2.838   4.988
 6157SOL    HW119037   4.010   2.793   4.974
 6157SOL    HW219038   3.848   2.773   4.969
 6158SOL     OW19039   4.911   3.654   5.340
 6158SOL    HW119040   4.935   3.714   5.264
 6158SOL    HW219041   4.918   3.559   5.310
 6159SOL     OW19042   4.041   2.113   5.525
 6159SOL    HW119043   4.112   2.184   5.531
 6159SOL    HW219044   3.953   2.152   5.553
 6160SOL     OW19045   5.190   3.279   4.677
 6160SOL    HW119046   5.131   3.285   4.757
 6160SOL    HW219047   5.175   3.191   4.631
 6161SOL     OW19048   4.322   2.591   3.994
 6161SOL    HW119049   4.346   2.660   3.926
 6161SOL    HW219050   4.244   2.624   4.048
 6162SOL     OW19051   5.005   2.207   4.668
 6162SOL    HW119052   4.919   2.157   4.655
 6162SOL    HW219053   5.067   2.153   4.724
 6163SOL     OW19054   4.531   2.467   5.189
 6163SOL    HW119055   4.484   2.464   5.278
 6163SOL    HW219056   4.480   2.412   5.123
 6164SOL     OW19057   5.118   2.331   5.398
 6164SOL    HW119058   5.098   2.374   5.486
 6164SOL    HW219059   5.196   2.269   5.407
 6165SOL     OW19060   4.697   2.752   5.296
 6165SOL    HW119061   4.743   2.668   5.267
 6165SOL    HW219062   4.641   2.786   5.221
 6166SOL     OW19063   4.715   2.272   4.966
 6166SOL    HW119064   4.638   2.306   5.020
 6166SOL    HW219065   4.681   2.221   4.887
 6167SOL     OW19066   4.765   2.563   4.153
 6167SOL    HW119067   4.791   2.559   4.249
 6167SOL    HW219068   4.680   2.512   4.139
 6168SOL     OW19069   3.800   2.673   4.513
 6168SOL    HW119070   3.899   2.661   4.522
 6168SOL    HW219071   3.776   2.768   4.534
 6169SOL     OW19072   3.854   3.683   5.295
 6169SOL    HW119073   3.844   3.668   5.394
 6169SOL    HW219074   3.768   3.719   5.259
 6170SOL     OW19075   4.589   2.210   3.919
 6170SOL    HW119076   4.648   2.273   3.870
 6170SOL    HW219077   4.608   2.116   3.890
 6171SOL     OW19078   5.086   3.006   4.269
 6171SOL    HW119079   5.169   2.977   4.221
 6171SOL    HW219080   5.037   3.073   4.213
 6172SOL     OW19081   4.274   2.058   4.609
 6172SOL    HW119082   4.269   2.053   4.709
 6172SOL    HW219083   4.276   2.154   4.580
 6173SOL     OW19084   4.732   3.318   4.201
 6173SOL    HW119085   4.686   3.390   4.149
 6173SOL    HW219086   4.728   3.338   4.299
 6174SOL     OW19087   4.075   3.663   4.577
 6174SOL    HW119088   4.125   3.577   4.583
 6174SOL    HW219089   4.140   3.740   4.574
 6175SOL     OW19090   4.951   3.412   5.230
 6175SOL    HW119091   4.957   3.335   5.294
 6175SOL    HW219092   4.899   3.386   5.150
 6176SOL     OW19093   4.045   2.805   3.966
 6176SOL    HW119094   4.127   2.844   3.924
 6176SOL    HW219095   4.018   2.723   3.917
 6177SOL     OW19096   4.185   3.128   5.451
 6177SOL    HW119097   4.135   3.129   5.365
 6177SOL    HW219098   4.122   3.110   5.527
 6178SOL     OW19099   4.835   3.638   3.961
 6178SOL    HW119100   4.775   3.576   4.011
 6178SOL    HW219101   4.866   3.594   3.876
 6179SOL     OW19102   3.926   2.147   5.222
 6179SOL    HW119103   3.846   2.207   5.209
 6179SOL    HW219104   3.916   2.098   5.308
 6180SOL     OW19105   4.188   3.605   4.047
 6180SOL    HW119106   4.221   3.644   4.133
 6180SOL    HW219107   4.264   3.598   3.982
 6181SOL     OW19108   5.124   1.969   4.150
 6181SOL    HW119109   5.100   1.932   4.060
 6181SOL    HW219110   5.223   1.985   4.154
 6182SOL     OW19111   3.973   3.647   4.965
 6182SOL    HW119112   4.030   3.582   5.015
 6182SOL    HW219113   3.957   3.614   4.872
 6183SOL     OW19114   4.664   3.560   4.628
 6183SOL    HW119115   4.744   3.503   4.649
 6183SOL    HW219116   4.615   3.520   4.551
 6184SOL     OW19117   4.106   2.562   4.204
 6184SOL    HW119118   4.151   2.472   4.201
 6184SOL    HW219119   4.012   2.551   4.237
 6185SOL     OW19120   4.338   1.984   3.841
 6185SOL    HW119121   4.436   1.962   3.848
 6185SOL    HW219122   4.307   1.967   3.748
 6186SOL     OW19123   4.505   2.126   5.473
 6186SOL    HW119124   4.572   2.065   5.516
 6186SOL    HW219125   4.432   2.145   5.538
 6187SOL     OW19126   4.612   3.376   4.919
 6187SOL    HW119127   4.589   3.351   4.825
 6187SOL    HW219128   4.673   3.307   4.958
 6188SOL     OW19129   5.075   2.452   5.157
 6188SOL    HW119130   5.103   2.409   5.242
 6188SOL    HW219131   5.100   2.548   5.158
 6189SOL     OW19132   4.527   3.264   4.648
 6189SOL    HW119133   4.617   3.278   4.606
 6189SOL    HW219134   4.456   3.266   4.577
 6190SOL     OW19135   4.646   2.365   4.623
 6190SOL    HW119136   4.621   2.356   4.527
 6190SOL    HW219137   4.694   2.283   4.654
 6191SOL     OW19138   4.263   1.926   4.236
 6191SOL    HW119139   4.182   1.927   4.294
 6191SOL    HW219140   4.266   2.009   4.181
 6192SOL     OW19141   5.158   3.050   3.765
 6192SOL    HW119142   5.190   2.974   3.822
 6192SOL    HW219143   5.066   3.077   3.795
 6193SOL     OW19144   4.021   1.897   3.895
 6193SOL    HW119145   4.070   1.981   3.874
 6193SOL    HW219146   4.083   1.832   3.940
 6194SOL     OW19147   4.659   2.098   4.204
 6194SOL    HW119148   4.611   2.139   4.126
 6194SOL    HW219149   4.758   2.096   4.185
 6195SOL     OW19150   4.800   2.545   5.188
 6195SOL    HW119151   4.720   2.484   5.191
 6195SOL    HW219152   4.881   2.492   5.164
 6196SOL     OW19153   4.951   3.432   4.517
 6196SOL    HW119154   4.972   3.506   4.452
 6196SOL    HW219155   5.019   3.432   4.590
 6197SOL     OW19156   4.183   3.014   4.465
 6197SOL    HW119157   4.112   2.987   4.530
 6197SOL    HW219158   4.157   2.986   4.372
 6198SOL     OW19159   4.995   3.659   4.315
 6198SOL    HW119160   5.039   3.723   4.251
 6198SOL    HW219161   4.945   3.711   4.385
 6199SOL     OW19162   4.756   2.411   3.740
 6199SOL    HW119163   4.715   2.493   3.701
 6199SOL    HW219164   4.820   2.437   3.813
 6200SOL     OW19165   3.802   2.418   5.110
 6200SOL    HW119166   3.894   2.417   5.069
 6200SOL    HW219167   3.796   2.492   5.177
 6201SOL     OW19168   4.285   2.084   4.871
 6201SOL    HW119169   4.323   2.000   4.908
 6201SOL    HW219170   4.197   2.103   4.915
 6202SOL     OW19171   4.590   2.316   4.366
 6202SOL    HW119172   4.558   2.388   4.304
 6202SOL    HW219173   4.614   2.235   4.313
 6203SOL     OW19174   4.741   1.901   4.477
 6203SOL    HW119175   4.669   1.906   4.408
 6203SOL    HW219176   4.717   1.832   4.546
 6204SOL     OW19177   5.153   3.035   4.591
 6204SOL    HW119178   5.098   2.951   4.584
 6204SOL    HW219179   5.179   3.064   4.499
 6205SOL     OW19180   4.212   3.247   3.898
 6205SOL    HW119181   4.125   3.232   3.945
 6205SOL    HW219182   4.195   3.273   3.803
 6206SOL     OW19183   5.114   2.437   3.802
 6206SOL    HW119184   5.060   2.416   3.883
 6206SOL    HW219185   5.205   2.396   3.811
 6207SOL     OW19186   4.251   2.118   4.052
 6207SOL    HW119187   4.278   2.059   3.977
 6207SOL    HW219188   4.251   2.213   4.021
 6208SOL     OW19189   4.788   3.209   5.064
 6208SOL    HW119190   4.708   3.186   5.119
 6208SOL    HW219191   4.871   3.183   5.113
 6209SOL     OW19192   5.316   3.491   5.349
 6209SOL    HW119193   5.343   3.525   5.259
 6209SOL    HW219194   5.395   3.453   5.395
 6210SOL     OW19195   4.835   3.057   4.824
 6210SOL    HW119196   4.795   3.101   4.905
 6210SOL    HW219197   4.794   3.094   4.741
 6211SOL     OW19198   4.639   1.951   5.126
 6211SOL    HW119199   4.664   1.931   5.031
 6211SOL    HW219200   4.711   2.007   5.168
 6212SOL     OW19201   4.704   2.978   5.443
 6212SOL    HW119202   4.605   2.984   5.453
 6212SOL    HW219203   4.727   2.898   5.387
 6213SOL     OW19204   4.429   2.912   4.092
 6213SOL    HW119205   4.415   2.919   4.191
 6213SOL    HW219206   4.513   2.861   4.074
 6214SOL     OW19207   4.134   2.675   4.975
 6214SOL    HW119208   4.220   2.687   5.025
 6214SOL    HW219209   4.092   2.588   5.002
 6215SOL     OW19210   4.998   2.248   4.986
 6215SOL    HW119211   5.019   2.322   5.050
 6215SOL    HW219212   4.909   2.265   4.943
 6216SOL     OW19213   3.788   3.426   5.055
 6216SOL    HW119214   3.742   3.508   5.021
 6216SOL    HW219215   3.886   3.445   5.064
 6217SOL     OW19216   4.091   2.962   4.225
 6217SOL    HW119217   4.084   3.045   4.169
 6217SOL    HW219218   4.095   2.882   4.165
 6218SOL     OW19219   4.290   2.399   4.589
 6218SOL    HW119220   4.302   2.465   4.515
 6218SOL    HW219221   4.336   2.433   4.672
 6219SOL     OW19222   4.976   3.210   4.112
 6219SOL    HW119223   5.026   3.287   4.152
 6219SOL    HW219224   4.881   3.212   4.144
 6220SOL     OW19225   4.996   3.307   4.866
 6220SOL    HW119226   5.043   3.320   4.953
 6220SOL    HW219227   4.930   3.233   4.875
 6221SOL     OW19228   4.078   3.372   5.053
 6221SOL    HW119229   4.057   3.328   4.966
 6221SOL    HW219230   4.175   3.398   5.056
 6222SOL     OW19231   4.126   2.613   5.322
 6222SOL    HW119232   4.194   2.668   5.275
 6222SOL    HW219233   4.166   2.525   5.349
 6223SOL     OW19234   4.737   1.967   5.494
 6223SOL    HW119235   4.743   2.052   5.442
 6223SOL    HW219236   4.769   1.891   5.437
 6224SOL     OW19237   4.228   1.912   5.464
 6224SOL    HW119238   4.186   1.855   5.394
 6224SOL    HW219239   4.162   1.981   5.496
 6225SOL     OW19240   4.297   2.732   4.753
 6225SOL    HW119241   4.341   2.821   4.744
 6225SOL    HW219242   4.234   2.732   4.830
 6226SOL     OW19243   5.084   2.724   4.769
 6226SOL    HW119244   5.009   2.724   4.703
 6226SOL    HW219245   5.121   2.632   4.778
 6227SOL     OW19246   4.933   2.387   3.999
 6227SOL    HW119247   4.946   2.303   4.053
 6227SOL    HW219248   4.904   2.461   4.059
 6228SOL     OW19249   4.031   2.075   4.955
 6228SOL    HW119250   4.008   2.112   5.045
 6228SOL    HW219251   4.001   1.980   4.949
 6229SOL     OW19252   3.761   3.172   5.006
 6229SOL    HW119253   3.814   3.123   5.074
 6229SOL    HW219254   3.783   3.270   5.011
 6230SOL     OW19255   4.456   2.496   4.788
 6230SOL    HW119256   4.515   2.470   4.712
 6230SOL    HW219257   4.428   2.592   4.777
 6231SOL     OW19258   4.031   1.925   4.342
 6231SOL    HW119259   4.020   2.019   4.375
 6231SOL    HW219260   4.026   1.862   4.419
 6232SOL     OW19261   5.346   2.229   4.098
 6232SOL    HW119262   5.348   2.153   4.162
 6232SOL    HW219263   5.298   2.306   4.138
 6233SOL     OW19264   4.747   2.628   4.690
 6233SOL    HW119265   4.762   2.649   4.786
 6233SOL    HW219266   4.717   2.533   4.681
 6234SOL     OW19267   4.704   3.435   5.424
 6234SOL    HW119268   4.684   3.479   5.336
 6234SOL    HW219269   4.743   3.344   5.408
 6235SOL     OW19270   4.074   2.760   5.528
 6235SOL    HW119271   4.150   2.804   5.576
 6235SOL    HW219272   4.109   2.713   5.446
 6236SOL     OW19273   5.027   2.700   3.766
 6236SOL    HW119274   5.061   2.607   3.781
 6236SOL    HW219275   5.045   2.727   3.671
 6237SOL     OW19276   4.792   3.195   4.573
 6237SOL    HW119277   4.799   3.111   4.518
 6237SOL    HW219278   4.854   3.264   4.537
 6238SOL     OW19279   4.043   2.672   4.673
 6238SOL    HW119280   4.136   2.708   4.678
 6238SOL    HW219281   4.037   2.587   4.725
 6239SOL     OW19282   4.063   2.371   4.730
 6239SOL    HW119283   4.011   2.288   4.713
 6239SOL    HW219284   4.140   2.376   4.666
 6240SOL     OW19285   4.862   2.242   5.402
 6240SOL    HW119286   4.817   2.305   5.466
 6240SOL    HW219287   4.955   2.273   5.385
 6241SOL     OW19288   4.884   2.069   5.201
 6241SOL    HW119289   4.884   2.133   5.278
 6241SOL    HW219290   4.912   2.117   5.118
 6242SOL     OW19291   3.732   3.188   3.924
 6242SOL    HW119292   3.639   3.209   3.893
 6242SOL    HW219293   3.742   3.089   3.937
 6243SOL     OW19294   3.812   3.663   4.651
 6243SOL    HW119295   3.770   3.577   4.624
 6243SOL    HW219296   3.906   3.666   4.617
 6244SOL     OW19297   4.228   3.430   4.634
 6244SOL    HW119298   4.294   3.504   4.643
 6244SOL    HW219299   4.272   3.351   4.592
 6245SOL     OW19300   4.726   2.658   4.962
 6245SOL    HW119301   4.767   2.626   5.048
 6245SOL    HW219302   4.630   2.631   4.959
 6246SOL     OW19303   3.764   2.406   4.838
 6246SOL    HW119304   3.849   2.373   4.797
 6246SOL    HW219305   3.777   2.421   4.936
 6247SOL     OW19306   3.913   2.382   5.446
 6247SOL    HW119307   3.972   2.342   5.376
 6247SOL    HW219308   3.855   2.453   5.405
 6248SOL     OW19309   5.093   2.812   5.384
 6248SOL    HW119310   5.132   2.901   5.404
 6248SOL    HW219311   5.103   2.792   5.287
 6249SOL     OW19312   4.539   2.434   4.049
 6249SOL    HW119313   4.546   2.345   4.003
 6249SOL    HW219314   4.445   2.468   4.041
 6250SOL     OW19315   3.976   3.426   5.468
 6250SOL    HW119316   3.946   3.483   5.544
 6250SOL    HW219317   3.969   3.329   5.494
 6251SOL     OW19318   4.395   2.326   4.993
 6251SOL    HW119319   4.361   2.237   4.963
 6251SOL    HW219320   4.421   2.380   4.913
 6252SOL     OW19321   4.654   3.540   5.189
 6252SOL    HW119322   4.630   3.522   5.094
 6252SOL    HW219323   4.684   3.634   5.199
 6253SOL     OW19324   4.197   2.362   3.915
 6253SOL    HW119325   4.258   2.442   3.919
 6253SOL    HW219326   4.102   2.393   3.922
 6254SOL     OW19327   3.883   2.999   5.190
 6254SOL    HW119328   3.905   2.938   5.266
 6254SOL    HW219329   3.893   2.950   5.104
 6255SOL     OW19330   5.071   2.921   4.958
 6255SOL    HW119331   5.095   2.858   4.884
 6255SOL    HW219332   4.981   2.961   4.940
 6256SOL     OW19333   5.026   2.717   4.033
 6256SOL    HW119334   4.940   2.686   4.075
 6256SOL    HW219335   5.022   2.703   3.934
 6257SOL     OW19336   4.976   3.593   4.852
 6257SOL    HW119337   5.060   3.598   4.798
 6257SOL    HW219338   4.953   3.497   4.870
 6258SOL     OW19339   3.807   3.120   4.746
 6258SOL    HW119340   3.802   3.119   4.846
 6258SOL    HW219341   3.724   3.079   4.708
 6259SOL     OW19342   4.412   3.524   5.440
 6259SOL    HW119343   4.356   3.605   5.449
 6259SOL    HW219344   4.464   3.528   5.354
 6260SOL     OW19345   5.450   1.997   4.247
 6260SOL    HW119346   5.523   1.980   4.180
 6260SOL    HW219347   5.419   1.910   4.285
 6261SOL     OW19348   5.112   3.435   4.201
 6261SOL    HW119349   5.179   3.447   4.127
 6261SOL    HW219350   5.072   3.524   4.224
 6262SOL     OW19351   3.854   3.656   5.575
 6262SOL    HW119352   3.813   3.582   5.628
 6262SOL    HW219353   3.918   3.707   5.633
 6263SOL     OW19354   5.004   2.789   4.396
 6263SOL    HW119355   5.064   2.708   4.398
 6263SOL    HW219356   5.044   2.858   4.336
 6264SOL     OW19357   4.554   3.135   5.146
 6264SOL    HW119358   4.549   3.168   5.241
 6264SOL    HW219359   4.468   3.154   5.100
 6265SOL     OW19360   4.396   3.478   3.878
 6265SOL    HW119361   4.405   3.488   3.779
 6265SOL    HW219362   4.356   3.389   3.899
 6266SOL     OW19363   3.987   2.188   4.444
 6266SOL    HW119364   3.908   2.239   4.410
 6266SOL    HW219365   3.978   2.173   4.542
 6267SOL     OW19366   4.918   3.474   3.755
 6267SOL    HW119367   4.924   3.381   3.792
 6267SOL    HW219368   4.859   3.474   3.675
 6268SOL     OW19369   4.546   2.864   5.096
 6268SOL    HW119370   4.586   2.863   5.004
 6268SOL    HW219371   4.556   2.956   5.136
 6269SOL     OW19372   4.640   2.772   4.015
 6269SOL    HW119373   4.703   2.810   3.947
 6269SOL    HW219374   4.680   2.689   4.054
 6270SOL     OW19375   4.096   3.150   5.214
 6270SOL    HW119376   4.083   3.243   5.180
 6270SOL    HW219377   4.012   3.098   5.201
 6271SOL     OW19378   4.763   2.960   4.420
 6271SOL    HW119379   4.693   2.913   4.474
 6271SOL    HW219380   4.822   2.892   4.377
 6272SOL     OW19381   4.738   2.098   4.695
 6272SOL    HW119382   4.730   2.062   4.602
 6272SOL    HW219383   4.736   2.022   4.760
 6273SOL     OW19384   4.314   3.349   4.215
 6273SOL    HW119385   4.356   3.291   4.145
 6273SOL    HW219386   4.270   3.428   4.171
 6274SOL     OW19387   3.979   3.210   4.014
 6274SOL    HW119388   3.883   3.211   3.987
 6274SOL    HW219389   3.991   3.263   4.098
 6275SOL     OW19390   3.829   2.875   5.450
 6275SOL    HW119391   3.752   2.842   5.504
 6275SOL    HW219392   3.914   2.845   5.492
 6276SOL     OW19393   4.396   2.065   5.213
 6276SOL    HW119394   4.486   2.049   5.173
 6276SOL    HW219395   4.404   2.070   5.312
 6277SOL     OW19396   3.799   2.207   3.757
 6277SOL    HW119397   3.707   2.179   3.728
 6277SOL    HW219398   3.830   2.284   3.701
 6278SOL     OW19399   5.164   2.718   5.122
 6278SOL    HW119400   5.107   2.770   5.059
 6278SOL    HW219401   5.260   2.730   5.098
 6279SOL     OW19402   3.796   2.028   4.042
 6279SOL    HW119403   3.779   2.111   3.988
 6279SOL    HW219404   3.886   1.991   4.020
 6280SOL     OW19405   4.907   3.197   3.843
 6280SOL    HW119406   4.808   3.186   3.845
 6280SOL    HW219407   4.941   3.212   3.936
 6281SOL     OW19408   4.337   2.704   5.155
 6281SOL    HW119409   4.393   2.785   5.138
 6281SOL    HW219410   4.396   2.624   5.158
 6282SOL     OW19411   4.440   2.427   5.432
 6282SOL    HW119412   4.459   2.492   5.506
 6282SOL    HW219413   4.500   2.347   5.441
 6283SOL     OW19414   5.174   3.082   5.357
 6283SOL    HW119415   5.165   3.072   5.456
 6283SOL    HW219416   5.270   3.075   5.331
 6284SOL     OW19417   4.114   3.603   5.284
 6284SOL    HW119418   4.023   3.644   5.282
 6284SOL    HW219419   4.107   3.509   5.316
 6285SOL     OW19420   4.949   2.187   4.173
 6285SOL    HW119421   5.014   2.113   4.162
 6285SOL    HW219422   4.969   2.237   4.257
 6286SOL     OW19423   4.318   2.607   4.376
 6286SOL    HW119424   4.368   2.692   4.357
 6286SOL    HW219425   4.230   2.609   4.328
 6287SOL     OW19426   4.583   3.236   3.740
 6287SOL    HW119427   4.537   3.251   3.828
 6287SOL    HW219428   4.627   3.321   3.710
 6288SOL     OW19429   4.385   3.652   4.677
 6288SOL    HW119430   4.339   3.740   4.664
 6288SOL    HW219431   4.484   3.664   4.670
 6289SOL     OW19432   4.583   2.818   4.585
 6289SOL    HW119433   4.637   2.749   4.633
 6289SOL    HW219434   4.551   2.887   4.651
 6290SOL     OW19435   4.807   2.846   3.811
 6290SOL    HW119436   4.784   2.899   3.729
 6290SOL    HW219437   4.888   2.790   3.792
 6291SOL     OW19438   3.945   3.176   5.568
 6291SOL    HW119439   3.880   3.103   5.547
 6291SOL    HW219440   3.949   3.190   5.666
 6292SOL     OW19441   3.803   3.102   4.377
 6292SOL    HW119442   3.802   3.055   4.465
 6292SOL    HW219443   3.885   3.074   4.326
 6293SOL     OW19444   4.396   3.253   5.348
 6293SOL    HW119445   4.318   3.203   5.386
 6293SOL    HW219446   4.393   3.348   5.379
 6294SOL     OW19447   4.152   2.286   4.244
 6294SOL    HW119448   4.182   2.214   4.182
 6294SOL    HW219449   4.113   2.246   4.327
 6295SOL     OW19450   5.429   3.349   4.828
 6295SOL    HW119451   5.336   3.324   4.801
 6295SOL    HW219452   5.455   3.299   4.910
 6296SOL     OW19453   4.041   2.409   5.004
 6296SOL    HW119454   4.079   2.350   5.076
 6296SOL    HW219455   4.081   2.383   4.916
 6297SOL     OW19456   4.536   3.448   4.411
 6297SOL    HW119457   4.568   3.458   4.317
 6297SOL    HW219458   4.457   3.386   4.413
 6298SOL     OW19459   5.148   2.076   4.836
 6298SOL    HW119460   5.200   2.011   4.891
 6298SOL    HW219461   5.099   2.139   4.897
 6299SOL     OW19462   4.725   1.896   4.878
 6299SOL    HW119463   4.662   1.824   4.847
 6299SOL    HW219464   4.818   1.860   4.878
 6300SOL     OW19465   4.494   3.192   4.025
 6300SOL    HW119466   4.448   3.105   4.042
 6300SOL    HW219467   4.585   3.189   4.066
 6301SOL     OW19468   4.342   3.429   5.008
 6301SOL    HW119469   4.337   3.511   5.065
 6301SOL    HW219470   4.431   3.426   4.963
 6302SOL     OW19471   5.076   1.914   3.892
 6302SOL    HW119472   5.111   1.873   3.808
 6302SOL    HW219473   4.986   1.876   3.912
 6303SOL     OW19474   5.024   2.315   4.415
 6303SOL    HW119475   4.965   2.395   4.419
 6303SOL    HW219476   5.039   2.280   4.508
 6304SOL     OW19477   5.317   2.083   4.606
 6304SOL    HW119478   5.233   2.082   4.660
 6304SOL    HW219479   5.319   2.166   4.550
 6305SOL     OW19480   3.763   2.939   4.024
 6305SOL    HW119481   3.862   2.928   4.015
 6305SOL    HW219482   3.723   2.853   4.056
 6306SOL     OW19483   4.599   3.508   4.061
 6306SOL    HW119484   4.522   3.473   4.007
 6306SOL    HW219485   4.567   3.579   4.123
 6307SOL     OW19486   3.954   2.490   5.699
 6307SOL    HW119487   3.861   2.488   5.736
 6307SOL    HW219488   3.955   2.451   5.607
 6308SOL     OW19489   3.949   2.137   6.582
 6308SOL    HW119490   3.984   2.120   6.674
 6308SOL    HW219491   3.861   2.092   6.570
 6309SOL     OW19492   3.743   2.230   6.233
 6309SOL    HW119493   3.661   2.273   6.272
 6309SOL    HW219494   3.715   2.157   6.170
 6310SOL     OW19495   4.293   3.137   6.751
 6310SOL    HW119496   4.200   3.130   6.714
 6310SOL    HW219497   4.304   3.226   6.795
 6311SOL     OW19498   5.279   3.373   6.289
 6311SOL    HW119499   5.222   3.357   6.370
 6311SOL    HW219500   5.220   3.383   6.209
 6312SOL     OW19501   4.859   2.565   6.303
 6312SOL    HW119502   4.916   2.643   6.278
 6312SOL    HW219503   4.799   2.591   6.379
 6313SOL     OW19504   4.492   3.006   6.609
 6313SOL    HW119505   4.414   3.023   6.669
 6313SOL    HW219506   4.526   3.093   6.573
 6314SOL     OW19507   4.574   2.660   7.409
 6314SOL    HW119508   4.570   2.736   7.474
 6314SOL    HW219509   4.596   2.696   7.318
 6315SOL     OW19510   4.409   2.874   6.251
 6315SOL    HW119511   4.478   2.858   6.321
 6315SOL    HW219512   4.336   2.931   6.289
 6316SOL     OW19513   4.410   3.023   7.389
 6316SOL    HW119514   4.470   3.102   7.403
 6316SOL    HW219515   4.324   3.054   7.348
 6317SOL     OW19516   4.059   3.297   6.647
 6317SOL    HW119517   3.981   3.266   6.594
 6317SOL    HW219518   4.117   3.355   6.590
 6318SOL     OW19519   5.184   3.367   6.925
 6318SOL    HW119520   5.208   3.461   6.951
 6318SOL    HW219521   5.168   3.313   7.007
 6319SOL     OW19522   4.162   2.254   7.085
 6319SOL    HW119523   4.244   2.198   7.094
 6319SOL    HW219524   4.081   2.196   7.089
 6320SOL     OW19525   3.955   3.575   6.069
 6320SOL    HW119526   3.989   3.652   6.123
 6320SOL    HW219527   3.999   3.575   5.979
 6321SOL     OW19528   4.851   3.203   7.276
 6321SOL    HW119529   4.898   3.203   7.364
 6321SOL    HW219530   4.803   3.116   7.265
 6322SOL     OW19531   3.954   3.296   6.124
 6322SOL    HW119532   3.928   3.392   6.124
 6322SOL    HW219533   3.883   3.242   6.169
 6323SOL     OW19534   3.964   2.953   6.472
 6323SOL    HW119535   3.978   2.869   6.524
 6323SOL    HW219536   3.909   3.017   6.527
 6324SOL     OW19537   4.344   3.648   7.025
 6324SOL    HW119538   4.252   3.631   7.060
 6324SOL    HW219539   4.372   3.740   7.051
 6325SOL     OW19540   4.330   2.826   5.709
 6325SOL    HW119541   4.337   2.910   5.655
 6325SOL    HW219542   4.376   2.839   5.797
 6326SOL     OW19543   3.846   2.505   6.149
 6326SOL    HW119544   3.801   2.417   6.166
 6326SOL    HW219545   3.845   2.559   6.233
 6327SOL     OW19546   3.751   3.458   5.703
 6327SOL    HW119547   3.732   3.362   5.724
 6327SOL    HW219548   3.718   3.516   5.778
 6328SOL     OW19549   5.413   2.784   6.198
 6328SOL    HW119550   5.508   2.755   6.206
 6328SOL    HW219551   5.405   2.849   6.123
 6329SOL     OW19552   3.837   2.599   7.183
 6329SOL    HW119553   3.925   2.586   7.228
 6329SOL    HW219554   3.824   2.696   7.161
 6330SOL     OW19555   4.337   3.227   6.312
 6330SOL    HW119556   4.288   3.140   6.321
 6330SOL    HW219557   4.314   3.270   6.225
 6331SOL     OW19558   5.017   3.090   7.009
 6331SOL    HW119559   5.054   3.017   6.951
 6331SOL    HW219560   5.069   3.095   7.094
 6332SOL     OW19561   4.533   1.866   6.088
 6332SOL    HW119562   4.573   1.957   6.079
 6332SOL    HW219563   4.433   1.874   6.094
 6333SOL     OW19564   3.921   2.838   6.850
 6333SOL    HW119565   4.010   2.793   6.836
 6333SOL    HW219566   3.848   2.773   6.831
 6334SOL     OW19567   4.911   3.654   7.202
 6334SOL    HW119568   4.935   3.714   7.126
 6334SOL    HW219569   4.918   3.559   7.172
 6335SOL     OW19570   4.041   2.113   7.387
 6335SOL    HW119571   4.112   2.184   7.393
 6335SOL    HW219572   3.953   2.152   7.415
 6336SOL     OW19573   5.190   3.279   6.539
 6336SOL    HW119574   5.131   3.285   6.619
 6336SOL    HW219575   5.175   3.191   6.493
 6337SOL     OW19576   4.322   2.591   5.856
 6337SOL    HW119577   4.346   2.660   5.788
 6337SOL    HW219578   4.244   2.624   5.910
 6338SOL     OW19579   5.005   2.207   6.530
 6338SOL    HW119580   4.919   2.157   6.517
 6338SOL    HW219581   5.067   2.153   6.586
 6339SOL     OW19582   4.531   2.467   7.051
 6339SOL    HW119583   4.484   2.464   7.140
 6339SOL    HW219584   4.480   2.412   6.985
 6340SOL     OW19585   5.118   2.331   7.260
 6340SOL    HW119586   5.098   2.374   7.348
 6340SOL    HW219587   5.196   2.269   7.269
 6341SOL     OW19588   4.697   2.752   7.158
 6341SOL    HW119589   4.743   2.668   7.129
 6341SOL    HW219590   4.641   2.786   7.083
 6342SOL     OW19591   4.715   2.272   6.828
 6342SOL    HW119592   4.638   2.306   6.882
 6342SOL    HW219593   4.681   2.221   6.749
 6343SOL     OW19594   4.765   2.563   6.015
 6343SOL    HW119595   4.791   2.559   6.111
 6343SOL    HW219596   4.680   2.512   6.001
 6344SOL     OW19597   3.800   2.673   6.375
 6344SOL    HW119598   3.899   2.661   6.384
 6344SOL    HW219599   3.776   2.768   6.396
 6345SOL     OW19600   3.854   3.683   7.157
 6345SOL    HW119601   3.844   3.668   7.256
 6345SOL    HW219602   3.768   3.719   7.121
 6346SOL     OW19603   4.589   2.210   5.781
 6346SOL    HW119604   4.648   2.273   5.732
 6346SOL    HW219605   4.608   2.116   5.752
 6347SOL     OW19606   5.086   3.006   6.131
 6347SOL    HW119607   5.169   2.977   6.083
 6347SOL    HW219608   5.037   3.073   6.075
 6348SOL     OW19609   4.274   2.058   6.471
 6348SOL    HW119610   4.269   2.053   6.571
 6348SOL    HW219611   4.276   2.154   6.442
 6349SOL     OW19612   4.732   3.318   6.063
 6349SOL    HW119613   4.686   3.390   6.011
 6349SOL    HW219614   4.728   3.338   6.161
 6350SOL     OW19615   4.075   3.663   6.439
 6350SOL    HW119616   4.125   3.577   6.445
 6350SOL    HW219617   4.140   3.740   6.436
 6351SOL     OW19618   4.951   3.412   7.092
 6351SOL    HW119619   4.957   3.335   7.156
 6351SOL    HW219620   4.899   3.386   7.012
 6352SOL     OW19621   4.045   2.805   5.828
 6352SOL    HW119622   4.127   2.844   5.786
 6352SOL    HW219623   4.018   2.723   5.779
 6353SOL     OW19624   4.185   3.128   7.313
 6353SOL    HW119625   4.135   3.129   7.227
 6353SOL    HW219626   4.122   3.110   7.389
 6354SOL     OW19627   4.835   3.638   5.823
 6354SOL    HW119628   4.775   3.576   5.873
 6354SOL    HW219629   4.866   3.594   5.738
 6355SOL     OW19630   3.926   2.147   7.084
 6355SOL    HW119631   3.846   2.207   7.071
 6355SOL    HW219632   3.916   2.098   7.170
 6356SOL     OW19633   4.188   3.605   5.909
 6356SOL    HW119634   4.221   3.644   5.995
 6356SOL    HW219635   4.264   3.598   5.844
 6357SOL     OW19636   5.124   1.969   6.012
 6357SOL    HW119637   5.100   1.932   5.922
 6357SOL    HW219638   5.223   1.985   6.016
 6358SOL     OW19639   3.973   3.647   6.827
 6358SOL    HW119640   4.030   3.582   6.877
 6358SOL    HW219641   3.957   3.614   6.734
 6359SOL     OW19642   4.664   3.560   6.490
 6359SOL    HW119643   4.744   3.503   6.511
 6359SOL    HW219644   4.615   3.520   6.413
 6360SOL     OW19645   4.106   2.562   6.066
 6360SOL    HW119646   4.151   2.472   6.063
 6360SOL    HW219647   4.012   2.551   6.099
 6361SOL     OW19648   4.338   1.984   5.703
 6361SOL    HW119649   4.436   1.962   5.710
 6361SOL    HW219650   4.307   1.967   5.610
 6362SOL     OW19651   4.505   2.126   7.335
 6362SOL    HW119652   4.572   2.065   7.378
 6362SOL    HW219653   4.432   2.145   7.400
 6363SOL     OW19654   4.612   3.376   6.781
 6363SOL    HW119655   4.589   3.351   6.687
 6363SOL    HW219656   4.673   3.307   6.820
 6364SOL     OW19657   5.075   2.452   7.019
 6364SOL    HW119658   5.103   2.409   7.104
 6364SOL    HW219659   5.100   2.548   7.020
 6365SOL     OW19660   4.527   3.264   6.510
 6365SOL    HW119661   4.617   3.278   6.468
 6365SOL    HW219662   4.456   3.266   6.439
 6366SOL     OW19663   4.646   2.365   6.485
 6366SOL    HW119664   4.621   2.356   6.389
 6366SOL    HW219665   4.694   2.283   6.516
 6367SOL     OW19666   4.263   1.926   6.098
 6367SOL    HW119667   4.182   1.927   6.156
 6367SOL    HW219668   4.266   2.009   6.043
 6368SOL     OW19669   5.158   3.050   5.627
 6368SOL    HW119670   5.190   2.974   5.684
 6368SOL    HW219671   5.066   3.077   5.657
 6369SOL     OW19672   4.021   1.897   5.757
 6369SOL    HW119673   4.070   1.981   5.736
 6369SOL    HW219674   4.083   1.832   5.802
 6370SOL     OW19675   4.659   2.098   6.066
 6370SOL    HW119676   4.611   2.139   5.988
 6370SOL    HW219677   4.758   2.096   6.047
 6371SOL     OW19678   4.800   2.545   7.050
 6371SOL    HW119679   4.720   2.484   7.053
 6371SOL    HW219680   4.881   2.492   7.026
 6372SOL     OW19681   4.951   3.432   6.379
 6372SOL    HW119682   4.972   3.506   6.314
 6372SOL    HW219683   5.019   3.432   6.452
 6373SOL     OW19684   4.183   3.014   6.327
 6373SOL    HW119685   4.112   2.987   6.392
 6373SOL    HW219686   4.157   2.986   6.234
 6374SOL     OW19687   4.995   3.659   6.177
 6374SOL    HW119688   5.039   3.723   6.113
 6374SOL    HW219689   4.945   3.711   6.247
 6375SOL     OW19690   4.756   2.411   5.602
 6375SOL    HW119691   4.715   2.493   5.563
 6375SOL    HW219692   4.820   2.437   5.675
 6376SOL     OW19693   3.802   2.418   6.972
 6376SOL    HW119694   3.894   2.417   6.931
 6376SOL    HW219695   3.796   2.492   7.039
 6377SOL     OW19696   4.285   2.084   6.733
 6377SOL    HW119697   4.323   2.000   6.770
 6377SOL    HW219698   4.197   2.103   6.777
 6378SOL     OW19699   4.590   2.316   6.228
 6378SOL    HW119700   4.558   2.388   6.166
 6378SOL    HW219701   4.614   2.235   6.175
 6379SOL     OW19702   4.741   1.901   6.339
 6379SOL    HW119703   4.669   1.906   6.270
 6379SOL    HW219704   4.717   1.832   6.408
 6380SOL     OW19705   5.153   3.035   6.453
 6380SOL    HW119706   5.098   2.951   6.446
 6380SOL    HW219707   5.179   3.064   6.361
 6381SOL     OW19708   4.212   3.247   5.760
 6381SOL    HW119709   4.125   3.232   5.807
 6381SOL    HW219710   4.195   3.273   5.665
 6382SOL     OW19711   5.114   2.437   5.664
 6382SOL    HW119712   5.060   2.416   5.745
 6382SOL    HW219713   5.205   2.396   5.673
 6383SOL     OW19714   4.251   2.118   5.914
 6383SOL    HW119715   4.278   2.059   5.839
 6383SOL    HW219716   4.251   2.213   5.883
 6384SOL     OW19717   4.788   3.209   6.926
 6384SOL    HW119718   4.708   3.186   6.981
 6384SOL    HW219719   4.871   3.183   6.975
 6385SOL     OW19720   5.316   3.491   7.211
 6385SOL    HW119721   5.343   3.525   7.121
 6385SOL    HW219722   5.395   3.453   7.257
 6386SOL     OW19723   4.835   3.057   6.686
 6386SOL    HW119724   4.795   3.101   6.767
 6386SOL    HW219725   4.794   3.094   6.603
 6387SOL     OW19726   4.639   1.951   6.988
 6387SOL    HW119727   4.664   1.931   6.893
 6387SOL    HW219728   4.711   2.007   7.030
 6388SOL     OW19729   4.704   2.978   7.305
 6388SOL    HW119730   4.605   2.984   7.315
 6388SOL    HW219731   4.727   2.898   7.249
 6389SOL     OW19732   4.429   2.912   5.954
 6389SOL    HW119733   4.415   2.919   6.053
 6389SOL    HW219734   4.513   2.861   5.936
 6390SOL     OW19735   4.134   2.675   6.837
 6390SOL    HW119736   4.220   2.687   6.887
 6390SOL    HW219737   4.092   2.588   6.864
 6391SOL     OW19738   4.998   2.248   6.848
 6391SOL    HW119739   5.019   2.322   6.912
 6391SOL    HW219740   4.909   2.265   6.805
 6392SOL     OW19741   3.788   3.426   6.917
 6392SOL    HW119742   3.742   3.508   6.883
 6392SOL    HW219743   3.886   3.445   6.926
 6393SOL     OW19744   4.091   2.962   6.087
 6393SOL    HW119745   4.084   3.045   6.031
 6393SOL    HW219746   4.095   2.882   6.027
 6394SOL     OW19747   4.290   2.399   6.451
 6394SOL    HW119748   4.302   2.465   6.377
 6394SOL    HW219749   4.336   2.433   6.534
 6395SOL     OW19750   4.976   3.210   5.974
 6395SOL    HW119751   5.026   3.287   6.014
 6395SOL    HW219752   4.881   3.212   6.006
 6396SOL     OW19753   4.996   3.307   6.728
 6396SOL    HW119754   5.043   3.320   6.815
 6396SOL    HW219755   4.930   3.233   6.737
 6397SOL     OW19756   4.078   3.372   6.915
 6397SOL    HW119757   4.057   3.328   6.828
 6397SOL    HW219758   4.175   3.398   6.918
 6398SOL     OW19759   4.126   2.613   7.184
 6398SOL    HW119760   4.194   2.668   7.137
 6398SOL    HW219761   4.166   2.525   7.211
 6399SOL     OW19762   4.737   1.967   7.356
 6399SOL    HW119763   4.743   2.052   7.304
 6399SOL    HW219764   4.769   1.891   7.299
 6400SOL     OW19765   4.228   1.912   7.326
 6400SOL    HW119766   4.186   1.855   7.256
 6400SOL    HW219767   4.162   1.981   7.358
 6401SOL     OW19768   4.297   2.732   6.615
 6401SOL    HW119769   4.341   2.821   6.606
 6401SOL    HW219770   4.234   2.732   6.692
 6402SOL     OW19771   5.084   2.724   6.631
 6402SOL    HW119772   5.009   2.724   6.565
 6402SOL    HW219773   5.121   2.632   6.640
 6403SOL     OW19774   4.933   2.387   5.861
 6403SOL    HW119775   4.946   2.303   5.915
 6403SOL    HW219776   4.904   2.461   5.921
 6404SOL     OW19777   4.031   2.075   6.817
 6404SOL    HW119778   4.008   2.112   6.907
 6404SOL    HW219779   4.001   1.980   6.811
 6405SOL     OW19780   3.761   3.172   6.868
 6405SOL    HW119781   3.814   3.123   6.936
 6405SOL    HW219782   3.783   3.270   6.873
 6406SOL     OW19783   4.456   2.496   6.650
 6406SOL    HW119784   4.515   2.470   6.574
 6406SOL    HW219785   4.428   2.592   6.639
 6407SOL     OW19786   4.031   1.925   6.204
 6407SOL    HW119787   4.020   2.019   6.237
 6407SOL    HW219788   4.026   1.862   6.281
 6408SOL     OW19789   5.346   2.229   5.960
 6408SOL    HW119790   5.348   2.153   6.024
 6408SOL    HW219791   5.298   2.306   6.000
 6409SOL     OW19792   4.747   2.628   6.552
 6409SOL    HW119793   4.762   2.649   6.648
 6409SOL    HW219794   4.717   2.533   6.543
 6410SOL     OW19795   4.704   3.435   7.286
 6410SOL    HW119796   4.684   3.479   7.198
 6410SOL    HW219797   4.743   3.344   7.270
 6411SOL     OW19798   4.074   2.760   7.390
 6411SOL    HW119799   4.150   2.804   7.438
 6411SOL    HW219800   4.109   2.713   7.308
 6412SOL     OW19801   5.027   2.700   5.628
 6412SOL    HW119802   5.061   2.607   5.643
 6412SOL    HW219803   5.045   2.727   5.533
 6413SOL     OW19804   4.792   3.195   6.435
 6413SOL    HW119805   4.799   3.111   6.380
 6413SOL    HW219806   4.854   3.264   6.399
 6414SOL     OW19807   4.043   2.672   6.535
 6414SOL    HW119808   4.136   2.708   6.540
 6414SOL    HW219809   4.037   2.587   6.587
 6415SOL     OW19810   4.063   2.371   6.592
 6415SOL    HW119811   4.011   2.288   6.575
 6415SOL    HW219812   4.140   2.376   6.528
 6416SOL     OW19813   4.862   2.242   7.264
 6416SOL    HW119814   4.817   2.305   7.328
 6416SOL    HW219815   4.955   2.273   7.247
 6417SOL     OW19816   4.884   2.069   7.063
 6417SOL    HW119817   4.884   2.133   7.140
 6417SOL    HW219818   4.912   2.117   6.980
 6418SOL     OW19819   3.732   3.188   5.786
 6418SOL    HW119820   3.639   3.209   5.755
 6418SOL    HW219821   3.742   3.089   5.799
 6419SOL     OW19822   3.812   3.663   6.513
 6419SOL    HW119823   3.770   3.577   6.486
 6419SOL    HW219824   3.906   3.666   6.479
 6420SOL     OW19825   4.228   3.430   6.496
 6420SOL    HW119826   4.294   3.504   6.505
 6420SOL    HW219827   4.272   3.351   6.454
 6421SOL     OW19828   4.726   2.658   6.824
 6421SOL    HW119829   4.767   2.626   6.910
 6421SOL    HW219830   4.630   2.631   6.821
 6422SOL     OW19831   3.764   2.406   6.700
 6422SOL    HW119832   3.849   2.373   6.659
 6422SOL    HW219833   3.777   2.421   6.798
 6423SOL     OW19834   3.913   2.382   7.308
 6423SOL    HW119835   3.972   2.342   7.238
 6423SOL    HW219836   3.855   2.453   7.267
 6424SOL     OW19837   5.093   2.812   7.246
 6424SOL    HW119838   5.132   2.901   7.266
 6424SOL    HW219839   5.103   2.792   7.149
 6425SOL     OW19840   4.539   2.434   5.911
 6425SOL    HW119841   4.546   2.345   5.865
 6425SOL    HW219842   4.445   2.468   5.903
 6426SOL     OW19843   3.976   3.426   7.330
 6426SOL    HW119844   3.946   3.483   7.406
 6426SOL    HW219845   3.969   3.329   7.356
 6427SOL     OW19846   4.395   2.326   6.855
 6427SOL    HW119847   4.361   2.237   6.825
 6427SOL    HW219848   4.421   2.380   6.775
 6428SOL     OW19849   4.654   3.540   7.051
 6428SOL    HW119850   4.630   3.522   6.956
 6428SOL    HW219851   4.684   3.634   7.061
 6429SOL     OW19852   4.197   2.362   5.777
 6429SOL    HW119853   4.258   2.442   5.781
 6429SOL    HW219854   4.102   2.393   5.784
 6430SOL     OW19855   3.883   2.999   7.052
 6430SOL    HW119856   3.905   2.938   7.128
 6430SOL    HW219857   3.893   2.950   6.966
 6431SOL     OW19858   5.071   2.921   6.820
 6431SOL    HW119859   5.095   2.858   6.746
 6431SOL    HW219860   4.981   2.961   6.802
 6432SOL     OW19861   5.026   2.717   5.895
 6432SOL    HW119862   4.940   2.686   5.937
 6432SOL    HW219863   5.022   2.703   5.796
 6433SOL     OW19864   4.976   3.593   6.714
 6433SOL    HW119865   5.060   3.598   6.660
 6433SOL    HW219866   4.953   3.497   6.732
 6434SOL     OW19867   3.807   3.120   6.608
 6434SOL    HW119868   3.802   3.119   6.708
 6434SOL    HW219869   3.724   3.079   6.570
 6435SOL     OW19870   4.412   3.524   7.302
 6435SOL    HW119871   4.356   3.605   7.311
 6435SOL    HW219872   4.464   3.528   7.216
 6436SOL     OW19873   5.450   1.997   6.109
 6436SOL    HW119874   5.523   1.980   6.042
 6436SOL    HW219875   5.419   1.910   6.147
 6437SOL     OW19876   5.112   3.435   6.063
 6437SOL    HW119877   5.179   3.447   5.989
 6437SOL    HW219878   5.072   3.524   6.086
 6438SOL     OW19879   3.854   3.656   7.437
 6438SOL    HW119880   3.813   3.582   7.490
 6438SOL    HW219881   3.918   3.707   7.495
 6439SOL     OW19882   5.004   2.789   6.258
 6439SOL    HW119883   5.064   2.708   6.260
 6439SOL    HW219884   5.044   2.858   6.198
 6440SOL     OW19885   4.554   3.135   7.008
 6440SOL    HW119886   4.549   3.168   7.103
 6440SOL    HW219887   4.468   3.154   6.962
 6441SOL     OW19888   4.396   3.478   5.740
 6441SOL    HW119889   4.405   3.488   5.641
 6441SOL    HW219890   4.356   3.389   5.761
 6442SOL     OW19891   3.987   2.188   6.306
 6442SOL    HW119892   3.908   2.239   6.272
 6442SOL    HW219893   3.978   2.173   6.404
 6443SOL     OW19894   4.918   3.474   5.617
 6443SOL    HW119895   4.924   3.381   5.654
 6443SOL    HW219896   4.859   3.474   5.537
 6444SOL     OW19897   4.546   2.864   6.958
 6444SOL    HW119898   4.586   2.863   6.866
 6444SOL    HW219899   4.556   2.956   6.998
 6445SOL     OW19900   4.640   2.772   5.877
 6445SOL    HW119901   4.703   2.810   5.809
 6445SOL    HW219902   4.680   2.689   5.916
 6446SOL     OW19903   4.096   3.150   7.076
 6446SOL    HW119904   4.083   3.243   7.042
 6446SOL    HW219905   4.012   3.098   7.063
 6447SOL     OW19906   4.763   2.960   6.282
 6447SOL    HW119907   4.693   2.913   6.336
 6447SOL    HW219908   4.822   2.892   6.239
 6448SOL     OW19909   4.738   2.098   6.557
 6448SOL    HW119910   4.730   2.062   6.464
 6448SOL    HW219911   4.736   2.022   6.622
 6449SOL     OW19912   4.314   3.349   6.077
 6449SOL    HW119913   4.356   3.291   6.007
 6449SOL    HW219914   4.270   3.428   6.033
 6450SOL     OW19915   3.979   3.210   5.876
 6450SOL    HW119916   3.883   3.211   5.849
 6450SOL    HW219917   3.991   3.263   5.960
 6451SOL     OW19918   3.829   2.875   7.312
 6451SOL    HW119919   3.752   2.842   7.366
 6451SOL    HW219920   3.914   2.845   7.354
 6452SOL     OW19921   4.396   2.065   7.075
 6452SOL    HW119922   4.486   2.049   7.035
 6452SOL    HW219923   4.404   2.070   7.174
 6453SOL     OW19924   3.799   2.207   5.619
 6453SOL    HW119925   3.707   2.179   5.590
 6453SOL    HW219926   3.830   2.284   5.563
 6454SOL     OW19927   5.164   2.718   6.984
 6454SOL    HW119928   5.107   2.770   6.921
 6454SOL    HW219929   5.260   2.730   6.960
 6455SOL     OW19930   3.796   2.028   5.904
 6455SOL    HW119931   3.779   2.111   5.850
 6455SOL    HW219932   3.886   1.991   5.882
 6456SOL     OW19933   4.907   3.197   5.705
 6456SOL    HW119934   4.808   3.186   5.707
 6456SOL    HW219935   4.941   3.212   5.798
 6457SOL     OW19936   4.337   2.704   7.017
 6457SOL    HW119937   4.393   2.785   7.000
 6457SOL    HW219938   4.396   2.624   7.020
 6458SOL     OW19939   4.440   2.427   7.294
 6458SOL    HW119940   4.459   2.492   7.368
 6458SOL    HW219941   4.500   2.347   7.303
 6459SOL     OW19942   5.174   3.082   7.219
 6459SOL    HW119943   5.165   3.072   7.318
 6459SOL    HW219944   5.270   3.075   7.193
 6460SOL     OW19945   4.114   3.603   7.146
 6460SOL    HW119946   4.023   3.644   7.144
 6460SOL    HW219947   4.107   3.509   7.178
 6461SOL     OW19948   4.949   2.187   6.035
 6461SOL    HW119949   5.014   2.113   6.024
 6461SOL    HW219950   4.969   2.237   6.119
 6462SOL     OW19951   4.318   2.607   6.238
 6462SOL    HW119952   4.368   2.692   6.219
 6462SOL    HW219953   4.230   2.609   6.190
 6463SOL     OW19954   4.583   3.236   5.602
 6463SOL    HW119955   4.537   3.251   5.690
 6463SOL    HW219956   4.627   3.321   5.572
 6464SOL     OW19957   4.385   3.652   6.539
 6464SOL    HW119958   4.339   3.740   6.526
 6464SOL    HW219959   4.484   3.664   6.532
 6465SOL     OW19960   4.583   2.818   6.447
 6465SOL    HW119961   4.637   2.749   6.495
 6465SOL    HW219962   4.551   2.887   6.513
 6466SOL     OW19963   4.807   2.846   5.673
 6466SOL    HW119964   4.784   2.899   5.591
 6466SOL    HW219965   4.888   2.790   5.654
 6467SOL     OW19966   3.945   3.176   7.430
 6467SOL    HW119967   3.880   3.103   7.409
 6467SOL    HW219968   3.949   3.190   7.528
 6468SOL     OW19969   3.803   3.102   6.239
 6468SOL    HW119970   3.802   3.055   6.327
 6468SOL    HW219971   3.885   3.074   6.188
 6469SOL     OW19972   4.396   3.253   7.210
 6469SOL    HW119973   4.318   3.203   7.248
 6469SOL    HW219974   4.393   3.348   7.241
 6470SOL     OW19975   4.152   2.286   6.106
 6470SOL    HW119976   4.182   2.214   6.044
 6470SOL    HW219977   4.113   2.246   6.189
 6471SOL     OW19978   5.429   3.349   6.690
 6471SOL    HW119979   5.336   3.324   6.663
 6471SOL    HW219980   5.455   3.299   6.772
 6472SOL     OW19981   4.041   2.409   6.866
 6472SOL    HW119982   4.079   2.350   6.938
 6472SOL    HW219983   4.081   2.383   6.778
 6473SOL     OW19984   4.536   3.448   6.273
 6473SOL    HW119985   4.568   3.458   6.179
 6473SOL    HW219986   4.457   3.386   6.275
 6474SOL     OW19987   5.148   2.076   6.698
 6474SOL    HW119988   5.200   2.011   6.753
 6474SOL    HW219989   5.099   2.139   6.759
 6475SOL     OW19990   4.725   1.896   6.740
 6475SOL    HW119991   4.662   1.824   6.709
 6475SOL    HW219992   4.818   1.860   6.740
 6476SOL     OW19993   4.494   3.192   5.887
 6476SOL    HW119994   4.448   3.105   5.904
 6476SOL    HW219995   4.585   3.189   5.928
 6477SOL     OW19996   4.342   3.429   6.870
 6477SOL    HW119997   4.337   3.511   6.927
 6477SOL    HW219998   4.431   3.426   6.825
 6478SOL     OW19999   5.076   1.914   5.754
 6478SOL    HW120000   5.111   1.873   5.670
 6478SOL    HW220001   4.986   1.876   5.774
 6479SOL     OW20002   5.024   2.315   6.277
 6479SOL    HW120003   4.965   2.395   6.281
 6479SOL    HW220004   5.039   2.280   6.370
 6480SOL     OW20005   5.317   2.083   6.468
 6480SOL    HW120006   5.233   2.082   6.522
 6480SOL    HW220007   5.319   2.166   6.412
 6481SOL     OW20008   3.763   2.939   5.886
 6481SOL    HW120009   3.862   2.928   5.877
 6481SOL    HW220010   3.723   2.853   5.918
 6482SOL     OW20011   4.599   3.508   5.923
 6482SOL    HW120012   4.522   3.473   5.869
 6482SOL    HW220013   4.567   3.579   5.985
 6483SOL     OW20014   3.954   2.490   7.561
 6483SOL    HW120015   3.861   2.488   7.598
 6483SOL    HW220016   3.955   2.451   7.469
 6484SOL     OW20017   3.955   3.575   7.931
 6484SOL    HW120018   3.989   3.652   7.985
 6484SOL    HW220019   3.999   3.575   7.841
 6485SOL     OW20020   3.954   3.296   7.986
 6485SOL    HW120021   3.928   3.392   7.986
 6485SOL    HW220022   3.883   3.242   8.031
 6486SOL     OW20023   4.330   2.826   7.571
 6486SOL    HW120024   4.337   2.910   7.517
 6486SOL    HW220025   4.376   2.839   7.659
 6487SOL     OW20026   3.751   3.458   7.565
 6487SOL    HW120027   3.732   3.362   7.586
 6487SOL    HW220028   3.718   3.516   7.640
 6488SOL     OW20029   5.413   2.784   8.060
 6488SOL    HW120030   5.508   2.755   8.068
 6488SOL    HW220031   5.405   2.849   7.985
 6489SOL     OW20032   4.533   1.866   7.950
 6489SOL    HW120033   4.573   1.957   7.941
 6489SOL    HW220034   4.433   1.874   7.956
 6490SOL     OW20035   4.322   2.591   7.718
 6490SOL    HW120036   4.346   2.660   7.650
 6490SOL    HW220037   4.244   2.624   7.772
 6491SOL     OW20038   3.800   2.673   8.237
 6491SOL    HW120039   3.899   2.661   8.246
 6491SOL    HW220040   3.776   2.768   8.258
 6492SOL     OW20041   4.589   2.210   7.643
 6492SOL    HW120042   4.648   2.273   7.594
 6492SOL    HW220043   4.608   2.116   7.614
 6493SOL     OW20044   4.045   2.805   7.690
 6493SOL    HW120045   4.127   2.844   7.648
 6493SOL    HW220046   4.018   2.723   7.641
 6494SOL     OW20047   4.835   3.638   7.685
 6494SOL    HW120048   4.775   3.576   7.735
 6494SOL    HW220049   4.866   3.594   7.600
 6495SOL     OW20050   4.188   3.605   7.771
 6495SOL    HW120051   4.221   3.644   7.857
 6495SOL    HW220052   4.264   3.598   7.706
 6496SOL     OW20053   5.124   1.969   7.874
 6496SOL    HW120054   5.100   1.932   7.784
 6496SOL    HW220055   5.223   1.985   7.878
 6497SOL     OW20056   4.106   2.562   7.928
 6497SOL    HW120057   4.151   2.472   7.925
 6497SOL    HW220058   4.012   2.551   7.961
 6498SOL     OW20059   4.338   1.984   7.565
 6498SOL    HW120060   4.436   1.962   7.572
 6498SOL    HW220061   4.307   1.967   7.472
 6499SOL     OW20062   4.263   1.926   7.960
 6499SOL    HW120063   4.182   1.927   8.018
 6499SOL    HW220064   4.266   2.009   7.905
 6500SOL     OW20065   5.158   3.050   7.489
 6500SOL    HW120066   5.190   2.974   7.546
 6500SOL    HW220067   5.066   3.077   7.519
 6501SOL     OW20068   4.021   1.897   7.619
 6501SOL    HW120069   4.070   1.981   7.598
 6501SOL    HW220070   4.083   1.832   7.664
 6502SOL     OW20071   4.659   2.098   7.928
 6502SOL    HW120072   4.611   2.139   7.850
 6502SOL    HW220073   4.758   2.096   7.909
 6503SOL     OW20074   4.183   3.014   8.189
 6503SOL    HW120075   4.112   2.987   8.254
 6503SOL    HW220076   4.157   2.986   8.096
 6504SOL     OW20077   4.995   3.659   8.039
 6504SOL    HW120078   5.039   3.723   7.975
 6504SOL    HW220079   4.945   3.711   8.109
 6505SOL     OW20080   4.756   2.411   7.464
 6505SOL    HW120081   4.715   2.493   7.425
 6505SOL    HW220082   4.820   2.437   7.537
 6506SOL     OW20083   4.212   3.247   7.622
 6506SOL    HW120084   4.125   3.232   7.669
 6506SOL    HW220085   4.195   3.273   7.527
 6507SOL     OW20086   5.114   2.437   7.526
 6507SOL    HW120087   5.060   2.416   7.607
 6507SOL    HW220088   5.205   2.396   7.535
 6508SOL     OW20089   4.251   2.118   7.776
 6508SOL    HW120090   4.278   2.059   7.701
 6508SOL    HW220091   4.251   2.213   7.745
 6509SOL     OW20092   4.429   2.912   7.816
 6509SOL    HW120093   4.415   2.919   7.915
 6509SOL    HW220094   4.513   2.861   7.798
 6510SOL     OW20095   4.091   2.962   7.949
 6510SOL    HW120096   4.084   3.045   7.893
 6510SOL    HW220097   4.095   2.882   7.889
 6511SOL     OW20098   4.976   3.210   7.836
 6511SOL    HW120099   5.026   3.287   7.876
 6511SOL    HW220100   4.881   3.212   7.868
 6512SOL     OW20101   5.306   2.501   7.920
 6512SOL    HW120102   5.275   2.562   7.993
 6512SOL    HW220103   5.356   2.553   7.851
 6513SOL     OW20104   4.933   2.387   7.723
 6513SOL    HW120105   4.946   2.303   7.777
 6513SOL    HW220106   4.904   2.461   7.783
 6514SOL     OW20107   5.346   2.229   7.822
 6514SOL    HW120108   5.348   2.153   7.886
 6514SOL    HW220109   5.298   2.306   7.862
 6515SOL     OW20110   5.027   2.700   7.490
 6515SOL    HW120111   5.061   2.607   7.505
 6515SOL    HW220112   5.045   2.727   7.395
 6516SOL     OW20113   3.732   3.188   7.648
 6516SOL    HW120114   3.639   3.209   7.617
 6516SOL    HW220115   3.742   3.089   7.661
 6517SOL     OW20116   4.539   2.434   7.773
 6517SOL    HW120117   4.546   2.345   7.727
 6517SOL    HW220118   4.445   2.468   7.765
 6518SOL     OW20119   4.197   2.362   7.639
 6518SOL    HW120120   4.258   2.442   7.643
 6518SOL    HW220121   4.102   2.393   7.646
 6519SOL     OW20122   5.026   2.717   7.757
 6519SOL    HW120123   4.940   2.686   7.799
 6519SOL    HW220124   5.022   2.703   7.658
 6520SOL     OW20125   5.450   1.997   7.971
 6520SOL    HW120126   5.523   1.980   7.904
 6520SOL    HW220127   5.419   1.910   8.009
 6521SOL     OW20128   5.112   3.435   7.925
 6521SOL    HW120129   5.179   3.447   7.851
 6521SOL    HW220130   5.072   3.524   7.948
 6522SOL     OW20131   4.396   3.478   7.602
 6522SOL    HW120132   4.405   3.488   7.503
 6522SOL    HW220133   4.356   3.389   7.623
 6523SOL     OW20134   4.918   3.474   7.479
 6523SOL    HW120135   4.924   3.381   7.516
 6523SOL    HW220136   4.859   3.474   7.399
 6524SOL     OW20137   4.640   2.772   7.739
 6524SOL    HW120138   4.703   2.810   7.671
 6524SOL    HW220139   4.680   2.689   7.778
 6525SOL     OW20140   4.314   3.349   7.939
 6525SOL    HW120141   4.356   3.291   7.869
 6525SOL    HW220142   4.270   3.428   7.895
 6526SOL     OW20143   3.979   3.210   7.738
 6526SOL    HW120144   3.883   3.211   7.711
 6526SOL    HW220145   3.991   3.263   7.822
 6527SOL     OW20146   3.799   2.207   7.481
 6527SOL    HW120147   3.707   2.179   7.452
 6527SOL    HW220148   3.830   2.284   7.425
 6528SOL     OW20149   3.796   2.028   7.766
 6528SOL    HW120150   3.779   2.111   7.712
 6528SOL    HW220151   3.886   1.991   7.744
 6529SOL     OW20152   4.907   3.197   7.567
 6529SOL    HW120153   4.808   3.186   7.569
 6529SOL    HW220154   4.941   3.212   7.660
 6530SOL     OW20155   5.217   3.629   8.407
 6530SOL    HW120156   5.250   3.693   8.338
 6530SOL    HW220157   5.283   3.623   8.482
 6531SOL     OW20158   4.949   2.187   7.897
 6531SOL    HW120159   5.014   2.113   7.886
 6531SOL    HW220160   4.969   2.237   7.981
 6532SOL     OW20161   4.318   2.607   8.100
 6532SOL    HW120162   4.368   2.692   8.081
 6532SOL    HW220163   4.230   2.609   8.052
 6533SOL     OW20164   4.583   3.236   7.464
 6533SOL    HW120165   4.537   3.251   7.552
 6533SOL    HW220166   4.627   3.321   7.434
 6534SOL     OW20167   4.807   2.846   7.535
 6534SOL    HW120168   4.784   2.899   7.453
 6534SOL    HW220169   4.888   2.790   7.516
 6535SOL     OW20170   4.152   2.286   7.968
 6535SOL    HW120171   4.182   2.214   7.906
 6535SOL    HW220172   4.113   2.246   8.051
 6536SOL     OW20173   4.494   3.192   7.749
 6536SOL    HW120174   4.448   3.105   7.766
 6536SOL    HW220175   4.585   3.189   7.790
 6537SOL     OW20176   5.076   1.914   7.616
 6537SOL    HW120177   5.111   1.873   7.532
 6537SOL    HW220178   4.986   1.876   7.636
 6538SOL     OW20179   3.763   2.939   7.748
 6538SOL    HW120180   3.862   2.928   7.739
 6538SOL    HW220181   3.723   2.853   7.780
 6539SOL     OW20182   4.599   3.508   7.785
 6539SOL    HW120183   4.522   3.473   7.731
 6539SOL    HW220184   4.567   3.579   7.847
 6540SOL     OW20185   3.954   4.352   0.113
 6540SOL    HW120186   3.861   4.350   0.150
 6540SOL    HW220187   3.955   4.313   0.021
 6541SOL     OW20188   3.949   3.999   0.996
 6541SOL    HW120189   3.984   3.982   1.088
 6541SOL    HW220190   3.861   3.954   0.984
 6542SOL     OW20191   3.743   4.092   0.647
 6542SOL    HW120192   3.661   4.135   0.686
 6542SOL    HW220193   3.715   4.019   0.584
 6543SOL     OW20194   4.293   4.999   1.165
 6543SOL    HW120195   4.200   4.992   1.128
 6543SOL    HW220196   4.304   5.088   1.209
 6544SOL     OW20197   5.279   5.235   0.703
 6544SOL    HW120198   5.222   5.219   0.784
 6544SOL    HW220199   5.220   5.245   0.623
 6545SOL     OW20200   4.859   4.427   0.717
 6545SOL    HW120201   4.916   4.505   0.692
 6545SOL    HW220202   4.799   4.453   0.793
 6546SOL     OW20203   4.492   4.868   1.023
 6546SOL    HW120204   4.414   4.885   1.083
 6546SOL    HW220205   4.526   4.955   0.987
 6547SOL     OW20206   4.574   4.522   1.823
 6547SOL    HW120207   4.570   4.598   1.888
 6547SOL    HW220208   4.596   4.558   1.732
 6548SOL     OW20209   4.409   4.736   0.665
 6548SOL    HW120210   4.478   4.720   0.735
 6548SOL    HW220211   4.336   4.793   0.703
 6549SOL     OW20212   4.410   4.885   1.803
 6549SOL    HW120213   4.470   4.964   1.817
 6549SOL    HW220214   4.324   4.916   1.762
 6550SOL     OW20215   4.059   5.159   1.061
 6550SOL    HW120216   3.981   5.128   1.008
 6550SOL    HW220217   4.117   5.217   1.004
 6551SOL     OW20218   5.184   5.229   1.339
 6551SOL    HW120219   5.208   5.323   1.365
 6551SOL    HW220220   5.168   5.175   1.421
 6552SOL     OW20221   4.162   4.116   1.499
 6552SOL    HW120222   4.244   4.060   1.508
 6552SOL    HW220223   4.081   4.058   1.503
 6553SOL     OW20224   4.851   5.065   1.690
 6553SOL    HW120225   4.898   5.065   1.778
 6553SOL    HW220226   4.803   4.978   1.679
 6554SOL     OW20227   3.954   5.158   0.538
 6554SOL    HW120228   3.928   5.254   0.538
 6554SOL    HW220229   3.883   5.104   0.583
 6555SOL     OW20230   3.964   4.815   0.886
 6555SOL    HW120231   3.978   4.731   0.938
 6555SOL    HW220232   3.909   4.879   0.941
 6556SOL     OW20233   4.330   4.688   0.123
 6556SOL    HW120234   4.337   4.772   0.069
 6556SOL    HW220235   4.376   4.701   0.211
 6557SOL     OW20236   3.846   4.367   0.563
 6557SOL    HW120237   3.801   4.279   0.580
 6557SOL    HW220238   3.845   4.421   0.647
 6558SOL     OW20239   3.751   5.320   0.117
 6558SOL    HW120240   3.732   5.224   0.138
 6558SOL    HW220241   3.718   5.378   0.192
 6559SOL     OW20242   5.413   4.646   0.612
 6559SOL    HW120243   5.508   4.617   0.620
 6559SOL    HW220244   5.405   4.711   0.537
 6560SOL     OW20245   3.837   4.461   1.597
 6560SOL    HW120246   3.925   4.448   1.642
 6560SOL    HW220247   3.824   4.558   1.575
 6561SOL     OW20248   4.337   5.089   0.726
 6561SOL    HW120249   4.288   5.002   0.735
 6561SOL    HW220250   4.314   5.132   0.639
 6562SOL     OW20251   5.017   4.952   1.423
 6562SOL    HW120252   5.054   4.879   1.365
 6562SOL    HW220253   5.069   4.957   1.508
 6563SOL     OW20254   4.533   3.728   0.502
 6563SOL    HW120255   4.573   3.819   0.493
 6563SOL    HW220256   4.433   3.736   0.508
 6564SOL     OW20257   3.921   4.700   1.264
 6564SOL    HW120258   4.010   4.655   1.250
 6564SOL    HW220259   3.848   4.635   1.245
 6565SOL     OW20260   4.041   3.975   1.801
 6565SOL    HW120261   4.112   4.046   1.807
 6565SOL    HW220262   3.953   4.014   1.829
 6566SOL     OW20263   5.190   5.141   0.953
 6566SOL    HW120264   5.131   5.147   1.033
 6566SOL    HW220265   5.175   5.053   0.907
 6567SOL     OW20266   5.391   5.438   0.572
 6567SOL    HW120267   5.350   5.415   0.484
 6567SOL    HW220268   5.373   5.364   0.637
 6568SOL     OW20269   4.322   4.453   0.270
 6568SOL    HW120270   4.346   4.522   0.202
 6568SOL    HW220271   4.244   4.486   0.324
 6569SOL     OW20272   5.005   4.069   0.944
 6569SOL    HW120273   4.919   4.019   0.931
 6569SOL    HW220274   5.067   4.015   1.000
 6570SOL     OW20275   4.531   4.329   1.465
 6570SOL    HW120276   4.484   4.326   1.554
 6570SOL    HW220277   4.480   4.274   1.399
 6571SOL     OW20278   5.118   4.193   1.674
 6571SOL    HW120279   5.098   4.236   1.762
 6571SOL    HW220280   5.196   4.131   1.683
 6572SOL     OW20281   4.697   4.614   1.572
 6572SOL    HW120282   4.743   4.530   1.543
 6572SOL    HW220283   4.641   4.648   1.497
 6573SOL     OW20284   4.715   4.134   1.242
 6573SOL    HW120285   4.638   4.168   1.296
 6573SOL    HW220286   4.681   4.083   1.163
 6574SOL     OW20287   4.765   4.425   0.429
 6574SOL    HW120288   4.791   4.421   0.525
 6574SOL    HW220289   4.680   4.374   0.415
 6575SOL     OW20290   3.800   4.535   0.789
 6575SOL    HW120291   3.899   4.523   0.798
 6575SOL    HW220292   3.776   4.630   0.810
 6576SOL     OW20293   4.589   4.072   0.195
 6576SOL    HW120294   4.648   4.135   0.146
 6576SOL    HW220295   4.608   3.978   0.166
 6577SOL     OW20296   5.086   4.868   0.545
 6577SOL    HW120297   5.169   4.839   0.497
 6577SOL    HW220298   5.037   4.935   0.489
 6578SOL     OW20299   4.274   3.920   0.885
 6578SOL    HW120300   4.269   3.915   0.985
 6578SOL    HW220301   4.276   4.016   0.856
 6579SOL     OW20302   4.732   5.180   0.477
 6579SOL    HW120303   4.686   5.252   0.425
 6579SOL    HW220304   4.728   5.200   0.575
 6580SOL     OW20305   4.951   5.274   1.506
 6580SOL    HW120306   4.957   5.197   1.570
 6580SOL    HW220307   4.899   5.248   1.426
 6581SOL     OW20308   4.045   4.667   0.242
 6581SOL    HW120309   4.127   4.706   0.200
 6581SOL    HW220310   4.018   4.585   0.193
 6582SOL     OW20311   4.185   4.990   1.727
 6582SOL    HW120312   4.135   4.991   1.641
 6582SOL    HW220313   4.122   4.972   1.803
 6583SOL     OW20314   4.835   5.500   0.237
 6583SOL    HW120315   4.775   5.438   0.287
 6583SOL    HW220316   4.866   5.456   0.152
 6584SOL     OW20317   3.926   4.009   1.498
 6584SOL    HW120318   3.846   4.069   1.485
 6584SOL    HW220319   3.916   3.960   1.584
 6585SOL     OW20320   5.124   3.831   0.426
 6585SOL    HW120321   5.100   3.794   0.336
 6585SOL    HW220322   5.223   3.847   0.430
 6586SOL     OW20323   4.106   4.424   0.480
 6586SOL    HW120324   4.151   4.334   0.477
 6586SOL    HW220325   4.012   4.413   0.513
 6587SOL     OW20326   4.338   3.846   0.117
 6587SOL    HW120327   4.436   3.824   0.124
 6587SOL    HW220328   4.307   3.829   0.024
 6588SOL     OW20329   4.505   3.988   1.749
 6588SOL    HW120330   4.572   3.927   1.792
 6588SOL    HW220331   4.432   4.007   1.814
 6589SOL     OW20332   5.075   4.314   1.433
 6589SOL    HW120333   5.103   4.271   1.518
 6589SOL    HW220334   5.100   4.410   1.434
 6590SOL     OW20335   4.527   5.126   0.924
 6590SOL    HW120336   4.617   5.140   0.882
 6590SOL    HW220337   4.456   5.128   0.853
 6591SOL     OW20338   4.646   4.227   0.899
 6591SOL    HW120339   4.621   4.218   0.803
 6591SOL    HW220340   4.694   4.145   0.930
 6592SOL     OW20341   4.263   3.788   0.512
 6592SOL    HW120342   4.182   3.789   0.570
 6592SOL    HW220343   4.266   3.871   0.457
 6593SOL     OW20344   5.158   4.912   0.041
 6593SOL    HW120345   5.190   4.836   0.098
 6593SOL    HW220346   5.066   4.939   0.071
 6594SOL     OW20347   4.021   3.759   0.171
 6594SOL    HW120348   4.070   3.843   0.150
 6594SOL    HW220349   4.083   3.694   0.216
 6595SOL     OW20350   4.659   3.960   0.480
 6595SOL    HW120351   4.611   4.001   0.402
 6595SOL    HW220352   4.758   3.958   0.461
 6596SOL     OW20353   4.800   4.407   1.464
 6596SOL    HW120354   4.720   4.346   1.467
 6596SOL    HW220355   4.881   4.354   1.440
 6597SOL     OW20356   4.951   5.294   0.793
 6597SOL    HW120357   4.972   5.368   0.728
 6597SOL    HW220358   5.019   5.294   0.866
 6598SOL     OW20359   4.183   4.876   0.741
 6598SOL    HW120360   4.112   4.849   0.806
 6598SOL    HW220361   4.157   4.848   0.648
 6599SOL     OW20362   4.756   4.273   0.016
 6599SOL    HW120363   4.715   4.355  -0.023
 6599SOL    HW220364   4.820   4.299   0.089
 6600SOL     OW20365   3.802   4.280   1.386
 6600SOL    HW120366   3.894   4.279   1.345
 6600SOL    HW220367   3.796   4.354   1.453
 6601SOL     OW20368   4.285   3.946   1.147
 6601SOL    HW120369   4.323   3.862   1.184
 6601SOL    HW220370   4.197   3.965   1.191
 6602SOL     OW20371   4.590   4.178   0.642
 6602SOL    HW120372   4.558   4.250   0.580
 6602SOL    HW220373   4.614   4.097   0.589
 6603SOL     OW20374   4.741   3.763   0.753
 6603SOL    HW120375   4.669   3.768   0.684
 6603SOL    HW220376   4.717   3.694   0.822
 6604SOL     OW20377   5.153   4.897   0.867
 6604SOL    HW120378   5.098   4.813   0.860
 6604SOL    HW220379   5.179   4.926   0.775
 6605SOL     OW20380   4.212   5.109   0.174
 6605SOL    HW120381   4.125   5.094   0.221
 6605SOL    HW220382   4.195   5.135   0.079
 6606SOL     OW20383   5.114   4.299   0.078
 6606SOL    HW120384   5.060   4.278   0.159
 6606SOL    HW220385   5.205   4.258   0.087
 6607SOL     OW20386   4.251   3.980   0.328
 6607SOL    HW120387   4.278   3.921   0.253
 6607SOL    HW220388   4.251   4.075   0.297
 6608SOL     OW20389   4.788   5.071   1.340
 6608SOL    HW120390   4.708   5.048   1.395
 6608SOL    HW220391   4.871   5.045   1.389
 6609SOL     OW20392   4.835   4.919   1.100
 6609SOL    HW120393   4.795   4.963   1.181
 6609SOL    HW220394   4.794   4.956   1.017
 6610SOL     OW20395   4.639   3.813   1.402
 6610SOL    HW120396   4.664   3.793   1.307
 6610SOL    HW220397   4.711   3.869   1.444
 6611SOL     OW20398   4.704   4.840   1.719
 6611SOL    HW120399   4.605   4.846   1.729
 6611SOL    HW220400   4.727   4.760   1.663
 6612SOL     OW20401   4.429   4.774   0.368
 6612SOL    HW120402   4.415   4.781   0.467
 6612SOL    HW220403   4.513   4.723   0.350
 6613SOL     OW20404   4.134   4.537   1.251
 6613SOL    HW120405   4.220   4.549   1.301
 6613SOL    HW220406   4.092   4.450   1.278
 6614SOL     OW20407   4.998   4.110   1.262
 6614SOL    HW120408   5.019   4.184   1.326
 6614SOL    HW220409   4.909   4.127   1.219
 6615SOL     OW20410   4.091   4.824   0.501
 6615SOL    HW120411   4.084   4.907   0.445
 6615SOL    HW220412   4.095   4.744   0.441
 6616SOL     OW20413   4.290   4.261   0.865
 6616SOL    HW120414   4.302   4.327   0.791
 6616SOL    HW220415   4.336   4.295   0.948
 6617SOL     OW20416   4.976   5.072   0.388
 6617SOL    HW120417   5.026   5.149   0.428
 6617SOL    HW220418   4.881   5.074   0.420
 6618SOL     OW20419   4.996   5.169   1.142
 6618SOL    HW120420   5.043   5.182   1.229
 6618SOL    HW220421   4.930   5.095   1.151
 6619SOL     OW20422   4.078   5.234   1.329
 6619SOL    HW120423   4.057   5.190   1.242
 6619SOL    HW220424   4.175   5.260   1.332
 6620SOL     OW20425   4.126   4.475   1.598
 6620SOL    HW120426   4.194   4.530   1.551
 6620SOL    HW220427   4.166   4.387   1.625
 6621SOL     OW20428   4.737   3.829   1.770
 6621SOL    HW120429   4.743   3.914   1.718
 6621SOL    HW220430   4.769   3.753   1.713
 6622SOL     OW20431   4.228   3.774   1.740
 6622SOL    HW120432   4.186   3.717   1.670
 6622SOL    HW220433   4.162   3.843   1.772
 6623SOL     OW20434   4.297   4.594   1.029
 6623SOL    HW120435   4.341   4.683   1.020
 6623SOL    HW220436   4.234   4.594   1.106
 6624SOL     OW20437   5.084   4.586   1.045
 6624SOL    HW120438   5.009   4.586   0.979
 6624SOL    HW220439   5.121   4.494   1.054
 6625SOL     OW20440   4.933   4.249   0.275
 6625SOL    HW120441   4.946   4.165   0.329
 6625SOL    HW220442   4.904   4.323   0.335
 6626SOL     OW20443   4.031   3.937   1.231
 6626SOL    HW120444   4.008   3.974   1.321
 6626SOL    HW220445   4.001   3.842   1.225
 6627SOL     OW20446   3.761   5.034   1.282
 6627SOL    HW120447   3.814   4.985   1.350
 6627SOL    HW220448   3.783   5.132   1.287
 6628SOL     OW20449   4.456   4.358   1.064
 6628SOL    HW120450   4.515   4.332   0.988
 6628SOL    HW220451   4.428   4.454   1.053
 6629SOL     OW20452   4.031   3.787   0.618
 6629SOL    HW120453   4.020   3.881   0.651
 6629SOL    HW220454   4.026   3.724   0.695
 6630SOL     OW20455   5.346   4.091   0.374
 6630SOL    HW120456   5.348   4.015   0.438
 6630SOL    HW220457   5.298   4.168   0.414
 6631SOL     OW20458   4.747   4.490   0.966
 6631SOL    HW120459   4.762   4.511   1.062
 6631SOL    HW220460   4.717   4.395   0.957
 6632SOL     OW20461   4.074   4.622   1.804
 6632SOL    HW120462   4.150   4.666   1.852
 6632SOL    HW220463   4.109   4.575   1.722
 6633SOL     OW20464   5.027   4.562   0.042
 6633SOL    HW120465   5.061   4.469   0.057
 6633SOL    HW220466   5.045   4.589  -0.053
 6634SOL     OW20467   4.792   5.057   0.849
 6634SOL    HW120468   4.799   4.973   0.794
 6634SOL    HW220469   4.854   5.126   0.813
 6635SOL     OW20470   4.043   4.534   0.949
 6635SOL    HW120471   4.136   4.570   0.954
 6635SOL    HW220472   4.037   4.449   1.001
 6636SOL     OW20473   4.063   4.233   1.006
 6636SOL    HW120474   4.011   4.150   0.989
 6636SOL    HW220475   4.140   4.238   0.942
 6637SOL     OW20476   4.862   4.104   1.678
 6637SOL    HW120477   4.817   4.167   1.742
 6637SOL    HW220478   4.955   4.135   1.661
 6638SOL     OW20479   4.884   3.931   1.477
 6638SOL    HW120480   4.884   3.995   1.554
 6638SOL    HW220481   4.912   3.979   1.394
 6639SOL     OW20482   3.732   5.050   0.200
 6639SOL    HW120483   3.639   5.071   0.169
 6639SOL    HW220484   3.742   4.951   0.213
 6640SOL     OW20485   4.726   4.520   1.238
 6640SOL    HW120486   4.767   4.488   1.324
 6640SOL    HW220487   4.630   4.493   1.235
 6641SOL     OW20488   3.764   4.268   1.114
 6641SOL    HW120489   3.849   4.235   1.073
 6641SOL    HW220490   3.777   4.283   1.212
 6642SOL     OW20491   3.913   4.244   1.722
 6642SOL    HW120492   3.972   4.204   1.652
 6642SOL    HW220493   3.855   4.315   1.681
 6643SOL     OW20494   5.093   4.674   1.660
 6643SOL    HW120495   5.132   4.763   1.680
 6643SOL    HW220496   5.103   4.654   1.563
 6644SOL     OW20497   4.539   4.296   0.325
 6644SOL    HW120498   4.546   4.207   0.279
 6644SOL    HW220499   4.445   4.330   0.317
 6645SOL     OW20500   3.976   5.288   1.744
 6645SOL    HW120501   3.946   5.345   1.820
 6645SOL    HW220502   3.969   5.191   1.770
 6646SOL     OW20503   4.395   4.188   1.269
 6646SOL    HW120504   4.361   4.099   1.239
 6646SOL    HW220505   4.421   4.242   1.189
 6647SOL     OW20506   4.197   4.224   0.191
 6647SOL    HW120507   4.258   4.304   0.195
 6647SOL    HW220508   4.102   4.255   0.198
 6648SOL     OW20509   3.883   4.861   1.466
 6648SOL    HW120510   3.905   4.800   1.542
 6648SOL    HW220511   3.893   4.812   1.380
 6649SOL     OW20512   5.071   4.783   1.234
 6649SOL    HW120513   5.095   4.720   1.160
 6649SOL    HW220514   4.981   4.823   1.216
 6650SOL     OW20515   5.026   4.579   0.309
 6650SOL    HW120516   4.940   4.548   0.351
 6650SOL    HW220517   5.022   4.565   0.210
 6651SOL     OW20518   3.807   4.982   1.022
 6651SOL    HW120519   3.802   4.981   1.122
 6651SOL    HW220520   3.724   4.941   0.984
 6652SOL     OW20521   4.412   5.386   1.716
 6652SOL    HW120522   4.356   5.467   1.725
 6652SOL    HW220523   4.464   5.390   1.630
 6653SOL     OW20524   4.627   3.810   0.133
 6653SOL    HW120525   4.678   3.811   0.047
 6653SOL    HW220526   4.683   3.768   0.204
 6654SOL     OW20527   5.450   3.859   0.523
 6654SOL    HW120528   5.523   3.842   0.456
 6654SOL    HW220529   5.419   3.772   0.561
 6655SOL     OW20530   5.004   4.651   0.672
 6655SOL    HW120531   5.064   4.570   0.674
 6655SOL    HW220532   5.044   4.720   0.612
 6656SOL     OW20533   4.554   4.997   1.422
 6656SOL    HW120534   4.549   5.030   1.517
 6656SOL    HW220535   4.468   5.016   1.376
 6657SOL     OW20536   3.987   4.050   0.720
 6657SOL    HW120537   3.908   4.101   0.686
 6657SOL    HW220538   3.978   4.035   0.818
 6658SOL     OW20539   4.918   5.336   0.031
 6658SOL    HW120540   4.924   5.243   0.068
 6658SOL    HW220541   4.859   5.336  -0.049
 6659SOL     OW20542   4.546   4.726   1.372
 6659SOL    HW120543   4.586   4.725   1.280
 6659SOL    HW220544   4.556   4.818   1.412
 6660SOL     OW20545   4.640   4.634   0.291
 6660SOL    HW120546   4.703   4.672   0.223
 6660SOL    HW220547   4.680   4.551   0.330
 6661SOL     OW20548   4.096   5.012   1.490
 6661SOL    HW120549   4.083   5.105   1.456
 6661SOL    HW220550   4.012   4.960   1.477
 6662SOL     OW20551   4.763   4.822   0.696
 6662SOL    HW120552   4.693   4.775   0.750
 6662SOL    HW220553   4.822   4.754   0.653
 6663SOL     OW20554   4.738   3.960   0.971
 6663SOL    HW120555   4.730   3.924   0.878
 6663SOL    HW220556   4.736   3.884   1.036
 6664SOL     OW20557   3.979   5.072   0.290
 6664SOL    HW120558   3.883   5.073   0.263
 6664SOL    HW220559   3.991   5.125   0.374
 6665SOL     OW20560   3.829   4.737   1.726
 6665SOL    HW120561   3.752   4.704   1.780
 6665SOL    HW220562   3.914   4.707   1.768
 6666SOL     OW20563   4.396   3.927   1.489
 6666SOL    HW120564   4.486   3.911   1.449
 6666SOL    HW220565   4.404   3.932   1.588
 6667SOL     OW20566   3.799   4.069   0.033
 6667SOL    HW120567   3.707   4.041   0.004
 6667SOL    HW220568   3.830   4.146  -0.023
 6668SOL     OW20569   5.164   4.580   1.398
 6668SOL    HW120570   5.107   4.632   1.335
 6668SOL    HW220571   5.260   4.592   1.374
 6669SOL     OW20572   3.796   3.890   0.318
 6669SOL    HW120573   3.779   3.973   0.264
 6669SOL    HW220574   3.886   3.853   0.296
 6670SOL     OW20575   4.907   5.059   0.119
 6670SOL    HW120576   4.808   5.048   0.121
 6670SOL    HW220577   4.941   5.074   0.212
 6671SOL     OW20578   4.337   4.566   1.431
 6671SOL    HW120579   4.393   4.647   1.414
 6671SOL    HW220580   4.396   4.486   1.434
 6672SOL     OW20581   4.440   4.289   1.708
 6672SOL    HW120582   4.459   4.354   1.782
 6672SOL    HW220583   4.500   4.209   1.717
 6673SOL     OW20584   5.174   4.944   1.633
 6673SOL    HW120585   5.165   4.934   1.732
 6673SOL    HW220586   5.270   4.937   1.607
 6674SOL     OW20587   4.949   4.049   0.449
 6674SOL    HW120588   5.014   3.975   0.438
 6674SOL    HW220589   4.969   4.099   0.533
 6675SOL     OW20590   4.318   4.469   0.652
 6675SOL    HW120591   4.368   4.554   0.633
 6675SOL    HW220592   4.230   4.471   0.604
 6676SOL     OW20593   4.583   5.098   0.016
 6676SOL    HW120594   4.537   5.113   0.104
 6676SOL    HW220595   4.627   5.183  -0.014
 6677SOL     OW20596   4.583   4.680   0.861
 6677SOL    HW120597   4.637   4.611   0.909
 6677SOL    HW220598   4.551   4.749   0.927
 6678SOL     OW20599   4.807   4.708   0.087
 6678SOL    HW120600   4.784   4.761   0.005
 6678SOL    HW220601   4.888   4.652   0.068
 6679SOL     OW20602   3.945   5.038   1.844
 6679SOL    HW120603   3.880   4.965   1.823
 6679SOL    HW220604   3.949   5.052   1.942
 6680SOL     OW20605   3.803   4.964   0.653
 6680SOL    HW120606   3.802   4.917   0.741
 6680SOL    HW220607   3.885   4.936   0.602
 6681SOL     OW20608   4.396   5.115   1.624
 6681SOL    HW120609   4.318   5.065   1.662
 6681SOL    HW220610   4.393   5.210   1.655
 6682SOL     OW20611   4.152   4.148   0.520
 6682SOL    HW120612   4.182   4.076   0.458
 6682SOL    HW220613   4.113   4.108   0.603
 6683SOL     OW20614   5.429   5.211   1.104
 6683SOL    HW120615   5.336   5.186   1.077
 6683SOL    HW220616   5.455   5.161   1.186
 6684SOL     OW20617   4.041   4.271   1.280
 6684SOL    HW120618   4.079   4.212   1.352
 6684SOL    HW220619   4.081   4.245   1.192
 6685SOL     OW20620   5.148   3.938   1.112
 6685SOL    HW120621   5.200   3.873   1.167
 6685SOL    HW220622   5.099   4.001   1.173
 6686SOL     OW20623   4.725   3.758   1.154
 6686SOL    HW120624   4.662   3.686   1.123
 6686SOL    HW220625   4.818   3.722   1.154
 6687SOL     OW20626   4.494   5.054   0.301
 6687SOL    HW120627   4.448   4.967   0.318
 6687SOL    HW220628   4.585   5.051   0.342
 6688SOL     OW20629   4.342   5.291   1.284
 6688SOL    HW120630   4.337   5.373   1.341
 6688SOL    HW220631   4.431   5.288   1.239
 6689SOL     OW20632   5.076   3.776   0.168
 6689SOL    HW120633   5.111   3.735   0.084
 6689SOL    HW220634   4.986   3.738   0.188
 6690SOL     OW20635   5.024   4.177   0.691
 6690SOL    HW120636   4.965   4.257   0.695
 6690SOL    HW220637   5.039   4.142   0.784
 6691SOL     OW20638   5.317   3.945   0.882
 6691SOL    HW120639   5.233   3.944   0.936
 6691SOL    HW220640   5.319   4.028   0.826
 6692SOL     OW20641   3.763   4.801   0.300
 6692SOL    HW120642   3.862   4.790   0.291
 6692SOL    HW220643   3.723   4.715   0.332
 6693SOL     OW20644   3.954   4.352   1.975
 6693SOL    HW120645   3.861   4.350   2.012
 6693SOL    HW220646   3.955   4.313   1.883
 6694SOL     OW20647   3.949   3.999   2.858
 6694SOL    HW120648   3.984   3.982   2.950
 6694SOL    HW220649   3.861   3.954   2.846
 6695SOL     OW20650   3.743   4.092   2.509
 6695SOL    HW120651   3.661   4.135   2.548
 6695SOL    HW220652   3.715   4.019   2.446
 6696SOL     OW20653   4.293   4.999   3.027
 6696SOL    HW120654   4.200   4.992   2.990
 6696SOL    HW220655   4.304   5.088   3.071
 6697SOL     OW20656   5.279   5.235   2.565
 6697SOL    HW120657   5.222   5.219   2.646
 6697SOL    HW220658   5.220   5.245   2.485
 6698SOL     OW20659   4.859   4.427   2.579
 6698SOL    HW120660   4.916   4.505   2.554
 6698SOL    HW220661   4.799   4.453   2.655
 6699SOL     OW20662   4.492   4.868   2.885
 6699SOL    HW120663   4.414   4.885   2.945
 6699SOL    HW220664   4.526   4.955   2.849
 6700SOL     OW20665   4.574   4.522   3.685
 6700SOL    HW120666   4.570   4.598   3.750
 6700SOL    HW220667   4.596   4.558   3.594
 6701SOL     OW20668   4.409   4.736   2.527
 6701SOL    HW120669   4.478   4.720   2.597
 6701SOL    HW220670   4.336   4.793   2.565
 6702SOL     OW20671   4.410   4.885   3.665
 6702SOL    HW120672   4.470   4.964   3.679
 6702SOL    HW220673   4.324   4.916   3.624
 6703SOL     OW20674   4.059   5.159   2.923
 6703SOL    HW120675   3.981   5.128   2.870
 6703SOL    HW220676   4.117   5.217   2.866
 6704SOL     OW20677   5.184   5.229   3.201
 6704SOL    HW120678   5.208   5.323   3.227
 6704SOL    HW220679   5.168   5.175   3.283
 6705SOL     OW20680   4.162   4.116   3.361
 6705SOL    HW120681   4.244   4.060   3.370
 6705SOL    HW220682   4.081   4.058   3.365
 6706SOL     OW20683   4.851   5.065   3.552
 6706SOL    HW120684   4.898   5.065   3.640
 6706SOL    HW220685   4.803   4.978   3.541
 6707SOL     OW20686   3.954   5.158   2.400
 6707SOL    HW120687   3.928   5.254   2.400
 6707SOL    HW220688   3.883   5.104   2.445
 6708SOL     OW20689   3.964   4.815   2.748
 6708SOL    HW120690   3.978   4.731   2.800
 6708SOL    HW220691   3.909   4.879   2.803
 6709SOL     OW20692   4.330   4.688   1.985
 6709SOL    HW120693   4.337   4.772   1.931
 6709SOL    HW220694   4.376   4.701   2.073
 6710SOL     OW20695   3.846   4.367   2.425
 6710SOL    HW120696   3.801   4.279   2.442
 6710SOL    HW220697   3.845   4.421   2.509
 6711SOL     OW20698   3.751   5.320   1.979
 6711SOL    HW120699   3.732   5.224   2.000
 6711SOL    HW220700   3.718   5.378   2.054
 6712SOL     OW20701   5.413   4.646   2.474
 6712SOL    HW120702   5.508   4.617   2.482
 6712SOL    HW220703   5.405   4.711   2.399
 6713SOL     OW20704   3.837   4.461   3.459
 6713SOL    HW120705   3.925   4.448   3.504
 6713SOL    HW220706   3.824   4.558   3.437
 6714SOL     OW20707   4.337   5.089   2.588
 6714SOL    HW120708   4.288   5.002   2.597
 6714SOL    HW220709   4.314   5.132   2.501
 6715SOL     OW20710   5.017   4.952   3.285
 6715SOL    HW120711   5.054   4.879   3.227
 6715SOL    HW220712   5.069   4.957   3.370
 6716SOL     OW20713   4.533   3.728   2.364
 6716SOL    HW120714   4.573   3.819   2.355
 6716SOL    HW220715   4.433   3.736   2.370
 6717SOL     OW20716   3.921   4.700   3.126
 6717SOL    HW120717   4.010   4.655   3.112
 6717SOL    HW220718   3.848   4.635   3.107
 6718SOL     OW20719   4.041   3.975   3.663
 6718SOL    HW120720   4.112   4.046   3.669
 6718SOL    HW220721   3.953   4.014   3.691
 6719SOL     OW20722   5.190   5.141   2.815
 6719SOL    HW120723   5.131   5.147   2.895
 6719SOL    HW220724   5.175   5.053   2.769
 6720SOL     OW20725   5.391   5.438   2.434
 6720SOL    HW120726   5.350   5.415   2.346
 6720SOL    HW220727   5.373   5.364   2.499
 6721SOL     OW20728   4.322   4.453   2.132
 6721SOL    HW120729   4.346   4.522   2.064
 6721SOL    HW220730   4.244   4.486   2.186
 6722SOL     OW20731   5.005   4.069   2.806
 6722SOL    HW120732   4.919   4.019   2.793
 6722SOL    HW220733   5.067   4.015   2.862
 6723SOL     OW20734   4.531   4.329   3.327
 6723SOL    HW120735   4.484   4.326   3.416
 6723SOL    HW220736   4.480   4.274   3.261
 6724SOL     OW20737   5.118   4.193   3.536
 6724SOL    HW120738   5.098   4.236   3.624
 6724SOL    HW220739   5.196   4.131   3.545
 6725SOL     OW20740   4.697   4.614   3.434
 6725SOL    HW120741   4.743   4.530   3.405
 6725SOL    HW220742   4.641   4.648   3.359
 6726SOL     OW20743   4.715   4.134   3.104
 6726SOL    HW120744   4.638   4.168   3.158
 6726SOL    HW220745   4.681   4.083   3.025
 6727SOL     OW20746   4.765   4.425   2.291
 6727SOL    HW120747   4.791   4.421   2.387
 6727SOL    HW220748   4.680   4.374   2.277
 6728SOL     OW20749   3.800   4.535   2.651
 6728SOL    HW120750   3.899   4.523   2.660
 6728SOL    HW220751   3.776   4.630   2.672
 6729SOL     OW20752   4.589   4.072   2.057
 6729SOL    HW120753   4.648   4.135   2.008
 6729SOL    HW220754   4.608   3.978   2.028
 6730SOL     OW20755   5.086   4.868   2.407
 6730SOL    HW120756   5.169   4.839   2.359
 6730SOL    HW220757   5.037   4.935   2.351
 6731SOL     OW20758   4.274   3.920   2.747
 6731SOL    HW120759   4.269   3.915   2.847
 6731SOL    HW220760   4.276   4.016   2.718
 6732SOL     OW20761   4.732   5.180   2.339
 6732SOL    HW120762   4.686   5.252   2.287
 6732SOL    HW220763   4.728   5.200   2.437
 6733SOL     OW20764   4.951   5.274   3.368
 6733SOL    HW120765   4.957   5.197   3.432
 6733SOL    HW220766   4.899   5.248   3.288
 6734SOL     OW20767   4.045   4.667   2.104
 6734SOL    HW120768   4.127   4.706   2.062
 6734SOL    HW220769   4.018   4.585   2.055
 6735SOL     OW20770   4.185   4.990   3.589
 6735SOL    HW120771   4.135   4.991   3.503
 6735SOL    HW220772   4.122   4.972   3.665
 6736SOL     OW20773   4.835   5.500   2.099
 6736SOL    HW120774   4.775   5.438   2.149
 6736SOL    HW220775   4.866   5.456   2.014
 6737SOL     OW20776   3.926   4.009   3.360
 6737SOL    HW120777   3.846   4.069   3.347
 6737SOL    HW220778   3.916   3.960   3.446
 6738SOL     OW20779   5.124   3.831   2.288
 6738SOL    HW120780   5.100   3.794   2.198
 6738SOL    HW220781   5.223   3.847   2.292
 6739SOL     OW20782   4.106   4.424   2.342
 6739SOL    HW120783   4.151   4.334   2.339
 6739SOL    HW220784   4.012   4.413   2.375
 6740SOL     OW20785   4.338   3.846   1.979
 6740SOL    HW120786   4.436   3.824   1.986
 6740SOL    HW220787   4.307   3.829   1.886
 6741SOL     OW20788   4.505   3.988   3.611
 6741SOL    HW120789   4.572   3.927   3.654
 6741SOL    HW220790   4.432   4.007   3.676
 6742SOL     OW20791   5.075   4.314   3.295
 6742SOL    HW120792   5.103   4.271   3.380
 6742SOL    HW220793   5.100   4.410   3.296
 6743SOL     OW20794   4.527   5.126   2.786
 6743SOL    HW120795   4.617   5.140   2.744
 6743SOL    HW220796   4.456   5.128   2.715
 6744SOL     OW20797   4.646   4.227   2.761
 6744SOL    HW120798   4.621   4.218   2.665
 6744SOL    HW220799   4.694   4.145   2.792
 6745SOL     OW20800   4.263   3.788   2.374
 6745SOL    HW120801   4.182   3.789   2.432
 6745SOL    HW220802   4.266   3.871   2.319
 6746SOL     OW20803   5.158   4.912   1.903
 6746SOL    HW120804   5.190   4.836   1.960
 6746SOL    HW220805   5.066   4.939   1.933
 6747SOL     OW20806   4.021   3.759   2.033
 6747SOL    HW120807   4.070   3.843   2.012
 6747SOL    HW220808   4.083   3.694   2.078
 6748SOL     OW20809   4.659   3.960   2.342
 6748SOL    HW120810   4.611   4.001   2.264
 6748SOL    HW220811   4.758   3.958   2.323
 6749SOL     OW20812   4.800   4.407   3.326
 6749SOL    HW120813   4.720   4.346   3.329
 6749SOL    HW220814   4.881   4.354   3.302
 6750SOL     OW20815   4.951   5.294   2.655
 6750SOL    HW120816   4.972   5.368   2.590
 6750SOL    HW220817   5.019   5.294   2.728
 6751SOL     OW20818   4.183   4.876   2.603
 6751SOL    HW120819   4.112   4.849   2.668
 6751SOL    HW220820   4.157   4.848   2.510
 6752SOL     OW20821   4.756   4.273   1.878
 6752SOL    HW120822   4.715   4.355   1.839
 6752SOL    HW220823   4.820   4.299   1.951
 6753SOL     OW20824   3.802   4.280   3.248
 6753SOL    HW120825   3.894   4.279   3.207
 6753SOL    HW220826   3.796   4.354   3.315
 6754SOL     OW20827   4.285   3.946   3.009
 6754SOL    HW120828   4.323   3.862   3.046
 6754SOL    HW220829   4.197   3.965   3.053
 6755SOL     OW20830   4.590   4.178   2.504
 6755SOL    HW120831   4.558   4.250   2.442
 6755SOL    HW220832   4.614   4.097   2.451
 6756SOL     OW20833   4.741   3.763   2.615
 6756SOL    HW120834   4.669   3.768   2.546
 6756SOL    HW220835   4.717   3.694   2.684
 6757SOL     OW20836   5.153   4.897   2.729
 6757SOL    HW120837   5.098   4.813   2.722
 6757SOL    HW220838   5.179   4.926   2.637
 6758SOL     OW20839   4.212   5.109   2.036
 6758SOL    HW120840   4.125   5.094   2.083
 6758SOL    HW220841   4.195   5.135   1.941
 6759SOL     OW20842   5.114   4.299   1.940
 6759SOL    HW120843   5.060   4.278   2.021
 6759SOL    HW220844   5.205   4.258   1.949
 6760SOL     OW20845   4.251   3.980   2.190
 6760SOL    HW120846   4.278   3.921   2.115
 6760SOL    HW220847   4.251   4.075   2.159
 6761SOL     OW20848   4.788   5.071   3.202
 6761SOL    HW120849   4.708   5.048   3.257
 6761SOL    HW220850   4.871   5.045   3.251
 6762SOL     OW20851   4.835   4.919   2.962
 6762SOL    HW120852   4.795   4.963   3.043
 6762SOL    HW220853   4.794   4.956   2.879
 6763SOL     OW20854   4.639   3.813   3.264
 6763SOL    HW120855   4.664   3.793   3.169
 6763SOL    HW220856   4.711   3.869   3.306
 6764SOL     OW20857   4.704   4.840   3.581
 6764SOL    HW120858   4.605   4.846   3.591
 6764SOL    HW220859   4.727   4.760   3.525
 6765SOL     OW20860   4.429   4.774   2.230
 6765SOL    HW120861   4.415   4.781   2.329
 6765SOL    HW220862   4.513   4.723   2.212
 6766SOL     OW20863   4.134   4.537   3.113
 6766SOL    HW120864   4.220   4.549   3.163
 6766SOL    HW220865   4.092   4.450   3.140
 6767SOL     OW20866   4.998   4.110   3.124
 6767SOL    HW120867   5.019   4.184   3.188
 6767SOL    HW220868   4.909   4.127   3.081
 6768SOL     OW20869   4.091   4.824   2.363
 6768SOL    HW120870   4.084   4.907   2.307
 6768SOL    HW220871   4.095   4.744   2.303
 6769SOL     OW20872   4.290   4.261   2.727
 6769SOL    HW120873   4.302   4.327   2.653
 6769SOL    HW220874   4.336   4.295   2.810
 6770SOL     OW20875   4.976   5.072   2.250
 6770SOL    HW120876   5.026   5.149   2.290
 6770SOL    HW220877   4.881   5.074   2.282
 6771SOL     OW20878   4.996   5.169   3.004
 6771SOL    HW120879   5.043   5.182   3.091
 6771SOL    HW220880   4.930   5.095   3.013
 6772SOL     OW20881   4.078   5.234   3.191
 6772SOL    HW120882   4.057   5.190   3.104
 6772SOL    HW220883   4.175   5.260   3.194
 6773SOL     OW20884   4.126   4.475   3.460
 6773SOL    HW120885   4.194   4.530   3.413
 6773SOL    HW220886   4.166   4.387   3.487
 6774SOL     OW20887   4.737   3.829   3.632
 6774SOL    HW120888   4.743   3.914   3.580
 6774SOL    HW220889   4.769   3.753   3.575
 6775SOL     OW20890   4.228   3.774   3.602
 6775SOL    HW120891   4.186   3.717   3.532
 6775SOL    HW220892   4.162   3.843   3.634
 6776SOL     OW20893   4.297   4.594   2.891
 6776SOL    HW120894   4.341   4.683   2.882
 6776SOL    HW220895   4.234   4.594   2.968
 6777SOL     OW20896   5.084   4.586   2.907
 6777SOL    HW120897   5.009   4.586   2.841
 6777SOL    HW220898   5.121   4.494   2.916
 6778SOL     OW20899   4.933   4.249   2.137
 6778SOL    HW120900   4.946   4.165   2.191
 6778SOL    HW220901   4.904   4.323   2.197
 6779SOL     OW20902   4.031   3.937   3.093
 6779SOL    HW120903   4.008   3.974   3.183
 6779SOL    HW220904   4.001   3.842   3.087
 6780SOL     OW20905   3.761   5.034   3.144
 6780SOL    HW120906   3.814   4.985   3.212
 6780SOL    HW220907   3.783   5.132   3.149
 6781SOL     OW20908   4.456   4.358   2.926
 6781SOL    HW120909   4.515   4.332   2.850
 6781SOL    HW220910   4.428   4.454   2.915
 6782SOL     OW20911   4.031   3.787   2.480
 6782SOL    HW120912   4.020   3.881   2.513
 6782SOL    HW220913   4.026   3.724   2.557
 6783SOL     OW20914   5.346   4.091   2.236
 6783SOL    HW120915   5.348   4.015   2.300
 6783SOL    HW220916   5.298   4.168   2.276
 6784SOL     OW20917   4.747   4.490   2.828
 6784SOL    HW120918   4.762   4.511   2.924
 6784SOL    HW220919   4.717   4.395   2.819
 6785SOL     OW20920   4.074   4.622   3.666
 6785SOL    HW120921   4.150   4.666   3.714
 6785SOL    HW220922   4.109   4.575   3.584
 6786SOL     OW20923   5.027   4.562   1.904
 6786SOL    HW120924   5.061   4.469   1.919
 6786SOL    HW220925   5.045   4.589   1.809
 6787SOL     OW20926   4.792   5.057   2.711
 6787SOL    HW120927   4.799   4.973   2.656
 6787SOL    HW220928   4.854   5.126   2.675
 6788SOL     OW20929   4.043   4.534   2.811
 6788SOL    HW120930   4.136   4.570   2.816
 6788SOL    HW220931   4.037   4.449   2.863
 6789SOL     OW20932   4.063   4.233   2.868
 6789SOL    HW120933   4.011   4.150   2.851
 6789SOL    HW220934   4.140   4.238   2.804
 6790SOL     OW20935   4.862   4.104   3.540
 6790SOL    HW120936   4.817   4.167   3.604
 6790SOL    HW220937   4.955   4.135   3.523
 6791SOL     OW20938   4.884   3.931   3.339
 6791SOL    HW120939   4.884   3.995   3.416
 6791SOL    HW220940   4.912   3.979   3.256
 6792SOL     OW20941   3.732   5.050   2.062
 6792SOL    HW120942   3.639   5.071   2.031
 6792SOL    HW220943   3.742   4.951   2.075
 6793SOL     OW20944   4.726   4.520   3.100
 6793SOL    HW120945   4.767   4.488   3.186
 6793SOL    HW220946   4.630   4.493   3.097
 6794SOL     OW20947   3.764   4.268   2.976
 6794SOL    HW120948   3.849   4.235   2.935
 6794SOL    HW220949   3.777   4.283   3.074
 6795SOL     OW20950   3.913   4.244   3.584
 6795SOL    HW120951   3.972   4.204   3.514
 6795SOL    HW220952   3.855   4.315   3.543
 6796SOL     OW20953   5.093   4.674   3.522
 6796SOL    HW120954   5.132   4.763   3.542
 6796SOL    HW220955   5.103   4.654   3.425
 6797SOL     OW20956   4.539   4.296   2.187
 6797SOL    HW120957   4.546   4.207   2.141
 6797SOL    HW220958   4.445   4.330   2.179
 6798SOL     OW20959   3.976   5.288   3.606
 6798SOL    HW120960   3.946   5.345   3.682
 6798SOL    HW220961   3.969   5.191   3.632
 6799SOL     OW20962   4.395   4.188   3.131
 6799SOL    HW120963   4.361   4.099   3.101
 6799SOL    HW220964   4.421   4.242   3.051
 6800SOL     OW20965   4.197   4.224   2.053
 6800SOL    HW120966   4.258   4.304   2.057
 6800SOL    HW220967   4.102   4.255   2.060
 6801SOL     OW20968   3.883   4.861   3.328
 6801SOL    HW120969   3.905   4.800   3.404
 6801SOL    HW220970   3.893   4.812   3.242
 6802SOL     OW20971   5.071   4.783   3.096
 6802SOL    HW120972   5.095   4.720   3.022
 6802SOL    HW220973   4.981   4.823   3.078
 6803SOL     OW20974   5.026   4.579   2.171
 6803SOL    HW120975   4.940   4.548   2.213
 6803SOL    HW220976   5.022   4.565   2.072
 6804SOL     OW20977   3.807   4.982   2.884
 6804SOL    HW120978   3.802   4.981   2.984
 6804SOL    HW220979   3.724   4.941   2.846
 6805SOL     OW20980   4.412   5.386   3.578
 6805SOL    HW120981   4.356   5.467   3.587
 6805SOL    HW220982   4.464   5.390   3.492
 6806SOL     OW20983   5.450   3.859   2.385
 6806SOL    HW120984   5.523   3.842   2.318
 6806SOL    HW220985   5.419   3.772   2.423
 6807SOL     OW20986   5.004   4.651   2.534
 6807SOL    HW120987   5.064   4.570   2.536
 6807SOL    HW220988   5.044   4.720   2.474
 6808SOL     OW20989   4.554   4.997   3.284
 6808SOL    HW120990   4.549   5.030   3.379
 6808SOL    HW220991   4.468   5.016   3.238
 6809SOL     OW20992   3.987   4.050   2.582
 6809SOL    HW120993   3.908   4.101   2.548
 6809SOL    HW220994   3.978   4.035   2.680
 6810SOL     OW20995   4.546   4.726   3.234
 6810SOL    HW120996   4.586   4.725   3.142
 6810SOL    HW220997   4.556   4.818   3.274
 6811SOL     OW20998   4.640   4.634   2.153
 6811SOL    HW120999   4.703   4.672   2.085
 6811SOL    HW221000   4.680   4.551   2.192
 6812SOL     OW21001   4.096   5.012   3.352
 6812SOL    HW121002   4.083   5.105   3.318
 6812SOL    HW221003   4.012   4.960   3.339
 6813SOL     OW21004   4.763   4.822   2.558
 6813SOL    HW121005   4.693   4.775   2.612
 6813SOL    HW221006   4.822   4.754   2.515
 6814SOL     OW21007   4.738   3.960   2.833
 6814SOL    HW121008   4.730   3.924   2.740
 6814SOL    HW221009   4.736   3.884   2.898
 6815SOL     OW21010   3.979   5.072   2.152
 6815SOL    HW121011   3.883   5.073   2.125
 6815SOL    HW221012   3.991   5.125   2.236
 6816SOL     OW21013   3.829   4.737   3.588
 6816SOL    HW121014   3.752   4.704   3.642
 6816SOL    HW221015   3.914   4.707   3.630
 6817SOL     OW21016   4.396   3.927   3.351
 6817SOL    HW121017   4.486   3.911   3.311
 6817SOL    HW221018   4.404   3.932   3.450
 6818SOL     OW21019   3.799   4.069   1.895
 6818SOL    HW121020   3.707   4.041   1.866
 6818SOL    HW221021   3.830   4.146   1.839
 6819SOL     OW21022   5.164   4.580   3.260
 6819SOL    HW121023   5.107   4.632   3.197
 6819SOL    HW221024   5.260   4.592   3.236
 6820SOL     OW21025   3.796   3.890   2.180
 6820SOL    HW121026   3.779   3.973   2.126
 6820SOL    HW221027   3.886   3.853   2.158
 6821SOL     OW21028   4.907   5.059   1.981
 6821SOL    HW121029   4.808   5.048   1.983
 6821SOL    HW221030   4.941   5.074   2.074
 6822SOL     OW21031   4.337   4.566   3.293
 6822SOL    HW121032   4.393   4.647   3.276
 6822SOL    HW221033   4.396   4.486   3.296
 6823SOL     OW21034   4.440   4.289   3.570
 6823SOL    HW121035   4.459   4.354   3.644
 6823SOL    HW221036   4.500   4.209   3.579
 6824SOL     OW21037   5.174   4.944   3.495
 6824SOL    HW121038   5.165   4.934   3.594
 6824SOL    HW221039   5.270   4.937   3.469
 6825SOL     OW21040   4.949   4.049   2.311
 6825SOL    HW121041   5.014   3.975   2.300
 6825SOL    HW221042   4.969   4.099   2.395
 6826SOL     OW21043   4.318   4.469   2.514
 6826SOL    HW121044   4.368   4.554   2.495
 6826SOL    HW221045   4.230   4.471   2.466
 6827SOL     OW21046   4.583   5.098   1.878
 6827SOL    HW121047   4.537   5.113   1.966
 6827SOL    HW221048   4.627   5.183   1.848
 6828SOL     OW21049   4.583   4.680   2.723
 6828SOL    HW121050   4.637   4.611   2.771
 6828SOL    HW221051   4.551   4.749   2.789
 6829SOL     OW21052   4.807   4.708   1.949
 6829SOL    HW121053   4.784   4.761   1.867
 6829SOL    HW221054   4.888   4.652   1.930
 6830SOL     OW21055   3.945   5.038   3.706
 6830SOL    HW121056   3.880   4.965   3.685
 6830SOL    HW221057   3.949   5.052   3.804
 6831SOL     OW21058   3.803   4.964   2.515
 6831SOL    HW121059   3.802   4.917   2.603
 6831SOL    HW221060   3.885   4.936   2.464
 6832SOL     OW21061   4.396   5.115   3.486
 6832SOL    HW121062   4.318   5.065   3.524
 6832SOL    HW221063   4.393   5.210   3.517
 6833SOL     OW21064   4.152   4.148   2.382
 6833SOL    HW121065   4.182   4.076   2.320
 6833SOL    HW221066   4.113   4.108   2.465
 6834SOL     OW21067   5.429   5.211   2.966
 6834SOL    HW121068   5.336   5.186   2.939
 6834SOL    HW221069   5.455   5.161   3.048
 6835SOL     OW21070   4.041   4.271   3.142
 6835SOL    HW121071   4.079   4.212   3.214
 6835SOL    HW221072   4.081   4.245   3.054
 6836SOL     OW21073   5.148   3.938   2.974
 6836SOL    HW121074   5.200   3.873   3.029
 6836SOL    HW221075   5.099   4.001   3.035
 6837SOL     OW21076   4.725   3.758   3.016
 6837SOL    HW121077   4.662   3.686   2.985
 6837SOL    HW221078   4.818   3.722   3.016
 6838SOL     OW21079   4.494   5.054   2.163
 6838SOL    HW121080   4.448   4.967   2.180
 6838SOL    HW221081   4.585   5.051   2.204
 6839SOL     OW21082   4.342   5.291   3.146
 6839SOL    HW121083   4.337   5.373   3.203
 6839SOL    HW221084   4.431   5.288   3.101
 6840SOL     OW21085   5.076   3.776   2.030
 6840SOL    HW121086   5.111   3.735   1.946
 6840SOL    HW221087   4.986   3.738   2.050
 6841SOL     OW21088   5.024   4.177   2.553
 6841SOL    HW121089   4.965   4.257   2.557
 6841SOL    HW221090   5.039   4.142   2.646
 6842SOL     OW21091   5.317   3.945   2.744
 6842SOL    HW121092   5.233   3.944   2.798
 6842SOL    HW221093   5.319   4.028   2.688
 6843SOL     OW21094   3.763   4.801   2.162
 6843SOL    HW121095   3.862   4.790   2.153
 6843SOL    HW221096   3.723   4.715   2.194
 6844SOL     OW21097   3.954   4.352   3.837
 6844SOL    HW121098   3.861   4.350   3.874
 6844SOL    HW221099   3.955   4.313   3.745
 6845SOL     OW21100   3.949   3.999   4.720
 6845SOL    HW121101   3.984   3.982   4.812
 6845SOL    HW221102   3.861   3.954   4.708
 6846SOL     OW21103   3.743   4.092   4.371
 6846SOL    HW121104   3.661   4.135   4.410
 6846SOL    HW221105   3.715   4.019   4.308
 6847SOL     OW21106   4.293   4.999   4.889
 6847SOL    HW121107   4.200   4.992   4.852
 6847SOL    HW221108   4.304   5.088   4.933
 6848SOL     OW21109   5.279   5.235   4.427
 6848SOL    HW121110   5.222   5.219   4.508
 6848SOL    HW221111   5.220   5.245   4.347
 6849SOL     OW21112   4.859   4.427   4.441
 6849SOL    HW121113   4.916   4.505   4.416
 6849SOL    HW221114   4.799   4.453   4.517
 6850SOL     OW21115   4.492   4.868   4.747
 6850SOL    HW121116   4.414   4.885   4.807
 6850SOL    HW221117   4.526   4.955   4.711
 6851SOL     OW21118   4.574   4.522   5.547
 6851SOL    HW121119   4.570   4.598   5.612
 6851SOL    HW221120   4.596   4.558   5.456
 6852SOL     OW21121   4.409   4.736   4.389
 6852SOL    HW121122   4.478   4.720   4.459
 6852SOL    HW221123   4.336   4.793   4.427
 6853SOL     OW21124   4.410   4.885   5.527
 6853SOL    HW121125   4.470   4.964   5.541
 6853SOL    HW221126   4.324   4.916   5.486
 6854SOL     OW21127   4.059   5.159   4.785
 6854SOL    HW121128   3.981   5.128   4.732
 6854SOL    HW221129   4.117   5.217   4.728
 6855SOL     OW21130   5.184   5.229   5.063
 6855SOL    HW121131   5.208   5.323   5.089
 6855SOL    HW221132   5.168   5.175   5.145
 6856SOL     OW21133   4.162   4.116   5.223
 6856SOL    HW121134   4.244   4.060   5.232
 6856SOL    HW221135   4.081   4.058   5.227
 6857SOL     OW21136   4.851   5.065   5.414
 6857SOL    HW121137   4.898   5.065   5.502
 6857SOL    HW221138   4.803   4.978   5.403
 6858SOL     OW21139   3.954   5.158   4.262
 6858SOL    HW121140   3.928   5.254   4.262
 6858SOL    HW221141   3.883   5.104   4.307
 6859SOL     OW21142   3.964   4.815   4.610
 6859SOL    HW121143   3.978   4.731   4.662
 6859SOL    HW221144   3.909   4.879   4.665
 6860SOL     OW21145   4.330   4.688   3.847
 6860SOL    HW121146   4.337   4.772   3.793
 6860SOL    HW221147   4.376   4.701   3.935
 6861SOL     OW21148   3.846   4.367   4.287
 6861SOL    HW121149   3.801   4.279   4.304
 6861SOL    HW221150   3.845   4.421   4.371
 6862SOL     OW21151   3.751   5.320   3.841
 6862SOL    HW121152   3.732   5.224   3.862
 6862SOL    HW221153   3.718   5.378   3.916
 6863SOL     OW21154   5.413   4.646   4.336
 6863SOL    HW121155   5.508   4.617   4.344
 6863SOL    HW221156   5.405   4.711   4.261
 6864SOL     OW21157   3.837   4.461   5.321
 6864SOL    HW121158   3.925   4.448   5.366
 6864SOL    HW221159   3.824   4.558   5.299
 6865SOL     OW21160   4.337   5.089   4.450
 6865SOL    HW121161   4.288   5.002   4.459
 6865SOL    HW221162   4.314   5.132   4.363
 6866SOL     OW21163   5.017   4.952   5.147
 6866SOL    HW121164   5.054   4.879   5.089
 6866SOL    HW221165   5.069   4.957   5.232
 6867SOL     OW21166   4.533   3.728   4.226
 6867SOL    HW121167   4.573   3.819   4.217
 6867SOL    HW221168   4.433   3.736   4.232
 6868SOL     OW21169   3.921   4.700   4.988
 6868SOL    HW121170   4.010   4.655   4.974
 6868SOL    HW221171   3.848   4.635   4.969
 6869SOL     OW21172   4.041   3.975   5.525
 6869SOL    HW121173   4.112   4.046   5.531
 6869SOL    HW221174   3.953   4.014   5.553
 6870SOL     OW21175   5.190   5.141   4.677
 6870SOL    HW121176   5.131   5.147   4.757
 6870SOL    HW221177   5.175   5.053   4.631
 6871SOL     OW21178   5.391   5.438   4.296
 6871SOL    HW121179   5.350   5.415   4.208
 6871SOL    HW221180   5.373   5.364   4.361
 6872SOL     OW21181   4.322   4.453   3.994
 6872SOL    HW121182   4.346   4.522   3.926
 6872SOL    HW221183   4.244   4.486   4.048
 6873SOL     OW21184   5.005   4.069   4.668
 6873SOL    HW121185   4.919   4.019   4.655
 6873SOL    HW221186   5.067   4.015   4.724
 6874SOL     OW21187   4.531   4.329   5.189
 6874SOL    HW121188   4.484   4.326   5.278
 6874SOL    HW221189   4.480   4.274   5.123
 6875SOL     OW21190   5.118   4.193   5.398
 6875SOL    HW121191   5.098   4.236   5.486
 6875SOL    HW221192   5.196   4.131   5.407
 6876SOL     OW21193   4.697   4.614   5.296
 6876SOL    HW121194   4.743   4.530   5.267
 6876SOL    HW221195   4.641   4.648   5.221
 6877SOL     OW21196   4.715   4.134   4.966
 6877SOL    HW121197   4.638   4.168   5.020
 6877SOL    HW221198   4.681   4.083   4.887
 6878SOL     OW21199   4.765   4.425   4.153
 6878SOL    HW121200   4.791   4.421   4.249
 6878SOL    HW221201   4.680   4.374   4.139
 6879SOL     OW21202   3.800   4.535   4.513
 6879SOL    HW121203   3.899   4.523   4.522
 6879SOL    HW221204   3.776   4.630   4.534
 6880SOL     OW21205   4.589   4.072   3.919
 6880SOL    HW121206   4.648   4.135   3.870
 6880SOL    HW221207   4.608   3.978   3.890
 6881SOL     OW21208   5.086   4.868   4.269
 6881SOL    HW121209   5.169   4.839   4.221
 6881SOL    HW221210   5.037   4.935   4.213
 6882SOL     OW21211   4.274   3.920   4.609
 6882SOL    HW121212   4.269   3.915   4.709
 6882SOL    HW221213   4.276   4.016   4.580
 6883SOL     OW21214   4.732   5.180   4.201
 6883SOL    HW121215   4.686   5.252   4.149
 6883SOL    HW221216   4.728   5.200   4.299
 6884SOL     OW21217   4.951   5.274   5.230
 6884SOL    HW121218   4.957   5.197   5.294
 6884SOL    HW221219   4.899   5.248   5.150
 6885SOL     OW21220   4.045   4.667   3.966
 6885SOL    HW121221   4.127   4.706   3.924
 6885SOL    HW221222   4.018   4.585   3.917
 6886SOL     OW21223   4.185   4.990   5.451
 6886SOL    HW121224   4.135   4.991   5.365
 6886SOL    HW221225   4.122   4.972   5.527
 6887SOL     OW21226   4.835   5.500   3.961
 6887SOL    HW121227   4.775   5.438   4.011
 6887SOL    HW221228   4.866   5.456   3.876
 6888SOL     OW21229   3.926   4.009   5.222
 6888SOL    HW121230   3.846   4.069   5.209
 6888SOL    HW221231   3.916   3.960   5.308
 6889SOL     OW21232   5.124   3.831   4.150
 6889SOL    HW121233   5.100   3.794   4.060
 6889SOL    HW221234   5.223   3.847   4.154
 6890SOL     OW21235   4.106   4.424   4.204
 6890SOL    HW121236   4.151   4.334   4.201
 6890SOL    HW221237   4.012   4.413   4.237
 6891SOL     OW21238   4.338   3.846   3.841
 6891SOL    HW121239   4.436   3.824   3.848
 6891SOL    HW221240   4.307   3.829   3.748
 6892SOL     OW21241   4.505   3.988   5.473
 6892SOL    HW121242   4.572   3.927   5.516
 6892SOL    HW221243   4.432   4.007   5.538
 6893SOL     OW21244   5.075   4.314   5.157
 6893SOL    HW121245   5.103   4.271   5.242
 6893SOL    HW221246   5.100   4.410   5.158
 6894SOL     OW21247   4.527   5.126   4.648
 6894SOL    HW121248   4.617   5.140   4.606
 6894SOL    HW221249   4.456   5.128   4.577
 6895SOL     OW21250   4.646   4.227   4.623
 6895SOL    HW121251   4.621   4.218   4.527
 6895SOL    HW221252   4.694   4.145   4.654
 6896SOL     OW21253   4.263   3.788   4.236
 6896SOL    HW121254   4.182   3.789   4.294
 6896SOL    HW221255   4.266   3.871   4.181
 6897SOL     OW21256   5.158   4.912   3.765
 6897SOL    HW121257   5.190   4.836   3.822
 6897SOL    HW221258   5.066   4.939   3.795
 6898SOL     OW21259   4.021   3.759   3.895
 6898SOL    HW121260   4.070   3.843   3.874
 6898SOL    HW221261   4.083   3.694   3.940
 6899SOL     OW21262   4.659   3.960   4.204
 6899SOL    HW121263   4.611   4.001   4.126
 6899SOL    HW221264   4.758   3.958   4.185
 6900SOL     OW21265   4.800   4.407   5.188
 6900SOL    HW121266   4.720   4.346   5.191
 6900SOL    HW221267   4.881   4.354   5.164
 6901SOL     OW21268   4.951   5.294   4.517
 6901SOL    HW121269   4.972   5.368   4.452
 6901SOL    HW221270   5.019   5.294   4.590
 6902SOL     OW21271   4.183   4.876   4.465
 6902SOL    HW121272   4.112   4.849   4.530
 6902SOL    HW221273   4.157   4.848   4.372
 6903SOL     OW21274   4.756   4.273   3.740
 6903SOL    HW121275   4.715   4.355   3.701
 6903SOL    HW221276   4.820   4.299   3.813
 6904SOL     OW21277   3.802   4.280   5.110
 6904SOL    HW121278   3.894   4.279   5.069
 6904SOL    HW221279   3.796   4.354   5.177
 6905SOL     OW21280   4.285   3.946   4.871
 6905SOL    HW121281   4.323   3.862   4.908
 6905SOL    HW221282   4.197   3.965   4.915
 6906SOL     OW21283   4.590   4.178   4.366
 6906SOL    HW121284   4.558   4.250   4.304
 6906SOL    HW221285   4.614   4.097   4.313
 6907SOL     OW21286   4.741   3.763   4.477
 6907SOL    HW121287   4.669   3.768   4.408
 6907SOL    HW221288   4.717   3.694   4.546
 6908SOL     OW21289   5.153   4.897   4.591
 6908SOL    HW121290   5.098   4.813   4.584
 6908SOL    HW221291   5.179   4.926   4.499
 6909SOL     OW21292   4.212   5.109   3.898
 6909SOL    HW121293   4.125   5.094   3.945
 6909SOL    HW221294   4.195   5.135   3.803
 6910SOL     OW21295   5.114   4.299   3.802
 6910SOL    HW121296   5.060   4.278   3.883
 6910SOL    HW221297   5.205   4.258   3.811
 6911SOL     OW21298   4.251   3.980   4.052
 6911SOL    HW121299   4.278   3.921   3.977
 6911SOL    HW221300   4.251   4.075   4.021
 6912SOL     OW21301   4.788   5.071   5.064
 6912SOL    HW121302   4.708   5.048   5.119
 6912SOL    HW221303   4.871   5.045   5.113
 6913SOL     OW21304   4.835   4.919   4.824
 6913SOL    HW121305   4.795   4.963   4.905
 6913SOL    HW221306   4.794   4.956   4.741
 6914SOL     OW21307   4.639   3.813   5.126
 6914SOL    HW121308   4.664   3.793   5.031
 6914SOL    HW221309   4.711   3.869   5.168
 6915SOL     OW21310   4.704   4.840   5.443
 6915SOL    HW121311   4.605   4.846   5.453
 6915SOL    HW221312   4.727   4.760   5.387
 6916SOL     OW21313   4.429   4.774   4.092
 6916SOL    HW121314   4.415   4.781   4.191
 6916SOL    HW221315   4.513   4.723   4.074
 6917SOL     OW21316   4.134   4.537   4.975
 6917SOL    HW121317   4.220   4.549   5.025
 6917SOL    HW221318   4.092   4.450   5.002
 6918SOL     OW21319   4.998   4.110   4.986
 6918SOL    HW121320   5.019   4.184   5.050
 6918SOL    HW221321   4.909   4.127   4.943
 6919SOL     OW21322   4.091   4.824   4.225
 6919SOL    HW121323   4.084   4.907   4.169
 6919SOL    HW221324   4.095   4.744   4.165
 6920SOL     OW21325   4.290   4.261   4.589
 6920SOL    HW121326   4.302   4.327   4.515
 6920SOL    HW221327   4.336   4.295   4.672
 6921SOL     OW21328   4.976   5.072   4.112
 6921SOL    HW121329   5.026   5.149   4.152
 6921SOL    HW221330   4.881   5.074   4.144
 6922SOL     OW21331   4.996   5.169   4.866
 6922SOL    HW121332   5.043   5.182   4.953
 6922SOL    HW221333   4.930   5.095   4.875
 6923SOL     OW21334   4.078   5.234   5.053
 6923SOL    HW121335   4.057   5.190   4.966
 6923SOL    HW221336   4.175   5.260   5.056
 6924SOL     OW21337   4.126   4.475   5.322
 6924SOL    HW121338   4.194   4.530   5.275
 6924SOL    HW221339   4.166   4.387   5.349
 6925SOL     OW21340   4.737   3.829   5.494
 6925SOL    HW121341   4.743   3.914   5.442
 6925SOL    HW221342   4.769   3.753   5.437
 6926SOL     OW21343   4.228   3.774   5.464
 6926SOL    HW121344   4.186   3.717   5.394
 6926SOL    HW221345   4.162   3.843   5.496
 6927SOL     OW21346   4.297   4.594   4.753
 6927SOL    HW121347   4.341   4.683   4.744
 6927SOL    HW221348   4.234   4.594   4.830
 6928SOL     OW21349   5.084   4.586   4.769
 6928SOL    HW121350   5.009   4.586   4.703
 6928SOL    HW221351   5.121   4.494   4.778
 6929SOL     OW21352   4.933   4.249   3.999
 6929SOL    HW121353   4.946   4.165   4.053
 6929SOL    HW221354   4.904   4.323   4.059
 6930SOL     OW21355   4.031   3.937   4.955
 6930SOL    HW121356   4.008   3.974   5.045
 6930SOL    HW221357   4.001   3.842   4.949
 6931SOL     OW21358   3.761   5.034   5.006
 6931SOL    HW121359   3.814   4.985   5.074
 6931SOL    HW221360   3.783   5.132   5.011
 6932SOL     OW21361   4.456   4.358   4.788
 6932SOL    HW121362   4.515   4.332   4.712
 6932SOL    HW221363   4.428   4.454   4.777
 6933SOL     OW21364   4.031   3.787   4.342
 6933SOL    HW121365   4.020   3.881   4.375
 6933SOL    HW221366   4.026   3.724   4.419
 6934SOL     OW21367   5.346   4.091   4.098
 6934SOL    HW121368   5.348   4.015   4.162
 6934SOL    HW221369   5.298   4.168   4.138
 6935SOL     OW21370   4.747   4.490   4.690
 6935SOL    HW121371   4.762   4.511   4.786
 6935SOL    HW221372   4.717   4.395   4.681
 6936SOL     OW21373   4.074   4.622   5.528
 6936SOL    HW121374   4.150   4.666   5.576
 6936SOL    HW221375   4.109   4.575   5.446
 6937SOL     OW21376   5.027   4.562   3.766
 6937SOL    HW121377   5.061   4.469   3.781
 6937SOL    HW221378   5.045   4.589   3.671
 6938SOL     OW21379   4.792   5.057   4.573
 6938SOL    HW121380   4.799   4.973   4.518
 6938SOL    HW221381   4.854   5.126   4.537
 6939SOL     OW21382   4.043   4.534   4.673
 6939SOL    HW121383   4.136   4.570   4.678
 6939SOL    HW221384   4.037   4.449   4.725
 6940SOL     OW21385   4.063   4.233   4.730
 6940SOL    HW121386   4.011   4.150   4.713
 6940SOL    HW221387   4.140   4.238   4.666
 6941SOL     OW21388   4.862   4.104   5.402
 6941SOL    HW121389   4.817   4.167   5.466
 6941SOL    HW221390   4.955   4.135   5.385
 6942SOL     OW21391   4.884   3.931   5.201
 6942SOL    HW121392   4.884   3.995   5.278
 6942SOL    HW221393   4.912   3.979   5.118
 6943SOL     OW21394   3.732   5.050   3.924
 6943SOL    HW121395   3.639   5.071   3.893
 6943SOL    HW221396   3.742   4.951   3.937
 6944SOL     OW21397   4.726   4.520   4.962
 6944SOL    HW121398   4.767   4.488   5.048
 6944SOL    HW221399   4.630   4.493   4.959
 6945SOL     OW21400   3.764   4.268   4.838
 6945SOL    HW121401   3.849   4.235   4.797
 6945SOL    HW221402   3.777   4.283   4.936
 6946SOL     OW21403   3.913   4.244   5.446
 6946SOL    HW121404   3.972   4.204   5.376
 6946SOL    HW221405   3.855   4.315   5.405
 6947SOL     OW21406   5.093   4.674   5.384
 6947SOL    HW121407   5.132   4.763   5.404
 6947SOL    HW221408   5.103   4.654   5.287
 6948SOL     OW21409   4.539   4.296   4.049
 6948SOL    HW121410   4.546   4.207   4.003
 6948SOL    HW221411   4.445   4.330   4.041
 6949SOL     OW21412   3.976   5.288   5.468
 6949SOL    HW121413   3.946   5.345   5.544
 6949SOL    HW221414   3.969   5.191   5.494
 6950SOL     OW21415   4.395   4.188   4.993
 6950SOL    HW121416   4.361   4.099   4.963
 6950SOL    HW221417   4.421   4.242   4.913
 6951SOL     OW21418   4.197   4.224   3.915
 6951SOL    HW121419   4.258   4.304   3.919
 6951SOL    HW221420   4.102   4.255   3.922
 6952SOL     OW21421   3.883   4.861   5.190
 6952SOL    HW121422   3.905   4.800   5.266
 6952SOL    HW221423   3.893   4.812   5.104
 6953SOL     OW21424   5.071   4.783   4.958
 6953SOL    HW121425   5.095   4.720   4.884
 6953SOL    HW221426   4.981   4.823   4.940
 6954SOL     OW21427   5.026   4.579   4.033
 6954SOL    HW121428   4.940   4.548   4.075
 6954SOL    HW221429   5.022   4.565   3.934
 6955SOL     OW21430   3.807   4.982   4.746
 6955SOL    HW121431   3.802   4.981   4.846
 6955SOL    HW221432   3.724   4.941   4.708
 6956SOL     OW21433   4.412   5.386   5.440
 6956SOL    HW121434   4.356   5.467   5.449
 6956SOL    HW221435   4.464   5.390   5.354
 6957SOL     OW21436   5.450   3.859   4.247
 6957SOL    HW121437   5.523   3.842   4.180
 6957SOL    HW221438   5.419   3.772   4.285
 6958SOL     OW21439   5.004   4.651   4.396
 6958SOL    HW121440   5.064   4.570   4.398
 6958SOL    HW221441   5.044   4.720   4.336
 6959SOL     OW21442   4.554   4.997   5.146
 6959SOL    HW121443   4.549   5.030   5.241
 6959SOL    HW221444   4.468   5.016   5.100
 6960SOL     OW21445   3.987   4.050   4.444
 6960SOL    HW121446   3.908   4.101   4.410
 6960SOL    HW221447   3.978   4.035   4.542
 6961SOL     OW21448   4.546   4.726   5.096
 6961SOL    HW121449   4.586   4.725   5.004
 6961SOL    HW221450   4.556   4.818   5.136
 6962SOL     OW21451   4.640   4.634   4.015
 6962SOL    HW121452   4.703   4.672   3.947
 6962SOL    HW221453   4.680   4.551   4.054
 6963SOL     OW21454   4.096   5.012   5.214
 6963SOL    HW121455   4.083   5.105   5.180
 6963SOL    HW221456   4.012   4.960   5.201
 6964SOL     OW21457   4.763   4.822   4.420
 6964SOL    HW121458   4.693   4.775   4.474
 6964SOL    HW221459   4.822   4.754   4.377
 6965SOL     OW21460   4.738   3.960   4.695
 6965SOL    HW121461   4.730   3.924   4.602
 6965SOL    HW221462   4.736   3.884   4.760
 6966SOL     OW21463   3.979   5.072   4.014
 6966SOL    HW121464   3.883   5.073   3.987
 6966SOL    HW221465   3.991   5.125   4.098
 6967SOL     OW21466   3.829   4.737   5.450
 6967SOL    HW121467   3.752   4.704   5.504
 6967SOL    HW221468   3.914   4.707   5.492
 6968SOL     OW21469   4.396   3.927   5.213
 6968SOL    HW121470   4.486   3.911   5.173
 6968SOL    HW221471   4.404   3.932   5.312
 6969SOL     OW21472   3.799   4.069   3.757
 6969SOL    HW121473   3.707   4.041   3.728
 6969SOL    HW221474   3.830   4.146   3.701
 6970SOL     OW21475   5.164   4.580   5.122
 6970SOL    HW121476   5.107   4.632   5.059
 6970SOL    HW221477   5.260   4.592   5.098
 6971SOL     OW21478   3.796   3.890   4.042
 6971SOL    HW121479   3.779   3.973   3.988
 6971SOL    HW221480   3.886   3.853   4.020
 6972SOL     OW21481   4.907   5.059   3.843
 6972SOL    HW121482   4.808   5.048   3.845
 6972SOL    HW221483   4.941   5.074   3.936
 6973SOL     OW21484   4.337   4.566   5.155
 6973SOL    HW121485   4.393   4.647   5.138
 6973SOL    HW221486   4.396   4.486   5.158
 6974SOL     OW21487   4.440   4.289   5.432
 6974SOL    HW121488   4.459   4.354   5.506
 6974SOL    HW221489   4.500   4.209   5.441
 6975SOL     OW21490   5.174   4.944   5.357
 6975SOL    HW121491   5.165   4.934   5.456
 6975SOL    HW221492   5.270   4.937   5.331
 6976SOL     OW21493   4.949   4.049   4.173
 6976SOL    HW121494   5.014   3.975   4.162
 6976SOL    HW221495   4.969   4.099   4.257
 6977SOL     OW21496   4.318   4.469   4.376
 6977SOL    HW121497   4.368   4.554   4.357
 6977SOL    HW221498   4.230   4.471   4.328
 6978SOL     OW21499   4.583   5.098   3.740
 6978SOL    HW121500   4.537   5.113   3.828
 6978SOL    HW221501   4.627   5.183   3.710
 6979SOL     OW21502   4.583   4.680   4.585
 6979SOL    HW121503   4.637   4.611   4.633
 6979SOL    HW221504   4.551   4.749   4.651
 6980SOL     OW21505   4.807   4.708   3.811
 6980SOL    HW121506   4.784   4.761   3.729
 6980SOL    HW221507   4.888   4.652   3.792
 6981SOL     OW21508   3.945   5.038   5.568
 6981SOL    HW121509   3.880   4.965   5.547
 6981SOL    HW221510   3.949   5.052   5.666
 6982SOL     OW21511   3.803   4.964   4.377
 6982SOL    HW121512   3.802   4.917   4.465
 6982SOL    HW221513   3.885   4.936   4.326
 6983SOL     OW21514   4.396   5.115   5.348
 6983SOL    HW121515   4.318   5.065   5.386
 6983SOL    HW221516   4.393   5.210   5.379
 6984SOL     OW21517   4.152   4.148   4.244
 6984SOL    HW121518   4.182   4.076   4.182
 6984SOL    HW221519   4.113   4.108   4.327
 6985SOL     OW21520   5.429   5.211   4.828
 6985SOL    HW121521   5.336   5.186   4.801
 6985SOL    HW221522   5.455   5.161   4.910
 6986SOL     OW21523   4.041   4.271   5.004
 6986SOL    HW121524   4.079   4.212   5.076
 6986SOL    HW221525   4.081   4.245   4.916
 6987SOL     OW21526   5.148   3.938   4.836
 6987SOL    HW121527   5.200   3.873   4.891
 6987SOL    HW221528   5.099   4.001   4.897
 6988SOL     OW21529   4.725   3.758   4.878
 6988SOL    HW121530   4.662   3.686   4.847
 6988SOL    HW221531   4.818   3.722   4.878
 6989SOL     OW21532   4.494   5.054   4.025
 6989SOL    HW121533   4.448   4.967   4.042
 6989SOL    HW221534   4.585   5.051   4.066
 6990SOL     OW21535   4.342   5.291   5.008
 6990SOL    HW121536   4.337   5.373   5.065
 6990SOL    HW221537   4.431   5.288   4.963
 6991SOL     OW21538   5.076   3.776   3.892
 6991SOL    HW121539   5.111   3.735   3.808
 6991SOL    HW221540   4.986   3.738   3.912
 6992SOL     OW21541   5.024   4.177   4.415
 6992SOL    HW121542   4.965   4.257   4.419
 6992SOL    HW221543   5.039   4.142   4.508
 6993SOL     OW21544   5.317   3.945   4.606
 6993SOL    HW121545   5.233   3.944   4.660
 6993SOL    HW221546   5.319   4.028   4.550
 6994SOL     OW21547   3.763   4.801   4.024
 6994SOL    HW121548   3.862   4.790   4.015
 6994SOL    HW221549   3.723   4.715   4.056
 6995SOL     OW21550   3.954   4.352   5.699
 6995SOL    HW121551   3.861   4.350   5.736
 6995SOL    HW221552   3.955   4.313   5.607
 6996SOL     OW21553   3.949   3.999   6.582
 6996SOL    HW121554   3.984   3.982   6.674
 6996SOL    HW221555   3.861   3.954   6.570
 6997SOL     OW21556   3.743   4.092   6.233
 6997SOL    HW121557   3.661   4.135   6.272
 6997SOL    HW221558   3.715   4.019   6.170
 6998SOL     OW21559   4.293   4.999   6.751
 6998SOL    HW121560   4.200   4.992   6.714
 6998SOL    HW221561   4.304   5.088   6.795
 6999SOL     OW21562   5.279   5.235   6.289
 6999SOL    HW121563   5.222   5.219   6.370
 6999SOL    HW221564   5.220   5.245   6.209
 7000SOL     OW21565   4.859   4.427   6.303
 7000SOL    HW121566   4.916   4.505   6.278
 7000SOL    HW221567   4.799   4.453   6.379
 7001SOL     OW21568   4.492   4.868   6.609
 7001SOL    HW121569   4.414   4.885   6.669
 7001SOL    HW221570   4.526   4.955   6.573
 7002SOL     OW21571   4.574   4.522   7.409
 7002SOL    HW121572   4.570   4.598   7.474
 7002SOL    HW221573   4.596   4.558   7.318
 7003SOL     OW21574   4.409   4.736   6.251
 7003SOL    HW121575   4.478   4.720   6.321
 7003SOL    HW221576   4.336   4.793   6.289
 7004SOL     OW21577   4.410   4.885   7.389
 7004SOL    HW121578   4.470   4.964   7.403
 7004SOL    HW221579   4.324   4.916   7.348
 7005SOL     OW21580   4.059   5.159   6.647
 7005SOL    HW121581   3.981   5.128   6.594
 7005SOL    HW221582   4.117   5.217   6.590
 7006SOL     OW21583   5.184   5.229   6.925
 7006SOL    HW121584   5.208   5.323   6.951
 7006SOL    HW221585   5.168   5.175   7.007
 7007SOL     OW21586   4.162   4.116   7.085
 7007SOL    HW121587   4.244   4.060   7.094
 7007SOL    HW221588   4.081   4.058   7.089
 7008SOL     OW21589   4.851   5.065   7.276
 7008SOL    HW121590   4.898   5.065   7.364
 7008SOL    HW221591   4.803   4.978   7.265
 7009SOL     OW21592   3.954   5.158   6.124
 7009SOL    HW121593   3.928   5.254   6.124
 7009SOL    HW221594   3.883   5.104   6.169
 7010SOL     OW21595   3.964   4.815   6.472
 7010SOL    HW121596   3.978   4.731   6.524
 7010SOL    HW221597   3.909   4.879   6.527
 7011SOL     OW21598   4.330   4.688   5.709
 7011SOL    HW121599   4.337   4.772   5.655
 7011SOL    HW221600   4.376   4.701   5.797
 7012SOL     OW21601   3.846   4.367   6.149
 7012SOL    HW121602   3.801   4.279   6.166
 7012SOL    HW221603   3.845   4.421   6.233
 7013SOL     OW21604   3.751   5.320   5.703
 7013SOL    HW121605   3.732   5.224   5.724
 7013SOL    HW221606   3.718   5.378   5.778
 7014SOL     OW21607   5.413   4.646   6.198
 7014SOL    HW121608   5.508   4.617   6.206
 7014SOL    HW221609   5.405   4.711   6.123
 7015SOL     OW21610   3.837   4.461   7.183
 7015SOL    HW121611   3.925   4.448   7.228
 7015SOL    HW221612   3.824   4.558   7.161
 7016SOL     OW21613   4.337   5.089   6.312
 7016SOL    HW121614   4.288   5.002   6.321
 7016SOL    HW221615   4.314   5.132   6.225
 7017SOL     OW21616   5.017   4.952   7.009
 7017SOL    HW121617   5.054   4.879   6.951
 7017SOL    HW221618   5.069   4.957   7.094
 7018SOL     OW21619   4.533   3.728   6.088
 7018SOL    HW121620   4.573   3.819   6.079
 7018SOL    HW221621   4.433   3.736   6.094
 7019SOL     OW21622   3.921   4.700   6.850
 7019SOL    HW121623   4.010   4.655   6.836
 7019SOL    HW221624   3.848   4.635   6.831
 7020SOL     OW21625   4.041   3.975   7.387
 7020SOL    HW121626   4.112   4.046   7.393
 7020SOL    HW221627   3.953   4.014   7.415
 7021SOL     OW21628   5.190   5.141   6.539
 7021SOL    HW121629   5.131   5.147   6.619
 7021SOL    HW221630   5.175   5.053   6.493
 7022SOL     OW21631   5.391   5.438   6.158
 7022SOL    HW121632   5.350   5.415   6.070
 7022SOL    HW221633   5.373   5.364   6.223
 7023SOL     OW21634   4.322   4.453   5.856
 7023SOL    HW121635   4.346   4.522   5.788
 7023SOL    HW221636   4.244   4.486   5.910
 7024SOL     OW21637   5.005   4.069   6.530
 7024SOL    HW121638   4.919   4.019   6.517
 7024SOL    HW221639   5.067   4.015   6.586
 7025SOL     OW21640   4.531   4.329   7.051
 7025SOL    HW121641   4.484   4.326   7.140
 7025SOL    HW221642   4.480   4.274   6.985
 7026SOL     OW21643   5.118   4.193   7.260
 7026SOL    HW121644   5.098   4.236   7.348
 7026SOL    HW221645   5.196   4.131   7.269
 7027SOL     OW21646   4.697   4.614   7.158
 7027SOL    HW121647   4.743   4.530   7.129
 7027SOL    HW221648   4.641   4.648   7.083
 7028SOL     OW21649   4.715   4.134   6.828
 7028SOL    HW121650   4.638   4.168   6.882
 7028SOL    HW221651   4.681   4.083   6.749
 7029SOL     OW21652   4.765   4.425   6.015
 7029SOL    HW121653   4.791   4.421   6.111
 7029SOL    HW221654   4.680   4.374   6.001
 7030SOL     OW21655   3.800   4.535   6.375
 7030SOL    HW121656   3.899   4.523   6.384
 7030SOL    HW221657   3.776   4.630   6.396
 7031SOL     OW21658   4.589   4.072   5.781
 7031SOL    HW121659   4.648   4.135   5.732
 7031SOL    HW221660   4.608   3.978   5.752
 7032SOL     OW21661   5.086   4.868   6.131
 7032SOL    HW121662   5.169   4.839   6.083
 7032SOL    HW221663   5.037   4.935   6.075
 7033SOL     OW21664   4.274   3.920   6.471
 7033SOL    HW121665   4.269   3.915   6.571
 7033SOL    HW221666   4.276   4.016   6.442
 7034SOL     OW21667   4.732   5.180   6.063
 7034SOL    HW121668   4.686   5.252   6.011
 7034SOL    HW221669   4.728   5.200   6.161
 7035SOL     OW21670   4.951   5.274   7.092
 7035SOL    HW121671   4.957   5.197   7.156
 7035SOL    HW221672   4.899   5.248   7.012
 7036SOL     OW21673   4.045   4.667   5.828
 7036SOL    HW121674   4.127   4.706   5.786
 7036SOL    HW221675   4.018   4.585   5.779
 7037SOL     OW21676   4.185   4.990   7.313
 7037SOL    HW121677   4.135   4.991   7.227
 7037SOL    HW221678   4.122   4.972   7.389
 7038SOL     OW21679   4.835   5.500   5.823
 7038SOL    HW121680   4.775   5.438   5.873
 7038SOL    HW221681   4.866   5.456   5.738
 7039SOL     OW21682   3.926   4.009   7.084
 7039SOL    HW121683   3.846   4.069   7.071
 7039SOL    HW221684   3.916   3.960   7.170
 7040SOL     OW21685   5.124   3.831   6.012
 7040SOL    HW121686   5.100   3.794   5.922
 7040SOL    HW221687   5.223   3.847   6.016
 7041SOL     OW21688   4.106   4.424   6.066
 7041SOL    HW121689   4.151   4.334   6.063
 7041SOL    HW221690   4.012   4.413   6.099
 7042SOL     OW21691   4.338   3.846   5.703
 7042SOL    HW121692   4.436   3.824   5.710
 7042SOL    HW221693   4.307   3.829   5.610
 7043SOL     OW21694   4.505   3.988   7.335
 7043SOL    HW121695   4.572   3.927   7.378
 7043SOL    HW221696   4.432   4.007   7.400
 7044SOL     OW21697   5.075   4.314   7.019
 7044SOL    HW121698   5.103   4.271   7.104
 7044SOL    HW221699   5.100   4.410   7.020
 7045SOL     OW21700   4.527   5.126   6.510
 7045SOL    HW121701   4.617   5.140   6.468
 7045SOL    HW221702   4.456   5.128   6.439
 7046SOL     OW21703   4.646   4.227   6.485
 7046SOL    HW121704   4.621   4.218   6.389
 7046SOL    HW221705   4.694   4.145   6.516
 7047SOL     OW21706   4.263   3.788   6.098
 7047SOL    HW121707   4.182   3.789   6.156
 7047SOL    HW221708   4.266   3.871   6.043
 7048SOL     OW21709   5.158   4.912   5.627
 7048SOL    HW121710   5.190   4.836   5.684
 7048SOL    HW221711   5.066   4.939   5.657
 7049SOL     OW21712   4.021   3.759   5.757
 7049SOL    HW121713   4.070   3.843   5.736
 7049SOL    HW221714   4.083   3.694   5.802
 7050SOL     OW21715   4.659   3.960   6.066
 7050SOL    HW121716   4.611   4.001   5.988
 7050SOL    HW221717   4.758   3.958   6.047
 7051SOL     OW21718   4.800   4.407   7.050
 7051SOL    HW121719   4.720   4.346   7.053
 7051SOL    HW221720   4.881   4.354   7.026
 7052SOL     OW21721   4.951   5.294   6.379
 7052SOL    HW121722   4.972   5.368   6.314
 7052SOL    HW221723   5.019   5.294   6.452
 7053SOL     OW21724   4.183   4.876   6.327
 7053SOL    HW121725   4.112   4.849   6.392
 7053SOL    HW221726   4.157   4.848   6.234
 7054SOL     OW21727   4.756   4.273   5.602
 7054SOL    HW121728   4.715   4.355   5.563
 7054SOL    HW221729   4.820   4.299   5.675
 7055SOL     OW21730   3.802   4.280   6.972
 7055SOL    HW121731   3.894   4.279   6.931
 7055SOL    HW221732   3.796   4.354   7.039
 7056SOL     OW21733   4.285   3.946   6.733
 7056SOL    HW121734   4.323   3.862   6.770
 7056SOL    HW221735   4.197   3.965   6.777
 7057SOL     OW21736   4.590   4.178   6.228
 7057SOL    HW121737   4.558   4.250   6.166
 7057SOL    HW221738   4.614   4.097   6.175
 7058SOL     OW21739   4.741   3.763   6.339
 7058SOL    HW121740   4.669   3.768   6.270
 7058SOL    HW221741   4.717   3.694   6.408
 7059SOL     OW21742   5.153   4.897   6.453
 7059SOL    HW121743   5.098   4.813   6.446
 7059SOL    HW221744   5.179   4.926   6.361
 7060SOL     OW21745   4.212   5.109   5.760
 7060SOL    HW121746   4.125   5.094   5.807
 7060SOL    HW221747   4.195   5.135   5.665
 7061SOL     OW21748   5.114   4.299   5.664
 7061SOL    HW121749   5.060   4.278   5.745
 7061SOL    HW221750   5.205   4.258   5.673
 7062SOL     OW21751   4.251   3.980   5.914
 7062SOL    HW121752   4.278   3.921   5.839
 7062SOL    HW221753   4.251   4.075   5.883
 7063SOL     OW21754   4.788   5.071   6.926
 7063SOL    HW121755   4.708   5.048   6.981
 7063SOL    HW221756   4.871   5.045   6.975
 7064SOL     OW21757   4.835   4.919   6.686
 7064SOL    HW121758   4.795   4.963   6.767
 7064SOL    HW221759   4.794   4.956   6.603
 7065SOL     OW21760   4.639   3.813   6.988
 7065SOL    HW121761   4.664   3.793   6.893
 7065SOL    HW221762   4.711   3.869   7.030
 7066SOL     OW21763   4.704   4.840   7.305
 7066SOL    HW121764   4.605   4.846   7.315
 7066SOL    HW221765   4.727   4.760   7.249
 7067SOL     OW21766   4.429   4.774   5.954
 7067SOL    HW121767   4.415   4.781   6.053
 7067SOL    HW221768   4.513   4.723   5.936
 7068SOL     OW21769   4.134   4.537   6.837
 7068SOL    HW121770   4.220   4.549   6.887
 7068SOL    HW221771   4.092   4.450   6.864
 7069SOL     OW21772   4.998   4.110   6.848
 7069SOL    HW121773   5.019   4.184   6.912
 7069SOL    HW221774   4.909   4.127   6.805
 7070SOL     OW21775   4.091   4.824   6.087
 7070SOL    HW121776   4.084   4.907   6.031
 7070SOL    HW221777   4.095   4.744   6.027
 7071SOL     OW21778   4.290   4.261   6.451
 7071SOL    HW121779   4.302   4.327   6.377
 7071SOL    HW221780   4.336   4.295   6.534
 7072SOL     OW21781   4.976   5.072   5.974
 7072SOL    HW121782   5.026   5.149   6.014
 7072SOL    HW221783   4.881   5.074   6.006
 7073SOL     OW21784   4.996   5.169   6.728
 7073SOL    HW121785   5.043   5.182   6.815
 7073SOL    HW221786   4.930   5.095   6.737
 7074SOL     OW21787   4.078   5.234   6.915
 7074SOL    HW121788   4.057   5.190   6.828
 7074SOL    HW221789   4.175   5.260   6.918
 7075SOL     OW21790   4.126   4.475   7.184
 7075SOL    HW121791   4.194   4.530   7.137
 7075SOL    HW221792   4.166   4.387   7.211
 7076SOL     OW21793   4.737   3.829   7.356
 7076SOL    HW121794   4.743   3.914   7.304
 7076SOL    HW221795   4.769   3.753   7.299
 7077SOL     OW21796   4.228   3.774   7.326
 7077SOL    HW121797   4.186   3.717   7.256
 7077SOL    HW221798   4.162   3.843   7.358
 7078SOL     OW21799   4.297   4.594   6.615
 7078SOL    HW121800   4.341   4.683   6.606
 7078SOL    HW221801   4.234   4.594   6.692
 7079SOL     OW21802   5.084   4.586   6.631
 7079SOL    HW121803   5.009   4.586   6.565
 7079SOL    HW221804   5.121   4.494   6.640
 7080SOL     OW21805   4.933   4.249   5.861
 7080SOL    HW121806   4.946   4.165   5.915
 7080SOL    HW221807   4.904   4.323   5.921
 7081SOL     OW21808   4.031   3.937   6.817
 7081SOL    HW121809   4.008   3.974   6.907
 7081SOL    HW221810   4.001   3.842   6.811
 7082SOL     OW21811   3.761   5.034   6.868
 7082SOL    HW121812   3.814   4.985   6.936
 7082SOL    HW221813   3.783   5.132   6.873
 7083SOL     OW21814   4.456   4.358   6.650
 7083SOL    HW121815   4.515   4.332   6.574
 7083SOL    HW221816   4.428   4.454   6.639
 7084SOL     OW21817   4.031   3.787   6.204
 7084SOL    HW121818   4.020   3.881   6.237
 7084SOL    HW221819   4.026   3.724   6.281
 7085SOL     OW21820   5.346   4.091   5.960
 7085SOL    HW121821   5.348   4.015   6.024
 7085SOL    HW221822   5.298   4.168   6.000
 7086SOL     OW21823   4.747   4.490   6.552
 7086SOL    HW121824   4.762   4.511   6.648
 7086SOL    HW221825   4.717   4.395   6.543
 7087SOL     OW21826   4.074   4.622   7.390
 7087SOL    HW121827   4.150   4.666   7.438
 7087SOL    HW221828   4.109   4.575   7.308
 7088SOL     OW21829   5.027   4.562   5.628
 7088SOL    HW121830   5.061   4.469   5.643
 7088SOL    HW221831   5.045   4.589   5.533
 7089SOL     OW21832   4.792   5.057   6.435
 7089SOL    HW121833   4.799   4.973   6.380
 7089SOL    HW221834   4.854   5.126   6.399
 7090SOL     OW21835   4.043   4.534   6.535
 7090SOL    HW121836   4.136   4.570   6.540
 7090SOL    HW221837   4.037   4.449   6.587
 7091SOL     OW21838   4.063   4.233   6.592
 7091SOL    HW121839   4.011   4.150   6.575
 7091SOL    HW221840   4.140   4.238   6.528
 7092SOL     OW21841   4.862   4.104   7.264
 7092SOL    HW121842   4.817   4.167   7.328
 7092SOL    HW221843   4.955   4.135   7.247
 7093SOL     OW21844   4.884   3.931   7.063
 7093SOL    HW121845   4.884   3.995   7.140
 7093SOL    HW221846   4.912   3.979   6.980
 7094SOL     OW21847   3.732   5.050   5.786
 7094SOL    HW121848   3.639   5.071   5.755
 7094SOL    HW221849   3.742   4.951   5.799
 7095SOL     OW21850   4.726   4.520   6.824
 7095SOL    HW121851   4.767   4.488   6.910
 7095SOL    HW221852   4.630   4.493   6.821
 7096SOL     OW21853   3.764   4.268   6.700
 7096SOL    HW121854   3.849   4.235   6.659
 7096SOL    HW221855   3.777   4.283   6.798
 7097SOL     OW21856   3.913   4.244   7.308
 7097SOL    HW121857   3.972   4.204   7.238
 7097SOL    HW221858   3.855   4.315   7.267
 7098SOL     OW21859   5.093   4.674   7.246
 7098SOL    HW121860   5.132   4.763   7.266
 7098SOL    HW221861   5.103   4.654   7.149
 7099SOL     OW21862   4.539   4.296   5.911
 7099SOL    HW121863   4.546   4.207   5.865
 7099SOL    HW221864   4.445   4.330   5.903
 7100SOL     OW21865   3.976   5.288   7.330
 7100SOL    HW121866   3.946   5.345   7.406
 7100SOL    HW221867   3.969   5.191   7.356
 7101SOL     OW21868   4.395   4.188   6.855
 7101SOL    HW121869   4.361   4.099   6.825
 7101SOL    HW221870   4.421   4.242   6.775
 7102SOL     OW21871   4.197   4.224   5.777
 7102SOL    HW121872   4.258   4.304   5.781
 7102SOL    HW221873   4.102   4.255   5.784
 7103SOL     OW21874   3.883   4.861   7.052
 7103SOL    HW121875   3.905   4.800   7.128
 7103SOL    HW221876   3.893   4.812   6.966
 7104SOL     OW21877   5.071   4.783   6.820
 7104SOL    HW121878   5.095   4.720   6.746
 7104SOL    HW221879   4.981   4.823   6.802
 7105SOL     OW21880   5.026   4.579   5.895
 7105SOL    HW121881   4.940   4.548   5.937
 7105SOL    HW221882   5.022   4.565   5.796
 7106SOL     OW21883   3.807   4.982   6.608
 7106SOL    HW121884   3.802   4.981   6.708
 7106SOL    HW221885   3.724   4.941   6.570
 7107SOL     OW21886   4.412   5.386   7.302
 7107SOL    HW121887   4.356   5.467   7.311
 7107SOL    HW221888   4.464   5.390   7.216
 7108SOL     OW21889   5.450   3.859   6.109
 7108SOL    HW121890   5.523   3.842   6.042
 7108SOL    HW221891   5.419   3.772   6.147
 7109SOL     OW21892   5.004   4.651   6.258
 7109SOL    HW121893   5.064   4.570   6.260
 7109SOL    HW221894   5.044   4.720   6.198
 7110SOL     OW21895   4.554   4.997   7.008
 7110SOL    HW121896   4.549   5.030   7.103
 7110SOL    HW221897   4.468   5.016   6.962
 7111SOL     OW21898   3.987   4.050   6.306
 7111SOL    HW121899   3.908   4.101   6.272
 7111SOL    HW221900   3.978   4.035   6.404
 7112SOL     OW21901   4.546   4.726   6.958
 7112SOL    HW121902   4.586   4.725   6.866
 7112SOL    HW221903   4.556   4.818   6.998
 7113SOL     OW21904   4.640   4.634   5.877
 7113SOL    HW121905   4.703   4.672   5.809
 7113SOL    HW221906   4.680   4.551   5.916
 7114SOL     OW21907   4.096   5.012   7.076
 7114SOL    HW121908   4.083   5.105   7.042
 7114SOL    HW221909   4.012   4.960   7.063
 7115SOL     OW21910   4.763   4.822   6.282
 7115SOL    HW121911   4.693   4.775   6.336
 7115SOL    HW221912   4.822   4.754   6.239
 7116SOL     OW21913   4.738   3.960   6.557
 7116SOL    HW121914   4.730   3.924   6.464
 7116SOL    HW221915   4.736   3.884   6.622
 7117SOL     OW21916   3.979   5.072   5.876
 7117SOL    HW121917   3.883   5.073   5.849
 7117SOL    HW221918   3.991   5.125   5.960
 7118SOL     OW21919   3.829   4.737   7.312
 7118SOL    HW121920   3.752   4.704   7.366
 7118SOL    HW221921   3.914   4.707   7.354
 7119SOL     OW21922   4.396   3.927   7.075
 7119SOL    HW121923   4.486   3.911   7.035
 7119SOL    HW221924   4.404   3.932   7.174
 7120SOL     OW21925   3.799   4.069   5.619
 7120SOL    HW121926   3.707   4.041   5.590
 7120SOL    HW221927   3.830   4.146   5.563
 7121SOL     OW21928   5.164   4.580   6.984
 7121SOL    HW121929   5.107   4.632   6.921
 7121SOL    HW221930   5.260   4.592   6.960
 7122SOL     OW21931   3.796   3.890   5.904
 7122SOL    HW121932   3.779   3.973   5.850
 7122SOL    HW221933   3.886   3.853   5.882
 7123SOL     OW21934   4.907   5.059   5.705
 7123SOL    HW121935   4.808   5.048   5.707
 7123SOL    HW221936   4.941   5.074   5.798
 7124SOL     OW21937   4.337   4.566   7.017
 7124SOL    HW121938   4.393   4.647   7.000
 7124SOL    HW221939   4.396   4.486   7.020
 7125SOL     OW21940   4.440   4.289   7.294
 7125SOL    HW121941   4.459   4.354   7.368
 7125SOL    HW221942   4.500   4.209   7.303
 7126SOL     OW21943   5.174   4.944   7.219
 7126SOL    HW121944   5.165   4.934   7.318
 7126SOL    HW221945   5.270   4.937   7.193
 7127SOL     OW21946   4.949   4.049   6.035
 7127SOL    HW121947   5.014   3.975   6.024
 7127SOL    HW221948   4.969   4.099   6.119
 7128SOL     OW21949   4.318   4.469   6.238
 7128SOL    HW121950   4.368   4.554   6.219
 7128SOL    HW221951   4.230   4.471   6.190
 7129SOL     OW21952   4.583   5.098   5.602
 7129SOL    HW121953   4.537   5.113   5.690
 7129SOL    HW221954   4.627   5.183   5.572
 7130SOL     OW21955   4.583   4.680   6.447
 7130SOL    HW121956   4.637   4.611   6.495
 7130SOL    HW221957   4.551   4.749   6.513
 7131SOL     OW21958   4.807   4.708   5.673
 7131SOL    HW121959   4.784   4.761   5.591
 7131SOL    HW221960   4.888   4.652   5.654
 7132SOL     OW21961   3.945   5.038   7.430
 7132SOL    HW121962   3.880   4.965   7.409
 7132SOL    HW221963   3.949   5.052   7.528
 7133SOL     OW21964   3.803   4.964   6.239
 7133SOL    HW121965   3.802   4.917   6.327
 7133SOL    HW221966   3.885   4.936   6.188
 7134SOL     OW21967   4.396   5.115   7.210
 7134SOL    HW121968   4.318   5.065   7.248
 7134SOL    HW221969   4.393   5.210   7.241
 7135SOL     OW21970   4.152   4.148   6.106
 7135SOL    HW121971   4.182   4.076   6.044
 7135SOL    HW221972   4.113   4.108   6.189
 7136SOL     OW21973   5.429   5.211   6.690
 7136SOL    HW121974   5.336   5.186   6.663
 7136SOL    HW221975   5.455   5.161   6.772
 7137SOL     OW21976   4.041   4.271   6.866
 7137SOL    HW121977   4.079   4.212   6.938
 7137SOL    HW221978   4.081   4.245   6.778
 7138SOL     OW21979   5.148   3.938   6.698
 7138SOL    HW121980   5.200   3.873   6.753
 7138SOL    HW221981   5.099   4.001   6.759
 7139SOL     OW21982   4.725   3.758   6.740
 7139SOL    HW121983   4.662   3.686   6.709
 7139SOL    HW221984   4.818   3.722   6.740
 7140SOL     OW21985   4.494   5.054   5.887
 7140SOL    HW121986   4.448   4.967   5.904
 7140SOL    HW221987   4.585   5.051   5.928
 7141SOL     OW21988   4.342   5.291   6.870
 7141SOL    HW121989   4.337   5.373   6.927
 7141SOL    HW221990   4.431   5.288   6.825
 7142SOL     OW21991   5.076   3.776   5.754
 7142SOL    HW121992   5.111   3.735   5.670
 7142SOL    HW221993   4.986   3.738   5.774
 7143SOL     OW21994   5.024   4.177   6.277
 7143SOL    HW121995   4.965   4.257   6.281
 7143SOL    HW221996   5.039   4.142   6.370
 7144SOL     OW21997   5.317   3.945   6.468
 7144SOL    HW121998   5.233   3.944   6.522
 7144SOL    HW221999   5.319   4.028   6.412
 7145SOL     OW22000   3.763   4.801   5.886
 7145SOL    HW122001   3.862   4.790   5.877
 7145SOL    HW222002   3.723   4.715   5.918
 7146SOL     OW22003   3.954   4.352   7.561
 7146SOL    HW122004   3.861   4.350   7.598
 7146SOL    HW222005   3.955   4.313   7.469
 7147SOL     OW22006   3.955   5.437   7.931
 7147SOL    HW122007   3.989   5.514   7.985
 7147SOL    HW222008   3.999   5.437   7.841
 7148SOL     OW22009   3.954   5.158   7.986
 7148SOL    HW122010   3.928   5.254   7.986
 7148SOL    HW222011   3.883   5.104   8.031
 7149SOL     OW22012   4.330   4.688   7.571
 7149SOL    HW122013   4.337   4.772   7.517
 7149SOL    HW222014   4.376   4.701   7.659
 7150SOL     OW22015   3.751   5.320   7.565
 7150SOL    HW122016   3.732   5.224   7.586
 7150SOL    HW222017   3.718   5.378   7.640
 7151SOL     OW22018   5.413   4.646   8.060
 7151SOL    HW122019   5.508   4.617   8.068
 7151SOL    HW222020   5.405   4.711   7.985
 7152SOL     OW22021   4.533   3.728   7.950
 7152SOL    HW122022   4.573   3.819   7.941
 7152SOL    HW222023   4.433   3.736   7.956
 7153SOL     OW22024   4.322   4.453   7.718
 7153SOL    HW122025   4.346   4.522   7.650
 7153SOL    HW222026   4.244   4.486   7.772
 7154SOL     OW22027   3.800   4.535   8.237
 7154SOL    HW122028   3.899   4.523   8.246
 7154SOL    HW222029   3.776   4.630   8.258
 7155SOL     OW22030   4.589   4.072   7.643
 7155SOL    HW122031   4.648   4.135   7.594
 7155SOL    HW222032   4.608   3.978   7.614
 7156SOL     OW22033   4.045   4.667   7.690
 7156SOL    HW122034   4.127   4.706   7.648
 7156SOL    HW222035   4.018   4.585   7.641
 7157SOL     OW22036   4.835   5.500   7.685
 7157SOL    HW122037   4.775   5.438   7.735
 7157SOL    HW222038   4.866   5.456   7.600
 7158SOL     OW22039   5.124   3.831   7.874
 7158SOL    HW122040   5.100   3.794   7.784
 7158SOL    HW222041   5.223   3.847   7.878
 7159SOL     OW22042   4.106   4.424   7.928
 7159SOL    HW122043   4.151   4.334   7.925
 7159SOL    HW222044   4.012   4.413   7.961
 7160SOL     OW22045   4.338   3.846   7.565
 7160SOL    HW122046   4.436   3.824   7.572
 7160SOL    HW222047   4.307   3.829   7.472
 7161SOL     OW22048   4.263   3.788   7.960
 7161SOL    HW122049   4.182   3.789   8.018
 7161SOL    HW222050   4.266   3.871   7.905
 7162SOL     OW22051   5.158   4.912   7.489
 7162SOL    HW122052   5.190   4.836   7.546
 7162SOL    HW222053   5.066   4.939   7.519
 7163SOL     OW22054   4.021   3.759   7.619
 7163SOL    HW122055   4.070   3.843   7.598
 7163SOL    HW222056   4.083   3.694   7.664
 7164SOL     OW22057   4.659   3.960   7.928
 7164SOL    HW122058   4.611   4.001   7.850
 7164SOL    HW222059   4.758   3.958   7.909
 7165SOL     OW22060   4.183   4.876   8.189
 7165SOL    HW122061   4.112   4.849   8.254
 7165SOL    HW222062   4.157   4.848   8.096
 7166SOL     OW22063   4.756   4.273   7.464
 7166SOL    HW122064   4.715   4.355   7.425
 7166SOL    HW222065   4.820   4.299   7.537
 7167SOL     OW22066   4.212   5.109   7.622
 7167SOL    HW122067   4.125   5.094   7.669
 7167SOL    HW222068   4.195   5.135   7.527
 7168SOL     OW22069   5.114   4.299   7.526
 7168SOL    HW122070   5.060   4.278   7.607
 7168SOL    HW222071   5.205   4.258   7.535
 7169SOL     OW22072   4.251   3.980   7.776
 7169SOL    HW122073   4.278   3.921   7.701
 7169SOL    HW222074   4.251   4.075   7.745
 7170SOL     OW22075   4.429   4.774   7.816
 7170SOL    HW122076   4.415   4.781   7.915
 7170SOL    HW222077   4.513   4.723   7.798
 7171SOL     OW22078   4.091   4.824   7.949
 7171SOL    HW122079   4.084   4.907   7.893
 7171SOL    HW222080   4.095   4.744   7.889
 7172SOL     OW22081   4.976   5.072   7.836
 7172SOL    HW122082   5.026   5.149   7.876
 7172SOL    HW222083   4.881   5.074   7.868
 7173SOL     OW22084   5.306   4.363   7.920
 7173SOL    HW122085   5.275   4.424   7.993
 7173SOL    HW222086   5.356   4.415   7.851
 7174SOL     OW22087   4.933   4.249   7.723
 7174SOL    HW122088   4.946   4.165   7.777
 7174SOL    HW222089   4.904   4.323   7.783
 7175SOL     OW22090   5.346   4.091   7.822
 7175SOL    HW122091   5.348   4.015   7.886
 7175SOL    HW222092   5.298   4.168   7.862
 7176SOL     OW22093   5.027   4.562   7.490
 7176SOL    HW122094   5.061   4.469   7.505
 7176SOL    HW222095   5.045   4.589   7.395
 7177SOL     OW22096   3.732   5.050   7.648
 7177SOL    HW122097   3.639   5.071   7.617
 7177SOL    HW222098   3.742   4.951   7.661
 7178SOL     OW22099   4.539   4.296   7.773
 7178SOL    HW122100   4.546   4.207   7.727
 7178SOL    HW222101   4.445   4.330   7.765
 7179SOL     OW22102   4.197   4.224   7.639
 7179SOL    HW122103   4.258   4.304   7.643
 7179SOL    HW222104   4.102   4.255   7.646
 7180SOL     OW22105   5.026   4.579   7.757
 7180SOL    HW122106   4.940   4.548   7.799
 7180SOL    HW222107   5.022   4.565   7.658
 7181SOL     OW22108   5.450   3.859   7.971
 7181SOL    HW122109   5.523   3.842   7.904
 7181SOL    HW222110   5.419   3.772   8.009
 7182SOL     OW22111   4.640   4.634   7.739
 7182SOL    HW122112   4.703   4.672   7.671
 7182SOL    HW222113   4.680   4.551   7.778
 7183SOL     OW22114   3.979   5.072   7.738
 7183SOL    HW122115   3.883   5.073   7.711
 7183SOL    HW222116   3.991   5.125   7.822
 7184SOL     OW22117   3.799   4.069   7.481
 7184SOL    HW122118   3.707   4.041   7.452
 7184SOL    HW222119   3.830   4.146   7.425
 7185SOL     OW22120   3.796   3.890   7.766
 7185SOL    HW122121   3.779   3.973   7.712
 7185SOL    HW222122   3.886   3.853   7.744
 7186SOL     OW22123   4.907   5.059   7.567
 7186SOL    HW122124   4.808   5.048   7.569
 7186SOL    HW222125   4.941   5.074   7.660
 7187SOL     OW22126   4.949   4.049   7.897
 7187SOL    HW122127   5.014   3.975   7.886
 7187SOL    HW222128   4.969   4.099   7.981
 7188SOL     OW22129   4.318   4.469   8.100
 7188SOL    HW122130   4.368   4.554   8.081
 7188SOL    HW222131   4.230   4.471   8.052
 7189SOL     OW22132   4.583   5.098   7.464
 7189SOL    HW122133   4.537   5.113   7.552
 7189SOL    HW222134   4.627   5.183   7.434
 7190SOL     OW22135   4.807   4.708   7.535
 7190SOL    HW122136   4.784   4.761   7.453
 7190SOL    HW222137   4.888   4.652   7.516
 7191SOL     OW22138   4.152   4.148   7.968
 7191SOL    HW122139   4.182   4.076   7.906
 7191SOL    HW222140   4.113   4.108   8.051
 7192SOL     OW22141   4.494   5.054   7.749
 7192SOL    HW122142   4.448   4.967   7.766
 7192SOL    HW222143   4.585   5.051   7.790
 7193SOL     OW22144   5.076   3.776   7.616
 7193SOL    HW122145   5.111   3.735   7.532
 7193SOL    HW222146   4.986   3.738   7.636
 7194SOL     OW22147   3.763   4.801   7.748
 7194SOL    HW122148   3.862   4.790   7.739
 7194SOL    HW222149   3.723   4.715   7.780
   5.30000   5.30000   8.08000
