2aCDOH_1PEG_l14
22236
    1LIG      O    1   1.950   2.013   0.042
    1LIG      C    2   2.021   2.025   0.197
    1LIG     C1    3   1.949   1.985   0.364
    1LIG     O1    4   2.003   2.031   0.519
    1LIG     C2    5   1.948   1.989   0.674
    1LIG     C3    6   2.016   2.048   0.836
    1LIG     O2    7   1.963   2.009   0.989
    1LIG     C4    8   2.028   2.043   1.140
    1LIG     C5    9   1.959   1.995   1.302
    1LIG     O3   10   2.021   2.031   1.453
    1LIG     C6   11   1.966   1.983   1.603
    1LIG     C7   12   2.033   2.033   1.765
    1LIG     O4   13   1.973   1.994   1.916
    1LIG     C8   14   2.030   2.033   2.069
    1LIG     C9   15   1.954   1.989   2.230
    1LIG     O5   16   2.005   2.034   2.383
    1LIG    C10   17   1.946   1.992   2.533
    1LIG    C11   18   2.013   2.050   2.692
    1LIG     O6   19   1.959   2.011   2.843
    1LIG    C12   20   2.024   2.044   2.992
    1LIG    C13   21   1.955   1.997   3.153
    1LIG     O7   22   2.017   2.034   3.303
    1LIG    C14   23   1.962   1.984   3.451
    1LIG    C15   24   2.029   2.035   3.613
    1LIG     O8   25   1.970   1.996   3.764
    1LIG    C16   26   2.030   2.032   3.916
    1LIG    C17   27   1.953   1.989   4.076
    1LIG     O9   28   2.005   2.034   4.229
    1LIG    C18   29   1.945   1.992   4.379
    1LIG    C19   30   2.012   2.050   4.537
    1LIG    O10   31   1.958   2.010   4.688
    1LIG    C20   32   2.023   2.044   4.836
    1LIG    C21   33   1.953   1.998   4.997
    1LIG    O11   34   2.016   2.035   5.146
    1LIG    C22   35   1.962   1.985   5.294
    1LIG    C23   36   2.032   2.035   5.454
    1LIG    O12   37   1.975   1.995   5.605
    1LIG    C24   38   2.039   2.028   5.756
    1LIG    C25   39   1.965   1.982   5.915
    1LIG    O13   40   2.022   2.018   6.067
    1LIG    C26   41   1.960   1.977   6.214
    1LIG    C27   42   2.025   2.021   6.376
    1LIG    O14   43   1.957   1.988   6.522
    1LIG    C28   44   2.016   2.031   6.670
    1LIG    C29   45   1.942   2.000   6.833
    1LIG    O15   46   2.004   2.049   6.980
    1LIG    C30   47   1.954   2.009   7.133
    1LIG    C31   48   2.026   2.066   7.292
    1LIG    O16   49   1.962   2.038   7.444
    1LIG    C32   50   2.032   2.049   7.594
    1LIG    C33   51   1.956   2.006   7.753
    1LIG    O17   52   2.014   2.041   7.905
    1LIG    C34   53   1.964   1.989   8.055
    1LIG    C35   54   2.026   2.044   8.216
    1LIG    O18   55   1.961   2.005   8.363
    1LIG    C36   56   2.015   2.039   8.515
    1LIG    C37   57   1.937   1.994   8.674
    1LIG    O19   58   1.991   2.034   8.827
    1LIG    C38   59   1.939   1.982   8.976
    1LIG    C39   60   2.011   2.030   9.136
    1LIG    O20   61   1.956   1.992   9.290
    1LIG    C40   62   2.019   2.033   9.439
    1LIG    C41   63   1.954   1.983   9.602
    1LIG    O21   64   2.012   2.029   9.752
    1LIG    C42   65   1.959   1.985   9.903
    1LIG    C43   66   2.029   2.039  10.062
    1LIG    O22   67   1.970   2.002  10.212
    1LIG    C44   68   2.029   2.039  10.363
    1LIG    C45   69   1.952   1.995  10.522
    1LIG    O23   70   2.009   2.033  10.673
    1LIG    C46   71   1.952   1.983  10.821
    1LIG    C47   72   2.020   2.030  10.983
    1LIG    O24   73   1.963   1.990  11.135
    1LIG    C48   74   2.023   2.032  11.285
    1LIG    C49   75   1.957   1.981  11.447
    1LIG    O25   76   2.015   2.026  11.598
    1LIG    C50   77   1.959   1.985  11.749
    1LIG    C51   78   2.031   2.036  11.908
    1LIG    O26   79   1.972   2.001  12.059
    1LIG    C52   80   2.030   2.039  12.211
    1LIG    C53   81   1.954   1.995  12.371
    1LIG    O27   82   2.010   2.033  12.525
    1LIG    C54   83   1.954   1.982  12.674
    1LIG    C55   84   2.022   2.028  12.839
    1LIG    O28   85   1.966   1.988  12.993
    1LIG    C56   86   2.023   2.029  13.148
    1LIG    C57   87   1.955   1.975  13.312
    1LIG    O29   88   2.008   2.012  13.470
    1LIG    C58   89   1.939   1.972  13.619
    1LIG    C59   90   2.013   1.969  13.791
    1LIG      H   91   2.052   2.130   0.206
    1LIG     H1   92   2.116   1.971   0.192
    1LIG     H2   93   1.947   1.875   0.366
    1LIG     H3   94   1.843   2.015   0.359
    1LIG     H4   95   1.954   1.880   0.680
    1LIG     H5   96   1.841   2.012   0.677
    1LIG     H6   97   2.016   2.158   0.830
    1LIG     H7   98   2.123   2.023   0.833
    1LIG     H8   99   2.040   2.152   1.145
    1LIG     H9  100   2.131   2.005   1.138
    1LIG    H10  101   1.946   1.886   1.300
    1LIG    H11  102   1.857   2.034   1.302
    1LIG    H12  103   1.972   1.873   1.603
    1LIG    H13  104   1.859   2.004   1.606
    1LIG    H14  105   2.040   2.142   1.761
    1LIG    H15  106   2.137   1.999   1.765
    1LIG    H16  107   2.045   2.141   2.072
    1LIG    H17  108   2.132   1.992   2.074
    1LIG    H18  109   1.949   1.880   2.229
    1LIG    H19  110   1.849   2.021   2.222
    1LIG    H20  111   1.951   1.882   2.538
    1LIG    H21  112   1.839   2.016   2.534
    1LIG    H22  113   2.013   2.160   2.686
    1LIG    H23  114   2.120   2.024   2.690
    1LIG    H24  115   2.038   2.153   2.996
    1LIG    H25  116   2.127   2.005   2.990
    1LIG    H26  117   1.941   1.889   3.150
    1LIG    H27  118   1.853   2.038   3.152
    1LIG    H28  119   1.969   1.875   3.451
    1LIG    H29  120   1.855   2.006   3.454
    1LIG    H30  121   2.036   2.144   3.608
    1LIG    H31  122   2.134   2.001   3.611
    1LIG    H32  123   2.047   2.140   3.920
    1LIG    H33  124   2.131   1.989   3.920
    1LIG    H34  125   1.949   1.880   4.076
    1LIG    H35  126   1.849   2.021   4.068
    1LIG    H36  127   1.949   1.883   4.384
    1LIG    H37  128   1.838   2.017   4.379
    1LIG    H38  129   2.012   2.160   4.532
    1LIG    H39  130   2.118   2.024   4.536
    1LIG    H40  131   2.037   2.153   4.840
    1LIG    H41  132   2.125   2.003   4.834
    1LIG    H42  133   1.938   1.890   4.994
    1LIG    H43  134   1.851   2.040   4.996
    1LIG    H44  135   1.968   1.876   5.294
    1LIG    H45  136   1.855   2.007   5.298
    1LIG    H46  137   2.036   2.144   5.451
    1LIG    H47  138   2.136   2.003   5.451
    1LIG    H48  139   2.057   2.136   5.761
    1LIG    H49  140   2.140   1.984   5.756
    1LIG    H50  141   1.957   1.872   5.911
    1LIG    H51  142   1.862   2.018   5.911
    1LIG    H52  143   1.953   1.868   6.216
    1LIG    H53  144   1.857   2.013   6.216
    1LIG    H54  145   2.031   2.129   6.372
    1LIG    H55  146   2.129   1.986   6.379
    1LIG    H56  147   2.031   2.140   6.666
    1LIG    H57  148   2.116   1.988   6.673
    1LIG    H58  149   1.925   1.891   6.839
    1LIG    H59  150   1.840   2.041   6.827
    1LIG    H60  151   1.956   1.899   7.136
    1LIG    H61  152   1.847   2.034   7.140
    1LIG    H62  153   2.042   2.173   7.282
    1LIG    H63  154   2.127   2.023   7.293
    1LIG    H64  155   2.067   2.151   7.604
    1LIG    H65  156   2.124   1.989   7.588
    1LIG    H66  157   1.941   1.898   7.749
    1LIG    H67  158   1.854   2.048   7.749
    1LIG    H68  159   1.975   1.880   8.055
    1LIG    H69  160   1.857   2.008   8.060
    1LIG    H70  161   2.031   2.154   8.212
    1LIG    H71  162   2.132   2.015   8.219
    1LIG    H72  163   2.030   2.148   8.519
    1LIG    H73  164   2.116   1.996   8.519
    1LIG    H74  165   1.928   1.885   8.672
    1LIG    H75  166   1.833   2.030   8.667
    1LIG    H76  167   1.945   1.872   8.974
    1LIG    H77  168   1.832   2.005   8.983
    1LIG    H78  169   2.020   2.139   9.132
    1LIG    H79  170   2.113   1.991   9.131
    1LIG    H80  171   2.025   2.143   9.442
    1LIG    H81  172   2.123   1.999   9.439
    1LIG    H82  173   1.955   1.873   9.601
    1LIG    H83  174   1.848   2.010   9.601
    1LIG    H84  175   1.961   1.876   9.907
    1LIG    H85  176   1.853   2.012   9.907
    1LIG    H86  177   2.036   2.149  10.057
    1LIG    H87  178   2.134   2.008  10.059
    1LIG    H88  179   2.041   2.148  10.365
    1LIG    H89  180   2.131   2.000  10.367
    1LIG    H90  181   1.940   1.887  10.520
    1LIG    H91  182   1.850   2.035  10.516
    1LIG    H92  183   1.954   1.874  10.819
    1LIG    H93  184   1.846   2.010  10.824
    1LIG    H94  185   2.029   2.139  10.979
    1LIG    H95  186   2.123   1.992  10.979
    1LIG    H96  187   2.027   2.142  11.288
    1LIG    H97  188   2.128   1.999  11.286
    1LIG    H98  189   1.958   1.872  11.445
    1LIG    H99  190   1.851   2.009  11.446
    1LIG   H100  191   1.956   1.875  11.752
    1LIG   H101  192   1.854   2.016  11.752
    1LIG   H102  193   2.043   2.145  11.902
    1LIG   H103  194   2.135   2.000  11.904
    1LIG   H104  195   2.042   2.148  12.213
    1LIG   H105  196   2.133   1.999  12.214
    1LIG   H106  197   1.943   1.886  12.369
    1LIG   H107  198   1.852   2.034  12.366
    1LIG   H108  199   1.957   1.873  12.672
    1LIG   H109  200   1.847   2.008  12.677
    1LIG   H110  201   2.029   2.138  12.835
    1LIG   H111  202   2.125   1.992  12.834
    1LIG   H112  203   2.027   2.138  13.151
    1LIG   H113  204   2.128   1.997  13.149
    1LIG   H114  205   1.955   1.866  13.306
    1LIG   H115  206   1.849   2.004  13.308
    1LIG   H116  207   1.914   1.866  13.605
    1LIG   H117  208   1.840   2.019  13.624
    1LIG   H118  209   2.117   2.003  13.784
    1LIG   H119  210   2.021   1.860  13.802
    2MOL     C1  211   1.455   2.004   6.456
    2MOL     H1  212   1.368   2.068   6.439
    2MOL     O1  213   1.484   1.929   6.336
    2MOL     C2  214   1.600   1.844   6.340
    2MOL     H2  215   1.690   1.904   6.361
    2MOL     C3  216   1.615   1.778   6.200
    2MOL     H3  217   1.515   1.763   6.158
    2MOL     H4  218   1.660   1.679   6.209
    2MOL     O2  219   1.693   1.857   6.111
    2MOL     H5  220   1.778   1.807   6.105
    2MOL     C4  221   1.426   1.906   6.571
    2MOL     H6  222   1.336   1.849   6.545
    2MOL     O3  223   1.406   1.978   6.693
    2MOL     H7  224   1.453   2.064   6.683
    2MOL     C5  225   1.544   1.808   6.589
    2MOL     H8  226   1.630   1.867   6.623
    2MOL     O4  227   1.513   1.709   6.687
    2MOL     H9  228   1.496   1.756   6.772
    2MOL     C6  229   1.583   1.742   6.455
    2MOL    H10  230   1.507   1.667   6.428
    2MOL     O5  231   1.711   1.683   6.478
    2MOL     C7  232   1.725   1.544   6.447
    2MOL    H11  233   1.628   1.496   6.433
    2MOL     O6  234   1.804   1.532   6.326
    2MOL     C8  235   1.934   1.597   6.330
    2MOL    H12  236   1.922   1.703   6.353
    2MOL     C9  237   2.000   1.586   6.189
    2MOL    H13  238   2.006   1.481   6.159
    2MOL    H14  239   2.103   1.624   6.195
    2MOL     O7  240   1.928   1.661   6.090
    2MOL    H15  241   1.990   1.668   6.014
    2MOL    C10  242   1.800   1.478   6.564
    2MOL    H16  243   1.809   1.371   6.542
    2MOL     O8  244   1.728   1.499   6.686
    2MOL    H17  245   1.647   1.549   6.663
    2MOL    C11  246   1.940   1.541   6.578
    2MOL    H18  247   1.927   1.647   6.601
    2MOL     O9  248   2.014   1.480   6.683
    2MOL    H19  249   1.950   1.478   6.761
    2MOL    C12  250   2.018   1.532   6.443
    2MOL    H20  251   2.040   1.427   6.419
    2MOL    O10  252   2.137   1.610   6.461
    2MOL    C13  253   2.264   1.545   6.441
    2MOL    H21  254   2.252   1.438   6.423
    2MOL    O11  255   2.331   1.607   6.329
    2MOL    C14  256   2.353   1.750   6.340
    2MOL    H22  257   2.256   1.801   6.347
    2MOL    C15  258   2.422   1.801   6.212
    2MOL    H23  259   2.413   1.910   6.207
    2MOL    H24  260   2.366   1.760   6.129
    2MOL    O12  261   2.561   1.764   6.201
    2MOL    H25  262   2.603   1.840   6.155
    2MOL    C16  263   2.350   1.567   6.568
    2MOL    H26  264   2.448   1.520   6.554
    2MOL    O13  265   2.282   1.506   6.678
    2MOL    H27  266   2.189   1.498   6.648
    2MOL    C17  267   2.369   1.718   6.593
    2MOL    H28  268   2.269   1.764   6.604
    2MOL    O14  269   2.446   1.747   6.711
    2MOL    H29  270   2.442   1.668   6.771
    2MOL    C18  271   2.433   1.783   6.469
    2MOL    H30  272   2.537   1.748   6.460
    2MOL    O15  273   2.425   1.924   6.491
    2MOL    C19  274   2.546   2.001   6.479
    2MOL    H31  275   2.635   1.937   6.475
    2MOL    O16  276   2.537   2.082   6.359
    2MOL    C20  277   2.419   2.168   6.351
    2MOL    H32  278   2.329   2.105   6.351
    2MOL    C21  279   2.421   2.246   6.218
    2MOL    H33  280   2.324   2.295   6.203
    2MOL    H34  281   2.434   2.174   6.136
    2MOL    O17  282   2.526   2.342   6.214
    2MOL    H35  283   2.489   2.434   6.207
    2MOL    C22  284   2.556   2.095   6.601
    2MOL    H36  285   2.644   2.159   6.592
    2MOL    O18  286   2.565   2.016   6.720
    2MOL    H37  287   2.507   1.938   6.705
    2MOL    C23  288   2.430   2.183   6.608
    2MOL    H38  289   2.343   2.117   6.617
    2MOL    O19  290   2.434   2.270   6.724
    2MOL    H39  291   2.435   2.208   6.800
    2MOL    C24  292   2.413   2.261   6.475
    2MOL    H40  293   2.491   2.339   6.469
    2MOL    O20  294   2.281   2.318   6.481
    2MOL    C25  295   2.265   2.459   6.452
    2MOL    H41  296   2.363   2.508   6.436
    2MOL    O21  297   2.181   2.474   6.335
    2MOL    C26  298   2.053   2.409   6.347
    2MOL    H42  299   2.071   2.307   6.379
    2MOL    C27  300   1.979   2.399   6.211
    2MOL    H43  301   1.913   2.311   6.213
    2MOL    H44  302   2.052   2.381   6.131
    2MOL    O22  303   1.900   2.514   6.180
    2MOL    H45  304   1.807   2.480   6.189
    2MOL    C28  305   2.196   2.524   6.575
    2MOL    H46  306   2.192   2.633   6.558
    2MOL    O23  307   2.269   2.495   6.693
    2MOL    H47  308   2.320   2.411   6.676
    2MOL    C29  309   2.053   2.470   6.594
    2MOL    H48  310   2.063   2.364   6.620
    2MOL    O24  311   1.986   2.539   6.702
    2MOL    H49  312   2.053   2.543   6.774
    2MOL    C30  313   1.973   2.476   6.462
    2MOL    H50  314   1.950   2.580   6.436
    2MOL    O25  315   1.855   2.399   6.487
    2MOL    C31  316   1.729   2.461   6.456
    2MOL    H51  317   1.741   2.569   6.440
    2MOL    O26  318   1.677   2.398   6.337
    2MOL    C32  319   1.658   2.254   6.343
    2MOL    H52  320   1.754   2.203   6.358
    2MOL    C33  321   1.595   2.208   6.208
    2MOL    H53  322   1.534   2.290   6.167
    2MOL    H54  323   1.526   2.125   6.223
    2MOL    O27  324   1.695   2.170   6.112
    2MOL    H55  325   1.709   2.073   6.124
    2MOL    C34  326   1.634   2.439   6.575
    2MOL    H56  327   1.537   2.485   6.553
    2MOL    O28  328   1.691   2.500   6.692
    2MOL    H57  329   1.788   2.486   6.680
    2MOL    C35  330   1.613   2.287   6.597
    2MOL    H58  331   1.710   2.243   6.624
    2MOL    O29  332   1.518   2.260   6.702
    2MOL    H59  333   1.555   2.299   6.784
    2MOL    C36  334   1.566   2.221   6.465
    2MOL    H60  335   1.465   2.254   6.442
    2MOL    O30  336   1.572   2.080   6.490
    3MOL     C1  337   2.557   1.996   7.433
    3MOL     H1  338   2.649   2.054   7.443
    3MOL     O1  339   2.528   1.923   7.554
    3MOL     C2  340   2.405   1.845   7.550
    3MOL     H2  341   2.321   1.909   7.521
    3MOL     C3  342   2.377   1.791   7.693
    3MOL     H3  343   2.469   1.794   7.752
    3MOL     H4  344   2.345   1.687   7.688
    3MOL     O2  345   2.274   1.870   7.755
    3MOL     H5  346   2.201   1.806   7.775
    3MOL     C4  347   2.572   1.898   7.315
    3MOL     H6  348   2.664   1.839   7.330
    3MOL     O3  349   2.580   1.971   7.192
    3MOL     H7  350   2.565   2.064   7.215
    3MOL     C5  351   2.452   1.801   7.305
    3MOL     H8  352   2.365   1.861   7.276
    3MOL     O4  353   2.478   1.703   7.203
    3MOL     H9  354   2.543   1.750   7.145
    3MOL     C6  355   2.420   1.735   7.441
    3MOL    H10  356   2.498   1.663   7.468
    3MOL     O5  357   2.291   1.674   7.424
    3MOL     C7  358   2.275   1.535   7.459
    3MOL    H11  359   2.373   1.486   7.474
    3MOL     O6  360   2.195   1.526   7.578
    3MOL     C8  361   2.066   1.592   7.568
    3MOL    H12  362   2.084   1.696   7.541
    3MOL     C9  363   1.997   1.598   7.707
    3MOL    H13  364   1.991   1.498   7.750
    3MOL    H14  365   1.895   1.636   7.696
    3MOL     O7  366   2.069   1.685   7.796
    3MOL    H15  367   2.042   1.653   7.885
    3MOL    C10  368   2.202   1.466   7.341
    3MOL    H16  369   2.194   1.359   7.364
    3MOL     O8  370   2.278   1.489   7.222
    3MOL    H17  371   2.313   1.581   7.231
    3MOL    C11  372   2.059   1.516   7.321
    3MOL    H18  373   2.071   1.616   7.279
    3MOL     O9  374   1.988   1.437   7.226
    3MOL    H19  375   2.039   1.441   7.142
    3MOL    C12  376   1.982   1.521   7.456
    3MOL    H20  377   1.962   1.417   7.486
    3MOL    O10  378   1.859   1.595   7.434
    3MOL    C13  379   1.732   1.530   7.449
    3MOL    H21  380   1.745   1.421   7.462
    3MOL    O11  381   1.666   1.587   7.564
    3MOL    C14  382   1.643   1.731   7.560
    3MOL    H22  383   1.739   1.783   7.559
    3MOL    C15  384   1.568   1.772   7.689
    3MOL    H23  385   1.551   1.881   7.687
    3MOL    H24  386   1.634   1.751   7.773
    3MOL    O12  387   1.444   1.702   7.706
    3MOL    H25  388   1.368   1.765   7.699
    3MOL    C16  389   1.645   1.557   7.323
    3MOL    H26  390   1.548   1.507   7.336
    3MOL    O13  391   1.712   1.504   7.208
    3MOL    H27  392   1.808   1.517   7.223
    3MOL    C17  393   1.621   1.709   7.304
    3MOL    H28  394   1.718   1.756   7.286
    3MOL    O14  395   1.533   1.736   7.194
    3MOL    H29  396   1.576   1.697   7.113
    3MOL    C18  397   1.563   1.771   7.433
    3MOL    H30  398   1.458   1.740   7.443
    3MOL    O15  399   1.575   1.915   7.416
    3MOL    C19  400   1.455   1.994   7.432
    3MOL    H31  401   1.366   1.931   7.440
    3MOL    O16  402   1.469   2.076   7.550
    3MOL    C20  403   1.585   2.165   7.552
    3MOL    H32  404   1.676   2.104   7.551
    3MOL    C21  405   1.584   2.246   7.684
    3MOL    H33  406   1.681   2.294   7.698
    3MOL    H34  407   1.569   2.178   7.768
    3MOL    O17  408   1.481   2.345   7.685
    3MOL    H35  409   1.498   2.402   7.764
    3MOL    C22  410   1.438   2.087   7.308
    3MOL    H36  411   1.346   2.144   7.321
    3MOL    O18  412   1.431   2.006   7.192
    3MOL    H37  413   1.436   1.913   7.223
    3MOL    C23  414   1.557   2.185   7.293
    3MOL    H38  415   1.646   2.124   7.271
    3MOL    O19  416   1.535   2.280   7.186
    3MOL    H39  417   1.559   2.238   7.100
    3MOL    C24  418   1.586   2.258   7.427
    3MOL    H40  419   1.513   2.338   7.439
    3MOL    O20  420   1.720   2.310   7.411
    3MOL    C25  421   1.741   2.451   7.434
    3MOL    H41  422   1.645   2.503   7.446
    3MOL    O21  423   1.820   2.466   7.554
    3MOL    C26  424   1.949   2.399   7.549
    3MOL    H42  425   1.933   2.293   7.528
    3MOL    C27  426   2.019   2.410   7.688
    3MOL    H43  427   2.085   2.324   7.703
    3MOL    H44  428   1.943   2.405   7.767
    3MOL    O22  429   2.097   2.528   7.699
    3MOL    H45  430   2.188   2.493   7.686
    3MOL    C28  431   1.817   2.510   7.311
    3MOL    H46  432   1.823   2.619   7.323
    3MOL    O23  433   1.749   2.476   7.190
    3MOL    H47  434   1.676   2.418   7.220
    3MOL    C29  435   1.959   2.453   7.299
    3MOL    H48  436   1.947   2.348   7.274
    3MOL    O24  437   2.032   2.520   7.195
    3MOL    H49  438   1.964   2.561   7.137
    3MOL    C30  439   2.032   2.461   7.434
    3MOL    H50  440   2.052   2.567   7.456
    3MOL    O25  441   2.153   2.387   7.417
    3MOL    C31  442   2.274   2.453   7.457
    3MOL    H51  443   2.257   2.559   7.479
    3MOL    O26  444   2.323   2.385   7.575
    3MOL    C32  445   2.355   2.244   7.560
    3MOL    H52  446   2.263   2.189   7.537
    3MOL    C33  447   2.409   2.195   7.697
    3MOL    H53  448   2.465   2.277   7.743
    3MOL    H54  449   2.479   2.113   7.683
    3MOL    O27  450   2.302   2.154   7.784
    3MOL    H55  451   2.281   2.061   7.762
    3MOL    C34  452   2.377   2.444   7.343
    3MOL    H56  453   2.470   2.495   7.374
    3MOL    O28  454   2.323   2.507   7.227
    3MOL    H57  455   2.228   2.481   7.222
    3MOL    C35  456   2.408   2.296   7.315
    3MOL    H58  457   2.313   2.249   7.286
    3MOL    O29  458   2.501   2.283   7.207
    3MOL    H59  459   2.450   2.322   7.132
    3MOL    C36  460   2.454   2.221   7.442
    3MOL    H60  461   2.556   2.251   7.468
    3MOL    O30  462   2.445   2.082   7.404
    4SOL     OW  463   0.233   0.648   0.120
    4SOL    HW1  464   0.139   0.642   0.136
    4SOL    HW2  465   0.247   0.600   0.038
    5SOL     OW  466   0.225   0.287   0.984
    5SOL    HW1  467   0.249   0.250   1.069
    5SOL    HW2  468   0.132   0.268   0.975
    6SOL     OW  469   0.018   0.388   0.632
    6SOL    HW1  470   3.930   0.397   0.670
    6SOL    HW2  471   0.024   0.295   0.609
    7SOL     OW  472   0.576   1.282   1.182
    7SOL    HW1  473   0.489   1.286   1.142
    7SOL    HW2  474   0.591   1.370   1.216
    8SOL     OW  475   1.560   1.512   0.708
    8SOL    HW1  476   1.516   1.494   0.791
    8SOL    HW2  477   1.490   1.517   0.643
    9SOL     OW  478   1.132   0.698   0.702
    9SOL    HW1  479   1.180   0.780   0.688
    9SOL    HW2  480   1.084   0.712   0.784
   10SOL     OW  481   1.752   0.622   0.222
   10SOL    HW1  482   1.773   0.597   0.132
   10SOL    HW2  483   1.755   0.540   0.271
   11SOL     OW  484   0.758   1.142   1.038
   11SOL    HW1  485   0.691   1.176   1.097
   11SOL    HW2  486   0.792   1.220   0.994
   12SOL     OW  487   0.865   0.777   1.822
   12SOL    HW1  488   0.854   0.849   1.884
   12SOL    HW2  489   0.888   0.820   1.740
   13SOL     OW  490   0.686   1.006   0.648
   13SOL    HW1  491   0.750   0.991   0.717
   13SOL    HW2  492   0.616   1.056   0.690
   14SOL     OW  493   0.709   1.150   1.812
   14SOL    HW1  494   0.757   1.229   1.837
   14SOL    HW2  495   0.626   1.183   1.777
   15SOL     OW  496   0.351   1.403   1.079
   15SOL    HW1  497   0.269   1.386   1.032
   15SOL    HW2  498   0.399   1.462   1.021
   16SOL     OW  499   1.461   1.500   1.352
   16SOL    HW1  500   1.510   1.581   1.361
   16SOL    HW2  501   1.403   1.498   1.428
   17SOL     OW  502   0.453   0.407   1.499
   17SOL    HW1  503   0.533   0.355   1.495
   17SOL    HW2  504   0.382   0.342   1.501
   18SOL     OW  505   1.612   0.450   0.735
   18SOL    HW1  506   1.539   0.482   0.682
   18SOL    HW2  507   1.637   0.525   0.790
   19SOL     OW  508   0.226   1.709   0.473
   19SOL    HW1  509   0.243   1.791   0.521
   19SOL    HW2  510   0.288   1.711   0.400
   20SOL     OW  511   1.136   1.341   1.692
   20SOL    HW1  512   1.177   1.337   1.779
   20SOL    HW2  513   1.084   1.261   1.686
   21SOL     OW  514   0.243   1.445   0.542
   21SOL    HW1  515   0.222   1.538   0.529
   21SOL    HW2  516   0.169   1.411   0.593
   22SOL     OW  517   0.246   1.070   0.884
   22SOL    HW1  518   0.264   0.985   0.926
   22SOL    HW2  519   0.194   1.118   0.949
   23SOL     OW  520   0.614   1.791   1.430
   23SOL    HW1  521   0.531   1.773   1.475
   23SOL    HW2  522   0.636   1.881   1.455
   24SOL     OW  523   0.568   0.981   0.158
   24SOL    HW1  524   0.589   1.032   0.079
   24SOL    HW2  525   0.623   1.019   0.226
   25SOL     OW  526   1.578   0.136   1.457
   25SOL    HW1  527   1.603   0.210   1.402
   25SOL    HW2  528   1.555   0.176   1.541
   26SOL     OW  529   0.137   0.650   0.569
   26SOL    HW1  530   0.094   0.565   0.575
   26SOL    HW2  531   0.102   0.700   0.642
   27SOL     OW  532   0.019   1.602   0.133
   27SOL    HW1  533   0.026   1.507   0.141
   27SOL    HW2  534   3.967   1.629   0.208
   28SOL     OW  535   1.687   0.917   0.640
   28SOL    HW1  536   1.773   0.878   0.623
   28SOL    HW2  537   1.668   0.968   0.561
   29SOL     OW  538   1.647   1.108   0.430
   29SOL    HW1  539   1.735   1.111   0.392
   29SOL    HW2  540   1.651   1.168   0.504
   30SOL     OW  541   0.134   0.753   1.590
   30SOL    HW1  542   0.230   0.747   1.593
   30SOL    HW2  543   0.115   0.846   1.607
   31SOL     OW  544   0.612   1.384   0.735
   31SOL    HW1  545   0.566   1.301   0.744
   31SOL    HW2  546   0.596   1.411   0.645
   32SOL     OW  547   1.289   1.239   1.424
   32SOL    HW1  548   1.322   1.171   1.364
   32SOL    HW2  549   1.346   1.232   1.500
   33SOL     OW  550   0.819   0.002   0.517
   33SOL    HW1  551   0.863   0.084   0.492
   33SOL    HW2  552   0.726   0.024   0.518
   34SOL     OW  553   0.186   0.954   1.275
   34SOL    HW1  554   0.274   0.919   1.261
   34SOL    HW2  555   0.131   0.908   1.212
   35SOL     OW  556   1.532   0.994   0.202
   35SOL    HW1  557   1.463   0.935   0.233
   35SOL    HW2  558   1.571   1.030   0.282
   36SOL     OW  559   1.185   1.805   1.622
   36SOL    HW1  560   1.198   1.863   1.547
   36SOL    HW2  561   1.201   1.717   1.587
   37SOL     OW  562   0.340   0.254   1.825
   37SOL    HW1  563   0.385   0.337   1.812
   37SOL    HW2  564   0.250   0.278   1.846
   38SOL     OW  565   1.465   1.420   0.952
   38SOL    HW1  566   1.397   1.434   1.018
   38SOL    HW2  567   1.453   1.329   0.925
   39SOL     OW  568   1.671   1.730   0.573
   39SOL    HW1  569   1.623   1.716   0.492
   39SOL    HW2  570   1.647   1.655   0.629
   40SOL     OW  571   0.596   0.719   0.261
   40SOL    HW1  572   0.599   0.802   0.213
   40SOL    HW2  573   0.537   0.737   0.334
   41SOL     OW  574   1.276   0.363   0.940
   41SOL    HW1  575   1.189   0.324   0.945
   41SOL    HW2  576   1.333   0.302   0.986
   42SOL     OW  577   1.559   1.729   0.311
   42SOL    HW1  578   1.641   1.681   0.318
   42SOL    HW2  579   1.524   1.705   0.225
   43SOL     OW  580   0.795   0.616   1.455
   43SOL    HW1  581   0.765   0.592   1.542
   43SOL    HW2  582   0.754   0.552   1.397
   44SOL     OW  583   1.393   0.477   1.677
   44SOL    HW1  584   1.396   0.521   1.762
   44SOL    HW2  585   1.453   0.403   1.686
   45SOL     OW  586   0.956   0.888   1.582
   45SOL    HW1  587   1.010   0.818   1.547
   45SOL    HW2  588   0.908   0.921   1.506
   46SOL     OW  589   0.991   0.404   1.241
   46SOL    HW1  590   0.908   0.429   1.283
   46SOL    HW2  591   0.965   0.371   1.155
   47SOL     OW  592   1.050   0.701   0.428
   47SOL    HW1  593   1.065   0.692   0.522
   47SOL    HW2  594   0.968   0.654   0.412
   48SOL     OW  595   0.082   0.824   0.790
   48SOL    HW1  596   0.160   0.794   0.836
   48SOL    HW2  597   0.092   0.919   0.785
   49SOL     OW  598   0.129   1.855   1.573
   49SOL    HW1  599   0.137   1.822   1.662
   49SOL    HW2  600   0.037   1.843   1.550
   50SOL     OW  601   0.874   0.360   0.217
   50SOL    HW1  602   0.913   0.417   0.150
   50SOL    HW2  603   0.879   0.272   0.180
   51SOL     OW  604   1.711   0.576   1.828
   51SOL    HW1  605   1.672   0.650   1.782
   51SOL    HW2  606   1.735   0.514   1.759
   52SOL     OW  607   1.377   1.142   0.543
   52SOL    HW1  608   1.455   1.129   0.489
   52SOL    HW2  609   1.323   1.204   0.493
   53SOL     OW  610   0.559   0.196   0.883
   53SOL    HW1  611   0.562   0.216   0.976
   53SOL    HW2  612   0.549   0.281   0.840
   54SOL     OW  613   1.009   1.444   0.476
   54SOL    HW1  614   0.970   1.516   0.425
   54SOL    HW2  615   0.989   1.466   0.567
   55SOL     OW  616   0.364   1.812   0.866
   55SOL    HW1  617   0.428   1.741   0.871
   55SOL    HW2  618   0.414   1.891   0.881
   56SOL     OW  619   1.798   1.055   0.869
   56SOL    HW1  620   1.742   1.042   0.792
   56SOL    HW2  621   1.737   1.062   0.942
   57SOL     OW  622   1.228   1.539   1.513
   57SOL    HW1  623   1.214   1.466   1.573
   57SOL    HW2  624   1.166   1.523   1.442
   58SOL     OW  625   0.314   0.936   0.238
   58SOL    HW1  626   0.404   0.951   0.211
   58SOL    HW2  627   0.302   0.841   0.230
   59SOL     OW  628   1.475   0.742   0.731
   59SOL    HW1  629   1.468   0.698   0.815
   59SOL    HW2  630   1.554   0.797   0.739
   60SOL     OW  631   0.465   1.260   1.737
   60SOL    HW1  632   0.439   1.268   1.645
   60SOL    HW2  633   0.383   1.265   1.786
   61SOL     OW  634   1.120   1.779   0.232
   61SOL    HW1  635   1.057   1.732   0.288
   61SOL    HW2  636   1.148   1.715   0.168
   62SOL     OW  637   0.199   0.296   1.498
   62SOL    HW1  638   0.106   0.317   1.495
   62SOL    HW2  639   0.206   0.232   1.569
   63SOL     OW  640   1.631   1.372   0.084
   63SOL    HW1  641   1.594   1.455   0.055
   63SOL    HW2  642   1.564   1.307   0.065
   64SOL     OW  643   0.481   1.734   0.323
   64SOL    HW1  644   0.518   1.791   0.389
   64SOL    HW2  645   0.556   1.705   0.271
   65SOL     OW  646   1.437   0.144   0.397
   65SOL    HW1  647   1.396   0.062   0.369
   65SOL    HW2  648   1.516   0.118   0.443
   66SOL     OW  649   0.251   1.792   1.232
   66SOL    HW1  650   0.299   1.729   1.286
   66SOL    HW2  651   0.245   1.750   1.146
   67SOL     OW  652   0.937   1.698   0.900
   67SOL    HW1  653   1.015   1.647   0.920
   67SOL    HW2  654   0.893   1.649   0.831
   68SOL     OW  655   0.393   0.696   0.472
   68SOL    HW1  656   0.420   0.604   0.482
   68SOL    HW2  657   0.302   0.698   0.499
   69SOL     OW  658   1.531   0.232   1.727
   69SOL    HW1  659   1.531   0.256   1.819
   69SOL    HW2  660   1.501   0.141   1.725
   70SOL     OW  661   0.627   0.105   0.121
   70SOL    HW1  662   0.723   0.105   0.125
   70SOL    HW2  663   0.607   0.130   0.031
   71SOL     OW  664   0.778   0.282   1.763
   71SOL    HW1  665   0.843   0.212   1.769
   71SOL    HW2  666   0.717   0.264   1.834
   72SOL     OW  667   0.876   1.521   1.194
   72SOL    HW1  668   0.861   1.485   1.106
   72SOL    HW2  669   0.946   1.467   1.231
   73SOL     OW  670   1.342   0.587   1.430
   73SOL    HW1  671   1.372   0.558   1.516
   73SOL    HW2  672   1.376   0.676   1.422
   74SOL     OW  673   0.814   1.396   0.937
   74SOL    HW1  674   0.898   1.385   0.894
   74SOL    HW2  675   0.750   1.395   0.866
   75SOL     OW  676   0.929   0.511   0.902
   75SOL    HW1  677   0.905   0.503   0.809
   75SOL    HW2  678   0.957   0.423   0.927
   76SOL     OW  679   0.550   0.054   0.498
   76SOL    HW1  680   0.474   0.060   0.557
   76SOL    HW2  681   0.545   0.132   0.443
   77SOL     OW  682   1.430   1.202   0.045
   77SOL    HW1  683   1.451   1.121   0.092
   77SOL    HW2  684   1.337   1.217   0.064
   78SOL     OW  685   0.355   3.990   0.170
   78SOL    HW1  686   0.324   0.076   0.142
   78SOL    HW2  687   0.417   0.009   0.241
   79SOL     OW  688   0.938   0.248   0.466
   79SOL    HW1  689   0.907   0.286   0.384
   79SOL    HW2  690   1.033   0.248   0.458
   80SOL     OW  691   1.079   0.681   1.459
   80SOL    HW1  692   1.008   0.617   1.466
   80SOL    HW2  693   1.159   0.627   1.454
   81SOL     OW  694   1.224   1.570   0.794
   81SOL    HW1  695   1.241   1.637   0.729
   81SOL    HW2  696   1.292   1.582   0.860
   82SOL     OW  697   0.465   1.149   0.737
   82SOL    HW1  698   0.393   1.126   0.796
   82SOL    HW2  699   0.430   1.135   0.649
   83SOL     OW  700   1.268   1.795   0.605
   83SOL    HW1  701   1.313   1.858   0.549
   83SOL    HW2  702   1.204   1.847   0.653
   84SOL     OW  703   1.003   0.536   0.056
   84SOL    HW1  704   1.004   0.546  13.861
   84SOL    HW2  705   1.092   0.558   0.083
   85SOL     OW  706   0.079   0.570   1.393
   85SOL    HW1  707   0.168   0.553   1.362
   85SOL    HW2  708   0.088   0.641   1.456
   86SOL     OW  709   0.572   0.232   1.160
   86SOL    HW1  710   0.596   0.139   1.170
   86SOL    HW2  711   0.481   0.236   1.190
   87SOL     OW  712   0.872   0.462   0.638
   87SOL    HW1  713   0.822   0.514   0.575
   87SOL    HW2  714   0.890   0.380   0.593
   88SOL     OW  715   0.995   0.042   0.778
   88SOL    HW1  716   0.958   0.066   0.693
   88SOL    HW2  717   1.005   3.947   0.774
   89SOL     OW  718   1.436   1.163   0.857
   89SOL    HW1  719   1.368   1.096   0.856
   89SOL    HW2  720   1.459   1.175   0.765
   90SOL     OW  721   1.466   0.604   0.979
   90SOL    HW1  722   1.416   0.522   0.984
   90SOL    HW2  723   1.527   0.599   1.052
   91SOL     OW  724   1.849   0.818   0.382
   91SOL    HW1  725   1.901   0.763   0.440
   91SOL    HW2  726   1.812   0.758   0.317
   92SOL     OW  727   0.497   1.378   0.168
   92SOL    HW1  728   0.419   1.361   0.221
   92SOL    HW2  729   0.463   1.408   0.084
   93SOL     OW  730   1.669   1.266   0.645
   93SOL    HW1  731   1.764   1.268   0.661
   93SOL    HW2  732   1.640   1.354   0.668
   94SOL     OW  733   1.416   0.590   0.086
   94SOL    HW1  734   1.347   0.574   0.150
   94SOL    HW2  735   1.473   0.513   0.092
   95SOL     OW  736   0.525   0.257   0.325
   95SOL    HW1  737   0.562   0.207   0.252
   95SOL    HW2  738   0.508   0.344   0.288
   96SOL     OW  739   1.753   1.238   1.575
   96SOL    HW1  740   1.840   1.199   1.571
   96SOL    HW2  741   1.768   1.328   1.603
   97SOL     OW  742   1.059   1.354   1.334
   97SOL    HW1  743   0.984   1.322   1.385
   97SOL    HW2  744   1.135   1.312   1.375
   98SOL     OW  745   1.606   1.625   1.652
   98SOL    HW1  746   1.602   1.661   1.563
   98SOL    HW2  747   1.690   1.579   1.656
   99SOL     OW  748   1.128   1.203   1.106
   99SOL    HW1  749   1.069   1.240   1.171
   99SOL    HW2  750   1.094   1.234   1.022
  100SOL     OW  751   1.629   1.099   1.078
  100SOL    HW1  752   1.625   1.161   1.151
  100SOL    HW2  753   1.549   1.116   1.027
  101SOL     OW  754   0.914   0.110   1.402
  101SOL    HW1  755   0.933   0.086   1.312
  101SOL    HW2  756   0.994   0.153   1.433
  102SOL     OW  757   0.984   1.115   1.723
  102SOL    HW1  758   0.892   1.130   1.743
  102SOL    HW2  759   0.983   1.037   1.667
  103SOL     OW  760   0.713   1.059   0.375
  103SOL    HW1  761   0.698   1.044   0.469
  103SOL    HW2  762   0.788   1.003   0.354
  104SOL     OW  763   0.420   0.815   1.252
  104SOL    HW1  764   0.489   0.822   1.318
  104SOL    HW2  765   0.385   0.727   1.262
  105SOL     OW  766   1.266   0.375   1.275
  105SOL    HW1  767   1.301   0.453   1.320
  105SOL    HW2  768   1.180   0.402   1.244
  106SOL     OW  769   0.064   1.579   1.345
  106SOL    HW1  770   0.066   1.647   1.277
  106SOL    HW2  771   0.156   1.566   1.368
  107SOL     OW  772   0.368   1.104   0.484
  107SOL    HW1  773   0.362   1.181   0.427
  107SOL    HW2  774   0.381   1.031   0.424
  108SOL     OW  775   0.557   0.537   0.860
  108SOL    HW1  776   0.572   0.595   0.785
  108SOL    HW2  777   0.620   0.565   0.925
  109SOL     OW  778   1.249   1.346   0.396
  109SOL    HW1  779   1.304   1.419   0.423
  109SOL    HW2  780   1.161   1.369   0.428
  110SOL     OW  781   1.279   1.457   1.147
  110SOL    HW1  782   1.335   1.460   1.224
  110SOL    HW2  783   1.224   1.379   1.159
  111SOL     OW  784   1.585   0.634   0.488
  111SOL    HW1  785   1.540   0.694   0.547
  111SOL    HW2  786   1.618   0.690   0.418
  112SOL     OW  787   0.346   1.525   1.320
  112SOL    HW1  788   0.336   1.475   1.239
  112SOL    HW2  789   0.440   1.541   1.327
  113SOL     OW  790   0.412   0.740   1.601
  113SOL    HW1  791   0.474   0.786   1.544
  113SOL    HW2  792   0.453   0.654   1.614
  114SOL     OW  793   1.600   0.778   1.682
  114SOL    HW1  794   1.514   0.819   1.674
  114SOL    HW2  795   1.652   0.819   1.613
  115SOL     OW  796   1.020   0.122   1.777
  115SOL    HW1  797   1.057   0.200   1.736
  115SOL    HW2  798   1.009   0.060   1.705
  116SOL     OW  799   0.479   0.036   1.767
  116SOL    HW1  800   0.492   0.040   1.672
  116SOL    HW2  801   0.419   0.108   1.786
  117SOL     OW  802   0.584   0.873   1.031
  117SOL    HW1  803   0.614   0.964   1.031
  117SOL    HW2  804   0.528   0.867   1.108
  118SOL     OW  805   1.359   0.859   1.031
  118SOL    HW1  806   1.276   0.850   0.984
  118SOL    HW2  807   1.398   0.772   1.027
  119SOL     OW  808   1.217   0.545   0.271
  119SOL    HW1  809   1.222   0.465   0.323
  119SOL    HW2  810   1.162   0.603   0.323
  120SOL     OW  811   0.313   0.214   1.241
  120SOL    HW1  812   0.272   0.248   1.321
  120SOL    HW2  813   0.294   0.120   1.243
  121SOL     OW  814   0.057   1.305   1.280
  121SOL    HW1  815   0.090   1.265   1.361
  121SOL    HW2  816   0.050   1.398   1.300
  122SOL     OW  817   0.727   0.634   1.057
  122SOL    HW1  818   0.799   0.617   0.997
  122SOL    HW2  819   0.698   0.723   1.034
  123SOL     OW  820   1.734   0.959   1.852
  123SOL    HW1  821   1.687   0.900   1.793
  123SOL    HW2  822   1.675   0.972   1.926
  124SOL     OW  823   0.328   0.059   0.649
  124SOL    HW1  824   0.299   0.150   0.657
  124SOL    HW2  825   0.279   0.013   0.718
  125SOL     OW  826   1.575   0.387   0.391
  125SOL    HW1  827   1.564   0.324   0.461
  125SOL    HW2  828   1.568   0.473   0.433
  126SOL     OW  829   1.028   0.760   0.961
  126SOL    HW1  830   1.025   0.777   1.055
  126SOL    HW2  831   1.001   0.668   0.952
  127SOL     OW  832   0.982   1.566   1.716
  127SOL    HW1  833   0.967   1.610   1.633
  127SOL    HW2  834   1.026   1.484   1.692
  128SOL     OW  835   1.855   1.506   1.605
  128SOL    HW1  836   1.870   1.535   1.515
  128SOL    HW2  837   1.939   1.520   1.650
  129SOL     OW  838   0.351   0.920   1.801
  129SOL    HW1  839   0.430   0.940   1.851
  129SOL    HW2  840   0.379   0.854   1.737
  130SOL     OW  841   1.541   0.268   0.147
  130SOL    HW1  842   1.470   0.204   0.147
  130SOL    HW2  843   1.539   0.306   0.234
  131SOL     OW  844   1.292   0.831   0.055
  131SOL    HW1  845   1.338   0.748   0.061
  131SOL    HW2  846   1.311   0.863  13.867
  132SOL     OW  847   1.064   1.335   0.853
  132SOL    HW1  848   1.068   1.263   0.791
  132SOL    HW2  849   1.127   1.399   0.819
  133SOL     OW  850   0.314   0.806   0.951
  133SOL    HW1  851   0.408   0.822   0.945
  133SOL    HW2  852   0.307   0.717   0.983
  134SOL     OW  853   0.338   0.527   1.013
  134SOL    HW1  854   0.298   0.442   0.995
  134SOL    HW2  855   0.413   0.531   0.954
  135SOL     OW  856   1.134   0.383   1.692
  135SOL    HW1  857   1.086   0.438   1.754
  135SOL    HW2  858   1.221   0.421   1.687
  136SOL     OW  859   1.151   0.224   1.481
  136SOL    HW1  860   1.143   0.279   1.559
  136SOL    HW2  861   1.173   0.285   1.411
  137SOL     OW  862   0.010   1.326   0.188
  137SOL    HW1  863   3.915   1.340   0.185
  137SOL    HW2  864   0.019   1.235   0.219
  138SOL     OW  865   0.076   1.801   0.889
  138SOL    HW1  866   0.077   1.705   0.898
  138SOL    HW2  867   0.169   1.826   0.893
  139SOL     OW  868   0.504   1.570   0.910
  139SOL    HW1  869   0.573   1.631   0.935
  139SOL    HW2  870   0.547   1.507   0.853
  140SOL     OW  871   0.984   0.792   1.227
  140SOL    HW1  872   1.038   0.769   1.303
  140SOL    HW2  873   0.898   0.755   1.246
  141SOL     OW  874   0.037   0.567   1.113
  141SOL    HW1  875   0.102   0.518   1.063
  141SOL    HW2  876   0.061   0.554   1.204
  142SOL     OW  877   0.209   0.516   1.721
  142SOL    HW1  878   0.259   0.480   1.648
  142SOL    HW2  879   0.158   0.588   1.683
  143SOL     OW  880   1.376   0.940   1.659
  143SOL    HW1  881   1.398   1.033   1.657
  143SOL    HW2  882   1.374   0.914   1.566
  144SOL     OW  883   0.815   0.579   0.366
  144SOL    HW1  884   0.827   0.502   0.311
  144SOL    HW2  885   0.740   0.625   0.328
  145SOL     OW  886   1.642   0.602   1.187
  145SOL    HW1  887   1.632   0.541   1.260
  145SOL    HW2  888   1.729   0.583   1.153
  146SOL     OW  889   0.297   1.546   1.730
  146SOL    HW1  890   0.247   1.616   1.773
  146SOL    HW2  891   0.262   1.465   1.768
  147SOL     OW  892   0.700   0.457   1.261
  147SOL    HW1  893   0.653   0.378   1.234
  147SOL    HW2  894   0.694   0.515   1.185
  148SOL     OW  895   0.928   1.679   1.467
  148SOL    HW1  896   0.903   1.646   1.381
  148SOL    HW2  897   0.925   1.774   1.458
  149SOL     OW  898   0.440   0.494   0.229
  149SOL    HW1  899   0.510   0.559   0.239
  149SOL    HW2  900   0.365   0.545   0.198
  150SOL     OW  901   0.157   1.136   1.472
  150SOL    HW1  902   0.161   1.084   1.553
  150SOL    HW2  903   0.172   1.073   1.402
  151SOL     OW  904   1.327   1.048   1.224
  151SOL    HW1  905   1.351   0.985   1.156
  151SOL    HW2  906   1.256   1.099   1.185
  152SOL     OW  907   1.310   0.858   0.325
  152SOL    HW1  908   1.234   0.824   0.372
  152SOL    HW2  909   1.289   0.845   0.233
  153SOL     OW  910   1.760   1.742   1.148
  153SOL    HW1  911   1.827   1.770   1.086
  153SOL    HW2  912   1.742   1.651   1.125
  154SOL     OW  913   1.242   1.733   1.113
  154SOL    HW1  914   1.325   1.753   1.068
  154SOL    HW2  915   1.247   1.640   1.132
  155SOL     OW  916   0.076   1.217   1.027
  155SOL    HW1  917   0.082   1.242   1.119
  155SOL    HW2  918   3.983   1.224   1.007
  156SOL     OW  919   0.679   1.665   1.728
  156SOL    HW1  920   0.623   1.743   1.723
  156SOL    HW2  921   0.742   1.676   1.657
  157SOL     OW  922   0.904   0.105   0.138
  157SOL    HW1  923   0.941   0.089   0.051
  157SOL    HW2  924   0.913   0.021   0.184
  158SOL     OW  925   1.703   0.128   0.491
  158SOL    HW1  926   1.785   0.135   0.443
  158SOL    HW2  927   1.694   0.035   0.511
  159SOL     OW  928   1.389   1.572   0.483
  159SOL    HW1  929   1.445   1.609   0.414
  159SOL    HW2  930   1.340   1.647   0.516
  160SOL     OW  931   0.172   1.767   1.828
  160SOL    HW1  932   0.113   1.719   1.886
  160SOL    HW2  933   0.215   1.831   1.885
  161SOL     OW  934   1.276   0.926   0.671
  161SOL    HW1  935   1.350   0.865   0.679
  161SOL    HW2  936   1.310   0.998   0.619
  162SOL     OW  937   0.816   1.273   1.431
  162SOL    HW1  938   0.788   1.312   1.514
  162SOL    HW2  939   0.745   1.292   1.370
  163SOL     OW  940   0.677   1.582   0.183
  163SOL    HW1  941   0.664   1.618   0.095
  163SOL    HW2  942   0.629   1.500   0.184
  164SOL     OW  943   1.627   1.728   1.391
  164SOL    HW1  944   1.676   1.734   1.309
  164SOL    HW2  945   1.618   1.818   1.420
  165SOL     OW  946   1.838   0.176   0.968
  165SOL    HW1  947   1.870   0.102   0.915
  165SOL    HW2  948   1.751   0.194   0.933
  166SOL     OW  949   0.270   0.322   0.715
  166SOL    HW1  950   0.185   0.358   0.693
  166SOL    HW2  951   0.265   0.304   0.809
  167SOL     OW  952   1.215   1.603   0.033
  167SOL    HW1  953   1.205   1.512   0.061
  167SOL    HW2  954   1.179   1.604  13.844
  168SOL     OW  955   0.824   1.005   1.372
  168SOL    HW1  956   0.867   1.001   1.287
  168SOL    HW2  957   0.824   1.098   1.395
  169SOL     OW  958   0.920   0.910   0.287
  169SOL    HW1  959   0.991   0.948   0.235
  169SOL    HW2  960   0.961   0.839   0.335
  170SOL     OW  961   1.486   1.637   0.066
  170SOL    HW1  962   1.392   1.625   0.051
  170SOL    HW2  963   1.524   1.638  13.878
  171SOL     OW  964   0.373   1.302   1.491
  171SOL    HW1  965   0.358   1.383   1.441
  171SOL    HW2  966   0.296   1.248   1.474
  172SOL     OW  967   1.611   1.283   1.280
  172SOL    HW1  968   1.671   1.274   1.354
  172SOL    HW2  969   1.551   1.353   1.307
  173SOL     OW  970   1.050   1.106   0.705
  173SOL    HW1  971   0.980   1.055   0.745
  173SOL    HW2  972   1.113   1.041   0.674
  174SOL     OW  973   1.015   0.247   0.967
  174SOL    HW1  974   1.004   0.198   0.886
  174SOL    HW2  975   1.008   0.182   1.037
  175SOL     OW  976   0.604   1.489   0.483
  175SOL    HW1  977   0.646   1.438   0.414
  175SOL    HW2  978   0.535   1.538   0.438
  176SOL     OW  979   1.719   0.391   1.375
  176SOL    HW1  980   1.791   0.455   1.377
  176SOL    HW2  981   1.752   0.320   1.320
  177SOL     OW  982   0.262   1.318   0.306
  177SOL    HW1  983   0.186   1.349   0.257
  177SOL    HW2  984   0.259   1.368   0.388
  178SOL     OW  985   0.105   1.001   1.718
  178SOL    HW1  986   0.044   0.990   1.791
  178SOL    HW2  987   0.191   0.980   1.755
  179SOL     OW  988   0.693   0.244   1.496
  179SOL    HW1  989   0.763   0.192   1.456
  179SOL    HW2  990   0.719   0.251   1.588
  180SOL     OW  991   0.067   0.366   0.039
  180SOL    HW1  992   3.974   0.364   0.061
  180SOL    HW2  993   0.070   0.395  13.848
  181SOL     OW  994   1.430   0.858   1.400
  181SOL    HW1  995   1.382   0.919   1.345
  181SOL    HW2  996   1.520   0.860   1.367
  182SOL     OW  997   0.052   0.197   0.320
  182SOL    HW1  998   0.069   0.270   0.261
  182SOL    HW2  999   0.137   0.153   0.328
  183SOL     OW 1000   1.185   1.349   0.122
  183SOL    HW1 1001   1.092   1.330   0.111
  183SOL    HW2 1002   1.202   1.335   0.215
  184SOL     OW 1003   0.619   0.830   1.435
  184SOL    HW1 1004   0.675   0.906   1.419
  184SOL    HW2 1005   0.679   0.756   1.443
  185SOL     OW 1006   1.488   1.779   0.978
  185SOL    HW1 1007   1.512   1.841   0.909
  185SOL    HW2 1008   1.570   1.762   1.025
  186SOL     OW 1009   0.717   0.564   1.708
  186SOL    HW1 1010   0.758   0.627   1.767
  186SOL    HW2 1011   0.749   0.479   1.736
  187SOL     OW 1012   1.470   1.201   1.632
  187SOL    HW1 1013   1.458   1.215   1.726
  187SOL    HW2 1014   1.564   1.215   1.618
  188SOL     OW 1015   0.381   1.741   1.559
  188SOL    HW1 1016   0.293   1.779   1.546
  188SOL    HW2 1017   0.365   1.660   1.607
  189SOL     OW 1018   1.670   0.882   1.256
  189SOL    HW1 1019   1.664   0.796   1.213
  189SOL    HW2 1020   1.661   0.945   1.184
  190SOL     OW 1021   1.230   0.333   0.441
  190SOL    HW1 1022   1.294   0.262   0.436
  190SOL    HW2 1023   1.249   0.376   0.524
  191SOL     OW 1024   0.591   0.740   0.669
  191SOL    HW1 1025   0.628   0.826   0.651
  191SOL    HW2 1026   0.521   0.730   0.604
  192SOL     OW 1027   1.755   0.380   1.643
  192SOL    HW1 1028   1.737   0.385   1.549
  192SOL    HW2 1029   1.697   0.311   1.675
  193SOL     OW 1030   1.743   0.934   1.513
  193SOL    HW1 1031   1.743   1.029   1.525
  193SOL    HW2 1032   1.729   0.922   1.419
  194SOL     OW 1033   0.904   1.396   0.057
  194SOL    HW1 1034   0.833   1.380   0.119
  194SOL    HW2 1035   0.861   1.414  13.873
  195SOL     OW 1036   0.660   1.792   0.945
  195SOL    HW1 1037   0.639   1.882   0.922
  195SOL    HW2 1038   0.756   1.787   0.938
  196SOL     OW 1039   0.867   0.966   0.855
  196SOL    HW1 1040   0.917   0.895   0.895
  196SOL    HW2 1041   0.833   1.016   0.929
  197SOL     OW 1042   1.098   1.007   0.107
  197SOL    HW1 1043   1.086   1.054   0.025
  197SOL    HW2 1044   1.173   0.949   0.092
  198SOL     OW 1045   1.850   1.526   0.822
  198SOL    HW1 1046   1.762   1.534   0.785
  198SOL    HW2 1047   1.837   1.478   0.904
  199SOL     OW 1048   0.223   1.303   1.855
  199SOL    HW1 1049   0.153   1.243   1.830
  199SOL    HW2 1050   0.210   1.317   1.949
  200SOL     OW 1051   0.107   1.274   0.722
  200SOL    HW1 1052   0.120   1.222   0.801
  200SOL    HW2 1053   0.110   1.210   0.650
  201SOL     OW 1054   0.680   1.402   1.627
  201SOL    HW1 1055   0.600   1.359   1.657
  201SOL    HW2 1056   0.675   1.490   1.664
  202SOL     OW 1057   1.813   0.184   1.239
  202SOL    HW1 1058   1.816   0.089   1.253
  202SOL    HW2 1059   1.827   0.195   1.145
  203SOL     OW 1060   0.438   0.435   0.530
  203SOL    HW1 1061   0.466   0.362   0.476
  203SOL    HW2 1062   0.385   0.395   0.600
  204SOL     OW 1063   1.703   1.485   1.092
  204SOL    HW1 1064   1.620   1.464   1.051
  204SOL    HW2 1065   1.715   1.418   1.159
  205SOL     OW 1066   0.330   0.554   1.292
  205SOL    HW1 1067   0.386   0.498   1.345
  205SOL    HW2 1068   0.346   0.526   1.201
  206SOL     OW 1069   0.826   1.578   0.678
  206SOL    HW1 1070   0.817   1.630   0.598
  206SOL    HW2 1071   0.749   1.521   0.679
  207SOL     OW 1072   1.461   0.251   1.111
  207SOL    HW1 1073   1.477   0.164   1.147
  207SOL    HW2 1074   1.403   0.293   1.175
  208SOL     OW 1075   1.006   0.030   1.147
  208SOL    HW1 1076   0.930   3.980   1.117
  208SOL    HW2 1077   1.076   3.965   1.155
  209SOL     OW 1078   0.773   1.323   0.318
  209SOL    HW1 1079   0.740   1.235   0.333
  209SOL    HW2 1080   0.858   1.325   0.363
  210SOL     OW 1081   0.620   1.558   1.284
  210SOL    HW1 1082   0.623   1.639   1.335
  210SOL    HW2 1083   0.707   1.550   1.247
  211SOL     OW 1084   1.325   0.069   0.139
  211SOL    HW1 1085   1.348   3.993   0.086
  211SOL    HW2 1086   1.253   0.040   0.194
  212SOL     OW 1087   1.285   0.457   0.686
  212SOL    HW1 1088   1.237   0.540   0.684
  212SOL    HW2 1089   1.289   0.435   0.780
  213SOL     OW 1090   1.588   0.210   0.867
  213SOL    HW1 1091   1.538   0.232   0.946
  213SOL    HW2 1092   1.588   0.291   0.816
  214SOL     OW 1093   0.040   1.037   0.253
  214SOL    HW1 1094   0.135   1.025   0.250
  214SOL    HW2 1095   0.008   0.963   0.306
  215SOL     OW 1096   0.891   1.652   0.345
  215SOL    HW1 1097   0.819   1.622   0.291
  215SOL    HW2 1098   0.856   1.726   0.394
  216SOL     OW 1099   0.233   0.625   1.981
  216SOL    HW1 1100   0.140   0.630   2.003
  216SOL    HW2 1101   0.234   0.596   1.890
  217SOL     OW 1102   0.225   0.286   2.846
  217SOL    HW1 1103   0.249   0.250   2.931
  217SOL    HW2 1104   0.131   0.269   2.837
  218SOL     OW 1105   0.018   0.387   2.496
  218SOL    HW1 1106   3.930   0.397   2.532
  218SOL    HW2 1107   0.025   0.294   2.477
  219SOL     OW 1108   0.576   1.282   3.044
  219SOL    HW1 1109   0.489   1.286   3.004
  219SOL    HW2 1110   0.591   1.370   3.078
  220SOL     OW 1111   1.561   1.513   2.570
  220SOL    HW1 1112   1.518   1.494   2.653
  220SOL    HW2 1113   1.490   1.518   2.506
  221SOL     OW 1114   1.132   0.698   2.564
  221SOL    HW1 1115   1.180   0.780   2.550
  221SOL    HW2 1116   1.084   0.712   2.646
  222SOL     OW 1117   1.759   0.618   2.090
  222SOL    HW1 1118   1.742   0.609   1.997
  222SOL    HW2 1119   1.751   0.529   2.125
  223SOL     OW 1120   0.758   1.142   2.900
  223SOL    HW1 1121   0.691   1.176   2.960
  223SOL    HW2 1122   0.792   1.220   2.856
  224SOL     OW 1123   0.865   0.777   3.684
  224SOL    HW1 1124   0.854   0.849   3.746
  224SOL    HW2 1125   0.888   0.820   3.602
  225SOL     OW 1126   0.686   1.006   2.510
  225SOL    HW1 1127   0.751   0.992   2.579
  225SOL    HW2 1128   0.616   1.056   2.552
  226SOL     OW 1129   0.709   1.150   3.674
  226SOL    HW1 1130   0.757   1.229   3.699
  226SOL    HW2 1131   0.626   1.183   3.639
  227SOL     OW 1132   0.351   1.403   2.941
  227SOL    HW1 1133   0.269   1.386   2.894
  227SOL    HW2 1134   0.399   1.462   2.883
  228SOL     OW 1135   1.461   1.499   3.214
  228SOL    HW1 1136   1.510   1.581   3.223
  228SOL    HW2 1137   1.403   1.498   3.290
  229SOL     OW 1138   0.453   0.407   3.361
  229SOL    HW1 1139   0.533   0.355   3.357
  229SOL    HW2 1140   0.382   0.342   3.363
  230SOL     OW 1141   1.613   0.451   2.597
  230SOL    HW1 1142   1.540   0.482   2.543
  230SOL    HW2 1143   1.636   0.526   2.652
  231SOL     OW 1144   0.223   1.717   2.322
  231SOL    HW1 1145   0.241   1.792   2.379
  231SOL    HW2 1146   0.300   1.710   2.266
  232SOL     OW 1147   1.136   1.341   3.554
  232SOL    HW1 1148   1.177   1.337   3.641
  232SOL    HW2 1149   1.084   1.261   3.548
  233SOL     OW 1150   0.245   1.447   2.401
  233SOL    HW1 1151   0.214   1.537   2.389
  233SOL    HW2 1152   0.177   1.405   2.453
  234SOL     OW 1153   0.246   1.070   2.747
  234SOL    HW1 1154   0.264   0.985   2.789
  234SOL    HW2 1155   0.194   1.118   2.811
  235SOL     OW 1156   0.614   1.791   3.292
  235SOL    HW1 1157   0.531   1.773   3.337
  235SOL    HW2 1158   0.636   1.881   3.317
  236SOL     OW 1159   0.582   0.983   1.997
  236SOL    HW1 1160   0.628   1.030   1.928
  236SOL    HW2 1161   0.625   1.012   2.078
  237SOL     OW 1162   1.578   0.136   3.319
  237SOL    HW1 1163   1.603   0.210   3.264
  237SOL    HW2 1164   1.555   0.176   3.403
  238SOL     OW 1165   0.138   0.649   2.431
  238SOL    HW1 1166   0.094   0.564   2.437
  238SOL    HW2 1167   0.102   0.699   2.504
  239SOL     OW 1168   0.043   1.591   2.002
  239SOL    HW1 1169   0.032   1.498   2.023
  239SOL    HW2 1170   3.965   1.633   2.036
  240SOL     OW 1171   1.687   0.917   2.501
  240SOL    HW1 1172   1.773   0.878   2.483
  240SOL    HW2 1173   1.668   0.969   2.423
  241SOL     OW 1174   1.646   1.108   2.292
  241SOL    HW1 1175   1.732   1.114   2.250
  241SOL    HW2 1176   1.651   1.168   2.366
  242SOL     OW 1177   0.134   0.753   3.452
  242SOL    HW1 1178   0.230   0.747   3.455
  242SOL    HW2 1179   0.115   0.846   3.470
  243SOL     OW 1180   0.612   1.384   2.598
  243SOL    HW1 1181   0.566   1.301   2.607
  243SOL    HW2 1182   0.596   1.410   2.507
  244SOL     OW 1183   1.289   1.238   3.286
  244SOL    HW1 1184   1.322   1.171   3.226
  244SOL    HW2 1185   1.346   1.232   3.362
  245SOL     OW 1186   0.816   0.002   2.376
  245SOL    HW1 1187   0.862   0.083   2.355
  245SOL    HW2 1188   0.724   0.025   2.378
  246SOL     OW 1189   0.186   0.954   3.137
  246SOL    HW1 1190   0.274   0.919   3.123
  246SOL    HW2 1191   0.131   0.908   3.074
  247SOL     OW 1192   1.532   0.993   2.060
  247SOL    HW1 1193   1.462   0.935   2.091
  247SOL    HW2 1194   1.572   1.027   2.139
  248SOL     OW 1195   1.185   1.805   3.484
  248SOL    HW1 1196   1.198   1.863   3.409
  248SOL    HW2 1197   1.201   1.717   3.449
  249SOL     OW 1198   0.340   0.254   3.686
  249SOL    HW1 1199   0.385   0.338   3.674
  249SOL    HW2 1200   0.250   0.278   3.708
  250SOL     OW 1201   1.465   1.420   2.814
  250SOL    HW1 1202   1.397   1.434   2.880
  250SOL    HW2 1203   1.453   1.329   2.787
  251SOL     OW 1204   1.669   1.727   2.422
  251SOL    HW1 1205   1.629   1.694   2.342
  251SOL    HW2 1206   1.646   1.662   2.489
  252SOL     OW 1207   0.596   0.719   2.125
  252SOL    HW1 1208   0.603   0.802   2.078
  252SOL    HW2 1209   0.533   0.737   2.195
  253SOL     OW 1210   1.276   0.363   2.802
  253SOL    HW1 1211   1.189   0.324   2.807
  253SOL    HW2 1212   1.333   0.302   2.849
  254SOL     OW 1213   1.577   1.668   2.164
  254SOL    HW1 1214   1.660   1.711   2.146
  254SOL    HW2 1215   1.543   1.644   2.077
  255SOL     OW 1216   0.795   0.616   3.317
  255SOL    HW1 1217   0.765   0.592   3.404
  255SOL    HW2 1218   0.754   0.552   3.259
  256SOL     OW 1219   1.393   0.477   3.539
  256SOL    HW1 1220   1.396   0.521   3.624
  256SOL    HW2 1221   1.453   0.403   3.548
  257SOL     OW 1222   0.956   0.888   3.444
  257SOL    HW1 1223   1.010   0.818   3.409
  257SOL    HW2 1224   0.908   0.921   3.368
  258SOL     OW 1225   0.991   0.404   3.103
  258SOL    HW1 1226   0.908   0.429   3.145
  258SOL    HW2 1227   0.965   0.371   3.017
  259SOL     OW 1228   1.051   0.699   2.288
  259SOL    HW1 1229   1.065   0.691   2.383
  259SOL    HW2 1230   0.969   0.652   2.273
  260SOL     OW 1231   0.081   0.824   2.653
  260SOL    HW1 1232   0.160   0.794   2.698
  260SOL    HW2 1233   0.092   0.919   2.646
  261SOL     OW 1234   0.129   1.855   3.435
  261SOL    HW1 1235   0.137   1.822   3.524
  261SOL    HW2 1236   0.037   1.843   3.412
  262SOL     OW 1237   0.891   0.350   2.060
  262SOL    HW1 1238   0.933   0.409   1.997
  262SOL    HW2 1239   0.894   0.264   2.018
  263SOL     OW 1240   1.711   0.576   3.690
  263SOL    HW1 1241   1.672   0.650   3.644
  263SOL    HW2 1242   1.735   0.514   3.621
  264SOL     OW 1243   1.376   1.142   2.403
  264SOL    HW1 1244   1.455   1.129   2.351
  264SOL    HW2 1245   1.324   1.204   2.353
  265SOL     OW 1246   0.559   0.195   2.744
  265SOL    HW1 1247   0.562   0.216   2.837
  265SOL    HW2 1248   0.548   0.279   2.701
  266SOL     OW 1249   1.007   1.445   2.335
  266SOL    HW1 1250   0.968   1.517   2.286
  266SOL    HW2 1251   0.991   1.467   2.426
  267SOL     OW 1252   0.364   1.812   2.728
  267SOL    HW1 1253   0.429   1.742   2.733
  267SOL    HW2 1254   0.415   1.892   2.743
  268SOL     OW 1255   1.799   1.056   2.730
  268SOL    HW1 1256   1.743   1.042   2.654
  268SOL    HW2 1257   1.737   1.062   2.804
  269SOL     OW 1258   1.228   1.539   3.375
  269SOL    HW1 1259   1.214   1.466   3.435
  269SOL    HW2 1260   1.166   1.523   3.304
  270SOL     OW 1261   0.310   0.955   2.104
  270SOL    HW1 1262   0.395   0.978   2.066
  270SOL    HW2 1263   0.296   0.864   2.078
  271SOL     OW 1264   1.476   0.742   2.592
  271SOL    HW1 1265   1.469   0.698   2.677
  271SOL    HW2 1266   1.554   0.797   2.601
  272SOL     OW 1267   0.465   1.260   3.599
  272SOL    HW1 1268   0.439   1.268   3.507
  272SOL    HW2 1269   0.383   1.265   3.648
  273SOL     OW 1270   1.121   1.777   2.094
  273SOL    HW1 1271   1.048   1.735   2.140
  273SOL    HW2 1272   1.143   1.716   2.023
  274SOL     OW 1273   0.199   0.296   3.360
  274SOL    HW1 1274   0.106   0.317   3.357
  274SOL    HW2 1275   0.206   0.232   3.431
  275SOL     OW 1276   1.628   1.378   1.949
  275SOL    HW1 1277   1.588   1.464   1.933
  275SOL    HW2 1278   1.559   1.315   1.930
  276SOL     OW 1279   0.466   1.739   2.181
  276SOL    HW1 1280   0.508   1.797   2.245
  276SOL    HW2 1281   0.539   1.708   2.126
  277SOL     OW 1282   1.437   0.159   2.267
  277SOL    HW1 1283   1.396   0.094   2.210
  277SOL    HW2 1284   1.514   0.114   2.302
  278SOL     OW 1285   0.250   1.792   3.094
  278SOL    HW1 1286   0.299   1.730   3.148
  278SOL    HW2 1287   0.245   1.750   3.009
  279SOL     OW 1288   0.937   1.698   2.762
  279SOL    HW1 1289   1.016   1.647   2.782
  279SOL    HW2 1290   0.893   1.649   2.693
  280SOL     OW 1291   0.394   0.694   2.335
  280SOL    HW1 1292   0.421   0.604   2.348
  280SOL    HW2 1293   0.302   0.696   2.361
  281SOL     OW 1294   1.531   0.232   3.589
  281SOL    HW1 1295   1.531   0.256   3.681
  281SOL    HW2 1296   1.501   0.141   3.587
  282SOL     OW 1297   0.642   0.136   1.963
  282SOL    HW1 1298   0.674   0.057   2.005
  282SOL    HW2 1299   0.580   0.104   1.897
  283SOL     OW 1300   0.778   0.282   3.625
  283SOL    HW1 1301   0.843   0.212   3.631
  283SOL    HW2 1302   0.717   0.264   3.696
  284SOL     OW 1303   0.876   1.521   3.056
  284SOL    HW1 1304   0.861   1.485   2.968
  284SOL    HW2 1305   0.946   1.467   3.093
  285SOL     OW 1306   1.342   0.587   3.292
  285SOL    HW1 1307   1.372   0.558   3.378
  285SOL    HW2 1308   1.376   0.676   3.284
  286SOL     OW 1309   0.814   1.396   2.799
  286SOL    HW1 1310   0.899   1.385   2.756
  286SOL    HW2 1311   0.750   1.395   2.728
  287SOL     OW 1312   0.929   0.511   2.764
  287SOL    HW1 1313   0.905   0.503   2.672
  287SOL    HW2 1314   0.957   0.423   2.790
  288SOL     OW 1315   0.546   0.057   2.353
  288SOL    HW1 1316   0.471   0.064   2.412
  288SOL    HW2 1317   0.548   0.141   2.307
  289SOL     OW 1318   1.428   1.198   1.903
  289SOL    HW1 1319   1.458   1.122   1.953
  289SOL    HW2 1320   1.342   1.218   1.940
  290SOL     OW 1321   0.334   0.045   2.057
  290SOL    HW1 1322   0.363   0.087   1.976
  290SOL    HW2 1323   0.414   0.026   2.105
  291SOL     OW 1324   0.938   0.247   2.326
  291SOL    HW1 1325   0.911   0.288   2.245
  291SOL    HW2 1326   1.034   0.248   2.323
  292SOL     OW 1327   1.079   0.681   3.321
  292SOL    HW1 1328   1.008   0.617   3.328
  292SOL    HW2 1329   1.159   0.627   3.316
  293SOL     OW 1330   1.224   1.570   2.656
  293SOL    HW1 1331   1.241   1.637   2.590
  293SOL    HW2 1332   1.292   1.582   2.722
  294SOL     OW 1333   0.466   1.149   2.601
  294SOL    HW1 1334   0.393   1.126   2.659
  294SOL    HW2 1335   0.433   1.133   2.513
  295SOL     OW 1336   1.268   1.794   2.468
  295SOL    HW1 1337   1.312   1.856   2.411
  295SOL    HW2 1338   1.204   1.846   2.515
  296SOL     OW 1339   1.025   0.547   1.885
  296SOL    HW1 1340   0.981   0.630   1.866
  296SOL    HW2 1341   1.087   0.568   1.954
  297SOL     OW 1342   0.079   0.570   3.255
  297SOL    HW1 1343   0.168   0.553   3.224
  297SOL    HW2 1344   0.088   0.641   3.318
  298SOL     OW 1345   0.572   0.232   3.022
  298SOL    HW1 1346   0.596   0.139   3.032
  298SOL    HW2 1347   0.481   0.236   3.052
  299SOL     OW 1348   0.872   0.462   2.501
  299SOL    HW1 1349   0.820   0.513   2.439
  299SOL    HW2 1350   0.890   0.380   2.455
  300SOL     OW 1351   0.994   0.042   2.641
  300SOL    HW1 1352   0.961   0.066   2.554
  300SOL    HW2 1353   1.005   3.947   2.637
  301SOL     OW 1354   1.437   1.163   2.720
  301SOL    HW1 1355   1.368   1.096   2.717
  301SOL    HW2 1356   1.461   1.175   2.628
  302SOL     OW 1357   1.467   0.604   2.841
  302SOL    HW1 1358   1.416   0.523   2.846
  302SOL    HW2 1359   1.527   0.599   2.914
  303SOL     OW 1360   1.847   0.820   2.246
  303SOL    HW1 1361   1.902   0.767   2.303
  303SOL    HW2 1362   1.815   0.759   2.179
  304SOL     OW 1363   0.489   1.416   2.024
  304SOL    HW1 1364   0.414   1.385   2.074
  304SOL    HW2 1365   0.469   1.394   1.933
  305SOL     OW 1366   1.669   1.265   2.509
  305SOL    HW1 1367   1.764   1.268   2.522
  305SOL    HW2 1368   1.639   1.354   2.531
  306SOL     OW 1369   1.394   0.573   1.932
  306SOL    HW1 1370   1.333   0.554   2.003
  306SOL    HW2 1371   1.480   0.552   1.969
  307SOL     OW 1372   0.558   0.270   2.183
  307SOL    HW1 1373   0.598   0.229   2.106
  307SOL    HW2 1374   0.529   0.356   2.151
  308SOL     OW 1375   1.753   1.238   3.437
  308SOL    HW1 1376   1.840   1.199   3.433
  308SOL    HW2 1377   1.768   1.328   3.465
  309SOL     OW 1378   1.059   1.354   3.196
  309SOL    HW1 1379   0.984   1.322   3.247
  309SOL    HW2 1380   1.135   1.312   3.237
  310SOL     OW 1381   1.606   1.625   3.514
  310SOL    HW1 1382   1.602   1.661   3.426
  310SOL    HW2 1383   1.690   1.579   3.518
  311SOL     OW 1384   1.128   1.203   2.968
  311SOL    HW1 1385   1.069   1.241   3.033
  311SOL    HW2 1386   1.094   1.234   2.884
  312SOL     OW 1387   1.629   1.099   2.940
  312SOL    HW1 1388   1.624   1.161   3.013
  312SOL    HW2 1389   1.550   1.116   2.889
  313SOL     OW 1390   0.914   0.110   3.264
  313SOL    HW1 1391   0.933   0.086   3.173
  313SOL    HW2 1392   0.994   0.153   3.295
  314SOL     OW 1393   0.984   1.115   3.585
  314SOL    HW1 1394   0.892   1.130   3.605
  314SOL    HW2 1395   0.983   1.037   3.529
  315SOL     OW 1396   0.708   1.060   2.233
  315SOL    HW1 1397   0.694   1.046   2.327
  315SOL    HW2 1398   0.784   1.007   2.211
  316SOL     OW 1399   0.420   0.815   3.114
  316SOL    HW1 1400   0.489   0.822   3.180
  316SOL    HW2 1401   0.385   0.727   3.124
  317SOL     OW 1402   1.266   0.375   3.137
  317SOL    HW1 1403   1.301   0.453   3.182
  317SOL    HW2 1404   1.180   0.402   3.106
  318SOL     OW 1405   0.064   1.579   3.207
  318SOL    HW1 1406   0.066   1.647   3.139
  318SOL    HW2 1407   0.156   1.566   3.230
  319SOL     OW 1408   0.376   1.103   2.348
  319SOL    HW1 1409   0.367   1.180   2.292
  319SOL    HW2 1410   0.373   1.028   2.287
  320SOL     OW 1411   0.556   0.538   2.722
  320SOL    HW1 1412   0.572   0.595   2.647
  320SOL    HW2 1413   0.620   0.565   2.787
  321SOL     OW 1414   1.248   1.348   2.251
  321SOL    HW1 1415   1.303   1.419   2.283
  321SOL    HW2 1416   1.161   1.369   2.285
  322SOL     OW 1417   1.279   1.457   3.009
  322SOL    HW1 1418   1.335   1.460   3.086
  322SOL    HW2 1419   1.224   1.379   3.021
  323SOL     OW 1420   1.579   0.632   2.346
  323SOL    HW1 1421   1.538   0.692   2.407
  323SOL    HW2 1422   1.625   0.688   2.284
  324SOL     OW 1423   0.346   1.525   3.182
  324SOL    HW1 1424   0.336   1.475   3.101
  324SOL    HW2 1425   0.440   1.541   3.189
  325SOL     OW 1426   0.412   0.740   3.463
  325SOL    HW1 1427   0.473   0.786   3.406
  325SOL    HW2 1428   0.453   0.654   3.477
  326SOL     OW 1429   1.600   0.778   3.544
  326SOL    HW1 1430   1.514   0.819   3.536
  326SOL    HW2 1431   1.652   0.819   3.475
  327SOL     OW 1432   1.019   0.122   3.639
  327SOL    HW1 1433   1.057   0.200   3.598
  327SOL    HW2 1434   1.009   0.060   3.567
  328SOL     OW 1435   0.479   0.036   3.629
  328SOL    HW1 1436   0.492   0.040   3.534
  328SOL    HW2 1437   0.419   0.108   3.648
  329SOL     OW 1438   0.584   0.873   2.893
  329SOL    HW1 1439   0.614   0.964   2.892
  329SOL    HW2 1440   0.528   0.867   2.970
  330SOL     OW 1441   1.359   0.859   2.893
  330SOL    HW1 1442   1.276   0.850   2.845
  330SOL    HW2 1443   1.398   0.771   2.889
  331SOL     OW 1444   1.205   0.534   2.125
  331SOL    HW1 1445   1.213   0.455   2.178
  331SOL    HW2 1446   1.161   0.597   2.183
  332SOL     OW 1447   0.313   0.214   3.103
  332SOL    HW1 1448   0.272   0.248   3.183
  332SOL    HW2 1449   0.294   0.120   3.105
  333SOL     OW 1450   0.057   1.305   3.142
  333SOL    HW1 1451   0.090   1.265   3.223
  333SOL    HW2 1452   0.050   1.398   3.162
  334SOL     OW 1453   0.727   0.634   2.919
  334SOL    HW1 1454   0.799   0.617   2.859
  334SOL    HW2 1455   0.698   0.723   2.896
  335SOL     OW 1456   1.734   0.959   3.714
  335SOL    HW1 1457   1.687   0.900   3.655
  335SOL    HW2 1458   1.675   0.972   3.788
  336SOL     OW 1459   0.325   0.056   2.510
  336SOL    HW1 1460   0.297   0.147   2.512
  336SOL    HW2 1461   0.286   0.017   2.588
  337SOL     OW 1462   1.601   0.387   2.245
  337SOL    HW1 1463   1.576   0.319   2.308
  337SOL    HW2 1464   1.581   0.469   2.289
  338SOL     OW 1465   1.028   0.760   2.823
  338SOL    HW1 1466   1.025   0.777   2.917
  338SOL    HW2 1467   1.001   0.668   2.814
  339SOL     OW 1468   0.982   1.566   3.578
  339SOL    HW1 1469   0.967   1.610   3.495
  339SOL    HW2 1470   1.026   1.484   3.554
  340SOL     OW 1471   1.855   1.506   3.467
  340SOL    HW1 1472   1.870   1.535   3.377
  340SOL    HW2 1473   1.939   1.520   3.512
  341SOL     OW 1474   0.351   0.920   3.663
  341SOL    HW1 1475   0.430   0.940   3.713
  341SOL    HW2 1476   0.379   0.854   3.599
  342SOL     OW 1477   1.510   0.276   1.998
  342SOL    HW1 1478   1.434   0.219   2.011
  342SOL    HW2 1479   1.524   0.317   2.084
  343SOL     OW 1480   1.292   0.827   1.893
  343SOL    HW1 1481   1.334   0.741   1.896
  343SOL    HW2 1482   1.324   0.866   1.812
  344SOL     OW 1483   1.064   1.335   2.715
  344SOL    HW1 1484   1.068   1.263   2.653
  344SOL    HW2 1485   1.127   1.399   2.681
  345SOL     OW 1486   0.313   0.806   2.813
  345SOL    HW1 1487   0.407   0.823   2.807
  345SOL    HW2 1488   0.307   0.716   2.845
  346SOL     OW 1489   0.337   0.527   2.875
  346SOL    HW1 1490   0.298   0.442   2.857
  346SOL    HW2 1491   0.413   0.531   2.816
  347SOL     OW 1492   1.134   0.383   3.554
  347SOL    HW1 1493   1.086   0.438   3.616
  347SOL    HW2 1494   1.221   0.421   3.549
  348SOL     OW 1495   1.151   0.224   3.343
  348SOL    HW1 1496   1.143   0.279   3.421
  348SOL    HW2 1497   1.173   0.285   3.273
  349SOL     OW 1498   3.999   1.320   2.044
  349SOL    HW1 1499   3.905   1.336   2.048
  349SOL    HW2 1500   0.009   1.227   2.064
  350SOL     OW 1501   0.076   1.801   2.752
  350SOL    HW1 1502   0.077   1.705   2.760
  350SOL    HW2 1503   0.168   1.826   2.755
  351SOL     OW 1504   0.504   1.570   2.772
  351SOL    HW1 1505   0.573   1.631   2.797
  351SOL    HW2 1506   0.547   1.507   2.715
  352SOL     OW 1507   0.984   0.792   3.089
  352SOL    HW1 1508   1.038   0.769   3.165
  352SOL    HW2 1509   0.898   0.755   3.108
  353SOL     OW 1510   0.036   0.566   2.975
  353SOL    HW1 1511   0.103   0.519   2.925
  353SOL    HW2 1512   0.061   0.554   3.067
  354SOL     OW 1513   0.209   0.516   3.583
  354SOL    HW1 1514   0.259   0.481   3.510
  354SOL    HW2 1515   0.159   0.588   3.545
  355SOL     OW 1516   1.376   0.940   3.521
  355SOL    HW1 1517   1.398   1.033   3.519
  355SOL    HW2 1518   1.374   0.914   3.428
  356SOL     OW 1519   0.817   0.572   2.219
  356SOL    HW1 1520   0.822   0.494   2.163
  356SOL    HW2 1521   0.742   0.621   2.187
  357SOL     OW 1522   1.642   0.602   3.049
  357SOL    HW1 1523   1.632   0.541   3.123
  357SOL    HW2 1524   1.729   0.583   3.014
  358SOL     OW 1525   0.297   1.546   3.592
  358SOL    HW1 1526   0.247   1.616   3.635
  358SOL    HW2 1527   0.262   1.465   3.630
  359SOL     OW 1528   0.700   0.457   3.123
  359SOL    HW1 1529   0.653   0.378   3.096
  359SOL    HW2 1530   0.694   0.516   3.047
  360SOL     OW 1531   0.928   1.679   3.329
  360SOL    HW1 1532   0.903   1.646   3.243
  360SOL    HW2 1533   0.925   1.774   3.320
  361SOL     OW 1534   0.458   0.492   2.056
  361SOL    HW1 1535   0.522   0.561   2.073
  361SOL    HW2 1536   0.377   0.539   2.036
  362SOL     OW 1537   0.157   1.136   3.334
  362SOL    HW1 1538   0.161   1.085   3.415
  362SOL    HW2 1539   0.172   1.073   3.264
  363SOL     OW 1540   1.327   1.048   3.086
  363SOL    HW1 1541   1.351   0.985   3.018
  363SOL    HW2 1542   1.256   1.099   3.047
  364SOL     OW 1543   1.311   0.856   2.169
  364SOL    HW1 1544   1.234   0.827   2.218
  364SOL    HW2 1545   1.286   0.843   2.077
  365SOL     OW 1546   1.757   1.742   3.008
  365SOL    HW1 1547   1.826   1.769   2.948
  365SOL    HW2 1548   1.740   1.651   2.986
  366SOL     OW 1549   1.243   1.734   2.976
  366SOL    HW1 1550   1.325   1.753   2.930
  366SOL    HW2 1551   1.247   1.640   2.994
  367SOL     OW 1552   0.076   1.218   2.889
  367SOL    HW1 1553   0.082   1.243   2.981
  367SOL    HW2 1554   3.983   1.224   2.868
  368SOL     OW 1555   0.679   1.665   3.590
  368SOL    HW1 1556   0.623   1.743   3.585
  368SOL    HW2 1557   0.742   1.676   3.519
  369SOL     OW 1558   1.710   0.128   2.348
  369SOL    HW1 1559   1.791   0.133   2.296
  369SOL    HW2 1560   1.701   0.035   2.369
  370SOL     OW 1561   1.390   1.567   2.347
  370SOL    HW1 1562   1.447   1.599   2.277
  370SOL    HW2 1563   1.341   1.645   2.375
  371SOL     OW 1564   0.172   1.767   3.690
  371SOL    HW1 1565   0.113   1.719   3.748
  371SOL    HW2 1566   0.215   1.831   3.747
  372SOL     OW 1567   1.277   0.926   2.533
  372SOL    HW1 1568   1.351   0.865   2.540
  372SOL    HW2 1569   1.311   0.998   2.481
  373SOL     OW 1570   0.816   1.272   3.293
  373SOL    HW1 1571   0.788   1.312   3.376
  373SOL    HW2 1572   0.745   1.292   3.232
  374SOL     OW 1573   0.671   1.618   2.017
  374SOL    HW1 1574   0.681   1.629   1.923
  374SOL    HW2 1575   0.617   1.540   2.027
  375SOL     OW 1576   1.627   1.728   3.253
  375SOL    HW1 1577   1.676   1.734   3.171
  375SOL    HW2 1578   1.618   1.818   3.282
  376SOL     OW 1579   1.838   0.176   2.830
  376SOL    HW1 1580   1.869   0.102   2.777
  376SOL    HW2 1581   1.751   0.195   2.796
  377SOL     OW 1582   0.272   0.324   2.577
  377SOL    HW1 1583   0.187   0.359   2.553
  377SOL    HW2 1584   0.265   0.306   2.671
  378SOL     OW 1585   1.206   1.607   1.893
  378SOL    HW1 1586   1.197   1.515   1.920
  378SOL    HW2 1587   1.141   1.618   1.824
  379SOL     OW 1588   0.824   1.005   3.234
  379SOL    HW1 1589   0.867   1.001   3.149
  379SOL    HW2 1590   0.824   1.098   3.257
  380SOL     OW 1591   0.915   0.910   2.151
  380SOL    HW1 1592   0.977   0.942   2.086
  380SOL    HW2 1593   0.962   0.840   2.197
  381SOL     OW 1594   1.491   1.623   1.903
  381SOL    HW1 1595   1.396   1.619   1.888
  381SOL    HW2 1596   1.528   1.630   1.815
  382SOL     OW 1597   0.373   1.302   3.353
  382SOL    HW1 1598   0.358   1.383   3.304
  382SOL    HW2 1599   0.296   1.248   3.336
  383SOL     OW 1600   1.611   1.283   3.142
  383SOL    HW1 1601   1.671   1.274   3.216
  383SOL    HW2 1602   1.551   1.353   3.169
  384SOL     OW 1603   1.050   1.107   2.568
  384SOL    HW1 1604   0.980   1.055   2.607
  384SOL    HW2 1605   1.112   1.041   2.536
  385SOL     OW 1606   1.015   0.247   2.830
  385SOL    HW1 1607   1.004   0.198   2.748
  385SOL    HW2 1608   1.008   0.182   2.899
  386SOL     OW 1609   0.604   1.489   2.344
  386SOL    HW1 1610   0.646   1.438   2.275
  386SOL    HW2 1611   0.534   1.537   2.300
  387SOL     OW 1612   1.719   0.391   3.237
  387SOL    HW1 1613   1.791   0.455   3.239
  387SOL    HW2 1614   1.752   0.320   3.182
  388SOL     OW 1615   0.253   1.342   2.153
  388SOL    HW1 1616   0.160   1.352   2.133
  388SOL    HW2 1617   0.262   1.380   2.240
  389SOL     OW 1618   0.105   1.001   3.580
  389SOL    HW1 1619   0.044   0.990   3.653
  389SOL    HW2 1620   0.191   0.980   3.617
  390SOL     OW 1621   0.693   0.244   3.358
  390SOL    HW1 1622   0.763   0.192   3.318
  390SOL    HW2 1623   0.719   0.251   3.450
  391SOL     OW 1624   0.088   0.326   1.890
  391SOL    HW1 1625   3.992   0.321   1.885
  391SOL    HW2 1626   0.110   0.408   1.846
  392SOL     OW 1627   1.430   0.857   3.262
  392SOL    HW1 1628   1.382   0.919   3.207
  392SOL    HW2 1629   1.520   0.860   3.229
  393SOL     OW 1630   0.039   0.162   2.145
  393SOL    HW1 1631   0.037   0.243   2.093
  393SOL    HW2 1632   0.120   0.168   2.196
  394SOL     OW 1633   1.179   1.340   1.979
  394SOL    HW1 1634   1.088   1.310   1.982
  394SOL    HW2 1635   1.207   1.340   2.070
  395SOL     OW 1636   0.619   0.830   3.297
  395SOL    HW1 1637   0.675   0.906   3.281
  395SOL    HW2 1638   0.680   0.756   3.305
  396SOL     OW 1639   1.488   1.779   2.840
  396SOL    HW1 1640   1.512   1.841   2.772
  396SOL    HW2 1641   1.570   1.762   2.887
  397SOL     OW 1642   0.716   0.564   3.570
  397SOL    HW1 1643   0.758   0.627   3.629
  397SOL    HW2 1644   0.749   0.479   3.598
  398SOL     OW 1645   1.470   1.201   3.494
  398SOL    HW1 1646   1.458   1.215   3.588
  398SOL    HW2 1647   1.564   1.215   3.480
  399SOL     OW 1648   0.381   1.741   3.421
  399SOL    HW1 1649   0.293   1.779   3.408
  399SOL    HW2 1650   0.365   1.660   3.469
  400SOL     OW 1651   1.670   0.882   3.118
  400SOL    HW1 1652   1.664   0.796   3.075
  400SOL    HW2 1653   1.661   0.945   3.047
  401SOL     OW 1654   1.225   0.333   2.308
  401SOL    HW1 1655   1.291   0.265   2.300
  401SOL    HW2 1656   1.247   0.378   2.389
  402SOL     OW 1657   0.592   0.740   2.531
  402SOL    HW1 1658   0.629   0.826   2.514
  402SOL    HW2 1659   0.522   0.731   2.466
  403SOL     OW 1660   1.755   0.380   3.505
  403SOL    HW1 1661   1.737   0.385   3.411
  403SOL    HW2 1662   1.696   0.311   3.537
  404SOL     OW 1663   1.744   0.934   3.375
  404SOL    HW1 1664   1.743   1.029   3.387
  404SOL    HW2 1665   1.729   0.922   3.281
  405SOL     OW 1666   0.862   1.368   1.894
  405SOL    HW1 1667   0.823   1.395   1.978
  405SOL    HW2 1668   0.881   1.449   1.849
  406SOL     OW 1669   0.660   1.792   2.807
  406SOL    HW1 1670   0.639   1.882   2.784
  406SOL    HW2 1671   0.756   1.787   2.800
  407SOL     OW 1672   0.867   0.966   2.717
  407SOL    HW1 1673   0.917   0.895   2.757
  407SOL    HW2 1674   0.833   1.016   2.791
  408SOL     OW 1675   1.079   0.988   1.951
  408SOL    HW1 1676   1.058   1.039   1.872
  408SOL    HW2 1677   1.154   0.935   1.925
  409SOL     OW 1678   1.848   1.534   2.687
  409SOL    HW1 1679   1.761   1.534   2.647
  409SOL    HW2 1680   1.839   1.480   2.765
  410SOL     OW 1681   0.223   1.303   3.717
  410SOL    HW1 1682   0.153   1.243   3.692
  410SOL    HW2 1683   0.210   1.317   3.811
  411SOL     OW 1684   0.114   1.274   2.578
  411SOL    HW1 1685   0.121   1.223   2.659
  411SOL    HW2 1686   0.111   1.208   2.508
  412SOL     OW 1687   0.680   1.402   3.489
  412SOL    HW1 1688   0.600   1.359   3.519
  412SOL    HW2 1689   0.675   1.490   3.526
  413SOL     OW 1690   1.813   0.184   3.101
  413SOL    HW1 1691   1.816   0.089   3.115
  413SOL    HW2 1692   1.827   0.195   3.007
  414SOL     OW 1693   0.442   0.436   2.392
  414SOL    HW1 1694   0.454   0.361   2.333
  414SOL    HW2 1695   0.386   0.402   2.463
  415SOL     OW 1696   1.703   1.485   2.955
  415SOL    HW1 1697   1.620   1.463   2.913
  415SOL    HW2 1698   1.714   1.417   3.022
  416SOL     OW 1699   0.330   0.554   3.153
  416SOL    HW1 1700   0.386   0.498   3.207
  416SOL    HW2 1701   0.346   0.526   3.063
  417SOL     OW 1702   0.826   1.578   2.540
  417SOL    HW1 1703   0.817   1.630   2.460
  417SOL    HW2 1704   0.749   1.522   2.541
  418SOL     OW 1705   1.461   0.251   2.973
  418SOL    HW1 1706   1.477   0.164   3.010
  418SOL    HW2 1707   1.403   0.293   3.037
  419SOL     OW 1708   1.006   0.030   3.010
  419SOL    HW1 1709   0.930   3.980   2.979
  419SOL    HW2 1710   1.076   3.965   3.017
  420SOL     OW 1711   0.771   1.332   2.175
  420SOL    HW1 1712   0.739   1.242   2.181
  420SOL    HW2 1713   0.854   1.332   2.224
  421SOL     OW 1714   0.620   1.558   3.146
  421SOL    HW1 1715   0.623   1.639   3.197
  421SOL    HW2 1716   0.707   1.550   3.109
  422SOL     OW 1717   1.315   0.074   2.025
  422SOL    HW1 1718   1.335   0.005   1.962
  422SOL    HW2 1719   1.230   0.050   2.062
  423SOL     OW 1720   1.286   0.458   2.549
  423SOL    HW1 1721   1.237   0.540   2.546
  423SOL    HW2 1722   1.289   0.436   2.642
  424SOL     OW 1723   1.588   0.211   2.729
  424SOL    HW1 1724   1.538   0.233   2.808
  424SOL    HW2 1725   1.588   0.291   2.677
  425SOL     OW 1726   0.045   1.052   2.102
  425SOL    HW1 1727   0.139   1.035   2.093
  425SOL    HW2 1728   0.010   0.972   2.141
  426SOL     OW 1729   0.883   1.652   2.205
  426SOL    HW1 1730   0.811   1.634   2.145
  426SOL    HW2 1731   0.854   1.727   2.256
  427SOL     OW 1732   0.233   0.625   3.843
  427SOL    HW1 1733   0.140   0.630   3.865
  427SOL    HW2 1734   0.234   0.596   3.752
  428SOL     OW 1735   0.225   0.286   4.708
  428SOL    HW1 1736   0.249   0.250   4.793
  428SOL    HW2 1737   0.131   0.269   4.699
  429SOL     OW 1738   0.018   0.387   4.358
  429SOL    HW1 1739   3.930   0.397   4.394
  429SOL    HW2 1740   0.025   0.294   4.339
  430SOL     OW 1741   0.576   1.282   4.906
  430SOL    HW1 1742   0.489   1.286   4.866
  430SOL    HW2 1743   0.591   1.370   4.940
  431SOL     OW 1744   1.561   1.513   4.432
  431SOL    HW1 1745   1.518   1.494   4.515
  431SOL    HW2 1746   1.490   1.518   4.368
  432SOL     OW 1747   1.132   0.698   4.426
  432SOL    HW1 1748   1.180   0.780   4.412
  432SOL    HW2 1749   1.084   0.712   4.508
  433SOL     OW 1750   1.759   0.618   3.952
  433SOL    HW1 1751   1.742   0.609   3.859
  433SOL    HW2 1752   1.751   0.529   3.987
  434SOL     OW 1753   0.759   1.142   4.762
  434SOL    HW1 1754   0.691   1.176   4.821
  434SOL    HW2 1755   0.792   1.220   4.718
  435SOL     OW 1756   0.865   0.777   5.546
  435SOL    HW1 1757   0.854   0.849   5.609
  435SOL    HW2 1758   0.888   0.820   5.464
  436SOL     OW 1759   0.686   1.006   4.372
  436SOL    HW1 1760   0.751   0.992   4.441
  436SOL    HW2 1761   0.616   1.056   4.414
  437SOL     OW 1762   0.709   1.150   5.535
  437SOL    HW1 1763   0.757   1.229   5.561
  437SOL    HW2 1764   0.626   1.183   5.501
  438SOL     OW 1765   0.351   1.403   4.803
  438SOL    HW1 1766   0.269   1.386   4.756
  438SOL    HW2 1767   0.399   1.462   4.745
  439SOL     OW 1768   1.461   1.499   5.076
  439SOL    HW1 1769   1.510   1.581   5.085
  439SOL    HW2 1770   1.402   1.498   5.152
  440SOL     OW 1771   0.453   0.407   5.223
  440SOL    HW1 1772   0.533   0.355   5.219
  440SOL    HW2 1773   0.382   0.342   5.225
  441SOL     OW 1774   1.613   0.451   4.459
  441SOL    HW1 1775   1.540   0.482   4.405
  441SOL    HW2 1776   1.636   0.526   4.514
  442SOL     OW 1777   0.223   1.717   4.184
  442SOL    HW1 1778   0.241   1.792   4.241
  442SOL    HW2 1779   0.300   1.710   4.128
  443SOL     OW 1780   1.136   1.341   5.416
  443SOL    HW1 1781   1.176   1.337   5.503
  443SOL    HW2 1782   1.084   1.262   5.410
  444SOL     OW 1783   0.245   1.447   4.263
  444SOL    HW1 1784   0.214   1.537   4.251
  444SOL    HW2 1785   0.177   1.405   4.315
  445SOL     OW 1786   0.246   1.070   4.609
  445SOL    HW1 1787   0.264   0.985   4.651
  445SOL    HW2 1788   0.194   1.118   4.673
  446SOL     OW 1789   0.614   1.791   5.154
  446SOL    HW1 1790   0.531   1.773   5.199
  446SOL    HW2 1791   0.636   1.881   5.179
  447SOL     OW 1792   0.583   0.983   3.859
  447SOL    HW1 1793   0.628   1.030   3.790
  447SOL    HW2 1794   0.625   1.012   3.940
  448SOL     OW 1795   1.578   0.136   5.181
  448SOL    HW1 1796   1.603   0.210   5.126
  448SOL    HW2 1797   1.555   0.176   5.265
  449SOL     OW 1798   0.138   0.649   4.293
  449SOL    HW1 1799   0.094   0.564   4.299
  449SOL    HW2 1800   0.102   0.699   4.366
  450SOL     OW 1801   0.043   1.591   3.864
  450SOL    HW1 1802   0.032   1.498   3.885
  450SOL    HW2 1803   3.965   1.633   3.898
  451SOL     OW 1804   1.687   0.917   4.363
  451SOL    HW1 1805   1.773   0.878   4.345
  451SOL    HW2 1806   1.668   0.969   4.285
  452SOL     OW 1807   1.646   1.108   4.154
  452SOL    HW1 1808   1.732   1.114   4.112
  452SOL    HW2 1809   1.651   1.168   4.227
  453SOL     OW 1810   0.134   0.753   5.314
  453SOL    HW1 1811   0.230   0.747   5.317
  453SOL    HW2 1812   0.115   0.845   5.332
  454SOL     OW 1813   0.612   1.384   4.460
  454SOL    HW1 1814   0.566   1.301   4.469
  454SOL    HW2 1815   0.596   1.410   4.369
  455SOL     OW 1816   1.289   1.239   5.148
  455SOL    HW1 1817   1.322   1.171   5.088
  455SOL    HW2 1818   1.346   1.232   5.224
  456SOL     OW 1819   0.816   0.002   4.238
  456SOL    HW1 1820   0.862   0.083   4.217
  456SOL    HW2 1821   0.724   0.025   4.240
  457SOL     OW 1822   0.186   0.954   4.999
  457SOL    HW1 1823   0.274   0.919   4.985
  457SOL    HW2 1824   0.131   0.908   4.936
  458SOL     OW 1825   1.532   0.993   3.922
  458SOL    HW1 1826   1.462   0.935   3.953
  458SOL    HW2 1827   1.572   1.027   4.001
  459SOL     OW 1828   1.186   1.806   5.346
  459SOL    HW1 1829   1.198   1.863   5.270
  459SOL    HW2 1830   1.201   1.718   5.311
  460SOL     OW 1831   0.340   0.254   5.548
  460SOL    HW1 1832   0.385   0.338   5.537
  460SOL    HW2 1833   0.250   0.278   5.570
  461SOL     OW 1834   1.465   1.420   4.676
  461SOL    HW1 1835   1.397   1.434   4.742
  461SOL    HW2 1836   1.453   1.329   4.649
  462SOL     OW 1837   1.668   1.728   4.284
  462SOL    HW1 1838   1.629   1.694   4.204
  462SOL    HW2 1839   1.646   1.662   4.351
  463SOL     OW 1840   0.596   0.719   3.987
  463SOL    HW1 1841   0.603   0.802   3.940
  463SOL    HW2 1842   0.533   0.737   4.057
  464SOL     OW 1843   1.276   0.363   4.664
  464SOL    HW1 1844   1.189   0.324   4.669
  464SOL    HW2 1845   1.333   0.302   4.711
  465SOL     OW 1846   1.577   1.668   4.026
  465SOL    HW1 1847   1.661   1.711   4.008
  465SOL    HW2 1848   1.543   1.644   3.939
  466SOL     OW 1849   0.795   0.616   5.179
  466SOL    HW1 1850   0.765   0.592   5.266
  466SOL    HW2 1851   0.754   0.552   5.121
  467SOL     OW 1852   1.393   0.477   5.401
  467SOL    HW1 1853   1.396   0.521   5.486
  467SOL    HW2 1854   1.453   0.403   5.410
  468SOL     OW 1855   0.956   0.888   5.306
  468SOL    HW1 1856   1.010   0.818   5.271
  468SOL    HW2 1857   0.908   0.921   5.230
  469SOL     OW 1858   0.991   0.404   4.965
  469SOL    HW1 1859   0.908   0.429   5.007
  469SOL    HW2 1860   0.965   0.371   4.879
  470SOL     OW 1861   1.051   0.699   4.150
  470SOL    HW1 1862   1.065   0.691   4.245
  470SOL    HW2 1863   0.969   0.652   4.135
  471SOL     OW 1864   0.081   0.824   4.515
  471SOL    HW1 1865   0.160   0.794   4.560
  471SOL    HW2 1866   0.092   0.919   4.508
  472SOL     OW 1867   0.129   1.855   5.297
  472SOL    HW1 1868   0.137   1.822   5.386
  472SOL    HW2 1869   0.037   1.843   5.274
  473SOL     OW 1870   0.891   0.350   3.922
  473SOL    HW1 1871   0.933   0.409   3.859
  473SOL    HW2 1872   0.894   0.264   3.880
  474SOL     OW 1873   1.711   0.576   5.552
  474SOL    HW1 1874   1.672   0.650   5.506
  474SOL    HW2 1875   1.735   0.514   5.483
  475SOL     OW 1876   1.376   1.142   4.265
  475SOL    HW1 1877   1.455   1.129   4.213
  475SOL    HW2 1878   1.324   1.204   4.215
  476SOL     OW 1879   0.559   0.195   4.606
  476SOL    HW1 1880   0.562   0.216   4.699
  476SOL    HW2 1881   0.548   0.280   4.563
  477SOL     OW 1882   1.007   1.445   4.197
  477SOL    HW1 1883   0.968   1.517   4.148
  477SOL    HW2 1884   0.991   1.467   4.288
  478SOL     OW 1885   0.364   1.812   4.590
  478SOL    HW1 1886   0.429   1.742   4.595
  478SOL    HW2 1887   0.415   1.892   4.605
  479SOL     OW 1888   1.799   1.056   4.592
  479SOL    HW1 1889   1.743   1.042   4.516
  479SOL    HW2 1890   1.737   1.063   4.666
  480SOL     OW 1891   1.228   1.539   5.237
  480SOL    HW1 1892   1.214   1.466   5.297
  480SOL    HW2 1893   1.166   1.524   5.166
  481SOL     OW 1894   0.310   0.955   3.966
  481SOL    HW1 1895   0.395   0.978   3.928
  481SOL    HW2 1896   0.296   0.864   3.940
  482SOL     OW 1897   1.476   0.742   4.454
  482SOL    HW1 1898   1.469   0.698   4.539
  482SOL    HW2 1899   1.554   0.797   4.463
  483SOL     OW 1900   0.465   1.260   5.461
  483SOL    HW1 1901   0.439   1.268   5.369
  483SOL    HW2 1902   0.383   1.265   5.510
  484SOL     OW 1903   1.121   1.777   3.956
  484SOL    HW1 1904   1.048   1.735   4.002
  484SOL    HW2 1905   1.143   1.716   3.885
  485SOL     OW 1906   0.199   0.296   5.222
  485SOL    HW1 1907   0.105   0.317   5.219
  485SOL    HW2 1908   0.206   0.232   5.293
  486SOL     OW 1909   1.628   1.379   3.811
  486SOL    HW1 1910   1.588   1.464   3.794
  486SOL    HW2 1911   1.559   1.315   3.792
  487SOL     OW 1912   0.466   1.739   4.043
  487SOL    HW1 1913   0.508   1.797   4.107
  487SOL    HW2 1914   0.539   1.708   3.988
  488SOL     OW 1915   1.437   0.159   4.129
  488SOL    HW1 1916   1.396   0.094   4.072
  488SOL    HW2 1917   1.514   0.114   4.164
  489SOL     OW 1918   0.250   1.792   4.956
  489SOL    HW1 1919   0.299   1.730   5.010
  489SOL    HW2 1920   0.245   1.750   4.871
  490SOL     OW 1921   0.937   1.698   4.624
  490SOL    HW1 1922   1.016   1.647   4.644
  490SOL    HW2 1923   0.893   1.649   4.555
  491SOL     OW 1924   0.394   0.694   4.197
  491SOL    HW1 1925   0.421   0.604   4.210
  491SOL    HW2 1926   0.302   0.696   4.223
  492SOL     OW 1927   1.531   0.232   5.451
  492SOL    HW1 1928   1.531   0.256   5.543
  492SOL    HW2 1929   1.500   0.141   5.449
  493SOL     OW 1930   0.642   0.136   3.825
  493SOL    HW1 1931   0.674   0.057   3.867
  493SOL    HW2 1932   0.580   0.104   3.759
  494SOL     OW 1933   0.778   0.282   5.487
  494SOL    HW1 1934   0.843   0.212   5.493
  494SOL    HW2 1935   0.717   0.264   5.558
  495SOL     OW 1936   0.876   1.521   4.918
  495SOL    HW1 1937   0.861   1.485   4.830
  495SOL    HW2 1938   0.946   1.467   4.955
  496SOL     OW 1939   1.342   0.587   5.154
  496SOL    HW1 1940   1.372   0.558   5.241
  496SOL    HW2 1941   1.376   0.676   5.146
  497SOL     OW 1942   0.814   1.396   4.661
  497SOL    HW1 1943   0.899   1.385   4.618
  497SOL    HW2 1944   0.750   1.395   4.590
  498SOL     OW 1945   0.929   0.511   4.626
  498SOL    HW1 1946   0.905   0.503   4.534
  498SOL    HW2 1947   0.957   0.423   4.652
  499SOL     OW 1948   0.546   0.057   4.215
  499SOL    HW1 1949   0.471   0.064   4.274
  499SOL    HW2 1950   0.548   0.141   4.169
  500SOL     OW 1951   1.428   1.198   3.765
  500SOL    HW1 1952   1.458   1.122   3.815
  500SOL    HW2 1953   1.342   1.218   3.802
  501SOL     OW 1954   0.334   0.045   3.919
  501SOL    HW1 1955   0.364   0.087   3.838
  501SOL    HW2 1956   0.414   0.027   3.968
  502SOL     OW 1957   0.938   0.247   4.188
  502SOL    HW1 1958   0.911   0.289   4.107
  502SOL    HW2 1959   1.034   0.248   4.185
  503SOL     OW 1960   1.079   0.681   5.183
  503SOL    HW1 1961   1.008   0.617   5.191
  503SOL    HW2 1962   1.159   0.627   5.178
  504SOL     OW 1963   1.224   1.570   4.518
  504SOL    HW1 1964   1.241   1.637   4.452
  504SOL    HW2 1965   1.292   1.582   4.584
  505SOL     OW 1966   0.466   1.149   4.463
  505SOL    HW1 1967   0.393   1.126   4.521
  505SOL    HW2 1968   0.433   1.133   4.375
  506SOL     OW 1969   1.268   1.794   4.330
  506SOL    HW1 1970   1.312   1.856   4.273
  506SOL    HW2 1971   1.203   1.846   4.377
  507SOL     OW 1972   1.025   0.547   3.747
  507SOL    HW1 1973   0.981   0.630   3.728
  507SOL    HW2 1974   1.087   0.568   3.816
  508SOL     OW 1975   0.079   0.570   5.117
  508SOL    HW1 1976   0.168   0.553   5.086
  508SOL    HW2 1977   0.088   0.641   5.180
  509SOL     OW 1978   0.572   0.232   4.884
  509SOL    HW1 1979   0.596   0.139   4.894
  509SOL    HW2 1980   0.481   0.236   4.914
  510SOL     OW 1981   0.872   0.462   4.363
  510SOL    HW1 1982   0.820   0.513   4.301
  510SOL    HW2 1983   0.890   0.380   4.317
  511SOL     OW 1984   0.994   0.042   4.503
  511SOL    HW1 1985   0.961   0.066   4.416
  511SOL    HW2 1986   1.005   3.947   4.499
  512SOL     OW 1987   1.437   1.163   4.582
  512SOL    HW1 1988   1.368   1.096   4.579
  512SOL    HW2 1989   1.461   1.175   4.490
  513SOL     OW 1990   1.467   0.604   4.703
  513SOL    HW1 1991   1.416   0.523   4.708
  513SOL    HW2 1992   1.527   0.599   4.776
  514SOL     OW 1993   1.847   0.820   4.108
  514SOL    HW1 1994   1.902   0.767   4.165
  514SOL    HW2 1995   1.815   0.759   4.042
  515SOL     OW 1996   0.489   1.416   3.886
  515SOL    HW1 1997   0.414   1.385   3.936
  515SOL    HW2 1998   0.469   1.394   3.795
  516SOL     OW 1999   1.669   1.265   4.371
  516SOL    HW1 2000   1.764   1.268   4.384
  516SOL    HW2 2001   1.639   1.354   4.393
  517SOL     OW 2002   1.394   0.573   3.794
  517SOL    HW1 2003   1.333   0.554   3.865
  517SOL    HW2 2004   1.480   0.552   3.831
  518SOL     OW 2005   0.558   0.270   4.044
  518SOL    HW1 2006   0.598   0.229   3.968
  518SOL    HW2 2007   0.529   0.356   4.013
  519SOL     OW 2008   1.753   1.238   5.299
  519SOL    HW1 2009   1.840   1.199   5.295
  519SOL    HW2 2010   1.768   1.328   5.328
  520SOL     OW 2011   1.059   1.354   5.058
  520SOL    HW1 2012   0.984   1.322   5.109
  520SOL    HW2 2013   1.135   1.312   5.099
  521SOL     OW 2014   1.607   1.625   5.376
  521SOL    HW1 2015   1.602   1.661   5.287
  521SOL    HW2 2016   1.691   1.579   5.378
  522SOL     OW 2017   1.128   1.203   4.830
  522SOL    HW1 2018   1.069   1.240   4.895
  522SOL    HW2 2019   1.094   1.234   4.746
  523SOL     OW 2020   1.629   1.099   4.802
  523SOL    HW1 2021   1.624   1.161   4.875
  523SOL    HW2 2022   1.550   1.115   4.751
  524SOL     OW 2023   0.914   0.110   5.126
  524SOL    HW1 2024   0.933   0.086   5.035
  524SOL    HW2 2025   0.994   0.153   5.157
  525SOL     OW 2026   0.984   1.115   5.446
  525SOL    HW1 2027   0.892   1.130   5.467
  525SOL    HW2 2028   0.983   1.037   5.391
  526SOL     OW 2029   0.708   1.060   4.095
  526SOL    HW1 2030   0.694   1.046   4.189
  526SOL    HW2 2031   0.784   1.007   4.073
  527SOL     OW 2032   0.420   0.815   4.976
  527SOL    HW1 2033   0.489   0.822   5.042
  527SOL    HW2 2034   0.385   0.727   4.986
  528SOL     OW 2035   1.266   0.375   4.999
  528SOL    HW1 2036   1.301   0.453   5.044
  528SOL    HW2 2037   1.180   0.402   4.968
  529SOL     OW 2038   0.064   1.579   5.069
  529SOL    HW1 2039   0.066   1.648   5.002
  529SOL    HW2 2040   0.156   1.566   5.093
  530SOL     OW 2041   0.376   1.103   4.210
  530SOL    HW1 2042   0.367   1.180   4.154
  530SOL    HW2 2043   0.373   1.028   4.149
  531SOL     OW 2044   0.556   0.538   4.584
  531SOL    HW1 2045   0.572   0.595   4.509
  531SOL    HW2 2046   0.620   0.565   4.649
  532SOL     OW 2047   1.248   1.348   4.113
  532SOL    HW1 2048   1.303   1.419   4.145
  532SOL    HW2 2049   1.161   1.369   4.147
  533SOL     OW 2050   1.279   1.457   4.871
  533SOL    HW1 2051   1.335   1.459   4.948
  533SOL    HW2 2052   1.224   1.379   4.883
  534SOL     OW 2053   1.579   0.631   4.208
  534SOL    HW1 2054   1.538   0.692   4.269
  534SOL    HW2 2055   1.625   0.688   4.146
  535SOL     OW 2056   0.346   1.525   5.044
  535SOL    HW1 2057   0.336   1.475   4.963
  535SOL    HW2 2058   0.440   1.541   5.051
  536SOL     OW 2059   0.412   0.740   5.325
  536SOL    HW1 2060   0.474   0.786   5.268
  536SOL    HW2 2061   0.453   0.654   5.339
  537SOL     OW 2062   1.600   0.778   5.406
  537SOL    HW1 2063   1.514   0.819   5.398
  537SOL    HW2 2064   1.652   0.819   5.337
  538SOL     OW 2065   1.019   0.122   5.501
  538SOL    HW1 2066   1.057   0.200   5.460
  538SOL    HW2 2067   1.009   0.060   5.429
  539SOL     OW 2068   0.479   0.036   5.491
  539SOL    HW1 2069   0.492   0.040   5.396
  539SOL    HW2 2070   0.419   0.108   5.510
  540SOL     OW 2071   0.584   0.873   4.755
  540SOL    HW1 2072   0.613   0.964   4.754
  540SOL    HW2 2073   0.528   0.867   4.832
  541SOL     OW 2074   1.359   0.859   4.755
  541SOL    HW1 2075   1.276   0.850   4.707
  541SOL    HW2 2076   1.398   0.771   4.751
  542SOL     OW 2077   1.205   0.534   3.987
  542SOL    HW1 2078   1.213   0.455   4.040
  542SOL    HW2 2079   1.161   0.597   4.045
  543SOL     OW 2080   0.313   0.214   4.965
  543SOL    HW1 2081   0.272   0.248   5.045
  543SOL    HW2 2082   0.294   0.120   4.967
  544SOL     OW 2083   0.057   1.305   5.004
  544SOL    HW1 2084   0.090   1.265   5.084
  544SOL    HW2 2085   0.050   1.398   5.024
  545SOL     OW 2086   0.727   0.634   4.781
  545SOL    HW1 2087   0.799   0.617   4.721
  545SOL    HW2 2088   0.698   0.723   4.758
  546SOL     OW 2089   1.734   0.959   5.576
  546SOL    HW1 2090   1.687   0.900   5.517
  546SOL    HW2 2091   1.674   0.971   5.650
  547SOL     OW 2092   0.325   0.056   4.372
  547SOL    HW1 2093   0.297   0.147   4.374
  547SOL    HW2 2094   0.286   0.017   4.451
  548SOL     OW 2095   1.601   0.387   4.107
  548SOL    HW1 2096   1.576   0.319   4.170
  548SOL    HW2 2097   1.581   0.469   4.151
  549SOL     OW 2098   1.028   0.760   4.685
  549SOL    HW1 2099   1.025   0.777   4.779
  549SOL    HW2 2100   1.001   0.668   4.676
  550SOL     OW 2101   0.983   1.567   5.440
  550SOL    HW1 2102   0.967   1.610   5.356
  550SOL    HW2 2103   1.026   1.484   5.416
  551SOL     OW 2104   1.855   1.507   5.330
  551SOL    HW1 2105   1.870   1.535   5.239
  551SOL    HW2 2106   1.940   1.520   5.373
  552SOL     OW 2107   0.351   0.920   5.524
  552SOL    HW1 2108   0.430   0.940   5.575
  552SOL    HW2 2109   0.379   0.854   5.461
  553SOL     OW 2110   1.510   0.276   3.860
  553SOL    HW1 2111   1.434   0.219   3.873
  553SOL    HW2 2112   1.524   0.317   3.946
  554SOL     OW 2113   1.292   0.827   3.755
  554SOL    HW1 2114   1.334   0.741   3.758
  554SOL    HW2 2115   1.324   0.866   3.674
  555SOL     OW 2116   1.064   1.335   4.577
  555SOL    HW1 2117   1.068   1.263   4.515
  555SOL    HW2 2118   1.127   1.399   4.543
  556SOL     OW 2119   0.313   0.806   4.675
  556SOL    HW1 2120   0.407   0.823   4.669
  556SOL    HW2 2121   0.307   0.716   4.707
  557SOL     OW 2122   0.337   0.527   4.737
  557SOL    HW1 2123   0.298   0.442   4.719
  557SOL    HW2 2124   0.413   0.531   4.678
  558SOL     OW 2125   1.134   0.383   5.416
  558SOL    HW1 2126   1.086   0.438   5.478
  558SOL    HW2 2127   1.221   0.421   5.411
  559SOL     OW 2128   1.151   0.224   5.205
  559SOL    HW1 2129   1.143   0.279   5.283
  559SOL    HW2 2130   1.173   0.286   5.135
  560SOL     OW 2131   3.999   1.320   3.906
  560SOL    HW1 2132   3.905   1.336   3.910
  560SOL    HW2 2133   0.009   1.227   3.926
  561SOL     OW 2134   0.076   1.801   4.613
  561SOL    HW1 2135   0.077   1.705   4.622
  561SOL    HW2 2136   0.168   1.826   4.617
  562SOL     OW 2137   0.504   1.570   4.634
  562SOL    HW1 2138   0.573   1.631   4.659
  562SOL    HW2 2139   0.547   1.507   4.577
  563SOL     OW 2140   0.984   0.792   4.951
  563SOL    HW1 2141   1.038   0.769   5.027
  563SOL    HW2 2142   0.898   0.755   4.970
  564SOL     OW 2143   0.036   0.566   4.837
  564SOL    HW1 2144   0.103   0.519   4.787
  564SOL    HW2 2145   0.061   0.554   4.929
  565SOL     OW 2146   0.209   0.516   5.445
  565SOL    HW1 2147   0.259   0.481   5.372
  565SOL    HW2 2148   0.159   0.588   5.407
  566SOL     OW 2149   1.377   0.940   5.383
  566SOL    HW1 2150   1.397   1.033   5.381
  566SOL    HW2 2151   1.374   0.914   5.290
  567SOL     OW 2152   0.817   0.572   4.081
  567SOL    HW1 2153   0.822   0.494   4.025
  567SOL    HW2 2154   0.742   0.621   4.049
  568SOL     OW 2155   1.642   0.602   4.911
  568SOL    HW1 2156   1.632   0.541   4.985
  568SOL    HW2 2157   1.729   0.583   4.877
  569SOL     OW 2158   0.297   1.546   5.454
  569SOL    HW1 2159   0.247   1.616   5.497
  569SOL    HW2 2160   0.262   1.465   5.492
  570SOL     OW 2161   0.700   0.457   4.985
  570SOL    HW1 2162   0.653   0.378   4.958
  570SOL    HW2 2163   0.694   0.516   4.909
  571SOL     OW 2164   0.929   1.679   5.191
  571SOL    HW1 2165   0.903   1.646   5.105
  571SOL    HW2 2166   0.925   1.774   5.182
  572SOL     OW 2167   0.458   0.492   3.918
  572SOL    HW1 2168   0.522   0.561   3.935
  572SOL    HW2 2169   0.377   0.539   3.898
  573SOL     OW 2170   0.157   1.136   5.196
  573SOL    HW1 2171   0.161   1.085   5.277
  573SOL    HW2 2172   0.172   1.073   5.126
  574SOL     OW 2173   1.327   1.048   4.948
  574SOL    HW1 2174   1.351   0.985   4.880
  574SOL    HW2 2175   1.256   1.099   4.909
  575SOL     OW 2176   1.311   0.856   4.031
  575SOL    HW1 2177   1.234   0.827   4.080
  575SOL    HW2 2178   1.286   0.843   3.939
  576SOL     OW 2179   1.753   1.742   4.868
  576SOL    HW1 2180   1.825   1.767   4.810
  576SOL    HW2 2181   1.737   1.650   4.848
  577SOL     OW 2182   1.243   1.734   4.838
  577SOL    HW1 2183   1.325   1.753   4.793
  577SOL    HW2 2184   1.247   1.640   4.856
  578SOL     OW 2185   0.076   1.218   4.751
  578SOL    HW1 2186   0.082   1.243   4.843
  578SOL    HW2 2187   3.983   1.224   4.730
  579SOL     OW 2188   0.679   1.665   5.452
  579SOL    HW1 2189   0.623   1.743   5.447
  579SOL    HW2 2190   0.742   1.676   5.381
  580SOL     OW 2191   1.710   0.128   4.210
  580SOL    HW1 2192   1.791   0.133   4.158
  580SOL    HW2 2193   1.701   0.035   4.231
  581SOL     OW 2194   1.390   1.567   4.209
  581SOL    HW1 2195   1.447   1.599   4.139
  581SOL    HW2 2196   1.341   1.645   4.237
  582SOL     OW 2197   0.172   1.767   5.552
  582SOL    HW1 2198   0.113   1.719   5.610
  582SOL    HW2 2199   0.215   1.832   5.609
  583SOL     OW 2200   1.277   0.926   4.395
  583SOL    HW1 2201   1.351   0.865   4.402
  583SOL    HW2 2202   1.311   0.998   4.343
  584SOL     OW 2203   0.816   1.272   5.155
  584SOL    HW1 2204   0.788   1.312   5.238
  584SOL    HW2 2205   0.745   1.292   5.094
  585SOL     OW 2206   0.671   1.618   3.879
  585SOL    HW1 2207   0.681   1.629   3.785
  585SOL    HW2 2208   0.617   1.540   3.889
  586SOL     OW 2209   1.627   1.728   5.115
  586SOL    HW1 2210   1.675   1.734   5.032
  586SOL    HW2 2211   1.618   1.819   5.144
  587SOL     OW 2212   1.838   0.176   4.692
  587SOL    HW1 2213   1.869   0.102   4.639
  587SOL    HW2 2214   1.751   0.195   4.658
  588SOL     OW 2215   0.272   0.324   4.439
  588SOL    HW1 2216   0.187   0.359   4.415
  588SOL    HW2 2217   0.265   0.306   4.533
  589SOL     OW 2218   1.206   1.607   3.755
  589SOL    HW1 2219   1.197   1.515   3.782
  589SOL    HW2 2220   1.141   1.618   3.686
  590SOL     OW 2221   0.824   1.005   5.096
  590SOL    HW1 2222   0.867   1.002   5.011
  590SOL    HW2 2223   0.824   1.098   5.119
  591SOL     OW 2224   0.915   0.910   4.013
  591SOL    HW1 2225   0.977   0.942   3.948
  591SOL    HW2 2226   0.962   0.840   4.059
  592SOL     OW 2227   1.491   1.623   3.765
  592SOL    HW1 2228   1.396   1.619   3.751
  592SOL    HW2 2229   1.528   1.630   3.677
  593SOL     OW 2230   0.373   1.302   5.215
  593SOL    HW1 2231   0.358   1.383   5.166
  593SOL    HW2 2232   0.296   1.248   5.198
  594SOL     OW 2233   1.611   1.283   5.005
  594SOL    HW1 2234   1.671   1.274   5.078
  594SOL    HW2 2235   1.551   1.352   5.031
  595SOL     OW 2236   1.050   1.107   4.430
  595SOL    HW1 2237   0.980   1.055   4.469
  595SOL    HW2 2238   1.112   1.041   4.398
  596SOL     OW 2239   1.015   0.247   4.691
  596SOL    HW1 2240   1.004   0.198   4.610
  596SOL    HW2 2241   1.008   0.182   4.761
  597SOL     OW 2242   0.604   1.489   4.206
  597SOL    HW1 2243   0.646   1.438   4.137
  597SOL    HW2 2244   0.534   1.537   4.162
  598SOL     OW 2245   1.719   0.391   5.099
  598SOL    HW1 2246   1.791   0.455   5.101
  598SOL    HW2 2247   1.752   0.320   5.044
  599SOL     OW 2248   0.253   1.342   4.015
  599SOL    HW1 2249   0.160   1.352   3.995
  599SOL    HW2 2250   0.262   1.380   4.102
  600SOL     OW 2251   0.105   1.001   5.442
  600SOL    HW1 2252   0.044   0.990   5.515
  600SOL    HW2 2253   0.191   0.980   5.479
  601SOL     OW 2254   0.693   0.244   5.220
  601SOL    HW1 2255   0.763   0.192   5.180
  601SOL    HW2 2256   0.719   0.251   5.312
  602SOL     OW 2257   0.088   0.326   3.752
  602SOL    HW1 2258   3.992   0.321   3.747
  602SOL    HW2 2259   0.110   0.408   3.708
  603SOL     OW 2260   1.430   0.858   5.124
  603SOL    HW1 2261   1.382   0.918   5.069
  603SOL    HW2 2262   1.520   0.860   5.091
  604SOL     OW 2263   0.039   0.162   4.007
  604SOL    HW1 2264   0.037   0.243   3.956
  604SOL    HW2 2265   0.120   0.168   4.058
  605SOL     OW 2266   1.179   1.340   3.841
  605SOL    HW1 2267   1.088   1.310   3.843
  605SOL    HW2 2268   1.207   1.340   3.932
  606SOL     OW 2269   0.619   0.830   5.159
  606SOL    HW1 2270   0.675   0.906   5.143
  606SOL    HW2 2271   0.680   0.756   5.167
  607SOL     OW 2272   1.488   1.779   4.703
  607SOL    HW1 2273   1.512   1.841   4.634
  607SOL    HW2 2274   1.570   1.763   4.749
  608SOL     OW 2275   0.717   0.564   5.431
  608SOL    HW1 2276   0.758   0.627   5.491
  608SOL    HW2 2277   0.749   0.479   5.461
  609SOL     OW 2278   1.470   1.201   5.357
  609SOL    HW1 2279   1.458   1.215   5.451
  609SOL    HW2 2280   1.564   1.215   5.342
  610SOL     OW 2281   0.381   1.741   5.283
  610SOL    HW1 2282   0.293   1.779   5.270
  610SOL    HW2 2283   0.365   1.660   5.331
  611SOL     OW 2284   1.670   0.882   4.980
  611SOL    HW1 2285   1.664   0.796   4.937
  611SOL    HW2 2286   1.661   0.945   4.909
  612SOL     OW 2287   1.225   0.333   4.170
  612SOL    HW1 2288   1.291   0.265   4.162
  612SOL    HW2 2289   1.247   0.378   4.251
  613SOL     OW 2290   0.592   0.740   4.393
  613SOL    HW1 2291   0.629   0.826   4.376
  613SOL    HW2 2292   0.522   0.731   4.328
  614SOL     OW 2293   1.755   0.380   5.367
  614SOL    HW1 2294   1.737   0.385   5.273
  614SOL    HW2 2295   1.697   0.311   5.399
  615SOL     OW 2296   1.745   0.934   5.237
  615SOL    HW1 2297   1.742   1.029   5.249
  615SOL    HW2 2298   1.729   0.922   5.143
  616SOL     OW 2299   0.862   1.367   3.756
  616SOL    HW1 2300   0.823   1.395   3.840
  616SOL    HW2 2301   0.881   1.449   3.710
  617SOL     OW 2302   0.660   1.792   4.669
  617SOL    HW1 2303   0.639   1.882   4.646
  617SOL    HW2 2304   0.756   1.787   4.662
  618SOL     OW 2305   0.867   0.966   4.579
  618SOL    HW1 2306   0.917   0.895   4.619
  618SOL    HW2 2307   0.833   1.016   4.653
  619SOL     OW 2308   1.079   0.988   3.813
  619SOL    HW1 2309   1.058   1.039   3.734
  619SOL    HW2 2310   1.154   0.935   3.787
  620SOL     OW 2311   1.848   1.538   4.551
  620SOL    HW1 2312   1.762   1.536   4.509
  620SOL    HW2 2313   1.839   1.481   4.628
  621SOL     OW 2314   0.223   1.303   5.579
  621SOL    HW1 2315   0.153   1.244   5.554
  621SOL    HW2 2316   0.211   1.317   5.673
  622SOL     OW 2317   0.114   1.274   4.440
  622SOL    HW1 2318   0.121   1.223   4.521
  622SOL    HW2 2319   0.111   1.208   4.370
  623SOL     OW 2320   0.679   1.402   5.351
  623SOL    HW1 2321   0.600   1.359   5.381
  623SOL    HW2 2322   0.675   1.490   5.389
  624SOL     OW 2323   1.813   0.184   4.963
  624SOL    HW1 2324   1.816   0.089   4.977
  624SOL    HW2 2325   1.827   0.195   4.869
  625SOL     OW 2326   0.442   0.436   4.254
  625SOL    HW1 2327   0.454   0.361   4.195
  625SOL    HW2 2328   0.386   0.402   4.325
  626SOL     OW 2329   1.703   1.484   4.817
  626SOL    HW1 2330   1.620   1.462   4.775
  626SOL    HW2 2331   1.713   1.416   4.884
  627SOL     OW 2332   0.330   0.554   5.015
  627SOL    HW1 2333   0.386   0.498   5.069
  627SOL    HW2 2334   0.346   0.526   4.925
  628SOL     OW 2335   0.826   1.578   4.402
  628SOL    HW1 2336   0.817   1.630   4.322
  628SOL    HW2 2337   0.749   1.522   4.403
  629SOL     OW 2338   1.461   0.251   4.835
  629SOL    HW1 2339   1.477   0.164   4.872
  629SOL    HW2 2340   1.403   0.293   4.899
  630SOL     OW 2341   1.006   0.030   4.871
  630SOL    HW1 2342   0.930   3.980   4.841
  630SOL    HW2 2343   1.076   3.965   4.879
  631SOL     OW 2344   0.771   1.332   4.037
  631SOL    HW1 2345   0.739   1.242   4.043
  631SOL    HW2 2346   0.854   1.332   4.086
  632SOL     OW 2347   0.620   1.558   5.008
  632SOL    HW1 2348   0.623   1.639   5.059
  632SOL    HW2 2349   0.707   1.550   4.970
  633SOL     OW 2350   1.315   0.074   3.887
  633SOL    HW1 2351   1.335   0.005   3.824
  633SOL    HW2 2352   1.230   0.050   3.924
  634SOL     OW 2353   1.286   0.458   4.411
  634SOL    HW1 2354   1.237   0.540   4.408
  634SOL    HW2 2355   1.289   0.436   4.504
  635SOL     OW 2356   1.588   0.211   4.591
  635SOL    HW1 2357   1.538   0.233   4.670
  635SOL    HW2 2358   1.588   0.291   4.539
  636SOL     OW 2359   0.045   1.052   3.964
  636SOL    HW1 2360   0.139   1.035   3.955
  636SOL    HW2 2361   0.010   0.972   4.003
  637SOL     OW 2362   0.883   1.652   4.067
  637SOL    HW1 2363   0.811   1.634   4.007
  637SOL    HW2 2364   0.854   1.727   4.118
  638SOL     OW 2365   0.233   0.624   5.705
  638SOL    HW1 2366   0.140   0.630   5.727
  638SOL    HW2 2367   0.234   0.596   5.614
  639SOL     OW 2368   0.225   0.286   6.570
  639SOL    HW1 2369   0.249   0.250   6.655
  639SOL    HW2 2370   0.131   0.269   6.561
  640SOL     OW 2371   0.018   0.387   6.220
  640SOL    HW1 2372   3.930   0.397   6.256
  640SOL    HW2 2373   0.025   0.294   6.201
  641SOL     OW 2374   0.576   1.282   6.768
  641SOL    HW1 2375   0.489   1.286   6.728
  641SOL    HW2 2376   0.592   1.370   6.802
  642SOL     OW 2377   1.132   0.698   6.288
  642SOL    HW1 2378   1.180   0.780   6.274
  642SOL    HW2 2379   1.084   0.712   6.370
  643SOL     OW 2380   1.760   0.618   5.814
  643SOL    HW1 2381   1.742   0.609   5.721
  643SOL    HW2 2382   1.750   0.529   5.849
  644SOL     OW 2383   0.758   1.142   6.624
  644SOL    HW1 2384   0.691   1.176   6.683
  644SOL    HW2 2385   0.792   1.220   6.580
  645SOL     OW 2386   0.865   0.777   7.408
  645SOL    HW1 2387   0.856   0.849   7.470
  645SOL    HW2 2388   0.888   0.820   7.325
  646SOL     OW 2389   0.686   1.006   6.234
  646SOL    HW1 2390   0.751   0.992   6.303
  646SOL    HW2 2391   0.616   1.056   6.276
  647SOL     OW 2392   0.709   1.150   7.398
  647SOL    HW1 2393   0.757   1.229   7.424
  647SOL    HW2 2394   0.626   1.183   7.363
  648SOL     OW 2395   0.351   1.403   6.665
  648SOL    HW1 2396   0.269   1.386   6.618
  648SOL    HW2 2397   0.400   1.462   6.607
  649SOL     OW 2398   1.463   1.492   6.933
  649SOL    HW1 2399   1.516   1.571   6.944
  649SOL    HW2 2400   1.408   1.490   7.011
  650SOL     OW 2401   0.453   0.407   7.085
  650SOL    HW1 2402   0.533   0.355   7.081
  650SOL    HW2 2403   0.382   0.342   7.087
  651SOL     OW 2404   1.613   0.451   6.321
  651SOL    HW1 2405   1.540   0.482   6.268
  651SOL    HW2 2406   1.635   0.525   6.377
  652SOL     OW 2407   0.223   1.717   6.046
  652SOL    HW1 2408   0.241   1.792   6.103
  652SOL    HW2 2409   0.301   1.710   5.990
  653SOL     OW 2410   1.136   1.342   7.278
  653SOL    HW1 2411   1.179   1.337   7.364
  653SOL    HW2 2412   1.084   1.262   7.272
  654SOL     OW 2413   0.245   1.447   6.125
  654SOL    HW1 2414   0.214   1.537   6.113
  654SOL    HW2 2415   0.177   1.405   6.178
  655SOL     OW 2416   0.246   1.070   6.471
  655SOL    HW1 2417   0.264   0.985   6.513
  655SOL    HW2 2418   0.194   1.118   6.535
  656SOL     OW 2419   0.613   1.791   7.015
  656SOL    HW1 2420   0.531   1.774   7.060
  656SOL    HW2 2421   0.636   1.881   7.040
  657SOL     OW 2422   0.583   0.983   5.721
  657SOL    HW1 2423   0.628   1.030   5.652
  657SOL    HW2 2424   0.625   1.012   5.802
  658SOL     OW 2425   1.578   0.136   7.043
  658SOL    HW1 2426   1.603   0.210   6.988
  658SOL    HW2 2427   1.555   0.176   7.127
  659SOL     OW 2428   0.138   0.649   6.155
  659SOL    HW1 2429   0.094   0.564   6.161
  659SOL    HW2 2430   0.102   0.699   6.228
  660SOL     OW 2431   0.043   1.591   5.725
  660SOL    HW1 2432   0.032   1.498   5.747
  660SOL    HW2 2433   3.965   1.633   5.761
  661SOL     OW 2434   1.687   0.917   6.224
  661SOL    HW1 2435   1.772   0.877   6.206
  661SOL    HW2 2436   1.668   0.969   6.145
  662SOL     OW 2437   1.646   1.108   6.017
  662SOL    HW1 2438   1.732   1.115   5.975
  662SOL    HW2 2439   1.650   1.171   6.089
  663SOL     OW 2440   0.134   0.753   7.176
  663SOL    HW1 2441   0.230   0.747   7.179
  663SOL    HW2 2442   0.115   0.846   7.194
  664SOL     OW 2443   0.612   1.384   6.321
  664SOL    HW1 2444   0.566   1.301   6.331
  664SOL    HW2 2445   0.596   1.410   6.231
  665SOL     OW 2446   1.288   1.238   7.010
  665SOL    HW1 2447   1.322   1.171   6.950
  665SOL    HW2 2448   1.345   1.233   7.086
  666SOL     OW 2449   0.816   0.001   6.100
  666SOL    HW1 2450   0.862   0.083   6.079
  666SOL    HW2 2451   0.724   0.025   6.102
  667SOL     OW 2452   0.186   0.954   6.861
  667SOL    HW1 2453   0.274   0.919   6.847
  667SOL    HW2 2454   0.131   0.908   6.797
  668SOL     OW 2455   1.532   0.992   5.784
  668SOL    HW1 2456   1.462   0.935   5.815
  668SOL    HW2 2457   1.572   1.027   5.864
  669SOL     OW 2458   1.183   1.807   7.208
  669SOL    HW1 2459   1.200   1.865   7.134
  669SOL    HW2 2460   1.201   1.719   7.174
  670SOL     OW 2461   0.340   0.254   7.410
  670SOL    HW1 2462   0.385   0.337   7.398
  670SOL    HW2 2463   0.250   0.278   7.432
  671SOL     OW 2464   1.424   1.426   6.515
  671SOL    HW1 2465   1.380   1.435   6.600
  671SOL    HW2 2466   1.433   1.332   6.502
  672SOL     OW 2467   0.595   0.719   5.849
  672SOL    HW1 2468   0.603   0.802   5.802
  672SOL    HW2 2469   0.533   0.737   5.919
  673SOL     OW 2470   1.276   0.363   6.526
  673SOL    HW1 2471   1.189   0.324   6.531
  673SOL    HW2 2472   1.333   0.302   6.573
  674SOL     OW 2473   1.578   1.657   5.889
  674SOL    HW1 2474   1.637   1.732   5.887
  674SOL    HW2 2475   1.550   1.646   5.798
  675SOL     OW 2476   0.795   0.616   7.041
  675SOL    HW1 2477   0.765   0.592   7.128
  675SOL    HW2 2478   0.754   0.552   6.983
  676SOL     OW 2479   1.392   0.476   7.263
  676SOL    HW1 2480   1.396   0.521   7.348
  676SOL    HW2 2481   1.453   0.403   7.272
  677SOL     OW 2482   0.955   0.888   7.168
  677SOL    HW1 2483   1.010   0.818   7.133
  677SOL    HW2 2484   0.908   0.922   7.092
  678SOL     OW 2485   0.991   0.403   6.827
  678SOL    HW1 2486   0.909   0.429   6.869
  678SOL    HW2 2487   0.965   0.372   6.741
  679SOL     OW 2488   1.051   0.699   6.012
  679SOL    HW1 2489   1.065   0.691   6.107
  679SOL    HW2 2490   0.969   0.652   5.997
  680SOL     OW 2491   0.081   0.824   6.377
  680SOL    HW1 2492   0.160   0.794   6.422
  680SOL    HW2 2493   0.092   0.919   6.370
  681SOL     OW 2494   0.129   1.855   7.159
  681SOL    HW1 2495   0.137   1.822   7.248
  681SOL    HW2 2496   0.037   1.843   7.136
  682SOL     OW 2497   0.891   0.350   5.784
  682SOL    HW1 2498   0.933   0.408   5.721
  682SOL    HW2 2499   0.895   0.264   5.742
  683SOL     OW 2500   1.711   0.576   7.414
  683SOL    HW1 2501   1.672   0.650   7.368
  683SOL    HW2 2502   1.735   0.514   7.345
  684SOL     OW 2503   1.376   1.142   6.128
  684SOL    HW1 2504   1.455   1.130   6.075
  684SOL    HW2 2505   1.323   1.205   6.079
  685SOL     OW 2506   0.559   0.195   6.468
  685SOL    HW1 2507   0.562   0.216   6.561
  685SOL    HW2 2508   0.548   0.280   6.425
  686SOL     OW 2509   1.005   1.444   6.058
  686SOL    HW1 2510   0.968   1.517   6.009
  686SOL    HW2 2511   0.992   1.467   6.150
  687SOL     OW 2512   0.365   1.812   6.452
  687SOL    HW1 2513   0.429   1.742   6.457
  687SOL    HW2 2514   0.415   1.892   6.468
  688SOL     OW 2515   1.792   1.058   6.446
  688SOL    HW1 2516   1.737   1.037   6.371
  688SOL    HW2 2517   1.731   1.064   6.520
  689SOL     OW 2518   1.230   1.539   7.099
  689SOL    HW1 2519   1.214   1.467   7.160
  689SOL    HW2 2520   1.168   1.525   7.028
  690SOL     OW 2521   0.310   0.956   5.828
  690SOL    HW1 2522   0.396   0.978   5.790
  690SOL    HW2 2523   0.296   0.864   5.803
  691SOL     OW 2524   1.477   0.741   6.316
  691SOL    HW1 2525   1.468   0.698   6.401
  691SOL    HW2 2526   1.554   0.797   6.326
  692SOL     OW 2527   0.465   1.260   7.323
  692SOL    HW1 2528   0.439   1.268   7.231
  692SOL    HW2 2529   0.383   1.265   7.372
  693SOL     OW 2530   1.121   1.779   5.816
  693SOL    HW1 2531   1.050   1.737   5.864
  693SOL    HW2 2532   1.143   1.716   5.747
  694SOL     OW 2533   0.199   0.296   7.084
  694SOL    HW1 2534   0.106   0.317   7.081
  694SOL    HW2 2535   0.206   0.232   7.155
  695SOL     OW 2536   1.631   1.381   5.672
  695SOL    HW1 2537   1.587   1.465   5.657
  695SOL    HW2 2538   1.563   1.315   5.655
  696SOL     OW 2539   0.466   1.739   5.905
  696SOL    HW1 2540   0.508   1.797   5.969
  696SOL    HW2 2541   0.539   1.708   5.850
  697SOL     OW 2542   1.437   0.159   5.991
  697SOL    HW1 2543   1.395   0.093   5.935
  697SOL    HW2 2544   1.514   0.115   6.027
  698SOL     OW 2545   0.250   1.792   6.818
  698SOL    HW1 2546   0.300   1.730   6.873
  698SOL    HW2 2547   0.245   1.749   6.733
  699SOL     OW 2548   0.939   1.698   6.486
  699SOL    HW1 2549   1.020   1.650   6.502
  699SOL    HW2 2550   0.894   1.648   6.417
  700SOL     OW 2551   0.394   0.694   6.059
  700SOL    HW1 2552   0.421   0.604   6.072
  700SOL    HW2 2553   0.302   0.696   6.085
  701SOL     OW 2554   1.531   0.232   7.313
  701SOL    HW1 2555   1.532   0.256   7.405
  701SOL    HW2 2556   1.500   0.141   7.311
  702SOL     OW 2557   0.642   0.136   5.687
  702SOL    HW1 2558   0.674   0.057   5.730
  702SOL    HW2 2559   0.580   0.104   5.621
  703SOL     OW 2560   0.779   0.282   7.349
  703SOL    HW1 2561   0.843   0.212   7.355
  703SOL    HW2 2562   0.717   0.264   7.420
  704SOL     OW 2563   0.875   1.520   6.780
  704SOL    HW1 2564   0.862   1.486   6.692
  704SOL    HW2 2565   0.946   1.467   6.817
  705SOL     OW 2566   1.342   0.587   7.016
  705SOL    HW1 2567   1.372   0.558   7.102
  705SOL    HW2 2568   1.376   0.676   7.008
  706SOL     OW 2569   0.813   1.396   6.524
  706SOL    HW1 2570   0.898   1.385   6.482
  706SOL    HW2 2571   0.750   1.395   6.451
  707SOL     OW 2572   0.929   0.511   6.488
  707SOL    HW1 2573   0.905   0.503   6.396
  707SOL    HW2 2574   0.957   0.423   6.514
  708SOL     OW 2575   0.546   0.056   6.077
  708SOL    HW1 2576   0.471   0.064   6.136
  708SOL    HW2 2577   0.548   0.141   6.031
  709SOL     OW 2578   1.429   1.199   5.628
  709SOL    HW1 2579   1.459   1.122   5.678
  709SOL    HW2 2580   1.343   1.219   5.665
  710SOL     OW 2581   0.334   0.044   5.780
  710SOL    HW1 2582   0.364   0.087   5.700
  710SOL    HW2 2583   0.414   0.027   5.830
  711SOL     OW 2584   0.938   0.246   6.050
  711SOL    HW1 2585   0.911   0.289   5.969
  711SOL    HW2 2586   1.034   0.249   6.047
  712SOL     OW 2587   1.079   0.681   7.045
  712SOL    HW1 2588   1.008   0.617   7.052
  712SOL    HW2 2589   1.159   0.628   7.040
  713SOL     OW 2590   1.215   1.575   6.390
  713SOL    HW1 2591   1.245   1.629   6.317
  713SOL    HW2 2592   1.296   1.540   6.428
  714SOL     OW 2593   0.466   1.149   6.325
  714SOL    HW1 2594   0.393   1.126   6.383
  714SOL    HW2 2595   0.433   1.133   6.237
  715SOL     OW 2596   1.261   1.792   6.185
  715SOL    HW1 2597   1.305   1.860   6.133
  715SOL    HW2 2598   1.196   1.840   6.236
  716SOL     OW 2599   1.025   0.547   5.609
  716SOL    HW1 2600   0.981   0.630   5.590
  716SOL    HW2 2601   1.087   0.568   5.678
  717SOL     OW 2602   0.079   0.570   6.979
  717SOL    HW1 2603   0.168   0.553   6.948
  717SOL    HW2 2604   0.088   0.641   7.042
  718SOL     OW 2605   0.572   0.232   6.746
  718SOL    HW1 2606   0.595   0.139   6.756
  718SOL    HW2 2607   0.481   0.236   6.776
  719SOL     OW 2608   0.872   0.462   6.225
  719SOL    HW1 2609   0.820   0.513   6.164
  719SOL    HW2 2610   0.890   0.380   6.179
  720SOL     OW 2611   0.994   0.042   6.365
  720SOL    HW1 2612   0.961   0.066   6.278
  720SOL    HW2 2613   1.005   3.947   6.361
  721SOL     OW 2614   1.439   1.158   6.445
  721SOL    HW1 2615   1.369   1.093   6.444
  721SOL    HW2 2616   1.457   1.175   6.352
  722SOL     OW 2617   1.467   0.603   6.564
  722SOL    HW1 2618   1.416   0.522   6.570
  722SOL    HW2 2619   1.527   0.599   6.638
  723SOL     OW 2620   1.847   0.820   5.970
  723SOL    HW1 2621   1.902   0.767   6.027
  723SOL    HW2 2622   1.815   0.759   5.903
  724SOL     OW 2623   0.489   1.416   5.748
  724SOL    HW1 2624   0.414   1.385   5.798
  724SOL    HW2 2625   0.468   1.394   5.657
  725SOL     OW 2626   1.670   1.274   6.230
  725SOL    HW1 2627   1.765   1.276   6.243
  725SOL    HW2 2628   1.641   1.362   6.252
  726SOL     OW 2629   1.394   0.573   5.656
  726SOL    HW1 2630   1.332   0.555   5.727
  726SOL    HW2 2631   1.480   0.552   5.693
  727SOL     OW 2632   0.558   0.270   5.906
  727SOL    HW1 2633   0.599   0.229   5.830
  727SOL    HW2 2634   0.529   0.356   5.875
  728SOL     OW 2635   1.748   1.225   7.158
  728SOL    HW1 2636   1.841   1.203   7.147
  728SOL    HW2 2637   1.747   1.318   7.180
  729SOL     OW 2638   1.058   1.351   6.920
  729SOL    HW1 2639   0.983   1.321   6.972
  729SOL    HW2 2640   1.134   1.311   6.962
  730SOL     OW 2641   1.125   1.199   6.693
  730SOL    HW1 2642   1.067   1.240   6.758
  730SOL    HW2 2643   1.094   1.234   6.609
  731SOL     OW 2644   1.632   1.102   6.662
  731SOL    HW1 2645   1.627   1.161   6.738
  731SOL    HW2 2646   1.552   1.119   6.613
  732SOL     OW 2647   0.914   0.110   6.988
  732SOL    HW1 2648   0.933   0.087   6.897
  732SOL    HW2 2649   0.994   0.153   7.019
  733SOL     OW 2650   0.984   1.115   7.309
  733SOL    HW1 2651   0.892   1.131   7.329
  733SOL    HW2 2652   0.984   1.037   7.253
  734SOL     OW 2653   0.708   1.060   5.957
  734SOL    HW1 2654   0.694   1.046   6.051
  734SOL    HW2 2655   0.784   1.007   5.935
  735SOL     OW 2656   0.420   0.815   6.838
  735SOL    HW1 2657   0.489   0.822   6.904
  735SOL    HW2 2658   0.385   0.726   6.848
  736SOL     OW 2659   1.267   0.375   6.861
  736SOL    HW1 2660   1.301   0.453   6.906
  736SOL    HW2 2661   1.180   0.402   6.830
  737SOL     OW 2662   0.064   1.579   6.931
  737SOL    HW1 2663   0.067   1.648   6.864
  737SOL    HW2 2664   0.156   1.566   6.954
  738SOL     OW 2665   0.375   1.102   6.072
  738SOL    HW1 2666   0.367   1.180   6.016
  738SOL    HW2 2667   0.373   1.028   6.011
  739SOL     OW 2668   0.556   0.538   6.446
  739SOL    HW1 2669   0.572   0.595   6.371
  739SOL    HW2 2670   0.620   0.565   6.511
  740SOL     OW 2671   1.246   1.345   5.974
  740SOL    HW1 2672   1.302   1.417   6.003
  740SOL    HW2 2673   1.159   1.366   6.008
  741SOL     OW 2674   1.276   1.446   6.739
  741SOL    HW1 2675   1.337   1.450   6.813
  741SOL    HW2 2676   1.224   1.367   6.755
  742SOL     OW 2677   1.579   0.632   6.070
  742SOL    HW1 2678   1.538   0.691   6.132
  742SOL    HW2 2679   1.624   0.689   6.008
  743SOL     OW 2680   0.346   1.525   6.906
  743SOL    HW1 2681   0.336   1.475   6.825
  743SOL    HW2 2682   0.440   1.541   6.914
  744SOL     OW 2683   0.412   0.740   7.187
  744SOL    HW1 2684   0.473   0.787   7.130
  744SOL    HW2 2685   0.453   0.654   7.201
  745SOL     OW 2686   1.599   0.777   7.268
  745SOL    HW1 2687   1.513   0.819   7.261
  745SOL    HW2 2688   1.652   0.819   7.200
  746SOL     OW 2689   1.020   0.122   7.363
  746SOL    HW1 2690   1.057   0.200   7.323
  746SOL    HW2 2691   1.009   0.060   7.291
  747SOL     OW 2692   0.479   0.036   7.353
  747SOL    HW1 2693   0.492   0.040   7.258
  747SOL    HW2 2694   0.419   0.108   7.372
  748SOL     OW 2695   0.584   0.873   6.617
  748SOL    HW1 2696   0.614   0.964   6.616
  748SOL    HW2 2697   0.528   0.867   6.694
  749SOL     OW 2698   1.359   0.859   6.616
  749SOL    HW1 2699   1.276   0.850   6.570
  749SOL    HW2 2700   1.398   0.771   6.612
  750SOL     OW 2701   1.205   0.534   5.849
  750SOL    HW1 2702   1.213   0.455   5.902
  750SOL    HW2 2703   1.161   0.597   5.907
  751SOL     OW 2704   0.313   0.214   6.827
  751SOL    HW1 2705   0.272   0.249   6.907
  751SOL    HW2 2706   0.294   0.120   6.829
  752SOL     OW 2707   0.056   1.305   6.866
  752SOL    HW1 2708   0.089   1.265   6.946
  752SOL    HW2 2709   0.050   1.398   6.886
  753SOL     OW 2710   0.727   0.634   6.643
  753SOL    HW1 2711   0.799   0.617   6.583
  753SOL    HW2 2712   0.698   0.723   6.620
  754SOL     OW 2713   1.734   0.960   7.440
  754SOL    HW1 2714   1.688   0.904   7.378
  754SOL    HW2 2715   1.672   0.971   7.512
  755SOL     OW 2716   0.325   0.056   6.234
  755SOL    HW1 2717   0.297   0.147   6.236
  755SOL    HW2 2718   0.286   0.017   6.312
  756SOL     OW 2719   1.601   0.387   5.969
  756SOL    HW1 2720   1.576   0.319   6.031
  756SOL    HW2 2721   1.582   0.469   6.013
  757SOL     OW 2722   1.028   0.759   6.547
  757SOL    HW1 2723   1.025   0.777   6.641
  757SOL    HW2 2724   1.001   0.668   6.539
  758SOL     OW 2725   0.978   1.563   7.299
  758SOL    HW1 2726   0.965   1.608   7.215
  758SOL    HW2 2727   1.024   1.483   7.276
  759SOL     OW 2728   0.351   0.920   7.387
  759SOL    HW1 2729   0.430   0.940   7.437
  759SOL    HW2 2730   0.379   0.854   7.324
  760SOL     OW 2731   1.510   0.276   5.722
  760SOL    HW1 2732   1.434   0.219   5.735
  760SOL    HW2 2733   1.524   0.317   5.808
  761SOL     OW 2734   1.293   0.827   5.617
  761SOL    HW1 2735   1.334   0.741   5.620
  761SOL    HW2 2736   1.324   0.866   5.535
  762SOL     OW 2737   1.063   1.333   6.441
  762SOL    HW1 2738   1.067   1.262   6.377
  762SOL    HW2 2739   1.124   1.399   6.408
  763SOL     OW 2740   0.313   0.806   6.537
  763SOL    HW1 2741   0.408   0.823   6.531
  763SOL    HW2 2742   0.307   0.716   6.569
  764SOL     OW 2743   0.337   0.527   6.599
  764SOL    HW1 2744   0.298   0.441   6.581
  764SOL    HW2 2745   0.413   0.531   6.540
  765SOL     OW 2746   1.133   0.382   7.278
  765SOL    HW1 2747   1.086   0.438   7.340
  765SOL    HW2 2748   1.221   0.421   7.273
  766SOL     OW 2749   1.151   0.224   7.067
  766SOL    HW1 2750   1.143   0.279   7.145
  766SOL    HW2 2751   1.173   0.286   6.997
  767SOL     OW 2752   3.999   1.320   5.768
  767SOL    HW1 2753   3.905   1.336   5.772
  767SOL    HW2 2754   0.009   1.227   5.788
  768SOL     OW 2755   0.076   1.801   6.475
  768SOL    HW1 2756   0.077   1.705   6.484
  768SOL    HW2 2757   0.168   1.826   6.479
  769SOL     OW 2758   0.504   1.570   6.496
  769SOL    HW1 2759   0.573   1.631   6.521
  769SOL    HW2 2760   0.547   1.506   6.440
  770SOL     OW 2761   0.985   0.792   6.812
  770SOL    HW1 2762   1.038   0.769   6.888
  770SOL    HW2 2763   0.898   0.756   6.833
  771SOL     OW 2764   0.036   0.566   6.699
  771SOL    HW1 2765   0.103   0.519   6.649
  771SOL    HW2 2766   0.061   0.554   6.791
  772SOL     OW 2767   0.209   0.516   7.307
  772SOL    HW1 2768   0.259   0.481   7.234
  772SOL    HW2 2769   0.159   0.588   7.269
  773SOL     OW 2770   1.377   0.940   7.245
  773SOL    HW1 2771   1.396   1.034   7.245
  773SOL    HW2 2772   1.375   0.916   7.152
  774SOL     OW 2773   0.817   0.572   5.943
  774SOL    HW1 2774   0.822   0.494   5.887
  774SOL    HW2 2775   0.742   0.621   5.911
  775SOL     OW 2776   1.641   0.601   6.772
  775SOL    HW1 2777   1.631   0.542   6.847
  775SOL    HW2 2778   1.729   0.583   6.738
  776SOL     OW 2779   0.296   1.546   7.316
  776SOL    HW1 2780   0.247   1.616   7.358
  776SOL    HW2 2781   0.262   1.465   7.355
  777SOL     OW 2782   0.700   0.457   6.847
  777SOL    HW1 2783   0.653   0.378   6.819
  777SOL    HW2 2784   0.694   0.516   6.771
  778SOL     OW 2785   0.928   1.678   7.052
  778SOL    HW1 2786   0.903   1.646   6.966
  778SOL    HW2 2787   0.927   1.774   7.044
  779SOL     OW 2788   0.458   0.492   5.780
  779SOL    HW1 2789   0.522   0.561   5.797
  779SOL    HW2 2790   0.377   0.539   5.760
  780SOL     OW 2791   0.156   1.136   7.058
  780SOL    HW1 2792   0.161   1.085   7.139
  780SOL    HW2 2793   0.172   1.072   6.988
  781SOL     OW 2794   1.327   1.047   6.810
  781SOL    HW1 2795   1.351   0.985   6.741
  781SOL    HW2 2796   1.255   1.097   6.771
  782SOL     OW 2797   1.311   0.856   5.892
  782SOL    HW1 2798   1.235   0.827   5.943
  782SOL    HW2 2799   1.286   0.843   5.801
  783SOL     OW 2800   1.215   1.711   6.723
  783SOL    HW1 2801   1.304   1.735   6.697
  783SOL    HW2 2802   1.217   1.615   6.730
  784SOL     OW 2803   0.076   1.218   6.613
  784SOL    HW1 2804   0.082   1.243   6.705
  784SOL    HW2 2805   3.983   1.224   6.593
  785SOL     OW 2806   0.679   1.665   7.314
  785SOL    HW1 2807   0.624   1.743   7.308
  785SOL    HW2 2808   0.744   1.675   7.245
  786SOL     OW 2809   1.710   0.128   6.071
  786SOL    HW1 2810   1.790   0.133   6.020
  786SOL    HW2 2811   1.701   0.035   6.093
  787SOL     OW 2812   1.380   1.564   6.060
  787SOL    HW1 2813   1.450   1.595   6.003
  787SOL    HW2 2814   1.337   1.644   6.091
  788SOL     OW 2815   0.172   1.767   7.414
  788SOL    HW1 2816   0.113   1.719   7.472
  788SOL    HW2 2817   0.215   1.831   7.471
  789SOL     OW 2818   1.277   0.925   6.256
  789SOL    HW1 2819   1.351   0.865   6.264
  789SOL    HW2 2820   1.311   0.998   6.205
  790SOL     OW 2821   0.815   1.272   7.018
  790SOL    HW1 2822   0.788   1.312   7.100
  790SOL    HW2 2823   0.745   1.293   6.956
  791SOL     OW 2824   0.671   1.619   5.741
  791SOL    HW1 2825   0.681   1.629   5.647
  791SOL    HW2 2826   0.617   1.540   5.751
  792SOL     OW 2827   1.640   1.725   6.945
  792SOL    HW1 2828   1.693   1.716   6.866
  792SOL    HW2 2829   1.647   1.817   6.970
  793SOL     OW 2830   1.838   0.176   6.554
  793SOL    HW1 2831   1.869   0.102   6.501
  793SOL    HW2 2832   1.751   0.195   6.520
  794SOL     OW 2833   0.272   0.324   6.301
  794SOL    HW1 2834   0.187   0.359   6.277
  794SOL    HW2 2835   0.265   0.306   6.395
  795SOL     OW 2836   1.208   1.607   5.617
  795SOL    HW1 2837   1.198   1.516   5.645
  795SOL    HW2 2838   1.142   1.618   5.548
  796SOL     OW 2839   0.824   1.005   6.958
  796SOL    HW1 2840   0.867   1.002   6.872
  796SOL    HW2 2841   0.824   1.098   6.981
  797SOL     OW 2842   0.915   0.910   5.875
  797SOL    HW1 2843   0.977   0.942   5.810
  797SOL    HW2 2844   0.962   0.840   5.921
  798SOL     OW 2845   1.493   1.628   5.626
  798SOL    HW1 2846   1.399   1.620   5.614
  798SOL    HW2 2847   1.529   1.632   5.537
  799SOL     OW 2848   0.373   1.302   7.078
  799SOL    HW1 2849   0.359   1.382   7.028
  799SOL    HW2 2850   0.296   1.248   7.059
  800SOL     OW 2851   1.620   1.270   6.876
  800SOL    HW1 2852   1.672   1.273   6.957
  800SOL    HW2 2853   1.564   1.348   6.881
  801SOL     OW 2854   1.050   1.106   6.291
  801SOL    HW1 2855   0.980   1.055   6.331
  801SOL    HW2 2856   1.112   1.040   6.259
  802SOL     OW 2857   1.015   0.247   6.553
  802SOL    HW1 2858   1.004   0.197   6.472
  802SOL    HW2 2859   1.008   0.182   6.623
  803SOL     OW 2860   0.604   1.489   6.068
  803SOL    HW1 2861   0.646   1.438   5.998
  803SOL    HW2 2862   0.534   1.537   6.023
  804SOL     OW 2863   1.719   0.391   6.961
  804SOL    HW1 2864   1.790   0.455   6.963
  804SOL    HW2 2865   1.753   0.320   6.906
  805SOL     OW 2866   0.252   1.342   5.877
  805SOL    HW1 2867   0.160   1.352   5.856
  805SOL    HW2 2868   0.262   1.380   5.964
  806SOL     OW 2869   0.105   1.001   7.304
  806SOL    HW1 2870   0.044   0.990   7.377
  806SOL    HW2 2871   0.191   0.980   7.341
  807SOL     OW 2872   0.693   0.243   7.082
  807SOL    HW1 2873   0.763   0.191   7.042
  807SOL    HW2 2874   0.719   0.251   7.174
  808SOL     OW 2875   0.088   0.326   5.614
  808SOL    HW1 2876   3.993   0.321   5.609
  808SOL    HW2 2877   0.110   0.408   5.570
  809SOL     OW 2878   1.430   0.857   6.986
  809SOL    HW1 2879   1.382   0.919   6.930
  809SOL    HW2 2880   1.520   0.861   6.955
  810SOL     OW 2881   0.039   0.162   5.869
  810SOL    HW1 2882   0.037   0.243   5.818
  810SOL    HW2 2883   0.120   0.168   5.921
  811SOL     OW 2884   1.179   1.341   5.703
  811SOL    HW1 2885   1.089   1.310   5.706
  811SOL    HW2 2886   1.208   1.340   5.794
  812SOL     OW 2887   0.619   0.830   7.021
  812SOL    HW1 2888   0.675   0.906   7.005
  812SOL    HW2 2889   0.680   0.756   7.029
  813SOL     OW 2890   0.716   0.564   7.294
  813SOL    HW1 2891   0.757   0.627   7.352
  813SOL    HW2 2892   0.749   0.479   7.323
  814SOL     OW 2893   1.468   1.204   7.217
  814SOL    HW1 2894   1.458   1.214   7.312
  814SOL    HW2 2895   1.563   1.209   7.202
  815SOL     OW 2896   0.380   1.742   7.145
  815SOL    HW1 2897   0.293   1.779   7.132
  815SOL    HW2 2898   0.365   1.660   7.193
  816SOL     OW 2899   1.671   0.882   6.841
  816SOL    HW1 2900   1.663   0.797   6.798
  816SOL    HW2 2901   1.661   0.946   6.770
  817SOL     OW 2902   1.225   0.333   6.032
  817SOL    HW1 2903   1.291   0.265   6.024
  817SOL    HW2 2904   1.247   0.378   6.113
  818SOL     OW 2905   0.592   0.740   6.254
  818SOL    HW1 2906   0.629   0.826   6.238
  818SOL    HW2 2907   0.522   0.731   6.189
  819SOL     OW 2908   1.755   0.380   7.229
  819SOL    HW1 2909   1.737   0.385   7.135
  819SOL    HW2 2910   1.696   0.311   7.261
  820SOL     OW 2911   1.740   0.933   7.100
  820SOL    HW1 2912   1.744   1.028   7.115
  820SOL    HW2 2913   1.728   0.925   7.005
  821SOL     OW 2914   0.862   1.367   5.618
  821SOL    HW1 2915   0.824   1.394   5.702
  821SOL    HW2 2916   0.881   1.450   5.573
  822SOL     OW 2917   0.660   1.791   6.531
  822SOL    HW1 2918   0.640   1.882   6.508
  822SOL    HW2 2919   0.756   1.786   6.525
  823SOL     OW 2920   0.867   0.966   6.441
  823SOL    HW1 2921   0.918   0.895   6.481
  823SOL    HW2 2922   0.833   1.016   6.515
  824SOL     OW 2923   1.079   0.988   5.674
  824SOL    HW1 2924   1.058   1.039   5.596
  824SOL    HW2 2925   1.154   0.935   5.649
  825SOL     OW 2926   0.223   1.304   7.441
  825SOL    HW1 2927   0.153   1.244   7.416
  825SOL    HW2 2928   0.210   1.317   7.535
  826SOL     OW 2929   0.113   1.274   6.302
  826SOL    HW1 2930   0.121   1.223   6.383
  826SOL    HW2 2931   0.111   1.208   6.232
  827SOL     OW 2932   0.679   1.402   7.213
  827SOL    HW1 2933   0.599   1.359   7.243
  827SOL    HW2 2934   0.675   1.490   7.250
  828SOL     OW 2935   1.813   0.184   6.825
  828SOL    HW1 2936   1.816   0.089   6.839
  828SOL    HW2 2937   1.827   0.195   6.731
  829SOL     OW 2938   0.441   0.436   6.116
  829SOL    HW1 2939   0.453   0.361   6.057
  829SOL    HW2 2940   0.386   0.402   6.187
  830SOL     OW 2941   0.330   0.554   6.877
  830SOL    HW1 2942   0.386   0.498   6.931
  830SOL    HW2 2943   0.346   0.526   6.787
  831SOL     OW 2944   0.826   1.578   6.264
  831SOL    HW1 2945   0.817   1.629   6.184
  831SOL    HW2 2946   0.749   1.522   6.266
  832SOL     OW 2947   1.461   0.251   6.697
  832SOL    HW1 2948   1.477   0.164   6.734
  832SOL    HW2 2949   1.403   0.293   6.761
  833SOL     OW 2950   1.006   0.030   6.733
  833SOL    HW1 2951   0.930   3.980   6.703
  833SOL    HW2 2952   1.076   3.965   6.741
  834SOL     OW 2953   0.772   1.332   5.898
  834SOL    HW1 2954   0.740   1.242   5.905
  834SOL    HW2 2955   0.853   1.333   5.948
  835SOL     OW 2956   0.619   1.558   6.870
  835SOL    HW1 2957   0.623   1.639   6.920
  835SOL    HW2 2958   0.707   1.549   6.833
  836SOL     OW 2959   1.315   0.074   5.749
  836SOL    HW1 2960   1.334   0.004   5.686
  836SOL    HW2 2961   1.230   0.050   5.786
  837SOL     OW 2962   1.286   0.458   6.273
  837SOL    HW1 2963   1.237   0.540   6.270
  837SOL    HW2 2964   1.289   0.436   6.366
  838SOL     OW 2965   1.588   0.211   6.453
  838SOL    HW1 2966   1.538   0.232   6.532
  838SOL    HW2 2967   1.588   0.291   6.401
  839SOL     OW 2968   0.045   1.052   5.826
  839SOL    HW1 2969   0.139   1.035   5.817
  839SOL    HW2 2970   0.010   0.972   5.866
  840SOL     OW 2971   0.883   1.652   5.929
  840SOL    HW1 2972   0.811   1.634   5.869
  840SOL    HW2 2973   0.854   1.727   5.980
  841SOL     OW 2974   0.232   0.624   7.567
  841SOL    HW1 2975   0.139   0.630   7.589
  841SOL    HW2 2976   0.234   0.596   7.476
  842SOL     OW 2977   0.225   0.286   8.432
  842SOL    HW1 2978   0.249   0.250   8.517
  842SOL    HW2 2979   0.131   0.269   8.423
  843SOL     OW 2980   0.018   0.387   8.082
  843SOL    HW1 2981   3.929   0.397   8.118
  843SOL    HW2 2982   0.025   0.294   8.062
  844SOL     OW 2983   0.576   1.282   8.630
  844SOL    HW1 2984   0.489   1.286   8.590
  844SOL    HW2 2985   0.591   1.370   8.664
  845SOL     OW 2986   1.564   1.512   8.159
  845SOL    HW1 2987   1.518   1.493   8.241
  845SOL    HW2 2988   1.494   1.519   8.094
  846SOL     OW 2989   1.132   0.698   8.150
  846SOL    HW1 2990   1.180   0.780   8.136
  846SOL    HW2 2991   1.084   0.712   8.232
  847SOL     OW 2992   1.759   0.617   7.676
  847SOL    HW1 2993   1.742   0.609   7.582
  847SOL    HW2 2994   1.751   0.527   7.709
  848SOL     OW 2995   0.759   1.142   8.487
  848SOL    HW1 2996   0.691   1.176   8.546
  848SOL    HW2 2997   0.792   1.220   8.442
  849SOL     OW 2998   0.865   0.777   9.270
  849SOL    HW1 2999   0.854   0.849   9.332
  849SOL    HW2 3000   0.888   0.820   9.188
  850SOL     OW 3001   0.686   1.006   8.096
  850SOL    HW1 3002   0.751   0.992   8.165
  850SOL    HW2 3003   0.616   1.056   8.138
  851SOL     OW 3004   0.709   1.150   9.260
  851SOL    HW1 3005   0.757   1.229   9.285
  851SOL    HW2 3006   0.626   1.183   9.225
  852SOL     OW 3007   0.351   1.403   8.527
  852SOL    HW1 3008   0.269   1.386   8.480
  852SOL    HW2 3009   0.399   1.462   8.469
  853SOL     OW 3010   1.462   1.499   8.801
  853SOL    HW1 3011   1.510   1.581   8.810
  853SOL    HW2 3012   1.402   1.497   8.876
  854SOL     OW 3013   0.453   0.407   8.947
  854SOL    HW1 3014   0.533   0.355   8.943
  854SOL    HW2 3015   0.382   0.342   8.949
  855SOL     OW 3016   1.613   0.450   8.183
  855SOL    HW1 3017   1.540   0.481   8.129
  855SOL    HW2 3018   1.635   0.526   8.238
  856SOL     OW 3019   0.223   1.716   7.908
  856SOL    HW1 3020   0.241   1.792   7.965
  856SOL    HW2 3021   0.300   1.709   7.852
  857SOL     OW 3022   1.136   1.341   9.140
  857SOL    HW1 3023   1.176   1.337   9.227
  857SOL    HW2 3024   1.084   1.261   9.134
  858SOL     OW 3025   0.245   1.447   7.987
  858SOL    HW1 3026   0.215   1.537   7.974
  858SOL    HW2 3027   0.176   1.405   8.039
  859SOL     OW 3028   0.246   1.070   8.333
  859SOL    HW1 3029   0.264   0.985   8.375
  859SOL    HW2 3030   0.194   1.118   8.397
  860SOL     OW 3031   0.614   1.791   8.879
  860SOL    HW1 3032   0.531   1.773   8.923
  860SOL    HW2 3033   0.636   1.881   8.903
  861SOL     OW 3034   0.582   0.983   7.583
  861SOL    HW1 3035   0.628   1.030   7.514
  861SOL    HW2 3036   0.625   1.012   7.664
  862SOL     OW 3037   1.578   0.136   8.905
  862SOL    HW1 3038   1.603   0.210   8.850
  862SOL    HW2 3039   1.555   0.176   8.989
  863SOL     OW 3040   0.138   0.649   8.018
  863SOL    HW1 3041   0.094   0.564   8.023
  863SOL    HW2 3042   0.101   0.699   8.090
  864SOL     OW 3043   0.043   1.591   7.588
  864SOL    HW1 3044   0.032   1.498   7.609
  864SOL    HW2 3045   3.965   1.633   7.622
  865SOL     OW 3046   1.689   0.919   8.088
  865SOL    HW1 3047   1.773   0.876   8.068
  865SOL    HW2 3048   1.668   0.969   8.009
  866SOL     OW 3049   1.646   1.108   7.877
  866SOL    HW1 3050   1.734   1.108   7.838
  866SOL    HW2 3051   1.652   1.169   7.951
  867SOL     OW 3052   0.134   0.753   9.038
  867SOL    HW1 3053   0.230   0.747   9.041
  867SOL    HW2 3054   0.115   0.846   9.055
  868SOL     OW 3055   0.612   1.384   8.184
  868SOL    HW1 3056   0.566   1.300   8.193
  868SOL    HW2 3057   0.596   1.410   8.093
  869SOL     OW 3058   1.289   1.239   8.872
  869SOL    HW1 3059   1.322   1.171   8.812
  869SOL    HW2 3060   1.346   1.232   8.948
  870SOL     OW 3061   0.816   0.002   7.962
  870SOL    HW1 3062   0.862   0.083   7.941
  870SOL    HW2 3063   0.724   0.025   7.964
  871SOL     OW 3064   0.186   0.954   8.723
  871SOL    HW1 3065   0.274   0.919   8.710
  871SOL    HW2 3066   0.131   0.908   8.659
  872SOL     OW 3067   1.533   0.993   7.647
  872SOL    HW1 3068   1.462   0.936   7.676
  872SOL    HW2 3069   1.572   1.026   7.727
  873SOL     OW 3070   1.185   1.805   9.070
  873SOL    HW1 3071   1.198   1.864   8.995
  873SOL    HW2 3072   1.201   1.718   9.035
  874SOL     OW 3073   0.340   0.254   9.273
  874SOL    HW1 3074   0.385   0.337   9.260
  874SOL    HW2 3075   0.250   0.278   9.294
  875SOL     OW 3076   1.465   1.419   8.401
  875SOL    HW1 3077   1.397   1.434   8.466
  875SOL    HW2 3078   1.453   1.328   8.373
  876SOL     OW 3079   1.678   1.719   8.017
  876SOL    HW1 3080   1.631   1.686   7.941
  876SOL    HW2 3081   1.654   1.659   8.088
  877SOL     OW 3082   0.596   0.719   7.711
  877SOL    HW1 3083   0.603   0.802   7.663
  877SOL    HW2 3084   0.533   0.738   7.781
  878SOL     OW 3085   1.276   0.364   8.388
  878SOL    HW1 3086   1.189   0.324   8.393
  878SOL    HW2 3087   1.333   0.302   8.435
  879SOL     OW 3088   0.795   0.616   8.903
  879SOL    HW1 3089   0.765   0.592   8.990
  879SOL    HW2 3090   0.754   0.552   8.845
  880SOL     OW 3091   1.393   0.477   9.125
  880SOL    HW1 3092   1.396   0.521   9.210
  880SOL    HW2 3093   1.453   0.403   9.134
  881SOL     OW 3094   0.956   0.888   9.030
  881SOL    HW1 3095   1.010   0.818   8.995
  881SOL    HW2 3096   0.908   0.921   8.954
  882SOL     OW 3097   0.991   0.404   8.689
  882SOL    HW1 3098   0.908   0.429   8.731
  882SOL    HW2 3099   0.965   0.371   8.603
  883SOL     OW 3100   1.051   0.698   7.875
  883SOL    HW1 3101   1.065   0.691   7.969
  883SOL    HW2 3102   0.969   0.652   7.859
  884SOL     OW 3103   0.081   0.824   8.239
  884SOL    HW1 3104   0.160   0.794   8.284
  884SOL    HW2 3105   0.092   0.919   8.231
  885SOL     OW 3106   0.129   1.855   9.021
  885SOL    HW1 3107   0.137   1.822   9.110
  885SOL    HW2 3108   0.037   1.843   8.998
  886SOL     OW 3109   0.892   0.350   7.646
  886SOL    HW1 3110   0.933   0.409   7.583
  886SOL    HW2 3111   0.895   0.264   7.604
  887SOL     OW 3112   1.711   0.576   9.276
  887SOL    HW1 3113   1.672   0.650   9.230
  887SOL    HW2 3114   1.735   0.514   9.207
  888SOL     OW 3115   1.377   1.142   7.990
  888SOL    HW1 3116   1.455   1.129   7.936
  888SOL    HW2 3117   1.323   1.203   7.940
  889SOL     OW 3118   0.559   0.195   8.330
  889SOL    HW1 3119   0.562   0.216   8.424
  889SOL    HW2 3120   0.547   0.279   8.287
  890SOL     OW 3121   1.008   1.446   7.922
  890SOL    HW1 3122   0.969   1.517   7.871
  890SOL    HW2 3123   0.989   1.468   8.013
  891SOL     OW 3124   0.364   1.812   8.314
  891SOL    HW1 3125   0.429   1.742   8.319
  891SOL    HW2 3126   0.415   1.892   8.329
  892SOL     OW 3127   1.798   1.060   8.314
  892SOL    HW1 3128   1.743   1.040   8.238
  892SOL    HW2 3129   1.738   1.065   8.388
  893SOL     OW 3130   1.228   1.539   8.961
  893SOL    HW1 3131   1.214   1.466   9.021
  893SOL    HW2 3132   1.166   1.524   8.890
  894SOL     OW 3133   0.311   0.955   7.690
  894SOL    HW1 3134   0.395   0.978   7.652
  894SOL    HW2 3135   0.296   0.864   7.664
  895SOL     OW 3136   1.477   0.742   8.178
  895SOL    HW1 3137   1.468   0.698   8.262
  895SOL    HW2 3138   1.555   0.797   8.188
  896SOL     OW 3139   0.465   1.260   9.185
  896SOL    HW1 3140   0.439   1.268   9.093
  896SOL    HW2 3141   0.383   1.265   9.234
  897SOL     OW 3142   1.139   1.769   7.699
  897SOL    HW1 3143   1.057   1.733   7.732
  897SOL    HW2 3144   1.154   1.723   7.616
  898SOL     OW 3145   0.199   0.296   8.946
  898SOL    HW1 3146   0.106   0.317   8.943
  898SOL    HW2 3147   0.206   0.232   9.017
  899SOL     OW 3148   0.467   1.739   7.767
  899SOL    HW1 3149   0.508   1.797   7.830
  899SOL    HW2 3150   0.539   1.708   7.712
  900SOL     OW 3151   1.436   0.158   7.854
  900SOL    HW1 3152   1.396   0.094   7.796
  900SOL    HW2 3153   1.514   0.114   7.888
  901SOL     OW 3154   0.250   1.792   8.680
  901SOL    HW1 3155   0.299   1.729   8.734
  901SOL    HW2 3156   0.245   1.750   8.594
  902SOL     OW 3157   0.937   1.698   8.348
  902SOL    HW1 3158   1.015   1.646   8.368
  902SOL    HW2 3159   0.893   1.649   8.278
  903SOL     OW 3160   0.394   0.694   7.921
  903SOL    HW1 3161   0.421   0.604   7.935
  903SOL    HW2 3162   0.302   0.696   7.947
  904SOL     OW 3163   1.531   0.232   9.175
  904SOL    HW1 3164   1.531   0.256   9.267
  904SOL    HW2 3165   1.501   0.141   9.173
  905SOL     OW 3166   0.642   0.136   7.549
  905SOL    HW1 3167   0.674   0.056   7.591
  905SOL    HW2 3168   0.580   0.104   7.483
  906SOL     OW 3169   0.779   0.282   9.211
  906SOL    HW1 3170   0.843   0.212   9.217
  906SOL    HW2 3171   0.717   0.264   9.282
  907SOL     OW 3172   0.876   1.521   8.642
  907SOL    HW1 3173   0.861   1.485   8.554
  907SOL    HW2 3174   0.946   1.467   8.678
  908SOL     OW 3175   1.342   0.587   8.878
  908SOL    HW1 3176   1.372   0.558   8.964
  908SOL    HW2 3177   1.376   0.676   8.870
  909SOL     OW 3178   0.814   1.396   8.385
  909SOL    HW1 3179   0.898   1.385   8.342
  909SOL    HW2 3180   0.750   1.395   8.314
  910SOL     OW 3181   0.929   0.511   8.350
  910SOL    HW1 3182   0.905   0.503   8.258
  910SOL    HW2 3183   0.957   0.423   8.375
  911SOL     OW 3184   0.546   0.057   7.939
  911SOL    HW1 3185   0.471   0.064   7.998
  911SOL    HW2 3186   0.548   0.141   7.893
  912SOL     OW 3187   1.430   1.196   7.483
  912SOL    HW1 3188   1.461   1.124   7.539
  912SOL    HW2 3189   1.349   1.225   7.526
  913SOL     OW 3190   0.334   0.045   7.643
  913SOL    HW1 3191   0.363   0.087   7.562
  913SOL    HW2 3192   0.414   0.026   7.691
  914SOL     OW 3193   0.938   0.247   7.912
  914SOL    HW1 3194   0.910   0.289   7.831
  914SOL    HW2 3195   1.034   0.248   7.909
  915SOL     OW 3196   1.079   0.681   8.907
  915SOL    HW1 3197   1.008   0.617   8.914
  915SOL    HW2 3198   1.159   0.627   8.902
  916SOL     OW 3199   1.225   1.569   8.241
  916SOL    HW1 3200   1.241   1.639   8.177
  916SOL    HW2 3201   1.292   1.583   8.308
  917SOL     OW 3202   0.466   1.149   8.187
  917SOL    HW1 3203   0.393   1.126   8.244
  917SOL    HW2 3204   0.433   1.133   8.099
  918SOL     OW 3205   1.271   1.793   8.055
  918SOL    HW1 3206   1.312   1.854   7.993
  918SOL    HW2 3207   1.204   1.845   8.099
  919SOL     OW 3208   1.024   0.547   7.471
  919SOL    HW1 3209   0.981   0.630   7.452
  919SOL    HW2 3210   1.088   0.568   7.540
  920SOL     OW 3211   0.079   0.570   8.841
  920SOL    HW1 3212   0.168   0.553   8.810
  920SOL    HW2 3213   0.088   0.641   8.904
  921SOL     OW 3214   0.572   0.232   8.608
  921SOL    HW1 3215   0.595   0.139   8.618
  921SOL    HW2 3216   0.481   0.236   8.638
  922SOL     OW 3217   0.872   0.462   8.087
  922SOL    HW1 3218   0.820   0.513   8.025
  922SOL    HW2 3219   0.890   0.380   8.041
  923SOL     OW 3220   0.994   0.042   8.227
  923SOL    HW1 3221   0.962   0.066   8.140
  923SOL    HW2 3222   1.005   3.947   8.223
  924SOL     OW 3223   1.436   1.163   8.305
  924SOL    HW1 3224   1.367   1.096   8.305
  924SOL    HW2 3225   1.458   1.174   8.212
  925SOL     OW 3226   1.466   0.604   8.427
  925SOL    HW1 3227   1.416   0.523   8.432
  925SOL    HW2 3228   1.527   0.599   8.500
  926SOL     OW 3229   1.845   0.816   7.834
  926SOL    HW1 3230   1.902   0.763   7.890
  926SOL    HW2 3231   1.814   0.756   7.767
  927SOL     OW 3232   0.489   1.416   7.610
  927SOL    HW1 3233   0.414   1.384   7.660
  927SOL    HW2 3234   0.469   1.394   7.519
  928SOL     OW 3235   1.673   1.267   8.093
  928SOL    HW1 3236   1.767   1.272   8.107
  928SOL    HW2 3237   1.640   1.353   8.118
  929SOL     OW 3238   1.394   0.573   7.518
  929SOL    HW1 3239   1.333   0.554   7.589
  929SOL    HW2 3240   1.480   0.553   7.555
  930SOL     OW 3241   0.558   0.270   7.768
  930SOL    HW1 3242   0.598   0.229   7.692
  930SOL    HW2 3243   0.529   0.356   7.737
  931SOL     OW 3244   1.753   1.238   9.023
  931SOL    HW1 3245   1.840   1.199   9.020
  931SOL    HW2 3246   1.767   1.328   9.052
  932SOL     OW 3247   1.059   1.354   8.782
  932SOL    HW1 3248   0.984   1.323   8.833
  932SOL    HW2 3249   1.135   1.312   8.823
  933SOL     OW 3250   1.606   1.625   9.100
  933SOL    HW1 3251   1.603   1.661   9.012
  933SOL    HW2 3252   1.690   1.579   9.104
  934SOL     OW 3253   1.128   1.203   8.554
  934SOL    HW1 3254   1.069   1.240   8.619
  934SOL    HW2 3255   1.094   1.234   8.470
  935SOL     OW 3256   1.630   1.099   8.525
  935SOL    HW1 3257   1.625   1.160   8.599
  935SOL    HW2 3258   1.550   1.115   8.475
  936SOL     OW 3259   0.914   0.110   8.850
  936SOL    HW1 3260   0.933   0.086   8.760
  936SOL    HW2 3261   0.994   0.153   8.881
  937SOL     OW 3262   0.984   1.115   9.171
  937SOL    HW1 3263   0.892   1.130   9.191
  937SOL    HW2 3264   0.983   1.037   9.115
  938SOL     OW 3265   0.707   1.060   7.819
  938SOL    HW1 3266   0.694   1.046   7.913
  938SOL    HW2 3267   0.784   1.007   7.797
  939SOL     OW 3268   0.420   0.815   8.700
  939SOL    HW1 3269   0.489   0.822   8.766
  939SOL    HW2 3270   0.385   0.727   8.710
  940SOL     OW 3271   1.266   0.375   8.723
  940SOL    HW1 3272   1.301   0.453   8.768
  940SOL    HW2 3273   1.180   0.402   8.692
  941SOL     OW 3274   0.064   1.579   8.793
  941SOL    HW1 3275   0.066   1.647   8.725
  941SOL    HW2 3276   0.156   1.566   8.816
  942SOL     OW 3277   0.375   1.103   7.934
  942SOL    HW1 3278   0.368   1.180   7.878
  942SOL    HW2 3279   0.373   1.029   7.873
  943SOL     OW 3280   0.556   0.538   8.308
  943SOL    HW1 3281   0.572   0.595   8.233
  943SOL    HW2 3282   0.620   0.566   8.373
  944SOL     OW 3283   1.249   1.347   7.840
  944SOL    HW1 3284   1.305   1.418   7.873
  944SOL    HW2 3285   1.161   1.370   7.871
  945SOL     OW 3286   1.279   1.457   8.595
  945SOL    HW1 3287   1.335   1.459   8.672
  945SOL    HW2 3288   1.224   1.380   8.607
  946SOL     OW 3289   1.579   0.631   7.932
  946SOL    HW1 3290   1.537   0.692   7.993
  946SOL    HW2 3291   1.625   0.687   7.869
  947SOL     OW 3292   0.346   1.525   8.768
  947SOL    HW1 3293   0.336   1.475   8.687
  947SOL    HW2 3294   0.440   1.541   8.775
  948SOL     OW 3295   0.412   0.740   9.049
  948SOL    HW1 3296   0.473   0.786   8.992
  948SOL    HW2 3297   0.453   0.654   9.062
  949SOL     OW 3298   1.600   0.778   9.130
  949SOL    HW1 3299   1.514   0.819   9.122
  949SOL    HW2 3300   1.652   0.819   9.061
  950SOL     OW 3301   1.020   0.122   9.225
  950SOL    HW1 3302   1.057   0.200   9.184
  950SOL    HW2 3303   1.009   0.060   9.153
  951SOL     OW 3304   0.479   0.036   9.215
  951SOL    HW1 3305   0.492   0.040   9.120
  951SOL    HW2 3306   0.419   0.108   9.234
  952SOL     OW 3307   0.584   0.873   8.479
  952SOL    HW1 3308   0.613   0.964   8.478
  952SOL    HW2 3309   0.527   0.867   8.556
  953SOL     OW 3310   1.359   0.859   8.479
  953SOL    HW1 3311   1.276   0.850   8.431
  953SOL    HW2 3312   1.398   0.772   8.475
  954SOL     OW 3313   1.205   0.534   7.712
  954SOL    HW1 3314   1.213   0.455   7.765
  954SOL    HW2 3315   1.161   0.597   7.769
  955SOL     OW 3316   0.313   0.214   8.689
  955SOL    HW1 3317   0.272   0.248   8.769
  955SOL    HW2 3318   0.294   0.120   8.691
  956SOL     OW 3319   0.057   1.305   8.728
  956SOL    HW1 3320   0.090   1.265   8.809
  956SOL    HW2 3321   0.050   1.398   8.748
  957SOL     OW 3322   0.727   0.634   8.505
  957SOL    HW1 3323   0.799   0.617   8.445
  957SOL    HW2 3324   0.698   0.723   8.482
  958SOL     OW 3325   1.734   0.959   9.300
  958SOL    HW1 3326   1.687   0.900   9.241
  958SOL    HW2 3327   1.675   0.972   9.374
  959SOL     OW 3328   0.326   0.056   8.096
  959SOL    HW1 3329   0.297   0.147   8.098
  959SOL    HW2 3330   0.286   0.017   8.174
  960SOL     OW 3331   1.600   0.386   7.831
  960SOL    HW1 3332   1.575   0.319   7.894
  960SOL    HW2 3333   1.581   0.469   7.875
  961SOL     OW 3334   1.028   0.760   8.409
  961SOL    HW1 3335   1.025   0.777   8.503
  961SOL    HW2 3336   1.001   0.668   8.400
  962SOL     OW 3337   0.983   1.566   9.164
  962SOL    HW1 3338   0.967   1.610   9.081
  962SOL    HW2 3339   1.026   1.484   9.140
  963SOL     OW 3340   1.855   1.506   9.054
  963SOL    HW1 3341   1.871   1.534   8.964
  963SOL    HW2 3342   1.938   1.519   9.099
  964SOL     OW 3343   0.351   0.920   9.249
  964SOL    HW1 3344   0.430   0.940   9.299
  964SOL    HW2 3345   0.379   0.854   9.186
  965SOL     OW 3346   1.510   0.275   7.584
  965SOL    HW1 3347   1.434   0.219   7.597
  965SOL    HW2 3348   1.524   0.317   7.669
  966SOL     OW 3349   1.293   0.827   7.480
  966SOL    HW1 3350   1.335   0.741   7.482
  966SOL    HW2 3351   1.324   0.867   7.399
  967SOL     OW 3352   1.065   1.336   8.301
  967SOL    HW1 3353   1.068   1.263   8.239
  967SOL    HW2 3354   1.127   1.399   8.266
  968SOL     OW 3355   0.313   0.806   8.399
  968SOL    HW1 3356   0.407   0.822   8.392
  968SOL    HW2 3357   0.307   0.716   8.431
  969SOL     OW 3358   0.337   0.527   8.461
  969SOL    HW1 3359   0.298   0.442   8.443
  969SOL    HW2 3360   0.413   0.531   8.402
  970SOL     OW 3361   1.134   0.383   9.140
  970SOL    HW1 3362   1.086   0.438   9.202
  970SOL    HW2 3363   1.221   0.421   9.135
  971SOL     OW 3364   1.151   0.224   8.929
  971SOL    HW1 3365   1.143   0.279   9.007
  971SOL    HW2 3366   1.173   0.285   8.859
  972SOL     OW 3367   3.999   1.320   7.631
  972SOL    HW1 3368   3.905   1.336   7.634
  972SOL    HW2 3369   0.009   1.227   7.650
  973SOL     OW 3370   0.076   1.801   8.338
  973SOL    HW1 3371   0.078   1.705   8.346
  973SOL    HW2 3372   0.169   1.826   8.341
  974SOL     OW 3373   0.504   1.570   8.358
  974SOL    HW1 3374   0.573   1.631   8.383
  974SOL    HW2 3375   0.547   1.507   8.301
  975SOL     OW 3376   0.985   0.792   8.675
  975SOL    HW1 3377   1.038   0.769   8.751
  975SOL    HW2 3378   0.898   0.755   8.694
  976SOL     OW 3379   0.036   0.566   8.561
  976SOL    HW1 3380   0.103   0.519   8.511
  976SOL    HW2 3381   0.062   0.554   8.653
  977SOL     OW 3382   0.209   0.516   9.169
  977SOL    HW1 3383   0.259   0.481   9.096
  977SOL    HW2 3384   0.159   0.588   9.131
  978SOL     OW 3385   1.376   0.940   9.107
  978SOL    HW1 3386   1.398   1.033   9.105
  978SOL    HW2 3387   1.374   0.914   9.014
  979SOL     OW 3388   0.817   0.572   7.805
  979SOL    HW1 3389   0.822   0.495   7.749
  979SOL    HW2 3390   0.742   0.621   7.773
  980SOL     OW 3391   1.642   0.602   8.635
  980SOL    HW1 3392   1.632   0.541   8.709
  980SOL    HW2 3393   1.729   0.583   8.601
  981SOL     OW 3394   0.297   1.546   9.179
  981SOL    HW1 3395   0.247   1.616   9.221
  981SOL    HW2 3396   0.262   1.465   9.216
  982SOL     OW 3397   0.700   0.457   8.709
  982SOL    HW1 3398   0.653   0.378   8.682
  982SOL    HW2 3399   0.694   0.516   8.633
  983SOL     OW 3400   0.929   1.679   8.915
  983SOL    HW1 3401   0.903   1.646   8.829
  983SOL    HW2 3402   0.925   1.774   8.906
  984SOL     OW 3403   0.458   0.492   7.642
  984SOL    HW1 3404   0.522   0.561   7.659
  984SOL    HW2 3405   0.377   0.539   7.622
  985SOL     OW 3406   0.157   1.136   8.920
  985SOL    HW1 3407   0.161   1.085   9.001
  985SOL    HW2 3408   0.172   1.073   8.850
  986SOL     OW 3409   1.327   1.048   8.672
  986SOL    HW1 3410   1.351   0.984   8.604
  986SOL    HW2 3411   1.256   1.099   8.633
  987SOL     OW 3412   1.311   0.856   7.755
  987SOL    HW1 3413   1.233   0.827   7.804
  987SOL    HW2 3414   1.287   0.844   7.663
  988SOL     OW 3415   1.742   1.739   8.584
  988SOL    HW1 3416   1.817   1.762   8.529
  988SOL    HW2 3417   1.728   1.646   8.568
  989SOL     OW 3418   1.243   1.733   8.561
  989SOL    HW1 3419   1.325   1.753   8.516
  989SOL    HW2 3420   1.247   1.640   8.580
  990SOL     OW 3421   0.076   1.218   8.475
  990SOL    HW1 3422   0.082   1.243   8.567
  990SOL    HW2 3423   3.983   1.224   8.454
  991SOL     OW 3424   0.679   1.665   9.176
  991SOL    HW1 3425   0.623   1.743   9.171
  991SOL    HW2 3426   0.742   1.676   9.105
  992SOL     OW 3427   1.710   0.128   7.933
  992SOL    HW1 3428   1.791   0.133   7.882
  992SOL    HW2 3429   1.701   0.035   7.955
  993SOL     OW 3430   1.396   1.569   7.937
  993SOL    HW1 3431   1.418   1.596   7.848
  993SOL    HW2 3432   1.344   1.641   7.971
  994SOL     OW 3433   0.172   1.767   9.276
  994SOL    HW1 3434   0.113   1.719   9.334
  994SOL    HW2 3435   0.214   1.831   9.333
  995SOL     OW 3436   1.277   0.926   8.119
  995SOL    HW1 3437   1.350   0.865   8.126
  995SOL    HW2 3438   1.311   0.998   8.067
  996SOL     OW 3439   0.816   1.273   8.879
  996SOL    HW1 3440   0.788   1.312   8.962
  996SOL    HW2 3441   0.745   1.292   8.818
  997SOL     OW 3442   0.671   1.619   7.604
  997SOL    HW1 3443   0.681   1.630   7.509
  997SOL    HW2 3444   0.617   1.540   7.613
  998SOL     OW 3445   1.629   1.728   8.839
  998SOL    HW1 3446   1.672   1.735   8.754
  998SOL    HW2 3447   1.616   1.819   8.867
  999SOL     OW 3448   1.838   0.176   8.416
  999SOL    HW1 3449   1.869   0.102   8.363
  999SOL    HW2 3450   1.751   0.195   8.382
 1000SOL     OW 3451   0.272   0.324   8.163
 1000SOL    HW1 3452   0.187   0.359   8.138
 1000SOL    HW2 3453   0.265   0.306   8.257
 1001SOL     OW 3454   1.187   1.614   7.483
 1001SOL    HW1 3455   1.198   1.521   7.504
 1001SOL    HW2 3456   1.125   1.616   7.411
 1002SOL     OW 3457   0.824   1.005   8.820
 1002SOL    HW1 3458   0.866   1.002   8.735
 1002SOL    HW2 3459   0.824   1.098   8.843
 1003SOL     OW 3460   0.915   0.910   7.738
 1003SOL    HW1 3461   0.976   0.942   7.672
 1003SOL    HW2 3462   0.963   0.840   7.783
 1004SOL     OW 3463   0.373   1.302   8.939
 1004SOL    HW1 3464   0.358   1.383   8.889
 1004SOL    HW2 3465   0.296   1.248   8.922
 1005SOL     OW 3466   1.611   1.283   8.729
 1005SOL    HW1 3467   1.670   1.273   8.804
 1005SOL    HW2 3468   1.551   1.352   8.755
 1006SOL     OW 3469   1.051   1.107   8.155
 1006SOL    HW1 3470   0.980   1.055   8.193
 1006SOL    HW2 3471   1.112   1.041   8.121
 1007SOL     OW 3472   1.015   0.247   8.416
 1007SOL    HW1 3473   1.004   0.198   8.334
 1007SOL    HW2 3474   1.008   0.182   8.485
 1008SOL     OW 3475   0.603   1.489   7.931
 1008SOL    HW1 3476   0.647   1.438   7.862
 1008SOL    HW2 3477   0.535   1.538   7.885
 1009SOL     OW 3478   1.719   0.391   8.823
 1009SOL    HW1 3479   1.791   0.455   8.825
 1009SOL    HW2 3480   1.752   0.320   8.768
 1010SOL     OW 3481   0.252   1.342   7.739
 1010SOL    HW1 3482   0.160   1.352   7.719
 1010SOL    HW2 3483   0.262   1.380   7.826
 1011SOL     OW 3484   0.105   1.001   9.166
 1011SOL    HW1 3485   0.044   0.990   9.239
 1011SOL    HW2 3486   0.191   0.980   9.203
 1012SOL     OW 3487   0.693   0.243   8.944
 1012SOL    HW1 3488   0.763   0.192   8.904
 1012SOL    HW2 3489   0.719   0.251   9.036
 1013SOL     OW 3490   0.088   0.326   7.476
 1013SOL    HW1 3491   3.992   0.321   7.471
 1013SOL    HW2 3492   0.110   0.408   7.432
 1014SOL     OW 3493   1.430   0.858   8.848
 1014SOL    HW1 3494   1.382   0.919   8.793
 1014SOL    HW2 3495   1.520   0.860   8.815
 1015SOL     OW 3496   0.039   0.162   7.731
 1015SOL    HW1 3497   0.037   0.242   7.679
 1015SOL    HW2 3498   0.120   0.168   7.782
 1016SOL     OW 3499   1.183   1.338   7.564
 1016SOL    HW1 3500   1.091   1.312   7.566
 1016SOL    HW2 3501   1.209   1.340   7.656
 1017SOL     OW 3502   0.619   0.830   8.883
 1017SOL    HW1 3503   0.675   0.906   8.867
 1017SOL    HW2 3504   0.680   0.756   8.891
 1018SOL     OW 3505   1.489   1.778   8.426
 1018SOL    HW1 3506   1.512   1.844   8.360
 1018SOL    HW2 3507   1.570   1.764   8.474
 1019SOL     OW 3508   0.716   0.564   9.156
 1019SOL    HW1 3509   0.758   0.627   9.215
 1019SOL    HW2 3510   0.749   0.479   9.184
 1020SOL     OW 3511   1.470   1.201   9.080
 1020SOL    HW1 3512   1.458   1.215   9.174
 1020SOL    HW2 3513   1.564   1.215   9.066
 1021SOL     OW 3514   0.381   1.742   9.007
 1021SOL    HW1 3515   0.293   1.779   8.994
 1021SOL    HW2 3516   0.365   1.660   9.055
 1022SOL     OW 3517   1.670   0.882   8.704
 1022SOL    HW1 3518   1.664   0.796   8.661
 1022SOL    HW2 3519   1.661   0.945   8.632
 1023SOL     OW 3520   1.225   0.333   7.894
 1023SOL    HW1 3521   1.291   0.265   7.886
 1023SOL    HW2 3522   1.247   0.378   7.976
 1024SOL     OW 3523   0.591   0.740   8.117
 1024SOL    HW1 3524   0.629   0.826   8.099
 1024SOL    HW2 3525   0.522   0.731   8.052
 1025SOL     OW 3526   1.755   0.380   9.091
 1025SOL    HW1 3527   1.737   0.385   8.997
 1025SOL    HW2 3528   1.696   0.311   9.123
 1026SOL     OW 3529   1.743   0.934   8.961
 1026SOL    HW1 3530   1.743   1.029   8.973
 1026SOL    HW2 3531   1.729   0.922   8.867
 1027SOL     OW 3532   0.861   1.367   7.480
 1027SOL    HW1 3533   0.824   1.397   7.563
 1027SOL    HW2 3534   0.882   1.448   7.433
 1028SOL     OW 3535   0.660   1.792   8.394
 1028SOL    HW1 3536   0.639   1.882   8.370
 1028SOL    HW2 3537   0.756   1.787   8.386
 1029SOL     OW 3538   0.867   0.966   8.303
 1029SOL    HW1 3539   0.917   0.895   8.343
 1029SOL    HW2 3540   0.833   1.016   8.377
 1030SOL     OW 3541   1.078   0.986   7.536
 1030SOL    HW1 3542   1.058   1.039   7.459
 1030SOL    HW2 3543   1.154   0.935   7.511
 1031SOL     OW 3544   1.849   1.542   8.276
 1031SOL    HW1 3545   1.762   1.538   8.238
 1031SOL    HW2 3546   1.845   1.483   8.351
 1032SOL     OW 3547   0.223   1.303   9.303
 1032SOL    HW1 3548   0.153   1.243   9.278
 1032SOL    HW2 3549   0.210   1.317   9.397
 1033SOL     OW 3550   0.113   1.273   8.164
 1033SOL    HW1 3551   0.121   1.222   8.245
 1033SOL    HW2 3552   0.111   1.209   8.094
 1034SOL     OW 3553   0.680   1.402   9.075
 1034SOL    HW1 3554   0.600   1.359   9.105
 1034SOL    HW2 3555   0.675   1.490   9.112
 1035SOL     OW 3556   1.813   0.184   8.687
 1035SOL    HW1 3557   1.816   0.089   8.701
 1035SOL    HW2 3558   1.827   0.195   8.593
 1036SOL     OW 3559   0.442   0.436   7.978
 1036SOL    HW1 3560   0.454   0.361   7.919
 1036SOL    HW2 3561   0.386   0.402   8.049
 1037SOL     OW 3562   1.703   1.480   8.540
 1037SOL    HW1 3563   1.620   1.459   8.498
 1037SOL    HW2 3564   1.713   1.413   8.608
 1038SOL     OW 3565   0.330   0.554   8.739
 1038SOL    HW1 3566   0.386   0.498   8.792
 1038SOL    HW2 3567   0.346   0.526   8.649
 1039SOL     OW 3568   0.827   1.578   8.126
 1039SOL    HW1 3569   0.818   1.631   8.046
 1039SOL    HW2 3570   0.749   1.522   8.126
 1040SOL     OW 3571   1.461   0.251   8.560
 1040SOL    HW1 3572   1.477   0.164   8.595
 1040SOL    HW2 3573   1.403   0.293   8.623
 1041SOL     OW 3574   1.006   0.030   8.596
 1041SOL    HW1 3575   0.930   3.980   8.565
 1041SOL    HW2 3576   1.076   3.965   8.602
 1042SOL     OW 3577   0.770   1.332   7.763
 1042SOL    HW1 3578   0.739   1.242   7.768
 1042SOL    HW2 3579   0.854   1.331   7.809
 1043SOL     OW 3580   0.620   1.558   8.732
 1043SOL    HW1 3581   0.623   1.639   8.783
 1043SOL    HW2 3582   0.707   1.550   8.694
 1044SOL     OW 3583   1.316   0.074   7.612
 1044SOL    HW1 3584   1.334   0.005   7.548
 1044SOL    HW2 3585   1.230   0.050   7.648
 1045SOL     OW 3586   1.286   0.458   8.135
 1045SOL    HW1 3587   1.237   0.540   8.132
 1045SOL    HW2 3588   1.289   0.436   8.228
 1046SOL     OW 3589   1.588   0.211   8.316
 1046SOL    HW1 3590   1.538   0.233   8.394
 1046SOL    HW2 3591   1.588   0.291   8.263
 1047SOL     OW 3592   0.045   1.052   7.688
 1047SOL    HW1 3593   0.139   1.035   7.679
 1047SOL    HW2 3594   0.010   0.972   7.728
 1048SOL     OW 3595   0.882   1.651   7.792
 1048SOL    HW1 3596   0.810   1.634   7.731
 1048SOL    HW2 3597   0.853   1.727   7.842
 1049SOL     OW 3598   0.232   0.624   9.429
 1049SOL    HW1 3599   0.139   0.630   9.451
 1049SOL    HW2 3600   0.234   0.596   9.338
 1050SOL     OW 3601   0.225   0.286  10.294
 1050SOL    HW1 3602   0.249   0.250  10.379
 1050SOL    HW2 3603   0.131   0.269  10.285
 1051SOL     OW 3604   0.018   0.387   9.944
 1051SOL    HW1 3605   3.929   0.397   9.980
 1051SOL    HW2 3606   0.025   0.294   9.925
 1052SOL     OW 3607   0.576   1.282  10.492
 1052SOL    HW1 3608   0.489   1.286  10.452
 1052SOL    HW2 3609   0.591   1.370  10.526
 1053SOL     OW 3610   1.562   1.513  10.018
 1053SOL    HW1 3611   1.518   1.495  10.101
 1053SOL    HW2 3612   1.490   1.519   9.954
 1054SOL     OW 3613   1.132   0.698  10.012
 1054SOL    HW1 3614   1.180   0.780   9.998
 1054SOL    HW2 3615   1.084   0.712  10.094
 1055SOL     OW 3616   1.759   0.618   9.538
 1055SOL    HW1 3617   1.742   0.609   9.445
 1055SOL    HW2 3618   1.751   0.529   9.573
 1056SOL     OW 3619   0.758   1.142  10.348
 1056SOL    HW1 3620   0.691   1.176  10.407
 1056SOL    HW2 3621   0.792   1.220  10.304
 1057SOL     OW 3622   0.865   0.777  11.132
 1057SOL    HW1 3623   0.854   0.849  11.194
 1057SOL    HW2 3624   0.888   0.820  11.050
 1058SOL     OW 3625   0.686   1.006   9.958
 1058SOL    HW1 3626   0.751   0.992  10.027
 1058SOL    HW2 3627   0.616   1.056  10.000
 1059SOL     OW 3628   0.709   1.150  11.122
 1059SOL    HW1 3629   0.757   1.229  11.147
 1059SOL    HW2 3630   0.626   1.183  11.087
 1060SOL     OW 3631   0.351   1.403  10.389
 1060SOL    HW1 3632   0.269   1.386  10.342
 1060SOL    HW2 3633   0.399   1.462  10.331
 1061SOL     OW 3634   1.461   1.499  10.662
 1061SOL    HW1 3635   1.510   1.581  10.671
 1061SOL    HW2 3636   1.403   1.498  10.738
 1062SOL     OW 3637   0.453   0.407  10.809
 1062SOL    HW1 3638   0.533   0.355  10.805
 1062SOL    HW2 3639   0.382   0.342  10.811
 1063SOL     OW 3640   1.613   0.451  10.045
 1063SOL    HW1 3641   1.540   0.482   9.991
 1063SOL    HW2 3642   1.636   0.526  10.100
 1064SOL     OW 3643   0.223   1.717   9.770
 1064SOL    HW1 3644   0.241   1.792   9.827
 1064SOL    HW2 3645   0.300   1.710   9.714
 1065SOL     OW 3646   1.136   1.341  11.002
 1065SOL    HW1 3647   1.177   1.337  11.089
 1065SOL    HW2 3648   1.084   1.261  10.996
 1066SOL     OW 3649   0.246   1.447   9.849
 1066SOL    HW1 3650   0.214   1.537   9.837
 1066SOL    HW2 3651   0.177   1.405   9.901
 1067SOL     OW 3652   0.246   1.070  10.195
 1067SOL    HW1 3653   0.264   0.985  10.237
 1067SOL    HW2 3654   0.194   1.118  10.259
 1068SOL     OW 3655   0.614   1.791  10.740
 1068SOL    HW1 3656   0.531   1.773  10.785
 1068SOL    HW2 3657   0.636   1.881  10.765
 1069SOL     OW 3658   0.583   0.983   9.445
 1069SOL    HW1 3659   0.628   1.030   9.376
 1069SOL    HW2 3660   0.625   1.012   9.526
 1070SOL     OW 3661   1.578   0.136  10.767
 1070SOL    HW1 3662   1.603   0.210  10.712
 1070SOL    HW2 3663   1.555   0.176  10.851
 1071SOL     OW 3664   0.138   0.649   9.880
 1071SOL    HW1 3665   0.094   0.564   9.885
 1071SOL    HW2 3666   0.102   0.699   9.952
 1072SOL     OW 3667   0.043   1.591   9.450
 1072SOL    HW1 3668   0.032   1.498   9.471
 1072SOL    HW2 3669   3.965   1.633   9.484
 1073SOL     OW 3670   1.687   0.916   9.948
 1073SOL    HW1 3671   1.773   0.878   9.932
 1073SOL    HW2 3672   1.668   0.969   9.870
 1074SOL     OW 3673   1.646   1.108   9.740
 1074SOL    HW1 3674   1.732   1.114   9.698
 1074SOL    HW2 3675   1.651   1.168   9.813
 1075SOL     OW 3676   0.134   0.753  10.900
 1075SOL    HW1 3677   0.230   0.747  10.903
 1075SOL    HW2 3678   0.115   0.846  10.917
 1076SOL     OW 3679   0.612   1.384  10.046
 1076SOL    HW1 3680   0.566   1.301  10.055
 1076SOL    HW2 3681   0.596   1.410   9.955
 1077SOL     OW 3682   1.289   1.238  10.734
 1077SOL    HW1 3683   1.322   1.171  10.674
 1077SOL    HW2 3684   1.346   1.232  10.810
 1078SOL     OW 3685   0.816   0.002   9.824
 1078SOL    HW1 3686   0.862   0.083   9.803
 1078SOL    HW2 3687   0.724   0.025   9.826
 1079SOL     OW 3688   0.186   0.954  10.585
 1079SOL    HW1 3689   0.274   0.919  10.571
 1079SOL    HW2 3690   0.131   0.908  10.521
 1080SOL     OW 3691   1.532   0.993   9.508
 1080SOL    HW1 3692   1.462   0.935   9.539
 1080SOL    HW2 3693   1.572   1.027   9.587
 1081SOL     OW 3694   1.185   1.805  10.932
 1081SOL    HW1 3695   1.198   1.863  10.857
 1081SOL    HW2 3696   1.201   1.717  10.897
 1082SOL     OW 3697   0.340   0.254  11.134
 1082SOL    HW1 3698   0.385   0.337  11.122
 1082SOL    HW2 3699   0.250   0.278  11.156
 1083SOL     OW 3700   1.465   1.420  10.262
 1083SOL    HW1 3701   1.397   1.434  10.328
 1083SOL    HW2 3702   1.453   1.328  10.235
 1084SOL     OW 3703   1.667   1.728   9.869
 1084SOL    HW1 3704   1.629   1.693   9.789
 1084SOL    HW2 3705   1.647   1.664   9.937
 1085SOL     OW 3706   0.596   0.719   9.573
 1085SOL    HW1 3707   0.603   0.802   9.526
 1085SOL    HW2 3708   0.533   0.737   9.643
 1086SOL     OW 3709   1.276   0.363  10.250
 1086SOL    HW1 3710   1.189   0.324  10.255
 1086SOL    HW2 3711   1.333   0.302  10.297
 1087SOL     OW 3712   1.576   1.669   9.611
 1087SOL    HW1 3713   1.662   1.708   9.594
 1087SOL    HW2 3714   1.543   1.645   9.525
 1088SOL     OW 3715   0.795   0.616  10.765
 1088SOL    HW1 3716   0.765   0.592  10.852
 1088SOL    HW2 3717   0.754   0.552  10.707
 1089SOL     OW 3718   1.393   0.477  10.987
 1089SOL    HW1 3719   1.396   0.521  11.072
 1089SOL    HW2 3720   1.453   0.403  10.996
 1090SOL     OW 3721   0.956   0.888  10.892
 1090SOL    HW1 3722   1.010   0.818  10.857
 1090SOL    HW2 3723   0.908   0.921  10.816
 1091SOL     OW 3724   0.991   0.403  10.551
 1091SOL    HW1 3725   0.908   0.429  10.593
 1091SOL    HW2 3726   0.965   0.371  10.465
 1092SOL     OW 3727   1.051   0.699   9.736
 1092SOL    HW1 3728   1.065   0.691   9.831
 1092SOL    HW2 3729   0.969   0.652   9.721
 1093SOL     OW 3730   0.081   0.824  10.101
 1093SOL    HW1 3731   0.160   0.794  10.146
 1093SOL    HW2 3732   0.092   0.919  10.093
 1094SOL     OW 3733   0.129   1.855  10.883
 1094SOL    HW1 3734   0.137   1.822  10.972
 1094SOL    HW2 3735   0.037   1.843  10.860
 1095SOL     OW 3736   0.891   0.350   9.508
 1095SOL    HW1 3737   0.933   0.409   9.445
 1095SOL    HW2 3738   0.894   0.264   9.466
 1096SOL     OW 3739   1.711   0.576  11.138
 1096SOL    HW1 3740   1.672   0.650  11.092
 1096SOL    HW2 3741   1.735   0.514  11.069
 1097SOL     OW 3742   1.376   1.142   9.851
 1097SOL    HW1 3743   1.455   1.129   9.799
 1097SOL    HW2 3744   1.324   1.204   9.801
 1098SOL     OW 3745   0.559   0.195  10.192
 1098SOL    HW1 3746   0.562   0.216  10.286
 1098SOL    HW2 3747   0.548   0.279  10.149
 1099SOL     OW 3748   1.007   1.445   9.783
 1099SOL    HW1 3749   0.968   1.517   9.734
 1099SOL    HW2 3750   0.991   1.467   9.874
 1100SOL     OW 3751   0.364   1.812  10.176
 1100SOL    HW1 3752   0.429   1.742  10.181
 1100SOL    HW2 3753   0.415   1.892  10.191
 1101SOL     OW 3754   1.798   1.056  10.178
 1101SOL    HW1 3755   1.743   1.042  10.102
 1101SOL    HW2 3756   1.737   1.062  10.252
 1102SOL     OW 3757   1.228   1.539  10.823
 1102SOL    HW1 3758   1.214   1.466  10.883
 1102SOL    HW2 3759   1.166   1.523  10.751
 1103SOL     OW 3760   0.310   0.955   9.552
 1103SOL    HW1 3761   0.395   0.978   9.514
 1103SOL    HW2 3762   0.296   0.864   9.526
 1104SOL     OW 3763   1.476   0.742  10.040
 1104SOL    HW1 3764   1.469   0.698  10.125
 1104SOL    HW2 3765   1.554   0.797  10.049
 1105SOL     OW 3766   0.465   1.260  11.047
 1105SOL    HW1 3767   0.439   1.268  10.955
 1105SOL    HW2 3768   0.383   1.265  11.096
 1106SOL     OW 3769   1.122   1.777   9.542
 1106SOL    HW1 3770   1.049   1.735   9.588
 1106SOL    HW2 3771   1.143   1.716   9.471
 1107SOL     OW 3772   0.199   0.296  10.808
 1107SOL    HW1 3773   0.106   0.317  10.805
 1107SOL    HW2 3774   0.206   0.232  10.879
 1108SOL     OW 3775   1.628   1.379   9.397
 1108SOL    HW1 3776   1.588   1.464   9.381
 1108SOL    HW2 3777   1.559   1.315   9.378
 1109SOL     OW 3778   0.466   1.739   9.629
 1109SOL    HW1 3779   0.508   1.797   9.692
 1109SOL    HW2 3780   0.539   1.708   9.574
 1110SOL     OW 3781   1.437   0.159   9.716
 1110SOL    HW1 3782   1.396   0.094   9.658
 1110SOL    HW2 3783   1.514   0.115   9.750
 1111SOL     OW 3784   0.251   1.792  10.542
 1111SOL    HW1 3785   0.299   1.729  10.596
 1111SOL    HW2 3786   0.245   1.750  10.456
 1112SOL     OW 3787   0.937   1.698  10.210
 1112SOL    HW1 3788   1.016   1.647  10.230
 1112SOL    HW2 3789   0.893   1.649  10.141
 1113SOL     OW 3790   0.394   0.694   9.783
 1113SOL    HW1 3791   0.421   0.604   9.796
 1113SOL    HW2 3792   0.302   0.696   9.809
 1114SOL     OW 3793   1.531   0.232  11.037
 1114SOL    HW1 3794   1.531   0.256  11.129
 1114SOL    HW2 3795   1.501   0.141  11.035
 1115SOL     OW 3796   0.642   0.136   9.411
 1115SOL    HW1 3797   0.674   0.056   9.453
 1115SOL    HW2 3798   0.580   0.104   9.345
 1116SOL     OW 3799   0.778   0.282  11.073
 1116SOL    HW1 3800   0.843   0.212  11.079
 1116SOL    HW2 3801   0.717   0.264  11.144
 1117SOL     OW 3802   0.876   1.521  10.504
 1117SOL    HW1 3803   0.861   1.485  10.416
 1117SOL    HW2 3804   0.946   1.467  10.541
 1118SOL     OW 3805   1.342   0.587  10.740
 1118SOL    HW1 3806   1.372   0.558  10.826
 1118SOL    HW2 3807   1.376   0.676  10.732
 1119SOL     OW 3808   0.814   1.396  10.247
 1119SOL    HW1 3809   0.899   1.385  10.204
 1119SOL    HW2 3810   0.750   1.395  10.176
 1120SOL     OW 3811   0.929   0.511  10.212
 1120SOL    HW1 3812   0.905   0.503  10.120
 1120SOL    HW2 3813   0.957   0.423  10.238
 1121SOL     OW 3814   0.546   0.057   9.801
 1121SOL    HW1 3815   0.471   0.064   9.860
 1121SOL    HW2 3816   0.548   0.141   9.755
 1122SOL     OW 3817   1.428   1.198   9.351
 1122SOL    HW1 3818   1.458   1.122   9.401
 1122SOL    HW2 3819   1.342   1.218   9.389
 1123SOL     OW 3820   0.334   0.045   9.505
 1123SOL    HW1 3821   0.363   0.087   9.424
 1123SOL    HW2 3822   0.414   0.026   9.553
 1124SOL     OW 3823   0.938   0.247   9.774
 1124SOL    HW1 3824   0.911   0.288   9.693
 1124SOL    HW2 3825   1.034   0.248   9.771
 1125SOL     OW 3826   1.079   0.681  10.769
 1125SOL    HW1 3827   1.008   0.617  10.776
 1125SOL    HW2 3828   1.159   0.628  10.764
 1126SOL     OW 3829   1.223   1.570  10.104
 1126SOL    HW1 3830   1.241   1.637  10.038
 1126SOL    HW2 3831   1.292   1.582  10.170
 1127SOL     OW 3832   0.466   1.149  10.049
 1127SOL    HW1 3833   0.393   1.126  10.107
 1127SOL    HW2 3834   0.433   1.133   9.961
 1128SOL     OW 3835   1.268   1.794   9.916
 1128SOL    HW1 3836   1.312   1.857   9.859
 1128SOL    HW2 3837   1.204   1.846   9.964
 1129SOL     OW 3838   1.025   0.547   9.333
 1129SOL    HW1 3839   0.981   0.630   9.314
 1129SOL    HW2 3840   1.087   0.568   9.402
 1130SOL     OW 3841   0.079   0.570  10.703
 1130SOL    HW1 3842   0.168   0.553  10.672
 1130SOL    HW2 3843   0.088   0.641  10.766
 1131SOL     OW 3844   0.572   0.232  10.470
 1131SOL    HW1 3845   0.596   0.139  10.480
 1131SOL    HW2 3846   0.481   0.236  10.500
 1132SOL     OW 3847   0.872   0.462   9.949
 1132SOL    HW1 3848   0.820   0.513   9.887
 1132SOL    HW2 3849   0.890   0.380   9.903
 1133SOL     OW 3850   0.994   0.042  10.089
 1133SOL    HW1 3851   0.961   0.066  10.002
 1133SOL    HW2 3852   1.005   3.947  10.085
 1134SOL     OW 3853   1.436   1.163  10.168
 1134SOL    HW1 3854   1.368   1.096  10.165
 1134SOL    HW2 3855   1.461   1.175  10.076
 1135SOL     OW 3856   1.466   0.604  10.289
 1135SOL    HW1 3857   1.416   0.523  10.294
 1135SOL    HW2 3858   1.527   0.599  10.362
 1136SOL     OW 3859   1.847   0.820   9.693
 1136SOL    HW1 3860   1.902   0.767   9.751
 1136SOL    HW2 3861   1.815   0.759   9.627
 1137SOL     OW 3862   0.489   1.416   9.472
 1137SOL    HW1 3863   0.414   1.385   9.522
 1137SOL    HW2 3864   0.469   1.394   9.381
 1138SOL     OW 3865   1.668   1.265   9.958
 1138SOL    HW1 3866   1.763   1.267   9.970
 1138SOL    HW2 3867   1.639   1.353   9.979
 1139SOL     OW 3868   1.394   0.573   9.380
 1139SOL    HW1 3869   1.333   0.554   9.451
 1139SOL    HW2 3870   1.480   0.552   9.417
 1140SOL     OW 3871   0.558   0.270   9.630
 1140SOL    HW1 3872   0.598   0.229   9.554
 1140SOL    HW2 3873   0.529   0.356   9.599
 1141SOL     OW 3874   1.753   1.238  10.885
 1141SOL    HW1 3875   1.840   1.199  10.881
 1141SOL    HW2 3876   1.768   1.328  10.914
 1142SOL     OW 3877   1.059   1.354  10.644
 1142SOL    HW1 3878   0.984   1.322  10.695
 1142SOL    HW2 3879   1.135   1.312  10.685
 1143SOL     OW 3880   1.606   1.625  10.962
 1143SOL    HW1 3881   1.602   1.661  10.874
 1143SOL    HW2 3882   1.690   1.579  10.966
 1144SOL     OW 3883   1.128   1.203  10.416
 1144SOL    HW1 3884   1.069   1.241  10.481
 1144SOL    HW2 3885   1.094   1.234  10.332
 1145SOL     OW 3886   1.629   1.099  10.388
 1145SOL    HW1 3887   1.624   1.160  10.461
 1145SOL    HW2 3888   1.550   1.116  10.337
 1146SOL     OW 3889   0.914   0.110  10.712
 1146SOL    HW1 3890   0.933   0.086  10.621
 1146SOL    HW2 3891   0.994   0.153  10.743
 1147SOL     OW 3892   0.984   1.115  11.033
 1147SOL    HW1 3893   0.892   1.130  11.053
 1147SOL    HW2 3894   0.984   1.037  10.977
 1148SOL     OW 3895   0.708   1.060   9.681
 1148SOL    HW1 3896   0.694   1.046   9.775
 1148SOL    HW2 3897   0.784   1.007   9.659
 1149SOL     OW 3898   0.420   0.815  10.562
 1149SOL    HW1 3899   0.489   0.822  10.628
 1149SOL    HW2 3900   0.385   0.727  10.572
 1150SOL     OW 3901   1.266   0.375  10.585
 1150SOL    HW1 3902   1.301   0.453  10.630
 1150SOL    HW2 3903   1.180   0.402  10.554
 1151SOL     OW 3904   0.064   1.579  10.655
 1151SOL    HW1 3905   0.066   1.647  10.587
 1151SOL    HW2 3906   0.156   1.566  10.678
 1152SOL     OW 3907   0.376   1.103   9.796
 1152SOL    HW1 3908   0.367   1.180   9.740
 1152SOL    HW2 3909   0.373   1.028   9.735
 1153SOL     OW 3910   0.556   0.538  10.170
 1153SOL    HW1 3911   0.572   0.595  10.095
 1153SOL    HW2 3912   0.620   0.565  10.235
 1154SOL     OW 3913   1.248   1.348   9.699
 1154SOL    HW1 3914   1.303   1.419   9.731
 1154SOL    HW2 3915   1.161   1.369   9.733
 1155SOL     OW 3916   1.279   1.457  10.457
 1155SOL    HW1 3917   1.335   1.460  10.534
 1155SOL    HW2 3918   1.224   1.379  10.469
 1156SOL     OW 3919   1.579   0.631   9.794
 1156SOL    HW1 3920   1.538   0.692   9.855
 1156SOL    HW2 3921   1.626   0.688   9.732
 1157SOL     OW 3922   0.346   1.525  10.630
 1157SOL    HW1 3923   0.336   1.475  10.549
 1157SOL    HW2 3924   0.440   1.541  10.637
 1158SOL     OW 3925   0.412   0.740  10.911
 1158SOL    HW1 3926   0.473   0.786  10.854
 1158SOL    HW2 3927   0.453   0.654  10.925
 1159SOL     OW 3928   1.600   0.778  10.992
 1159SOL    HW1 3929   1.513   0.819  10.984
 1159SOL    HW2 3930   1.652   0.819  10.923
 1160SOL     OW 3931   1.019   0.122  11.087
 1160SOL    HW1 3932   1.057   0.200  11.046
 1160SOL    HW2 3933   1.009   0.060  11.015
 1161SOL     OW 3934   0.479   0.036  11.077
 1161SOL    HW1 3935   0.492   0.040  10.982
 1161SOL    HW2 3936   0.419   0.108  11.096
 1162SOL     OW 3937   0.584   0.873  10.341
 1162SOL    HW1 3938   0.614   0.964  10.340
 1162SOL    HW2 3939   0.527   0.867  10.418
 1163SOL     OW 3940   1.359   0.859  10.341
 1163SOL    HW1 3941   1.276   0.850  10.293
 1163SOL    HW2 3942   1.398   0.771  10.337
 1164SOL     OW 3943   1.205   0.534   9.573
 1164SOL    HW1 3944   1.213   0.455   9.626
 1164SOL    HW2 3945   1.161   0.597   9.631
 1165SOL     OW 3946   0.313   0.214  10.551
 1165SOL    HW1 3947   0.272   0.248  10.631
 1165SOL    HW2 3948   0.294   0.120  10.553
 1166SOL     OW 3949   0.057   1.305  10.590
 1166SOL    HW1 3950   0.090   1.265  10.671
 1166SOL    HW2 3951   0.050   1.398  10.610
 1167SOL     OW 3952   0.727   0.634  10.367
 1167SOL    HW1 3953   0.799   0.617  10.307
 1167SOL    HW2 3954   0.698   0.723  10.344
 1168SOL     OW 3955   1.734   0.959  11.162
 1168SOL    HW1 3956   1.687   0.900  11.103
 1168SOL    HW2 3957   1.675   0.972  11.236
 1169SOL     OW 3958   0.325   0.056   9.958
 1169SOL    HW1 3959   0.297   0.147   9.960
 1169SOL    HW2 3960   0.286   0.017  10.036
 1170SOL     OW 3961   1.601   0.387   9.693
 1170SOL    HW1 3962   1.576   0.319   9.756
 1170SOL    HW2 3963   1.581   0.469   9.737
 1171SOL     OW 3964   1.028   0.760  10.271
 1171SOL    HW1 3965   1.025   0.777  10.365
 1171SOL    HW2 3966   1.001   0.668  10.262
 1172SOL     OW 3967   0.982   1.566  11.026
 1172SOL    HW1 3968   0.967   1.610  10.943
 1172SOL    HW2 3969   1.026   1.484  11.002
 1173SOL     OW 3970   1.855   1.506  10.916
 1173SOL    HW1 3971   1.871   1.534  10.825
 1173SOL    HW2 3972   1.939   1.520  10.960
 1174SOL     OW 3973   0.351   0.920  11.111
 1174SOL    HW1 3974   0.430   0.940  11.161
 1174SOL    HW2 3975   0.379   0.854  11.048
 1175SOL     OW 3976   1.510   0.276   9.446
 1175SOL    HW1 3977   1.434   0.219   9.459
 1175SOL    HW2 3978   1.524   0.317   9.532
 1176SOL     OW 3979   1.292   0.827   9.341
 1176SOL    HW1 3980   1.334   0.741   9.344
 1176SOL    HW2 3981   1.324   0.866   9.260
 1177SOL     OW 3982   1.064   1.335  10.163
 1177SOL    HW1 3983   1.068   1.263  10.101
 1177SOL    HW2 3984   1.127   1.399  10.129
 1178SOL     OW 3985   0.313   0.806  10.261
 1178SOL    HW1 3986   0.407   0.823  10.255
 1178SOL    HW2 3987   0.307   0.716  10.293
 1179SOL     OW 3988   0.337   0.527  10.323
 1179SOL    HW1 3989   0.298   0.442  10.305
 1179SOL    HW2 3990   0.413   0.531  10.264
 1180SOL     OW 3991   1.134   0.383  11.002
 1180SOL    HW1 3992   1.086   0.438  11.064
 1180SOL    HW2 3993   1.221   0.421  10.997
 1181SOL     OW 3994   1.151   0.224  10.791
 1181SOL    HW1 3995   1.143   0.279  10.869
 1181SOL    HW2 3996   1.173   0.285  10.721
 1182SOL     OW 3997   3.999   1.320   9.492
 1182SOL    HW1 3998   3.905   1.336   9.496
 1182SOL    HW2 3999   0.009   1.227   9.512
 1183SOL     OW 4000   0.076   1.801  10.200
 1183SOL    HW1 4001   0.077   1.705  10.208
 1183SOL    HW2 4002   0.168   1.826  10.203
 1184SOL     OW 4003   0.504   1.570  10.220
 1184SOL    HW1 4004   0.573   1.631  10.245
 1184SOL    HW2 4005   0.547   1.507  10.163
 1185SOL     OW 4006   0.984   0.792  10.537
 1185SOL    HW1 4007   1.038   0.769  10.613
 1185SOL    HW2 4008   0.898   0.755  10.556
 1186SOL     OW 4009   0.036   0.566  10.423
 1186SOL    HW1 4010   0.103   0.519  10.373
 1186SOL    HW2 4011   0.061   0.554  10.515
 1187SOL     OW 4012   0.209   0.516  11.031
 1187SOL    HW1 4013   0.259   0.481  10.958
 1187SOL    HW2 4014   0.159   0.588  10.993
 1188SOL     OW 4015   1.376   0.940  10.969
 1188SOL    HW1 4016   1.398   1.033  10.967
 1188SOL    HW2 4017   1.374   0.914  10.876
 1189SOL     OW 4018   0.817   0.572   9.667
 1189SOL    HW1 4019   0.822   0.494   9.611
 1189SOL    HW2 4020   0.742   0.621   9.635
 1190SOL     OW 4021   1.642   0.602  10.497
 1190SOL    HW1 4022   1.632   0.541  10.571
 1190SOL    HW2 4023   1.729   0.583  10.462
 1191SOL     OW 4024   0.297   1.546  11.040
 1191SOL    HW1 4025   0.247   1.616  11.083
 1191SOL    HW2 4026   0.262   1.465  11.078
 1192SOL     OW 4027   0.700   0.457  10.571
 1192SOL    HW1 4028   0.653   0.378  10.544
 1192SOL    HW2 4029   0.694   0.516  10.495
 1193SOL     OW 4030   0.928   1.679  10.777
 1193SOL    HW1 4031   0.903   1.646  10.691
 1193SOL    HW2 4032   0.925   1.774  10.768
 1194SOL     OW 4033   0.458   0.492   9.504
 1194SOL    HW1 4034   0.522   0.561   9.521
 1194SOL    HW2 4035   0.377   0.539   9.484
 1195SOL     OW 4036   0.157   1.136  10.782
 1195SOL    HW1 4037   0.161   1.085  10.863
 1195SOL    HW2 4038   0.172   1.073  10.712
 1196SOL     OW 4039   1.327   1.048  10.534
 1196SOL    HW1 4040   1.351   0.985  10.466
 1196SOL    HW2 4041   1.256   1.099  10.495
 1197SOL     OW 4042   1.311   0.856   9.617
 1197SOL    HW1 4043   1.234   0.827   9.666
 1197SOL    HW2 4044   1.286   0.843   9.525
 1198SOL     OW 4045   1.744   1.740  10.448
 1198SOL    HW1 4046   1.819   1.762  10.393
 1198SOL    HW2 4047   1.730   1.646  10.431
 1199SOL     OW 4048   1.243   1.734  10.423
 1199SOL    HW1 4049   1.325   1.753  10.379
 1199SOL    HW2 4050   1.247   1.640  10.442
 1200SOL     OW 4051   0.076   1.218  10.337
 1200SOL    HW1 4052   0.082   1.243  10.429
 1200SOL    HW2 4053   3.983   1.224  10.316
 1201SOL     OW 4054   0.679   1.665  11.038
 1201SOL    HW1 4055   0.623   1.743  11.032
 1201SOL    HW2 4056   0.743   1.676  10.967
 1202SOL     OW 4057   1.710   0.128   9.795
 1202SOL    HW1 4058   1.791   0.133   9.744
 1202SOL    HW2 4059   1.701   0.035   9.817
 1203SOL     OW 4060   1.390   1.567   9.795
 1203SOL    HW1 4061   1.447   1.599   9.725
 1203SOL    HW2 4062   1.341   1.645   9.823
 1204SOL     OW 4063   0.172   1.767  11.138
 1204SOL    HW1 4064   0.113   1.719  11.196
 1204SOL    HW2 4065   0.215   1.831  11.195
 1205SOL     OW 4066   1.277   0.926   9.981
 1205SOL    HW1 4067   1.351   0.865   9.988
 1205SOL    HW2 4068   1.311   0.998   9.929
 1206SOL     OW 4069   0.816   1.272  10.741
 1206SOL    HW1 4070   0.788   1.312  10.824
 1206SOL    HW2 4071   0.745   1.292  10.680
 1207SOL     OW 4072   0.671   1.618   9.465
 1207SOL    HW1 4073   0.681   1.630   9.371
 1207SOL    HW2 4074   0.617   1.540   9.475
 1208SOL     OW 4075   1.628   1.728  10.701
 1208SOL    HW1 4076   1.672   1.735  10.617
 1208SOL    HW2 4077   1.616   1.818  10.730
 1209SOL     OW 4078   1.838   0.176  10.278
 1209SOL    HW1 4079   1.869   0.102  10.225
 1209SOL    HW2 4080   1.751   0.195  10.244
 1210SOL     OW 4081   0.272   0.324  10.025
 1210SOL    HW1 4082   0.187   0.359  10.000
 1210SOL    HW2 4083   0.265   0.306  10.119
 1211SOL     OW 4084   1.206   1.607   9.341
 1211SOL    HW1 4085   1.197   1.515   9.368
 1211SOL    HW2 4086   1.141   1.618   9.272
 1212SOL     OW 4087   0.824   1.005  10.682
 1212SOL    HW1 4088   0.867   1.001  10.597
 1212SOL    HW2 4089   0.824   1.098  10.705
 1213SOL     OW 4090   0.915   0.910   9.599
 1213SOL    HW1 4091   0.977   0.942   9.534
 1213SOL    HW2 4092   0.962   0.840   9.645
 1214SOL     OW 4093   1.490   1.623   9.351
 1214SOL    HW1 4094   1.396   1.619   9.336
 1214SOL    HW2 4095   1.528   1.630   9.263
 1215SOL     OW 4096   0.373   1.302  10.801
 1215SOL    HW1 4097   0.358   1.383  10.751
 1215SOL    HW2 4098   0.296   1.248  10.784
 1216SOL     OW 4099   1.610   1.282  10.591
 1216SOL    HW1 4100   1.671   1.274  10.664
 1216SOL    HW2 4101   1.551   1.352  10.618
 1217SOL     OW 4102   1.050   1.107  10.016
 1217SOL    HW1 4103   0.980   1.055  10.055
 1217SOL    HW2 4104   1.112   1.041   9.984
 1218SOL     OW 4105   1.015   0.247  10.278
 1218SOL    HW1 4106   1.004   0.198  10.196
 1218SOL    HW2 4107   1.008   0.182  10.347
 1219SOL     OW 4108   0.604   1.489   9.792
 1219SOL    HW1 4109   0.646   1.438   9.723
 1219SOL    HW2 4110   0.534   1.537   9.748
 1220SOL     OW 4111   1.719   0.391  10.685
 1220SOL    HW1 4112   1.791   0.455  10.687
 1220SOL    HW2 4113   1.753   0.320  10.630
 1221SOL     OW 4114   0.253   1.342   9.601
 1221SOL    HW1 4115   0.160   1.352   9.581
 1221SOL    HW2 4116   0.262   1.380   9.688
 1222SOL     OW 4117   0.105   1.001  11.028
 1222SOL    HW1 4118   0.044   0.990  11.101
 1222SOL    HW2 4119   0.191   0.980  11.065
 1223SOL     OW 4120   0.693   0.243  10.806
 1223SOL    HW1 4121   0.763   0.192  10.766
 1223SOL    HW2 4122   0.719   0.251  10.898
 1224SOL     OW 4123   0.088   0.326   9.338
 1224SOL    HW1 4124   3.992   0.321   9.333
 1224SOL    HW2 4125   0.110   0.408   9.294
 1225SOL     OW 4126   1.430   0.857  10.710
 1225SOL    HW1 4127   1.382   0.919  10.655
 1225SOL    HW2 4128   1.520   0.860  10.677
 1226SOL     OW 4129   0.039   0.162   9.593
 1226SOL    HW1 4130   0.037   0.242   9.541
 1226SOL    HW2 4131   0.120   0.168   9.644
 1227SOL     OW 4132   1.179   1.340   9.427
 1227SOL    HW1 4133   1.088   1.310   9.429
 1227SOL    HW2 4134   1.207   1.340   9.518
 1228SOL     OW 4135   0.619   0.830  10.745
 1228SOL    HW1 4136   0.675   0.906  10.729
 1228SOL    HW2 4137   0.680   0.756  10.753
 1229SOL     OW 4138   1.489   1.779  10.289
 1229SOL    HW1 4139   1.513   1.841  10.220
 1229SOL    HW2 4140   1.570   1.763  10.336
 1230SOL     OW 4141   0.716   0.564  11.018
 1230SOL    HW1 4142   0.758   0.627  11.077
 1230SOL    HW2 4143   0.749   0.479  11.047
 1231SOL     OW 4144   1.470   1.201  10.942
 1231SOL    HW1 4145   1.458   1.215  11.036
 1231SOL    HW2 4146   1.564   1.215  10.928
 1232SOL     OW 4147   0.381   1.742  10.869
 1232SOL    HW1 4148   0.293   1.779  10.856
 1232SOL    HW2 4149   0.365   1.660  10.917
 1233SOL     OW 4150   1.670   0.882  10.566
 1233SOL    HW1 4151   1.664   0.796  10.523
 1233SOL    HW2 4152   1.661   0.945  10.495
 1234SOL     OW 4153   1.225   0.333   9.756
 1234SOL    HW1 4154   1.291   0.265   9.748
 1234SOL    HW2 4155   1.247   0.378   9.837
 1235SOL     OW 4156   0.592   0.740   9.979
 1235SOL    HW1 4157   0.629   0.826   9.962
 1235SOL    HW2 4158   0.522   0.731   9.914
 1236SOL     OW 4159   1.755   0.380  10.953
 1236SOL    HW1 4160   1.737   0.385  10.859
 1236SOL    HW2 4161   1.696   0.311  10.985
 1237SOL     OW 4162   1.743   0.934  10.823
 1237SOL    HW1 4163   1.743   1.029  10.836
 1237SOL    HW2 4164   1.729   0.922  10.729
 1238SOL     OW 4165   0.863   1.368   9.343
 1238SOL    HW1 4166   0.823   1.395   9.426
 1238SOL    HW2 4167   0.881   1.449   9.296
 1239SOL     OW 4168   0.660   1.792  10.255
 1239SOL    HW1 4169   0.639   1.882  10.232
 1239SOL    HW2 4170   0.756   1.787  10.248
 1240SOL     OW 4171   0.867   0.966  10.165
 1240SOL    HW1 4172   0.917   0.895  10.205
 1240SOL    HW2 4173   0.833   1.016  10.239
 1241SOL     OW 4174   1.079   0.988   9.399
 1241SOL    HW1 4175   1.058   1.039   9.320
 1241SOL    HW2 4176   1.154   0.935   9.373
 1242SOL     OW 4177   1.848   1.543  10.143
 1242SOL    HW1 4178   1.764   1.539  10.097
 1242SOL    HW2 4179   1.838   1.482  10.216
 1243SOL     OW 4180   0.223   1.303  11.165
 1243SOL    HW1 4181   0.153   1.243  11.140
 1243SOL    HW2 4182   0.210   1.317  11.259
 1244SOL     OW 4183   0.114   1.274  10.026
 1244SOL    HW1 4184   0.121   1.222  10.107
 1244SOL    HW2 4185   0.111   1.209   9.956
 1245SOL     OW 4186   0.680   1.402  10.937
 1245SOL    HW1 4187   0.600   1.359  10.967
 1245SOL    HW2 4188   0.675   1.490  10.974
 1246SOL     OW 4189   1.813   0.184  10.549
 1246SOL    HW1 4190   1.816   0.089  10.563
 1246SOL    HW2 4191   1.827   0.195  10.455
 1247SOL     OW 4192   0.442   0.436   9.840
 1247SOL    HW1 4193   0.454   0.361   9.781
 1247SOL    HW2 4194   0.386   0.402   9.911
 1248SOL     OW 4195   1.703   1.480  10.403
 1248SOL    HW1 4196   1.619   1.459  10.361
 1248SOL    HW2 4197   1.713   1.413  10.471
 1249SOL     OW 4198   0.330   0.554  10.601
 1249SOL    HW1 4199   0.386   0.498  10.654
 1249SOL    HW2 4200   0.346   0.526  10.511
 1250SOL     OW 4201   0.826   1.578   9.988
 1250SOL    HW1 4202   0.817   1.630   9.908
 1250SOL    HW2 4203   0.749   1.522   9.989
 1251SOL     OW 4204   1.461   0.251  10.421
 1251SOL    HW1 4205   1.477   0.164  10.458
 1251SOL    HW2 4206   1.403   0.293  10.485
 1252SOL     OW 4207   1.006   0.030  10.458
 1252SOL    HW1 4208   0.930   3.980  10.427
 1252SOL    HW2 4209   1.076   3.965  10.465
 1253SOL     OW 4210   0.771   1.332   9.623
 1253SOL    HW1 4211   0.739   1.242   9.629
 1253SOL    HW2 4212   0.854   1.332   9.672
 1254SOL     OW 4213   0.620   1.558  10.594
 1254SOL    HW1 4214   0.623   1.639  10.645
 1254SOL    HW2 4215   0.707   1.550  10.557
 1255SOL     OW 4216   1.315   0.074   9.473
 1255SOL    HW1 4217   1.334   0.005   9.410
 1255SOL    HW2 4218   1.230   0.050   9.510
 1256SOL     OW 4219   1.286   0.458   9.997
 1256SOL    HW1 4220   1.237   0.540   9.994
 1256SOL    HW2 4221   1.289   0.436  10.090
 1257SOL     OW 4222   1.588   0.211  10.177
 1257SOL    HW1 4223   1.538   0.233  10.256
 1257SOL    HW2 4224   1.588   0.291  10.125
 1258SOL     OW 4225   0.045   1.052   9.550
 1258SOL    HW1 4226   0.139   1.035   9.541
 1258SOL    HW2 4227   0.010   0.972   9.589
 1259SOL     OW 4228   0.883   1.652   9.653
 1259SOL    HW1 4229   0.811   1.634   9.593
 1259SOL    HW2 4230   0.854   1.727   9.704
 1260SOL     OW 4231   0.232   0.624  11.291
 1260SOL    HW1 4232   0.139   0.630  11.313
 1260SOL    HW2 4233   0.234   0.596  11.200
 1261SOL     OW 4234   0.225   0.286  12.156
 1261SOL    HW1 4235   0.249   0.250  12.241
 1261SOL    HW2 4236   0.132   0.269  12.147
 1262SOL     OW 4237   0.018   0.387  11.806
 1262SOL    HW1 4238   3.929   0.397  11.842
 1262SOL    HW2 4239   0.025   0.294  11.787
 1263SOL     OW 4240   0.576   1.282  12.354
 1263SOL    HW1 4241   0.489   1.286  12.314
 1263SOL    HW2 4242   0.591   1.370  12.388
 1264SOL     OW 4243   1.562   1.513  11.880
 1264SOL    HW1 4244   1.518   1.495  11.963
 1264SOL    HW2 4245   1.490   1.519  11.816
 1265SOL     OW 4246   1.132   0.698  11.874
 1265SOL    HW1 4247   1.180   0.780  11.860
 1265SOL    HW2 4248   1.084   0.712  11.956
 1266SOL     OW 4249   1.759   0.618  11.400
 1266SOL    HW1 4250   1.742   0.609  11.307
 1266SOL    HW2 4251   1.751   0.529  11.434
 1267SOL     OW 4252   0.758   1.142  12.210
 1267SOL    HW1 4253   0.691   1.176  12.269
 1267SOL    HW2 4254   0.792   1.220  12.166
 1268SOL     OW 4255   0.865   0.777  12.994
 1268SOL    HW1 4256   0.855   0.850  13.056
 1268SOL    HW2 4257   0.888   0.820  12.911
 1269SOL     OW 4258   0.686   1.006  11.820
 1269SOL    HW1 4259   0.751   0.992  11.889
 1269SOL    HW2 4260   0.616   1.056  11.862
 1270SOL     OW 4261   0.709   1.150  12.984
 1270SOL    HW1 4262   0.757   1.229  13.009
 1270SOL    HW2 4263   0.626   1.183  12.949
 1271SOL     OW 4264   0.351   1.403  12.251
 1271SOL    HW1 4265   0.269   1.386  12.204
 1271SOL    HW2 4266   0.399   1.462  12.193
 1272SOL     OW 4267   1.462   1.499  12.524
 1272SOL    HW1 4268   1.510   1.581  12.533
 1272SOL    HW2 4269   1.403   1.498  12.600
 1273SOL     OW 4270   0.453   0.407  12.672
 1273SOL    HW1 4271   0.533   0.355  12.667
 1273SOL    HW2 4272   0.382   0.342  12.673
 1274SOL     OW 4273   1.613   0.451  11.907
 1274SOL    HW1 4274   1.540   0.482  11.853
 1274SOL    HW2 4275   1.636   0.526  11.962
 1275SOL     OW 4276   0.223   1.717  11.632
 1275SOL    HW1 4277   0.241   1.792  11.689
 1275SOL    HW2 4278   0.300   1.710  11.576
 1276SOL     OW 4279   1.136   1.341  12.864
 1276SOL    HW1 4280   1.177   1.337  12.951
 1276SOL    HW2 4281   1.084   1.261  12.858
 1277SOL     OW 4282   0.245   1.447  11.711
 1277SOL    HW1 4283   0.214   1.537  11.699
 1277SOL    HW2 4284   0.177   1.405  11.763
 1278SOL     OW 4285   0.246   1.070  12.057
 1278SOL    HW1 4286   0.264   0.985  12.099
 1278SOL    HW2 4287   0.194   1.118  12.121
 1279SOL     OW 4288   0.614   1.791  12.602
 1279SOL    HW1 4289   0.531   1.773  12.647
 1279SOL    HW2 4290   0.636   1.881  12.627
 1280SOL     OW 4291   0.582   0.983  11.307
 1280SOL    HW1 4292   0.628   1.030  11.238
 1280SOL    HW2 4293   0.625   1.012  11.388
 1281SOL     OW 4294   1.578   0.136  12.629
 1281SOL    HW1 4295   1.603   0.210  12.574
 1281SOL    HW2 4296   1.555   0.176  12.713
 1282SOL     OW 4297   0.138   0.649  11.742
 1282SOL    HW1 4298   0.094   0.564  11.747
 1282SOL    HW2 4299   0.101   0.699  11.814
 1283SOL     OW 4300   0.043   1.591  11.312
 1283SOL    HW1 4301   0.032   1.498  11.333
 1283SOL    HW2 4302   3.965   1.633  11.346
 1284SOL     OW 4303   1.687   0.916  11.810
 1284SOL    HW1 4304   1.773   0.878  11.793
 1284SOL    HW2 4305   1.668   0.969  11.732
 1285SOL     OW 4306   1.646   1.108  11.602
 1285SOL    HW1 4307   1.732   1.114  11.560
 1285SOL    HW2 4308   1.651   1.168  11.675
 1286SOL     OW 4309   0.134   0.753  12.762
 1286SOL    HW1 4310   0.230   0.747  12.765
 1286SOL    HW2 4311   0.115   0.846  12.779
 1287SOL     OW 4312   0.612   1.384  11.908
 1287SOL    HW1 4313   0.566   1.301  11.917
 1287SOL    HW2 4314   0.596   1.410  11.817
 1288SOL     OW 4315   1.289   1.238  12.596
 1288SOL    HW1 4316   1.322   1.171  12.536
 1288SOL    HW2 4317   1.346   1.232  12.672
 1289SOL     OW 4318   0.816   0.002  11.686
 1289SOL    HW1 4319   0.862   0.083  11.665
 1289SOL    HW2 4320   0.724   0.025  11.688
 1290SOL     OW 4321   0.185   0.954  12.447
 1290SOL    HW1 4322   0.273   0.919  12.434
 1290SOL    HW2 4323   0.131   0.908  12.383
 1291SOL     OW 4324   1.532   0.993  11.370
 1291SOL    HW1 4325   1.462   0.935  11.401
 1291SOL    HW2 4326   1.572   1.027  11.449
 1292SOL     OW 4327   1.185   1.805  12.794
 1292SOL    HW1 4328   1.198   1.863  12.719
 1292SOL    HW2 4329   1.201   1.717  12.759
 1293SOL     OW 4330   0.340   0.254  12.995
 1293SOL    HW1 4331   0.385   0.338  12.983
 1293SOL    HW2 4332   0.250   0.278  13.019
 1294SOL     OW 4333   1.465   1.420  12.124
 1294SOL    HW1 4334   1.397   1.434  12.189
 1294SOL    HW2 4335   1.453   1.328  12.097
 1295SOL     OW 4336   1.667   1.728  11.731
 1295SOL    HW1 4337   1.629   1.693  11.651
 1295SOL    HW2 4338   1.647   1.664  11.798
 1296SOL     OW 4339   0.596   0.719  11.435
 1296SOL    HW1 4340   0.603   0.802  11.388
 1296SOL    HW2 4341   0.533   0.737  11.505
 1297SOL     OW 4342   1.276   0.363  12.112
 1297SOL    HW1 4343   1.189   0.324  12.117
 1297SOL    HW2 4344   1.333   0.302  12.159
 1298SOL     OW 4345   1.576   1.669  11.473
 1298SOL    HW1 4346   1.662   1.707  11.456
 1298SOL    HW2 4347   1.543   1.645  11.387
 1299SOL     OW 4348   0.795   0.616  12.627
 1299SOL    HW1 4349   0.765   0.592  12.714
 1299SOL    HW2 4350   0.754   0.552  12.569
 1300SOL     OW 4351   1.393   0.477  12.849
 1300SOL    HW1 4352   1.397   0.521  12.934
 1300SOL    HW2 4353   1.453   0.403  12.858
 1301SOL     OW 4354   0.956   0.888  12.754
 1301SOL    HW1 4355   1.010   0.818  12.719
 1301SOL    HW2 4356   0.908   0.922  12.678
 1302SOL     OW 4357   0.991   0.404  12.413
 1302SOL    HW1 4358   0.908   0.429  12.454
 1302SOL    HW2 4359   0.965   0.371  12.327
 1303SOL     OW 4360   1.051   0.699  11.598
 1303SOL    HW1 4361   1.065   0.691  11.693
 1303SOL    HW2 4362   0.969   0.652  11.583
 1304SOL     OW 4363   0.081   0.824  11.963
 1304SOL    HW1 4364   0.160   0.794  12.008
 1304SOL    HW2 4365   0.092   0.919  11.955
 1305SOL     OW 4366   0.129   1.855  12.745
 1305SOL    HW1 4367   0.137   1.822  12.834
 1305SOL    HW2 4368   0.037   1.843  12.722
 1306SOL     OW 4369   0.891   0.350  11.370
 1306SOL    HW1 4370   0.933   0.409  11.307
 1306SOL    HW2 4371   0.894   0.264  11.328
 1307SOL     OW 4372   1.711   0.576  13.000
 1307SOL    HW1 4373   1.672   0.651  12.954
 1307SOL    HW2 4374   1.735   0.514  12.931
 1308SOL     OW 4375   1.376   1.142  11.713
 1308SOL    HW1 4376   1.455   1.129  11.661
 1308SOL    HW2 4377   1.324   1.204  11.662
 1309SOL     OW 4378   0.559   0.195  12.054
 1309SOL    HW1 4379   0.562   0.216  12.148
 1309SOL    HW2 4380   0.548   0.279  12.011
 1310SOL     OW 4381   1.007   1.445  11.645
 1310SOL    HW1 4382   0.968   1.517  11.596
 1310SOL    HW2 4383   0.991   1.467  11.736
 1311SOL     OW 4384   0.364   1.812  12.038
 1311SOL    HW1 4385   0.429   1.742  12.043
 1311SOL    HW2 4386   0.415   1.892  12.053
 1312SOL     OW 4387   1.798   1.055  12.041
 1312SOL    HW1 4388   1.743   1.042  11.964
 1312SOL    HW2 4389   1.737   1.062  12.114
 1313SOL     OW 4390   1.228   1.539  12.685
 1313SOL    HW1 4391   1.214   1.466  12.745
 1313SOL    HW2 4392   1.166   1.523  12.613
 1314SOL     OW 4393   0.310   0.955  11.414
 1314SOL    HW1 4394   0.395   0.978  11.376
 1314SOL    HW2 4395   0.296   0.864  11.388
 1315SOL     OW 4396   1.476   0.742  11.902
 1315SOL    HW1 4397   1.469   0.698  11.987
 1315SOL    HW2 4398   1.554   0.797  11.911
 1316SOL     OW 4399   0.465   1.259  12.909
 1316SOL    HW1 4400   0.439   1.268  12.817
 1316SOL    HW2 4401   0.383   1.265  12.958
 1317SOL     OW 4402   1.122   1.777  11.404
 1317SOL    HW1 4403   1.048   1.735  11.450
 1317SOL    HW2 4404   1.143   1.716  11.333
 1318SOL     OW 4405   0.199   0.296  12.670
 1318SOL    HW1 4406   0.106   0.318  12.667
 1318SOL    HW2 4407   0.206   0.232  12.740
 1319SOL     OW 4408   1.628   1.379  11.259
 1319SOL    HW1 4409   1.588   1.464  11.243
 1319SOL    HW2 4410   1.559   1.315  11.240
 1320SOL     OW 4411   0.466   1.739  11.491
 1320SOL    HW1 4412   0.508   1.797  11.554
 1320SOL    HW2 4413   0.539   1.708  11.436
 1321SOL     OW 4414   1.436   0.159  11.578
 1321SOL    HW1 4415   1.396   0.094  11.520
 1321SOL    HW2 4416   1.514   0.115  11.612
 1322SOL     OW 4417   0.250   1.792  12.404
 1322SOL    HW1 4418   0.299   1.729  12.458
 1322SOL    HW2 4419   0.245   1.750  12.318
 1323SOL     OW 4420   0.937   1.698  12.072
 1323SOL    HW1 4421   1.016   1.647  12.092
 1323SOL    HW2 4422   0.893   1.649  12.003
 1324SOL     OW 4423   0.394   0.694  11.645
 1324SOL    HW1 4424   0.421   0.604  11.658
 1324SOL    HW2 4425   0.302   0.696  11.671
 1325SOL     OW 4426   1.531   0.232  12.898
 1325SOL    HW1 4427   1.532   0.256  12.991
 1325SOL    HW2 4428   1.501   0.141  12.897
 1326SOL     OW 4429   0.642   0.136  11.273
 1326SOL    HW1 4430   0.674   0.056  11.315
 1326SOL    HW2 4431   0.580   0.104  11.207
 1327SOL     OW 4432   0.778   0.282  12.935
 1327SOL    HW1 4433   0.844   0.212  12.941
 1327SOL    HW2 4434   0.717   0.264  13.007
 1328SOL     OW 4435   0.876   1.521  12.366
 1328SOL    HW1 4436   0.861   1.485  12.278
 1328SOL    HW2 4437   0.946   1.467  12.403
 1329SOL     OW 4438   1.342   0.587  12.602
 1329SOL    HW1 4439   1.372   0.558  12.688
 1329SOL    HW2 4440   1.376   0.676  12.594
 1330SOL     OW 4441   0.814   1.396  12.109
 1330SOL    HW1 4442   0.899   1.385  12.066
 1330SOL    HW2 4443   0.750   1.395  12.038
 1331SOL     OW 4444   0.929   0.511  12.074
 1331SOL    HW1 4445   0.905   0.503  11.982
 1331SOL    HW2 4446   0.957   0.423  12.100
 1332SOL     OW 4447   0.546   0.057  11.663
 1332SOL    HW1 4448   0.471   0.064  11.722
 1332SOL    HW2 4449   0.548   0.141  11.617
 1333SOL     OW 4450   1.428   1.198  11.213
 1333SOL    HW1 4451   1.458   1.122  11.263
 1333SOL    HW2 4452   1.342   1.218  11.251
 1334SOL     OW 4453   0.334   0.045  11.367
 1334SOL    HW1 4454   0.363   0.087  11.286
 1334SOL    HW2 4455   0.414   0.026  11.415
 1335SOL     OW 4456   0.938   0.247  11.636
 1335SOL    HW1 4457   0.911   0.289  11.555
 1335SOL    HW2 4458   1.034   0.248  11.633
 1336SOL     OW 4459   1.079   0.681  12.632
 1336SOL    HW1 4460   1.008   0.617  12.638
 1336SOL    HW2 4461   1.159   0.628  12.626
 1337SOL     OW 4462   1.223   1.570  11.966
 1337SOL    HW1 4463   1.241   1.637  11.900
 1337SOL    HW2 4464   1.292   1.582  12.032
 1338SOL     OW 4465   0.466   1.149  11.911
 1338SOL    HW1 4466   0.393   1.126  11.968
 1338SOL    HW2 4467   0.433   1.133  11.823
 1339SOL     OW 4468   1.268   1.794  11.778
 1339SOL    HW1 4469   1.312   1.857  11.721
 1339SOL    HW2 4470   1.204   1.846  11.826
 1340SOL     OW 4471   1.024   0.547  11.195
 1340SOL    HW1 4472   0.981   0.630  11.176
 1340SOL    HW2 4473   1.087   0.568  11.264
 1341SOL     OW 4474   0.079   0.570  12.565
 1341SOL    HW1 4475   0.168   0.553  12.534
 1341SOL    HW2 4476   0.088   0.641  12.628
 1342SOL     OW 4477   0.572   0.232  12.332
 1342SOL    HW1 4478   0.596   0.139  12.342
 1342SOL    HW2 4479   0.481   0.236  12.362
 1343SOL     OW 4480   0.872   0.462  11.811
 1343SOL    HW1 4481   0.820   0.513  11.749
 1343SOL    HW2 4482   0.890   0.380  11.765
 1344SOL     OW 4483   0.994   0.042  11.951
 1344SOL    HW1 4484   0.962   0.066  11.864
 1344SOL    HW2 4485   1.005   3.947  11.947
 1345SOL     OW 4486   1.436   1.163  12.030
 1345SOL    HW1 4487   1.368   1.096  12.027
 1345SOL    HW2 4488   1.461   1.175  11.938
 1346SOL     OW 4489   1.466   0.604  12.151
 1346SOL    HW1 4490   1.416   0.523  12.156
 1346SOL    HW2 4491   1.527   0.599  12.224
 1347SOL     OW 4492   1.847   0.820  11.556
 1347SOL    HW1 4493   1.902   0.767  11.613
 1347SOL    HW2 4494   1.815   0.759  11.489
 1348SOL     OW 4495   0.489   1.416  11.334
 1348SOL    HW1 4496   0.414   1.385  11.384
 1348SOL    HW2 4497   0.469   1.394  11.243
 1349SOL     OW 4498   1.668   1.265  11.820
 1349SOL    HW1 4499   1.763   1.267  11.832
 1349SOL    HW2 4500   1.639   1.353  11.841
 1350SOL     OW 4501   1.394   0.573  11.242
 1350SOL    HW1 4502   1.333   0.554  11.313
 1350SOL    HW2 4503   1.480   0.552  11.279
 1351SOL     OW 4504   0.558   0.270  11.492
 1351SOL    HW1 4505   0.598   0.229  11.416
 1351SOL    HW2 4506   0.529   0.356  11.461
 1352SOL     OW 4507   1.753   1.238  12.748
 1352SOL    HW1 4508   1.840   1.199  12.742
 1352SOL    HW2 4509   1.768   1.328  12.776
 1353SOL     OW 4510   1.059   1.354  12.506
 1353SOL    HW1 4511   0.984   1.322  12.557
 1353SOL    HW2 4512   1.135   1.312  12.547
 1354SOL     OW 4513   1.606   1.624  12.824
 1354SOL    HW1 4514   1.602   1.661  12.736
 1354SOL    HW2 4515   1.690   1.579  12.828
 1355SOL     OW 4516   1.128   1.202  12.278
 1355SOL    HW1 4517   1.069   1.241  12.343
 1355SOL    HW2 4518   1.094   1.234  12.194
 1356SOL     OW 4519   1.629   1.099  12.250
 1356SOL    HW1 4520   1.624   1.160  12.323
 1356SOL    HW2 4521   1.550   1.116  12.199
 1357SOL     OW 4522   0.914   0.110  12.574
 1357SOL    HW1 4523   0.933   0.086  12.483
 1357SOL    HW2 4524   0.994   0.153  12.605
 1358SOL     OW 4525   0.984   1.114  12.895
 1358SOL    HW1 4526   0.892   1.130  12.915
 1358SOL    HW2 4527   0.984   1.037  12.839
 1359SOL     OW 4528   0.708   1.060  11.543
 1359SOL    HW1 4529   0.694   1.046  11.637
 1359SOL    HW2 4530   0.784   1.007  11.521
 1360SOL     OW 4531   0.420   0.815  12.424
 1360SOL    HW1 4532   0.489   0.822  12.490
 1360SOL    HW2 4533   0.385   0.727  12.434
 1361SOL     OW 4534   1.266   0.375  12.447
 1361SOL    HW1 4535   1.301   0.453  12.492
 1361SOL    HW2 4536   1.180   0.402  12.416
 1362SOL     OW 4537   0.064   1.579  12.517
 1362SOL    HW1 4538   0.066   1.647  12.449
 1362SOL    HW2 4539   0.156   1.566  12.540
 1363SOL     OW 4540   0.376   1.103  11.658
 1363SOL    HW1 4541   0.367   1.180  11.602
 1363SOL    HW2 4542   0.373   1.028  11.597
 1364SOL     OW 4543   0.556   0.538  12.032
 1364SOL    HW1 4544   0.572   0.595  11.957
 1364SOL    HW2 4545   0.620   0.565  12.097
 1365SOL     OW 4546   1.248   1.348  11.561
 1365SOL    HW1 4547   1.303   1.419  11.593
 1365SOL    HW2 4548   1.161   1.369  11.595
 1366SOL     OW 4549   1.279   1.457  12.319
 1366SOL    HW1 4550   1.335   1.460  12.396
 1366SOL    HW2 4551   1.224   1.379  12.331
 1367SOL     OW 4552   1.579   0.631  11.656
 1367SOL    HW1 4553   1.538   0.692  11.717
 1367SOL    HW2 4554   1.626   0.687  11.594
 1368SOL     OW 4555   0.346   1.525  12.492
 1368SOL    HW1 4556   0.336   1.475  12.411
 1368SOL    HW2 4557   0.440   1.541  12.499
 1369SOL     OW 4558   0.412   0.740  12.773
 1369SOL    HW1 4559   0.473   0.787  12.716
 1369SOL    HW2 4560   0.453   0.654  12.786
 1370SOL     OW 4561   1.600   0.778  12.854
 1370SOL    HW1 4562   1.513   0.819  12.846
 1370SOL    HW2 4563   1.652   0.819  12.785
 1371SOL     OW 4564   1.018   0.123  12.949
 1371SOL    HW1 4565   1.057   0.201  12.909
 1371SOL    HW2 4566   1.011   0.060  12.878
 1372SOL     OW 4567   0.478   0.036  12.940
 1372SOL    HW1 4568   0.492   0.039  12.845
 1372SOL    HW2 4569   0.419   0.109  12.958
 1373SOL     OW 4570   0.584   0.873  12.203
 1373SOL    HW1 4571   0.614   0.964  12.202
 1373SOL    HW2 4572   0.527   0.867  12.280
 1374SOL     OW 4573   1.359   0.858  12.203
 1374SOL    HW1 4574   1.276   0.850  12.155
 1374SOL    HW2 4575   1.398   0.771  12.199
 1375SOL     OW 4576   1.205   0.534  11.435
 1375SOL    HW1 4577   1.213   0.455  11.488
 1375SOL    HW2 4578   1.161   0.597  11.493
 1376SOL     OW 4579   0.313   0.214  12.413
 1376SOL    HW1 4580   0.272   0.249  12.493
 1376SOL    HW2 4581   0.294   0.120  12.415
 1377SOL     OW 4582   0.057   1.305  12.452
 1377SOL    HW1 4583   0.090   1.265  12.533
 1377SOL    HW2 4584   0.050   1.398  12.472
 1378SOL     OW 4585   0.727   0.634  12.229
 1378SOL    HW1 4586   0.799   0.617  12.169
 1378SOL    HW2 4587   0.698   0.723  12.206
 1379SOL     OW 4588   1.734   0.959  13.024
 1379SOL    HW1 4589   1.687   0.901  12.965
 1379SOL    HW2 4590   1.674   0.971  13.098
 1380SOL     OW 4591   0.325   0.056  11.820
 1380SOL    HW1 4592   0.297   0.147  11.822
 1380SOL    HW2 4593   0.286   0.017  11.898
 1381SOL     OW 4594   1.600   0.386  11.555
 1381SOL    HW1 4595   1.576   0.319  11.618
 1381SOL    HW2 4596   1.581   0.469  11.599
 1382SOL     OW 4597   1.028   0.760  12.133
 1382SOL    HW1 4598   1.025   0.777  12.227
 1382SOL    HW2 4599   1.001   0.668  12.124
 1383SOL     OW 4600   0.982   1.566  12.888
 1383SOL    HW1 4601   0.967   1.610  12.805
 1383SOL    HW2 4602   1.026   1.484  12.864
 1384SOL     OW 4603   1.855   1.506  12.778
 1384SOL    HW1 4604   1.870   1.534  12.687
 1384SOL    HW2 4605   1.939   1.520  12.822
 1385SOL     OW 4606   0.351   0.919  12.974
 1385SOL    HW1 4607   0.430   0.940  13.023
 1385SOL    HW2 4608   0.379   0.854  12.910
 1386SOL     OW 4609   1.510   0.276  11.308
 1386SOL    HW1 4610   1.434   0.219  11.321
 1386SOL    HW2 4611   1.524   0.317  11.394
 1387SOL     OW 4612   1.292   0.827  11.203
 1387SOL    HW1 4613   1.334   0.741  11.206
 1387SOL    HW2 4614   1.324   0.866  11.122
 1388SOL     OW 4615   1.064   1.335  12.025
 1388SOL    HW1 4616   1.068   1.263  11.963
 1388SOL    HW2 4617   1.127   1.399  11.991
 1389SOL     OW 4618   0.313   0.806  12.123
 1389SOL    HW1 4619   0.407   0.823  12.116
 1389SOL    HW2 4620   0.307   0.716  12.155
 1390SOL     OW 4621   0.337   0.527  12.185
 1390SOL    HW1 4622   0.298   0.442  12.167
 1390SOL    HW2 4623   0.413   0.531  12.126
 1391SOL     OW 4624   1.134   0.383  12.864
 1391SOL    HW1 4625   1.086   0.438  12.926
 1391SOL    HW2 4626   1.221   0.421  12.859
 1392SOL     OW 4627   1.151   0.224  12.653
 1392SOL    HW1 4628   1.143   0.279  12.731
 1392SOL    HW2 4629   1.173   0.285  12.583
 1393SOL     OW 4630   3.999   1.320  11.354
 1393SOL    HW1 4631   3.905   1.336  11.358
 1393SOL    HW2 4632   0.009   1.227  11.374
 1394SOL     OW 4633   0.076   1.801  12.062
 1394SOL    HW1 4634   0.078   1.705  12.070
 1394SOL    HW2 4635   0.168   1.826  12.065
 1395SOL     OW 4636   0.504   1.570  12.082
 1395SOL    HW1 4637   0.573   1.631  12.107
 1395SOL    HW2 4638   0.547   1.507  12.025
 1396SOL     OW 4639   0.985   0.792  12.399
 1396SOL    HW1 4640   1.038   0.769  12.475
 1396SOL    HW2 4641   0.898   0.755  12.418
 1397SOL     OW 4642   0.036   0.566  12.285
 1397SOL    HW1 4643   0.103   0.519  12.235
 1397SOL    HW2 4644   0.062   0.554  12.377
 1398SOL     OW 4645   0.209   0.516  12.894
 1398SOL    HW1 4646   0.259   0.480  12.820
 1398SOL    HW2 4647   0.159   0.588  12.855
 1399SOL     OW 4648   1.376   0.940  12.830
 1399SOL    HW1 4649   1.398   1.033  12.829
 1399SOL    HW2 4650   1.374   0.915  12.738
 1400SOL     OW 4651   0.817   0.572  11.529
 1400SOL    HW1 4652   0.822   0.494  11.473
 1400SOL    HW2 4653   0.742   0.621  11.497
 1401SOL     OW 4654   1.642   0.601  12.359
 1401SOL    HW1 4655   1.632   0.541  12.433
 1401SOL    HW2 4656   1.729   0.583  12.324
 1402SOL     OW 4657   0.297   1.546  12.903
 1402SOL    HW1 4658   0.246   1.616  12.945
 1402SOL    HW2 4659   0.262   1.465  12.940
 1403SOL     OW 4660   0.700   0.457  12.433
 1403SOL    HW1 4661   0.653   0.378  12.406
 1403SOL    HW2 4662   0.694   0.516  12.357
 1404SOL     OW 4663   0.928   1.679  12.639
 1404SOL    HW1 4664   0.903   1.646  12.553
 1404SOL    HW2 4665   0.926   1.774  12.630
 1405SOL     OW 4666   0.458   0.492  11.366
 1405SOL    HW1 4667   0.522   0.561  11.383
 1405SOL    HW2 4668   0.377   0.539  11.346
 1406SOL     OW 4669   0.157   1.136  12.644
 1406SOL    HW1 4670   0.161   1.084  12.725
 1406SOL    HW2 4671   0.172   1.073  12.574
 1407SOL     OW 4672   1.327   1.048  12.396
 1407SOL    HW1 4673   1.351   0.985  12.328
 1407SOL    HW2 4674   1.256   1.099  12.357
 1408SOL     OW 4675   1.311   0.856  11.479
 1408SOL    HW1 4676   1.234   0.827  11.528
 1408SOL    HW2 4677   1.286   0.843  11.387
 1409SOL     OW 4678   1.744   1.739  12.310
 1409SOL    HW1 4679   1.818   1.762  12.255
 1409SOL    HW2 4680   1.729   1.646  12.294
 1410SOL     OW 4681   1.243   1.734  12.285
 1410SOL    HW1 4682   1.325   1.753  12.241
 1410SOL    HW2 4683   1.247   1.640  12.304
 1411SOL     OW 4684   0.076   1.218  12.199
 1411SOL    HW1 4685   0.082   1.243  12.291
 1411SOL    HW2 4686   3.983   1.224  12.178
 1412SOL     OW 4687   0.679   1.665  12.900
 1412SOL    HW1 4688   0.624   1.743  12.895
 1412SOL    HW2 4689   0.743   1.676  12.829
 1413SOL     OW 4690   1.710   0.128  11.657
 1413SOL    HW1 4691   1.791   0.133  11.606
 1413SOL    HW2 4692   1.701   0.035  11.679
 1414SOL     OW 4693   1.390   1.567  11.657
 1414SOL    HW1 4694   1.447   1.599  11.587
 1414SOL    HW2 4695   1.341   1.645  11.685
 1415SOL     OW 4696   0.171   1.767  13.001
 1415SOL    HW1 4697   0.113   1.719  13.059
 1415SOL    HW2 4698   0.215   1.830  13.058
 1416SOL     OW 4699   1.277   0.926  11.843
 1416SOL    HW1 4700   1.351   0.865  11.850
 1416SOL    HW2 4701   1.311   0.998  11.791
 1417SOL     OW 4702   0.816   1.272  12.603
 1417SOL    HW1 4703   0.788   1.312  12.686
 1417SOL    HW2 4704   0.745   1.292  12.542
 1418SOL     OW 4705   0.671   1.618  11.327
 1418SOL    HW1 4706   0.681   1.630  11.233
 1418SOL    HW2 4707   0.617   1.540  11.337
 1419SOL     OW 4708   1.628   1.728  12.563
 1419SOL    HW1 4709   1.672   1.735  12.479
 1419SOL    HW2 4710   1.616   1.818  12.592
 1420SOL     OW 4711   1.838   0.176  12.140
 1420SOL    HW1 4712   1.869   0.102  12.087
 1420SOL    HW2 4713   1.751   0.195  12.106
 1421SOL     OW 4714   0.272   0.324  11.887
 1421SOL    HW1 4715   0.187   0.359  11.862
 1421SOL    HW2 4716   0.265   0.306  11.981
 1422SOL     OW 4717   1.206   1.607  11.203
 1422SOL    HW1 4718   1.197   1.515  11.230
 1422SOL    HW2 4719   1.141   1.618  11.134
 1423SOL     OW 4720   0.824   1.005  12.544
 1423SOL    HW1 4721   0.867   1.001  12.459
 1423SOL    HW2 4722   0.824   1.098  12.567
 1424SOL     OW 4723   0.915   0.910  11.461
 1424SOL    HW1 4724   0.977   0.942  11.396
 1424SOL    HW2 4725   0.962   0.840  11.507
 1425SOL     OW 4726   1.490   1.623  11.213
 1425SOL    HW1 4727   1.396   1.619  11.198
 1425SOL    HW2 4728   1.528   1.630  11.125
 1426SOL     OW 4729   0.373   1.302  12.664
 1426SOL    HW1 4730   0.358   1.383  12.613
 1426SOL    HW2 4731   0.296   1.248  12.645
 1427SOL     OW 4732   1.610   1.282  12.453
 1427SOL    HW1 4733   1.671   1.274  12.526
 1427SOL    HW2 4734   1.551   1.352  12.480
 1428SOL     OW 4735   1.050   1.107  11.878
 1428SOL    HW1 4736   0.980   1.055  11.917
 1428SOL    HW2 4737   1.112   1.041  11.846
 1429SOL     OW 4738   1.015   0.247  12.140
 1429SOL    HW1 4739   1.004   0.198  12.058
 1429SOL    HW2 4740   1.008   0.182  12.209
 1430SOL     OW 4741   0.604   1.489  11.654
 1430SOL    HW1 4742   0.646   1.438  11.585
 1430SOL    HW2 4743   0.534   1.537  11.610
 1431SOL     OW 4744   1.719   0.391  12.547
 1431SOL    HW1 4745   1.791   0.455  12.549
 1431SOL    HW2 4746   1.753   0.320  12.492
 1432SOL     OW 4747   0.253   1.342  11.463
 1432SOL    HW1 4748   0.160   1.352  11.443
 1432SOL    HW2 4749   0.262   1.380  11.550
 1433SOL     OW 4750   0.105   1.001  12.890
 1433SOL    HW1 4751   0.044   0.990  12.963
 1433SOL    HW2 4752   0.191   0.980  12.927
 1434SOL     OW 4753   0.693   0.243  12.668
 1434SOL    HW1 4754   0.763   0.192  12.628
 1434SOL    HW2 4755   0.719   0.251  12.760
 1435SOL     OW 4756   0.088   0.326  11.200
 1435SOL    HW1 4757   3.992   0.321  11.195
 1435SOL    HW2 4758   0.110   0.408  11.156
 1436SOL     OW 4759   1.430   0.857  12.572
 1436SOL    HW1 4760   1.382   0.919  12.517
 1436SOL    HW2 4761   1.520   0.860  12.539
 1437SOL     OW 4762   0.039   0.162  11.455
 1437SOL    HW1 4763   0.037   0.242  11.403
 1437SOL    HW2 4764   0.120   0.168  11.506
 1438SOL     OW 4765   1.179   1.340  11.289
 1438SOL    HW1 4766   1.088   1.310  11.292
 1438SOL    HW2 4767   1.207   1.340  11.380
 1439SOL     OW 4768   0.619   0.830  12.607
 1439SOL    HW1 4769   0.675   0.906  12.591
 1439SOL    HW2 4770   0.680   0.756  12.615
 1440SOL     OW 4771   1.489   1.779  12.151
 1440SOL    HW1 4772   1.513   1.841  12.082
 1440SOL    HW2 4773   1.570   1.762  12.198
 1441SOL     OW 4774   0.716   0.564  12.880
 1441SOL    HW1 4775   0.758   0.627  12.939
 1441SOL    HW2 4776   0.749   0.479  12.908
 1442SOL     OW 4777   1.470   1.201  12.804
 1442SOL    HW1 4778   1.458   1.215  12.898
 1442SOL    HW2 4779   1.564   1.215  12.790
 1443SOL     OW 4780   0.380   1.742  12.731
 1443SOL    HW1 4781   0.293   1.779  12.718
 1443SOL    HW2 4782   0.365   1.660  12.779
 1444SOL     OW 4783   1.670   0.882  12.428
 1444SOL    HW1 4784   1.664   0.796  12.385
 1444SOL    HW2 4785   1.661   0.945  12.357
 1445SOL     OW 4786   1.225   0.333  11.618
 1445SOL    HW1 4787   1.291   0.265  11.610
 1445SOL    HW2 4788   1.247   0.378  11.699
 1446SOL     OW 4789   0.591   0.740  11.841
 1446SOL    HW1 4790   0.629   0.826  11.824
 1446SOL    HW2 4791   0.522   0.731  11.776
 1447SOL     OW 4792   1.755   0.380  12.815
 1447SOL    HW1 4793   1.737   0.385  12.721
 1447SOL    HW2 4794   1.697   0.311  12.847
 1448SOL     OW 4795   1.743   0.934  12.685
 1448SOL    HW1 4796   1.743   1.029  12.698
 1448SOL    HW2 4797   1.729   0.922  12.591
 1449SOL     OW 4798   0.862   1.367  11.204
 1449SOL    HW1 4799   0.823   1.395  11.287
 1449SOL    HW2 4800   0.881   1.449  11.158
 1450SOL     OW 4801   0.660   1.792  12.117
 1450SOL    HW1 4802   0.639   1.882  12.094
 1450SOL    HW2 4803   0.756   1.787  12.110
 1451SOL     OW 4804   0.867   0.966  12.027
 1451SOL    HW1 4805   0.917   0.895  12.067
 1451SOL    HW2 4806   0.833   1.016  12.101
 1452SOL     OW 4807   1.079   0.988  11.261
 1452SOL    HW1 4808   1.058   1.039  11.182
 1452SOL    HW2 4809   1.154   0.935  11.235
 1453SOL     OW 4810   1.848   1.542  12.005
 1453SOL    HW1 4811   1.764   1.539  11.959
 1453SOL    HW2 4812   1.838   1.482  12.078
 1454SOL     OW 4813   0.223   1.303  13.027
 1454SOL    HW1 4814   0.152   1.244  13.002
 1454SOL    HW2 4815   0.211   1.318  13.121
 1455SOL     OW 4816   0.114   1.274  11.888
 1455SOL    HW1 4817   0.121   1.222  11.969
 1455SOL    HW2 4818   0.111   1.209  11.818
 1456SOL     OW 4819   0.680   1.402  12.799
 1456SOL    HW1 4820   0.599   1.359  12.829
 1456SOL    HW2 4821   0.675   1.490  12.836
 1457SOL     OW 4822   1.813   0.184  12.411
 1457SOL    HW1 4823   1.816   0.089  12.425
 1457SOL    HW2 4824   1.827   0.195  12.317
 1458SOL     OW 4825   0.442   0.436  11.702
 1458SOL    HW1 4826   0.454   0.361  11.643
 1458SOL    HW2 4827   0.386   0.402  11.773
 1459SOL     OW 4828   1.703   1.480  12.265
 1459SOL    HW1 4829   1.619   1.459  12.223
 1459SOL    HW2 4830   1.713   1.412  12.333
 1460SOL     OW 4831   0.330   0.554  12.463
 1460SOL    HW1 4832   0.387   0.498  12.516
 1460SOL    HW2 4833   0.346   0.526  12.373
 1461SOL     OW 4834   0.826   1.578  11.850
 1461SOL    HW1 4835   0.817   1.630  11.770
 1461SOL    HW2 4836   0.749   1.522  11.851
 1462SOL     OW 4837   1.461   0.251  12.283
 1462SOL    HW1 4838   1.477   0.164  12.320
 1462SOL    HW2 4839   1.403   0.293  12.347
 1463SOL     OW 4840   1.006   0.030  12.320
 1463SOL    HW1 4841   0.930   3.980  12.289
 1463SOL    HW2 4842   1.076   3.965  12.327
 1464SOL     OW 4843   0.771   1.332  11.485
 1464SOL    HW1 4844   0.739   1.242  11.491
 1464SOL    HW2 4845   0.854   1.332  11.534
 1465SOL     OW 4846   0.620   1.558  12.456
 1465SOL    HW1 4847   0.623   1.639  12.507
 1465SOL    HW2 4848   0.707   1.550  12.419
 1466SOL     OW 4849   1.315   0.074  11.336
 1466SOL    HW1 4850   1.335   0.005  11.272
 1466SOL    HW2 4851   1.230   0.050  11.372
 1467SOL     OW 4852   1.286   0.458  11.859
 1467SOL    HW1 4853   1.237   0.540  11.856
 1467SOL    HW2 4854   1.289   0.436  11.952
 1468SOL     OW 4855   1.588   0.211  12.039
 1468SOL    HW1 4856   1.538   0.233  12.118
 1468SOL    HW2 4857   1.588   0.291  11.987
 1469SOL     OW 4858   0.045   1.052  11.412
 1469SOL    HW1 4859   0.139   1.035  11.403
 1469SOL    HW2 4860   0.010   0.972  11.451
 1470SOL     OW 4861   0.883   1.652  11.515
 1470SOL    HW1 4862   0.811   1.634  11.455
 1470SOL    HW2 4863   0.854   1.727  11.566
 1471SOL     OW 4864   0.232   0.624  13.153
 1471SOL    HW1 4865   0.138   0.629  13.174
 1471SOL    HW2 4866   0.234   0.596  13.062
 1472SOL     OW 4867   0.278   0.251   0.147
 1472SOL    HW1 4868   0.320   0.312   0.208
 1472SOL    HW2 4869   0.201   0.298   0.116
 1473SOL     OW 4870   0.015   0.385  13.666
 1473SOL    HW1 4871   3.921   0.401  13.656
 1473SOL    HW2 4872   0.028   0.297  13.633
 1474SOL     OW 4873   1.532   1.502  13.725
 1474SOL    HW1 4874   1.474   1.444  13.774
 1474SOL    HW2 4875   1.486   1.520  13.643
 1475SOL     OW 4876   1.128   0.702  13.737
 1475SOL    HW1 4877   1.183   0.775  13.708
 1475SOL    HW2 4878   1.078   0.737  13.810
 1476SOL     OW 4879   1.761   0.616  13.262
 1476SOL    HW1 4880   1.742   0.609  13.168
 1476SOL    HW2 4881   1.753   0.527  13.294
 1477SOL     OW 4882   0.686   1.011  13.673
 1477SOL    HW1 4883   0.741   0.989  13.749
 1477SOL    HW2 4884   0.613   1.061  13.711
 1478SOL     OW 4885   1.619   0.456  13.765
 1478SOL    HW1 4886   1.538   0.478  13.718
 1478SOL    HW2 4887   1.648   0.539  13.803
 1479SOL     OW 4888   0.220   1.714  13.488
 1479SOL    HW1 4889   0.237   1.788  13.546
 1479SOL    HW2 4890   0.299   1.707  13.435
 1480SOL     OW 4891   0.244   1.444  13.571
 1480SOL    HW1 4892   0.216   1.535  13.562
 1480SOL    HW2 4893   0.180   1.404  13.629
 1481SOL     OW 4894   0.250   1.078   0.020
 1481SOL    HW1 4895   0.271   1.032   0.101
 1481SOL    HW2 4896   0.209   1.160   0.048
 1482SOL     OW 4897   0.582   0.983  13.169
 1482SOL    HW1 4898   0.628   1.030  13.099
 1482SOL    HW2 4899   0.625   1.012  13.249
 1483SOL     OW 4900   0.144   0.646  13.611
 1483SOL    HW1 4901   0.084   0.572  13.602
 1483SOL    HW2 4902   0.099   0.707  13.669
 1484SOL     OW 4903   0.043   1.592  13.174
 1484SOL    HW1 4904   0.032   1.499  13.195
 1484SOL    HW2 4905   3.966   1.634  13.212
 1485SOL     OW 4906   1.686   0.915  13.667
 1485SOL    HW1 4907   1.774   0.882  13.648
 1485SOL    HW2 4908   1.665   0.970  13.592
 1486SOL     OW 4909   1.646   1.106  13.461
 1486SOL    HW1 4910   1.732   1.112  13.418
 1486SOL    HW2 4911   1.652   1.168  13.534
 1487SOL     OW 4912   0.608   1.387  13.764
 1487SOL    HW1 4913   0.562   1.304  13.778
 1487SOL    HW2 4914   0.584   1.414  13.675
 1488SOL     OW 4915   0.817   0.001  13.549
 1488SOL    HW1 4916   0.862   0.082  13.526
 1488SOL    HW2 4917   0.724   0.024  13.548
 1489SOL     OW 4918   1.531   0.992  13.232
 1489SOL    HW1 4919   1.462   0.934  13.264
 1489SOL    HW2 4920   1.571   1.028  13.312
 1490SOL     OW 4921   1.666   1.730  13.595
 1490SOL    HW1 4922   1.628   1.696  13.514
 1490SOL    HW2 4923   1.659   1.658  13.657
 1491SOL     OW 4924   0.595   0.720  13.296
 1491SOL    HW1 4925   0.602   0.803  13.248
 1491SOL    HW2 4926   0.532   0.738  13.366
 1492SOL     OW 4927   1.253   0.336   0.057
 1492SOL    HW1 4928   1.161   0.320   0.079
 1492SOL    HW2 4929   1.302   0.296   0.129
 1493SOL     OW 4930   1.577   1.671  13.335
 1493SOL    HW1 4931   1.664   1.707  13.316
 1493SOL    HW2 4932   1.543   1.645  13.249
 1494SOL     OW 4933   1.048   0.697  13.460
 1494SOL    HW1 4934   1.061   0.686  13.555
 1494SOL    HW2 4935   0.967   0.650  13.441
 1495SOL     OW 4936   0.080   0.833  13.808
 1495SOL    HW1 4937   0.164   0.814  13.850
 1495SOL    HW2 4938   0.076   0.929  13.807
 1496SOL     OW 4939   0.891   0.350  13.231
 1496SOL    HW1 4940   0.933   0.409  13.168
 1496SOL    HW2 4941   0.896   0.264  13.190
 1497SOL     OW 4942   1.365   1.136  13.558
 1497SOL    HW1 4943   1.454   1.134  13.522
 1497SOL    HW2 4944   1.321   1.207  13.510
 1498SOL     OW 4945   1.005   1.443  13.505
 1498SOL    HW1 4946   0.969   1.517  13.456
 1498SOL    HW2 4947   0.978   1.457  13.595
 1499SOL     OW 4948   0.395   1.795  13.859
 1499SOL    HW1 4949   0.434   1.709  13.875
 1499SOL    HW2 4950   0.460   1.857  13.891
 1500SOL     OW 4951   1.791   1.053  13.899
 1500SOL    HW1 4952   1.732   1.047  13.824
 1500SOL    HW2 4953   1.734   1.050   0.075
 1501SOL     OW 4954   0.310   0.955  13.277
 1501SOL    HW1 4955   0.395   0.979  13.238
 1501SOL    HW2 4956   0.296   0.865  13.249
 1502SOL     OW 4957   1.486   0.734  13.751
 1502SOL    HW1 4958   1.472   0.689  13.834
 1502SOL    HW2 4959   1.557   0.795  13.768
 1503SOL     OW 4960   1.122   1.777  13.266
 1503SOL    HW1 4961   1.048   1.736  13.311
 1503SOL    HW2 4962   1.143   1.716  13.195
 1504SOL     OW 4963   1.628   1.379  13.121
 1504SOL    HW1 4964   1.588   1.464  13.104
 1504SOL    HW2 4965   1.559   1.315  13.102
 1505SOL     OW 4966   0.467   1.739  13.352
 1505SOL    HW1 4967   0.508   1.796  13.417
 1505SOL    HW2 4968   0.540   1.709  13.298
 1506SOL     OW 4969   1.428   0.150  13.449
 1506SOL    HW1 4970   1.395   0.101  13.373
 1506SOL    HW2 4971   1.521   0.127  13.453
 1507SOL     OW 4972   0.926   1.691   0.014
 1507SOL    HW1 4973   0.965   1.624   0.070
 1507SOL    HW2 4974   0.883   1.642  13.844
 1508SOL     OW 4975   0.395   0.696  13.506
 1508SOL    HW1 4976   0.424   0.606  13.517
 1508SOL    HW2 4977   0.304   0.696  13.534
 1509SOL     OW 4978   0.642   0.136  13.135
 1509SOL    HW1 4979   0.676   0.057  13.177
 1509SOL    HW2 4980   0.580   0.105  13.069
 1510SOL     OW 4981   0.549   0.057  13.526
 1510SOL    HW1 4982   0.471   0.061  13.581
 1510SOL    HW2 4983   0.549   0.139  13.478
 1511SOL     OW 4984   1.428   1.197  13.075
 1511SOL    HW1 4985   1.458   1.122  13.125
 1511SOL    HW2 4986   1.342   1.218  13.113
 1512SOL     OW 4987   0.334   0.056  13.231
 1512SOL    HW1 4988   0.362   0.089  13.146
 1512SOL    HW2 4989   0.414   0.021  13.270
 1513SOL     OW 4990   0.938   0.244  13.496
 1513SOL    HW1 4991   0.909   0.289  13.417
 1513SOL    HW2 4992   1.033   0.250  13.494
 1514SOL     OW 4993   0.469   1.143  13.773
 1514SOL    HW1 4994   0.394   1.124  13.830
 1514SOL    HW2 4995   0.435   1.132  13.684
 1515SOL     OW 4996   1.271   1.797  13.634
 1515SOL    HW1 4997   1.311   1.865  13.579
 1515SOL    HW2 4998   1.203   1.843  13.683
 1516SOL     OW 4999   1.024   0.546  13.057
 1516SOL    HW1 5000   0.981   0.630  13.038
 1516SOL    HW2 5001   1.088   0.567  13.126
 1517SOL     OW 5002   0.893   0.474  13.666
 1517SOL    HW1 5003   0.821   0.516  13.618
 1517SOL    HW2 5004   0.897   0.385  13.630
 1518SOL     OW 5005   0.999   0.039  13.798
 1518SOL    HW1 5006   0.970   0.063  13.710
 1518SOL    HW2 5007   1.020   3.946  13.792
 1519SOL     OW 5008   1.849   0.820  13.415
 1519SOL    HW1 5009   1.905   0.767  13.471
 1519SOL    HW2 5010   1.815   0.759  13.350
 1520SOL     OW 5011   0.489   1.416  13.196
 1520SOL    HW1 5012   0.414   1.385  13.246
 1520SOL    HW2 5013   0.468   1.394  13.106
 1521SOL     OW 5014   1.677   1.268  13.668
 1521SOL    HW1 5015   1.770   1.270  13.691
 1521SOL    HW2 5016   1.643   1.351  13.702
 1522SOL     OW 5017   1.394   0.573  13.104
 1522SOL    HW1 5018   1.333   0.554  13.175
 1522SOL    HW2 5019   1.480   0.551  13.141
 1523SOL     OW 5020   0.556   0.270  13.355
 1523SOL    HW1 5021   0.596   0.227  13.279
 1523SOL    HW2 5022   0.528   0.355  13.322
 1524SOL     OW 5023   0.708   1.061  13.402
 1524SOL    HW1 5024   0.694   1.048  13.495
 1524SOL    HW2 5025   0.784   1.008  13.381
 1525SOL     OW 5026   0.379   1.103  13.520
 1525SOL    HW1 5027   0.367   1.181  13.466
 1525SOL    HW2 5028   0.374   1.030  13.457
 1526SOL     OW 5029   0.570   0.540  13.864
 1526SOL    HW1 5030   0.583   0.610  13.800
 1526SOL    HW2 5031   0.622   0.567   0.040
 1527SOL     OW 5032   1.247   1.350  13.420
 1527SOL    HW1 5033   1.302   1.422  13.449
 1527SOL    HW2 5034   1.160   1.370  13.455
 1528SOL     OW 5035   1.586   0.630  13.514
 1528SOL    HW1 5036   1.545   0.687  13.579
 1528SOL    HW2 5037   1.627   0.689  13.451
 1529SOL     OW 5038   1.205   0.532  13.298
 1529SOL    HW1 5039   1.212   0.453  13.351
 1529SOL    HW2 5040   1.161   0.595  13.356
 1530SOL     OW 5041   0.328   0.050  13.677
 1530SOL    HW1 5042   0.305   0.143  13.686
 1530SOL    HW2 5043   0.273   0.006  13.742
 1531SOL     OW 5044   1.585   0.387  13.411
 1531SOL    HW1 5045   1.583   0.321  13.480
 1531SOL    HW2 5046   1.576   0.470  13.457
 1532SOL     OW 5047   1.510   0.277  13.168
 1532SOL    HW1 5048   1.435   0.220  13.182
 1532SOL    HW2 5049   1.524   0.320  13.253
 1533SOL     OW 5050   1.292   0.827  13.065
 1533SOL    HW1 5051   1.335   0.741  13.068
 1533SOL    HW2 5052   1.323   0.866  12.984
 1534SOL     OW 5053   3.999   1.320  13.216
 1534SOL    HW1 5054   3.905   1.337  13.220
 1534SOL    HW2 5055   0.009   1.227  13.235
 1535SOL     OW 5056   0.817   0.574  13.385
 1535SOL    HW1 5057   0.820   0.495  13.331
 1535SOL    HW2 5058   0.740   0.621  13.354
 1536SOL     OW 5059   0.457   0.492  13.229
 1536SOL    HW1 5060   0.522   0.561  13.246
 1536SOL    HW2 5061   0.377   0.539  13.208
 1537SOL     OW 5062   1.312   0.851  13.340
 1537SOL    HW1 5063   1.233   0.828  13.389
 1537SOL    HW2 5064   1.287   0.841  13.248
 1538SOL     OW 5065   1.697   0.126  13.471
 1538SOL    HW1 5066   1.790   0.131  13.451
 1538SOL    HW2 5067   1.691   0.061  13.542
 1539SOL     OW 5068   1.384   1.572  13.509
 1539SOL    HW1 5069   1.441   1.607  13.441
 1539SOL    HW2 5070   1.338   1.648  13.543
 1540SOL     OW 5071   1.286   0.915  13.686
 1540SOL    HW1 5072   1.364   0.860  13.672
 1540SOL    HW2 5073   1.309   0.999  13.647
 1541SOL     OW 5074   0.671   1.618  13.189
 1541SOL    HW1 5075   0.681   1.629  13.095
 1541SOL    HW2 5076   0.617   1.540  13.199
 1542SOL     OW 5077   1.833   0.165   0.063
 1542SOL    HW1 5078   1.870   0.077   0.052
 1542SOL    HW2 5079   1.739   0.153   0.051
 1543SOL     OW 5080   0.280   0.308  13.741
 1543SOL    HW1 5081   0.200   0.354  13.715
 1543SOL    HW2 5082   0.286   0.321  13.835
 1544SOL     OW 5083   1.206   1.607  13.065
 1544SOL    HW1 5084   1.197   1.515  13.092
 1544SOL    HW2 5085   1.141   1.618  12.995
 1545SOL     OW 5086   0.917   0.912  13.327
 1545SOL    HW1 5087   0.978   0.942  13.259
 1545SOL    HW2 5088   0.962   0.838  13.368
 1546SOL     OW 5089   1.490   1.623  13.075
 1546SOL    HW1 5090   1.396   1.619  13.060
 1546SOL    HW2 5091   1.528   1.630  12.987
 1547SOL     OW 5092   1.049   1.091  13.753
 1547SOL    HW1 5093   0.962   1.052  13.748
 1547SOL    HW2 5094   1.100   1.047  13.685
 1548SOL     OW 5095   0.602   1.492  13.510
 1548SOL    HW1 5096   0.644   1.440  13.441
 1548SOL    HW2 5097   0.532   1.539  13.465
 1549SOL     OW 5098   0.252   1.341  13.325
 1549SOL    HW1 5099   0.159   1.352  13.304
 1549SOL    HW2 5100   0.262   1.380  13.412
 1550SOL     OW 5101   0.088   0.327  13.063
 1550SOL    HW1 5102   3.992   0.321  13.057
 1550SOL    HW2 5103   0.110   0.408  13.017
 1551SOL     OW 5104   0.042   0.163  13.308
 1551SOL    HW1 5105   0.044   0.243  13.257
 1551SOL    HW2 5106   0.124   0.164  13.358
 1552SOL     OW 5107   1.179   1.340  13.150
 1552SOL    HW1 5108   1.088   1.311  13.153
 1552SOL    HW2 5109   1.207   1.340  13.241
 1553SOL     OW 5110   1.223   0.328  13.484
 1553SOL    HW1 5111   1.292   0.262  13.474
 1553SOL    HW2 5112   1.251   0.380  13.560
 1554SOL     OW 5113   0.594   0.750  13.693
 1554SOL    HW1 5114   0.628   0.837  13.673
 1554SOL    HW2 5115   0.522   0.738  13.630
 1555SOL     OW 5116   0.863   1.367  13.066
 1555SOL    HW1 5117   0.823   1.395  13.149
 1555SOL    HW2 5118   0.881   1.449  13.020
 1556SOL     OW 5119   0.655   1.845   0.062
 1556SOL    HW1 5120   0.665   1.940   0.052
 1556SOL    HW2 5121   0.744   1.813   0.076
 1557SOL     OW 5122   0.833   0.962  13.893
 1557SOL    HW1 5123   0.873   0.886   0.035
 1557SOL    HW2 5124   0.841   1.032   0.058
 1558SOL     OW 5125   1.078   0.987  13.123
 1558SOL    HW1 5126   1.057   1.038  13.045
 1558SOL    HW2 5127   1.154   0.934  13.097
 1559SOL     OW 5128   0.114   1.270  13.751
 1559SOL    HW1 5129   0.059   1.221  13.812
 1559SOL    HW2 5130   0.126   1.210  13.677
 1560SOL     OW 5131   0.444   0.438  13.558
 1560SOL    HW1 5132   0.459   0.364  13.499
 1560SOL    HW2 5133   0.399   0.400  13.633
 1561SOL     OW 5134   1.698   1.494   0.321
 1561SOL    HW1 5135   1.661   1.453   0.243
 1561SOL    HW2 5136   1.761   1.430   0.354
 1562SOL     OW 5137   0.820   1.555  13.712
 1562SOL    HW1 5138   0.803   1.609  13.635
 1562SOL    HW2 5139   0.741   1.501  13.722
 1563SOL     OW 5140   0.771   1.332  13.345
 1563SOL    HW1 5141   0.739   1.242  13.352
 1563SOL    HW2 5142   0.853   1.333  13.394
 1564SOL     OW 5143   1.315   0.077  13.203
 1564SOL    HW1 5144   1.342   0.010  13.140
 1564SOL    HW2 5145   1.230   0.048  13.234
 1565SOL     OW 5146   1.292   0.459  13.717
 1565SOL    HW1 5147   1.240   0.540  13.720
 1565SOL    HW2 5148   1.291   0.428  13.808
 1566SOL     OW 5149   0.044   1.052  13.272
 1566SOL    HW1 5150   0.138   1.035  13.264
 1566SOL    HW2 5151   0.009   0.972  13.312
 1567SOL     OW 5152   0.883   1.652  13.376
 1567SOL    HW1 5153   0.811   1.635  13.317
 1567SOL    HW2 5154   0.854   1.725  13.430
 1568SOL     OW 5155   0.233   2.505   0.121
 1568SOL    HW1 5156   0.139   2.502   0.136
 1568SOL    HW2 5157   0.246   2.463   0.036
 1569SOL     OW 5158   0.228   2.133   0.987
 1569SOL    HW1 5159   0.249   2.102   1.075
 1569SOL    HW2 5160   0.133   2.123   0.980
 1570SOL     OW 5161   0.012   2.228   0.635
 1570SOL    HW1 5162   3.928   2.247   0.676
 1570SOL    HW2 5163   3.989   2.187   0.551
 1571SOL     OW 5164   0.576   3.144   1.182
 1571SOL    HW1 5165   0.489   3.149   1.141
 1571SOL    HW2 5166   0.592   3.232   1.216
 1572SOL     OW 5167   1.559   3.372   0.706
 1572SOL    HW1 5168   1.514   3.352   0.789
 1572SOL    HW2 5169   1.489   3.376   0.641
 1573SOL     OW 5170   1.130   2.560   0.702
 1573SOL    HW1 5171   1.180   2.641   0.688
 1573SOL    HW2 5172   1.084   2.575   0.785
 1574SOL     OW 5173   1.756   2.468   0.226
 1574SOL    HW1 5174   1.780   2.425   0.144
 1574SOL    HW2 5175   1.726   2.397   0.283
 1575SOL     OW 5176   0.757   3.004   1.038
 1575SOL    HW1 5177   0.691   3.038   1.097
 1575SOL    HW2 5178   0.792   3.082   0.994
 1576SOL     OW 5179   0.863   2.639   1.821
 1576SOL    HW1 5180   0.855   2.711   1.884
 1576SOL    HW2 5181   0.888   2.682   1.739
 1577SOL     OW 5182   0.685   2.866   0.648
 1577SOL    HW1 5183   0.751   2.853   0.717
 1577SOL    HW2 5184   0.616   2.918   0.690
 1578SOL     OW 5185   0.709   3.013   1.812
 1578SOL    HW1 5186   0.757   3.091   1.837
 1578SOL    HW2 5187   0.626   3.045   1.777
 1579SOL     OW 5188   0.351   3.265   1.078
 1579SOL    HW1 5189   0.268   3.253   1.032
 1579SOL    HW2 5190   0.401   3.325   1.022
 1580SOL     OW 5191   1.461   3.361   1.352
 1580SOL    HW1 5192   1.510   3.442   1.363
 1580SOL    HW2 5193   1.401   3.360   1.427
 1581SOL     OW 5194   0.450   2.263   1.492
 1581SOL    HW1 5195   0.524   2.202   1.493
 1581SOL    HW2 5196   0.373   2.207   1.502
 1582SOL     OW 5197   1.610   2.308   0.736
 1582SOL    HW1 5198   1.531   2.333   0.689
 1582SOL    HW2 5199   1.632   2.384   0.789
 1583SOL     OW 5200   0.229   3.571   0.472
 1583SOL    HW1 5201   0.230   3.654   0.519
 1583SOL    HW2 5202   0.301   3.577   0.409
 1584SOL     OW 5203   1.136   3.203   1.692
 1584SOL    HW1 5204   1.177   3.198   1.779
 1584SOL    HW2 5205   1.084   3.123   1.686
 1585SOL     OW 5206   0.242   3.306   0.542
 1585SOL    HW1 5207   0.222   3.399   0.528
 1585SOL    HW2 5208   0.168   3.274   0.594
 1586SOL     OW 5209   0.245   2.932   0.883
 1586SOL    HW1 5210   0.264   2.848   0.926
 1586SOL    HW2 5211   0.194   2.981   0.948
 1587SOL     OW 5212   0.614   3.649   1.430
 1587SOL    HW1 5213   0.531   3.634   1.476
 1587SOL    HW2 5214   0.639   3.738   1.455
 1588SOL     OW 5215   0.568   2.843   0.158
 1588SOL    HW1 5216   0.589   2.893   0.079
 1588SOL    HW2 5217   0.623   2.881   0.226
 1589SOL     OW 5218   1.598   1.988   1.467
 1589SOL    HW1 5219   1.582   2.071   1.421
 1589SOL    HW2 5220   1.589   2.010   1.560
 1590SOL     OW 5221   0.139   2.512   0.573
 1590SOL    HW1 5222   0.085   2.433   0.574
 1590SOL    HW2 5223   0.105   2.566   0.644
 1591SOL     OW 5224   1.839   3.614   0.339
 1591SOL    HW1 5225   1.897   3.581   0.406
 1591SOL    HW2 5226   1.867   3.705   0.325
 1592SOL     OW 5227   0.030   3.469   0.142
 1592SOL    HW1 5228   0.029   3.373   0.149
 1592SOL    HW2 5229   3.942   3.495   0.167
 1593SOL     OW 5230   1.688   2.780   0.640
 1593SOL    HW1 5231   1.773   2.739   0.620
 1593SOL    HW2 5232   1.667   2.831   0.562
 1594SOL     OW 5233   1.646   2.968   0.431
 1594SOL    HW1 5234   1.733   2.974   0.391
 1594SOL    HW2 5235   1.650   3.030   0.503
 1595SOL     OW 5236   0.134   2.613   1.591
 1595SOL    HW1 5237   0.229   2.607   1.595
 1595SOL    HW2 5238   0.114   2.705   1.608
 1596SOL     OW 5239   0.613   3.246   0.735
 1596SOL    HW1 5240   0.566   3.163   0.744
 1596SOL    HW2 5241   0.597   3.272   0.644
 1597SOL     OW 5242   1.289   3.100   1.424
 1597SOL    HW1 5243   1.322   3.033   1.364
 1597SOL    HW2 5244   1.346   3.094   1.500
 1598SOL     OW 5245   0.817   1.861   0.508
 1598SOL    HW1 5246   0.857   1.946   0.489
 1598SOL    HW2 5247   0.724   1.880   0.518
 1599SOL     OW 5248   0.186   2.816   1.276
 1599SOL    HW1 5249   0.274   2.781   1.262
 1599SOL    HW2 5250   0.131   2.772   1.211
 1600SOL     OW 5251   1.532   2.856   0.202
 1600SOL    HW1 5252   1.463   2.797   0.232
 1600SOL    HW2 5253   1.570   2.892   0.282
 1601SOL     OW 5254   1.209   3.664   1.625
 1601SOL    HW1 5255   1.195   3.723   1.552
 1601SOL    HW2 5256   1.212   3.577   1.585
 1602SOL     OW 5257   0.337   2.109   1.812
 1602SOL    HW1 5258   0.379   2.195   1.820
 1602SOL    HW2 5259   0.246   2.124   1.838
 1603SOL     OW 5260   1.465   3.282   0.953
 1603SOL    HW1 5261   1.397   3.296   1.018
 1603SOL    HW2 5262   1.454   3.191   0.925
 1604SOL     OW 5263   1.660   3.598   0.586
 1604SOL    HW1 5264   1.642   3.574   0.494
 1604SOL    HW2 5265   1.634   3.520   0.636
 1605SOL     OW 5266   0.598   2.582   0.261
 1605SOL    HW1 5267   0.602   2.664   0.212
 1605SOL    HW2 5268   0.538   2.600   0.333
 1606SOL     OW 5269   1.279   2.215   0.933
 1606SOL    HW1 5270   1.191   2.180   0.942
 1606SOL    HW2 5271   1.333   2.160   0.991
 1607SOL     OW 5272   1.560   3.594   0.312
 1607SOL    HW1 5273   1.656   3.594   0.312
 1607SOL    HW2 5274   1.536   3.553   0.229
 1608SOL     OW 5275   0.792   2.479   1.452
 1608SOL    HW1 5276   0.765   2.456   1.541
 1608SOL    HW2 5277   0.751   2.413   1.397
 1609SOL     OW 5278   1.393   2.335   1.677
 1609SOL    HW1 5279   1.395   2.381   1.761
 1609SOL    HW2 5280   1.459   2.266   1.687
 1610SOL     OW 5281   0.956   2.750   1.582
 1610SOL    HW1 5282   1.010   2.679   1.547
 1610SOL    HW2 5283   0.908   2.783   1.506
 1611SOL     OW 5284   0.992   2.274   1.239
 1611SOL    HW1 5285   0.908   2.297   1.278
 1611SOL    HW2 5286   0.970   2.228   1.158
 1612SOL     OW 5287   1.049   2.563   0.429
 1612SOL    HW1 5288   1.064   2.554   0.523
 1612SOL    HW2 5289   0.967   2.516   0.413
 1613SOL     OW 5290   0.082   2.686   0.791
 1613SOL    HW1 5291   0.162   2.659   0.836
 1613SOL    HW2 5292   0.090   2.781   0.784
 1614SOL     OW 5293   0.128   3.712   1.574
 1614SOL    HW1 5294   0.134   3.681   1.664
 1614SOL    HW2 5295   0.035   3.700   1.551
 1615SOL     OW 5296   0.871   2.219   0.213
 1615SOL    HW1 5297   0.911   2.278   0.149
 1615SOL    HW2 5298   0.881   2.132   0.175
 1616SOL     OW 5299   1.683   2.447   1.831
 1616SOL    HW1 5300   1.655   2.518   1.773
 1616SOL    HW2 5301   1.727   2.384   1.774
 1617SOL     OW 5302   1.376   3.004   0.543
 1617SOL    HW1 5303   1.454   2.990   0.489
 1617SOL    HW2 5304   1.323   3.067   0.494
 1618SOL     OW 5305   0.546   2.043   0.892
 1618SOL    HW1 5306   0.552   2.072   0.983
 1618SOL    HW2 5307   0.549   2.124   0.841
 1619SOL     OW 5308   1.008   3.306   0.475
 1619SOL    HW1 5309   0.970   3.379   0.425
 1619SOL    HW2 5310   0.990   3.329   0.567
 1620SOL     OW 5311   0.358   3.668   0.858
 1620SOL    HW1 5312   0.434   3.609   0.867
 1620SOL    HW2 5313   0.395   3.756   0.867
 1621SOL     OW 5314   1.798   2.918   0.868
 1621SOL    HW1 5315   1.742   2.903   0.791
 1621SOL    HW2 5316   1.737   2.925   0.941
 1622SOL     OW 5317   1.228   3.399   1.511
 1622SOL    HW1 5318   1.213   3.327   1.572
 1622SOL    HW2 5319   1.163   3.386   1.442
 1623SOL     OW 5320   0.314   2.798   0.238
 1623SOL    HW1 5321   0.405   2.814   0.211
 1623SOL    HW2 5322   0.303   2.704   0.230
 1624SOL     OW 5323   1.477   2.601   0.727
 1624SOL    HW1 5324   1.468   2.558   0.812
 1624SOL    HW2 5325   1.554   2.658   0.737
 1625SOL     OW 5326   0.465   3.121   1.737
 1625SOL    HW1 5327   0.438   3.130   1.645
 1625SOL    HW2 5328   0.383   3.127   1.786
 1626SOL     OW 5329   1.124   3.640   0.234
 1626SOL    HW1 5330   1.060   3.594   0.289
 1626SOL    HW2 5331   1.149   3.575   0.168
 1627SOL     OW 5332   0.204   2.143   1.507
 1627SOL    HW1 5333   0.114   2.174   1.496
 1627SOL    HW2 5334   0.195   2.060   1.554
 1628SOL     OW 5335   1.633   3.234   0.080
 1628SOL    HW1 5336   1.595   3.318   0.055
 1628SOL    HW2 5337   1.565   3.169   0.063
 1629SOL     OW 5338   0.470   3.603   0.319
 1629SOL    HW1 5339   0.506   3.664   0.383
 1629SOL    HW2 5340   0.546   3.575   0.268
 1630SOL     OW 5341   1.402   1.971   0.430
 1630SOL    HW1 5342   1.384   1.949   0.338
 1630SOL    HW2 5343   1.493   1.945   0.443
 1631SOL     OW 5344   0.251   3.656   1.230
 1631SOL    HW1 5345   0.298   3.592   1.283
 1631SOL    HW2 5346   0.247   3.617   1.143
 1632SOL     OW 5347   0.937   3.560   0.902
 1632SOL    HW1 5348   1.015   3.508   0.921
 1632SOL    HW2 5349   0.892   3.512   0.833
 1633SOL     OW 5350   0.394   2.558   0.472
 1633SOL    HW1 5351   0.421   2.466   0.482
 1633SOL    HW2 5352   0.303   2.559   0.501
 1634SOL     OW 5353   1.538   2.086   1.725
 1634SOL    HW1 5354   1.548   2.108   1.818
 1634SOL    HW2 5355   1.467   2.022   1.723
 1635SOL     OW 5356   0.767   2.139   1.753
 1635SOL    HW1 5357   0.842   2.079   1.756
 1635SOL    HW2 5358   0.719   2.122   1.834
 1636SOL     OW 5359   0.876   3.382   1.194
 1636SOL    HW1 5360   0.861   3.347   1.106
 1636SOL    HW2 5361   0.946   3.328   1.230
 1637SOL     OW 5362   1.342   2.450   1.432
 1637SOL    HW1 5363   1.372   2.419   1.517
 1637SOL    HW2 5364   1.377   2.539   1.425
 1638SOL     OW 5365   0.814   3.257   0.937
 1638SOL    HW1 5366   0.899   3.247   0.894
 1638SOL    HW2 5367   0.750   3.257   0.866
 1639SOL     OW 5368   0.927   2.371   0.903
 1639SOL    HW1 5369   0.904   2.363   0.811
 1639SOL    HW2 5370   0.960   2.285   0.927
 1640SOL     OW 5371   0.554   1.923   0.505
 1640SOL    HW1 5372   0.473   1.922   0.555
 1640SOL    HW2 5373   0.547   2.001   0.449
 1641SOL     OW 5374   1.430   3.065   0.045
 1641SOL    HW1 5375   1.452   2.984   0.092
 1641SOL    HW2 5376   1.337   3.079   0.064
 1642SOL     OW 5377   0.267   1.871   0.218
 1642SOL    HW1 5378   0.299   1.954   0.181
 1642SOL    HW2 5379   0.346   1.823   0.241
 1643SOL     OW 5380   0.939   2.107   0.462
 1643SOL    HW1 5381   0.908   2.148   0.381
 1643SOL    HW2 5382   1.033   2.124   0.463
 1644SOL     OW 5383   1.080   2.542   1.459
 1644SOL    HW1 5384   1.011   2.476   1.465
 1644SOL    HW2 5385   1.161   2.491   1.453
 1645SOL     OW 5386   1.224   3.432   0.794
 1645SOL    HW1 5387   1.241   3.499   0.728
 1645SOL    HW2 5388   1.292   3.444   0.859
 1646SOL     OW 5389   0.465   3.011   0.737
 1646SOL    HW1 5390   0.393   2.988   0.796
 1646SOL    HW2 5391   0.430   2.996   0.649
 1647SOL     OW 5392   1.269   3.659   0.605
 1647SOL    HW1 5393   1.314   3.722   0.549
 1647SOL    HW2 5394   1.200   3.709   0.648
 1648SOL     OW 5395   0.998   2.409   0.059
 1648SOL    HW1 5396   0.999   2.406  13.864
 1648SOL    HW2 5397   1.091   2.409   0.084
 1649SOL     OW 5398   0.079   2.432   1.390
 1649SOL    HW1 5399   0.169   2.419   1.359
 1649SOL    HW2 5400   0.087   2.502   1.456
 1650SOL     OW 5401   0.567   2.088   1.163
 1650SOL    HW1 5402   0.606   2.011   1.203
 1650SOL    HW2 5403   0.476   2.087   1.193
 1651SOL     OW 5404   0.868   2.321   0.639
 1651SOL    HW1 5405   0.824   2.376   0.574
 1651SOL    HW2 5406   0.888   2.240   0.592
 1652SOL     OW 5407   1.015   1.914   0.752
 1652SOL    HW1 5408   0.956   1.908   0.677
 1652SOL    HW2 5409   0.993   1.839   0.806
 1653SOL     OW 5410   1.436   3.025   0.857
 1653SOL    HW1 5411   1.368   2.958   0.856
 1653SOL    HW2 5412   1.459   3.037   0.765
 1654SOL     OW 5413   1.466   2.466   0.978
 1654SOL    HW1 5414   1.416   2.384   0.982
 1654SOL    HW2 5415   1.526   2.461   1.052
 1655SOL     OW 5416   1.848   2.677   0.380
 1655SOL    HW1 5417   1.901   2.624   0.439
 1655SOL    HW2 5418   1.815   2.615   0.315
 1656SOL     OW 5419   0.495   3.241   0.167
 1656SOL    HW1 5420   0.418   3.222   0.220
 1656SOL    HW2 5421   0.460   3.278   0.086
 1657SOL     OW 5422   1.670   3.126   0.647
 1657SOL    HW1 5423   1.764   3.131   0.660
 1657SOL    HW2 5424   1.638   3.215   0.665
 1658SOL     OW 5425   1.419   2.446   0.086
 1658SOL    HW1 5426   1.349   2.435   0.151
 1658SOL    HW2 5427   1.464   2.361   0.086
 1659SOL     OW 5428   0.527   2.121   0.324
 1659SOL    HW1 5429   0.578   2.084   0.251
 1659SOL    HW2 5430   0.503   2.209   0.294
 1660SOL     OW 5431   1.753   3.100   1.574
 1660SOL    HW1 5432   1.840   3.061   1.572
 1660SOL    HW2 5433   1.768   3.190   1.603
 1661SOL     OW 5434   1.059   3.214   1.333
 1661SOL    HW1 5435   0.985   3.184   1.385
 1661SOL    HW2 5436   1.135   3.174   1.375
 1662SOL     OW 5437   1.608   3.487   1.653
 1662SOL    HW1 5438   1.602   3.521   1.564
 1662SOL    HW2 5439   1.691   3.441   1.656
 1663SOL     OW 5440   1.127   3.064   1.106
 1663SOL    HW1 5441   1.069   3.103   1.171
 1663SOL    HW2 5442   1.094   3.096   1.022
 1664SOL     OW 5443   1.629   2.961   1.078
 1664SOL    HW1 5444   1.625   3.023   1.151
 1664SOL    HW2 5445   1.550   2.978   1.027
 1665SOL     OW 5446   0.918   1.959   1.397
 1665SOL    HW1 5447   0.941   1.941   1.306
 1665SOL    HW2 5448   0.997   1.999   1.434
 1666SOL     OW 5449   0.984   2.977   1.722
 1666SOL    HW1 5450   0.892   2.992   1.743
 1666SOL    HW2 5451   0.983   2.899   1.666
 1667SOL     OW 5452   0.713   2.921   0.376
 1667SOL    HW1 5453   0.699   2.906   0.469
 1667SOL    HW2 5454   0.788   2.866   0.354
 1668SOL     OW 5455   0.420   2.676   1.251
 1668SOL    HW1 5456   0.489   2.685   1.317
 1668SOL    HW2 5457   0.385   2.588   1.264
 1669SOL     OW 5458   1.266   2.239   1.275
 1669SOL    HW1 5459   1.299   2.316   1.320
 1669SOL    HW2 5460   1.176   2.261   1.250
 1670SOL     OW 5461   0.064   3.441   1.345
 1670SOL    HW1 5462   0.066   3.508   1.276
 1670SOL    HW2 5463   0.156   3.428   1.369
 1671SOL     OW 5464   0.366   2.966   0.484
 1671SOL    HW1 5465   0.363   3.044   0.428
 1671SOL    HW2 5466   0.382   2.894   0.423
 1672SOL     OW 5467   0.553   2.399   0.862
 1672SOL    HW1 5468   0.569   2.456   0.786
 1672SOL    HW2 5469   0.618   2.427   0.926
 1673SOL     OW 5470   1.248   3.208   0.397
 1673SOL    HW1 5471   1.304   3.281   0.422
 1673SOL    HW2 5472   1.161   3.232   0.428
 1674SOL     OW 5473   1.279   3.319   1.147
 1674SOL    HW1 5474   1.335   3.322   1.224
 1674SOL    HW2 5475   1.224   3.242   1.160
 1675SOL     OW 5476   1.582   2.488   0.476
 1675SOL    HW1 5477   1.535   2.540   0.543
 1675SOL    HW2 5478   1.618   2.553   0.416
 1676SOL     OW 5479   0.346   3.387   1.319
 1676SOL    HW1 5480   0.336   3.337   1.238
 1676SOL    HW2 5481   0.440   3.403   1.327
 1677SOL     OW 5482   0.412   2.603   1.601
 1677SOL    HW1 5483   0.474   2.649   1.544
 1677SOL    HW2 5484   0.454   2.518   1.618
 1678SOL     OW 5485   1.598   2.645   1.675
 1678SOL    HW1 5486   1.512   2.687   1.669
 1678SOL    HW2 5487   1.651   2.689   1.608
 1679SOL     OW 5488   0.996   1.983   1.756
 1679SOL    HW1 5489   1.051   2.056   1.726
 1679SOL    HW2 5490   1.045   1.905   1.730
 1680SOL     OW 5491   0.498   1.901   1.744
 1680SOL    HW1 5492   0.455   1.847   1.678
 1680SOL    HW2 5493   0.441   1.977   1.754
 1681SOL     OW 5494   0.583   2.735   1.031
 1681SOL    HW1 5495   0.615   2.825   1.030
 1681SOL    HW2 5496   0.528   2.730   1.109
 1682SOL     OW 5497   1.359   2.721   1.031
 1682SOL    HW1 5498   1.277   2.713   0.983
 1682SOL    HW2 5499   1.398   2.633   1.026
 1683SOL     OW 5500   1.218   2.403   0.274
 1683SOL    HW1 5501   1.221   2.322   0.325
 1683SOL    HW2 5502   1.163   2.462   0.327
 1684SOL     OW 5503   0.312   2.061   1.247
 1684SOL    HW1 5504   0.266   2.098   1.323
 1684SOL    HW2 5505   0.287   1.969   1.247
 1685SOL     OW 5506   0.056   3.166   1.280
 1685SOL    HW1 5507   0.090   3.128   1.361
 1685SOL    HW2 5508   0.050   3.260   1.298
 1686SOL     OW 5509   0.725   2.494   1.059
 1686SOL    HW1 5510   0.799   2.476   1.000
 1686SOL    HW2 5511   0.698   2.583   1.036
 1687SOL     OW 5512   1.733   2.823   1.850
 1687SOL    HW1 5513   1.687   2.760   1.793
 1687SOL    HW2 5514   1.674   2.834   1.925
 1688SOL     OW 5515   0.313   1.927   0.623
 1688SOL    HW1 5516   0.291   2.017   0.646
 1688SOL    HW2 5517   0.314   1.880   0.706
 1689SOL     OW 5518   1.620   2.238   0.381
 1689SOL    HW1 5519   1.619   2.181   0.458
 1689SOL    HW2 5520   1.592   2.323   0.414
 1690SOL     OW 5521   1.027   2.621   0.961
 1690SOL    HW1 5522   1.025   2.639   1.055
 1690SOL    HW2 5523   1.001   2.529   0.953
 1691SOL     OW 5524   0.985   3.429   1.717
 1691SOL    HW1 5525   0.967   3.472   1.633
 1691SOL    HW2 5526   1.026   3.346   1.693
 1692SOL     OW 5527   1.855   3.369   1.605
 1692SOL    HW1 5528   1.873   3.396   1.515
 1692SOL    HW2 5529   1.936   3.389   1.652
 1693SOL     OW 5530   0.351   2.782   1.802
 1693SOL    HW1 5531   0.430   2.802   1.851
 1693SOL    HW2 5532   0.379   2.716   1.738
 1694SOL     OW 5533   1.524   2.154   0.139
 1694SOL    HW1 5534   1.502   2.061   0.150
 1694SOL    HW2 5535   1.567   2.178   0.221
 1695SOL     OW 5536   1.294   2.691   0.055
 1695SOL    HW1 5537   1.341   2.608   0.060
 1695SOL    HW2 5538   1.313   2.724  13.867
 1696SOL     OW 5539   1.065   3.197   0.853
 1696SOL    HW1 5540   1.068   3.125   0.791
 1696SOL    HW2 5541   1.127   3.261   0.818
 1697SOL     OW 5542   0.314   2.668   0.950
 1697SOL    HW1 5543   0.408   2.686   0.945
 1697SOL    HW2 5544   0.309   2.578   0.984
 1698SOL     OW 5545   0.332   2.381   1.013
 1698SOL    HW1 5546   0.298   2.293   0.995
 1698SOL    HW2 5547   0.408   2.389   0.955
 1699SOL     OW 5548   1.134   2.239   1.681
 1699SOL    HW1 5549   1.088   2.294   1.744
 1699SOL    HW2 5550   1.223   2.275   1.678
 1700SOL     OW 5551   1.161   2.066   1.470
 1700SOL    HW1 5552   1.151   2.128   1.542
 1700SOL    HW2 5553   1.199   2.117   1.399
 1701SOL     OW 5554   0.009   3.188   0.186
 1701SOL    HW1 5555   3.914   3.203   0.184
 1701SOL    HW2 5556   0.018   3.098   0.218
 1702SOL     OW 5557   0.075   3.663   0.895
 1702SOL    HW1 5558   0.085   3.568   0.897
 1702SOL    HW2 5559   0.165   3.696   0.890
 1703SOL     OW 5560   0.507   3.428   0.914
 1703SOL    HW1 5561   0.574   3.493   0.935
 1703SOL    HW2 5562   0.551   3.368   0.854
 1704SOL     OW 5563   0.985   2.655   1.227
 1704SOL    HW1 5564   1.040   2.631   1.302
 1704SOL    HW2 5565   0.899   2.618   1.248
 1705SOL     OW 5566   0.038   2.416   1.110
 1705SOL    HW1 5567   0.120   2.390   1.068
 1705SOL    HW2 5568   0.057   2.414   1.204
 1706SOL     OW 5569   0.206   2.376   1.727
 1706SOL    HW1 5570   0.249   2.333   1.653
 1706SOL    HW2 5571   0.155   2.447   1.686
 1707SOL     OW 5572   1.374   2.803   1.658
 1707SOL    HW1 5573   1.396   2.896   1.657
 1707SOL    HW2 5574   1.372   2.778   1.566
 1708SOL     OW 5575   0.814   2.437   0.368
 1708SOL    HW1 5576   0.827   2.363   0.309
 1708SOL    HW2 5577   0.742   2.487   0.329
 1709SOL     OW 5578   1.643   2.464   1.186
 1709SOL    HW1 5579   1.631   2.409   1.264
 1709SOL    HW2 5580   1.729   2.441   1.152
 1710SOL     OW 5581   0.296   3.409   1.732
 1710SOL    HW1 5582   0.246   3.479   1.773
 1710SOL    HW2 5583   0.261   3.329   1.769
 1711SOL     OW 5584   0.698   2.314   1.261
 1711SOL    HW1 5585   0.648   2.239   1.229
 1711SOL    HW2 5586   0.696   2.377   1.188
 1712SOL     OW 5587   0.931   3.536   1.467
 1712SOL    HW1 5588   0.903   3.502   1.382
 1712SOL    HW2 5589   0.924   3.631   1.458
 1713SOL     OW 5590   0.442   2.358   0.235
 1713SOL    HW1 5591   0.511   2.424   0.240
 1713SOL    HW2 5592   0.367   2.404   0.197
 1714SOL     OW 5593   0.157   2.998   1.473
 1714SOL    HW1 5594   0.161   2.946   1.553
 1714SOL    HW2 5595   0.172   2.935   1.403
 1715SOL     OW 5596   1.327   2.910   1.223
 1715SOL    HW1 5597   1.351   2.847   1.156
 1715SOL    HW2 5598   1.256   2.961   1.185
 1716SOL     OW 5599   1.309   2.721   0.325
 1716SOL    HW1 5600   1.233   2.685   0.371
 1716SOL    HW2 5601   1.289   2.706   0.232
 1717SOL     OW 5602   1.768   3.607   1.148
 1717SOL    HW1 5603   1.830   3.634   1.080
 1717SOL    HW2 5604   1.747   3.516   1.126
 1718SOL     OW 5605   1.243   3.596   1.114
 1718SOL    HW1 5606   1.325   3.615   1.069
 1718SOL    HW2 5607   1.247   3.502   1.132
 1719SOL     OW 5608   0.075   3.077   1.028
 1719SOL    HW1 5609   0.082   3.104   1.119
 1719SOL    HW2 5610   3.982   3.085   1.007
 1720SOL     OW 5611   0.679   3.525   1.727
 1720SOL    HW1 5612   0.623   3.603   1.730
 1720SOL    HW2 5613   0.738   3.541   1.653
 1721SOL     OW 5614   0.918   1.966   0.133
 1721SOL    HW1 5615   0.956   1.957   0.046
 1721SOL    HW2 5616   0.968   1.904   0.187
 1722SOL     OW 5617   1.389   3.434   0.483
 1722SOL    HW1 5618   1.451   3.468   0.418
 1722SOL    HW2 5619   1.342   3.511   0.514
 1723SOL     OW 5620   0.167   3.628   1.830
 1723SOL    HW1 5621   0.110   3.577   1.888
 1723SOL    HW2 5622   0.214   3.687   1.889
 1724SOL     OW 5623   1.277   2.787   0.671
 1724SOL    HW1 5624   1.351   2.726   0.676
 1724SOL    HW2 5625   1.310   2.860   0.619
 1725SOL     OW 5626   0.816   3.134   1.431
 1725SOL    HW1 5627   0.788   3.174   1.514
 1725SOL    HW2 5628   0.746   3.156   1.370
 1726SOL     OW 5629   0.677   3.444   0.184
 1726SOL    HW1 5630   0.661   3.485   0.098
 1726SOL    HW2 5631   0.628   3.362   0.181
 1727SOL     OW 5632   1.628   3.588   1.390
 1727SOL    HW1 5633   1.677   3.594   1.309
 1727SOL    HW2 5634   1.615   3.678   1.418
 1728SOL     OW 5635   0.267   2.176   0.718
 1728SOL    HW1 5636   0.182   2.213   0.693
 1728SOL    HW2 5637   0.261   2.166   0.813
 1729SOL     OW 5638   1.219   3.463   0.032
 1729SOL    HW1 5639   1.208   3.373   0.061
 1729SOL    HW2 5640   1.177   3.466  13.846
 1730SOL     OW 5641   0.824   2.868   1.372
 1730SOL    HW1 5642   0.868   2.864   1.287
 1730SOL    HW2 5643   0.824   2.960   1.395
 1731SOL     OW 5644   0.920   2.773   0.288
 1731SOL    HW1 5645   0.991   2.810   0.234
 1731SOL    HW2 5646   0.962   2.701   0.335
 1732SOL     OW 5647   1.488   3.497   0.066
 1732SOL    HW1 5648   1.394   3.484   0.052
 1732SOL    HW2 5649   1.526   3.500  13.878
 1733SOL     OW 5650   0.373   3.164   1.491
 1733SOL    HW1 5651   0.359   3.244   1.441
 1733SOL    HW2 5652   0.296   3.111   1.474
 1734SOL     OW 5653   1.611   3.145   1.281
 1734SOL    HW1 5654   1.671   3.135   1.355
 1734SOL    HW2 5655   1.551   3.214   1.307
 1735SOL     OW 5656   1.050   2.968   0.706
 1735SOL    HW1 5657   0.980   2.916   0.745
 1735SOL    HW2 5658   1.113   2.903   0.674
 1736SOL     OW 5659   1.021   2.102   0.966
 1736SOL    HW1 5660   1.016   2.054   0.883
 1736SOL    HW2 5661   1.015   2.034   1.033
 1737SOL     OW 5662   0.604   3.351   0.482
 1737SOL    HW1 5663   0.647   3.301   0.413
 1737SOL    HW2 5664   0.536   3.401   0.437
 1738SOL     OW 5665   1.722   2.253   1.377
 1738SOL    HW1 5666   1.795   2.314   1.383
 1738SOL    HW2 5667   1.750   2.187   1.314
 1739SOL     OW 5668   0.260   3.181   0.305
 1739SOL    HW1 5669   0.183   3.212   0.257
 1739SOL    HW2 5670   0.258   3.230   0.387
 1740SOL     OW 5671   0.105   2.861   1.718
 1740SOL    HW1 5672   0.044   2.852   1.791
 1740SOL    HW2 5673   0.191   2.842   1.755
 1741SOL     OW 5674   0.674   2.058   1.499
 1741SOL    HW1 5675   0.758   2.039   1.457
 1741SOL    HW2 5676   0.697   2.088   1.587
 1742SOL     OW 5677   0.052   2.220   0.041
 1742SOL    HW1 5678   3.958   2.215   0.061
 1742SOL    HW2 5679   0.055   2.247  13.849
 1743SOL     OW 5680   1.430   2.721   1.401
 1743SOL    HW1 5681   1.382   2.781   1.344
 1743SOL    HW2 5682   1.520   2.723   1.368
 1744SOL     OW 5683   0.057   2.034   0.315
 1744SOL    HW1 5684   0.077   2.104   0.253
 1744SOL    HW2 5685   0.123   1.967   0.297
 1745SOL     OW 5686   1.185   3.211   0.123
 1745SOL    HW1 5687   1.092   3.192   0.112
 1745SOL    HW2 5688   1.202   3.197   0.216
 1746SOL     OW 5689   0.618   2.693   1.434
 1746SOL    HW1 5690   0.674   2.769   1.419
 1746SOL    HW2 5691   0.680   2.620   1.443
 1747SOL     OW 5692   1.485   3.639   0.979
 1747SOL    HW1 5693   1.511   3.692   0.903
 1747SOL    HW2 5694   1.568   3.619   1.023
 1748SOL     OW 5695   0.716   2.427   1.706
 1748SOL    HW1 5696   0.757   2.490   1.765
 1748SOL    HW2 5697   0.748   2.342   1.736
 1749SOL     OW 5698   1.471   3.063   1.632
 1749SOL    HW1 5699   1.458   3.076   1.726
 1749SOL    HW2 5700   1.564   3.077   1.618
 1750SOL     OW 5701   0.380   3.604   1.559
 1750SOL    HW1 5702   0.292   3.640   1.545
 1750SOL    HW2 5703   0.365   3.523   1.607
 1751SOL     OW 5704   1.671   2.744   1.254
 1751SOL    HW1 5705   1.662   2.659   1.212
 1751SOL    HW2 5706   1.661   2.807   1.184
 1752SOL     OW 5707   1.218   2.182   0.456
 1752SOL    HW1 5708   1.282   2.112   0.448
 1752SOL    HW2 5709   1.245   2.231   0.533
 1753SOL     OW 5710   0.590   2.601   0.670
 1753SOL    HW1 5711   0.629   2.687   0.653
 1753SOL    HW2 5712   0.521   2.593   0.603
 1754SOL     OW 5713   1.758   2.236   1.655
 1754SOL    HW1 5714   1.749   2.242   1.560
 1754SOL    HW2 5715   1.688   2.177   1.682
 1755SOL     OW 5716   1.745   2.798   1.510
 1755SOL    HW1 5717   1.744   2.893   1.524
 1755SOL    HW2 5718   1.730   2.787   1.417
 1756SOL     OW 5719   0.904   3.259   0.057
 1756SOL    HW1 5720   0.832   3.243   0.119
 1756SOL    HW2 5721   0.861   3.275  13.874
 1757SOL     OW 5722   0.658   3.653   0.942
 1757SOL    HW1 5723   0.635   3.744   0.920
 1757SOL    HW2 5724   0.754   3.651   0.937
 1758SOL     OW 5725   0.867   2.827   0.855
 1758SOL    HW1 5726   0.917   2.757   0.895
 1758SOL    HW2 5727   0.833   2.878   0.929
 1759SOL     OW 5728   1.098   2.867   0.107
 1759SOL    HW1 5729   1.087   2.915   0.024
 1759SOL    HW2 5730   1.173   2.810   0.091
 1760SOL     OW 5731   1.855   3.415   0.844
 1760SOL    HW1 5732   1.777   3.406   0.790
 1760SOL    HW2 5733   1.843   3.351   0.914
 1761SOL     OW 5734   0.223   3.166   1.855
 1761SOL    HW1 5735   0.152   3.107   1.830
 1761SOL    HW2 5736   0.211   3.179   1.949
 1762SOL     OW 5737   0.105   3.135   0.721
 1762SOL    HW1 5738   0.120   3.084   0.801
 1762SOL    HW2 5739   0.111   3.071   0.650
 1763SOL     OW 5740   0.680   3.263   1.628
 1763SOL    HW1 5741   0.599   3.221   1.657
 1763SOL    HW2 5742   0.676   3.352   1.664
 1764SOL     OW 5743   0.437   2.296   0.534
 1764SOL    HW1 5744   0.462   2.224   0.477
 1764SOL    HW2 5745   0.384   2.255   0.602
 1765SOL     OW 5746   1.702   3.351   1.096
 1765SOL    HW1 5747   1.620   3.327   1.053
 1765SOL    HW2 5748   1.714   3.283   1.163
 1766SOL     OW 5749   0.331   2.416   1.291
 1766SOL    HW1 5750   0.387   2.360   1.345
 1766SOL    HW2 5751   0.348   2.386   1.201
 1767SOL     OW 5752   0.826   3.440   0.678
 1767SOL    HW1 5753   0.818   3.489   0.596
 1767SOL    HW2 5754   0.749   3.384   0.680
 1768SOL     OW 5755   1.437   2.089   1.119
 1768SOL    HW1 5756   1.453   2.004   1.160
 1768SOL    HW2 5757   1.382   2.136   1.182
 1769SOL     OW 5758   1.009   1.881   1.143
 1769SOL    HW1 5759   0.955   1.813   1.104
 1769SOL    HW2 5760   1.097   1.844   1.145
 1770SOL     OW 5761   0.773   3.185   0.319
 1770SOL    HW1 5762   0.741   3.096   0.333
 1770SOL    HW2 5763   0.858   3.188   0.363
 1771SOL     OW 5764   0.620   3.418   1.284
 1771SOL    HW1 5765   0.622   3.499   1.335
 1771SOL    HW2 5766   0.707   3.411   1.246
 1772SOL     OW 5767   1.346   1.923   0.165
 1772SOL    HW1 5768   1.376   1.871   0.090
 1772SOL    HW2 5769   1.263   1.882   0.190
 1773SOL     OW 5770   1.297   2.322   0.681
 1773SOL    HW1 5771   1.244   2.401   0.689
 1773SOL    HW2 5772   1.294   2.282   0.768
 1774SOL     OW 5773   1.576   2.059   0.869
 1774SOL    HW1 5774   1.533   2.082   0.952
 1774SOL    HW2 5775   1.589   2.143   0.825
 1775SOL     OW 5776   0.040   2.899   0.252
 1775SOL    HW1 5777   0.135   2.888   0.249
 1775SOL    HW2 5778   0.009   2.827   0.308
 1776SOL     OW 5779   0.890   3.516   0.346
 1776SOL    HW1 5780   0.818   3.485   0.291
 1776SOL    HW2 5781   0.855   3.592   0.392
 1777SOL     OW 5782   0.231   2.483   1.983
 1777SOL    HW1 5783   0.138   2.493   2.003
 1777SOL    HW2 5784   0.233   2.455   1.892
 1778SOL     OW 5785   0.228   2.132   2.849
 1778SOL    HW1 5786   0.249   2.102   2.937
 1778SOL    HW2 5787   0.133   2.123   2.842
 1779SOL     OW 5788   0.012   2.226   2.495
 1779SOL    HW1 5789   3.926   2.243   2.533
 1779SOL    HW2 5790   3.994   2.188   2.409
 1780SOL     OW 5791   0.576   3.144   3.044
 1780SOL    HW1 5792   0.489   3.149   3.004
 1780SOL    HW2 5793   0.592   3.232   3.078
 1781SOL     OW 5794   1.559   3.373   2.569
 1781SOL    HW1 5795   1.516   3.353   2.652
 1781SOL    HW2 5796   1.488   3.377   2.505
 1782SOL     OW 5797   1.130   2.560   2.564
 1782SOL    HW1 5798   1.180   2.641   2.550
 1782SOL    HW2 5799   1.083   2.575   2.646
 1783SOL     OW 5800   1.752   2.476   2.095
 1783SOL    HW1 5801   1.740   2.469   2.000
 1783SOL    HW2 5802   1.747   2.386   2.126
 1784SOL     OW 5803   0.758   3.004   2.900
 1784SOL    HW1 5804   0.691   3.038   2.959
 1784SOL    HW2 5805   0.792   3.082   2.856
 1785SOL     OW 5806   0.864   2.639   3.683
 1785SOL    HW1 5807   0.855   2.711   3.746
 1785SOL    HW2 5808   0.888   2.682   3.601
 1786SOL     OW 5809   0.686   2.867   2.510
 1786SOL    HW1 5810   0.751   2.854   2.579
 1786SOL    HW2 5811   0.616   2.918   2.552
 1787SOL     OW 5812   0.709   3.013   3.674
 1787SOL    HW1 5813   0.757   3.091   3.699
 1787SOL    HW2 5814   0.626   3.045   3.639
 1788SOL     OW 5815   0.351   3.265   2.940
 1788SOL    HW1 5816   0.268   3.251   2.894
 1788SOL    HW2 5817   0.400   3.325   2.884
 1789SOL     OW 5818   1.461   3.361   3.214
 1789SOL    HW1 5819   1.510   3.442   3.225
 1789SOL    HW2 5820   1.401   3.359   3.289
 1790SOL     OW 5821   0.450   2.263   3.354
 1790SOL    HW1 5822   0.524   2.203   3.355
 1790SOL    HW2 5823   0.373   2.207   3.364
 1791SOL     OW 5824   1.610   2.307   2.598
 1791SOL    HW1 5825   1.532   2.334   2.549
 1791SOL    HW2 5826   1.632   2.384   2.651
 1792SOL     OW 5827   0.226   3.571   2.329
 1792SOL    HW1 5828   0.232   3.651   2.382
 1792SOL    HW2 5829   0.302   3.575   2.271
 1793SOL     OW 5830   1.136   3.203   3.554
 1793SOL    HW1 5831   1.177   3.198   3.641
 1793SOL    HW2 5832   1.084   3.123   3.548
 1794SOL     OW 5833   0.245   3.305   2.401
 1794SOL    HW1 5834   0.219   3.396   2.389
 1794SOL    HW2 5835   0.176   3.267   2.455
 1795SOL     OW 5836   0.246   2.932   2.746
 1795SOL    HW1 5837   0.264   2.848   2.789
 1795SOL    HW2 5838   0.194   2.981   2.810
 1796SOL     OW 5839   0.614   3.649   3.292
 1796SOL    HW1 5840   0.531   3.634   3.338
 1796SOL    HW2 5841   0.639   3.738   3.317
 1797SOL     OW 5842   0.583   2.845   1.997
 1797SOL    HW1 5843   0.628   2.893   1.928
 1797SOL    HW2 5844   0.625   2.874   2.078
 1798SOL     OW 5845   1.597   1.988   3.329
 1798SOL    HW1 5846   1.582   2.071   3.283
 1798SOL    HW2 5847   1.589   2.011   3.421
 1799SOL     OW 5848   0.140   2.509   2.436
 1799SOL    HW1 5849   0.085   2.431   2.437
 1799SOL    HW2 5850   0.104   2.565   2.505
 1800SOL     OW 5851   1.841   3.615   2.200
 1800SOL    HW1 5852   1.906   3.590   2.266
 1800SOL    HW2 5853   1.865   3.705   2.177
 1801SOL     OW 5854   0.041   3.455   2.002
 1801SOL    HW1 5855   0.031   3.362   2.024
 1801SOL    HW2 5856   3.963   3.497   2.039
 1802SOL     OW 5857   1.690   2.781   2.502
 1802SOL    HW1 5858   1.773   2.738   2.480
 1802SOL    HW2 5859   1.667   2.831   2.423
 1803SOL     OW 5860   1.645   2.969   2.291
 1803SOL    HW1 5861   1.731   2.975   2.249
 1803SOL    HW2 5862   1.651   3.030   2.365
 1804SOL     OW 5863   0.134   2.613   3.453
 1804SOL    HW1 5864   0.229   2.607   3.457
 1804SOL    HW2 5865   0.114   2.705   3.470
 1805SOL     OW 5866   0.613   3.246   2.596
 1805SOL    HW1 5867   0.567   3.163   2.606
 1805SOL    HW2 5868   0.596   3.272   2.506
 1806SOL     OW 5869   1.289   3.100   3.286
 1806SOL    HW1 5870   1.322   3.033   3.226
 1806SOL    HW2 5871   1.346   3.094   3.362
 1807SOL     OW 5872   0.815   1.861   2.370
 1807SOL    HW1 5873   0.855   1.946   2.352
 1807SOL    HW2 5874   0.722   1.880   2.378
 1808SOL     OW 5875   0.186   2.816   3.138
 1808SOL    HW1 5876   0.274   2.781   3.124
 1808SOL    HW2 5877   0.131   2.772   3.073
 1809SOL     OW 5878   1.531   2.855   2.059
 1809SOL    HW1 5879   1.462   2.797   2.090
 1809SOL    HW2 5880   1.572   2.889   2.139
 1810SOL     OW 5881   1.209   3.664   3.487
 1810SOL    HW1 5882   1.195   3.723   3.414
 1810SOL    HW2 5883   1.212   3.577   3.447
 1811SOL     OW 5884   0.337   2.109   3.674
 1811SOL    HW1 5885   0.379   2.195   3.681
 1811SOL    HW2 5886   0.246   2.124   3.700
 1812SOL     OW 5887   1.465   3.282   2.814
 1812SOL    HW1 5888   1.397   3.296   2.880
 1812SOL    HW2 5889   1.454   3.191   2.787
 1813SOL     OW 5890   1.657   3.598   2.442
 1813SOL    HW1 5891   1.640   3.568   2.352
 1813SOL    HW2 5892   1.633   3.523   2.496
 1814SOL     OW 5893   0.596   2.582   2.125
 1814SOL    HW1 5894   0.604   2.664   2.077
 1814SOL    HW2 5895   0.533   2.600   2.195
 1815SOL     OW 5896   1.279   2.215   2.796
 1815SOL    HW1 5897   1.191   2.180   2.804
 1815SOL    HW2 5898   1.333   2.160   2.853
 1816SOL     OW 5899   1.579   3.535   2.170
 1816SOL    HW1 5900   1.670   3.563   2.165
 1816SOL    HW2 5901   1.555   3.515   2.080
 1817SOL     OW 5902   0.792   2.479   3.315
 1817SOL    HW1 5903   0.765   2.456   3.403
 1817SOL    HW2 5904   0.751   2.413   3.259
 1818SOL     OW 5905   1.393   2.335   3.539
 1818SOL    HW1 5906   1.395   2.381   3.623
 1818SOL    HW2 5907   1.459   2.266   3.549
 1819SOL     OW 5908   0.956   2.750   3.444
 1819SOL    HW1 5909   1.010   2.679   3.409
 1819SOL    HW2 5910   0.908   2.783   3.368
 1820SOL     OW 5911   0.992   2.274   3.101
 1820SOL    HW1 5912   0.908   2.297   3.139
 1820SOL    HW2 5913   0.971   2.228   3.020
 1821SOL     OW 5914   1.050   2.561   2.288
 1821SOL    HW1 5915   1.066   2.554   2.383
 1821SOL    HW2 5916   0.969   2.513   2.274
 1822SOL     OW 5917   0.082   2.686   2.652
 1822SOL    HW1 5918   0.162   2.658   2.698
 1822SOL    HW2 5919   0.091   2.781   2.644
 1823SOL     OW 5920   0.128   3.711   3.436
 1823SOL    HW1 5921   0.134   3.681   3.526
 1823SOL    HW2 5922   0.035   3.700   3.413
 1824SOL     OW 5923   0.890   2.210   2.054
 1824SOL    HW1 5924   0.933   2.272   1.995
 1824SOL    HW2 5925   0.911   2.124   2.018
 1825SOL     OW 5926   1.680   2.447   3.694
 1825SOL    HW1 5927   1.654   2.518   3.635
 1825SOL    HW2 5928   1.727   2.385   3.638
 1826SOL     OW 5929   1.376   3.004   2.404
 1826SOL    HW1 5930   1.455   2.990   2.351
 1826SOL    HW2 5931   1.324   3.066   2.353
 1827SOL     OW 5932   0.546   2.042   2.754
 1827SOL    HW1 5933   0.552   2.073   2.845
 1827SOL    HW2 5934   0.548   2.123   2.702
 1828SOL     OW 5935   1.007   3.308   2.335
 1828SOL    HW1 5936   0.967   3.380   2.286
 1828SOL    HW2 5937   0.991   3.329   2.427
 1829SOL     OW 5938   0.358   3.668   2.719
 1829SOL    HW1 5939   0.434   3.610   2.729
 1829SOL    HW2 5940   0.395   3.756   2.729
 1830SOL     OW 5941   1.799   2.919   2.729
 1830SOL    HW1 5942   1.744   2.902   2.653
 1830SOL    HW2 5943   1.737   2.925   2.803
 1831SOL     OW 5944   1.228   3.399   3.373
 1831SOL    HW1 5945   1.213   3.327   3.434
 1831SOL    HW2 5946   1.163   3.385   3.304
 1832SOL     OW 5947   0.311   2.817   2.104
 1832SOL    HW1 5948   0.395   2.841   2.066
 1832SOL    HW2 5949   0.296   2.727   2.077
 1833SOL     OW 5950   1.477   2.604   2.590
 1833SOL    HW1 5951   1.468   2.559   2.674
 1833SOL    HW2 5952   1.555   2.658   2.600
 1834SOL     OW 5953   0.465   3.121   3.599
 1834SOL    HW1 5954   0.439   3.130   3.507
 1834SOL    HW2 5955   0.383   3.127   3.648
 1835SOL     OW 5956   1.113   3.642   2.086
 1835SOL    HW1 5957   1.051   3.594   2.141
 1835SOL    HW2 5958   1.142   3.578   2.021
 1836SOL     OW 5959   0.204   2.143   3.369
 1836SOL    HW1 5960   0.114   2.174   3.358
 1836SOL    HW2 5961   0.195   2.060   3.416
 1837SOL     OW 5962   1.628   3.242   1.950
 1837SOL    HW1 5963   1.588   3.327   1.933
 1837SOL    HW2 5964   1.560   3.178   1.931
 1838SOL     OW 5965   0.469   3.599   2.183
 1838SOL    HW1 5966   0.506   3.663   2.244
 1838SOL    HW2 5967   0.543   3.574   2.128
 1839SOL     OW 5968   1.397   1.969   2.291
 1839SOL    HW1 5969   1.381   1.946   2.200
 1839SOL    HW2 5970   1.492   1.962   2.302
 1840SOL     OW 5971   0.251   3.656   3.092
 1840SOL    HW1 5972   0.298   3.592   3.146
 1840SOL    HW2 5973   0.247   3.616   3.005
 1841SOL     OW 5974   0.937   3.560   2.764
 1841SOL    HW1 5975   1.015   3.508   2.783
 1841SOL    HW2 5976   0.892   3.512   2.695
 1842SOL     OW 5977   0.395   2.556   2.335
 1842SOL    HW1 5978   0.423   2.465   2.348
 1842SOL    HW2 5979   0.303   2.557   2.362
 1843SOL     OW 5980   1.538   2.086   3.587
 1843SOL    HW1 5981   1.548   2.108   3.679
 1843SOL    HW2 5982   1.467   2.022   3.585
 1844SOL     OW 5983   0.631   1.983   1.964
 1844SOL    HW1 5984   0.703   1.921   1.978
 1844SOL    HW2 5985   0.587   1.950   1.885
 1845SOL     OW 5986   0.767   2.139   3.615
 1845SOL    HW1 5987   0.842   2.079   3.618
 1845SOL    HW2 5988   0.719   2.122   3.696
 1846SOL     OW 5989   0.876   3.382   3.056
 1846SOL    HW1 5990   0.861   3.347   2.968
 1846SOL    HW2 5991   0.946   3.328   3.092
 1847SOL     OW 5992   1.342   2.450   3.294
 1847SOL    HW1 5993   1.371   2.419   3.379
 1847SOL    HW2 5994   1.377   2.539   3.287
 1848SOL     OW 5995   0.814   3.258   2.799
 1848SOL    HW1 5996   0.899   3.247   2.756
 1848SOL    HW2 5997   0.750   3.257   2.728
 1849SOL     OW 5998   0.927   2.371   2.766
 1849SOL    HW1 5999   0.905   2.363   2.673
 1849SOL    HW2 6000   0.960   2.285   2.790
 1850SOL     OW 6001   0.552   1.924   2.361
 1850SOL    HW1 6002   0.470   1.929   2.410
 1850SOL    HW2 6003   0.557   2.007   2.313
 1851SOL     OW 6004   1.428   3.060   1.903
 1851SOL    HW1 6005   1.459   2.985   1.952
 1851SOL    HW2 6006   1.342   3.080   1.940
 1852SOL     OW 6007   0.305   1.912   2.032
 1852SOL    HW1 6008   0.371   1.953   1.976
 1852SOL    HW2 6009   0.354   1.847   2.083
 1853SOL     OW 6010   0.938   2.106   2.325
 1853SOL    HW1 6011   0.906   2.149   2.245
 1853SOL    HW2 6012   1.032   2.122   2.325
 1854SOL     OW 6013   1.080   2.542   3.321
 1854SOL    HW1 6014   1.011   2.476   3.327
 1854SOL    HW2 6015   1.161   2.491   3.315
 1855SOL     OW 6016   1.224   3.431   2.655
 1855SOL    HW1 6017   1.241   3.500   2.590
 1855SOL    HW2 6018   1.292   3.444   2.722
 1856SOL     OW 6019   0.466   3.011   2.601
 1856SOL    HW1 6020   0.393   2.989   2.658
 1856SOL    HW2 6021   0.433   2.995   2.512
 1857SOL     OW 6022   1.269   3.659   2.467
 1857SOL    HW1 6023   1.314   3.722   2.412
 1857SOL    HW2 6024   1.200   3.708   2.510
 1858SOL     OW 6025   1.024   2.405   1.884
 1858SOL    HW1 6026   0.983   2.489   1.864
 1858SOL    HW2 6027   1.091   2.426   1.949
 1859SOL     OW 6028   0.080   2.432   3.252
 1859SOL    HW1 6029   0.169   2.419   3.221
 1859SOL    HW2 6030   0.087   2.502   3.318
 1860SOL     OW 6031   0.567   2.089   3.025
 1860SOL    HW1 6032   0.606   2.011   3.065
 1860SOL    HW2 6033   0.476   2.087   3.055
 1861SOL     OW 6034   0.869   2.321   2.502
 1861SOL    HW1 6035   0.821   2.374   2.439
 1861SOL    HW2 6036   0.888   2.240   2.455
 1862SOL     OW 6037   1.015   1.915   2.615
 1862SOL    HW1 6038   0.957   1.908   2.539
 1862SOL    HW2 6039   0.993   1.839   2.669
 1863SOL     OW 6040   1.436   3.025   2.719
 1863SOL    HW1 6041   1.368   2.958   2.718
 1863SOL    HW2 6042   1.460   3.037   2.627
 1864SOL     OW 6043   1.466   2.466   2.840
 1864SOL    HW1 6044   1.416   2.384   2.843
 1864SOL    HW2 6045   1.526   2.461   2.915
 1865SOL     OW 6046   1.847   2.681   2.245
 1865SOL    HW1 6047   1.904   2.628   2.301
 1865SOL    HW2 6048   1.814   2.619   2.179
 1866SOL     OW 6049   0.490   3.277   2.024
 1866SOL    HW1 6050   0.414   3.246   2.074
 1866SOL    HW2 6051   0.467   3.258   1.932
 1867SOL     OW 6052   1.670   3.127   2.509
 1867SOL    HW1 6053   1.764   3.131   2.522
 1867SOL    HW2 6054   1.639   3.215   2.530
 1868SOL     OW 6055   1.392   2.435   1.931
 1868SOL    HW1 6056   1.338   2.413   2.006
 1868SOL    HW2 6057   1.481   2.413   1.958
 1869SOL     OW 6058   0.573   2.131   2.186
 1869SOL    HW1 6059   0.597   2.081   2.108
 1869SOL    HW2 6060   0.540   2.214   2.152
 1870SOL     OW 6061   1.753   3.100   3.436
 1870SOL    HW1 6062   1.840   3.061   3.434
 1870SOL    HW2 6063   1.768   3.190   3.465
 1871SOL     OW 6064   1.059   3.215   3.195
 1871SOL    HW1 6065   0.985   3.184   3.247
 1871SOL    HW2 6066   1.135   3.174   3.237
 1872SOL     OW 6067   1.608   3.487   3.515
 1872SOL    HW1 6068   1.602   3.521   3.426
 1872SOL    HW2 6069   1.691   3.441   3.518
 1873SOL     OW 6070   1.128   3.064   2.968
 1873SOL    HW1 6071   1.069   3.102   3.034
 1873SOL    HW2 6072   1.094   3.096   2.884
 1874SOL     OW 6073   1.629   2.961   2.939
 1874SOL    HW1 6074   1.625   3.023   3.012
 1874SOL    HW2 6075   1.550   2.977   2.889
 1875SOL     OW 6076   0.918   1.959   3.259
 1875SOL    HW1 6077   0.941   1.940   3.168
 1875SOL    HW2 6078   0.997   1.999   3.296
 1876SOL     OW 6079   0.984   2.977   3.584
 1876SOL    HW1 6080   0.892   2.992   3.605
 1876SOL    HW2 6081   0.983   2.899   3.528
 1877SOL     OW 6082   0.707   2.922   2.233
 1877SOL    HW1 6083   0.694   2.907   2.327
 1877SOL    HW2 6084   0.784   2.869   2.211
 1878SOL     OW 6085   0.420   2.676   3.114
 1878SOL    HW1 6086   0.489   2.685   3.179
 1878SOL    HW2 6087   0.385   2.588   3.126
 1879SOL     OW 6088   1.266   2.239   3.137
 1879SOL    HW1 6089   1.299   2.316   3.182
 1879SOL    HW2 6090   1.176   2.261   3.112
 1880SOL     OW 6091   0.064   3.441   3.207
 1880SOL    HW1 6092   0.066   3.509   3.139
 1880SOL    HW2 6093   0.156   3.428   3.231
 1881SOL     OW 6094   0.375   2.964   2.348
 1881SOL    HW1 6095   0.368   3.042   2.293
 1881SOL    HW2 6096   0.373   2.891   2.286
 1882SOL     OW 6097   0.553   2.400   2.724
 1882SOL    HW1 6098   0.569   2.456   2.648
 1882SOL    HW2 6099   0.618   2.427   2.788
 1883SOL     OW 6100   1.248   3.210   2.251
 1883SOL    HW1 6101   1.304   3.282   2.282
 1883SOL    HW2 6102   1.161   3.231   2.285
 1884SOL     OW 6103   1.279   3.319   3.008
 1884SOL    HW1 6104   1.335   3.322   3.086
 1884SOL    HW2 6105   1.224   3.242   3.021
 1885SOL     OW 6106   1.579   2.484   2.338
 1885SOL    HW1 6107   1.537   2.543   2.400
 1885SOL    HW2 6108   1.626   2.541   2.277
 1886SOL     OW 6109   0.346   3.387   3.182
 1886SOL    HW1 6110   0.336   3.337   3.100
 1886SOL    HW2 6111   0.440   3.403   3.189
 1887SOL     OW 6112   0.412   2.603   3.463
 1887SOL    HW1 6113   0.474   2.649   3.406
 1887SOL    HW2 6114   0.454   2.518   3.479
 1888SOL     OW 6115   1.598   2.645   3.536
 1888SOL    HW1 6116   1.512   2.688   3.531
 1888SOL    HW2 6117   1.651   2.689   3.470
 1889SOL     OW 6118   0.996   1.983   3.618
 1889SOL    HW1 6119   1.051   2.056   3.588
 1889SOL    HW2 6120   1.045   1.905   3.592
 1890SOL     OW 6121   0.498   1.901   3.606
 1890SOL    HW1 6122   0.455   1.847   3.540
 1890SOL    HW2 6123   0.441   1.977   3.616
 1891SOL     OW 6124   0.584   2.735   2.893
 1891SOL    HW1 6125   0.615   2.825   2.891
 1891SOL    HW2 6126   0.528   2.730   2.971
 1892SOL     OW 6127   1.359   2.721   2.893
 1892SOL    HW1 6128   1.277   2.713   2.845
 1892SOL    HW2 6129   1.398   2.633   2.888
 1893SOL     OW 6130   1.206   2.390   2.130
 1893SOL    HW1 6131   1.213   2.312   2.185
 1893SOL    HW2 6132   1.163   2.455   2.186
 1894SOL     OW 6133   0.312   2.061   3.109
 1894SOL    HW1 6134   0.266   2.098   3.185
 1894SOL    HW2 6135   0.286   1.969   3.109
 1895SOL     OW 6136   0.057   3.166   3.142
 1895SOL    HW1 6137   0.090   3.128   3.223
 1895SOL    HW2 6138   0.050   3.260   3.161
 1896SOL     OW 6139   0.726   2.494   2.921
 1896SOL    HW1 6140   0.799   2.476   2.863
 1896SOL    HW2 6141   0.698   2.583   2.899
 1897SOL     OW 6142   1.733   2.823   3.712
 1897SOL    HW1 6143   1.687   2.760   3.655
 1897SOL    HW2 6144   1.674   2.834   3.787
 1898SOL     OW 6145   0.311   1.926   2.483
 1898SOL    HW1 6146   0.292   2.017   2.505
 1898SOL    HW2 6147   0.315   1.881   2.568
 1899SOL     OW 6148   1.608   2.233   2.237
 1899SOL    HW1 6149   1.623   2.184   2.317
 1899SOL    HW2 6150   1.587   2.322   2.267
 1900SOL     OW 6151   1.027   2.621   2.823
 1900SOL    HW1 6152   1.025   2.639   2.917
 1900SOL    HW2 6153   1.001   2.530   2.815
 1901SOL     OW 6154   0.985   3.429   3.579
 1901SOL    HW1 6155   0.967   3.472   3.495
 1901SOL    HW2 6156   1.026   3.346   3.555
 1902SOL     OW 6157   1.855   3.369   3.467
 1902SOL    HW1 6158   1.873   3.396   3.377
 1902SOL    HW2 6159   1.936   3.389   3.514
 1903SOL     OW 6160   0.351   2.782   3.664
 1903SOL    HW1 6161   0.430   2.802   3.713
 1903SOL    HW2 6162   0.379   2.716   3.600
 1904SOL     OW 6163   1.531   2.132   1.989
 1904SOL    HW1 6164   1.464   2.070   2.018
 1904SOL    HW2 6165   1.563   2.172   2.070
 1905SOL     OW 6166   1.293   2.689   1.894
 1905SOL    HW1 6167   1.334   2.603   1.897
 1905SOL    HW2 6168   1.324   2.728   1.812
 1906SOL     OW 6169   1.065   3.197   2.715
 1906SOL    HW1 6170   1.068   3.125   2.653
 1906SOL    HW2 6171   1.127   3.261   2.680
 1907SOL     OW 6172   0.314   2.668   2.813
 1907SOL    HW1 6173   0.408   2.686   2.806
 1907SOL    HW2 6174   0.309   2.578   2.846
 1908SOL     OW 6175   0.332   2.381   2.875
 1908SOL    HW1 6176   0.298   2.293   2.857
 1908SOL    HW2 6177   0.408   2.389   2.817
 1909SOL     OW 6178   1.134   2.239   3.543
 1909SOL    HW1 6179   1.088   2.294   3.606
 1909SOL    HW2 6180   1.223   2.275   3.540
 1910SOL     OW 6181   1.161   2.066   3.332
 1910SOL    HW1 6182   1.151   2.128   3.404
 1910SOL    HW2 6183   1.199   2.117   3.261
 1911SOL     OW 6184   3.999   3.183   2.044
 1911SOL    HW1 6185   3.905   3.198   2.048
 1911SOL    HW2 6186   0.009   3.090   2.063
 1912SOL     OW 6187   0.075   3.663   2.756
 1912SOL    HW1 6188   0.085   3.568   2.760
 1912SOL    HW2 6189   0.165   3.696   2.752
 1913SOL     OW 6190   0.507   3.428   2.775
 1913SOL    HW1 6191   0.574   3.493   2.797
 1913SOL    HW2 6192   0.551   3.367   2.716
 1914SOL     OW 6193   0.985   2.655   3.089
 1914SOL    HW1 6194   1.040   2.631   3.164
 1914SOL    HW2 6195   0.899   2.618   3.110
 1915SOL     OW 6196   0.037   2.415   2.972
 1915SOL    HW1 6197   0.119   2.390   2.930
 1915SOL    HW2 6198   0.057   2.413   3.066
 1916SOL     OW 6199   0.206   2.376   3.589
 1916SOL    HW1 6200   0.249   2.333   3.515
 1916SOL    HW2 6201   0.155   2.447   3.548
 1917SOL     OW 6202   1.374   2.804   3.520
 1917SOL    HW1 6203   1.396   2.897   3.519
 1917SOL    HW2 6204   1.372   2.778   3.428
 1918SOL     OW 6205   0.817   2.431   2.219
 1918SOL    HW1 6206   0.820   2.355   2.161
 1918SOL    HW2 6207   0.743   2.482   2.188
 1919SOL     OW 6208   1.643   2.464   3.049
 1919SOL    HW1 6209   1.632   2.409   3.126
 1919SOL    HW2 6210   1.729   2.441   3.014
 1920SOL     OW 6211   0.296   3.409   3.594
 1920SOL    HW1 6212   0.246   3.479   3.635
 1920SOL    HW2 6213   0.261   3.329   3.631
 1921SOL     OW 6214   0.698   2.314   3.123
 1921SOL    HW1 6215   0.648   2.239   3.091
 1921SOL    HW2 6216   0.696   2.377   3.051
 1922SOL     OW 6217   0.931   3.536   3.329
 1922SOL    HW1 6218   0.903   3.502   3.244
 1922SOL    HW2 6219   0.924   3.631   3.320
 1923SOL     OW 6220   0.461   2.353   2.054
 1923SOL    HW1 6221   0.525   2.422   2.073
 1923SOL    HW2 6222   0.379   2.400   2.035
 1924SOL     OW 6223   0.157   2.998   3.335
 1924SOL    HW1 6224   0.161   2.947   3.415
 1924SOL    HW2 6225   0.172   2.935   3.265
 1925SOL     OW 6226   1.327   2.910   3.085
 1925SOL    HW1 6227   1.351   2.846   3.018
 1925SOL    HW2 6228   1.256   2.961   3.047
 1926SOL     OW 6229   1.310   2.719   2.169
 1926SOL    HW1 6230   1.233   2.688   2.218
 1926SOL    HW2 6231   1.286   2.705   2.077
 1927SOL     OW 6232   1.767   3.607   3.010
 1927SOL    HW1 6233   1.830   3.634   2.942
 1927SOL    HW2 6234   1.747   3.516   2.988
 1928SOL     OW 6235   1.243   3.596   2.975
 1928SOL    HW1 6236   1.325   3.614   2.931
 1928SOL    HW2 6237   1.247   3.502   2.995
 1929SOL     OW 6238   0.075   3.078   2.889
 1929SOL    HW1 6239   0.082   3.104   2.981
 1929SOL    HW2 6240   3.982   3.086   2.869
 1930SOL     OW 6241   0.679   3.525   3.589
 1930SOL    HW1 6242   0.624   3.603   3.592
 1930SOL    HW2 6243   0.738   3.541   3.515
 1931SOL     OW 6244   1.390   3.431   2.346
 1931SOL    HW1 6245   1.450   3.463   2.279
 1931SOL    HW2 6246   1.343   3.509   2.375
 1932SOL     OW 6247   0.167   3.628   3.692
 1932SOL    HW1 6248   0.110   3.577   3.750
 1932SOL    HW2 6249   0.214   3.687   3.751
 1933SOL     OW 6250   1.277   2.787   2.533
 1933SOL    HW1 6251   1.350   2.726   2.539
 1933SOL    HW2 6252   1.311   2.860   2.481
 1934SOL     OW 6253   0.816   3.135   3.293
 1934SOL    HW1 6254   0.788   3.174   3.376
 1934SOL    HW2 6255   0.745   3.155   3.232
 1935SOL     OW 6256   0.675   3.476   2.019
 1935SOL    HW1 6257   0.681   3.492   1.924
 1935SOL    HW2 6258   0.618   3.399   2.026
 1936SOL     OW 6259   1.628   3.588   3.252
 1936SOL    HW1 6260   1.677   3.594   3.171
 1936SOL    HW2 6261   1.615   3.678   3.280
 1937SOL     OW 6262   0.268   2.177   2.580
 1937SOL    HW1 6263   0.183   2.212   2.553
 1937SOL    HW2 6264   0.262   2.166   2.675
 1938SOL     OW 6265   1.206   3.469   1.897
 1938SOL    HW1 6266   1.197   3.377   1.921
 1938SOL    HW2 6267   1.145   3.481   1.824
 1939SOL     OW 6268   0.823   2.868   3.234
 1939SOL    HW1 6269   0.868   2.864   3.149
 1939SOL    HW2 6270   0.824   2.960   3.257
 1940SOL     OW 6271   0.915   2.772   2.152
 1940SOL    HW1 6272   0.977   2.804   2.085
 1940SOL    HW2 6273   0.963   2.702   2.197
 1941SOL     OW 6274   1.491   3.489   1.903
 1941SOL    HW1 6275   1.397   3.480   1.888
 1941SOL    HW2 6276   1.529   3.494   1.816
 1942SOL     OW 6277   0.373   3.164   3.353
 1942SOL    HW1 6278   0.359   3.244   3.303
 1942SOL    HW2 6279   0.296   3.111   3.336
 1943SOL     OW 6280   1.611   3.145   3.143
 1943SOL    HW1 6281   1.671   3.135   3.217
 1943SOL    HW2 6282   1.551   3.214   3.169
 1944SOL     OW 6283   1.050   2.968   2.568
 1944SOL    HW1 6284   0.980   2.917   2.607
 1944SOL    HW2 6285   1.113   2.903   2.536
 1945SOL     OW 6286   1.021   2.102   2.828
 1945SOL    HW1 6287   1.016   2.054   2.745
 1945SOL    HW2 6288   1.015   2.034   2.895
 1946SOL     OW 6289   0.603   3.352   2.343
 1946SOL    HW1 6290   0.646   3.301   2.274
 1946SOL    HW2 6291   0.535   3.402   2.298
 1947SOL     OW 6292   1.722   2.254   3.239
 1947SOL    HW1 6293   1.795   2.314   3.245
 1947SOL    HW2 6294   1.750   2.186   3.177
 1948SOL     OW 6295   0.252   3.204   2.152
 1948SOL    HW1 6296   0.159   3.215   2.132
 1948SOL    HW2 6297   0.262   3.242   2.240
 1949SOL     OW 6298   0.105   2.862   3.580
 1949SOL    HW1 6299   0.044   2.851   3.653
 1949SOL    HW2 6300   0.191   2.842   3.617
 1950SOL     OW 6301   0.674   2.058   3.361
 1950SOL    HW1 6302   0.757   2.039   3.319
 1950SOL    HW2 6303   0.697   2.089   3.449
 1951SOL     OW 6304   0.080   2.181   1.899
 1951SOL    HW1 6305   3.985   2.180   1.904
 1951SOL    HW2 6306   0.101   2.262   1.851
 1952SOL     OW 6307   1.430   2.721   3.263
 1952SOL    HW1 6308   1.382   2.781   3.206
 1952SOL    HW2 6309   1.520   2.723   3.230
 1953SOL     OW 6310   0.025   2.083   2.230
 1953SOL    HW1 6311   0.046   2.151   2.166
 1953SOL    HW2 6312   0.109   2.049   2.258
 1954SOL     OW 6313   1.179   3.202   1.979
 1954SOL    HW1 6314   1.088   3.173   1.981
 1954SOL    HW2 6315   1.207   3.201   2.070
 1955SOL     OW 6316   0.618   2.693   3.297
 1955SOL    HW1 6317   0.674   2.769   3.281
 1955SOL    HW2 6318   0.679   2.620   3.305
 1956SOL     OW 6319   1.485   3.639   2.840
 1956SOL    HW1 6320   1.511   3.694   2.766
 1956SOL    HW2 6321   1.568   3.619   2.885
 1957SOL     OW 6322   0.716   2.427   3.568
 1957SOL    HW1 6323   0.757   2.490   3.627
 1957SOL    HW2 6324   0.748   2.342   3.598
 1958SOL     OW 6325   1.471   3.063   3.494
 1958SOL    HW1 6326   1.458   3.076   3.588
 1958SOL    HW2 6327   1.564   3.077   3.480
 1959SOL     OW 6328   0.379   3.604   3.421
 1959SOL    HW1 6329   0.292   3.640   3.407
 1959SOL    HW2 6330   0.365   3.523   3.469
 1960SOL     OW 6331   1.671   2.744   3.116
 1960SOL    HW1 6332   1.662   2.659   3.074
 1960SOL    HW2 6333   1.661   2.807   3.045
 1961SOL     OW 6334   1.216   2.182   2.320
 1961SOL    HW1 6335   1.280   2.110   2.311
 1961SOL    HW2 6336   1.245   2.230   2.397
 1962SOL     OW 6337   0.590   2.601   2.531
 1962SOL    HW1 6338   0.629   2.687   2.515
 1962SOL    HW2 6339   0.522   2.593   2.465
 1963SOL     OW 6340   1.758   2.236   3.516
 1963SOL    HW1 6341   1.748   2.242   3.421
 1963SOL    HW2 6342   1.688   2.177   3.544
 1964SOL     OW 6343   1.746   2.798   3.372
 1964SOL    HW1 6344   1.744   2.893   3.385
 1964SOL    HW2 6345   1.730   2.787   3.278
 1965SOL     OW 6346   0.864   3.230   1.895
 1965SOL    HW1 6347   0.822   3.258   1.977
 1965SOL    HW2 6348   0.880   3.311   1.848
 1966SOL     OW 6349   0.658   3.653   2.803
 1966SOL    HW1 6350   0.636   3.744   2.782
 1966SOL    HW2 6351   0.754   3.651   2.800
 1967SOL     OW 6352   0.867   2.827   2.717
 1967SOL    HW1 6353   0.917   2.757   2.757
 1967SOL    HW2 6354   0.833   2.878   2.791
 1968SOL     OW 6355   1.078   2.849   1.950
 1968SOL    HW1 6356   1.058   2.901   1.872
 1968SOL    HW2 6357   1.154   2.797   1.925
 1969SOL     OW 6358   1.854   3.416   2.705
 1969SOL    HW1 6359   1.776   3.404   2.652
 1969SOL    HW2 6360   1.846   3.350   2.775
 1970SOL     OW 6361   0.223   3.166   3.717
 1970SOL    HW1 6362   0.152   3.107   3.692
 1970SOL    HW2 6363   0.211   3.179   3.811
 1971SOL     OW 6364   0.110   3.135   2.578
 1971SOL    HW1 6365   0.121   3.084   2.659
 1971SOL    HW2 6366   0.111   3.069   2.508
 1972SOL     OW 6367   0.680   3.263   3.490
 1972SOL    HW1 6368   0.600   3.221   3.519
 1972SOL    HW2 6369   0.676   3.352   3.526
 1973SOL     OW 6370   0.440   2.296   2.394
 1973SOL    HW1 6371   0.444   2.226   2.329
 1973SOL    HW2 6372   0.386   2.261   2.464
 1974SOL     OW 6373   1.701   3.351   2.959
 1974SOL    HW1 6374   1.619   3.327   2.915
 1974SOL    HW2 6375   1.714   3.283   3.025
 1975SOL     OW 6376   0.331   2.416   3.153
 1975SOL    HW1 6377   0.387   2.360   3.207
 1975SOL    HW2 6378   0.348   2.386   3.063
 1976SOL     OW 6379   0.826   3.441   2.540
 1976SOL    HW1 6380   0.817   3.487   2.457
 1976SOL    HW2 6381   0.749   3.383   2.544
 1977SOL     OW 6382   1.437   2.089   2.981
 1977SOL    HW1 6383   1.453   2.004   3.022
 1977SOL    HW2 6384   1.382   2.136   3.044
 1978SOL     OW 6385   1.009   1.881   3.006
 1978SOL    HW1 6386   0.955   1.813   2.966
 1978SOL    HW2 6387   1.097   1.844   3.007
 1979SOL     OW 6388   0.771   3.194   2.176
 1979SOL    HW1 6389   0.739   3.104   2.182
 1979SOL    HW2 6390   0.854   3.192   2.224
 1980SOL     OW 6391   0.620   3.418   3.146
 1980SOL    HW1 6392   0.622   3.499   3.197
 1980SOL    HW2 6393   0.707   3.411   3.108
 1981SOL     OW 6394   1.350   1.914   2.027
 1981SOL    HW1 6395   1.377   1.856   1.956
 1981SOL    HW2 6396   1.263   1.882   2.053
 1982SOL     OW 6397   1.297   2.322   2.544
 1982SOL    HW1 6398   1.244   2.401   2.551
 1982SOL    HW2 6399   1.294   2.282   2.631
 1983SOL     OW 6400   1.575   2.059   2.731
 1983SOL    HW1 6401   1.533   2.082   2.814
 1983SOL    HW2 6402   1.589   2.143   2.687
 1984SOL     OW 6403   0.045   2.914   2.101
 1984SOL    HW1 6404   0.139   2.898   2.093
 1984SOL    HW2 6405   0.010   2.834   2.141
 1985SOL     OW 6406   0.883   3.516   2.207
 1985SOL    HW1 6407   0.813   3.497   2.145
 1985SOL    HW2 6408   0.852   3.593   2.255
 1986SOL     OW 6409   0.231   2.483   3.845
 1986SOL    HW1 6410   0.138   2.493   3.865
 1986SOL    HW2 6411   0.233   2.455   3.754
 1987SOL     OW 6412   0.228   2.132   4.711
 1987SOL    HW1 6413   0.249   2.102   4.799
 1987SOL    HW2 6414   0.133   2.123   4.704
 1988SOL     OW 6415   0.012   2.226   4.357
 1988SOL    HW1 6416   3.926   2.243   4.395
 1988SOL    HW2 6417   3.994   2.188   4.271
 1989SOL     OW 6418   0.576   3.144   4.906
 1989SOL    HW1 6419   0.489   3.149   4.866
 1989SOL    HW2 6420   0.592   3.232   4.940
 1990SOL     OW 6421   1.559   3.373   4.431
 1990SOL    HW1 6422   1.516   3.353   4.514
 1990SOL    HW2 6423   1.488   3.377   4.367
 1991SOL     OW 6424   1.130   2.560   4.426
 1991SOL    HW1 6425   1.180   2.641   4.412
 1991SOL    HW2 6426   1.083   2.575   4.508
 1992SOL     OW 6427   1.753   2.475   3.957
 1992SOL    HW1 6428   1.740   2.468   3.862
 1992SOL    HW2 6429   1.746   2.385   3.988
 1993SOL     OW 6430   0.758   3.004   4.762
 1993SOL    HW1 6431   0.691   3.038   4.821
 1993SOL    HW2 6432   0.792   3.082   4.718
 1994SOL     OW 6433   0.864   2.639   5.545
 1994SOL    HW1 6434   0.854   2.711   5.608
 1994SOL    HW2 6435   0.888   2.682   5.463
 1995SOL     OW 6436   0.686   2.867   4.372
 1995SOL    HW1 6437   0.751   2.854   4.441
 1995SOL    HW2 6438   0.616   2.918   4.414
 1996SOL     OW 6439   0.709   3.013   5.536
 1996SOL    HW1 6440   0.757   3.091   5.561
 1996SOL    HW2 6441   0.626   3.045   5.501
 1997SOL     OW 6442   0.351   3.265   4.802
 1997SOL    HW1 6443   0.268   3.251   4.756
 1997SOL    HW2 6444   0.400   3.325   4.746
 1998SOL     OW 6445   1.461   3.361   5.076
 1998SOL    HW1 6446   1.510   3.442   5.087
 1998SOL    HW2 6447   1.401   3.360   5.151
 1999SOL     OW 6448   0.450   2.263   5.216
 1999SOL    HW1 6449   0.524   2.202   5.217
 1999SOL    HW2 6450   0.373   2.207   5.226
 2000SOL     OW 6451   1.609   2.308   4.460
 2000SOL    HW1 6452   1.531   2.334   4.412
 2000SOL    HW2 6453   1.631   2.384   4.513
 2001SOL     OW 6454   0.226   3.571   4.191
 2001SOL    HW1 6455   0.232   3.651   4.244
 2001SOL    HW2 6456   0.302   3.575   4.133
 2002SOL     OW 6457   1.136   3.203   5.416
 2002SOL    HW1 6458   1.176   3.198   5.503
 2002SOL    HW2 6459   1.083   3.123   5.410
 2003SOL     OW 6460   0.245   3.305   4.263
 2003SOL    HW1 6461   0.219   3.396   4.251
 2003SOL    HW2 6462   0.176   3.267   4.317
 2004SOL     OW 6463   0.246   2.932   4.608
 2004SOL    HW1 6464   0.264   2.848   4.651
 2004SOL    HW2 6465   0.194   2.981   4.672
 2005SOL     OW 6466   0.614   3.649   5.154
 2005SOL    HW1 6467   0.531   3.634   5.200
 2005SOL    HW2 6468   0.639   3.738   5.179
 2006SOL     OW 6469   0.583   2.845   3.859
 2006SOL    HW1 6470   0.628   2.893   3.790
 2006SOL    HW2 6471   0.625   2.874   3.940
 2007SOL     OW 6472   1.597   1.988   5.191
 2007SOL    HW1 6473   1.581   2.070   5.144
 2007SOL    HW2 6474   1.588   2.011   5.283
 2008SOL     OW 6475   0.140   2.509   4.298
 2008SOL    HW1 6476   0.085   2.431   4.299
 2008SOL    HW2 6477   0.104   2.565   4.367
 2009SOL     OW 6478   1.841   3.615   4.062
 2009SOL    HW1 6479   1.906   3.590   4.128
 2009SOL    HW2 6480   1.865   3.705   4.039
 2010SOL     OW 6481   0.041   3.455   3.864
 2010SOL    HW1 6482   0.031   3.362   3.886
 2010SOL    HW2 6483   3.963   3.497   3.901
 2011SOL     OW 6484   1.690   2.781   4.364
 2011SOL    HW1 6485   1.772   2.738   4.342
 2011SOL    HW2 6486   1.667   2.831   4.285
 2012SOL     OW 6487   1.645   2.969   4.154
 2012SOL    HW1 6488   1.731   2.975   4.111
 2012SOL    HW2 6489   1.651   3.030   4.227
 2013SOL     OW 6490   0.134   2.613   5.315
 2013SOL    HW1 6491   0.229   2.607   5.319
 2013SOL    HW2 6492   0.114   2.705   5.332
 2014SOL     OW 6493   0.614   3.246   4.458
 2014SOL    HW1 6494   0.567   3.163   4.468
 2014SOL    HW2 6495   0.596   3.272   4.368
 2015SOL     OW 6496   1.289   3.100   5.148
 2015SOL    HW1 6497   1.322   3.033   5.088
 2015SOL    HW2 6498   1.346   3.094   5.224
 2016SOL     OW 6499   0.815   1.861   4.232
 2016SOL    HW1 6500   0.855   1.946   4.214
 2016SOL    HW2 6501   0.722   1.880   4.240
 2017SOL     OW 6502   0.186   2.816   5.000
 2017SOL    HW1 6503   0.274   2.781   4.985
 2017SOL    HW2 6504   0.131   2.772   4.936
 2018SOL     OW 6505   1.531   2.855   3.921
 2018SOL    HW1 6506   1.462   2.797   3.952
 2018SOL    HW2 6507   1.572   2.889   4.001
 2019SOL     OW 6508   1.210   3.664   5.349
 2019SOL    HW1 6509   1.195   3.723   5.276
 2019SOL    HW2 6510   1.212   3.577   5.309
 2020SOL     OW 6511   0.338   2.109   5.536
 2020SOL    HW1 6512   0.379   2.195   5.544
 2020SOL    HW2 6513   0.246   2.124   5.562
 2021SOL     OW 6514   1.465   3.282   4.676
 2021SOL    HW1 6515   1.398   3.296   4.742
 2021SOL    HW2 6516   1.454   3.191   4.649
 2022SOL     OW 6517   1.657   3.598   4.304
 2022SOL    HW1 6518   1.640   3.568   4.214
 2022SOL    HW2 6519   1.633   3.523   4.358
 2023SOL     OW 6520   0.596   2.582   3.987
 2023SOL    HW1 6521   0.604   2.664   3.939
 2023SOL    HW2 6522   0.533   2.600   4.057
 2024SOL     OW 6523   1.279   2.215   4.658
 2024SOL    HW1 6524   1.191   2.180   4.666
 2024SOL    HW2 6525   1.333   2.160   4.715
 2025SOL     OW 6526   1.579   3.535   4.032
 2025SOL    HW1 6527   1.670   3.563   4.027
 2025SOL    HW2 6528   1.555   3.515   3.942
 2026SOL     OW 6529   0.792   2.479   5.176
 2026SOL    HW1 6530   0.765   2.456   5.265
 2026SOL    HW2 6531   0.751   2.413   5.121
 2027SOL     OW 6532   1.393   2.335   5.400
 2027SOL    HW1 6533   1.394   2.381   5.484
 2027SOL    HW2 6534   1.459   2.266   5.410
 2028SOL     OW 6535   0.956   2.750   5.306
 2028SOL    HW1 6536   1.010   2.679   5.271
 2028SOL    HW2 6537   0.908   2.783   5.230
 2029SOL     OW 6538   0.992   2.274   4.963
 2029SOL    HW1 6539   0.908   2.297   5.001
 2029SOL    HW2 6540   0.971   2.228   4.882
 2030SOL     OW 6541   1.050   2.561   4.150
 2030SOL    HW1 6542   1.065   2.554   4.245
 2030SOL    HW2 6543   0.969   2.513   4.136
 2031SOL     OW 6544   0.082   2.686   4.514
 2031SOL    HW1 6545   0.162   2.658   4.560
 2031SOL    HW2 6546   0.091   2.781   4.506
 2032SOL     OW 6547   0.128   3.711   5.297
 2032SOL    HW1 6548   0.134   3.681   5.388
 2032SOL    HW2 6549   0.035   3.700   5.275
 2033SOL     OW 6550   0.891   2.210   3.916
 2033SOL    HW1 6551   0.933   2.272   3.857
 2033SOL    HW2 6552   0.911   2.124   3.880
 2034SOL     OW 6553   1.675   2.444   5.557
 2034SOL    HW1 6554   1.652   2.516   5.499
 2034SOL    HW2 6555   1.726   2.384   5.502
 2035SOL     OW 6556   1.376   3.004   4.266
 2035SOL    HW1 6557   1.455   2.990   4.213
 2035SOL    HW2 6558   1.324   3.066   4.215
 2036SOL     OW 6559   0.546   2.042   4.616
 2036SOL    HW1 6560   0.552   2.073   4.707
 2036SOL    HW2 6561   0.548   2.123   4.564
 2037SOL     OW 6562   1.007   3.308   4.197
 2037SOL    HW1 6563   0.967   3.380   4.148
 2037SOL    HW2 6564   0.991   3.329   4.289
 2038SOL     OW 6565   0.358   3.668   4.581
 2038SOL    HW1 6566   0.434   3.610   4.591
 2038SOL    HW2 6567   0.395   3.756   4.591
 2039SOL     OW 6568   1.799   2.919   4.591
 2039SOL    HW1 6569   1.744   2.902   4.515
 2039SOL    HW2 6570   1.737   2.925   4.665
 2040SOL     OW 6571   1.228   3.399   5.235
 2040SOL    HW1 6572   1.213   3.327   5.296
 2040SOL    HW2 6573   1.163   3.386   5.166
 2041SOL     OW 6574   0.311   2.817   3.966
 2041SOL    HW1 6575   0.395   2.840   3.928
 2041SOL    HW2 6576   0.296   2.727   3.939
 2042SOL     OW 6577   1.477   2.604   4.452
 2042SOL    HW1 6578   1.468   2.559   4.536
 2042SOL    HW2 6579   1.555   2.658   4.462
 2043SOL     OW 6580   0.465   3.121   5.460
 2043SOL    HW1 6581   0.438   3.130   5.369
 2043SOL    HW2 6582   0.383   3.127   5.510
 2044SOL     OW 6583   1.113   3.642   3.948
 2044SOL    HW1 6584   1.051   3.594   4.003
 2044SOL    HW2 6585   1.142   3.578   3.883
 2045SOL     OW 6586   0.204   2.143   5.231
 2045SOL    HW1 6587   0.114   2.174   5.220
 2045SOL    HW2 6588   0.196   2.061   5.278
 2046SOL     OW 6589   1.628   3.242   3.812
 2046SOL    HW1 6590   1.588   3.327   3.795
 2046SOL    HW2 6591   1.560   3.178   3.793
 2047SOL     OW 6592   0.469   3.599   4.045
 2047SOL    HW1 6593   0.506   3.663   4.106
 2047SOL    HW2 6594   0.543   3.574   3.990
 2048SOL     OW 6595   1.397   1.969   4.153
 2048SOL    HW1 6596   1.381   1.946   4.062
 2048SOL    HW2 6597   1.492   1.961   4.164
 2049SOL     OW 6598   0.251   3.656   4.954
 2049SOL    HW1 6599   0.298   3.592   5.008
 2049SOL    HW2 6600   0.247   3.616   4.867
 2050SOL     OW 6601   0.937   3.561   4.626
 2050SOL    HW1 6602   1.015   3.508   4.645
 2050SOL    HW2 6603   0.892   3.512   4.557
 2051SOL     OW 6604   0.395   2.556   4.197
 2051SOL    HW1 6605   0.423   2.465   4.210
 2051SOL    HW2 6606   0.303   2.557   4.224
 2052SOL     OW 6607   1.537   2.086   5.449
 2052SOL    HW1 6608   1.548   2.107   5.542
 2052SOL    HW2 6609   1.466   2.022   5.446
 2053SOL     OW 6610   0.631   1.983   3.826
 2053SOL    HW1 6611   0.703   1.921   3.840
 2053SOL    HW2 6612   0.587   1.950   3.748
 2054SOL     OW 6613   0.767   2.139   5.477
 2054SOL    HW1 6614   0.842   2.079   5.481
 2054SOL    HW2 6615   0.718   2.121   5.557
 2055SOL     OW 6616   0.876   3.382   4.918
 2055SOL    HW1 6617   0.861   3.347   4.830
 2055SOL    HW2 6618   0.946   3.328   4.954
 2056SOL     OW 6619   1.342   2.451   5.155
 2056SOL    HW1 6620   1.371   2.419   5.241
 2056SOL    HW2 6621   1.377   2.539   5.149
 2057SOL     OW 6622   0.814   3.258   4.661
 2057SOL    HW1 6623   0.899   3.247   4.618
 2057SOL    HW2 6624   0.750   3.257   4.590
 2058SOL     OW 6625   0.927   2.371   4.628
 2058SOL    HW1 6626   0.905   2.363   4.535
 2058SOL    HW2 6627   0.960   2.285   4.652
 2059SOL     OW 6628   0.552   1.924   4.223
 2059SOL    HW1 6629   0.470   1.929   4.272
 2059SOL    HW2 6630   0.557   2.007   4.175
 2060SOL     OW 6631   1.428   3.060   3.765
 2060SOL    HW1 6632   1.459   2.985   3.814
 2060SOL    HW2 6633   1.342   3.080   3.802
 2061SOL     OW 6634   0.305   1.912   3.894
 2061SOL    HW1 6635   0.371   1.953   3.838
 2061SOL    HW2 6636   0.354   1.847   3.945
 2062SOL     OW 6637   0.938   2.106   4.187
 2062SOL    HW1 6638   0.906   2.149   4.107
 2062SOL    HW2 6639   1.032   2.122   4.187
 2063SOL     OW 6640   1.080   2.542   5.184
 2063SOL    HW1 6641   1.010   2.476   5.189
 2063SOL    HW2 6642   1.161   2.491   5.177
 2064SOL     OW 6643   1.224   3.431   4.517
 2064SOL    HW1 6644   1.241   3.500   4.452
 2064SOL    HW2 6645   1.292   3.444   4.584
 2065SOL     OW 6646   0.466   3.011   4.463
 2065SOL    HW1 6647   0.393   2.989   4.520
 2065SOL    HW2 6648   0.433   2.995   4.374
 2066SOL     OW 6649   1.269   3.659   4.329
 2066SOL    HW1 6650   1.314   3.722   4.274
 2066SOL    HW2 6651   1.200   3.708   4.372
 2067SOL     OW 6652   1.024   2.405   3.746
 2067SOL    HW1 6653   0.983   2.489   3.726
 2067SOL    HW2 6654   1.091   2.426   3.811
 2068SOL     OW 6655   0.080   2.432   5.114
 2068SOL    HW1 6656   0.169   2.419   5.083
 2068SOL    HW2 6657   0.087   2.501   5.180
 2069SOL     OW 6658   0.567   2.089   4.887
 2069SOL    HW1 6659   0.606   2.011   4.927
 2069SOL    HW2 6660   0.476   2.087   4.917
 2070SOL     OW 6661   0.869   2.321   4.364
 2070SOL    HW1 6662   0.821   2.374   4.301
 2070SOL    HW2 6663   0.888   2.240   4.317
 2071SOL     OW 6664   1.015   1.915   4.477
 2071SOL    HW1 6665   0.957   1.908   4.401
 2071SOL    HW2 6666   0.993   1.839   4.531
 2072SOL     OW 6667   1.436   3.025   4.581
 2072SOL    HW1 6668   1.368   2.958   4.580
 2072SOL    HW2 6669   1.460   3.037   4.489
 2073SOL     OW 6670   1.466   2.466   4.702
 2073SOL    HW1 6671   1.416   2.384   4.705
 2073SOL    HW2 6672   1.526   2.460   4.777
 2074SOL     OW 6673   1.846   2.681   4.107
 2074SOL    HW1 6674   1.904   2.628   4.163
 2074SOL    HW2 6675   1.814   2.619   4.041
 2075SOL     OW 6676   0.490   3.277   3.886
 2075SOL    HW1 6677   0.414   3.246   3.936
 2075SOL    HW2 6678   0.467   3.257   3.795
 2076SOL     OW 6679   1.670   3.127   4.371
 2076SOL    HW1 6680   1.764   3.131   4.384
 2076SOL    HW2 6681   1.639   3.215   4.392
 2077SOL     OW 6682   1.392   2.436   3.793
 2077SOL    HW1 6683   1.338   2.413   3.869
 2077SOL    HW2 6684   1.481   2.414   3.819
 2078SOL     OW 6685   0.573   2.131   4.048
 2078SOL    HW1 6686   0.597   2.081   3.970
 2078SOL    HW2 6687   0.540   2.214   4.014
 2079SOL     OW 6688   1.753   3.100   5.298
 2079SOL    HW1 6689   1.840   3.061   5.296
 2079SOL    HW2 6690   1.768   3.190   5.327
 2080SOL     OW 6691   1.059   3.215   5.057
 2080SOL    HW1 6692   0.984   3.184   5.109
 2080SOL    HW2 6693   1.135   3.174   5.099
 2081SOL     OW 6694   1.608   3.487   5.377
 2081SOL    HW1 6695   1.602   3.521   5.288
 2081SOL    HW2 6696   1.691   3.441   5.380
 2082SOL     OW 6697   1.128   3.064   4.830
 2082SOL    HW1 6698   1.069   3.102   4.896
 2082SOL    HW2 6699   1.094   3.096   4.746
 2083SOL     OW 6700   1.629   2.961   4.802
 2083SOL    HW1 6701   1.625   3.023   4.874
 2083SOL    HW2 6702   1.550   2.977   4.751
 2084SOL     OW 6703   0.918   1.959   5.122
 2084SOL    HW1 6704   0.941   1.940   5.030
 2084SOL    HW2 6705   0.997   1.999   5.158
 2085SOL     OW 6706   0.984   2.976   5.447
 2085SOL    HW1 6707   0.892   2.992   5.467
 2085SOL    HW2 6708   0.983   2.899   5.390
 2086SOL     OW 6709   0.707   2.922   4.095
 2086SOL    HW1 6710   0.694   2.907   4.189
 2086SOL    HW2 6711   0.784   2.869   4.073
 2087SOL     OW 6712   0.420   2.676   4.976
 2087SOL    HW1 6713   0.489   2.685   5.041
 2087SOL    HW2 6714   0.385   2.588   4.988
 2088SOL     OW 6715   1.266   2.239   4.999
 2088SOL    HW1 6716   1.299   2.316   5.044
 2088SOL    HW2 6717   1.176   2.261   4.974
 2089SOL     OW 6718   0.064   3.441   5.069
 2089SOL    HW1 6719   0.066   3.509   5.001
 2089SOL    HW2 6720   0.156   3.428   5.093
 2090SOL     OW 6721   0.375   2.964   4.210
 2090SOL    HW1 6722   0.368   3.042   4.155
 2090SOL    HW2 6723   0.373   2.891   4.148
 2091SOL     OW 6724   0.553   2.400   4.586
 2091SOL    HW1 6725   0.569   2.456   4.510
 2091SOL    HW2 6726   0.618   2.428   4.650
 2092SOL     OW 6727   1.248   3.210   4.113
 2092SOL    HW1 6728   1.304   3.282   4.144
 2092SOL    HW2 6729   1.161   3.231   4.147
 2093SOL     OW 6730   1.279   3.319   4.870
 2093SOL    HW1 6731   1.335   3.322   4.948
 2093SOL    HW2 6732   1.224   3.242   4.883
 2094SOL     OW 6733   1.579   2.484   4.200
 2094SOL    HW1 6734   1.537   2.543   4.262
 2094SOL    HW2 6735   1.626   2.541   4.139
 2095SOL     OW 6736   0.346   3.387   5.044
 2095SOL    HW1 6737   0.336   3.337   4.962
 2095SOL    HW2 6738   0.440   3.403   5.051
 2096SOL     OW 6739   0.412   2.603   5.325
 2096SOL    HW1 6740   0.474   2.649   5.268
 2096SOL    HW2 6741   0.454   2.518   5.341
 2097SOL     OW 6742   1.598   2.645   5.399
 2097SOL    HW1 6743   1.512   2.687   5.393
 2097SOL    HW2 6744   1.651   2.689   5.332
 2098SOL     OW 6745   0.996   1.983   5.480
 2098SOL    HW1 6746   1.050   2.056   5.450
 2098SOL    HW2 6747   1.045   1.905   5.454
 2099SOL     OW 6748   0.498   1.901   5.468
 2099SOL    HW1 6749   0.455   1.847   5.402
 2099SOL    HW2 6750   0.441   1.977   5.478
 2100SOL     OW 6751   0.584   2.735   4.755
 2100SOL    HW1 6752   0.615   2.826   4.753
 2100SOL    HW2 6753   0.528   2.730   4.833
 2101SOL     OW 6754   1.359   2.720   4.755
 2101SOL    HW1 6755   1.277   2.713   4.707
 2101SOL    HW2 6756   1.398   2.633   4.750
 2102SOL     OW 6757   1.206   2.390   3.993
 2102SOL    HW1 6758   1.213   2.312   4.048
 2102SOL    HW2 6759   1.163   2.455   4.048
 2103SOL     OW 6760   0.312   2.061   4.971
 2103SOL    HW1 6761   0.266   2.098   5.047
 2103SOL    HW2 6762   0.286   1.969   4.971
 2104SOL     OW 6763   0.057   3.166   5.004
 2104SOL    HW1 6764   0.090   3.128   5.085
 2104SOL    HW2 6765   0.050   3.260   5.023
 2105SOL     OW 6766   0.726   2.494   4.783
 2105SOL    HW1 6767   0.799   2.477   4.724
 2105SOL    HW2 6768   0.698   2.583   4.761
 2106SOL     OW 6769   1.733   2.822   5.575
 2106SOL    HW1 6770   1.687   2.761   5.517
 2106SOL    HW2 6771   1.674   2.834   5.649
 2107SOL     OW 6772   0.311   1.926   4.345
 2107SOL    HW1 6773   0.292   2.017   4.367
 2107SOL    HW2 6774   0.315   1.881   4.430
 2108SOL     OW 6775   1.608   2.233   4.099
 2108SOL    HW1 6776   1.622   2.183   4.179
 2108SOL    HW2 6777   1.588   2.322   4.129
 2109SOL     OW 6778   1.027   2.621   4.685
 2109SOL    HW1 6779   1.025   2.639   4.779
 2109SOL    HW2 6780   1.001   2.530   4.677
 2110SOL     OW 6781   0.985   3.429   5.441
 2110SOL    HW1 6782   0.967   3.472   5.357
 2110SOL    HW2 6783   1.026   3.346   5.417
 2111SOL     OW 6784   1.855   3.369   5.329
 2111SOL    HW1 6785   1.873   3.396   5.239
 2111SOL    HW2 6786   1.936   3.389   5.376
 2112SOL     OW 6787   0.351   2.782   5.526
 2112SOL    HW1 6788   0.430   2.802   5.575
 2112SOL    HW2 6789   0.379   2.716   5.462
 2113SOL     OW 6790   1.531   2.132   3.851
 2113SOL    HW1 6791   1.463   2.070   3.880
 2113SOL    HW2 6792   1.563   2.172   3.932
 2114SOL     OW 6793   1.293   2.689   3.756
 2114SOL    HW1 6794   1.334   2.603   3.759
 2114SOL    HW2 6795   1.324   2.728   3.674
 2115SOL     OW 6796   1.065   3.197   4.577
 2115SOL    HW1 6797   1.068   3.125   4.515
 2115SOL    HW2 6798   1.127   3.261   4.542
 2116SOL     OW 6799   0.314   2.668   4.675
 2116SOL    HW1 6800   0.408   2.686   4.668
 2116SOL    HW2 6801   0.309   2.578   4.708
 2117SOL     OW 6802   0.332   2.381   4.737
 2117SOL    HW1 6803   0.298   2.293   4.719
 2117SOL    HW2 6804   0.408   2.389   4.679
 2118SOL     OW 6805   1.134   2.238   5.405
 2118SOL    HW1 6806   1.087   2.294   5.468
 2118SOL    HW2 6807   1.222   2.276   5.401
 2119SOL     OW 6808   1.161   2.065   5.194
 2119SOL    HW1 6809   1.150   2.128   5.266
 2119SOL    HW2 6810   1.199   2.117   5.123
 2120SOL     OW 6811   3.999   3.183   3.906
 2120SOL    HW1 6812   3.905   3.198   3.910
 2120SOL    HW2 6813   0.009   3.090   3.926
 2121SOL     OW 6814   0.075   3.663   4.618
 2121SOL    HW1 6815   0.085   3.568   4.622
 2121SOL    HW2 6816   0.165   3.696   4.614
 2122SOL     OW 6817   0.507   3.428   4.637
 2122SOL    HW1 6818   0.574   3.493   4.659
 2122SOL    HW2 6819   0.551   3.367   4.578
 2123SOL     OW 6820   0.985   2.655   4.951
 2123SOL    HW1 6821   1.040   2.631   5.026
 2123SOL    HW2 6822   0.899   2.618   4.972
 2124SOL     OW 6823   0.037   2.415   4.834
 2124SOL    HW1 6824   0.119   2.390   4.792
 2124SOL    HW2 6825   0.057   2.414   4.928
 2125SOL     OW 6826   0.206   2.376   5.451
 2125SOL    HW1 6827   0.249   2.333   5.377
 2125SOL    HW2 6828   0.155   2.447   5.411
 2126SOL     OW 6829   1.374   2.803   5.382
 2126SOL    HW1 6830   1.396   2.897   5.381
 2126SOL    HW2 6831   1.372   2.778   5.290
 2127SOL     OW 6832   0.817   2.431   4.081
 2127SOL    HW1 6833   0.820   2.355   4.023
 2127SOL    HW2 6834   0.743   2.482   4.050
 2128SOL     OW 6835   1.643   2.464   4.911
 2128SOL    HW1 6836   1.632   2.408   4.987
 2128SOL    HW2 6837   1.729   2.440   4.876
 2129SOL     OW 6838   0.296   3.409   5.456
 2129SOL    HW1 6839   0.246   3.479   5.497
 2129SOL    HW2 6840   0.261   3.328   5.493
 2130SOL     OW 6841   0.698   2.314   4.985
 2130SOL    HW1 6842   0.648   2.239   4.953
 2130SOL    HW2 6843   0.696   2.377   4.913
 2131SOL     OW 6844   0.931   3.536   5.191
 2131SOL    HW1 6845   0.903   3.502   5.106
 2131SOL    HW2 6846   0.924   3.631   5.182
 2132SOL     OW 6847   0.461   2.353   3.916
 2132SOL    HW1 6848   0.525   2.422   3.935
 2132SOL    HW2 6849   0.379   2.400   3.897
 2133SOL     OW 6850   0.157   2.998   5.197
 2133SOL    HW1 6851   0.160   2.946   5.277
 2133SOL    HW2 6852   0.172   2.935   5.127
 2134SOL     OW 6853   1.327   2.910   4.948
 2134SOL    HW1 6854   1.351   2.846   4.880
 2134SOL    HW2 6855   1.256   2.961   4.909
 2135SOL     OW 6856   1.310   2.719   4.031
 2135SOL    HW1 6857   1.233   2.688   4.080
 2135SOL    HW2 6858   1.287   2.705   3.939
 2136SOL     OW 6859   1.767   3.607   4.872
 2136SOL    HW1 6860   1.830   3.634   4.804
 2136SOL    HW2 6861   1.747   3.516   4.850
 2137SOL     OW 6862   1.243   3.596   4.837
 2137SOL    HW1 6863   1.325   3.614   4.793
 2137SOL    HW2 6864   1.247   3.502   4.857
 2138SOL     OW 6865   0.075   3.078   4.751
 2138SOL    HW1 6866   0.082   3.105   4.843
 2138SOL    HW2 6867   3.982   3.086   4.731
 2139SOL     OW 6868   0.679   3.525   5.451
 2139SOL    HW1 6869   0.623   3.603   5.454
 2139SOL    HW2 6870   0.738   3.541   5.377
 2140SOL     OW 6871   1.390   3.431   4.208
 2140SOL    HW1 6872   1.450   3.463   4.141
 2140SOL    HW2 6873   1.343   3.509   4.237
 2141SOL     OW 6874   0.167   3.628   5.554
 2141SOL    HW1 6875   0.110   3.577   5.611
 2141SOL    HW2 6876   0.214   3.687   5.613
 2142SOL     OW 6877   1.277   2.787   4.395
 2142SOL    HW1 6878   1.350   2.726   4.401
 2142SOL    HW2 6879   1.311   2.860   4.343
 2143SOL     OW 6880   0.816   3.135   5.155
 2143SOL    HW1 6881   0.788   3.174   5.238
 2143SOL    HW2 6882   0.745   3.155   5.094
 2144SOL     OW 6883   0.675   3.476   3.881
 2144SOL    HW1 6884   0.681   3.492   3.786
 2144SOL    HW2 6885   0.618   3.399   3.888
 2145SOL     OW 6886   1.628   3.588   5.114
 2145SOL    HW1 6887   1.677   3.594   5.033
 2145SOL    HW2 6888   1.615   3.678   5.142
 2146SOL     OW 6889   0.268   2.177   4.442
 2146SOL    HW1 6890   0.183   2.212   4.415
 2146SOL    HW2 6891   0.262   2.166   4.537
 2147SOL     OW 6892   1.206   3.469   3.759
 2147SOL    HW1 6893   1.197   3.377   3.783
 2147SOL    HW2 6894   1.145   3.481   3.686
 2148SOL     OW 6895   0.824   2.868   5.096
 2148SOL    HW1 6896   0.868   2.864   5.011
 2148SOL    HW2 6897   0.824   2.960   5.119
 2149SOL     OW 6898   0.915   2.772   4.014
 2149SOL    HW1 6899   0.977   2.804   3.947
 2149SOL    HW2 6900   0.963   2.702   4.059
 2150SOL     OW 6901   1.491   3.489   3.766
 2150SOL    HW1 6902   1.397   3.480   3.751
 2150SOL    HW2 6903   1.529   3.494   3.678
 2151SOL     OW 6904   0.373   3.164   5.215
 2151SOL    HW1 6905   0.359   3.245   5.165
 2151SOL    HW2 6906   0.296   3.111   5.198
 2152SOL     OW 6907   1.611   3.145   5.005
 2152SOL    HW1 6908   1.671   3.136   5.079
 2152SOL    HW2 6909   1.551   3.214   5.031
 2153SOL     OW 6910   1.050   2.968   4.430
 2153SOL    HW1 6911   0.980   2.917   4.469
 2153SOL    HW2 6912   1.113   2.903   4.398
 2154SOL     OW 6913   1.021   2.102   4.690
 2154SOL    HW1 6914   1.016   2.054   4.607
 2154SOL    HW2 6915   1.015   2.034   4.757
 2155SOL     OW 6916   0.603   3.352   4.205
 2155SOL    HW1 6917   0.646   3.301   4.136
 2155SOL    HW2 6918   0.535   3.402   4.160
 2156SOL     OW 6919   1.722   2.253   5.101
 2156SOL    HW1 6920   1.796   2.314   5.106
 2156SOL    HW2 6921   1.752   2.186   5.040
 2157SOL     OW 6922   0.252   3.204   4.014
 2157SOL    HW1 6923   0.159   3.215   3.994
 2157SOL    HW2 6924   0.262   3.242   4.102
 2158SOL     OW 6925   0.105   2.862   5.442
 2158SOL    HW1 6926   0.044   2.852   5.515
 2158SOL    HW2 6927   0.191   2.842   5.479
 2159SOL     OW 6928   0.674   2.058   5.223
 2159SOL    HW1 6929   0.757   2.039   5.181
 2159SOL    HW2 6930   0.697   2.089   5.311
 2160SOL     OW 6931   0.080   2.182   3.761
 2160SOL    HW1 6932   3.985   2.181   3.766
 2160SOL    HW2 6933   0.101   2.262   3.713
 2161SOL     OW 6934   1.431   2.721   5.125
 2161SOL    HW1 6935   1.382   2.781   5.068
 2161SOL    HW2 6936   1.520   2.723   5.091
 2162SOL     OW 6937   0.025   2.083   4.092
 2162SOL    HW1 6938   0.046   2.151   4.028
 2162SOL    HW2 6939   0.109   2.049   4.120
 2163SOL     OW 6940   1.179   3.202   3.841
 2163SOL    HW1 6941   1.088   3.173   3.843
 2163SOL    HW2 6942   1.207   3.201   3.932
 2164SOL     OW 6943   0.618   2.693   5.159
 2164SOL    HW1 6944   0.674   2.769   5.143
 2164SOL    HW2 6945   0.680   2.619   5.167
 2165SOL     OW 6946   1.485   3.639   4.702
 2165SOL    HW1 6947   1.511   3.694   4.628
 2165SOL    HW2 6948   1.568   3.619   4.747
 2166SOL     OW 6949   0.717   2.427   5.429
 2166SOL    HW1 6950   0.757   2.490   5.489
 2166SOL    HW2 6951   0.748   2.341   5.460
 2167SOL     OW 6952   1.471   3.063   5.356
 2167SOL    HW1 6953   1.458   3.077   5.450
 2167SOL    HW2 6954   1.564   3.077   5.342
 2168SOL     OW 6955   0.379   3.604   5.283
 2168SOL    HW1 6956   0.292   3.640   5.270
 2168SOL    HW2 6957   0.365   3.523   5.331
 2169SOL     OW 6958   1.671   2.744   4.979
 2169SOL    HW1 6959   1.662   2.659   4.936
 2169SOL    HW2 6960   1.661   2.807   4.908
 2170SOL     OW 6961   1.216   2.182   4.182
 2170SOL    HW1 6962   1.280   2.110   4.173
 2170SOL    HW2 6963   1.245   2.230   4.259
 2171SOL     OW 6964   0.591   2.601   4.393
 2171SOL    HW1 6965   0.629   2.687   4.377
 2171SOL    HW2 6966   0.522   2.593   4.327
 2172SOL     OW 6967   1.758   2.233   5.377
 2172SOL    HW1 6968   1.747   2.242   5.282
 2172SOL    HW2 6969   1.687   2.176   5.404
 2173SOL     OW 6970   1.746   2.798   5.234
 2173SOL    HW1 6971   1.744   2.893   5.247
 2173SOL    HW2 6972   1.730   2.786   5.141
 2174SOL     OW 6973   0.864   3.230   3.757
 2174SOL    HW1 6974   0.822   3.258   3.839
 2174SOL    HW2 6975   0.880   3.311   3.710
 2175SOL     OW 6976   0.658   3.653   4.665
 2175SOL    HW1 6977   0.636   3.744   4.644
 2175SOL    HW2 6978   0.754   3.651   4.662
 2176SOL     OW 6979   0.867   2.828   4.579
 2176SOL    HW1 6980   0.917   2.757   4.619
 2176SOL    HW2 6981   0.833   2.878   4.653
 2177SOL     OW 6982   1.078   2.849   3.812
 2177SOL    HW1 6983   1.058   2.901   3.734
 2177SOL    HW2 6984   1.154   2.797   3.787
 2178SOL     OW 6985   1.854   3.416   4.567
 2178SOL    HW1 6986   1.776   3.404   4.514
 2178SOL    HW2 6987   1.846   3.350   4.637
 2179SOL     OW 6988   0.223   3.166   5.579
 2179SOL    HW1 6989   0.152   3.107   5.554
 2179SOL    HW2 6990   0.211   3.179   5.673
 2180SOL     OW 6991   0.110   3.135   4.440
 2180SOL    HW1 6992   0.121   3.084   4.521
 2180SOL    HW2 6993   0.111   3.069   4.370
 2181SOL     OW 6994   0.680   3.263   5.352
 2181SOL    HW1 6995   0.600   3.221   5.381
 2181SOL    HW2 6996   0.676   3.352   5.388
 2182SOL     OW 6997   0.441   2.296   4.256
 2182SOL    HW1 6998   0.444   2.227   4.191
 2182SOL    HW2 6999   0.386   2.261   4.326
 2183SOL     OW 7000   1.701   3.351   4.821
 2183SOL    HW1 7001   1.619   3.327   4.777
 2183SOL    HW2 7002   1.714   3.283   4.887
 2184SOL     OW 7003   0.331   2.416   5.015
 2184SOL    HW1 7004   0.387   2.360   5.069
 2184SOL    HW2 7005   0.348   2.386   4.925
 2185SOL     OW 7006   0.826   3.441   4.402
 2185SOL    HW1 7007   0.817   3.487   4.319
 2185SOL    HW2 7008   0.749   3.383   4.406
 2186SOL     OW 7009   1.438   2.089   4.843
 2186SOL    HW1 7010   1.452   2.004   4.883
 2186SOL    HW2 7011   1.382   2.136   4.906
 2187SOL     OW 7012   1.009   1.881   4.868
 2187SOL    HW1 7013   0.955   1.813   4.828
 2187SOL    HW2 7014   1.097   1.844   4.869
 2188SOL     OW 7015   0.771   3.194   4.038
 2188SOL    HW1 7016   0.739   3.104   4.044
 2188SOL    HW2 7017   0.854   3.192   4.086
 2189SOL     OW 7018   0.620   3.418   5.008
 2189SOL    HW1 7019   0.622   3.499   5.059
 2189SOL    HW2 7020   0.707   3.411   4.970
 2190SOL     OW 7021   1.350   1.914   3.889
 2190SOL    HW1 7022   1.377   1.856   3.818
 2190SOL    HW2 7023   1.263   1.882   3.915
 2191SOL     OW 7024   1.297   2.322   4.406
 2191SOL    HW1 7025   1.244   2.401   4.413
 2191SOL    HW2 7026   1.294   2.282   4.493
 2192SOL     OW 7027   1.575   2.059   4.593
 2192SOL    HW1 7028   1.533   2.082   4.676
 2192SOL    HW2 7029   1.589   2.143   4.549
 2193SOL     OW 7030   0.045   2.914   3.963
 2193SOL    HW1 7031   0.139   2.898   3.955
 2193SOL    HW2 7032   0.010   2.834   4.003
 2194SOL     OW 7033   0.883   3.516   4.069
 2194SOL    HW1 7034   0.813   3.497   4.007
 2194SOL    HW2 7035   0.852   3.593   4.117
 2195SOL     OW 7036   0.231   2.483   5.707
 2195SOL    HW1 7037   0.138   2.493   5.727
 2195SOL    HW2 7038   0.233   2.455   5.616
 2196SOL     OW 7039   0.228   2.133   6.573
 2196SOL    HW1 7040   0.249   2.102   6.661
 2196SOL    HW2 7041   0.133   2.123   6.566
 2197SOL     OW 7042   0.012   2.225   6.219
 2197SOL    HW1 7043   3.926   2.244   6.257
 2197SOL    HW2 7044   3.993   2.188   6.133
 2198SOL     OW 7045   0.576   3.144   6.768
 2198SOL    HW1 7046   0.489   3.149   6.728
 2198SOL    HW2 7047   0.591   3.232   6.802
 2199SOL     OW 7048   1.559   3.373   6.293
 2199SOL    HW1 7049   1.516   3.354   6.376
 2199SOL    HW2 7050   1.487   3.377   6.230
 2200SOL     OW 7051   1.130   2.560   6.287
 2200SOL    HW1 7052   1.177   2.642   6.272
 2200SOL    HW2 7053   1.084   2.574   6.370
 2201SOL     OW 7054   1.761   2.482   5.815
 2201SOL    HW1 7055   1.745   2.465   5.722
 2201SOL    HW2 7056   1.750   2.397   5.858
 2202SOL     OW 7057   0.758   3.004   6.624
 2202SOL    HW1 7058   0.691   3.037   6.683
 2202SOL    HW2 7059   0.792   3.082   6.580
 2203SOL     OW 7060   0.863   2.640   7.408
 2203SOL    HW1 7061   0.855   2.712   7.471
 2203SOL    HW2 7062   0.888   2.683   7.326
 2204SOL     OW 7063   0.686   2.867   6.234
 2204SOL    HW1 7064   0.751   2.853   6.303
 2204SOL    HW2 7065   0.616   2.918   6.276
 2205SOL     OW 7066   0.709   3.013   7.398
 2205SOL    HW1 7067   0.757   3.091   7.423
 2205SOL    HW2 7068   0.626   3.045   7.363
 2206SOL     OW 7069   0.351   3.265   6.664
 2206SOL    HW1 7070   0.268   3.251   6.618
 2206SOL    HW2 7071   0.400   3.325   6.608
 2207SOL     OW 7072   1.461   3.361   6.938
 2207SOL    HW1 7073   1.510   3.442   6.949
 2207SOL    HW2 7074   1.401   3.360   7.013
 2208SOL     OW 7075   0.450   2.263   7.078
 2208SOL    HW1 7076   0.524   2.203   7.080
 2208SOL    HW2 7077   0.373   2.207   7.088
 2209SOL     OW 7078   0.226   3.572   6.053
 2209SOL    HW1 7079   0.232   3.651   6.106
 2209SOL    HW2 7080   0.302   3.575   5.995
 2210SOL     OW 7081   1.136   3.203   7.278
 2210SOL    HW1 7082   1.176   3.198   7.365
 2210SOL    HW2 7083   1.084   3.123   7.272
 2211SOL     OW 7084   0.246   3.305   6.125
 2211SOL    HW1 7085   0.219   3.396   6.113
 2211SOL    HW2 7086   0.177   3.266   6.179
 2212SOL     OW 7087   0.246   2.932   6.471
 2212SOL    HW1 7088   0.264   2.848   6.513
 2212SOL    HW2 7089   0.194   2.981   6.534
 2213SOL     OW 7090   0.614   3.649   7.016
 2213SOL    HW1 7091   0.531   3.634   7.062
 2213SOL    HW2 7092   0.639   3.738   7.041
 2214SOL     OW 7093   0.583   2.845   5.721
 2214SOL    HW1 7094   0.628   2.893   5.652
 2214SOL    HW2 7095   0.625   2.874   5.802
 2215SOL     OW 7096   1.636   1.986   7.011
 2215SOL    HW1 7097   1.569   2.031   6.960
 2215SOL    HW2 7098   1.601   1.981   7.099
 2216SOL     OW 7099   0.140   2.509   6.160
 2216SOL    HW1 7100   0.085   2.431   6.160
 2216SOL    HW2 7101   0.105   2.565   6.229
 2217SOL     OW 7102   1.841   3.615   5.924
 2217SOL    HW1 7103   1.906   3.590   5.990
 2217SOL    HW2 7104   1.865   3.705   5.901
 2218SOL     OW 7105   0.041   3.455   5.726
 2218SOL    HW1 7106   0.031   3.362   5.748
 2218SOL    HW2 7107   3.964   3.497   5.763
 2219SOL     OW 7108   1.695   2.777   6.227
 2219SOL    HW1 7109   1.776   2.739   6.194
 2219SOL    HW2 7110   1.663   2.832   6.155
 2220SOL     OW 7111   1.645   2.967   6.017
 2220SOL    HW1 7112   1.730   2.974   5.973
 2220SOL    HW2 7113   1.650   3.030   6.090
 2221SOL     OW 7114   0.134   2.613   7.177
 2221SOL    HW1 7115   0.229   2.607   7.181
 2221SOL    HW2 7116   0.114   2.705   7.194
 2222SOL     OW 7117   0.614   3.246   6.320
 2222SOL    HW1 7118   0.567   3.163   6.331
 2222SOL    HW2 7119   0.596   3.272   6.230
 2223SOL     OW 7120   1.289   3.101   7.010
 2223SOL    HW1 7121   1.323   3.034   6.950
 2223SOL    HW2 7122   1.347   3.096   7.086
 2224SOL     OW 7123   0.815   1.861   6.093
 2224SOL    HW1 7124   0.855   1.946   6.076
 2224SOL    HW2 7125   0.722   1.879   6.102
 2225SOL     OW 7126   0.186   2.816   6.862
 2225SOL    HW1 7127   0.274   2.781   6.847
 2225SOL    HW2 7128   0.131   2.772   6.798
 2226SOL     OW 7129   1.532   2.855   5.784
 2226SOL    HW1 7130   1.462   2.797   5.814
 2226SOL    HW2 7131   1.572   2.889   5.864
 2227SOL     OW 7132   1.210   3.664   7.211
 2227SOL    HW1 7133   1.195   3.724   7.138
 2227SOL    HW2 7134   1.212   3.577   7.171
 2228SOL     OW 7135   0.337   2.109   7.398
 2228SOL    HW1 7136   0.379   2.195   7.405
 2228SOL    HW2 7137   0.246   2.124   7.424
 2229SOL     OW 7138   1.465   3.282   6.538
 2229SOL    HW1 7139   1.397   3.297   6.604
 2229SOL    HW2 7140   1.454   3.191   6.511
 2230SOL     OW 7141   1.657   3.598   6.166
 2230SOL    HW1 7142   1.640   3.568   6.076
 2230SOL    HW2 7143   1.633   3.523   6.221
 2231SOL     OW 7144   0.596   2.582   5.849
 2231SOL    HW1 7145   0.603   2.664   5.802
 2231SOL    HW2 7146   0.533   2.600   5.919
 2232SOL     OW 7147   1.243   2.237   6.544
 2232SOL    HW1 7148   1.162   2.187   6.554
 2232SOL    HW2 7149   1.291   2.221   6.625
 2233SOL     OW 7150   1.579   3.535   5.894
 2233SOL    HW1 7151   1.670   3.563   5.889
 2233SOL    HW2 7152   1.555   3.515   5.803
 2234SOL     OW 7153   0.792   2.480   7.039
 2234SOL    HW1 7154   0.765   2.456   7.128
 2234SOL    HW2 7155   0.751   2.414   6.983
 2235SOL     OW 7156   0.956   2.750   7.168
 2235SOL    HW1 7157   1.010   2.679   7.133
 2235SOL    HW2 7158   0.908   2.783   7.092
 2236SOL     OW 7159   0.988   2.280   6.822
 2236SOL    HW1 7160   0.903   2.298   6.862
 2236SOL    HW2 7161   0.968   2.226   6.746
 2237SOL     OW 7162   1.051   2.560   6.012
 2237SOL    HW1 7163   1.065   2.554   6.106
 2237SOL    HW2 7164   0.968   2.513   5.997
 2238SOL     OW 7165   0.082   2.686   6.376
 2238SOL    HW1 7166   0.162   2.658   6.422
 2238SOL    HW2 7167   0.091   2.781   6.369
 2239SOL     OW 7168   0.128   3.711   7.160
 2239SOL    HW1 7169   0.134   3.681   7.250
 2239SOL    HW2 7170   0.035   3.700   7.137
 2240SOL     OW 7171   0.891   2.210   5.779
 2240SOL    HW1 7172   0.933   2.271   5.718
 2240SOL    HW2 7173   0.909   2.123   5.742
 2241SOL     OW 7174   1.377   3.005   6.127
 2241SOL    HW1 7175   1.456   2.993   6.074
 2241SOL    HW2 7176   1.324   3.068   6.077
 2242SOL     OW 7177   0.546   2.043   6.478
 2242SOL    HW1 7178   0.552   2.072   6.569
 2242SOL    HW2 7179   0.548   2.123   6.427
 2243SOL     OW 7180   1.007   3.308   6.059
 2243SOL    HW1 7181   0.967   3.380   6.010
 2243SOL    HW2 7182   0.991   3.328   6.151
 2244SOL     OW 7183   0.358   3.668   6.443
 2244SOL    HW1 7184   0.434   3.610   6.453
 2244SOL    HW2 7185   0.395   3.756   6.453
 2245SOL     OW 7186   1.796   2.937   6.455
 2245SOL    HW1 7187   1.746   2.903   6.380
 2245SOL    HW2 7188   1.734   2.933   6.528
 2246SOL     OW 7189   1.228   3.399   7.097
 2246SOL    HW1 7190   1.213   3.327   7.158
 2246SOL    HW2 7191   1.163   3.386   7.028
 2247SOL     OW 7192   0.311   2.817   5.828
 2247SOL    HW1 7193   0.395   2.840   5.790
 2247SOL    HW2 7194   0.296   2.727   5.801
 2248SOL     OW 7195   1.468   2.619   6.316
 2248SOL    HW1 7196   1.484   2.525   6.328
 2248SOL    HW2 7197   1.554   2.658   6.305
 2249SOL     OW 7198   0.465   3.121   7.323
 2249SOL    HW1 7199   0.439   3.130   7.231
 2249SOL    HW2 7200   0.383   3.127   7.372
 2250SOL     OW 7201   1.113   3.642   5.810
 2250SOL    HW1 7202   1.051   3.594   5.865
 2250SOL    HW2 7203   1.142   3.578   5.745
 2251SOL     OW 7204   0.204   2.143   7.093
 2251SOL    HW1 7205   0.114   2.174   7.082
 2251SOL    HW2 7206   0.195   2.060   7.140
 2252SOL     OW 7207   1.628   3.242   5.674
 2252SOL    HW1 7208   1.588   3.327   5.657
 2252SOL    HW2 7209   1.559   3.178   5.654
 2253SOL     OW 7210   0.469   3.599   5.907
 2253SOL    HW1 7211   0.506   3.663   5.969
 2253SOL    HW2 7212   0.543   3.574   5.852
 2254SOL     OW 7213   1.400   1.975   6.015
 2254SOL    HW1 7214   1.386   1.945   5.925
 2254SOL    HW2 7215   1.494   1.962   6.030
 2255SOL     OW 7216   0.251   3.656   6.816
 2255SOL    HW1 7217   0.298   3.592   6.870
 2255SOL    HW2 7218   0.246   3.616   6.729
 2256SOL     OW 7219   0.937   3.561   6.488
 2256SOL    HW1 7220   1.015   3.508   6.508
 2256SOL    HW2 7221   0.892   3.512   6.419
 2257SOL     OW 7222   0.395   2.556   6.059
 2257SOL    HW1 7223   0.423   2.465   6.072
 2257SOL    HW2 7224   0.303   2.557   6.086
 2258SOL     OW 7225   0.632   1.983   5.687
 2258SOL    HW1 7226   0.702   1.920   5.703
 2258SOL    HW2 7227   0.587   1.950   5.609
 2259SOL     OW 7228   0.767   2.139   7.339
 2259SOL    HW1 7229   0.842   2.079   7.343
 2259SOL    HW2 7230   0.719   2.123   7.420
 2260SOL     OW 7231   0.876   3.382   6.780
 2260SOL    HW1 7232   0.861   3.347   6.692
 2260SOL    HW2 7233   0.946   3.328   6.816
 2261SOL     OW 7234   1.345   2.453   7.032
 2261SOL    HW1 7235   1.411   2.419   7.093
 2261SOL    HW2 7236   1.372   2.543   7.015
 2262SOL     OW 7237   0.814   3.258   6.523
 2262SOL    HW1 7238   0.899   3.247   6.480
 2262SOL    HW2 7239   0.750   3.257   6.452
 2263SOL     OW 7240   0.926   2.373   6.488
 2263SOL    HW1 7241   0.904   2.364   6.396
 2263SOL    HW2 7242   0.957   2.287   6.515
 2264SOL     OW 7243   0.552   1.924   6.085
 2264SOL    HW1 7244   0.470   1.929   6.134
 2264SOL    HW2 7245   0.557   2.007   6.037
 2265SOL     OW 7246   1.428   3.060   5.627
 2265SOL    HW1 7247   1.459   2.984   5.677
 2265SOL    HW2 7248   1.342   3.080   5.664
 2266SOL     OW 7249   0.305   1.912   5.756
 2266SOL    HW1 7250   0.372   1.953   5.700
 2266SOL    HW2 7251   0.353   1.847   5.807
 2267SOL     OW 7252   0.937   2.107   6.049
 2267SOL    HW1 7253   0.906   2.148   5.969
 2267SOL    HW2 7254   1.032   2.122   6.049
 2268SOL     OW 7255   1.080   2.541   7.045
 2268SOL    HW1 7256   1.009   2.477   7.050
 2268SOL    HW2 7257   1.160   2.489   7.043
 2269SOL     OW 7258   1.224   3.431   6.379
 2269SOL    HW1 7259   1.241   3.500   6.314
 2269SOL    HW2 7260   1.292   3.444   6.446
 2270SOL     OW 7261   0.466   3.011   6.325
 2270SOL    HW1 7262   0.393   2.989   6.382
 2270SOL    HW2 7263   0.433   2.995   6.237
 2271SOL     OW 7264   1.269   3.658   6.191
 2271SOL    HW1 7265   1.314   3.723   6.136
 2271SOL    HW2 7266   1.200   3.708   6.234
 2272SOL     OW 7267   1.024   2.405   5.607
 2272SOL    HW1 7268   0.982   2.489   5.587
 2272SOL    HW2 7269   1.090   2.427   5.673
 2273SOL     OW 7270   0.080   2.432   6.976
 2273SOL    HW1 7271   0.169   2.419   6.945
 2273SOL    HW2 7272   0.087   2.501   7.042
 2274SOL     OW 7273   0.567   2.088   6.749
 2274SOL    HW1 7274   0.607   2.011   6.789
 2274SOL    HW2 7275   0.476   2.086   6.779
 2275SOL     OW 7276   0.870   2.322   6.225
 2275SOL    HW1 7277   0.820   2.374   6.163
 2275SOL    HW2 7278   0.888   2.240   6.179
 2276SOL     OW 7279   1.019   1.913   6.338
 2276SOL    HW1 7280   0.959   1.908   6.263
 2276SOL    HW2 7281   0.996   1.837   6.392
 2277SOL     OW 7282   1.437   3.026   6.444
 2277SOL    HW1 7283   1.369   2.958   6.443
 2277SOL    HW2 7284   1.460   3.037   6.352
 2278SOL     OW 7285   1.850   2.685   5.967
 2278SOL    HW1 7286   1.884   2.627   6.035
 2278SOL    HW2 7287   1.820   2.626   5.898
 2279SOL     OW 7288   0.490   3.277   5.747
 2279SOL    HW1 7289   0.414   3.246   5.798
 2279SOL    HW2 7290   0.467   3.258   5.657
 2280SOL     OW 7291   1.669   3.128   6.231
 2280SOL    HW1 7292   1.763   3.131   6.246
 2280SOL    HW2 7293   1.638   3.215   6.254
 2281SOL     OW 7294   1.390   2.437   5.653
 2281SOL    HW1 7295   1.338   2.414   5.730
 2281SOL    HW2 7296   1.480   2.418   5.678
 2282SOL     OW 7297   0.574   2.131   5.910
 2282SOL    HW1 7298   0.598   2.081   5.832
 2282SOL    HW2 7299   0.539   2.214   5.876
 2283SOL     OW 7300   1.753   3.101   7.162
 2283SOL    HW1 7301   1.840   3.061   7.161
 2283SOL    HW2 7302   1.769   3.192   7.189
 2284SOL     OW 7303   1.059   3.214   6.919
 2284SOL    HW1 7304   0.984   3.184   6.971
 2284SOL    HW2 7305   1.135   3.174   6.961
 2285SOL     OW 7306   1.608   3.487   7.239
 2285SOL    HW1 7307   1.602   3.521   7.150
 2285SOL    HW2 7308   1.691   3.441   7.242
 2286SOL     OW 7309   1.128   3.064   6.692
 2286SOL    HW1 7310   1.069   3.102   6.758
 2286SOL    HW2 7311   1.094   3.096   6.608
 2287SOL     OW 7312   1.626   2.959   6.667
 2287SOL    HW1 7313   1.623   3.023   6.738
 2287SOL    HW2 7314   1.548   2.977   6.614
 2288SOL     OW 7315   0.913   1.959   6.981
 2288SOL    HW1 7316   0.936   1.939   6.891
 2288SOL    HW2 7317   0.992   1.999   7.018
 2289SOL     OW 7318   0.984   2.977   7.308
 2289SOL    HW1 7319   0.892   2.992   7.328
 2289SOL    HW2 7320   0.984   2.899   7.252
 2290SOL     OW 7321   0.707   2.922   5.957
 2290SOL    HW1 7322   0.694   2.907   6.051
 2290SOL    HW2 7323   0.784   2.869   5.935
 2291SOL     OW 7324   0.420   2.676   6.837
 2291SOL    HW1 7325   0.489   2.685   6.903
 2291SOL    HW2 7326   0.385   2.588   6.850
 2292SOL     OW 7327   1.257   2.243   6.867
 2292SOL    HW1 7328   1.291   2.321   6.911
 2292SOL    HW2 7329   1.167   2.265   6.843
 2293SOL     OW 7330   0.064   3.441   6.931
 2293SOL    HW1 7331   0.066   3.509   6.863
 2293SOL    HW2 7332   0.156   3.428   6.955
 2294SOL     OW 7333   0.376   2.964   6.072
 2294SOL    HW1 7334   0.367   3.042   6.017
 2294SOL    HW2 7335   0.373   2.891   6.010
 2295SOL     OW 7336   0.553   2.400   6.448
 2295SOL    HW1 7337   0.569   2.457   6.372
 2295SOL    HW2 7338   0.618   2.427   6.512
 2296SOL     OW 7339   1.248   3.210   5.975
 2296SOL    HW1 7340   1.304   3.282   6.006
 2296SOL    HW2 7341   1.161   3.231   6.009
 2297SOL     OW 7342   1.279   3.319   6.733
 2297SOL    HW1 7343   1.335   3.322   6.810
 2297SOL    HW2 7344   1.223   3.243   6.746
 2298SOL     OW 7345   1.609   2.516   6.069
 2298SOL    HW1 7346   1.532   2.561   6.105
 2298SOL    HW2 7347   1.624   2.560   5.985
 2299SOL     OW 7348   0.346   3.387   6.906
 2299SOL    HW1 7349   0.336   3.337   6.824
 2299SOL    HW2 7350   0.440   3.403   6.913
 2300SOL     OW 7351   0.412   2.603   7.187
 2300SOL    HW1 7352   0.474   2.649   7.130
 2300SOL    HW2 7353   0.454   2.518   7.203
 2301SOL     OW 7354   1.560   2.669   7.286
 2301SOL    HW1 7355   1.481   2.718   7.263
 2301SOL    HW2 7356   1.620   2.683   7.214
 2302SOL     OW 7357   0.996   1.983   7.342
 2302SOL    HW1 7358   1.048   2.054   7.306
 2302SOL    HW2 7359   1.043   1.903   7.317
 2303SOL     OW 7360   0.498   1.901   7.330
 2303SOL    HW1 7361   0.456   1.847   7.264
 2303SOL    HW2 7362   0.441   1.977   7.340
 2304SOL     OW 7363   0.584   2.735   6.617
 2304SOL    HW1 7364   0.614   2.826   6.616
 2304SOL    HW2 7365   0.528   2.730   6.695
 2305SOL     OW 7366   1.358   2.723   6.619
 2305SOL    HW1 7367   1.282   2.715   6.561
 2305SOL    HW2 7368   1.379   2.633   6.642
 2306SOL     OW 7369   1.209   2.391   5.856
 2306SOL    HW1 7370   1.213   2.312   5.911
 2306SOL    HW2 7371   1.163   2.456   5.910
 2307SOL     OW 7372   0.312   2.061   6.833
 2307SOL    HW1 7373   0.266   2.098   6.908
 2307SOL    HW2 7374   0.287   1.969   6.833
 2308SOL     OW 7375   0.058   3.167   6.865
 2308SOL    HW1 7376   0.090   3.128   6.947
 2308SOL    HW2 7377   0.051   3.260   6.885
 2309SOL     OW 7378   0.725   2.494   6.645
 2309SOL    HW1 7379   0.799   2.476   6.587
 2309SOL    HW2 7380   0.698   2.583   6.622
 2310SOL     OW 7381   1.730   2.824   7.444
 2310SOL    HW1 7382   1.676   2.775   7.382
 2310SOL    HW2 7383   1.672   2.842   7.518
 2311SOL     OW 7384   0.311   1.926   6.207
 2311SOL    HW1 7385   0.292   2.017   6.229
 2311SOL    HW2 7386   0.315   1.881   6.292
 2312SOL     OW 7387   1.029   2.621   6.548
 2312SOL    HW1 7388   1.026   2.639   6.642
 2312SOL    HW2 7389   1.002   2.530   6.539
 2313SOL     OW 7390   0.985   3.429   7.303
 2313SOL    HW1 7391   0.967   3.472   7.219
 2313SOL    HW2 7392   1.026   3.346   7.279
 2314SOL     OW 7393   1.855   3.369   7.191
 2314SOL    HW1 7394   1.873   3.396   7.101
 2314SOL    HW2 7395   1.936   3.389   7.238
 2315SOL     OW 7396   0.351   2.782   7.388
 2315SOL    HW1 7397   0.431   2.802   7.437
 2315SOL    HW2 7398   0.379   2.716   7.324
 2316SOL     OW 7399   1.530   2.129   5.715
 2316SOL    HW1 7400   1.462   2.066   5.741
 2316SOL    HW2 7401   1.557   2.171   5.797
 2317SOL     OW 7402   1.293   2.690   5.618
 2317SOL    HW1 7403   1.333   2.604   5.620
 2317SOL    HW2 7404   1.324   2.729   5.536
 2318SOL     OW 7405   1.065   3.197   6.439
 2318SOL    HW1 7406   1.068   3.125   6.377
 2318SOL    HW2 7407   1.127   3.261   6.404
 2319SOL     OW 7408   0.314   2.668   6.537
 2319SOL    HW1 7409   0.408   2.686   6.531
 2319SOL    HW2 7410   0.309   2.578   6.570
 2320SOL     OW 7411   0.332   2.381   6.599
 2320SOL    HW1 7412   0.298   2.293   6.581
 2320SOL    HW2 7413   0.408   2.389   6.541
 2321SOL     OW 7414   1.131   2.249   7.263
 2321SOL    HW1 7415   1.082   2.297   7.330
 2321SOL    HW2 7416   1.214   2.295   7.256
 2322SOL     OW 7417   1.149   2.067   7.054
 2322SOL    HW1 7418   1.146   2.132   7.125
 2322SOL    HW2 7419   1.197   2.111   6.984
 2323SOL     OW 7420   3.999   3.183   5.768
 2323SOL    HW1 7421   3.905   3.198   5.772
 2323SOL    HW2 7422   0.009   3.089   5.788
 2324SOL     OW 7423   0.075   3.663   6.480
 2324SOL    HW1 7424   0.085   3.568   6.484
 2324SOL    HW2 7425   0.165   3.696   6.476
 2325SOL     OW 7426   0.507   3.428   6.499
 2325SOL    HW1 7427   0.574   3.493   6.521
 2325SOL    HW2 7428   0.551   3.367   6.440
 2326SOL     OW 7429   0.985   2.655   6.813
 2326SOL    HW1 7430   1.039   2.631   6.889
 2326SOL    HW2 7431   0.899   2.617   6.832
 2327SOL     OW 7432   0.038   2.416   6.696
 2327SOL    HW1 7433   0.119   2.390   6.654
 2327SOL    HW2 7434   0.057   2.413   6.790
 2328SOL     OW 7435   0.206   2.376   7.313
 2328SOL    HW1 7436   0.249   2.333   7.239
 2328SOL    HW2 7437   0.155   2.446   7.272
 2329SOL     OW 7438   1.346   2.819   7.236
 2329SOL    HW1 7439   1.378   2.909   7.235
 2329SOL    HW2 7440   1.349   2.791   7.145
 2330SOL     OW 7441   0.817   2.431   5.943
 2330SOL    HW1 7442   0.819   2.355   5.885
 2330SOL    HW2 7443   0.742   2.482   5.912
 2331SOL     OW 7444   0.296   3.409   7.318
 2331SOL    HW1 7445   0.246   3.479   7.359
 2331SOL    HW2 7446   0.261   3.329   7.355
 2332SOL     OW 7447   0.697   2.315   6.848
 2332SOL    HW1 7448   0.648   2.239   6.816
 2332SOL    HW2 7449   0.696   2.377   6.775
 2333SOL     OW 7450   0.931   3.536   7.053
 2333SOL    HW1 7451   0.903   3.502   6.968
 2333SOL    HW2 7452   0.924   3.631   7.044
 2334SOL     OW 7453   0.461   2.353   5.778
 2334SOL    HW1 7454   0.525   2.422   5.797
 2334SOL    HW2 7455   0.380   2.400   5.759
 2335SOL     OW 7456   0.157   2.998   7.059
 2335SOL    HW1 7457   0.160   2.946   7.139
 2335SOL    HW2 7458   0.172   2.935   6.989
 2336SOL     OW 7459   1.327   2.911   6.811
 2336SOL    HW1 7460   1.352   2.850   6.741
 2336SOL    HW2 7461   1.255   2.961   6.774
 2337SOL     OW 7462   1.312   2.715   5.893
 2337SOL    HW1 7463   1.234   2.690   5.943
 2337SOL    HW2 7464   1.287   2.705   5.801
 2338SOL     OW 7465   1.767   3.608   6.733
 2338SOL    HW1 7466   1.830   3.634   6.666
 2338SOL    HW2 7467   1.747   3.517   6.713
 2339SOL     OW 7468   1.243   3.596   6.699
 2339SOL    HW1 7469   1.325   3.614   6.654
 2339SOL    HW2 7470   1.247   3.502   6.719
 2340SOL     OW 7471   0.075   3.079   6.613
 2340SOL    HW1 7472   0.082   3.104   6.704
 2340SOL    HW2 7473   3.982   3.086   6.593
 2341SOL     OW 7474   0.679   3.525   7.313
 2341SOL    HW1 7475   0.623   3.603   7.316
 2341SOL    HW2 7476   0.738   3.541   7.239
 2342SOL     OW 7477   1.389   3.431   6.070
 2342SOL    HW1 7478   1.450   3.463   6.003
 2342SOL    HW2 7479   1.343   3.509   6.099
 2343SOL     OW 7480   0.167   3.628   7.416
 2343SOL    HW1 7481   0.110   3.577   7.474
 2343SOL    HW2 7482   0.214   3.687   7.475
 2344SOL     OW 7483   1.268   2.792   6.255
 2344SOL    HW1 7484   1.343   2.735   6.273
 2344SOL    HW2 7485   1.306   2.864   6.203
 2345SOL     OW 7486   0.816   3.135   7.017
 2345SOL    HW1 7487   0.788   3.174   7.100
 2345SOL    HW2 7488   0.745   3.155   6.956
 2346SOL     OW 7489   0.675   3.476   5.743
 2346SOL    HW1 7490   0.681   3.492   5.648
 2346SOL    HW2 7491   0.618   3.399   5.750
 2347SOL     OW 7492   1.627   3.588   6.976
 2347SOL    HW1 7493   1.677   3.594   6.895
 2347SOL    HW2 7494   1.614   3.678   7.004
 2348SOL     OW 7495   0.268   2.177   6.304
 2348SOL    HW1 7496   0.183   2.212   6.277
 2348SOL    HW2 7497   0.262   2.166   6.399
 2349SOL     OW 7498   1.206   3.469   5.620
 2349SOL    HW1 7499   1.197   3.376   5.645
 2349SOL    HW2 7500   1.145   3.481   5.548
 2350SOL     OW 7501   0.823   2.868   6.958
 2350SOL    HW1 7502   0.867   2.864   6.873
 2350SOL    HW2 7503   0.824   2.961   6.981
 2351SOL     OW 7504   0.915   2.772   5.876
 2351SOL    HW1 7505   0.977   2.804   5.809
 2351SOL    HW2 7506   0.963   2.702   5.920
 2352SOL     OW 7507   1.492   3.488   5.627
 2352SOL    HW1 7508   1.397   3.480   5.613
 2352SOL    HW2 7509   1.529   3.494   5.540
 2353SOL     OW 7510   0.373   3.164   7.077
 2353SOL    HW1 7511   0.359   3.245   7.027
 2353SOL    HW2 7512   0.296   3.111   7.060
 2354SOL     OW 7513   1.610   3.144   6.867
 2354SOL    HW1 7514   1.671   3.135   6.940
 2354SOL    HW2 7515   1.551   3.215   6.894
 2355SOL     OW 7516   1.049   2.969   6.291
 2355SOL    HW1 7517   0.979   2.918   6.331
 2355SOL    HW2 7518   1.113   2.904   6.262
 2356SOL     OW 7519   1.010   2.097   6.555
 2356SOL    HW1 7520   1.010   2.051   6.472
 2356SOL    HW2 7521   1.006   2.028   6.621
 2357SOL     OW 7522   0.603   3.352   6.067
 2357SOL    HW1 7523   0.645   3.301   5.998
 2357SOL    HW2 7524   0.535   3.402   6.023
 2358SOL     OW 7525   1.697   2.258   6.941
 2358SOL    HW1 7526   1.759   2.322   6.977
 2358SOL    HW2 7527   1.746   2.176   6.937
 2359SOL     OW 7528   0.252   3.204   5.876
 2359SOL    HW1 7529   0.159   3.215   5.856
 2359SOL    HW2 7530   0.262   3.242   5.963
 2360SOL     OW 7531   0.105   2.862   7.304
 2360SOL    HW1 7532   0.044   2.851   7.376
 2360SOL    HW2 7533   0.191   2.842   7.341
 2361SOL     OW 7534   0.673   2.059   7.085
 2361SOL    HW1 7535   0.756   2.038   7.043
 2361SOL    HW2 7536   0.697   2.089   7.173
 2362SOL     OW 7537   0.080   2.182   5.623
 2362SOL    HW1 7538   3.985   2.180   5.628
 2362SOL    HW2 7539   0.101   2.262   5.575
 2363SOL     OW 7540   1.428   2.719   6.985
 2363SOL    HW1 7541   1.384   2.783   6.929
 2363SOL    HW2 7542   1.520   2.723   6.958
 2364SOL     OW 7543   0.025   2.083   5.953
 2364SOL    HW1 7544   0.047   2.151   5.890
 2364SOL    HW2 7545   0.110   2.049   5.982
 2365SOL     OW 7546   1.179   3.202   5.703
 2365SOL    HW1 7547   1.088   3.173   5.705
 2365SOL    HW2 7548   1.207   3.201   5.794
 2366SOL     OW 7549   0.618   2.693   7.020
 2366SOL    HW1 7550   0.674   2.769   7.005
 2366SOL    HW2 7551   0.679   2.619   7.029
 2367SOL     OW 7552   1.485   3.639   6.564
 2367SOL    HW1 7553   1.511   3.694   6.490
 2367SOL    HW2 7554   1.568   3.619   6.609
 2368SOL     OW 7555   0.717   2.427   7.292
 2368SOL    HW1 7556   0.758   2.490   7.351
 2368SOL    HW2 7557   0.748   2.341   7.322
 2369SOL     OW 7558   1.471   3.065   7.218
 2369SOL    HW1 7559   1.460   3.077   7.312
 2369SOL    HW2 7560   1.565   3.077   7.203
 2370SOL     OW 7561   0.380   3.604   7.145
 2370SOL    HW1 7562   0.292   3.640   7.131
 2370SOL    HW2 7563   0.365   3.523   7.193
 2371SOL     OW 7564   1.671   2.743   6.839
 2371SOL    HW1 7565   1.673   2.663   6.787
 2371SOL    HW2 7566   1.661   2.813   6.774
 2372SOL     OW 7567   1.218   2.183   6.044
 2372SOL    HW1 7568   1.281   2.112   6.037
 2372SOL    HW2 7569   1.241   2.229   6.125
 2373SOL     OW 7570   0.591   2.601   6.255
 2373SOL    HW1 7571   0.629   2.688   6.239
 2373SOL    HW2 7572   0.522   2.593   6.189
 2374SOL     OW 7573   1.729   2.793   7.103
 2374SOL    HW1 7574   1.744   2.886   7.115
 2374SOL    HW2 7575   1.723   2.781   7.008
 2375SOL     OW 7576   0.864   3.230   5.620
 2375SOL    HW1 7577   0.822   3.257   5.701
 2375SOL    HW2 7578   0.880   3.312   5.572
 2376SOL     OW 7579   0.658   3.653   6.527
 2376SOL    HW1 7580   0.635   3.744   6.506
 2376SOL    HW2 7581   0.754   3.651   6.524
 2377SOL     OW 7582   0.867   2.827   6.441
 2377SOL    HW1 7583   0.918   2.757   6.482
 2377SOL    HW2 7584   0.833   2.878   6.515
 2378SOL     OW 7585   1.079   2.850   5.675
 2378SOL    HW1 7586   1.057   2.901   5.597
 2378SOL    HW2 7587   1.155   2.797   5.649
 2379SOL     OW 7588   1.855   3.416   6.429
 2379SOL    HW1 7589   1.775   3.404   6.377
 2379SOL    HW2 7590   1.848   3.350   6.499
 2380SOL     OW 7591   0.223   3.166   7.441
 2380SOL    HW1 7592   0.153   3.106   7.416
 2380SOL    HW2 7593   0.211   3.179   7.535
 2381SOL     OW 7594   0.111   3.135   6.302
 2381SOL    HW1 7595   0.120   3.085   6.383
 2381SOL    HW2 7596   0.111   3.070   6.233
 2382SOL     OW 7597   0.680   3.264   7.214
 2382SOL    HW1 7598   0.600   3.221   7.243
 2382SOL    HW2 7599   0.676   3.352   7.250
 2383SOL     OW 7600   0.441   2.296   6.118
 2383SOL    HW1 7601   0.443   2.226   6.053
 2383SOL    HW2 7602   0.386   2.261   6.189
 2384SOL     OW 7603   1.701   3.352   6.683
 2384SOL    HW1 7604   1.620   3.326   6.640
 2384SOL    HW2 7605   1.716   3.283   6.748
 2385SOL     OW 7606   0.331   2.416   6.877
 2385SOL    HW1 7607   0.387   2.360   6.931
 2385SOL    HW2 7608   0.348   2.386   6.787
 2386SOL     OW 7609   0.826   3.440   6.264
 2386SOL    HW1 7610   0.817   3.487   6.181
 2386SOL    HW2 7611   0.749   3.383   6.268
 2387SOL     OW 7612   1.002   1.881   6.729
 2387SOL    HW1 7613   0.949   1.812   6.689
 2387SOL    HW2 7614   1.088   1.841   6.741
 2388SOL     OW 7615   0.771   3.194   5.900
 2388SOL    HW1 7616   0.739   3.104   5.906
 2388SOL    HW2 7617   0.854   3.192   5.948
 2389SOL     OW 7618   0.620   3.418   6.870
 2389SOL    HW1 7619   0.622   3.499   6.921
 2389SOL    HW2 7620   0.708   3.411   6.832
 2390SOL     OW 7621   1.353   1.912   5.752
 2390SOL    HW1 7622   1.377   1.854   5.680
 2390SOL    HW2 7623   1.265   1.883   5.778
 2391SOL     OW 7624   1.277   2.320   6.279
 2391SOL    HW1 7625   1.228   2.402   6.275
 2391SOL    HW2 7626   1.266   2.289   6.369
 2392SOL     OW 7627   0.045   2.914   5.826
 2392SOL    HW1 7628   0.139   2.897   5.817
 2392SOL    HW2 7629   0.010   2.834   5.864
 2393SOL     OW 7630   0.883   3.516   5.931
 2393SOL    HW1 7631   0.813   3.496   5.869
 2393SOL    HW2 7632   0.852   3.593   5.979
 2394SOL     OW 7633   0.231   2.484   7.569
 2394SOL    HW1 7634   0.138   2.493   7.589
 2394SOL    HW2 7635   0.233   2.455   7.478
 2395SOL     OW 7636   0.228   2.133   8.435
 2395SOL    HW1 7637   0.249   2.102   8.523
 2395SOL    HW2 7638   0.133   2.123   8.428
 2396SOL     OW 7639   0.012   2.225   8.081
 2396SOL    HW1 7640   3.926   2.243   8.118
 2396SOL    HW2 7641   3.994   2.188   7.995
 2397SOL     OW 7642   0.576   3.144   8.630
 2397SOL    HW1 7643   0.489   3.149   8.590
 2397SOL    HW2 7644   0.591   3.232   8.664
 2398SOL     OW 7645   1.559   3.373   8.155
 2398SOL    HW1 7646   1.516   3.353   8.238
 2398SOL    HW2 7647   1.488   3.377   8.091
 2399SOL     OW 7648   1.131   2.560   8.152
 2399SOL    HW1 7649   1.180   2.641   8.137
 2399SOL    HW2 7650   1.084   2.576   8.234
 2400SOL     OW 7651   0.758   3.004   8.486
 2400SOL    HW1 7652   0.691   3.038   8.546
 2400SOL    HW2 7653   0.792   3.082   8.442
 2401SOL     OW 7654   0.864   2.639   9.269
 2401SOL    HW1 7655   0.855   2.711   9.332
 2401SOL    HW2 7656   0.888   2.682   9.187
 2402SOL     OW 7657   0.686   2.867   8.096
 2402SOL    HW1 7658   0.751   2.854   8.165
 2402SOL    HW2 7659   0.616   2.918   8.138
 2403SOL     OW 7660   0.709   3.013   9.260
 2403SOL    HW1 7661   0.757   3.091   9.285
 2403SOL    HW2 7662   0.626   3.045   9.225
 2404SOL     OW 7663   0.351   3.265   8.526
 2404SOL    HW1 7664   0.268   3.251   8.480
 2404SOL    HW2 7665   0.400   3.325   8.470
 2405SOL     OW 7666   1.461   3.361   8.800
 2405SOL    HW1 7667   1.510   3.442   8.811
 2405SOL    HW2 7668   1.401   3.359   8.875
 2406SOL     OW 7669   0.450   2.263   8.940
 2406SOL    HW1 7670   0.524   2.202   8.941
 2406SOL    HW2 7671   0.373   2.207   8.950
 2407SOL     OW 7672   1.610   2.311   8.190
 2407SOL    HW1 7673   1.531   2.327   8.138
 2407SOL    HW2 7674   1.621   2.390   8.242
 2408SOL     OW 7675   0.226   3.571   7.915
 2408SOL    HW1 7676   0.232   3.651   7.968
 2408SOL    HW2 7677   0.302   3.575   7.857
 2409SOL     OW 7678   1.136   3.203   9.140
 2409SOL    HW1 7679   1.176   3.198   9.227
 2409SOL    HW2 7680   1.084   3.123   9.134
 2410SOL     OW 7681   0.245   3.305   7.987
 2410SOL    HW1 7682   0.219   3.396   7.975
 2410SOL    HW2 7683   0.176   3.267   8.041
 2411SOL     OW 7684   0.246   2.932   8.332
 2411SOL    HW1 7685   0.264   2.848   8.375
 2411SOL    HW2 7686   0.194   2.981   8.396
 2412SOL     OW 7687   0.614   3.649   8.878
 2412SOL    HW1 7688   0.531   3.634   8.924
 2412SOL    HW2 7689   0.639   3.738   8.903
 2413SOL     OW 7690   0.583   2.845   7.583
 2413SOL    HW1 7691   0.628   2.893   7.514
 2413SOL    HW2 7692   0.625   2.874   7.664
 2414SOL     OW 7693   1.588   1.989   8.912
 2414SOL    HW1 7694   1.577   2.072   8.867
 2414SOL    HW2 7695   1.582   2.011   9.005
 2415SOL     OW 7696   0.140   2.509   8.022
 2415SOL    HW1 7697   0.085   2.431   8.022
 2415SOL    HW2 7698   0.104   2.565   8.091
 2416SOL     OW 7699   1.841   3.615   7.786
 2416SOL    HW1 7700   1.906   3.590   7.852
 2416SOL    HW2 7701   1.865   3.705   7.763
 2417SOL     OW 7702   0.041   3.455   7.588
 2417SOL    HW1 7703   0.031   3.362   7.610
 2417SOL    HW2 7704   3.963   3.496   7.625
 2418SOL     OW 7705   1.689   2.781   8.088
 2418SOL    HW1 7706   1.773   2.740   8.068
 2418SOL    HW2 7707   1.667   2.831   8.009
 2419SOL     OW 7708   1.645   2.969   7.878
 2419SOL    HW1 7709   1.730   2.978   7.835
 2419SOL    HW2 7710   1.650   3.030   7.952
 2420SOL     OW 7711   0.133   2.613   9.039
 2420SOL    HW1 7712   0.229   2.607   9.043
 2420SOL    HW2 7713   0.114   2.705   9.056
 2421SOL     OW 7714   0.613   3.246   8.182
 2421SOL    HW1 7715   0.567   3.163   8.192
 2421SOL    HW2 7716   0.596   3.272   8.092
 2422SOL     OW 7717   1.289   3.100   8.872
 2422SOL    HW1 7718   1.322   3.033   8.812
 2422SOL    HW2 7719   1.346   3.094   8.948
 2423SOL     OW 7720   0.816   1.861   7.957
 2423SOL    HW1 7721   0.856   1.946   7.938
 2423SOL    HW2 7722   0.722   1.880   7.964
 2424SOL     OW 7723   0.186   2.816   8.724
 2424SOL    HW1 7724   0.274   2.781   8.710
 2424SOL    HW2 7725   0.131   2.772   8.659
 2425SOL     OW 7726   1.530   2.855   7.649
 2425SOL    HW1 7727   1.459   2.799   7.679
 2425SOL    HW2 7728   1.570   2.890   7.729
 2426SOL     OW 7729   1.210   3.664   9.073
 2426SOL    HW1 7730   1.195   3.723   9.000
 2426SOL    HW2 7731   1.212   3.577   9.033
 2427SOL     OW 7732   0.338   2.109   9.261
 2427SOL    HW1 7733   0.379   2.195   9.267
 2427SOL    HW2 7734   0.246   2.124   9.286
 2428SOL     OW 7735   1.465   3.282   8.400
 2428SOL    HW1 7736   1.398   3.296   8.466
 2428SOL    HW2 7737   1.454   3.191   8.373
 2429SOL     OW 7738   1.657   3.598   8.028
 2429SOL    HW1 7739   1.640   3.568   7.938
 2429SOL    HW2 7740   1.633   3.523   8.082
 2430SOL     OW 7741   0.596   2.581   7.711
 2430SOL    HW1 7742   0.604   2.664   7.663
 2430SOL    HW2 7743   0.533   2.600   7.781
 2431SOL     OW 7744   1.279   2.215   8.382
 2431SOL    HW1 7745   1.191   2.180   8.390
 2431SOL    HW2 7746   1.332   2.160   8.439
 2432SOL     OW 7747   1.579   3.535   7.756
 2432SOL    HW1 7748   1.670   3.563   7.751
 2432SOL    HW2 7749   1.555   3.515   7.666
 2433SOL     OW 7750   0.792   2.479   8.901
 2433SOL    HW1 7751   0.765   2.456   8.989
 2433SOL    HW2 7752   0.751   2.413   8.845
 2434SOL     OW 7753   1.394   2.335   9.125
 2434SOL    HW1 7754   1.395   2.380   9.210
 2434SOL    HW2 7755   1.459   2.265   9.134
 2435SOL     OW 7756   0.956   2.750   9.030
 2435SOL    HW1 7757   1.010   2.679   8.995
 2435SOL    HW2 7758   0.908   2.783   8.954
 2436SOL     OW 7759   0.992   2.274   8.687
 2436SOL    HW1 7760   0.907   2.297   8.725
 2436SOL    HW2 7761   0.971   2.228   8.606
 2437SOL     OW 7762   1.046   2.567   7.880
 2437SOL    HW1 7763   1.062   2.556   7.974
 2437SOL    HW2 7764   0.967   2.517   7.863
 2438SOL     OW 7765   0.082   2.686   8.239
 2438SOL    HW1 7766   0.161   2.658   8.284
 2438SOL    HW2 7767   0.091   2.781   8.230
 2439SOL     OW 7768   0.128   3.711   9.022
 2439SOL    HW1 7769   0.134   3.681   9.112
 2439SOL    HW2 7770   0.035   3.700   8.999
 2440SOL     OW 7771   0.888   2.209   7.640
 2440SOL    HW1 7772   0.936   2.271   7.585
 2440SOL    HW2 7773   0.911   2.123   7.606
 2441SOL     OW 7774   1.707   2.440   9.280
 2441SOL    HW1 7775   1.671   2.511   9.227
 2441SOL    HW2 7776   1.737   2.375   9.216
 2442SOL     OW 7777   1.376   3.004   7.990
 2442SOL    HW1 7778   1.454   2.990   7.937
 2442SOL    HW2 7779   1.323   3.066   7.939
 2443SOL     OW 7780   0.546   2.042   8.341
 2443SOL    HW1 7781   0.552   2.073   8.431
 2443SOL    HW2 7782   0.548   2.122   8.288
 2444SOL     OW 7783   1.008   3.308   7.921
 2444SOL    HW1 7784   0.967   3.380   7.872
 2444SOL    HW2 7785   0.991   3.329   8.013
 2445SOL     OW 7786   0.358   3.668   8.305
 2445SOL    HW1 7787   0.434   3.610   8.315
 2445SOL    HW2 7788   0.395   3.756   8.314
 2446SOL     OW 7789   1.799   2.919   8.316
 2446SOL    HW1 7790   1.743   2.903   8.239
 2446SOL    HW2 7791   1.737   2.925   8.389
 2447SOL     OW 7792   1.228   3.399   8.959
 2447SOL    HW1 7793   1.213   3.327   9.020
 2447SOL    HW2 7794   1.163   3.385   8.890
 2448SOL     OW 7795   0.311   2.817   7.690
 2448SOL    HW1 7796   0.395   2.840   7.652
 2448SOL    HW2 7797   0.296   2.727   7.663
 2449SOL     OW 7798   1.480   2.599   8.172
 2449SOL    HW1 7799   1.467   2.558   8.258
 2449SOL    HW2 7800   1.555   2.658   8.185
 2450SOL     OW 7801   0.465   3.121   9.185
 2450SOL    HW1 7802   0.438   3.130   9.093
 2450SOL    HW2 7803   0.383   3.127   9.234
 2451SOL     OW 7804   1.113   3.642   7.672
 2451SOL    HW1 7805   1.051   3.594   7.727
 2451SOL    HW2 7806   1.142   3.578   7.607
 2452SOL     OW 7807   0.204   2.143   8.955
 2452SOL    HW1 7808   0.114   2.174   8.944
 2452SOL    HW2 7809   0.195   2.060   9.002
 2453SOL     OW 7810   1.628   3.242   7.537
 2453SOL    HW1 7811   1.588   3.327   7.519
 2453SOL    HW2 7812   1.559   3.178   7.517
 2454SOL     OW 7813   0.469   3.599   7.769
 2454SOL    HW1 7814   0.506   3.663   7.830
 2454SOL    HW2 7815   0.543   3.573   7.714
 2455SOL     OW 7816   1.393   1.974   7.872
 2455SOL    HW1 7817   1.388   1.988   7.778
 2455SOL    HW2 7818   1.486   1.984   7.893
 2456SOL     OW 7819   0.251   3.656   8.678
 2456SOL    HW1 7820   0.298   3.592   8.732
 2456SOL    HW2 7821   0.247   3.616   8.591
 2457SOL     OW 7822   0.937   3.560   8.350
 2457SOL    HW1 7823   1.015   3.508   8.369
 2457SOL    HW2 7824   0.892   3.512   8.281
 2458SOL     OW 7825   0.395   2.556   7.921
 2458SOL    HW1 7826   0.423   2.465   7.934
 2458SOL    HW2 7827   0.303   2.557   7.948
 2459SOL     OW 7828   1.538   2.086   9.173
 2459SOL    HW1 7829   1.550   2.108   9.265
 2459SOL    HW2 7830   1.468   2.021   9.172
 2460SOL     OW 7831   0.631   1.982   7.550
 2460SOL    HW1 7832   0.703   1.922   7.564
 2460SOL    HW2 7833   0.587   1.950   7.472
 2461SOL     OW 7834   0.767   2.139   9.201
 2461SOL    HW1 7835   0.842   2.079   9.204
 2461SOL    HW2 7836   0.718   2.121   9.281
 2462SOL     OW 7837   0.876   3.382   8.642
 2462SOL    HW1 7838   0.861   3.347   8.554
 2462SOL    HW2 7839   0.946   3.328   8.678
 2463SOL     OW 7840   1.342   2.450   8.880
 2463SOL    HW1 7841   1.372   2.419   8.965
 2463SOL    HW2 7842   1.377   2.539   8.873
 2464SOL     OW 7843   0.814   3.258   8.385
 2464SOL    HW1 7844   0.899   3.247   8.342
 2464SOL    HW2 7845   0.750   3.257   8.314
 2465SOL     OW 7846   0.927   2.371   8.351
 2465SOL    HW1 7847   0.904   2.363   8.259
 2465SOL    HW2 7848   0.960   2.285   8.376
 2466SOL     OW 7849   0.552   1.924   7.947
 2466SOL    HW1 7850   0.470   1.929   7.996
 2466SOL    HW2 7851   0.557   2.006   7.899
 2467SOL     OW 7852   1.428   3.060   7.489
 2467SOL    HW1 7853   1.458   2.984   7.540
 2467SOL    HW2 7854   1.342   3.080   7.525
 2468SOL     OW 7855   0.305   1.912   7.618
 2468SOL    HW1 7856   0.371   1.953   7.562
 2468SOL    HW2 7857   0.354   1.847   7.668
 2469SOL     OW 7858   0.938   2.107   7.911
 2469SOL    HW1 7859   0.906   2.149   7.831
 2469SOL    HW2 7860   1.032   2.123   7.911
 2470SOL     OW 7861   1.080   2.542   8.908
 2470SOL    HW1 7862   1.011   2.476   8.913
 2470SOL    HW2 7863   1.161   2.491   8.901
 2471SOL     OW 7864   1.224   3.431   8.241
 2471SOL    HW1 7865   1.241   3.500   8.176
 2471SOL    HW2 7866   1.292   3.444   8.308
 2472SOL     OW 7867   0.466   3.011   8.187
 2472SOL    HW1 7868   0.393   2.989   8.244
 2472SOL    HW2 7869   0.433   2.995   8.098
 2473SOL     OW 7870   1.269   3.658   8.053
 2473SOL    HW1 7871   1.314   3.722   7.998
 2473SOL    HW2 7872   1.200   3.708   8.096
 2474SOL     OW 7873   1.029   2.406   7.466
 2474SOL    HW1 7874   0.987   2.492   7.455
 2474SOL    HW2 7875   1.085   2.417   7.543
 2475SOL     OW 7876   0.080   2.432   8.838
 2475SOL    HW1 7877   0.169   2.419   8.807
 2475SOL    HW2 7878   0.087   2.501   8.904
 2476SOL     OW 7879   0.567   2.089   8.611
 2476SOL    HW1 7880   0.606   2.011   8.650
 2476SOL    HW2 7881   0.476   2.087   8.641
 2477SOL     OW 7882   0.868   2.321   8.088
 2477SOL    HW1 7883   0.821   2.374   8.024
 2477SOL    HW2 7884   0.889   2.240   8.041
 2478SOL     OW 7885   1.016   1.914   8.201
 2478SOL    HW1 7886   0.958   1.909   8.124
 2478SOL    HW2 7887   0.992   1.838   8.254
 2479SOL     OW 7888   1.436   3.025   8.305
 2479SOL    HW1 7889   1.368   2.958   8.304
 2479SOL    HW2 7890   1.459   3.037   8.213
 2480SOL     OW 7891   1.466   2.467   8.426
 2480SOL    HW1 7892   1.417   2.385   8.429
 2480SOL    HW2 7893   1.526   2.461   8.501
 2481SOL     OW 7894   1.838   2.673   7.828
 2481SOL    HW1 7895   1.899   2.622   7.882
 2481SOL    HW2 7896   1.841   2.629   7.743
 2482SOL     OW 7897   0.490   3.277   7.609
 2482SOL    HW1 7898   0.414   3.246   7.660
 2482SOL    HW2 7899   0.467   3.257   7.519
 2483SOL     OW 7900   1.670   3.127   8.095
 2483SOL    HW1 7901   1.764   3.131   8.108
 2483SOL    HW2 7902   1.639   3.215   8.116
 2484SOL     OW 7903   0.572   2.131   7.772
 2484SOL    HW1 7904   0.597   2.080   7.694
 2484SOL    HW2 7905   0.540   2.214   7.737
 2485SOL     OW 7906   1.753   3.100   9.023
 2485SOL    HW1 7907   1.840   3.061   9.020
 2485SOL    HW2 7908   1.768   3.190   9.051
 2486SOL     OW 7909   1.059   3.215   8.782
 2486SOL    HW1 7910   0.984   3.184   8.833
 2486SOL    HW2 7911   1.135   3.174   8.823
 2487SOL     OW 7912   1.608   3.487   9.101
 2487SOL    HW1 7913   1.602   3.521   9.012
 2487SOL    HW2 7914   1.691   3.441   9.104
 2488SOL     OW 7915   1.128   3.065   8.554
 2488SOL    HW1 7916   1.069   3.102   8.619
 2488SOL    HW2 7917   1.094   3.096   8.470
 2489SOL     OW 7918   1.629   2.961   8.526
 2489SOL    HW1 7919   1.625   3.023   8.599
 2489SOL    HW2 7920   1.550   2.977   8.476
 2490SOL     OW 7921   0.918   1.959   8.846
 2490SOL    HW1 7922   0.941   1.940   8.754
 2490SOL    HW2 7923   0.997   1.999   8.882
 2491SOL     OW 7924   0.984   2.976   9.170
 2491SOL    HW1 7925   0.892   2.992   9.190
 2491SOL    HW2 7926   0.983   2.899   9.114
 2492SOL     OW 7927   0.707   2.922   7.819
 2492SOL    HW1 7928   0.694   2.907   7.913
 2492SOL    HW2 7929   0.784   2.869   7.797
 2493SOL     OW 7930   0.420   2.677   8.700
 2493SOL    HW1 7931   0.489   2.685   8.766
 2493SOL    HW2 7932   0.385   2.588   8.712
 2494SOL     OW 7933   1.266   2.239   8.723
 2494SOL    HW1 7934   1.299   2.316   8.768
 2494SOL    HW2 7935   1.176   2.261   8.698
 2495SOL     OW 7936   0.064   3.441   8.793
 2495SOL    HW1 7937   0.066   3.509   8.725
 2495SOL    HW2 7938   0.156   3.428   8.817
 2496SOL     OW 7939   0.375   2.964   7.934
 2496SOL    HW1 7940   0.368   3.042   7.879
 2496SOL    HW2 7941   0.373   2.891   7.872
 2497SOL     OW 7942   0.553   2.400   8.310
 2497SOL    HW1 7943   0.569   2.456   8.234
 2497SOL    HW2 7944   0.619   2.428   8.374
 2498SOL     OW 7945   1.248   3.210   7.837
 2498SOL    HW1 7946   1.304   3.282   7.868
 2498SOL    HW2 7947   1.161   3.231   7.871
 2499SOL     OW 7948   1.279   3.319   8.594
 2499SOL    HW1 7949   1.335   3.322   8.672
 2499SOL    HW2 7950   1.224   3.242   8.607
 2500SOL     OW 7951   1.569   2.504   7.900
 2500SOL    HW1 7952   1.531   2.538   7.981
 2500SOL    HW2 7953   1.636   2.567   7.876
 2501SOL     OW 7954   0.346   3.387   8.768
 2501SOL    HW1 7955   0.336   3.337   8.686
 2501SOL    HW2 7956   0.440   3.403   8.775
 2502SOL     OW 7957   0.412   2.603   9.049
 2502SOL    HW1 7958   0.474   2.649   8.992
 2502SOL    HW2 7959   0.454   2.518   9.065
 2503SOL     OW 7960   1.600   2.640   9.128
 2503SOL    HW1 7961   1.514   2.682   9.121
 2503SOL    HW2 7962   1.652   2.682   9.060
 2504SOL     OW 7963   0.996   1.983   9.204
 2504SOL    HW1 7964   1.050   2.056   9.174
 2504SOL    HW2 7965   1.045   1.905   9.178
 2505SOL     OW 7966   0.498   1.901   9.192
 2505SOL    HW1 7967   0.455   1.847   9.126
 2505SOL    HW2 7968   0.441   1.977   9.202
 2506SOL     OW 7969   0.584   2.735   8.479
 2506SOL    HW1 7970   0.615   2.825   8.477
 2506SOL    HW2 7971   0.528   2.730   8.557
 2507SOL     OW 7972   1.359   2.721   8.479
 2507SOL    HW1 7973   1.276   2.713   8.431
 2507SOL    HW2 7974   1.398   2.634   8.474
 2508SOL     OW 7975   1.169   2.393   7.703
 2508SOL    HW1 7976   1.208   2.320   7.751
 2508SOL    HW2 7977   1.144   2.456   7.771
 2509SOL     OW 7978   0.312   2.061   8.695
 2509SOL    HW1 7979   0.265   2.098   8.770
 2509SOL    HW2 7980   0.287   1.969   8.695
 2510SOL     OW 7981   0.056   3.166   8.728
 2510SOL    HW1 7982   0.090   3.128   8.809
 2510SOL    HW2 7983   0.050   3.260   8.747
 2511SOL     OW 7984   0.726   2.494   8.507
 2511SOL    HW1 7985   0.799   2.476   8.448
 2511SOL    HW2 7986   0.698   2.583   8.485
 2512SOL     OW 7987   1.734   2.822   9.299
 2512SOL    HW1 7988   1.688   2.760   9.242
 2512SOL    HW2 7989   1.674   2.834   9.373
 2513SOL     OW 7990   0.311   1.926   8.069
 2513SOL    HW1 7991   0.292   2.017   8.091
 2513SOL    HW2 7992   0.315   1.881   8.154
 2514SOL     OW 7993   1.027   2.621   8.409
 2514SOL    HW1 7994   1.025   2.639   8.504
 2514SOL    HW2 7995   1.001   2.530   8.402
 2515SOL     OW 7996   0.985   3.429   9.165
 2515SOL    HW1 7997   0.967   3.472   9.081
 2515SOL    HW2 7998   1.026   3.346   9.141
 2516SOL     OW 7999   1.855   3.369   9.053
 2516SOL    HW1 8000   1.873   3.396   8.963
 2516SOL    HW2 8001   1.936   3.389   9.100
 2517SOL     OW 8002   0.351   2.782   9.250
 2517SOL    HW1 8003   0.431   2.802   9.299
 2517SOL    HW2 8004   0.379   2.716   9.186
 2518SOL     OW 8005   1.293   2.688   7.478
 2518SOL    HW1 8006   1.347   2.609   7.480
 2518SOL    HW2 8007   1.316   2.731   7.396
 2519SOL     OW 8008   1.065   3.198   8.301
 2519SOL    HW1 8009   1.068   3.125   8.239
 2519SOL    HW2 8010   1.127   3.261   8.266
 2520SOL     OW 8011   0.314   2.668   8.399
 2520SOL    HW1 8012   0.408   2.686   8.392
 2520SOL    HW2 8013   0.309   2.578   8.432
 2521SOL     OW 8014   0.332   2.381   8.461
 2521SOL    HW1 8015   0.298   2.293   8.443
 2521SOL    HW2 8016   0.408   2.389   8.404
 2522SOL     OW 8017   1.134   2.239   9.129
 2522SOL    HW1 8018   1.088   2.294   9.192
 2522SOL    HW2 8019   1.222   2.276   9.125
 2523SOL     OW 8020   1.160   2.065   8.918
 2523SOL    HW1 8021   1.150   2.128   8.990
 2523SOL    HW2 8022   1.199   2.116   8.847
 2524SOL     OW 8023   3.999   3.183   7.630
 2524SOL    HW1 8024   3.905   3.198   7.634
 2524SOL    HW2 8025   0.009   3.090   7.650
 2525SOL     OW 8026   0.075   3.663   8.342
 2525SOL    HW1 8027   0.085   3.568   8.346
 2525SOL    HW2 8028   0.165   3.696   8.338
 2526SOL     OW 8029   0.507   3.428   8.361
 2526SOL    HW1 8030   0.574   3.493   8.383
 2526SOL    HW2 8031   0.551   3.367   8.302
 2527SOL     OW 8032   0.985   2.655   8.675
 2527SOL    HW1 8033   1.039   2.631   8.750
 2527SOL    HW2 8034   0.899   2.618   8.695
 2528SOL     OW 8035   0.037   2.415   8.558
 2528SOL    HW1 8036   0.119   2.390   8.516
 2528SOL    HW2 8037   0.057   2.413   8.652
 2529SOL     OW 8038   0.206   2.376   9.174
 2529SOL    HW1 8039   0.249   2.333   9.101
 2529SOL    HW2 8040   0.155   2.446   9.135
 2530SOL     OW 8041   1.376   2.802   9.107
 2530SOL    HW1 8042   1.398   2.895   9.105
 2530SOL    HW2 8043   1.374   2.777   9.014
 2531SOL     OW 8044   0.817   2.431   7.806
 2531SOL    HW1 8045   0.821   2.355   7.748
 2531SOL    HW2 8046   0.743   2.482   7.774
 2532SOL     OW 8047   1.644   2.464   8.634
 2532SOL    HW1 8048   1.632   2.408   8.711
 2532SOL    HW2 8049   1.730   2.440   8.600
 2533SOL     OW 8050   0.296   3.409   9.180
 2533SOL    HW1 8051   0.246   3.479   9.222
 2533SOL    HW2 8052   0.261   3.329   9.217
 2534SOL     OW 8053   0.698   2.314   8.709
 2534SOL    HW1 8054   0.649   2.239   8.677
 2534SOL    HW2 8055   0.696   2.377   8.637
 2535SOL     OW 8056   0.931   3.536   8.915
 2535SOL    HW1 8057   0.903   3.502   8.830
 2535SOL    HW2 8058   0.924   3.631   8.906
 2536SOL     OW 8059   0.460   2.353   7.641
 2536SOL    HW1 8060   0.525   2.421   7.659
 2536SOL    HW2 8061   0.379   2.401   7.622
 2537SOL     OW 8062   0.157   2.998   8.921
 2537SOL    HW1 8063   0.161   2.947   9.001
 2537SOL    HW2 8064   0.172   2.935   8.851
 2538SOL     OW 8065   1.327   2.910   8.672
 2538SOL    HW1 8066   1.351   2.846   8.604
 2538SOL    HW2 8067   1.256   2.961   8.633
 2539SOL     OW 8068   1.307   2.721   7.755
 2539SOL    HW1 8069   1.234   2.687   7.806
 2539SOL    HW2 8070   1.283   2.703   7.664
 2540SOL     OW 8071   1.768   3.607   8.596
 2540SOL    HW1 8072   1.830   3.634   8.528
 2540SOL    HW2 8073   1.747   3.516   8.574
 2541SOL     OW 8074   1.243   3.596   8.561
 2541SOL    HW1 8075   1.325   3.614   8.517
 2541SOL    HW2 8076   1.247   3.502   8.581
 2542SOL     OW 8077   0.075   3.078   8.475
 2542SOL    HW1 8078   0.082   3.104   8.567
 2542SOL    HW2 8079   3.982   3.086   8.455
 2543SOL     OW 8080   0.679   3.525   9.175
 2543SOL    HW1 8081   0.623   3.603   9.178
 2543SOL    HW2 8082   0.738   3.541   9.101
 2544SOL     OW 8083   1.662   1.975   7.919
 2544SOL    HW1 8084   1.755   1.996   7.907
 2544SOL    HW2 8085   1.663   1.900   7.979
 2545SOL     OW 8086   1.390   3.431   7.932
 2545SOL    HW1 8087   1.450   3.463   7.865
 2545SOL    HW2 8088   1.343   3.509   7.961
 2546SOL     OW 8089   0.167   3.628   9.278
 2546SOL    HW1 8090   0.110   3.577   9.336
 2546SOL    HW2 8091   0.214   3.687   9.337
 2547SOL     OW 8092   1.279   2.786   8.120
 2547SOL    HW1 8093   1.352   2.725   8.122
 2547SOL    HW2 8094   1.311   2.860   8.067
 2548SOL     OW 8095   0.816   3.135   8.879
 2548SOL    HW1 8096   0.788   3.174   8.962
 2548SOL    HW2 8097   0.745   3.155   8.818
 2549SOL     OW 8098   0.675   3.476   7.605
 2549SOL    HW1 8099   0.681   3.492   7.510
 2549SOL    HW2 8100   0.618   3.399   7.612
 2550SOL     OW 8101   1.628   3.588   8.839
 2550SOL    HW1 8102   1.677   3.594   8.757
 2550SOL    HW2 8103   1.615   3.678   8.866
 2551SOL     OW 8104   0.268   2.177   8.166
 2551SOL    HW1 8105   0.183   2.212   8.139
 2551SOL    HW2 8106   0.262   2.166   8.261
 2552SOL     OW 8107   1.206   3.469   7.483
 2552SOL    HW1 8108   1.197   3.377   7.507
 2552SOL    HW2 8109   1.145   3.481   7.410
 2553SOL     OW 8110   0.824   2.868   8.820
 2553SOL    HW1 8111   0.868   2.864   8.735
 2553SOL    HW2 8112   0.824   2.960   8.843
 2554SOL     OW 8113   0.915   2.773   7.737
 2554SOL    HW1 8114   0.977   2.804   7.671
 2554SOL    HW2 8115   0.962   2.704   7.784
 2555SOL     OW 8116   1.492   3.488   7.490
 2555SOL    HW1 8117   1.397   3.480   7.475
 2555SOL    HW2 8118   1.529   3.494   7.402
 2556SOL     OW 8119   0.373   3.164   8.939
 2556SOL    HW1 8120   0.359   3.244   8.889
 2556SOL    HW2 8121   0.296   3.111   8.922
 2557SOL     OW 8122   1.611   3.145   8.729
 2557SOL    HW1 8123   1.671   3.135   8.803
 2557SOL    HW2 8124   1.551   3.214   8.755
 2558SOL     OW 8125   1.051   2.968   8.154
 2558SOL    HW1 8126   0.980   2.917   8.193
 2558SOL    HW2 8127   1.112   2.903   8.121
 2559SOL     OW 8128   1.021   2.102   8.414
 2559SOL    HW1 8129   1.017   2.054   8.331
 2559SOL    HW2 8130   1.015   2.034   8.481
 2560SOL     OW 8131   0.603   3.352   7.929
 2560SOL    HW1 8132   0.646   3.301   7.860
 2560SOL    HW2 8133   0.535   3.402   7.884
 2561SOL     OW 8134   1.723   2.250   8.823
 2561SOL    HW1 8135   1.795   2.313   8.830
 2561SOL    HW2 8136   1.757   2.182   8.765
 2562SOL     OW 8137   0.252   3.204   7.738
 2562SOL    HW1 8138   0.160   3.215   7.718
 2562SOL    HW2 8139   0.262   3.242   7.826
 2563SOL     OW 8140   0.105   2.862   9.166
 2563SOL    HW1 8141   0.044   2.851   9.239
 2563SOL    HW2 8142   0.191   2.842   9.204
 2564SOL     OW 8143   0.674   2.058   8.947
 2564SOL    HW1 8144   0.757   2.039   8.905
 2564SOL    HW2 8145   0.697   2.089   9.035
 2565SOL     OW 8146   0.080   2.182   7.485
 2565SOL    HW1 8147   3.984   2.181   7.490
 2565SOL    HW2 8148   0.101   2.262   7.437
 2566SOL     OW 8149   1.431   2.720   8.849
 2566SOL    HW1 8150   1.382   2.781   8.793
 2566SOL    HW2 8151   1.520   2.723   8.816
 2567SOL     OW 8152   0.024   2.084   7.817
 2567SOL    HW1 8153   0.046   2.150   7.752
 2567SOL    HW2 8154   0.109   2.049   7.844
 2568SOL     OW 8155   1.179   3.202   7.565
 2568SOL    HW1 8156   1.088   3.172   7.567
 2568SOL    HW2 8157   1.207   3.201   7.656
 2569SOL     OW 8158   0.618   2.693   8.883
 2569SOL    HW1 8159   0.674   2.769   8.867
 2569SOL    HW2 8160   0.680   2.619   8.891
 2570SOL     OW 8161   1.485   3.639   8.426
 2570SOL    HW1 8162   1.511   3.694   8.352
 2570SOL    HW2 8163   1.568   3.619   8.471
 2571SOL     OW 8164   0.716   2.427   9.154
 2571SOL    HW1 8165   0.757   2.490   9.213
 2571SOL    HW2 8166   0.748   2.342   9.184
 2572SOL     OW 8167   1.471   3.063   9.080
 2572SOL    HW1 8168   1.459   3.077   9.174
 2572SOL    HW2 8169   1.564   3.077   9.066
 2573SOL     OW 8170   0.380   3.604   9.007
 2573SOL    HW1 8171   0.292   3.640   8.993
 2573SOL    HW2 8172   0.365   3.523   9.055
 2574SOL     OW 8173   1.671   2.744   8.703
 2574SOL    HW1 8174   1.663   2.658   8.660
 2574SOL    HW2 8175   1.661   2.807   8.632
 2575SOL     OW 8176   1.215   2.184   7.907
 2575SOL    HW1 8177   1.277   2.112   7.900
 2575SOL    HW2 8178   1.245   2.234   7.983
 2576SOL     OW 8179   0.590   2.602   8.118
 2576SOL    HW1 8180   0.629   2.687   8.101
 2576SOL    HW2 8181   0.522   2.593   8.051
 2577SOL     OW 8182   1.758   2.241   9.097
 2577SOL    HW1 8183   1.741   2.243   9.003
 2577SOL    HW2 8184   1.697   2.175   9.131
 2578SOL     OW 8185   1.743   2.797   8.960
 2578SOL    HW1 8186   1.743   2.892   8.973
 2578SOL    HW2 8187   1.729   2.785   8.866
 2579SOL     OW 8188   0.864   3.230   7.482
 2579SOL    HW1 8189   0.822   3.258   7.563
 2579SOL    HW2 8190   0.880   3.312   7.434
 2580SOL     OW 8191   0.658   3.653   8.389
 2580SOL    HW1 8192   0.635   3.744   8.368
 2580SOL    HW2 8193   0.754   3.651   8.385
 2581SOL     OW 8194   0.867   2.828   8.303
 2581SOL    HW1 8195   0.917   2.757   8.343
 2581SOL    HW2 8196   0.833   2.878   8.377
 2582SOL     OW 8197   1.079   2.851   7.536
 2582SOL    HW1 8198   1.058   2.901   7.457
 2582SOL    HW2 8199   1.154   2.796   7.511
 2583SOL     OW 8200   1.855   3.415   8.291
 2583SOL    HW1 8201   1.776   3.404   8.238
 2583SOL    HW2 8202   1.846   3.350   8.361
 2584SOL     OW 8203   0.223   3.166   9.303
 2584SOL    HW1 8204   0.152   3.107   9.278
 2584SOL    HW2 8205   0.211   3.179   9.397
 2585SOL     OW 8206   0.110   3.135   8.164
 2585SOL    HW1 8207   0.121   3.084   8.245
 2585SOL    HW2 8208   0.111   3.070   8.094
 2586SOL     OW 8209   0.681   3.263   9.076
 2586SOL    HW1 8210   0.600   3.221   9.105
 2586SOL    HW2 8211   0.676   3.352   9.112
 2587SOL     OW 8212   0.441   2.296   7.980
 2587SOL    HW1 8213   0.445   2.227   7.915
 2587SOL    HW2 8214   0.386   2.261   8.050
 2588SOL     OW 8215   1.701   3.351   8.544
 2588SOL    HW1 8216   1.619   3.327   8.501
 2588SOL    HW2 8217   1.714   3.283   8.611
 2589SOL     OW 8218   0.331   2.416   8.739
 2589SOL    HW1 8219   0.387   2.360   8.793
 2589SOL    HW2 8220   0.348   2.387   8.649
 2590SOL     OW 8221   0.826   3.441   8.126
 2590SOL    HW1 8222   0.817   3.487   8.043
 2590SOL    HW2 8223   0.749   3.383   8.129
 2591SOL     OW 8224   1.437   2.089   8.568
 2591SOL    HW1 8225   1.452   2.004   8.610
 2591SOL    HW2 8226   1.381   2.136   8.630
 2592SOL     OW 8227   1.009   1.881   8.592
 2592SOL    HW1 8228   0.955   1.813   8.551
 2592SOL    HW2 8229   1.097   1.843   8.593
 2593SOL     OW 8230   0.771   3.194   7.762
 2593SOL    HW1 8231   0.739   3.104   7.767
 2593SOL    HW2 8232   0.854   3.192   7.809
 2594SOL     OW 8233   0.620   3.418   8.732
 2594SOL    HW1 8234   0.622   3.499   8.783
 2594SOL    HW2 8235   0.707   3.411   8.694
 2595SOL     OW 8236   1.298   2.324   8.131
 2595SOL    HW1 8237   1.243   2.401   8.138
 2595SOL    HW2 8238   1.294   2.283   8.217
 2596SOL     OW 8239   1.574   2.056   8.318
 2596SOL    HW1 8240   1.532   2.082   8.400
 2596SOL    HW2 8241   1.592   2.138   8.273
 2597SOL     OW 8242   0.045   2.914   7.688
 2597SOL    HW1 8243   0.139   2.898   7.679
 2597SOL    HW2 8244   0.010   2.834   7.726
 2598SOL     OW 8245   0.883   3.516   7.793
 2598SOL    HW1 8246   0.813   3.496   7.731
 2598SOL    HW2 8247   0.852   3.593   7.841
 2599SOL     OW 8248   0.231   2.483   9.431
 2599SOL    HW1 8249   0.138   2.493   9.451
 2599SOL    HW2 8250   0.233   2.455   9.340
 2600SOL     OW 8251   0.228   2.133  10.297
 2600SOL    HW1 8252   0.249   2.102  10.385
 2600SOL    HW2 8253   0.133   2.123  10.290
 2601SOL     OW 8254   0.012   2.225   9.943
 2601SOL    HW1 8255   3.926   2.243   9.980
 2601SOL    HW2 8256   3.994   2.188   9.857
 2602SOL     OW 8257   0.576   3.144  10.492
 2602SOL    HW1 8258   0.489   3.149  10.452
 2602SOL    HW2 8259   0.592   3.232  10.526
 2603SOL     OW 8260   1.559   3.373  10.017
 2603SOL    HW1 8261   1.516   3.353  10.100
 2603SOL    HW2 8262   1.487   3.377   9.953
 2604SOL     OW 8263   1.130   2.560  10.012
 2604SOL    HW1 8264   1.180   2.641   9.998
 2604SOL    HW2 8265   1.083   2.575  10.094
 2605SOL     OW 8266   1.769   2.468   9.539
 2605SOL    HW1 8267   1.747   2.462   9.447
 2605SOL    HW2 8268   1.734   2.388   9.578
 2606SOL     OW 8269   0.758   3.004  10.348
 2606SOL    HW1 8270   0.691   3.038  10.407
 2606SOL    HW2 8271   0.792   3.082  10.304
 2607SOL     OW 8272   0.864   2.639  11.131
 2607SOL    HW1 8273   0.855   2.711  11.194
 2607SOL    HW2 8274   0.888   2.682  11.049
 2608SOL     OW 8275   0.686   2.867   9.958
 2608SOL    HW1 8276   0.751   2.854  10.027
 2608SOL    HW2 8277   0.616   2.918  10.000
 2609SOL     OW 8278   0.709   3.013  11.122
 2609SOL    HW1 8279   0.757   3.091  11.147
 2609SOL    HW2 8280   0.626   3.045  11.087
 2610SOL     OW 8281   0.351   3.265  10.388
 2610SOL    HW1 8282   0.268   3.251  10.342
 2610SOL    HW2 8283   0.400   3.325  10.332
 2611SOL     OW 8284   1.461   3.361  10.662
 2611SOL    HW1 8285   1.510   3.442  10.673
 2611SOL    HW2 8286   1.401   3.359  10.737
 2612SOL     OW 8287   0.450   2.263  10.802
 2612SOL    HW1 8288   0.524   2.202  10.803
 2612SOL    HW2 8289   0.373   2.207  10.812
 2613SOL     OW 8290   1.607   2.310  10.049
 2613SOL    HW1 8291   1.528   2.334  10.002
 2613SOL    HW2 8292   1.627   2.386  10.103
 2614SOL     OW 8293   0.226   3.571   9.777
 2614SOL    HW1 8294   0.232   3.651   9.830
 2614SOL    HW2 8295   0.302   3.575   9.719
 2615SOL     OW 8296   1.136   3.203  11.002
 2615SOL    HW1 8297   1.176   3.198  11.089
 2615SOL    HW2 8298   1.084   3.123  10.996
 2616SOL     OW 8299   0.245   3.305   9.849
 2616SOL    HW1 8300   0.219   3.396   9.837
 2616SOL    HW2 8301   0.176   3.267   9.903
 2617SOL     OW 8302   0.246   2.932  10.194
 2617SOL    HW1 8303   0.264   2.848  10.237
 2617SOL    HW2 8304   0.194   2.981  10.258
 2618SOL     OW 8305   0.614   3.649  10.740
 2618SOL    HW1 8306   0.531   3.634  10.786
 2618SOL    HW2 8307   0.639   3.738  10.764
 2619SOL     OW 8308   0.583   2.845   9.445
 2619SOL    HW1 8309   0.628   2.893   9.376
 2619SOL    HW2 8310   0.625   2.874   9.526
 2620SOL     OW 8311   1.590   1.988  10.776
 2620SOL    HW1 8312   1.580   2.071  10.729
 2620SOL    HW2 8313   1.584   2.011  10.868
 2621SOL     OW 8314   0.140   2.509   9.884
 2621SOL    HW1 8315   0.085   2.431   9.884
 2621SOL    HW2 8316   0.104   2.565   9.953
 2622SOL     OW 8317   1.841   3.615   9.648
 2622SOL    HW1 8318   1.906   3.590   9.714
 2622SOL    HW2 8319   1.865   3.705   9.625
 2623SOL     OW 8320   0.041   3.455   9.450
 2623SOL    HW1 8321   0.031   3.362   9.472
 2623SOL    HW2 8322   3.963   3.497   9.487
 2624SOL     OW 8323   1.689   2.781   9.949
 2624SOL    HW1 8324   1.773   2.739   9.929
 2624SOL    HW2 8325   1.668   2.831   9.871
 2625SOL     OW 8326   1.645   2.969   9.740
 2625SOL    HW1 8327   1.731   2.976   9.697
 2625SOL    HW2 8328   1.651   3.030   9.813
 2626SOL     OW 8329   0.133   2.613  10.901
 2626SOL    HW1 8330   0.229   2.607  10.905
 2626SOL    HW2 8331   0.114   2.705  10.918
 2627SOL     OW 8332   0.613   3.246  10.044
 2627SOL    HW1 8333   0.567   3.163  10.054
 2627SOL    HW2 8334   0.596   3.272   9.954
 2628SOL     OW 8335   1.289   3.100  10.734
 2628SOL    HW1 8336   1.322   3.033  10.674
 2628SOL    HW2 8337   1.346   3.094  10.810
 2629SOL     OW 8338   0.815   1.861   9.818
 2629SOL    HW1 8339   0.855   1.946   9.800
 2629SOL    HW2 8340   0.722   1.879   9.826
 2630SOL     OW 8341   0.186   2.816  10.586
 2630SOL    HW1 8342   0.274   2.781  10.571
 2630SOL    HW2 8343   0.131   2.772  10.521
 2631SOL     OW 8344   1.532   2.855   9.508
 2631SOL    HW1 8345   1.462   2.797   9.539
 2631SOL    HW2 8346   1.572   2.889   9.587
 2632SOL     OW 8347   1.209   3.664  10.935
 2632SOL    HW1 8348   1.195   3.723  10.862
 2632SOL    HW2 8349   1.212   3.577  10.895
 2633SOL     OW 8350   0.337   2.109  11.123
 2633SOL    HW1 8351   0.379   2.195  11.129
 2633SOL    HW2 8352   0.246   2.124  11.148
 2634SOL     OW 8353   1.465   3.282  10.262
 2634SOL    HW1 8354   1.398   3.296  10.328
 2634SOL    HW2 8355   1.454   3.191  10.235
 2635SOL     OW 8356   1.657   3.598   9.890
 2635SOL    HW1 8357   1.640   3.568   9.800
 2635SOL    HW2 8358   1.633   3.523   9.944
 2636SOL     OW 8359   0.596   2.582   9.573
 2636SOL    HW1 8360   0.604   2.664   9.525
 2636SOL    HW2 8361   0.533   2.600   9.643
 2637SOL     OW 8362   1.279   2.215  10.243
 2637SOL    HW1 8363   1.190   2.180  10.252
 2637SOL    HW2 8364   1.332   2.160  10.301
 2638SOL     OW 8365   1.579   3.535   9.618
 2638SOL    HW1 8366   1.670   3.563   9.613
 2638SOL    HW2 8367   1.555   3.515   9.528
 2639SOL     OW 8368   0.792   2.479  10.763
 2639SOL    HW1 8369   0.765   2.456  10.851
 2639SOL    HW2 8370   0.751   2.413  10.707
 2640SOL     OW 8371   1.394   2.335  10.987
 2640SOL    HW1 8372   1.396   2.380  11.072
 2640SOL    HW2 8373   1.458   2.265  10.996
 2641SOL     OW 8374   0.956   2.750  10.892
 2641SOL    HW1 8375   1.010   2.679  10.857
 2641SOL    HW2 8376   0.908   2.783  10.816
 2642SOL     OW 8377   0.992   2.275  10.549
 2642SOL    HW1 8378   0.907   2.297  10.587
 2642SOL    HW2 8379   0.971   2.228  10.468
 2643SOL     OW 8380   1.051   2.560   9.736
 2643SOL    HW1 8381   1.065   2.553   9.831
 2643SOL    HW2 8382   0.969   2.513   9.721
 2644SOL     OW 8383   0.082   2.686  10.100
 2644SOL    HW1 8384   0.162   2.658  10.146
 2644SOL    HW2 8385   0.091   2.781  10.092
 2645SOL     OW 8386   0.128   3.711  10.884
 2645SOL    HW1 8387   0.134   3.681  10.974
 2645SOL    HW2 8388   0.035   3.700  10.861
 2646SOL     OW 8389   0.891   2.210   9.503
 2646SOL    HW1 8390   0.933   2.271   9.442
 2646SOL    HW2 8391   0.910   2.124   9.466
 2647SOL     OW 8392   1.708   2.440  11.142
 2647SOL    HW1 8393   1.671   2.511  11.088
 2647SOL    HW2 8394   1.737   2.375  11.078
 2648SOL     OW 8395   1.376   3.004   9.852
 2648SOL    HW1 8396   1.455   2.991   9.799
 2648SOL    HW2 8397   1.324   3.066   9.801
 2649SOL     OW 8398   0.546   2.042  10.202
 2649SOL    HW1 8399   0.552   2.073  10.293
 2649SOL    HW2 8400   0.548   2.123  10.150
 2650SOL     OW 8401   1.007   3.308   9.783
 2650SOL    HW1 8402   0.967   3.380   9.734
 2650SOL    HW2 8403   0.991   3.329   9.875
 2651SOL     OW 8404   0.358   3.668  10.167
 2651SOL    HW1 8405   0.434   3.610  10.177
 2651SOL    HW2 8406   0.395   3.756  10.176
 2652SOL     OW 8407   1.799   2.919  10.177
 2652SOL    HW1 8408   1.743   2.903  10.101
 2652SOL    HW2 8409   1.737   2.925  10.251
 2653SOL     OW 8410   1.228   3.399  10.821
 2653SOL    HW1 8411   1.213   3.327  10.882
 2653SOL    HW2 8412   1.163   3.386  10.752
 2654SOL     OW 8413   0.311   2.817   9.552
 2654SOL    HW1 8414   0.395   2.841   9.514
 2654SOL    HW2 8415   0.296   2.727   9.525
 2655SOL     OW 8416   1.478   2.602  10.037
 2655SOL    HW1 8417   1.468   2.559  10.122
 2655SOL    HW2 8418   1.555   2.658  10.047
 2656SOL     OW 8419   0.465   3.121  11.047
 2656SOL    HW1 8420   0.438   3.130  10.955
 2656SOL    HW2 8421   0.383   3.127  11.096
 2657SOL     OW 8422   1.113   3.642   9.534
 2657SOL    HW1 8423   1.051   3.594   9.589
 2657SOL    HW2 8424   1.142   3.578   9.469
 2658SOL     OW 8425   0.204   2.143  10.817
 2658SOL    HW1 8426   0.114   2.174  10.806
 2658SOL    HW2 8427   0.195   2.060  10.864
 2659SOL     OW 8428   1.628   3.242   9.399
 2659SOL    HW1 8429   1.588   3.327   9.381
 2659SOL    HW2 8430   1.559   3.178   9.379
 2660SOL     OW 8431   0.469   3.599   9.631
 2660SOL    HW1 8432   0.506   3.663   9.692
 2660SOL    HW2 8433   0.543   3.574   9.576
 2661SOL     OW 8434   1.398   1.970   9.739
 2661SOL    HW1 8435   1.382   1.946   9.648
 2661SOL    HW2 8436   1.492   1.956   9.751
 2662SOL     OW 8437   0.251   3.656  10.540
 2662SOL    HW1 8438   0.298   3.592  10.594
 2662SOL    HW2 8439   0.247   3.616  10.453
 2663SOL     OW 8440   0.937   3.560  10.212
 2663SOL    HW1 8441   1.015   3.508  10.231
 2663SOL    HW2 8442   0.892   3.512  10.143
 2664SOL     OW 8443   0.395   2.556   9.783
 2664SOL    HW1 8444   0.423   2.465   9.796
 2664SOL    HW2 8445   0.303   2.557   9.810
 2665SOL     OW 8446   1.538   2.086  11.035
 2665SOL    HW1 8447   1.550   2.108  11.127
 2665SOL    HW2 8448   1.468   2.021  11.034
 2666SOL     OW 8449   0.632   1.983   9.411
 2666SOL    HW1 8450   0.703   1.921   9.426
 2666SOL    HW2 8451   0.587   1.950   9.334
 2667SOL     OW 8452   0.767   2.139  11.063
 2667SOL    HW1 8453   0.842   2.079  11.066
 2667SOL    HW2 8454   0.718   2.121  11.144
 2668SOL     OW 8455   0.876   3.382  10.504
 2668SOL    HW1 8456   0.861   3.347  10.416
 2668SOL    HW2 8457   0.946   3.328  10.540
 2669SOL     OW 8458   1.341   2.450  10.742
 2669SOL    HW1 8459   1.372   2.419  10.827
 2669SOL    HW2 8460   1.377   2.539  10.735
 2670SOL     OW 8461   0.814   3.258  10.247
 2670SOL    HW1 8462   0.899   3.247  10.204
 2670SOL    HW2 8463   0.750   3.257  10.176
 2671SOL     OW 8464   0.927   2.371  10.213
 2671SOL    HW1 8465   0.905   2.363  10.121
 2671SOL    HW2 8466   0.960   2.285  10.238
 2672SOL     OW 8467   0.552   1.924   9.809
 2672SOL    HW1 8468   0.470   1.929   9.858
 2672SOL    HW2 8469   0.557   2.007   9.761
 2673SOL     OW 8470   1.428   3.060   9.351
 2673SOL    HW1 8471   1.459   2.984   9.401
 2673SOL    HW2 8472   1.342   3.080   9.388
 2674SOL     OW 8473   0.305   1.912   9.480
 2674SOL    HW1 8474   0.371   1.953   9.424
 2674SOL    HW2 8475   0.354   1.847   9.530
 2675SOL     OW 8476   0.937   2.106   9.773
 2675SOL    HW1 8477   0.906   2.149   9.692
 2675SOL    HW2 8478   1.032   2.122   9.773
 2676SOL     OW 8479   1.080   2.542  10.770
 2676SOL    HW1 8480   1.011   2.476  10.775
 2676SOL    HW2 8481   1.161   2.491  10.763
 2677SOL     OW 8482   1.224   3.431  10.103
 2677SOL    HW1 8483   1.241   3.500  10.038
 2677SOL    HW2 8484   1.292   3.444  10.170
 2678SOL     OW 8485   0.466   3.011  10.049
 2678SOL    HW1 8486   0.393   2.989  10.106
 2678SOL    HW2 8487   0.433   2.995   9.960
 2679SOL     OW 8488   1.269   3.658   9.915
 2679SOL    HW1 8489   1.314   3.722   9.860
 2679SOL    HW2 8490   1.200   3.708   9.958
 2680SOL     OW 8491   1.024   2.405   9.331
 2680SOL    HW1 8492   0.982   2.489   9.311
 2680SOL    HW2 8493   1.090   2.427   9.398
 2681SOL     OW 8494   0.080   2.432  10.700
 2681SOL    HW1 8495   0.169   2.419  10.669
 2681SOL    HW2 8496   0.087   2.501  10.766
 2682SOL     OW 8497   0.567   2.089  10.473
 2682SOL    HW1 8498   0.606   2.011  10.513
 2682SOL    HW2 8499   0.476   2.087  10.503
 2683SOL     OW 8500   0.869   2.321   9.950
 2683SOL    HW1 8501   0.820   2.374   9.887
 2683SOL    HW2 8502   0.888   2.240   9.903
 2684SOL     OW 8503   1.015   1.915  10.063
 2684SOL    HW1 8504   0.957   1.908   9.987
 2684SOL    HW2 8505   0.993   1.839  10.117
 2685SOL     OW 8506   1.436   3.025  10.167
 2685SOL    HW1 8507   1.368   2.958  10.166
 2685SOL    HW2 8508   1.460   3.037  10.075
 2686SOL     OW 8509   1.466   2.466  10.288
 2686SOL    HW1 8510   1.416   2.384  10.292
 2686SOL    HW2 8511   1.526   2.461  10.363
 2687SOL     OW 8512   1.846   2.679   9.693
 2687SOL    HW1 8513   1.903   2.628   9.750
 2687SOL    HW2 8514   1.818   2.617   9.626
 2688SOL     OW 8515   0.490   3.277   9.472
 2688SOL    HW1 8516   0.414   3.246   9.522
 2688SOL    HW2 8517   0.467   3.257   9.381
 2689SOL     OW 8518   1.670   3.126   9.957
 2689SOL    HW1 8519   1.764   3.131   9.970
 2689SOL    HW2 8520   1.639   3.215   9.978
 2690SOL     OW 8521   1.393   2.435   9.380
 2690SOL    HW1 8522   1.335   2.414   9.453
 2690SOL    HW2 8523   1.479   2.403   9.409
 2691SOL     OW 8524   0.573   2.131   9.634
 2691SOL    HW1 8525   0.597   2.081   9.556
 2691SOL    HW2 8526   0.540   2.214   9.600
 2692SOL     OW 8527   1.753   3.100  10.885
 2692SOL    HW1 8528   1.840   3.061  10.882
 2692SOL    HW2 8529   1.768   3.190  10.913
 2693SOL     OW 8530   1.059   3.215  10.643
 2693SOL    HW1 8531   0.984   3.184  10.695
 2693SOL    HW2 8532   1.135   3.174  10.685
 2694SOL     OW 8533   1.608   3.487  10.963
 2694SOL    HW1 8534   1.602   3.521  10.874
 2694SOL    HW2 8535   1.691   3.441  10.966
 2695SOL     OW 8536   1.128   3.064  10.416
 2695SOL    HW1 8537   1.069   3.102  10.482
 2695SOL    HW2 8538   1.094   3.096  10.332
 2696SOL     OW 8539   1.629   2.961  10.388
 2696SOL    HW1 8540   1.625   3.023  10.461
 2696SOL    HW2 8541   1.550   2.977  10.338
 2697SOL     OW 8542   0.918   1.959  10.707
 2697SOL    HW1 8543   0.941   1.940  10.616
 2697SOL    HW2 8544   0.997   1.999  10.744
 2698SOL     OW 8545   0.984   2.976  11.032
 2698SOL    HW1 8546   0.892   2.992  11.053
 2698SOL    HW2 8547   0.983   2.899  10.976
 2699SOL     OW 8548   0.707   2.922   9.681
 2699SOL    HW1 8549   0.694   2.907   9.775
 2699SOL    HW2 8550   0.784   2.869   9.659
 2700SOL     OW 8551   0.420   2.676  10.562
 2700SOL    HW1 8552   0.489   2.685  10.627
 2700SOL    HW2 8553   0.385   2.588  10.574
 2701SOL     OW 8554   1.266   2.239  10.585
 2701SOL    HW1 8555   1.299   2.316  10.631
 2701SOL    HW2 8556   1.176   2.261  10.560
 2702SOL     OW 8557   0.064   3.441  10.655
 2702SOL    HW1 8558   0.066   3.509  10.587
 2702SOL    HW2 8559   0.156   3.428  10.679
 2703SOL     OW 8560   0.375   2.964   9.796
 2703SOL    HW1 8561   0.368   3.042   9.741
 2703SOL    HW2 8562   0.373   2.891   9.734
 2704SOL     OW 8563   0.553   2.400  10.172
 2704SOL    HW1 8564   0.569   2.456  10.096
 2704SOL    HW2 8565   0.618   2.428  10.236
 2705SOL     OW 8566   1.248   3.210   9.699
 2705SOL    HW1 8567   1.304   3.282   9.730
 2705SOL    HW2 8568   1.161   3.231   9.733
 2706SOL     OW 8569   1.279   3.319  10.456
 2706SOL    HW1 8570   1.335   3.322  10.534
 2706SOL    HW2 8571   1.224   3.242  10.469
 2707SOL     OW 8572   1.579   2.487   9.782
 2707SOL    HW1 8573   1.536   2.540   9.850
 2707SOL    HW2 8574   1.628   2.551   9.731
 2708SOL     OW 8575   0.346   3.387  10.630
 2708SOL    HW1 8576   0.336   3.337  10.548
 2708SOL    HW2 8577   0.440   3.403  10.637
 2709SOL     OW 8578   0.412   2.603  10.911
 2709SOL    HW1 8579   0.474   2.649  10.854
 2709SOL    HW2 8580   0.454   2.518  10.927
 2710SOL     OW 8581   1.600   2.640  10.990
 2710SOL    HW1 8582   1.514   2.682  10.983
 2710SOL    HW2 8583   1.652   2.682  10.923
 2711SOL     OW 8584   0.996   1.983  11.066
 2711SOL    HW1 8585   1.051   2.056  11.036
 2711SOL    HW2 8586   1.044   1.905  11.040
 2712SOL     OW 8587   0.498   1.901  11.054
 2712SOL    HW1 8588   0.455   1.847  10.988
 2712SOL    HW2 8589   0.441   1.977  11.064
 2713SOL     OW 8590   0.584   2.735  10.341
 2713SOL    HW1 8591   0.615   2.826  10.339
 2713SOL    HW2 8592   0.528   2.730  10.419
 2714SOL     OW 8593   1.359   2.721  10.341
 2714SOL    HW1 8594   1.276   2.712  10.293
 2714SOL    HW2 8595   1.398   2.633  10.337
 2715SOL     OW 8596   1.206   2.391   9.578
 2715SOL    HW1 8597   1.213   2.313   9.633
 2715SOL    HW2 8598   1.163   2.456   9.634
 2716SOL     OW 8599   0.312   2.061  10.557
 2716SOL    HW1 8600   0.266   2.098  10.632
 2716SOL    HW2 8601   0.287   1.969  10.557
 2717SOL     OW 8602   0.057   3.166  10.590
 2717SOL    HW1 8603   0.090   3.128  10.671
 2717SOL    HW2 8604   0.050   3.260  10.609
 2718SOL     OW 8605   0.726   2.494  10.369
 2718SOL    HW1 8606   0.799   2.476  10.310
 2718SOL    HW2 8607   0.698   2.583  10.347
 2719SOL     OW 8608   1.734   2.822  11.161
 2719SOL    HW1 8609   1.688   2.760  11.104
 2719SOL    HW2 8610   1.674   2.834  11.235
 2720SOL     OW 8611   0.311   1.926   9.931
 2720SOL    HW1 8612   0.292   2.017   9.953
 2720SOL    HW2 8613   0.315   1.881  10.016
 2721SOL     OW 8614   1.611   2.238   9.682
 2721SOL    HW1 8615   1.621   2.183   9.760
 2721SOL    HW2 8616   1.588   2.325   9.717
 2722SOL     OW 8617   1.028   2.621  10.271
 2722SOL    HW1 8618   1.025   2.639  10.365
 2722SOL    HW2 8619   1.001   2.530  10.263
 2723SOL     OW 8620   0.985   3.429  11.027
 2723SOL    HW1 8621   0.967   3.472  10.943
 2723SOL    HW2 8622   1.026   3.346  11.003
 2724SOL     OW 8623   1.855   3.369  10.915
 2724SOL    HW1 8624   1.873   3.396  10.825
 2724SOL    HW2 8625   1.936   3.389  10.962
 2725SOL     OW 8626   0.351   2.782  11.112
 2725SOL    HW1 8627   0.431   2.802  11.161
 2725SOL    HW2 8628   0.379   2.716  11.048
 2726SOL     OW 8629   1.528   2.135   9.438
 2726SOL    HW1 8630   1.463   2.071   9.465
 2726SOL    HW2 8631   1.560   2.172   9.520
 2727SOL     OW 8632   1.293   2.689   9.342
 2727SOL    HW1 8633   1.335   2.603   9.345
 2727SOL    HW2 8634   1.324   2.728   9.260
 2728SOL     OW 8635   1.065   3.197  10.163
 2728SOL    HW1 8636   1.068   3.125  10.101
 2728SOL    HW2 8637   1.127   3.261  10.128
 2729SOL     OW 8638   0.314   2.668  10.261
 2729SOL    HW1 8639   0.408   2.686  10.254
 2729SOL    HW2 8640   0.309   2.578  10.294
 2730SOL     OW 8641   0.332   2.381  10.323
 2730SOL    HW1 8642   0.298   2.293  10.305
 2730SOL    HW2 8643   0.408   2.389  10.265
 2731SOL     OW 8644   1.134   2.239  10.991
 2731SOL    HW1 8645   1.088   2.294  11.054
 2731SOL    HW2 8646   1.223   2.276  10.987
 2732SOL     OW 8647   1.160   2.066  10.780
 2732SOL    HW1 8648   1.150   2.128  10.852
 2732SOL    HW2 8649   1.199   2.116  10.709
 2733SOL     OW 8650   3.999   3.183   9.492
 2733SOL    HW1 8651   3.905   3.198   9.496
 2733SOL    HW2 8652   0.009   3.090   9.512
 2734SOL     OW 8653   0.075   3.663  10.204
 2734SOL    HW1 8654   0.085   3.568  10.208
 2734SOL    HW2 8655   0.165   3.696  10.200
 2735SOL     OW 8656   0.507   3.428  10.223
 2735SOL    HW1 8657   0.574   3.493  10.245
 2735SOL    HW2 8658   0.551   3.367  10.164
 2736SOL     OW 8659   0.985   2.655  10.537
 2736SOL    HW1 8660   1.040   2.631  10.612
 2736SOL    HW2 8661   0.899   2.618  10.558
 2737SOL     OW 8662   0.037   2.416  10.420
 2737SOL    HW1 8663   0.119   2.390  10.378
 2737SOL    HW2 8664   0.057   2.413  10.514
 2738SOL     OW 8665   0.206   2.376  11.037
 2738SOL    HW1 8666   0.249   2.333  10.963
 2738SOL    HW2 8667   0.155   2.446  10.996
 2739SOL     OW 8668   1.376   2.802  10.969
 2739SOL    HW1 8669   1.398   2.895  10.967
 2739SOL    HW2 8670   1.374   2.777  10.876
 2740SOL     OW 8671   0.817   2.431   9.667
 2740SOL    HW1 8672   0.820   2.355   9.609
 2740SOL    HW2 8673   0.743   2.482   9.636
 2741SOL     OW 8674   1.644   2.464  10.496
 2741SOL    HW1 8675   1.632   2.407  10.573
 2741SOL    HW2 8676   1.730   2.440  10.462
 2742SOL     OW 8677   0.296   3.409  11.042
 2742SOL    HW1 8678   0.246   3.479  11.083
 2742SOL    HW2 8679   0.261   3.329  11.079
 2743SOL     OW 8680   0.698   2.314  10.571
 2743SOL    HW1 8681   0.648   2.239  10.539
 2743SOL    HW2 8682   0.696   2.377  10.499
 2744SOL     OW 8683   0.931   3.536  10.777
 2744SOL    HW1 8684   0.903   3.502  10.692
 2744SOL    HW2 8685   0.924   3.631  10.768
 2745SOL     OW 8686   0.461   2.353   9.502
 2745SOL    HW1 8687   0.525   2.422   9.521
 2745SOL    HW2 8688   0.380   2.400   9.483
 2746SOL     OW 8689   0.157   2.998  10.783
 2746SOL    HW1 8690   0.161   2.947  10.863
 2746SOL    HW2 8691   0.172   2.935  10.713
 2747SOL     OW 8692   1.327   2.910  10.534
 2747SOL    HW1 8693   1.351   2.846  10.466
 2747SOL    HW2 8694   1.256   2.961  10.495
 2748SOL     OW 8695   1.310   2.719   9.617
 2748SOL    HW1 8696   1.234   2.688   9.666
 2748SOL    HW2 8697   1.286   2.705   9.525
 2749SOL     OW 8698   1.767   3.607  10.458
 2749SOL    HW1 8699   1.830   3.634  10.390
 2749SOL    HW2 8700   1.747   3.516  10.436
 2750SOL     OW 8701   1.243   3.596  10.423
 2750SOL    HW1 8702   1.325   3.614  10.378
 2750SOL    HW2 8703   1.247   3.502  10.443
 2751SOL     OW 8704   0.075   3.078  10.337
 2751SOL    HW1 8705   0.082   3.104  10.429
 2751SOL    HW2 8706   3.982   3.086  10.317
 2752SOL     OW 8707   0.679   3.525  11.037
 2752SOL    HW1 8708   0.623   3.603  11.040
 2752SOL    HW2 8709   0.738   3.541  10.963
 2753SOL     OW 8710   1.390   3.431   9.794
 2753SOL    HW1 8711   1.450   3.463   9.727
 2753SOL    HW2 8712   1.343   3.509   9.823
 2754SOL     OW 8713   0.167   3.628  11.140
 2754SOL    HW1 8714   0.110   3.577  11.198
 2754SOL    HW2 8715   0.214   3.687  11.199
 2755SOL     OW 8716   1.278   2.787   9.981
 2755SOL    HW1 8717   1.351   2.726   9.986
 2755SOL    HW2 8718   1.311   2.860   9.929
 2756SOL     OW 8719   0.816   3.135  10.741
 2756SOL    HW1 8720   0.788   3.174  10.824
 2756SOL    HW2 8721   0.745   3.155  10.680
 2757SOL     OW 8722   0.675   3.476   9.467
 2757SOL    HW1 8723   0.681   3.492   9.372
 2757SOL    HW2 8724   0.618   3.399   9.474
 2758SOL     OW 8725   1.628   3.588  10.701
 2758SOL    HW1 8726   1.677   3.594  10.619
 2758SOL    HW2 8727   1.615   3.678  10.728
 2759SOL     OW 8728   0.268   2.177  10.028
 2759SOL    HW1 8729   0.183   2.212  10.001
 2759SOL    HW2 8730   0.262   2.166  10.123
 2760SOL     OW 8731   1.206   3.469   9.345
 2760SOL    HW1 8732   1.197   3.376   9.369
 2760SOL    HW2 8733   1.146   3.481   9.272
 2761SOL     OW 8734   0.824   2.868  10.682
 2761SOL    HW1 8735   0.868   2.864  10.597
 2761SOL    HW2 8736   0.824   2.960  10.705
 2762SOL     OW 8737   0.916   2.772   9.600
 2762SOL    HW1 8738   0.977   2.804   9.534
 2762SOL    HW2 8739   0.963   2.702   9.645
 2763SOL     OW 8740   1.492   3.489   9.352
 2763SOL    HW1 8741   1.397   3.480   9.337
 2763SOL    HW2 8742   1.529   3.494   9.264
 2764SOL     OW 8743   0.373   3.164  10.801
 2764SOL    HW1 8744   0.359   3.244  10.751
 2764SOL    HW2 8745   0.296   3.111  10.784
 2765SOL     OW 8746   1.611   3.145  10.591
 2765SOL    HW1 8747   1.671   3.135  10.665
 2765SOL    HW2 8748   1.551   3.214  10.617
 2766SOL     OW 8749   1.051   2.968  10.016
 2766SOL    HW1 8750   0.980   2.917  10.055
 2766SOL    HW2 8751   1.112   2.903   9.983
 2767SOL     OW 8752   1.020   2.102  10.276
 2767SOL    HW1 8753   1.016   2.054  10.193
 2767SOL    HW2 8754   1.015   2.034  10.343
 2768SOL     OW 8755   0.603   3.352   9.791
 2768SOL    HW1 8756   0.646   3.301   9.722
 2768SOL    HW2 8757   0.535   3.402   9.746
 2769SOL     OW 8758   1.724   2.249  10.684
 2769SOL    HW1 8759   1.796   2.312  10.692
 2769SOL    HW2 8760   1.759   2.181  10.626
 2770SOL     OW 8761   0.252   3.204   9.600
 2770SOL    HW1 8762   0.160   3.215   9.580
 2770SOL    HW2 8763   0.262   3.242   9.688
 2771SOL     OW 8764   0.105   2.862  11.028
 2771SOL    HW1 8765   0.044   2.851  11.101
 2771SOL    HW2 8766   0.191   2.842  11.065
 2772SOL     OW 8767   0.674   2.058  10.809
 2772SOL    HW1 8768   0.757   2.039  10.767
 2772SOL    HW2 8769   0.697   2.089  10.897
 2773SOL     OW 8770   0.080   2.182   9.347
 2773SOL    HW1 8771   3.985   2.180   9.352
 2773SOL    HW2 8772   0.101   2.262   9.299
 2774SOL     OW 8773   1.431   2.720  10.711
 2774SOL    HW1 8774   1.382   2.781  10.655
 2774SOL    HW2 8775   1.520   2.723  10.678
 2775SOL     OW 8776   0.025   2.084   9.678
 2775SOL    HW1 8777   0.046   2.150   9.613
 2775SOL    HW2 8778   0.110   2.049   9.706
 2776SOL     OW 8779   1.179   3.202   9.427
 2776SOL    HW1 8780   1.088   3.173   9.429
 2776SOL    HW2 8781   1.207   3.201   9.518
 2777SOL     OW 8782   0.618   2.693  10.745
 2777SOL    HW1 8783   0.674   2.769  10.729
 2777SOL    HW2 8784   0.680   2.620  10.753
 2778SOL     OW 8785   1.485   3.639  10.288
 2778SOL    HW1 8786   1.511   3.694  10.214
 2778SOL    HW2 8787   1.568   3.619  10.333
 2779SOL     OW 8788   0.716   2.427  11.016
 2779SOL    HW1 8789   0.757   2.490  11.075
 2779SOL    HW2 8790   0.748   2.342  11.046
 2780SOL     OW 8791   1.471   3.063  10.942
 2780SOL    HW1 8792   1.458   3.077  11.036
 2780SOL    HW2 8793   1.564   3.077  10.928
 2781SOL     OW 8794   0.380   3.604  10.869
 2781SOL    HW1 8795   0.292   3.640  10.855
 2781SOL    HW2 8796   0.365   3.523  10.917
 2782SOL     OW 8797   1.671   2.744  10.565
 2782SOL    HW1 8798   1.663   2.658  10.522
 2782SOL    HW2 8799   1.661   2.807  10.494
 2783SOL     OW 8800   1.217   2.182   9.768
 2783SOL    HW1 8801   1.280   2.111   9.759
 2783SOL    HW2 8802   1.245   2.231   9.845
 2784SOL     OW 8803   0.591   2.602   9.979
 2784SOL    HW1 8804   0.629   2.688   9.963
 2784SOL    HW2 8805   0.522   2.593   9.913
 2785SOL     OW 8806   1.759   2.240  10.959
 2785SOL    HW1 8807   1.742   2.241  10.864
 2785SOL    HW2 8808   1.700   2.174  10.993
 2786SOL     OW 8809   1.743   2.797  10.822
 2786SOL    HW1 8810   1.743   2.892  10.835
 2786SOL    HW2 8811   1.729   2.785  10.728
 2787SOL     OW 8812   0.864   3.230   9.344
 2787SOL    HW1 8813   0.822   3.258   9.425
 2787SOL    HW2 8814   0.880   3.311   9.296
 2788SOL     OW 8815   0.658   3.653  10.251
 2788SOL    HW1 8816   0.635   3.744  10.230
 2788SOL    HW2 8817   0.754   3.651  10.248
 2789SOL     OW 8818   0.867   2.828  10.165
 2789SOL    HW1 8819   0.917   2.757  10.205
 2789SOL    HW2 8820   0.833   2.878  10.239
 2790SOL     OW 8821   1.079   2.849   9.398
 2790SOL    HW1 8822   1.058   2.901   9.320
 2790SOL    HW2 8823   1.154   2.797   9.373
 2791SOL     OW 8824   1.855   3.416  10.153
 2791SOL    HW1 8825   1.776   3.404  10.100
 2791SOL    HW2 8826   1.846   3.350  10.223
 2792SOL     OW 8827   0.223   3.166  11.165
 2792SOL    HW1 8828   0.152   3.107  11.140
 2792SOL    HW2 8829   0.211   3.179  11.259
 2793SOL     OW 8830   0.110   3.135  10.026
 2793SOL    HW1 8831   0.121   3.084  10.107
 2793SOL    HW2 8832   0.111   3.070   9.956
 2794SOL     OW 8833   0.680   3.263  10.938
 2794SOL    HW1 8834   0.600   3.221  10.967
 2794SOL    HW2 8835   0.676   3.352  10.974
 2795SOL     OW 8836   0.441   2.296   9.842
 2795SOL    HW1 8837   0.443   2.227   9.777
 2795SOL    HW2 8838   0.386   2.261   9.912
 2796SOL     OW 8839   1.701   3.351  10.406
 2796SOL    HW1 8840   1.620   3.327  10.363
 2796SOL    HW2 8841   1.714   3.283  10.473
 2797SOL     OW 8842   0.331   2.416  10.601
 2797SOL    HW1 8843   0.387   2.360  10.655
 2797SOL    HW2 8844   0.348   2.386  10.511
 2798SOL     OW 8845   0.826   3.441   9.988
 2798SOL    HW1 8846   0.817   3.487   9.905
 2798SOL    HW2 8847   0.749   3.383   9.991
 2799SOL     OW 8848   1.437   2.089  10.429
 2799SOL    HW1 8849   1.453   2.004  10.470
 2799SOL    HW2 8850   1.382   2.136  10.492
 2800SOL     OW 8851   1.009   1.881  10.454
 2800SOL    HW1 8852   0.955   1.813  10.414
 2800SOL    HW2 8853   1.097   1.844  10.455
 2801SOL     OW 8854   0.771   3.194   9.624
 2801SOL    HW1 8855   0.739   3.104   9.630
 2801SOL    HW2 8856   0.854   3.192   9.672
 2802SOL     OW 8857   0.620   3.418  10.594
 2802SOL    HW1 8858   0.622   3.499  10.645
 2802SOL    HW2 8859   0.707   3.411  10.556
 2803SOL     OW 8860   1.351   1.914   9.475
 2803SOL    HW1 8861   1.378   1.855   9.405
 2803SOL    HW2 8862   1.264   1.883   9.500
 2804SOL     OW 8863   1.298   2.323   9.992
 2804SOL    HW1 8864   1.244   2.401   9.999
 2804SOL    HW2 8865   1.294   2.282  10.079
 2805SOL     OW 8866   1.574   2.059  10.180
 2805SOL    HW1 8867   1.532   2.082  10.263
 2805SOL    HW2 8868   1.589   2.143  10.137
 2806SOL     OW 8869   0.045   2.914   9.549
 2806SOL    HW1 8870   0.139   2.898   9.541
 2806SOL    HW2 8871   0.010   2.834   9.589
 2807SOL     OW 8872   0.883   3.516   9.655
 2807SOL    HW1 8873   0.813   3.496   9.593
 2807SOL    HW2 8874   0.852   3.593   9.703
 2808SOL     OW 8875   0.231   2.483  11.293
 2808SOL    HW1 8876   0.138   2.493  11.313
 2808SOL    HW2 8877   0.233   2.455  11.202
 2809SOL     OW 8878   0.228   2.133  12.159
 2809SOL    HW1 8879   0.249   2.102  12.247
 2809SOL    HW2 8880   0.133   2.123  12.152
 2810SOL     OW 8881   0.012   2.225  11.805
 2810SOL    HW1 8882   3.926   2.243  11.842
 2810SOL    HW2 8883   3.994   2.188  11.719
 2811SOL     OW 8884   0.576   3.144  12.354
 2811SOL    HW1 8885   0.489   3.149  12.314
 2811SOL    HW2 8886   0.592   3.232  12.388
 2812SOL     OW 8887   1.559   3.373  11.879
 2812SOL    HW1 8888   1.516   3.353  11.962
 2812SOL    HW2 8889   1.487   3.377  11.815
 2813SOL     OW 8890   1.130   2.560  11.874
 2813SOL    HW1 8891   1.179   2.641  11.860
 2813SOL    HW2 8892   1.083   2.575  11.956
 2814SOL     OW 8893   1.768   2.469  11.401
 2814SOL    HW1 8894   1.746   2.462  11.308
 2814SOL    HW2 8895   1.734   2.388  11.440
 2815SOL     OW 8896   0.758   3.004  12.210
 2815SOL    HW1 8897   0.691   3.038  12.269
 2815SOL    HW2 8898   0.792   3.082  12.166
 2816SOL     OW 8899   0.863   2.639  12.993
 2816SOL    HW1 8900   0.855   2.711  13.056
 2816SOL    HW2 8901   0.888   2.682  12.911
 2817SOL     OW 8902   0.686   2.867  11.820
 2817SOL    HW1 8903   0.751   2.854  11.889
 2817SOL    HW2 8904   0.616   2.918  11.862
 2818SOL     OW 8905   0.709   3.013  12.984
 2818SOL    HW1 8906   0.757   3.091  13.009
 2818SOL    HW2 8907   0.626   3.045  12.949
 2819SOL     OW 8908   0.351   3.265  12.250
 2819SOL    HW1 8909   0.268   3.251  12.204
 2819SOL    HW2 8910   0.400   3.325  12.194
 2820SOL     OW 8911   1.461   3.361  12.524
 2820SOL    HW1 8912   1.510   3.442  12.535
 2820SOL    HW2 8913   1.401   3.359  12.599
 2821SOL     OW 8914   0.450   2.263  12.664
 2821SOL    HW1 8915   0.524   2.203  12.666
 2821SOL    HW2 8916   0.373   2.207  12.674
 2822SOL     OW 8917   1.607   2.310  11.911
 2822SOL    HW1 8918   1.527   2.334  11.864
 2822SOL    HW2 8919   1.626   2.387  11.966
 2823SOL     OW 8920   0.226   3.571  11.639
 2823SOL    HW1 8921   0.232   3.651  11.692
 2823SOL    HW2 8922   0.302   3.575  11.581
 2824SOL     OW 8923   1.136   3.203  12.864
 2824SOL    HW1 8924   1.176   3.199  12.951
 2824SOL    HW2 8925   1.084   3.123  12.858
 2825SOL     OW 8926   0.245   3.305  11.711
 2825SOL    HW1 8927   0.219   3.396  11.699
 2825SOL    HW2 8928   0.176   3.267  11.765
 2826SOL     OW 8929   0.246   2.932  12.056
 2826SOL    HW1 8930   0.264   2.848  12.099
 2826SOL    HW2 8931   0.194   2.981  12.120
 2827SOL     OW 8932   0.614   3.649  12.602
 2827SOL    HW1 8933   0.531   3.634  12.648
 2827SOL    HW2 8934   0.639   3.738  12.626
 2828SOL     OW 8935   0.583   2.845  11.307
 2828SOL    HW1 8936   0.628   2.893  11.238
 2828SOL    HW2 8937   0.625   2.874  11.388
 2829SOL     OW 8938   1.590   1.988  12.638
 2829SOL    HW1 8939   1.581   2.071  12.591
 2829SOL    HW2 8940   1.584   2.011  12.730
 2830SOL     OW 8941   0.140   2.509  11.746
 2830SOL    HW1 8942   0.085   2.431  11.746
 2830SOL    HW2 8943   0.104   2.565  11.815
 2831SOL     OW 8944   1.841   3.615  11.510
 2831SOL    HW1 8945   1.906   3.590  11.576
 2831SOL    HW2 8946   1.865   3.705  11.487
 2832SOL     OW 8947   0.041   3.455  11.312
 2832SOL    HW1 8948   0.031   3.362  11.334
 2832SOL    HW2 8949   3.963   3.497  11.349
 2833SOL     OW 8950   1.689   2.781  11.811
 2833SOL    HW1 8951   1.773   2.739  11.791
 2833SOL    HW2 8952   1.668   2.831  11.733
 2834SOL     OW 8953   1.645   2.969  11.601
 2834SOL    HW1 8954   1.731   2.976  11.559
 2834SOL    HW2 8955   1.651   3.030  11.675
 2835SOL     OW 8956   0.134   2.613  12.763
 2835SOL    HW1 8957   0.229   2.607  12.767
 2835SOL    HW2 8958   0.114   2.705  12.780
 2836SOL     OW 8959   0.613   3.246  11.906
 2836SOL    HW1 8960   0.567   3.163  11.916
 2836SOL    HW2 8961   0.596   3.272  11.816
 2837SOL     OW 8962   1.289   3.100  12.596
 2837SOL    HW1 8963   1.322   3.033  12.536
 2837SOL    HW2 8964   1.346   3.094  12.673
 2838SOL     OW 8965   0.815   1.861  11.680
 2838SOL    HW1 8966   0.855   1.946  11.662
 2838SOL    HW2 8967   0.722   1.879  11.688
 2839SOL     OW 8968   0.186   2.816  12.448
 2839SOL    HW1 8969   0.274   2.781  12.434
 2839SOL    HW2 8970   0.131   2.772  12.383
 2840SOL     OW 8971   1.532   2.855  11.370
 2840SOL    HW1 8972   1.462   2.797  11.401
 2840SOL    HW2 8973   1.572   2.889  11.449
 2841SOL     OW 8974   1.209   3.664  12.797
 2841SOL    HW1 8975   1.195   3.723  12.723
 2841SOL    HW2 8976   1.212   3.577  12.757
 2842SOL     OW 8977   0.338   2.109  12.984
 2842SOL    HW1 8978   0.379   2.195  12.991
 2842SOL    HW2 8979   0.247   2.124  13.010
 2843SOL     OW 8980   1.465   3.282  12.124
 2843SOL    HW1 8981   1.398   3.296  12.190
 2843SOL    HW2 8982   1.454   3.191  12.097
 2844SOL     OW 8983   1.657   3.598  11.752
 2844SOL    HW1 8984   1.640   3.568  11.662
 2844SOL    HW2 8985   1.633   3.523  11.806
 2845SOL     OW 8986   0.596   2.582  11.435
 2845SOL    HW1 8987   0.604   2.664  11.387
 2845SOL    HW2 8988   0.533   2.600  11.505
 2846SOL     OW 8989   1.279   2.215  12.105
 2846SOL    HW1 8990   1.190   2.180  12.114
 2846SOL    HW2 8991   1.332   2.160  12.163
 2847SOL     OW 8992   1.579   3.535  11.480
 2847SOL    HW1 8993   1.670   3.563  11.475
 2847SOL    HW2 8994   1.555   3.515  11.389
 2848SOL     OW 8995   0.792   2.479  12.625
 2848SOL    HW1 8996   0.765   2.456  12.713
 2848SOL    HW2 8997   0.751   2.413  12.569
 2849SOL     OW 8998   1.394   2.335  12.849
 2849SOL    HW1 8999   1.395   2.380  12.933
 2849SOL    HW2 9000   1.459   2.265  12.858
 2850SOL     OW 9001   0.956   2.750  12.754
 2850SOL    HW1 9002   1.010   2.679  12.719
 2850SOL    HW2 9003   0.908   2.783  12.678
 2851SOL     OW 9004   0.992   2.275  12.411
 2851SOL    HW1 9005   0.907   2.297  12.449
 2851SOL    HW2 9006   0.971   2.228  12.330
 2852SOL     OW 9007   1.051   2.560  11.598
 2852SOL    HW1 9008   1.065   2.553  11.693
 2852SOL    HW2 9009   0.969   2.513  11.583
 2853SOL     OW 9010   0.082   2.686  11.962
 2853SOL    HW1 9011   0.162   2.658  12.008
 2853SOL    HW2 9012   0.091   2.781  11.954
 2854SOL     OW 9013   0.128   3.712  12.746
 2854SOL    HW1 9014   0.134   3.681  12.837
 2854SOL    HW2 9015   0.035   3.701  12.723
 2855SOL     OW 9016   0.891   2.210  11.364
 2855SOL    HW1 9017   0.933   2.271  11.304
 2855SOL    HW2 9018   0.910   2.124  11.328
 2856SOL     OW 9019   1.706   2.439  13.003
 2856SOL    HW1 9020   1.670   2.510  12.950
 2856SOL    HW2 9021   1.737   2.375  12.939
 2857SOL     OW 9022   1.376   3.004  11.714
 2857SOL    HW1 9023   1.455   2.991  11.661
 2857SOL    HW2 9024   1.324   3.066  11.663
 2858SOL     OW 9025   0.546   2.042  12.064
 2858SOL    HW1 9026   0.552   2.073  12.155
 2858SOL    HW2 9027   0.548   2.123  12.012
 2859SOL     OW 9028   1.007   3.308  11.645
 2859SOL    HW1 9029   0.967   3.380  11.596
 2859SOL    HW2 9030   0.991   3.329  11.737
 2860SOL     OW 9031   0.358   3.668  12.029
 2860SOL    HW1 9032   0.434   3.610  12.039
 2860SOL    HW2 9033   0.395   3.756  12.038
 2861SOL     OW 9034   1.799   2.919  12.039
 2861SOL    HW1 9035   1.743   2.903  11.963
 2861SOL    HW2 9036   1.737   2.925  12.113
 2862SOL     OW 9037   1.228   3.399  12.683
 2862SOL    HW1 9038   1.213   3.327  12.744
 2862SOL    HW2 9039   1.163   3.385  12.614
 2863SOL     OW 9040   0.311   2.817  11.414
 2863SOL    HW1 9041   0.395   2.841  11.376
 2863SOL    HW2 9042   0.296   2.727  11.387
 2864SOL     OW 9043   1.478   2.602  11.899
 2864SOL    HW1 9044   1.468   2.559  11.984
 2864SOL    HW2 9045   1.555   2.658  11.909
 2865SOL     OW 9046   0.465   3.121  12.909
 2865SOL    HW1 9047   0.438   3.130  12.817
 2865SOL    HW2 9048   0.383   3.127  12.958
 2866SOL     OW 9049   1.113   3.642  11.396
 2866SOL    HW1 9050   1.051   3.594  11.451
 2866SOL    HW2 9051   1.142   3.578  11.331
 2867SOL     OW 9052   0.204   2.143  12.679
 2867SOL    HW1 9053   0.114   2.174  12.668
 2867SOL    HW2 9054   0.195   2.060  12.726
 2868SOL     OW 9055   1.628   3.242  11.261
 2868SOL    HW1 9056   1.588   3.327  11.243
 2868SOL    HW2 9057   1.559   3.178  11.241
 2869SOL     OW 9058   0.469   3.599  11.493
 2869SOL    HW1 9059   0.506   3.663  11.554
 2869SOL    HW2 9060   0.543   3.574  11.438
 2870SOL     OW 9061   1.398   1.970  11.601
 2870SOL    HW1 9062   1.382   1.946  11.510
 2870SOL    HW2 9063   1.492   1.956  11.613
 2871SOL     OW 9064   0.251   3.656  12.402
 2871SOL    HW1 9065   0.298   3.592  12.455
 2871SOL    HW2 9066   0.247   3.616  12.315
 2872SOL     OW 9067   0.937   3.560  12.074
 2872SOL    HW1 9068   1.015   3.508  12.093
 2872SOL    HW2 9069   0.892   3.512  12.005
 2873SOL     OW 9070   0.395   2.556  11.645
 2873SOL    HW1 9071   0.423   2.465  11.658
 2873SOL    HW2 9072   0.303   2.557  11.672
 2874SOL     OW 9073   1.538   2.086  12.897
 2874SOL    HW1 9074   1.550   2.108  12.989
 2874SOL    HW2 9075   1.468   2.021  12.896
 2875SOL     OW 9076   0.632   1.983  11.273
 2875SOL    HW1 9077   0.703   1.921  11.288
 2875SOL    HW2 9078   0.587   1.950  11.196
 2876SOL     OW 9079   0.767   2.138  12.925
 2876SOL    HW1 9080   0.842   2.079  12.928
 2876SOL    HW2 9081   0.719   2.122  13.006
 2877SOL     OW 9082   0.876   3.382  12.366
 2877SOL    HW1 9083   0.861   3.347  12.278
 2877SOL    HW2 9084   0.946   3.328  12.402
 2878SOL     OW 9085   1.342   2.450  12.604
 2878SOL    HW1 9086   1.372   2.419  12.689
 2878SOL    HW2 9087   1.377   2.539  12.597
 2879SOL     OW 9088   0.814   3.258  12.109
 2879SOL    HW1 9089   0.899   3.247  12.066
 2879SOL    HW2 9090   0.750   3.257  12.038
 2880SOL     OW 9091   0.927   2.371  12.075
 2880SOL    HW1 9092   0.905   2.363  11.983
 2880SOL    HW2 9093   0.960   2.285  12.100
 2881SOL     OW 9094   0.552   1.924  11.671
 2881SOL    HW1 9095   0.470   1.929  11.720
 2881SOL    HW2 9096   0.557   2.007  11.623
 2882SOL     OW 9097   1.428   3.060  11.213
 2882SOL    HW1 9098   1.459   2.984  11.263
 2882SOL    HW2 9099   1.342   3.080  11.250
 2883SOL     OW 9100   0.305   1.912  11.342
 2883SOL    HW1 9101   0.371   1.953  11.286
 2883SOL    HW2 9102   0.354   1.847  11.392
 2884SOL     OW 9103   0.937   2.106  11.635
 2884SOL    HW1 9104   0.906   2.149  11.554
 2884SOL    HW2 9105   1.032   2.122  11.635
 2885SOL     OW 9106   1.080   2.542  12.631
 2885SOL    HW1 9107   1.011   2.476  12.637
 2885SOL    HW2 9108   1.161   2.492  12.625
 2886SOL     OW 9109   1.224   3.431  11.965
 2886SOL    HW1 9110   1.241   3.500  11.900
 2886SOL    HW2 9111   1.292   3.444  12.032
 2887SOL     OW 9112   0.466   3.011  11.911
 2887SOL    HW1 9113   0.393   2.989  11.968
 2887SOL    HW2 9114   0.433   2.995  11.822
 2888SOL     OW 9115   1.269   3.658  11.777
 2888SOL    HW1 9116   1.314   3.722  11.722
 2888SOL    HW2 9117   1.200   3.708  11.820
 2889SOL     OW 9118   1.024   2.405  11.193
 2889SOL    HW1 9119   0.982   2.489  11.173
 2889SOL    HW2 9120   1.090   2.426  11.260
 2890SOL     OW 9121   0.080   2.432  12.562
 2890SOL    HW1 9122   0.169   2.419  12.531
 2890SOL    HW2 9123   0.087   2.501  12.628
 2891SOL     OW 9124   0.567   2.089  12.335
 2891SOL    HW1 9125   0.606   2.011  12.375
 2891SOL    HW2 9126   0.476   2.087  12.365
 2892SOL     OW 9127   0.869   2.321  11.812
 2892SOL    HW1 9128   0.820   2.374  11.749
 2892SOL    HW2 9129   0.888   2.240  11.765
 2893SOL     OW 9130   1.015   1.915  11.925
 2893SOL    HW1 9131   0.957   1.908  11.849
 2893SOL    HW2 9132   0.993   1.839  11.979
 2894SOL     OW 9133   1.436   3.025  12.029
 2894SOL    HW1 9134   1.368   2.958  12.028
 2894SOL    HW2 9135   1.460   3.037  11.937
 2895SOL     OW 9136   1.466   2.466  12.150
 2895SOL    HW1 9137   1.416   2.384  12.154
 2895SOL    HW2 9138   1.526   2.461  12.225
 2896SOL     OW 9139   1.846   2.679  11.555
 2896SOL    HW1 9140   1.903   2.628  11.612
 2896SOL    HW2 9141   1.818   2.617  11.488
 2897SOL     OW 9142   0.490   3.277  11.334
 2897SOL    HW1 9143   0.414   3.246  11.384
 2897SOL    HW2 9144   0.467   3.257  11.243
 2898SOL     OW 9145   1.670   3.126  11.819
 2898SOL    HW1 9146   1.764   3.131  11.832
 2898SOL    HW2 9147   1.639   3.215  11.840
 2899SOL     OW 9148   1.393   2.435  11.242
 2899SOL    HW1 9149   1.335   2.414  11.315
 2899SOL    HW2 9150   1.479   2.403  11.271
 2900SOL     OW 9151   0.573   2.131  11.496
 2900SOL    HW1 9152   0.597   2.081  11.418
 2900SOL    HW2 9153   0.540   2.214  11.462
 2901SOL     OW 9154   1.753   3.100  12.746
 2901SOL    HW1 9155   1.840   3.061  12.744
 2901SOL    HW2 9156   1.768   3.190  12.775
 2902SOL     OW 9157   1.059   3.215  12.505
 2902SOL    HW1 9158   0.985   3.184  12.557
 2902SOL    HW2 9159   1.135   3.174  12.547
 2903SOL     OW 9160   1.607   3.487  12.825
 2903SOL    HW1 9161   1.602   3.521  12.736
 2903SOL    HW2 9162   1.691   3.441  12.828
 2904SOL     OW 9163   1.128   3.064  12.278
 2904SOL    HW1 9164   1.069   3.102  12.344
 2904SOL    HW2 9165   1.094   3.096  12.194
 2905SOL     OW 9166   1.630   2.961  12.250
 2905SOL    HW1 9167   1.625   3.023  12.323
 2905SOL    HW2 9168   1.550   2.977  12.200
 2906SOL     OW 9169   0.918   1.959  12.569
 2906SOL    HW1 9170   0.941   1.940  12.478
 2906SOL    HW2 9171   0.997   1.999  12.606
 2907SOL     OW 9172   0.984   2.977  12.894
 2907SOL    HW1 9173   0.892   2.992  12.914
 2907SOL    HW2 9174   0.983   2.899  12.838
 2908SOL     OW 9175   0.707   2.922  11.543
 2908SOL    HW1 9176   0.694   2.907  11.637
 2908SOL    HW2 9177   0.784   2.869  11.521
 2909SOL     OW 9178   0.420   2.676  12.424
 2909SOL    HW1 9179   0.489   2.685  12.489
 2909SOL    HW2 9180   0.385   2.588  12.436
 2910SOL     OW 9181   1.266   2.239  12.447
 2910SOL    HW1 9182   1.299   2.316  12.493
 2910SOL    HW2 9183   1.176   2.261  12.423
 2911SOL     OW 9184   0.064   3.441  12.517
 2911SOL    HW1 9185   0.066   3.508  12.449
 2911SOL    HW2 9186   0.156   3.428  12.541
 2912SOL     OW 9187   0.375   2.964  11.658
 2912SOL    HW1 9188   0.368   3.042  11.603
 2912SOL    HW2 9189   0.373   2.891  11.596
 2913SOL     OW 9190   0.553   2.400  12.034
 2913SOL    HW1 9191   0.569   2.456  11.958
 2913SOL    HW2 9192   0.618   2.428  12.098
 2914SOL     OW 9193   1.248   3.210  11.561
 2914SOL    HW1 9194   1.304   3.282  11.592
 2914SOL    HW2 9195   1.161   3.231  11.595
 2915SOL     OW 9196   1.279   3.319  12.318
 2915SOL    HW1 9197   1.335   3.322  12.396
 2915SOL    HW2 9198   1.224   3.242  12.331
 2916SOL     OW 9199   1.579   2.488  11.644
 2916SOL    HW1 9200   1.536   2.540  11.712
 2916SOL    HW2 9201   1.628   2.551  11.593
 2917SOL     OW 9202   0.346   3.387  12.492
 2917SOL    HW1 9203   0.336   3.337  12.410
 2917SOL    HW2 9204   0.440   3.403  12.499
 2918SOL     OW 9205   0.412   2.603  12.773
 2918SOL    HW1 9206   0.474   2.649  12.716
 2918SOL    HW2 9207   0.454   2.518  12.789
 2919SOL     OW 9208   1.600   2.640  12.852
 2919SOL    HW1 9209   1.514   2.682  12.846
 2919SOL    HW2 9210   1.652   2.683  12.785
 2920SOL     OW 9211   0.996   1.983  12.928
 2920SOL    HW1 9212   1.051   2.056  12.898
 2920SOL    HW2 9213   1.045   1.905  12.902
 2921SOL     OW 9214   0.498   1.901  12.916
 2921SOL    HW1 9215   0.455   1.847  12.849
 2921SOL    HW2 9216   0.441   1.977  12.926
 2922SOL     OW 9217   0.584   2.735  12.203
 2922SOL    HW1 9218   0.615   2.826  12.201
 2922SOL    HW2 9219   0.528   2.730  12.281
 2923SOL     OW 9220   1.359   2.721  12.203
 2923SOL    HW1 9221   1.276   2.712  12.155
 2923SOL    HW2 9222   1.398   2.633  12.199
 2924SOL     OW 9223   1.206   2.391  11.440
 2924SOL    HW1 9224   1.213   2.313  11.495
 2924SOL    HW2 9225   1.163   2.455  11.496
 2925SOL     OW 9226   0.312   2.061  12.419
 2925SOL    HW1 9227   0.266   2.098  12.494
 2925SOL    HW2 9228   0.287   1.969  12.419
 2926SOL     OW 9229   0.057   3.166  12.452
 2926SOL    HW1 9230   0.090   3.128  12.533
 2926SOL    HW2 9231   0.050   3.260  12.471
 2927SOL     OW 9232   0.726   2.494  12.231
 2927SOL    HW1 9233   0.799   2.476  12.173
 2927SOL    HW2 9234   0.698   2.583  12.209
 2928SOL     OW 9235   1.734   2.822  13.023
 2928SOL    HW1 9236   1.688   2.760  12.966
 2928SOL    HW2 9237   1.674   2.834  13.097
 2929SOL     OW 9238   0.311   1.926  11.793
 2929SOL    HW1 9239   0.292   2.017  11.815
 2929SOL    HW2 9240   0.315   1.881  11.878
 2930SOL     OW 9241   1.610   2.238  11.544
 2930SOL    HW1 9242   1.622   2.183  11.622
 2930SOL    HW2 9243   1.588   2.325  11.579
 2931SOL     OW 9244   1.028   2.621  12.133
 2931SOL    HW1 9245   1.025   2.639  12.227
 2931SOL    HW2 9246   1.001   2.530  12.125
 2932SOL     OW 9247   0.985   3.429  12.889
 2932SOL    HW1 9248   0.967   3.472  12.805
 2932SOL    HW2 9249   1.026   3.346  12.866
 2933SOL     OW 9250   1.855   3.369  12.777
 2933SOL    HW1 9251   1.873   3.396  12.687
 2933SOL    HW2 9252   1.936   3.389  12.825
 2934SOL     OW 9253   0.351   2.781  12.975
 2934SOL    HW1 9254   0.431   2.802  13.023
 2934SOL    HW2 9255   0.379   2.716  12.910
 2935SOL     OW 9256   1.528   2.135  11.300
 2935SOL    HW1 9257   1.463   2.070  11.327
 2935SOL    HW2 9258   1.560   2.172  11.383
 2936SOL     OW 9259   1.293   2.689  11.204
 2936SOL    HW1 9260   1.335   2.603  11.207
 2936SOL    HW2 9261   1.324   2.728  11.122
 2937SOL     OW 9262   1.065   3.197  12.025
 2937SOL    HW1 9263   1.068   3.125  11.963
 2937SOL    HW2 9264   1.127   3.261  11.990
 2938SOL     OW 9265   0.314   2.668  12.123
 2938SOL    HW1 9266   0.408   2.686  12.116
 2938SOL    HW2 9267   0.309   2.578  12.156
 2939SOL     OW 9268   0.332   2.381  12.185
 2939SOL    HW1 9269   0.298   2.293  12.167
 2939SOL    HW2 9270   0.408   2.389  12.127
 2940SOL     OW 9271   1.134   2.239  12.853
 2940SOL    HW1 9272   1.088   2.294  12.916
 2940SOL    HW2 9273   1.223   2.276  12.849
 2941SOL     OW 9274   1.160   2.066  12.642
 2941SOL    HW1 9275   1.150   2.128  12.714
 2941SOL    HW2 9276   1.199   2.116  12.571
 2942SOL     OW 9277   3.999   3.183  11.354
 2942SOL    HW1 9278   3.905   3.198  11.358
 2942SOL    HW2 9279   0.009   3.090  11.374
 2943SOL     OW 9280   0.075   3.663  12.066
 2943SOL    HW1 9281   0.085   3.568  12.070
 2943SOL    HW2 9282   0.165   3.696  12.062
 2944SOL     OW 9283   0.507   3.428  12.085
 2944SOL    HW1 9284   0.574   3.493  12.107
 2944SOL    HW2 9285   0.551   3.367  12.026
 2945SOL     OW 9286   0.985   2.655  12.399
 2945SOL    HW1 9287   1.040   2.631  12.474
 2945SOL    HW2 9288   0.899   2.618  12.420
 2946SOL     OW 9289   0.037   2.415  12.282
 2946SOL    HW1 9290   0.119   2.390  12.240
 2946SOL    HW2 9291   0.057   2.413  12.376
 2947SOL     OW 9292   0.206   2.376  12.899
 2947SOL    HW1 9293   0.249   2.333  12.825
 2947SOL    HW2 9294   0.155   2.446  12.859
 2948SOL     OW 9295   1.376   2.802  12.831
 2948SOL    HW1 9296   1.398   2.895  12.829
 2948SOL    HW2 9297   1.374   2.777  12.738
 2949SOL     OW 9298   0.817   2.431  11.529
 2949SOL    HW1 9299   0.820   2.355  11.471
 2949SOL    HW2 9300   0.743   2.482  11.498
 2950SOL     OW 9301   1.644   2.464  12.358
 2950SOL    HW1 9302   1.632   2.407  12.435
 2950SOL    HW2 9303   1.730   2.440  12.324
 2951SOL     OW 9304   0.296   3.410  12.904
 2951SOL    HW1 9305   0.245   3.479  12.946
 2951SOL    HW2 9306   0.261   3.329  12.941
 2952SOL     OW 9307   0.698   2.314  12.433
 2952SOL    HW1 9308   0.648   2.239  12.401
 2952SOL    HW2 9309   0.696   2.377  12.361
 2953SOL     OW 9310   0.931   3.536  12.639
 2953SOL    HW1 9311   0.903   3.502  12.554
 2953SOL    HW2 9312   0.924   3.631  12.630
 2954SOL     OW 9313   0.461   2.353  11.364
 2954SOL    HW1 9314   0.525   2.422  11.383
 2954SOL    HW2 9315   0.380   2.400  11.345
 2955SOL     OW 9316   0.157   2.998  12.645
 2955SOL    HW1 9317   0.160   2.946  12.725
 2955SOL    HW2 9318   0.172   2.935  12.575
 2956SOL     OW 9319   1.327   2.910  12.396
 2956SOL    HW1 9320   1.351   2.846  12.328
 2956SOL    HW2 9321   1.256   2.961  12.357
 2957SOL     OW 9322   1.310   2.719  11.479
 2957SOL    HW1 9323   1.234   2.688  11.528
 2957SOL    HW2 9324   1.286   2.705  11.387
 2958SOL     OW 9325   1.767   3.607  12.320
 2958SOL    HW1 9326   1.830   3.634  12.252
 2958SOL    HW2 9327   1.747   3.516  12.298
 2959SOL     OW 9328   1.243   3.596  12.285
 2959SOL    HW1 9329   1.325   3.614  12.241
 2959SOL    HW2 9330   1.247   3.502  12.305
 2960SOL     OW 9331   0.075   3.078  12.199
 2960SOL    HW1 9332   0.082   3.104  12.291
 2960SOL    HW2 9333   3.982   3.086  12.179
 2961SOL     OW 9334   0.679   3.525  12.899
 2961SOL    HW1 9335   0.624   3.603  12.902
 2961SOL    HW2 9336   0.738   3.540  12.825
 2962SOL     OW 9337   1.390   3.431  11.656
 2962SOL    HW1 9338   1.450   3.463  11.589
 2962SOL    HW2 9339   1.343   3.509  11.685
 2963SOL     OW 9340   0.166   3.629  13.003
 2963SOL    HW1 9341   0.109   3.577  13.060
 2963SOL    HW2 9342   0.214   3.687  13.063
 2964SOL     OW 9343   1.278   2.787  11.843
 2964SOL    HW1 9344   1.351   2.726  11.849
 2964SOL    HW2 9345   1.311   2.860  11.791
 2965SOL     OW 9346   0.816   3.135  12.603
 2965SOL    HW1 9347   0.788   3.174  12.686
 2965SOL    HW2 9348   0.745   3.155  12.542
 2966SOL     OW 9349   0.675   3.476  11.329
 2966SOL    HW1 9350   0.681   3.492  11.234
 2966SOL    HW2 9351   0.618   3.399  11.336
 2967SOL     OW 9352   1.628   3.588  12.562
 2967SOL    HW1 9353   1.677   3.594  12.481
 2967SOL    HW2 9354   1.615   3.678  12.590
 2968SOL     OW 9355   0.268   2.177  11.890
 2968SOL    HW1 9356   0.183   2.212  11.863
 2968SOL    HW2 9357   0.262   2.166  11.985
 2969SOL     OW 9358   1.206   3.469  11.207
 2969SOL    HW1 9359   1.197   3.376  11.231
 2969SOL    HW2 9360   1.146   3.481  11.134
 2970SOL     OW 9361   0.823   2.868  12.544
 2970SOL    HW1 9362   0.868   2.864  12.459
 2970SOL    HW2 9363   0.824   2.960  12.567
 2971SOL     OW 9364   0.915   2.772  11.462
 2971SOL    HW1 9365   0.977   2.804  11.396
 2971SOL    HW2 9366   0.963   2.702  11.507
 2972SOL     OW 9367   1.492   3.489  11.214
 2972SOL    HW1 9368   1.397   3.480  11.199
 2972SOL    HW2 9369   1.529   3.494  11.126
 2973SOL     OW 9370   0.373   3.164  12.663
 2973SOL    HW1 9371   0.359   3.245  12.613
 2973SOL    HW2 9372   0.296   3.111  12.646
 2974SOL     OW 9373   1.611   3.145  12.453
 2974SOL    HW1 9374   1.671   3.135  12.527
 2974SOL    HW2 9375   1.551   3.214  12.479
 2975SOL     OW 9376   1.051   2.968  11.878
 2975SOL    HW1 9377   0.980   2.917  11.917
 2975SOL    HW2 9378   1.112   2.903  11.846
 2976SOL     OW 9379   1.020   2.102  12.138
 2976SOL    HW1 9380   1.016   2.054  12.055
 2976SOL    HW2 9381   1.015   2.034  12.205
 2977SOL     OW 9382   0.603   3.352  11.653
 2977SOL    HW1 9383   0.646   3.301  11.584
 2977SOL    HW2 9384   0.535   3.402  11.608
 2978SOL     OW 9385   1.725   2.248  12.545
 2978SOL    HW1 9386   1.796   2.312  12.553
 2978SOL    HW2 9387   1.760   2.180  12.487
 2979SOL     OW 9388   0.252   3.204  11.462
 2979SOL    HW1 9389   0.160   3.215  11.442
 2979SOL    HW2 9390   0.262   3.242  11.550
 2980SOL     OW 9391   0.105   2.862  12.890
 2980SOL    HW1 9392   0.044   2.852  12.962
 2980SOL    HW2 9393   0.191   2.842  12.928
 2981SOL     OW 9394   0.674   2.058  12.671
 2981SOL    HW1 9395   0.757   2.039  12.629
 2981SOL    HW2 9396   0.697   2.088  12.759
 2982SOL     OW 9397   0.080   2.182  11.209
 2982SOL    HW1 9398   3.985   2.180  11.214
 2982SOL    HW2 9399   0.101   2.262  11.161
 2983SOL     OW 9400   1.430   2.720  12.573
 2983SOL    HW1 9401   1.383   2.781  12.516
 2983SOL    HW2 9402   1.520   2.723  12.540
 2984SOL     OW 9403   0.025   2.084  11.540
 2984SOL    HW1 9404   0.046   2.150  11.475
 2984SOL    HW2 9405   0.110   2.049  11.568
 2985SOL     OW 9406   1.179   3.202  11.289
 2985SOL    HW1 9407   1.088   3.173  11.291
 2985SOL    HW2 9408   1.207   3.201  11.380
 2986SOL     OW 9409   0.618   2.693  12.607
 2986SOL    HW1 9410   0.674   2.769  12.591
 2986SOL    HW2 9411   0.679   2.620  12.615
 2987SOL     OW 9412   1.485   3.639  12.150
 2987SOL    HW1 9413   1.511   3.694  12.076
 2987SOL    HW2 9414   1.568   3.619  12.195
 2988SOL     OW 9415   0.716   2.427  12.878
 2988SOL    HW1 9416   0.757   2.490  12.937
 2988SOL    HW2 9417   0.748   2.342  12.908
 2989SOL     OW 9418   1.470   3.063  12.804
 2989SOL    HW1 9419   1.458   3.076  12.898
 2989SOL    HW2 9420   1.564   3.077  12.790
 2990SOL     OW 9421   0.379   3.605  12.731
 2990SOL    HW1 9422   0.292   3.640  12.718
 2990SOL    HW2 9423   0.365   3.523  12.779
 2991SOL     OW 9424   1.671   2.744  12.427
 2991SOL    HW1 9425   1.663   2.658  12.384
 2991SOL    HW2 9426   1.661   2.807  12.356
 2992SOL     OW 9427   1.217   2.182  11.630
 2992SOL    HW1 9428   1.280   2.111  11.621
 2992SOL    HW2 9429   1.245   2.230  11.707
 2993SOL     OW 9430   0.591   2.602  11.841
 2993SOL    HW1 9431   0.629   2.688  11.825
 2993SOL    HW2 9432   0.522   2.593  11.775
 2994SOL     OW 9433   1.760   2.239  12.820
 2994SOL    HW1 9434   1.743   2.240  12.726
 2994SOL    HW2 9435   1.700   2.173  12.855
 2995SOL     OW 9436   1.743   2.797  12.684
 2995SOL    HW1 9437   1.743   2.892  12.697
 2995SOL    HW2 9438   1.729   2.785  12.590
 2996SOL     OW 9439   0.864   3.230  11.206
 2996SOL    HW1 9440   0.822   3.258  11.287
 2996SOL    HW2 9441   0.880   3.311  11.158
 2997SOL     OW 9442   0.658   3.653  12.113
 2997SOL    HW1 9443   0.636   3.744  12.092
 2997SOL    HW2 9444   0.754   3.651  12.110
 2998SOL     OW 9445   0.867   2.828  12.027
 2998SOL    HW1 9446   0.917   2.757  12.067
 2998SOL    HW2 9447   0.833   2.878  12.101
 2999SOL     OW 9448   1.079   2.849  11.260
 2999SOL    HW1 9449   1.058   2.901  11.182
 2999SOL    HW2 9450   1.154   2.797  11.235
 3000SOL     OW 9451   1.855   3.415  12.015
 3000SOL    HW1 9452   1.776   3.404  11.962
 3000SOL    HW2 9453   1.846   3.350  12.085
 3001SOL     OW 9454   0.223   3.166  13.027
 3001SOL    HW1 9455   0.152   3.107  13.002
 3001SOL    HW2 9456   0.211   3.180  13.121
 3002SOL     OW 9457   0.110   3.135  11.888
 3002SOL    HW1 9458   0.121   3.084  11.969
 3002SOL    HW2 9459   0.111   3.070  11.818
 3003SOL     OW 9460   0.680   3.263  12.799
 3003SOL    HW1 9461   0.599   3.221  12.829
 3003SOL    HW2 9462   0.676   3.352  12.836
 3004SOL     OW 9463   0.441   2.296  11.704
 3004SOL    HW1 9464   0.444   2.227  11.639
 3004SOL    HW2 9465   0.386   2.261  11.774
 3005SOL     OW 9466   1.701   3.351  12.268
 3005SOL    HW1 9467   1.619   3.327  12.225
 3005SOL    HW2 9468   1.715   3.284  12.335
 3006SOL     OW 9469   0.331   2.416  12.463
 3006SOL    HW1 9470   0.387   2.360  12.517
 3006SOL    HW2 9471   0.348   2.386  12.373
 3007SOL     OW 9472   0.826   3.441  11.850
 3007SOL    HW1 9473   0.817   3.487  11.767
 3007SOL    HW2 9474   0.749   3.383  11.853
 3008SOL     OW 9475   1.437   2.089  12.291
 3008SOL    HW1 9476   1.453   2.004  12.332
 3008SOL    HW2 9477   1.382   2.136  12.354
 3009SOL     OW 9478   1.009   1.881  12.315
 3009SOL    HW1 9479   0.955   1.813  12.275
 3009SOL    HW2 9480   1.097   1.844  12.317
 3010SOL     OW 9481   0.771   3.194  11.486
 3010SOL    HW1 9482   0.739   3.104  11.492
 3010SOL    HW2 9483   0.854   3.192  11.534
 3011SOL     OW 9484   0.620   3.418  12.456
 3011SOL    HW1 9485   0.622   3.499  12.507
 3011SOL    HW2 9486   0.707   3.411  12.418
 3012SOL     OW 9487   1.351   1.914  11.337
 3012SOL    HW1 9488   1.378   1.855  11.267
 3012SOL    HW2 9489   1.264   1.883  11.362
 3013SOL     OW 9490   1.298   2.323  11.854
 3013SOL    HW1 9491   1.244   2.401  11.861
 3013SOL    HW2 9492   1.294   2.282  11.941
 3014SOL     OW 9493   1.574   2.059  12.043
 3014SOL    HW1 9494   1.531   2.083  12.125
 3014SOL    HW2 9495   1.589   2.143  11.999
 3015SOL     OW 9496   0.045   2.914  11.411
 3015SOL    HW1 9497   0.139   2.898  11.403
 3015SOL    HW2 9498   0.010   2.834  11.451
 3016SOL     OW 9499   0.883   3.516  11.517
 3016SOL    HW1 9500   0.813   3.496  11.455
 3016SOL    HW2 9501   0.852   3.593  11.565
 3017SOL     OW 9502   0.230   2.483  13.155
 3017SOL    HW1 9503   0.137   2.493  13.175
 3017SOL    HW2 9504   0.233   2.455  13.064
 3018SOL     OW 9505   0.284   2.126   0.131
 3018SOL    HW1 9506   0.314   2.182   0.204
 3018SOL    HW2 9507   0.199   2.163   0.107
 3019SOL     OW 9508   0.007   2.226  13.658
 3019SOL    HW1 9509   3.913   2.245  13.663
 3019SOL    HW2 9510   0.019   2.187  13.571
 3020SOL     OW 9511   1.531   3.363  13.724
 3020SOL    HW1 9512   1.473   3.305  13.774
 3020SOL    HW2 9513   1.484   3.379  13.642
 3021SOL     OW 9514   1.126   2.564  13.735
 3021SOL    HW1 9515   1.182   2.637  13.709
 3021SOL    HW2 9516   1.082   2.594  13.814
 3022SOL     OW 9517   1.774   2.467  13.261
 3022SOL    HW1 9518   1.749   2.461  13.169
 3022SOL    HW2 9519   1.733   2.390  13.302
 3023SOL     OW 9520   0.686   2.872  13.673
 3023SOL    HW1 9521   0.741   2.851  13.749
 3023SOL    HW2 9522   0.613   2.923  13.711
 3024SOL     OW 9523   1.623   2.315  13.742
 3024SOL    HW1 9524   1.531   2.328  13.718
 3024SOL    HW2 9525   1.634   2.367  13.821
 3025SOL     OW 9526   0.222   3.573  13.497
 3025SOL    HW1 9527   0.241   3.632  13.570
 3025SOL    HW2 9528   0.301   3.576  13.443
 3026SOL     OW 9529   0.244   3.304  13.571
 3026SOL    HW1 9530   0.218   3.396  13.562
 3026SOL    HW2 9531   0.179   3.266  13.630
 3027SOL     OW 9532   0.250   2.940   0.020
 3027SOL    HW1 9533   0.271   2.895   0.101
 3027SOL    HW2 9534   0.210   3.022   0.047
 3028SOL     OW 9535   0.582   2.845  13.168
 3028SOL    HW1 9536   0.628   2.893  13.099
 3028SOL    HW2 9537   0.625   2.874  13.249
 3029SOL     OW 9538   0.143   2.504  13.616
 3029SOL    HW1 9539   0.071   2.443  13.595
 3029SOL    HW2 9540   0.102   2.570  13.673
 3030SOL     OW 9541   1.842   3.615  13.373
 3030SOL    HW1 9542   1.907   3.590  13.438
 3030SOL    HW2 9543   1.864   3.705  13.349
 3031SOL     OW 9544   0.041   3.456  13.174
 3031SOL    HW1 9545   0.031   3.363  13.195
 3031SOL    HW2 9546   3.966   3.498  13.216
 3032SOL     OW 9547   1.688   2.778  13.669
 3032SOL    HW1 9548   1.774   2.743  13.648
 3032SOL    HW2 9549   1.665   2.832  13.593
 3033SOL     OW 9550   1.646   2.968  13.461
 3033SOL    HW1 9551   1.731   2.974  13.418
 3033SOL    HW2 9552   1.651   3.029  13.534
 3034SOL     OW 9553   0.611   3.247  13.762
 3034SOL    HW1 9554   0.563   3.166  13.778
 3034SOL    HW2 9555   0.584   3.275  13.675
 3035SOL     OW 9556   0.814   1.859  13.543
 3035SOL    HW1 9557   0.855   1.943  13.523
 3035SOL    HW2 9558   0.721   1.879  13.551
 3036SOL     OW 9559   1.531   2.854  13.232
 3036SOL    HW1 9560   1.462   2.796  13.264
 3036SOL    HW2 9561   1.571   2.890  13.312
 3037SOL     OW 9562   1.656   3.596  13.612
 3037SOL    HW1 9563   1.637   3.568  13.523
 3037SOL    HW2 9564   1.647   3.517  13.665
 3038SOL     OW 9565   0.595   2.582  13.296
 3038SOL    HW1 9566   0.603   2.665  13.249
 3038SOL    HW2 9567   0.533   2.601  13.366
 3039SOL     OW 9568   1.256   2.193   0.046
 3039SOL    HW1 9569   1.183   2.141   0.081
 3039SOL    HW2 9570   1.332   2.160   0.093
 3040SOL     OW 9571   1.579   3.536  13.341
 3040SOL    HW1 9572   1.671   3.563  13.337
 3040SOL    HW2 9573   1.556   3.515  13.250
 3041SOL     OW 9574   1.048   2.559  13.460
 3041SOL    HW1 9575   1.062   2.549  13.554
 3041SOL    HW2 9576   0.967   2.511  13.442
 3042SOL     OW 9577   0.082   2.696  13.808
 3042SOL    HW1 9578   0.167   2.679  13.848
 3042SOL    HW2 9579   0.074   2.791  13.807
 3043SOL     OW 9580   0.889   2.210  13.225
 3043SOL    HW1 9581   0.933   2.271  13.166
 3043SOL    HW2 9582   0.912   2.123  13.191
 3044SOL     OW 9583   1.365   2.998  13.558
 3044SOL    HW1 9584   1.453   2.995  13.522
 3044SOL    HW2 9585   1.321   3.069  13.510
 3045SOL     OW 9586   1.006   3.306  13.505
 3045SOL    HW1 9587   0.967   3.380  13.457
 3045SOL    HW2 9588   0.978   3.319  13.596
 3046SOL     OW 9589   0.404   3.670  13.821
 3046SOL    HW1 9590   0.436   3.586  13.854
 3046SOL    HW2 9591   0.442   3.735  13.881
 3047SOL     OW 9592   1.792   2.918  13.899
 3047SOL    HW1 9593   1.734   2.907  13.823
 3047SOL    HW2 9594   1.734   2.913   0.075
 3048SOL     OW 9595   0.311   2.817  13.277
 3048SOL    HW1 9596   0.395   2.841  13.239
 3048SOL    HW2 9597   0.296   2.727  13.248
 3049SOL     OW 9598   1.485   2.595  13.746
 3049SOL    HW1 9599   1.475   2.546  13.828
 3049SOL    HW2 9600   1.560   2.653  13.762
 3050SOL     OW 9601   1.112   3.643  13.257
 3050SOL    HW1 9602   1.052   3.594  13.313
 3050SOL    HW2 9603   1.142   3.578  13.193
 3051SOL     OW 9604   1.628   3.242  13.122
 3051SOL    HW1 9605   1.588   3.327  13.105
 3051SOL    HW2 9606   1.559   3.178  13.103
 3052SOL     OW 9607   0.468   3.599  13.354
 3052SOL    HW1 9608   0.505   3.661  13.416
 3052SOL    HW2 9609   0.542   3.572  13.299
 3053SOL     OW 9610   1.401   1.974  13.461
 3053SOL    HW1 9611   1.382   1.949  13.371
 3053SOL    HW2 9612   1.494   1.954  13.472
 3054SOL     OW 9613   0.932   3.551   0.014
 3054SOL    HW1 9614   0.963   3.482   0.073
 3054SOL    HW2 9615   0.885   3.504  13.845
 3055SOL     OW 9616   0.394   2.558  13.506
 3055SOL    HW1 9617   0.424   2.467  13.517
 3055SOL    HW2 9618   0.303   2.557  13.536
 3056SOL     OW 9619   0.631   1.983  13.136
 3056SOL    HW1 9620   0.703   1.921  13.150
 3056SOL    HW2 9621   0.587   1.950  13.057
 3057SOL     OW 9622   0.551   1.925  13.534
 3057SOL    HW1 9623   0.467   1.928  13.579
 3057SOL    HW2 9624   0.557   2.007  13.486
 3058SOL     OW 9625   1.428   3.060  13.075
 3058SOL    HW1 9626   1.459   2.984  13.125
 3058SOL    HW2 9627   1.343   3.080  13.113
 3059SOL     OW 9628   0.305   1.912  13.203
 3059SOL    HW1 9629   0.371   1.952  13.147
 3059SOL    HW2 9630   0.353   1.847  13.255
 3060SOL     OW 9631   0.938   2.102  13.496
 3060SOL    HW1 9632   0.905   2.148  13.419
 3060SOL    HW2 9633   1.032   2.122  13.498
 3061SOL     OW 9634   0.468   3.005  13.773
 3061SOL    HW1 9635   0.393   2.986  13.830
 3061SOL    HW2 9636   0.435   2.993  13.684
 3062SOL     OW 9637   1.271   3.660  13.630
 3062SOL    HW1 9638   1.314   3.727  13.577
 3062SOL    HW2 9639   1.204   3.709  13.679
 3063SOL     OW 9640   1.025   2.405  13.055
 3063SOL    HW1 9641   0.983   2.489  13.036
 3063SOL    HW2 9642   1.090   2.426  13.122
 3064SOL     OW 9643   0.890   2.333  13.668
 3064SOL    HW1 9644   0.822   2.377  13.617
 3064SOL    HW2 9645   0.894   2.245  13.630
 3065SOL     OW 9646   1.025   1.901  13.780
 3065SOL    HW1 9647   0.965   1.913  13.706
 3065SOL    HW2 9648   0.994   1.822  13.824
 3066SOL     OW 9649   1.847   2.680  13.413
 3066SOL    HW1 9650   1.903   2.629  13.472
 3066SOL    HW2 9651   1.819   2.617  13.346
 3067SOL     OW 9652   0.489   3.277  13.196
 3067SOL    HW1 9653   0.414   3.246  13.246
 3067SOL    HW2 9654   0.467   3.257  13.105
 3068SOL     OW 9655   1.679   3.130  13.667
 3068SOL    HW1 9656   1.772   3.134  13.691
 3068SOL    HW2 9657   1.642   3.211  13.702
 3069SOL     OW 9658   1.393   2.434  13.104
 3069SOL    HW1 9659   1.335   2.415  13.177
 3069SOL    HW2 9660   1.479   2.405  13.133
 3070SOL     OW 9661   0.572   2.131  13.357
 3070SOL    HW1 9662   0.597   2.080  13.280
 3070SOL    HW2 9663   0.540   2.214  13.323
 3071SOL     OW 9664   0.707   2.922  13.402
 3071SOL    HW1 9665   0.694   2.909  13.495
 3071SOL    HW2 9666   0.784   2.869  13.381
 3072SOL     OW 9667   0.377   2.964  13.520
 3072SOL    HW1 9668   0.368   3.044  13.467
 3072SOL    HW2 9669   0.374   2.893  13.456
 3073SOL     OW 9670   0.571   2.404  13.869
 3073SOL    HW1 9671   0.582   2.470  13.800
 3073SOL    HW2 9672   0.627   2.434   0.041
 3074SOL     OW 9673   1.247   3.212  13.419
 3074SOL    HW1 9674   1.302   3.285  13.448
 3074SOL    HW2 9675   1.161   3.232  13.455
 3075SOL     OW 9676   1.577   2.491  13.494
 3075SOL    HW1 9677   1.541   2.533  13.572
 3075SOL    HW2 9678   1.628   2.560  13.451
 3076SOL     OW 9679   1.205   2.390  13.301
 3076SOL    HW1 9680   1.213   2.312  13.357
 3076SOL    HW2 9681   1.163   2.455  13.357
 3077SOL     OW 9682   0.301   1.924  13.643
 3077SOL    HW1 9683   0.291   2.014  13.672
 3077SOL    HW2 9684   0.311   1.873  13.723
 3078SOL     OW 9685   1.613   2.238  13.409
 3078SOL    HW1 9686   1.610   2.184  13.488
 3078SOL    HW2 9687   1.591   2.326  13.439
 3079SOL     OW 9688   1.529   2.135  13.163
 3079SOL    HW1 9689   1.463   2.071  13.190
 3079SOL    HW2 9690   1.562   2.171  13.245
 3080SOL     OW 9691   1.292   2.689  13.065
 3080SOL    HW1 9692   1.335   2.603  13.069
 3080SOL    HW2 9693   1.324   2.728  12.984
 3081SOL     OW 9694   3.999   3.183  13.215
 3081SOL    HW1 9695   3.905   3.199  13.220
 3081SOL    HW2 9696   0.009   3.090  13.235
 3082SOL     OW 9697   0.817   2.433  13.385
 3082SOL    HW1 9698   0.818   2.355  13.330
 3082SOL    HW2 9699   0.741   2.482  13.355
 3083SOL     OW 9700   0.460   2.353  13.225
 3083SOL    HW1 9701   0.524   2.421  13.244
 3083SOL    HW2 9702   0.379   2.401  13.207
 3084SOL     OW 9703   1.311   2.716  13.339
 3084SOL    HW1 9704   1.233   2.689  13.389
 3084SOL    HW2 9705   1.286   2.703  13.248
 3085SOL     OW 9706   1.384   3.434  13.508
 3085SOL    HW1 9707   1.445   3.470  13.443
 3085SOL    HW2 9708   1.340   3.511  13.544
 3086SOL     OW 9709   1.286   2.777  13.687
 3086SOL    HW1 9710   1.363   2.721  13.672
 3086SOL    HW2 9711   1.309   2.861  13.647
 3087SOL     OW 9712   0.674   3.477  13.190
 3087SOL    HW1 9713   0.681   3.492  13.096
 3087SOL    HW2 9714   0.618   3.399  13.198
 3088SOL     OW 9715   0.279   2.172  13.742
 3088SOL    HW1 9716   0.196   2.215  13.721
 3088SOL    HW2 9717   0.285   2.177  13.837
 3089SOL     OW 9718   1.207   3.469  13.068
 3089SOL    HW1 9719   1.197   3.377  13.093
 3089SOL    HW2 9720   1.145   3.481  12.996
 3090SOL     OW 9721   0.917   2.773  13.326
 3090SOL    HW1 9722   0.977   2.804  13.258
 3090SOL    HW2 9723   0.963   2.700  13.368
 3091SOL     OW 9724   1.492   3.489  13.075
 3091SOL    HW1 9725   1.397   3.480  13.061
 3091SOL    HW2 9726   1.529   3.494  12.988
 3092SOL     OW 9727   1.049   2.953  13.753
 3092SOL    HW1 9728   0.963   2.912  13.748
 3092SOL    HW2 9729   1.101   2.908  13.687
 3093SOL     OW 9730   0.602   3.355  13.509
 3093SOL    HW1 9731   0.644   3.303  13.440
 3093SOL    HW2 9732   0.533   3.403  13.464
 3094SOL     OW 9733   0.252   3.203  13.324
 3094SOL    HW1 9734   0.159   3.215  13.303
 3094SOL    HW2 9735   0.262   3.242  13.411
 3095SOL     OW 9736   0.080   2.181  13.072
 3095SOL    HW1 9737   3.984   2.180  13.076
 3095SOL    HW2 9738   0.101   2.261  13.023
 3096SOL     OW 9739   0.024   2.092  13.404
 3096SOL    HW1 9740   0.048   2.150  13.332
 3096SOL    HW2 9741   0.106   2.049  13.428
 3097SOL     OW 9742   1.179   3.202  13.150
 3097SOL    HW1 9743   1.088   3.173  13.153
 3097SOL    HW2 9744   1.207   3.202  13.241
 3098SOL     OW 9745   1.217   2.182  13.491
 3098SOL    HW1 9746   1.280   2.111  13.482
 3098SOL    HW2 9747   1.246   2.230  13.569
 3099SOL     OW 9748   0.592   2.611  13.693
 3099SOL    HW1 9749   0.628   2.698  13.675
 3099SOL    HW2 9750   0.522   2.600  13.630
 3100SOL     OW 9751   0.863   3.230  13.067
 3100SOL    HW1 9752   0.823   3.257  13.149
 3100SOL    HW2 9753   0.880   3.312  13.020
 3101SOL     OW 9754   0.655   3.705   0.066
 3101SOL    HW1 9755   0.650   3.799   0.084
 3101SOL    HW2 9756   0.747   3.683   0.079
 3102SOL     OW 9757   0.833   2.824  13.893
 3102SOL    HW1 9758   0.875   2.748   0.033
 3102SOL    HW2 9759   0.842   2.893   0.058
 3103SOL     OW 9760   1.078   2.848  13.122
 3103SOL    HW1 9761   1.057   2.900  13.044
 3103SOL    HW2 9762   1.154   2.796  13.097
 3104SOL     OW 9763   0.113   3.131  13.752
 3104SOL    HW1 9764   0.058   3.082  13.812
 3104SOL    HW2 9765   0.127   3.072  13.678
 3105SOL     OW 9766   0.443   2.299  13.558
 3105SOL    HW1 9767   0.448   2.227  13.496
 3105SOL    HW2 9768   0.399   2.262  13.635
 3106SOL     OW 9769   1.680   3.330   0.334
 3106SOL    HW1 9770   1.651   3.306   0.246
 3106SOL    HW2 9771   1.763   3.282   0.346
 3107SOL     OW 9772   0.820   3.417  13.712
 3107SOL    HW1 9773   0.801   3.467  13.632
 3107SOL    HW2 9774   0.742   3.363  13.725
 3108SOL     OW 9775   0.772   3.194  13.345
 3108SOL    HW1 9776   0.739   3.104  13.352
 3108SOL    HW2 9777   0.854   3.193  13.394
 3109SOL     OW 9778   1.350   1.914  13.199
 3109SOL    HW1 9779   1.378   1.856  13.128
 3109SOL    HW2 9780   1.264   1.882  13.224
 3110SOL     OW 9781   1.304   2.321  13.713
 3110SOL    HW1 9782   1.248   2.399  13.720
 3110SOL    HW2 9783   1.292   2.275  13.796
 3111SOL     OW 9784   0.044   2.914  13.271
 3111SOL    HW1 9785   0.139   2.898  13.264
 3111SOL    HW2 9786   0.010   2.835  13.312
 3112SOL     OW 9787   0.883   3.516  13.379
 3112SOL    HW1 9788   0.812   3.497  13.317
 3112SOL    HW2 9789   0.852   3.591  13.429
 3113SOL     OW 9790   0.234   3.955   0.972
 3113SOL    HW1 9791   0.250   3.963   1.066
 3113SOL    HW2 9792   0.140   3.972   0.963
 3114SOL     OW 9793   0.019   0.093   0.640
 3114SOL    HW1 9794   3.930   0.087   0.675
 3114SOL    HW2 9795   0.014   0.052   0.554
 3115SOL     OW 9796   1.804   0.353   0.267
 3115SOL    HW1 9797   1.781   0.331   0.177
 3115SOL    HW2 9798   1.722   0.346   0.316
 3116SOL     OW 9799   0.441   0.101   1.512
 3116SOL    HW1 9800   0.512   0.061   1.461
 3116SOL    HW2 9801   0.363   0.051   1.487
 3117SOL     OW 9802   1.597   3.846   1.465
 3117SOL    HW1 9803   1.598   3.930   1.419
 3117SOL    HW2 9804   1.583   3.869   1.557
 3118SOL     OW 9805   0.805   3.727   0.503
 3118SOL    HW1 9806   0.834   3.818   0.494
 3118SOL    HW2 9807   0.710   3.733   0.515
 3119SOL     OW 9808   1.269   0.063   0.939
 3119SOL    HW1 9809   1.199   0.007   0.907
 3119SOL    HW2 9810   1.325   0.004   0.990
 3120SOL     OW 9811   0.553   3.905   0.889
 3120SOL    HW1 9812   0.549   3.926   0.982
 3120SOL    HW2 9813   0.548   3.990   0.845
 3121SOL     OW 9814   0.195   3.986   1.498
 3121SOL    HW1 9815   0.107   0.024   1.495
 3121SOL    HW2 9816   0.188   3.913   1.558
 3122SOL     OW 9817   1.407   3.840   0.425
 3122SOL    HW1 9818   1.399   3.796   0.340
 3122SOL    HW2 9819   1.499   3.826   0.450
 3123SOL     OW 9820   1.534   3.942   1.723
 3123SOL    HW1 9821   1.560   3.947   1.815
 3123SOL    HW2 9822   1.470   3.871   1.720
 3124SOL     OW 9823   0.773   3.961   1.745
 3124SOL    HW1 9824   0.832   3.931   1.814
 3124SOL    HW2 9825   0.689   3.976   1.789
 3125SOL     OW 9826   0.532   3.785   0.510
 3125SOL    HW1 9827   0.477   3.787   0.588
 3125SOL    HW2 9828   0.546   3.878   0.489
 3126SOL     OW 9829   0.268   3.739   0.189
 3126SOL    HW1 9830   0.302   3.828   0.176
 3126SOL    HW2 9831   0.341   3.691   0.227
 3127SOL     OW 9832   0.564   3.944   1.165
 3127SOL    HW1 9833   0.602   3.868   1.209
 3127SOL    HW2 9834   0.472   3.944   1.192
 3128SOL     OW 9835   1.018   3.769   0.744
 3128SOL    HW1 9836   0.955   3.758   0.673
 3128SOL    HW2 9837   0.995   3.702   0.808
 3129SOL     OW 9838   0.922   3.805   1.402
 3129SOL    HW1 9839   0.950   3.786   1.312
 3129SOL    HW2 9840   0.994   3.856   1.439
 3130SOL     OW 9841   1.265   0.078   1.264
 3130SOL    HW1 9842   1.284   0.146   1.330
 3130SOL    HW2 9843   1.196   0.117   1.210
 3131SOL     OW 9844   0.504   3.751   1.754
 3131SOL    HW1 9845   0.455   3.704   1.687
 3131SOL    HW2 9846   0.468   3.839   1.753
 3132SOL     OW 9847   0.305   3.926   1.255
 3132SOL    HW1 9848   0.262   3.944   1.338
 3132SOL    HW2 9849   0.288   3.833   1.238
 3133SOL     OW 9850   1.594   3.943   0.150
 3133SOL    HW1 9851   1.513   3.892   0.158
 3133SOL    HW2 9852   1.572   0.029   0.188
 3134SOL     OW 9853   1.164   3.925   1.473
 3134SOL    HW1 9854   1.169   3.998   1.536
 3134SOL    HW2 9855   1.203   3.960   1.393
 3135SOL     OW 9856   0.915   3.824   0.151
 3135SOL    HW1 9857   0.947   3.814   0.061
 3135SOL    HW2 9858   0.972   3.767   0.203
 3136SOL     OW 9859   1.713   3.860   0.515
 3136SOL    HW1 9860   1.791   3.849   0.461
 3136SOL    HW2 9861   1.701   3.774   0.557
 3137SOL     OW 9862   1.835   3.885   0.970
 3137SOL    HW1 9863   1.871   3.803   0.937
 3137SOL    HW2 9864   1.753   3.897   0.922
 3138SOL     OW 9865   0.673   3.911   1.494
 3138SOL    HW1 9866   0.754   3.907   1.444
 3138SOL    HW2 9867   0.700   3.933   1.583
 3139SOL     OW 9868   0.050   0.031   0.043
 3139SOL    HW1 9869   3.963   0.026   0.005
 3139SOL    HW2 9870   0.092   0.105  13.898
 3140SOL     OW 9871   0.126   3.929   0.371
 3140SOL    HW1 9872   0.074   3.976   0.306
 3140SOL    HW2 9873   0.165   3.856   0.322
 3141SOL     OW 9874   1.188   0.012   0.467
 3141SOL    HW1 9875   1.257   3.946   0.464
 3141SOL    HW2 9876   1.212   0.068   0.540
 3142SOL     OW 9877   1.785   0.047   1.642
 3142SOL    HW1 9878   1.761   0.077   1.554
 3142SOL    HW2 9879   1.704   0.010   1.678
 3143SOL     OW 9880   1.818   3.913   1.238
 3143SOL    HW1 9881   1.823   3.822   1.266
 3143SOL    HW2 9882   1.823   3.910   1.143
 3144SOL     OW 9883   1.438   3.935   1.118
 3144SOL    HW1 9884   1.472   3.858   1.163
 3144SOL    HW2 9885   1.378   3.976   1.180
 3145SOL     OW 9886   1.013   3.738   1.151
 3145SOL    HW1 9887   0.955   3.681   1.100
 3145SOL    HW2 9888   1.099   3.697   1.145
 3146SOL     OW 9889   1.349   3.783   0.152
 3146SOL    HW1 9890   1.385   3.715   0.095
 3146SOL    HW2 9891   1.267   3.746   0.185
 3147SOL     OW 9892   1.285   0.163   0.682
 3147SOL    HW1 9893   1.274   0.257   0.690
 3147SOL    HW2 9894   1.292   0.132   0.773
 3148SOL     OW 9895   1.581   3.930   0.877
 3148SOL    HW1 9896   1.527   3.934   0.956
 3148SOL    HW2 9897   1.582   0.019   0.844
 3149SOL     OW 9898   0.233   3.955   2.833
 3149SOL    HW1 9899   0.252   3.963   2.926
 3149SOL    HW2 9900   0.139   3.972   2.825
 3150SOL     OW 9901   0.015   0.100   2.494
 3150SOL    HW1 9902   3.931   0.092   2.539
 3150SOL    HW2 9903   0.007   0.044   2.417
 3151SOL     OW 9904   1.777   0.321   2.058
 3151SOL    HW1 9905   1.704   0.303   1.999
 3151SOL    HW2 9906   1.737   0.330   2.144
 3152SOL     OW 9907   0.441   0.101   3.373
 3152SOL    HW1 9908   0.512   0.061   3.323
 3152SOL    HW2 9909   0.363   0.051   3.349
 3153SOL     OW 9910   1.597   3.846   3.327
 3153SOL    HW1 9911   1.598   3.930   3.281
 3153SOL    HW2 9912   1.583   3.869   3.419
 3154SOL     OW 9913   0.805   3.728   2.363
 3154SOL    HW1 9914   0.833   3.820   2.358
 3154SOL    HW2 9915   0.710   3.732   2.376
 3155SOL     OW 9916   1.269   0.063   2.802
 3155SOL    HW1 9917   1.199   0.007   2.769
 3155SOL    HW2 9918   1.325   0.004   2.852
 3156SOL     OW 9919   0.552   3.905   2.751
 3156SOL    HW1 9920   0.549   3.925   2.844
 3156SOL    HW2 9921   0.548   3.991   2.708
 3157SOL     OW 9922   0.195   3.986   3.360
 3157SOL    HW1 9923   0.107   0.024   3.357
 3157SOL    HW2 9924   0.188   3.913   3.420
 3158SOL     OW 9925   1.405   3.835   2.289
 3158SOL    HW1 9926   1.396   3.800   2.200
 3158SOL    HW2 9927   1.498   3.826   2.308
 3159SOL     OW 9928   1.534   3.942   3.585
 3159SOL    HW1 9929   1.560   3.947   3.677
 3159SOL    HW2 9930   1.470   3.871   3.582
 3160SOL     OW 9931   0.623   3.851   1.982
 3160SOL    HW1 9932   0.714   3.821   1.990
 3160SOL    HW2 9933   0.588   3.803   1.908
 3161SOL     OW 9934   0.773   3.961   3.607
 3161SOL    HW1 9935   0.832   3.932   3.675
 3161SOL    HW2 9936   0.689   3.976   3.651
 3162SOL     OW 9937   0.532   3.787   2.372
 3162SOL    HW1 9938   0.479   3.790   2.451
 3162SOL    HW2 9939   0.545   3.878   2.348
 3163SOL     OW 9940   0.288   3.757   2.041
 3163SOL    HW1 9941   0.336   3.836   2.019
 3163SOL    HW2 9942   0.354   3.700   2.081
 3164SOL     OW 9943   0.564   3.943   3.026
 3164SOL    HW1 9944   0.602   3.868   3.071
 3164SOL    HW2 9945   0.472   3.944   3.054
 3165SOL     OW 9946   1.018   3.769   2.606
 3165SOL    HW1 9947   0.955   3.758   2.535
 3165SOL    HW2 9948   0.995   3.702   2.670
 3166SOL     OW 9949   0.922   3.805   3.263
 3166SOL    HW1 9950   0.950   3.786   3.174
 3166SOL    HW2 9951   0.994   3.856   3.301
 3167SOL     OW 9952   1.265   0.078   3.126
 3167SOL    HW1 9953   1.284   0.146   3.192
 3167SOL    HW2 9954   1.197   0.117   3.071
 3168SOL     OW 9955   0.504   3.751   3.615
 3168SOL    HW1 9956   0.454   3.704   3.549
 3168SOL    HW2 9957   0.468   3.839   3.616
 3169SOL     OW 9958   0.305   3.926   3.116
 3169SOL    HW1 9959   0.262   3.944   3.200
 3169SOL    HW2 9960   0.288   3.833   3.100
 3170SOL     OW 9961   1.575   3.957   1.983
 3170SOL    HW1 9962   1.515   3.901   2.031
 3170SOL    HW2 9963   1.598   0.026   2.046
 3171SOL     OW 9964   1.164   3.925   3.335
 3171SOL    HW1 9965   1.169   3.997   3.398
 3171SOL    HW2 9966   1.203   3.960   3.255
 3172SOL     OW 9967   0.900   3.812   1.971
 3172SOL    HW1 9968   0.963   3.781   1.906
 3172SOL    HW2 9969   0.939   3.788   2.055
 3173SOL     OW 9970   1.715   3.859   2.369
 3173SOL    HW1 9971   1.791   3.844   2.313
 3173SOL    HW2 9972   1.702   3.775   2.414
 3174SOL     OW 9973   1.835   3.885   2.832
 3174SOL    HW1 9974   1.871   3.803   2.800
 3174SOL    HW2 9975   1.753   3.897   2.784
 3175SOL     OW 9976   0.672   3.911   3.356
 3175SOL    HW1 9977   0.754   3.907   3.307
 3175SOL    HW2 9978   0.699   3.933   3.445
 3176SOL     OW 9979   0.070   0.035   1.842
 3176SOL    HW1 9980   3.977   0.032   1.866
 3176SOL    HW2 9981   0.101   0.119   1.875
 3177SOL     OW 9982   0.104   3.910   2.227
 3177SOL    HW1 9983   0.079   3.991   2.183
 3177SOL    HW2 9984   0.183   3.881   2.181
 3178SOL     OW 9985   1.188   0.012   2.331
 3178SOL    HW1 9986   1.260   3.949   2.324
 3178SOL    HW2 9987   1.213   0.069   2.404
 3179SOL     OW 9988   1.785   0.047   3.504
 3179SOL    HW1 9989   1.761   0.077   3.416
 3179SOL    HW2 9990   1.704   0.010   3.540
 3180SOL     OW 9991   1.817   3.913   3.100
 3180SOL    HW1 9992   1.823   3.822   3.128
 3180SOL    HW2 9993   1.823   3.910   3.005
 3181SOL     OW 9994   1.438   3.934   2.980
 3181SOL    HW1 9995   1.472   3.858   3.026
 3181SOL    HW2 9996   1.378   3.976   3.042
 3182SOL     OW 9997   1.012   3.738   3.013
 3182SOL    HW1 9998   0.955   3.680   2.962
 3182SOL    HW2 9999   1.099   3.697   3.008
 3183SOL     OW10000   1.352   3.772   2.021
 3183SOL    HW110001   1.382   3.706   1.959
 3183SOL    HW210002   1.265   3.741   2.048
 3184SOL     OW10003   1.283   0.162   2.547
 3184SOL    HW110004   1.275   0.257   2.552
 3184SOL    HW210005   1.291   0.133   2.637
 3185SOL     OW10006   1.581   3.929   2.739
 3185SOL    HW110007   1.527   3.934   2.818
 3185SOL    HW210008   1.582   0.019   2.705
 3186SOL     OW10009   0.233   3.955   4.695
 3186SOL    HW110010   0.252   3.963   4.788
 3186SOL    HW210011   0.140   3.972   4.687
 3187SOL     OW10012   0.015   0.101   4.356
 3187SOL    HW110013   3.931   0.092   4.401
 3187SOL    HW210014   0.007   0.044   4.279
 3188SOL     OW10015   1.777   0.321   3.920
 3188SOL    HW110016   1.704   0.303   3.861
 3188SOL    HW210017   1.737   0.330   4.006
 3189SOL     OW10018   0.441   0.101   5.235
 3189SOL    HW110019   0.512   0.060   5.185
 3189SOL    HW210020   0.363   0.051   5.211
 3190SOL     OW10021   1.597   3.846   5.189
 3190SOL    HW110022   1.598   3.930   5.144
 3190SOL    HW210023   1.583   3.869   5.281
 3191SOL     OW10024   0.805   3.728   4.225
 3191SOL    HW110025   0.833   3.820   4.220
 3191SOL    HW210026   0.710   3.732   4.238
 3192SOL     OW10027   1.269   0.063   4.664
 3192SOL    HW110028   1.199   0.007   4.631
 3192SOL    HW210029   1.325   0.004   4.714
 3193SOL     OW10030   0.552   3.905   4.613
 3193SOL    HW110031   0.549   3.925   4.706
 3193SOL    HW210032   0.548   3.991   4.570
 3194SOL     OW10033   0.195   3.986   5.222
 3194SOL    HW110034   0.107   0.024   5.219
 3194SOL    HW210035   0.188   3.913   5.283
 3195SOL     OW10036   1.405   3.835   4.151
 3195SOL    HW110037   1.396   3.800   4.062
 3195SOL    HW210038   1.498   3.826   4.170
 3196SOL     OW10039   1.534   3.942   5.447
 3196SOL    HW110040   1.560   3.947   5.539
 3196SOL    HW210041   1.470   3.872   5.444
 3197SOL     OW10042   0.624   3.851   3.844
 3197SOL    HW110043   0.714   3.821   3.852
 3197SOL    HW210044   0.588   3.803   3.770
 3198SOL     OW10045   0.773   3.961   5.469
 3198SOL    HW110046   0.832   3.931   5.538
 3198SOL    HW210047   0.690   3.977   5.513
 3199SOL     OW10048   0.532   3.787   4.234
 3199SOL    HW110049   0.479   3.790   4.313
 3199SOL    HW210050   0.545   3.878   4.210
 3200SOL     OW10051   0.288   3.757   3.902
 3200SOL    HW110052   0.336   3.837   3.881
 3200SOL    HW210053   0.354   3.700   3.943
 3201SOL     OW10054   0.564   3.943   4.888
 3201SOL    HW110055   0.602   3.868   4.933
 3201SOL    HW210056   0.472   3.944   4.916
 3202SOL     OW10057   1.018   3.769   4.468
 3202SOL    HW110058   0.955   3.758   4.397
 3202SOL    HW210059   0.995   3.702   4.532
 3203SOL     OW10060   0.922   3.805   5.126
 3203SOL    HW110061   0.950   3.786   5.036
 3203SOL    HW210062   0.994   3.856   5.163
 3204SOL     OW10063   1.265   0.078   4.988
 3204SOL    HW110064   1.284   0.146   5.054
 3204SOL    HW210065   1.197   0.117   4.933
 3205SOL     OW10066   0.505   3.751   5.477
 3205SOL    HW110067   0.454   3.704   5.411
 3205SOL    HW210068   0.468   3.839   5.478
 3206SOL     OW10069   0.305   3.926   4.978
 3206SOL    HW110070   0.262   3.944   5.062
 3206SOL    HW210071   0.288   3.833   4.962
 3207SOL     OW10072   1.575   3.957   3.845
 3207SOL    HW110073   1.515   3.901   3.893
 3207SOL    HW210074   1.598   0.026   3.908
 3208SOL     OW10075   1.164   3.925   5.197
 3208SOL    HW110076   1.169   3.997   5.260
 3208SOL    HW210077   1.203   3.961   5.117
 3209SOL     OW10078   0.900   3.812   3.833
 3209SOL    HW110079   0.963   3.781   3.768
 3209SOL    HW210080   0.939   3.788   3.917
 3210SOL     OW10081   1.715   3.859   4.231
 3210SOL    HW110082   1.791   3.844   4.175
 3210SOL    HW210083   1.702   3.775   4.276
 3211SOL     OW10084   1.835   3.885   4.694
 3211SOL    HW110085   1.871   3.803   4.662
 3211SOL    HW210086   1.753   3.897   4.646
 3212SOL     OW10087   0.672   3.911   5.218
 3212SOL    HW110088   0.754   3.907   5.169
 3212SOL    HW210089   0.699   3.933   5.307
 3213SOL     OW10090   0.070   0.035   3.703
 3213SOL    HW110091   3.977   0.032   3.727
 3213SOL    HW210092   0.101   0.119   3.737
 3214SOL     OW10093   0.104   3.910   4.089
 3214SOL    HW110094   0.079   3.992   4.045
 3214SOL    HW210095   0.183   3.881   4.043
 3215SOL     OW10096   1.188   0.012   4.193
 3215SOL    HW110097   1.260   3.949   4.186
 3215SOL    HW210098   1.213   0.069   4.265
 3216SOL     OW10099   1.785   0.047   5.366
 3216SOL    HW110100   1.760   0.077   5.278
 3216SOL    HW210101   1.704   0.010   5.402
 3217SOL     OW10102   1.817   3.913   4.962
 3217SOL    HW110103   1.823   3.822   4.991
 3217SOL    HW210104   1.823   3.910   4.867
 3218SOL     OW10105   1.438   3.934   4.842
 3218SOL    HW110106   1.472   3.858   4.888
 3218SOL    HW210107   1.378   3.976   4.904
 3219SOL     OW10108   1.013   3.738   4.875
 3219SOL    HW110109   0.955   3.680   4.824
 3219SOL    HW210110   1.099   3.697   4.869
 3220SOL     OW10111   1.352   3.772   3.883
 3220SOL    HW110112   1.382   3.706   3.821
 3220SOL    HW210113   1.265   3.741   3.910
 3221SOL     OW10114   1.283   0.162   4.408
 3221SOL    HW110115   1.275   0.257   4.414
 3221SOL    HW210116   1.291   0.133   4.499
 3222SOL     OW10117   1.581   3.929   4.601
 3222SOL    HW110118   1.527   3.934   4.680
 3222SOL    HW210119   1.582   0.019   4.567
 3223SOL     OW10120   0.234   3.955   6.557
 3223SOL    HW110121   0.252   3.963   6.650
 3223SOL    HW210122   0.140   3.972   6.549
 3224SOL     OW10123   0.015   0.101   6.218
 3224SOL    HW110124   3.931   0.092   6.263
 3224SOL    HW210125   0.007   0.044   6.141
 3225SOL     OW10126   1.777   0.320   5.782
 3225SOL    HW110127   1.704   0.302   5.723
 3225SOL    HW210128   1.737   0.330   5.868
 3226SOL     OW10129   0.441   0.101   7.098
 3226SOL    HW110130   0.512   0.061   7.047
 3226SOL    HW210131   0.363   0.051   7.073
 3227SOL     OW10132   1.597   3.846   7.051
 3227SOL    HW110133   1.598   3.930   7.006
 3227SOL    HW210134   1.583   3.869   7.143
 3228SOL     OW10135   0.805   3.728   6.087
 3228SOL    HW110136   0.833   3.819   6.082
 3228SOL    HW210137   0.710   3.732   6.100
 3229SOL     OW10138   1.269   0.063   6.526
 3229SOL    HW110139   1.199   0.007   6.493
 3229SOL    HW210140   1.325   0.004   6.576
 3230SOL     OW10141   0.553   3.905   6.475
 3230SOL    HW110142   0.549   3.925   6.568
 3230SOL    HW210143   0.548   3.991   6.432
 3231SOL     OW10144   0.195   3.986   7.084
 3231SOL    HW110145   0.107   0.024   7.081
 3231SOL    HW210146   0.187   3.912   7.144
 3232SOL     OW10147   1.405   3.835   6.013
 3232SOL    HW110148   1.396   3.800   5.924
 3232SOL    HW210149   1.498   3.826   6.033
 3233SOL     OW10150   1.534   3.942   7.309
 3233SOL    HW110151   1.560   3.947   7.401
 3233SOL    HW210152   1.470   3.871   7.306
 3234SOL     OW10153   0.624   3.851   5.706
 3234SOL    HW110154   0.714   3.821   5.714
 3234SOL    HW210155   0.588   3.803   5.631
 3235SOL     OW10156   0.773   3.961   7.331
 3235SOL    HW110157   0.832   3.932   7.400
 3235SOL    HW210158   0.689   3.976   7.375
 3236SOL     OW10159   0.532   3.787   6.096
 3236SOL    HW110160   0.479   3.789   6.175
 3236SOL    HW210161   0.545   3.878   6.072
 3237SOL     OW10162   0.288   3.757   5.764
 3237SOL    HW110163   0.336   3.837   5.743
 3237SOL    HW210164   0.354   3.700   5.805
 3238SOL     OW10165   0.564   3.943   6.750
 3238SOL    HW110166   0.602   3.868   6.796
 3238SOL    HW210167   0.472   3.944   6.778
 3239SOL     OW10168   1.018   3.769   6.330
 3239SOL    HW110169   0.955   3.758   6.259
 3239SOL    HW210170   0.995   3.702   6.394
 3240SOL     OW10171   0.922   3.805   6.988
 3240SOL    HW110172   0.950   3.786   6.898
 3240SOL    HW210173   0.994   3.856   7.025
 3241SOL     OW10174   1.265   0.078   6.850
 3241SOL    HW110175   1.284   0.146   6.915
 3241SOL    HW210176   1.197   0.117   6.795
 3242SOL     OW10177   0.504   3.751   7.340
 3242SOL    HW110178   0.454   3.704   7.273
 3242SOL    HW210179   0.468   3.839   7.339
 3243SOL     OW10180   0.305   3.926   6.840
 3243SOL    HW110181   0.262   3.944   6.924
 3243SOL    HW210182   0.288   3.833   6.824
 3244SOL     OW10183   1.575   3.957   5.707
 3244SOL    HW110184   1.515   3.901   5.755
 3244SOL    HW210185   1.598   0.026   5.770
 3245SOL     OW10186   1.164   3.925   7.059
 3245SOL    HW110187   1.169   3.997   7.122
 3245SOL    HW210188   1.203   3.960   6.979
 3246SOL     OW10189   0.900   3.812   5.695
 3246SOL    HW110190   0.963   3.781   5.630
 3246SOL    HW210191   0.939   3.789   5.779
 3247SOL     OW10192   1.715   3.859   6.093
 3247SOL    HW110193   1.791   3.844   6.037
 3247SOL    HW210194   1.702   3.775   6.138
 3248SOL     OW10195   1.835   3.886   6.556
 3248SOL    HW110196   1.871   3.803   6.524
 3248SOL    HW210197   1.753   3.897   6.508
 3249SOL     OW10198   0.672   3.911   7.080
 3249SOL    HW110199   0.754   3.907   7.031
 3249SOL    HW210200   0.699   3.933   7.169
 3250SOL     OW10201   0.070   0.035   5.565
 3250SOL    HW110202   3.977   0.032   5.589
 3250SOL    HW210203   0.101   0.119   5.599
 3251SOL     OW10204   0.104   3.910   5.951
 3251SOL    HW110205   0.079   3.992   5.907
 3251SOL    HW210206   0.182   3.881   5.905
 3252SOL     OW10207   1.188   0.012   6.055
 3252SOL    HW110208   1.260   3.949   6.049
 3252SOL    HW210209   1.213   0.069   6.127
 3253SOL     OW10210   1.785   0.046   7.228
 3253SOL    HW110211   1.761   0.077   7.141
 3253SOL    HW210212   1.704   0.010   7.264
 3254SOL     OW10213   1.817   3.913   6.824
 3254SOL    HW110214   1.823   3.822   6.852
 3254SOL    HW210215   1.823   3.909   6.729
 3255SOL     OW10216   1.437   3.934   6.704
 3255SOL    HW110217   1.472   3.858   6.750
 3255SOL    HW210218   1.378   3.976   6.766
 3256SOL     OW10219   1.012   3.738   6.737
 3256SOL    HW110220   0.955   3.680   6.686
 3256SOL    HW210221   1.099   3.697   6.731
 3257SOL     OW10222   1.352   3.772   5.745
 3257SOL    HW110223   1.382   3.706   5.683
 3257SOL    HW210224   1.265   3.741   5.772
 3258SOL     OW10225   1.283   0.162   6.270
 3258SOL    HW110226   1.275   0.257   6.277
 3258SOL    HW210227   1.291   0.132   6.361
 3259SOL     OW10228   1.581   3.930   6.463
 3259SOL    HW110229   1.527   3.934   6.542
 3259SOL    HW210230   1.582   0.019   6.430
 3260SOL     OW10231   0.233   3.955   8.419
 3260SOL    HW110232   0.252   3.963   8.512
 3260SOL    HW210233   0.140   3.972   8.411
 3261SOL     OW10234   0.015   0.100   8.080
 3261SOL    HW110235   3.931   0.092   8.125
 3261SOL    HW210236   0.007   0.044   8.003
 3262SOL     OW10237   1.777   0.321   7.645
 3262SOL    HW110238   1.704   0.303   7.585
 3262SOL    HW210239   1.736   0.330   7.730
 3263SOL     OW10240   0.441   0.101   8.960
 3263SOL    HW110241   0.512   0.061   8.909
 3263SOL    HW210242   0.363   0.051   8.935
 3264SOL     OW10243   1.597   3.846   8.913
 3264SOL    HW110244   1.598   3.930   8.867
 3264SOL    HW210245   1.583   3.869   9.005
 3265SOL     OW10246   0.805   3.728   7.949
 3265SOL    HW110247   0.833   3.820   7.944
 3265SOL    HW210248   0.710   3.732   7.962
 3266SOL     OW10249   1.269   0.063   8.389
 3266SOL    HW110250   1.199   0.007   8.355
 3266SOL    HW210251   1.325   0.004   8.438
 3267SOL     OW10252   0.552   3.905   8.337
 3267SOL    HW110253   0.549   3.925   8.430
 3267SOL    HW210254   0.548   3.991   8.294
 3268SOL     OW10255   0.195   3.986   8.946
 3268SOL    HW110256   0.107   0.024   8.943
 3268SOL    HW210257   0.188   3.913   9.006
 3269SOL     OW10258   1.405   3.834   7.875
 3269SOL    HW110259   1.396   3.800   7.786
 3269SOL    HW210260   1.498   3.826   7.894
 3270SOL     OW10261   1.534   3.942   9.171
 3270SOL    HW110262   1.560   3.947   9.263
 3270SOL    HW210263   1.470   3.872   9.168
 3271SOL     OW10264   0.623   3.851   7.569
 3271SOL    HW110265   0.714   3.821   7.576
 3271SOL    HW210266   0.588   3.803   7.494
 3272SOL     OW10267   0.773   3.961   9.193
 3272SOL    HW110268   0.832   3.932   9.262
 3272SOL    HW210269   0.689   3.976   9.237
 3273SOL     OW10270   0.532   3.787   7.958
 3273SOL    HW110271   0.478   3.790   8.037
 3273SOL    HW210272   0.545   3.878   7.934
 3274SOL     OW10273   0.288   3.757   7.627
 3274SOL    HW110274   0.336   3.836   7.604
 3274SOL    HW210275   0.354   3.700   7.667
 3275SOL     OW10276   0.564   3.943   8.612
 3275SOL    HW110277   0.602   3.868   8.657
 3275SOL    HW210278   0.472   3.944   8.640
 3276SOL     OW10279   1.018   3.769   8.192
 3276SOL    HW110280   0.955   3.758   8.121
 3276SOL    HW210281   0.995   3.702   8.256
 3277SOL     OW10282   0.922   3.805   8.850
 3277SOL    HW110283   0.950   3.786   8.760
 3277SOL    HW210284   0.994   3.856   8.887
 3278SOL     OW10285   1.265   0.078   8.712
 3278SOL    HW110286   1.284   0.146   8.777
 3278SOL    HW210287   1.197   0.117   8.657
 3279SOL     OW10288   0.504   3.751   9.202
 3279SOL    HW110289   0.454   3.704   9.135
 3279SOL    HW210290   0.468   3.839   9.201
 3280SOL     OW10291   0.305   3.926   8.702
 3280SOL    HW110292   0.262   3.944   8.786
 3280SOL    HW210293   0.288   3.833   8.686
 3281SOL     OW10294   1.575   3.957   7.569
 3281SOL    HW110295   1.514   3.901   7.617
 3281SOL    HW210296   1.598   0.026   7.631
 3282SOL     OW10297   1.164   3.925   8.922
 3282SOL    HW110298   1.169   3.998   8.984
 3282SOL    HW210299   1.203   3.960   8.841
 3283SOL     OW10300   0.900   3.812   7.557
 3283SOL    HW110301   0.963   3.781   7.492
 3283SOL    HW210302   0.939   3.788   7.641
 3284SOL     OW10303   1.715   3.859   7.955
 3284SOL    HW110304   1.791   3.844   7.899
 3284SOL    HW210305   1.702   3.775   8.000
 3285SOL     OW10306   1.835   3.885   8.418
 3285SOL    HW110307   1.871   3.803   8.386
 3285SOL    HW210308   1.753   3.897   8.370
 3286SOL     OW10309   0.673   3.911   8.942
 3286SOL    HW110310   0.754   3.907   8.893
 3286SOL    HW210311   0.699   3.933   9.031
 3287SOL     OW10312   0.070   0.035   7.428
 3287SOL    HW110313   3.977   0.032   7.452
 3287SOL    HW210314   0.101   0.119   7.461
 3288SOL     OW10315   0.104   3.910   7.813
 3288SOL    HW110316   0.079   3.991   7.769
 3288SOL    HW210317   0.183   3.881   7.767
 3289SOL     OW10318   1.188   0.011   7.918
 3289SOL    HW110319   1.260   3.949   7.910
 3289SOL    HW210320   1.213   0.069   7.990
 3290SOL     OW10321   1.785   0.047   9.090
 3290SOL    HW110322   1.761   0.077   9.002
 3290SOL    HW210323   1.704   0.010   9.126
 3291SOL     OW10324   1.817   3.913   8.686
 3291SOL    HW110325   1.823   3.822   8.714
 3291SOL    HW210326   1.823   3.910   8.591
 3292SOL     OW10327   1.438   3.934   8.566
 3292SOL    HW110328   1.472   3.858   8.612
 3292SOL    HW210329   1.378   3.976   8.628
 3293SOL     OW10330   1.012   3.738   8.599
 3293SOL    HW110331   0.955   3.681   8.548
 3293SOL    HW210332   1.099   3.697   8.594
 3294SOL     OW10333   1.352   3.772   7.607
 3294SOL    HW110334   1.382   3.706   7.545
 3294SOL    HW210335   1.265   3.741   7.634
 3295SOL     OW10336   1.283   0.162   8.133
 3295SOL    HW110337   1.275   0.257   8.138
 3295SOL    HW210338   1.291   0.133   8.224
 3296SOL     OW10339   1.581   3.929   8.325
 3296SOL    HW110340   1.527   3.934   8.404
 3296SOL    HW210341   1.582   0.019   8.291
 3297SOL     OW10342   0.233   3.955  10.281
 3297SOL    HW110343   0.252   3.963  10.374
 3297SOL    HW210344   0.140   3.972  10.273
 3298SOL     OW10345   0.015   0.100   9.942
 3298SOL    HW110346   3.931   0.092   9.987
 3298SOL    HW210347   0.007   0.044   9.865
 3299SOL     OW10348   1.777   0.321   9.506
 3299SOL    HW110349   1.704   0.303   9.447
 3299SOL    HW210350   1.736   0.330   9.592
 3300SOL     OW10351   0.441   0.101  10.822
 3300SOL    HW110352   0.512   0.061  10.771
 3300SOL    HW210353   0.363   0.051  10.797
 3301SOL     OW10354   1.597   3.846  10.775
 3301SOL    HW110355   1.598   3.930  10.729
 3301SOL    HW210356   1.583   3.869  10.867
 3302SOL     OW10357   0.805   3.728   9.811
 3302SOL    HW110358   0.833   3.819   9.806
 3302SOL    HW210359   0.710   3.732   9.824
 3303SOL     OW10360   1.269   0.063  10.250
 3303SOL    HW110361   1.199   0.007  10.217
 3303SOL    HW210362   1.325   0.004  10.300
 3304SOL     OW10363   0.552   3.905  10.199
 3304SOL    HW110364   0.549   3.925  10.292
 3304SOL    HW210365   0.548   3.991  10.156
 3305SOL     OW10366   0.195   3.986  10.808
 3305SOL    HW110367   0.107   0.024  10.805
 3305SOL    HW210368   0.188   3.913  10.868
 3306SOL     OW10369   1.405   3.834   9.737
 3306SOL    HW110370   1.396   3.800   9.648
 3306SOL    HW210371   1.498   3.826   9.756
 3307SOL     OW10372   1.534   3.942  11.033
 3307SOL    HW110373   1.560   3.947  11.125
 3307SOL    HW210374   1.470   3.871  11.030
 3308SOL     OW10375   0.623   3.851   9.431
 3308SOL    HW110376   0.714   3.821   9.438
 3308SOL    HW210377   0.588   3.803   9.356
 3309SOL     OW10378   0.773   3.961  11.055
 3309SOL    HW110379   0.832   3.932  11.124
 3309SOL    HW210380   0.689   3.976  11.099
 3310SOL     OW10381   0.532   3.787   9.820
 3310SOL    HW110382   0.478   3.790   9.899
 3310SOL    HW210383   0.545   3.878   9.796
 3311SOL     OW10384   0.288   3.757   9.489
 3311SOL    HW110385   0.336   3.836   9.467
 3311SOL    HW210386   0.354   3.700   9.529
 3312SOL     OW10387   0.564   3.943  10.474
 3312SOL    HW110388   0.602   3.868  10.519
 3312SOL    HW210389   0.472   3.944  10.502
 3313SOL     OW10390   1.018   3.769  10.054
 3313SOL    HW110391   0.955   3.758   9.983
 3313SOL    HW210392   0.995   3.702  10.118
 3314SOL     OW10393   0.922   3.805  10.712
 3314SOL    HW110394   0.950   3.786  10.622
 3314SOL    HW210395   0.994   3.856  10.749
 3315SOL     OW10396   1.265   0.078  10.574
 3315SOL    HW110397   1.284   0.146  10.639
 3315SOL    HW210398   1.197   0.117  10.519
 3316SOL     OW10399   0.504   3.751  11.064
 3316SOL    HW110400   0.454   3.704  10.997
 3316SOL    HW210401   0.468   3.839  11.063
 3317SOL     OW10402   0.305   3.926  10.564
 3317SOL    HW110403   0.262   3.944  10.648
 3317SOL    HW210404   0.288   3.833  10.548
 3318SOL     OW10405   1.575   3.957   9.431
 3318SOL    HW110406   1.514   3.901   9.479
 3318SOL    HW210407   1.598   0.026   9.494
 3319SOL     OW10408   1.164   3.925  10.784
 3319SOL    HW110409   1.169   3.998  10.846
 3319SOL    HW210410   1.203   3.960  10.703
 3320SOL     OW10411   0.900   3.812   9.419
 3320SOL    HW110412   0.963   3.781   9.354
 3320SOL    HW210413   0.939   3.788   9.503
 3321SOL     OW10414   1.715   3.859   9.817
 3321SOL    HW110415   1.791   3.844   9.761
 3321SOL    HW210416   1.702   3.775   9.862
 3322SOL     OW10417   1.835   3.885  10.280
 3322SOL    HW110418   1.871   3.803  10.248
 3322SOL    HW210419   1.753   3.897  10.232
 3323SOL     OW10420   0.673   3.911  10.804
 3323SOL    HW110421   0.754   3.907  10.755
 3323SOL    HW210422   0.699   3.933  10.893
 3324SOL     OW10423   0.070   0.035   9.290
 3324SOL    HW110424   3.977   0.032   9.314
 3324SOL    HW210425   0.101   0.119   9.323
 3325SOL     OW10426   0.104   3.910   9.675
 3325SOL    HW110427   0.079   3.991   9.631
 3325SOL    HW210428   0.183   3.881   9.629
 3326SOL     OW10429   1.188   0.011   9.780
 3326SOL    HW110430   1.260   3.949   9.772
 3326SOL    HW210431   1.213   0.069   9.851
 3327SOL     OW10432   1.785   0.046  10.952
 3327SOL    HW110433   1.761   0.077  10.864
 3327SOL    HW210434   1.704   0.010  10.988
 3328SOL     OW10435   1.817   3.913  10.548
 3328SOL    HW110436   1.823   3.822  10.576
 3328SOL    HW210437   1.823   3.910  10.453
 3329SOL     OW10438   1.438   3.934  10.428
 3329SOL    HW110439   1.472   3.858  10.474
 3329SOL    HW210440   1.378   3.976  10.490
 3330SOL     OW10441   1.012   3.738  10.461
 3330SOL    HW110442   0.955   3.680  10.410
 3330SOL    HW210443   1.099   3.697  10.455
 3331SOL     OW10444   1.352   3.772   9.469
 3331SOL    HW110445   1.382   3.706   9.407
 3331SOL    HW210446   1.265   3.741   9.496
 3332SOL     OW10447   1.283   0.162   9.995
 3332SOL    HW110448   1.275   0.257  10.000
 3332SOL    HW210449   1.291   0.133  10.085
 3333SOL     OW10450   1.581   3.929  10.187
 3333SOL    HW110451   1.527   3.934  10.266
 3333SOL    HW210452   1.582   0.019  10.153
 3334SOL     OW10453   0.233   3.955  12.143
 3334SOL    HW110454   0.252   3.963  12.236
 3334SOL    HW210455   0.139   3.972  12.135
 3335SOL     OW10456   0.015   0.100  11.804
 3335SOL    HW110457   3.931   0.092  11.849
 3335SOL    HW210458   0.007   0.044  11.727
 3336SOL     OW10459   1.777   0.321  11.368
 3336SOL    HW110460   1.704   0.303  11.309
 3336SOL    HW210461   1.736   0.330  11.454
 3337SOL     OW10462   0.441   0.101  12.684
 3337SOL    HW110463   0.512   0.062  12.633
 3337SOL    HW210464   0.363   0.051  12.659
 3338SOL     OW10465   1.597   3.846  12.637
 3338SOL    HW110466   1.598   3.930  12.591
 3338SOL    HW210467   1.583   3.869  12.729
 3339SOL     OW10468   0.805   3.728  11.673
 3339SOL    HW110469   0.833   3.819  11.668
 3339SOL    HW210470   0.710   3.732  11.686
 3340SOL     OW10471   1.269   0.063  12.113
 3340SOL    HW110472   1.199   0.007  12.079
 3340SOL    HW210473   1.325   0.004  12.162
 3341SOL     OW10474   0.552   3.905  12.061
 3341SOL    HW110475   0.549   3.925  12.154
 3341SOL    HW210476   0.548   3.991  12.018
 3342SOL     OW10477   0.195   3.986  12.669
 3342SOL    HW110478   0.107   0.024  12.667
 3342SOL    HW210479   0.187   3.912  12.729
 3343SOL     OW10480   1.405   3.834  11.599
 3343SOL    HW110481   1.396   3.800  11.510
 3343SOL    HW210482   1.498   3.827  11.618
 3344SOL     OW10483   1.534   3.942  12.895
 3344SOL    HW110484   1.559   3.948  12.987
 3344SOL    HW210485   1.470   3.871  12.892
 3345SOL     OW10486   0.623   3.851  11.293
 3345SOL    HW110487   0.714   3.821  11.300
 3345SOL    HW210488   0.588   3.803  11.218
 3346SOL     OW10489   0.772   3.961  12.917
 3346SOL    HW110490   0.833   3.932  12.985
 3346SOL    HW210491   0.689   3.975  12.962
 3347SOL     OW10492   0.532   3.787  11.682
 3347SOL    HW110493   0.478   3.790  11.761
 3347SOL    HW210494   0.545   3.878  11.658
 3348SOL     OW10495   0.288   3.757  11.351
 3348SOL    HW110496   0.336   3.836  11.329
 3348SOL    HW210497   0.354   3.700  11.391
 3349SOL     OW10498   0.564   3.943  12.336
 3349SOL    HW110499   0.602   3.868  12.381
 3349SOL    HW210500   0.472   3.944  12.364
 3350SOL     OW10501   1.018   3.769  11.916
 3350SOL    HW110502   0.955   3.758  11.845
 3350SOL    HW210503   0.995   3.702  11.980
 3351SOL     OW10504   0.922   3.805  12.573
 3351SOL    HW110505   0.950   3.786  12.484
 3351SOL    HW210506   0.994   3.856  12.611
 3352SOL     OW10507   1.265   0.078  12.436
 3352SOL    HW110508   1.285   0.146  12.501
 3352SOL    HW210509   1.197   0.117  12.381
 3353SOL     OW10510   0.504   3.751  12.926
 3353SOL    HW110511   0.454   3.704  12.859
 3353SOL    HW210512   0.468   3.840  12.924
 3354SOL     OW10513   0.305   3.926  12.426
 3354SOL    HW110514   0.262   3.944  12.510
 3354SOL    HW210515   0.288   3.833  12.410
 3355SOL     OW10516   1.575   3.957  11.293
 3355SOL    HW110517   1.514   3.901  11.341
 3355SOL    HW210518   1.598   0.026  11.355
 3356SOL     OW10519   1.164   3.925  12.645
 3356SOL    HW110520   1.169   3.998  12.708
 3356SOL    HW210521   1.203   3.960  12.565
 3357SOL     OW10522   0.900   3.812  11.281
 3357SOL    HW110523   0.963   3.781  11.216
 3357SOL    HW210524   0.939   3.788  11.365
 3358SOL     OW10525   1.715   3.859  11.679
 3358SOL    HW110526   1.791   3.844  11.623
 3358SOL    HW210527   1.702   3.775  11.724
 3359SOL     OW10528   1.835   3.885  12.142
 3359SOL    HW110529   1.871   3.803  12.110
 3359SOL    HW210530   1.753   3.897  12.094
 3360SOL     OW10531   0.673   3.911  12.666
 3360SOL    HW110532   0.754   3.907  12.616
 3360SOL    HW210533   0.700   3.934  12.755
 3361SOL     OW10534   0.070   0.035  11.152
 3361SOL    HW110535   3.977   0.032  11.175
 3361SOL    HW210536   0.101   0.119  11.185
 3362SOL     OW10537   0.104   3.910  11.537
 3362SOL    HW110538   0.079   3.991  11.493
 3362SOL    HW210539   0.183   3.881  11.491
 3363SOL     OW10540   1.188   0.011  11.642
 3363SOL    HW110541   1.260   3.949  11.634
 3363SOL    HW210542   1.213   0.069  11.713
 3364SOL     OW10543   1.785   0.047  12.814
 3364SOL    HW110544   1.760   0.077  12.726
 3364SOL    HW210545   1.704   0.010  12.850
 3365SOL     OW10546   1.817   3.913  12.410
 3365SOL    HW110547   1.823   3.822  12.439
 3365SOL    HW210548   1.823   3.909  12.315
 3366SOL     OW10549   1.438   3.934  12.290
 3366SOL    HW110550   1.472   3.858  12.336
 3366SOL    HW210551   1.378   3.976  12.352
 3367SOL     OW10552   1.012   3.738  12.323
 3367SOL    HW110553   0.955   3.680  12.272
 3367SOL    HW210554   1.099   3.697  12.318
 3368SOL     OW10555   1.352   3.772  11.331
 3368SOL    HW110556   1.382   3.706  11.269
 3368SOL    HW210557   1.265   3.741  11.358
 3369SOL     OW10558   1.283   0.162  11.857
 3369SOL    HW110559   1.276   0.257  11.862
 3369SOL    HW210560   1.291   0.133  11.948
 3370SOL     OW10561   1.581   3.929  12.049
 3370SOL    HW110562   1.527   3.934  12.128
 3370SOL    HW210563   1.582   0.019  12.015
 3371SOL     OW10564   0.011   0.098  13.656
 3371SOL    HW110565   3.916   0.095  13.668
 3371SOL    HW210566   0.027   0.045  13.578
 3372SOL     OW10567   1.777   0.321  13.230
 3372SOL    HW110568   1.702   0.306  13.173
 3372SOL    HW210569   1.742   0.315  13.319
 3373SOL     OW10570   1.613   0.172  13.766
 3373SOL    HW110571   1.526   0.159  13.729
 3373SOL    HW210572   1.608   0.258  13.808
 3374SOL     OW10573   0.807   3.728  13.537
 3374SOL    HW110574   0.833   3.820  13.530
 3374SOL    HW210575   0.712   3.730  13.549
 3375SOL     OW10576   1.404   3.834  13.459
 3375SOL    HW110577   1.397   3.800  13.370
 3375SOL    HW210578   1.497   3.830  13.480
 3376SOL     OW10579   0.623   3.852  13.154
 3376SOL    HW110580   0.713   3.821  13.163
 3376SOL    HW210581   0.588   3.803  13.079
 3377SOL     OW10582   0.534   3.784  13.542
 3377SOL    HW110583   0.478   3.777  13.619
 3377SOL    HW210584   0.543   3.878  13.526
 3378SOL     OW10585   0.289   3.759  13.213
 3378SOL    HW110586   0.344   3.832  13.184
 3378SOL    HW210587   0.350   3.698  13.255
 3379SOL     OW10588   1.011   3.766  13.777
 3379SOL    HW110589   0.955   3.761  13.700
 3379SOL    HW210590   0.992   3.687  13.827
 3380SOL     OW10591   1.572   3.961  13.155
 3380SOL    HW110592   1.518   3.900  13.205
 3380SOL    HW210593   1.610   0.019  13.222
 3381SOL     OW10594   0.901   3.813  13.144
 3381SOL    HW110595   0.962   3.781  13.077
 3381SOL    HW210596   0.940   3.787  13.227
 3382SOL     OW10597   1.726   3.858  13.557
 3382SOL    HW110598   1.794   3.846  13.490
 3382SOL    HW210599   1.709   3.770  13.590
 3383SOL     OW10600   1.846   3.889   0.059
 3383SOL    HW110601   1.868   3.795   0.055
 3383SOL    HW210602   1.754   3.891   0.083
 3384SOL     OW10603   0.071   0.034  13.016
 3384SOL    HW110604   3.978   0.031  13.038
 3384SOL    HW210605   0.101   0.119  13.048
 3385SOL     OW10606   0.112   3.917  13.402
 3385SOL    HW110607   0.083   3.989  13.347
 3385SOL    HW210608   0.184   3.876  13.353
 3386SOL     OW10609   1.184   0.005  13.512
 3386SOL    HW110610   1.259   3.949  13.494
 3386SOL    HW210611   1.216   0.067  13.578
 3387SOL     OW10612   1.352   3.772  13.193
 3387SOL    HW110613   1.382   3.705  13.131
 3387SOL    HW210614   1.265   3.741  13.220
 3388SOL     OW10615   1.304   0.159  13.733
 3388SOL    HW110616   1.268   0.246  13.715
 3388SOL    HW210617   1.296   0.149  13.828
 3389SOL     OW10618   2.096   0.644   0.117
 3389SOL    HW110619   2.011   0.615   0.149
 3389SOL    HW210620   2.111   0.592   0.038
 3390SOL     OW10621   2.079   0.298   0.991
 3390SOL    HW110622   2.116   0.256   1.069
 3390SOL    HW210623   1.996   0.252   0.977
 3391SOL     OW10624   1.872   0.396   0.636
 3391SOL    HW110625   1.784   0.409   0.672
 3391SOL    HW210626   1.863   0.322   0.576
 3392SOL     OW10627   2.429   1.285   1.173
 3392SOL    HW110628   2.341   1.288   1.135
 3392SOL    HW210629   2.444   1.374   1.206
 3393SOL     OW10630   3.421   1.512   0.706
 3393SOL    HW110631   3.376   1.492   0.788
 3393SOL    HW210632   3.351   1.515   0.641
 3394SOL     OW10633   2.993   0.698   0.702
 3394SOL    HW110634   3.042   0.780   0.688
 3394SOL    HW210635   2.946   0.712   0.784
 3395SOL     OW10636   3.609   0.629   0.227
 3395SOL    HW110637   3.622   0.614   0.133
 3395SOL    HW210638   3.619   0.543   0.267
 3396SOL     OW10639   2.619   1.143   1.039
 3396SOL    HW110640   2.550   1.177   1.096
 3396SOL    HW210641   2.654   1.221   0.995
 3397SOL     OW10642   2.728   0.777   1.822
 3397SOL    HW110643   2.714   0.848   1.884
 3397SOL    HW210644   2.751   0.820   1.740
 3398SOL     OW10645   2.548   1.004   0.648
 3398SOL    HW110646   2.613   0.991   0.717
 3398SOL    HW210647   2.478   1.055   0.689
 3399SOL     OW10648   2.571   1.151   1.811
 3399SOL    HW110649   2.619   1.230   1.837
 3399SOL    HW210650   2.488   1.184   1.777
 3400SOL     OW10651   2.193   1.425   1.069
 3400SOL    HW110652   2.119   1.391   1.019
 3400SOL    HW210653   2.244   1.475   1.005
 3401SOL     OW10654   3.323   1.499   1.352
 3401SOL    HW110655   3.372   1.581   1.362
 3401SOL    HW210656   3.264   1.497   1.429
 3402SOL     OW10657   2.304   0.397   1.495
 3402SOL    HW110658   2.392   0.358   1.493
 3402SOL    HW210659   2.245   0.322   1.502
 3403SOL     OW10660   3.473   0.450   0.737
 3403SOL    HW110661   3.402   0.484   0.682
 3403SOL    HW210662   3.501   0.525   0.789
 3404SOL     OW10663   2.105   1.701   0.479
 3404SOL    HW110664   2.140   1.772   0.533
 3404SOL    HW210665   2.166   1.693   0.407
 3405SOL     OW10666   2.998   1.342   1.692
 3405SOL    HW110667   3.039   1.337   1.779
 3405SOL    HW210668   2.945   1.262   1.686
 3406SOL     OW10669   2.082   1.435   0.534
 3406SOL    HW110670   2.079   1.531   0.534
 3406SOL    HW210671   2.022   1.409   0.604
 3407SOL     OW10672   2.118   1.090   0.890
 3407SOL    HW110673   2.115   1.003   0.931
 3407SOL    HW210674   2.061   1.144   0.944
 3408SOL     OW10675   2.475   1.791   1.430
 3408SOL    HW110676   2.392   1.774   1.476
 3408SOL    HW210677   2.499   1.880   1.456
 3409SOL     OW10678   2.433   0.980   0.156
 3409SOL    HW110679   2.456   1.031   0.078
 3409SOL    HW210680   2.486   1.018   0.226
 3410SOL     OW10681   3.442   0.136   1.458
 3410SOL    HW110682   3.463   0.210   1.401
 3410SOL    HW210683   3.415   0.176   1.541
 3411SOL     OW10684   1.977   0.653   0.558
 3411SOL    HW110685   1.950   0.564   0.581
 3411SOL    HW210686   1.969   0.702   0.640
 3412SOL     OW10687   3.705   1.762   0.335
 3412SOL    HW110688   3.764   1.726   0.401
 3412SOL    HW210689   3.730   1.854   0.328
 3413SOL     OW10690   1.893   1.596   0.106
 3413SOL    HW110691   1.893   1.503   0.127
 3413SOL    HW210692   1.868   1.639   0.188
 3414SOL     OW10693   3.548   0.917   0.642
 3414SOL    HW110694   3.634   0.876   0.627
 3414SOL    HW210695   3.532   0.968   0.563
 3415SOL     OW10696   3.505   1.106   0.432
 3415SOL    HW110697   3.591   1.113   0.391
 3415SOL    HW210698   3.508   1.168   0.505
 3416SOL     OW10699   1.984   0.747   1.582
 3416SOL    HW110700   2.076   0.773   1.592
 3416SOL    HW210701   1.935   0.829   1.591
 3417SOL     OW10702   2.476   1.383   0.734
 3417SOL    HW110703   2.429   1.300   0.743
 3417SOL    HW210704   2.459   1.411   0.644
 3418SOL     OW10705   3.151   1.239   1.424
 3418SOL    HW110706   3.184   1.172   1.364
 3418SOL    HW210707   3.208   1.232   1.501
 3419SOL     OW10708   2.681   0.002   0.517
 3419SOL    HW110709   2.725   0.083   0.492
 3419SOL    HW210710   2.588   0.024   0.518
 3420SOL     OW10711   2.053   0.967   1.270
 3420SOL    HW110712   2.137   0.924   1.255
 3420SOL    HW210713   1.990   0.911   1.225
 3421SOL     OW10714   3.394   0.993   0.203
 3421SOL    HW110715   3.325   0.934   0.234
 3421SOL    HW210716   3.431   1.030   0.282
 3422SOL     OW10717   3.046   1.805   1.621
 3422SOL    HW110718   3.061   1.863   1.546
 3422SOL    HW210719   3.063   1.717   1.587
 3423SOL     OW10720   2.213   0.255   1.820
 3423SOL    HW110721   2.257   0.340   1.822
 3423SOL    HW210722   2.120   0.276   1.833
 3424SOL     OW10723   3.327   1.420   0.952
 3424SOL    HW110724   3.259   1.434   1.018
 3424SOL    HW210725   3.316   1.329   0.925
 3425SOL     OW10726   3.523   1.737   0.583
 3425SOL    HW110727   3.500   1.714   0.493
 3425SOL    HW210728   3.499   1.661   0.635
 3426SOL     OW10729   2.458   0.720   0.261
 3426SOL    HW110730   2.463   0.802   0.212
 3426SOL    HW210731   2.399   0.739   0.334
 3427SOL     OW10732   3.138   0.363   0.940
 3427SOL    HW110733   3.051   0.324   0.945
 3427SOL    HW210734   3.195   0.302   0.986
 3428SOL     OW10735   3.425   1.729   0.312
 3428SOL    HW110736   3.520   1.729   0.310
 3428SOL    HW210737   3.399   1.689   0.229
 3429SOL     OW10738   2.658   0.616   1.454
 3429SOL    HW110739   2.629   0.592   1.542
 3429SOL    HW210740   2.616   0.552   1.396
 3430SOL     OW10741   3.255   0.477   1.677
 3430SOL    HW110742   3.258   0.521   1.762
 3430SOL    HW210743   3.315   0.403   1.686
 3431SOL     OW10744   2.818   0.888   1.582
 3431SOL    HW110745   2.872   0.818   1.547
 3431SOL    HW210746   2.770   0.922   1.506
 3432SOL     OW10747   2.853   0.403   1.241
 3432SOL    HW110748   2.771   0.429   1.283
 3432SOL    HW210749   2.827   0.372   1.155
 3433SOL     OW10750   2.912   0.701   0.428
 3433SOL    HW110751   2.927   0.692   0.522
 3433SOL    HW210752   2.830   0.654   0.412
 3434SOL     OW10753   1.951   0.822   0.775
 3434SOL    HW110754   2.031   0.813   0.826
 3434SOL    HW210755   1.908   0.900   0.811
 3435SOL     OW10756   2.736   0.360   0.217
 3435SOL    HW110757   2.775   0.416   0.150
 3435SOL    HW210758   2.741   0.272   0.179
 3436SOL     OW10759   3.574   0.575   1.829
 3436SOL    HW110760   3.536   0.651   1.784
 3436SOL    HW210761   3.596   0.514   1.758
 3437SOL     OW10762   3.237   1.142   0.542
 3437SOL    HW110763   3.316   1.129   0.490
 3437SOL    HW210764   3.185   1.205   0.493
 3438SOL     OW10765   2.417   0.197   0.883
 3438SOL    HW110766   2.421   0.215   0.976
 3438SOL    HW210767   2.415   0.284   0.842
 3439SOL     OW10768   2.870   1.443   0.476
 3439SOL    HW110769   2.833   1.516   0.425
 3439SOL    HW210770   2.851   1.466   0.567
 3440SOL     OW10771   2.216   1.792   0.865
 3440SOL    HW110772   2.255   1.705   0.876
 3440SOL    HW210773   2.286   1.853   0.889
 3441SOL     OW10774   3.665   1.062   0.866
 3441SOL    HW110775   3.609   1.041   0.792
 3441SOL    HW210776   3.605   1.066   0.941
 3442SOL     OW10777   3.089   1.539   1.513
 3442SOL    HW110778   3.076   1.466   1.574
 3442SOL    HW210779   3.028   1.522   1.441
 3443SOL     OW10780   2.177   0.941   0.228
 3443SOL    HW110781   2.268   0.953   0.204
 3443SOL    HW210782   2.163   0.846   0.223
 3444SOL     OW10783   3.337   0.742   0.731
 3444SOL    HW110784   3.330   0.698   0.816
 3444SOL    HW210785   3.415   0.797   0.739
 3445SOL     OW10786   2.328   1.263   1.738
 3445SOL    HW110787   2.300   1.268   1.646
 3445SOL    HW210788   2.246   1.261   1.788
 3446SOL     OW10789   2.982   1.781   0.232
 3446SOL    HW110790   2.921   1.732   0.288
 3446SOL    HW210791   3.012   1.716   0.168
 3447SOL     OW10792   2.038   0.277   1.497
 3447SOL    HW110793   1.975   0.349   1.494
 3447SOL    HW210794   2.046   0.257   1.591
 3448SOL     OW10795   3.495   1.371   0.082
 3448SOL    HW110796   3.459   1.456   0.057
 3448SOL    HW210797   3.425   1.309   0.063
 3449SOL     OW10798   2.336   1.726   0.328
 3449SOL    HW110799   2.373   1.793   0.384
 3449SOL    HW210800   2.401   1.714   0.258
 3450SOL     OW10801   3.296   0.145   0.395
 3450SOL    HW110802   3.257   0.061   0.372
 3450SOL    HW210803   3.377   0.122   0.441
 3451SOL     OW10804   2.153   1.763   1.225
 3451SOL    HW110805   2.193   1.682   1.258
 3451SOL    HW210806   2.119   1.740   1.139
 3452SOL     OW10807   2.799   1.698   0.900
 3452SOL    HW110808   2.877   1.647   0.920
 3452SOL    HW210809   2.755   1.649   0.830
 3453SOL     OW10810   2.253   0.696   0.474
 3453SOL    HW110811   2.276   0.604   0.484
 3453SOL    HW210812   2.160   0.700   0.497
 3454SOL     OW10813   3.394   0.232   1.727
 3454SOL    HW110814   3.392   0.257   1.819
 3454SOL    HW210815   3.363   0.142   1.725
 3455SOL     OW10816   2.482   0.100   0.118
 3455SOL    HW110817   2.578   0.101   0.126
 3455SOL    HW210818   2.465   0.130   0.028
 3456SOL     OW10819   2.640   0.281   1.764
 3456SOL    HW110820   2.703   0.210   1.770
 3456SOL    HW210821   2.578   0.265   1.835
 3457SOL     OW10822   2.738   1.521   1.194
 3457SOL    HW110823   2.723   1.485   1.106
 3457SOL    HW210824   2.808   1.467   1.230
 3458SOL     OW10825   3.204   0.587   1.430
 3458SOL    HW110826   3.234   0.558   1.517
 3458SOL    HW210827   3.238   0.676   1.422
 3459SOL     OW10828   2.676   1.396   0.938
 3459SOL    HW110829   2.761   1.385   0.894
 3459SOL    HW210830   2.612   1.396   0.867
 3460SOL     OW10831   2.790   0.510   0.902
 3460SOL    HW110832   2.766   0.503   0.810
 3460SOL    HW210833   2.819   0.423   0.927
 3461SOL     OW10834   2.411   0.054   0.499
 3461SOL    HW110835   2.334   0.061   0.556
 3461SOL    HW210836   2.405   0.132   0.443
 3462SOL     OW10837   3.292   1.202   0.044
 3462SOL    HW110838   3.312   1.122   0.093
 3462SOL    HW210839   3.200   1.219   0.065
 3463SOL     OW10840   2.193   0.009   0.178
 3463SOL    HW110841   2.182   0.093   0.135
 3463SOL    HW210842   2.270   0.020   0.234
 3464SOL     OW10843   2.800   0.248   0.466
 3464SOL    HW110844   2.770   0.287   0.384
 3464SOL    HW210845   2.895   0.248   0.459
 3465SOL     OW10846   2.942   0.681   1.459
 3465SOL    HW110847   2.870   0.618   1.467
 3465SOL    HW210848   3.021   0.627   1.454
 3466SOL     OW10849   3.085   1.571   0.795
 3466SOL    HW110850   3.103   1.637   0.728
 3466SOL    HW210851   3.154   1.582   0.859
 3467SOL     OW10852   2.330   1.149   0.734
 3467SOL    HW110853   2.261   1.130   0.797
 3467SOL    HW210854   2.289   1.134   0.649
 3468SOL     OW10855   3.131   1.795   0.606
 3468SOL    HW110856   3.179   1.857   0.550
 3468SOL    HW210857   3.067   1.849   0.651
 3469SOL     OW10858   2.865   0.536   0.057
 3469SOL    HW110859   2.865   0.546  13.862
 3469SOL    HW210860   2.954   0.558   0.084
 3470SOL     OW10861   1.940   0.552   1.395
 3470SOL    HW110862   2.031   0.552   1.365
 3470SOL    HW210863   1.935   0.625   1.456
 3471SOL     OW10864   2.427   0.232   1.161
 3471SOL    HW110865   2.453   0.141   1.172
 3471SOL    HW210866   2.337   0.236   1.193
 3472SOL     OW10867   2.732   0.461   0.639
 3472SOL    HW110868   2.685   0.515   0.575
 3472SOL    HW210869   2.752   0.380   0.592
 3473SOL     OW10870   2.856   0.042   0.778
 3473SOL    HW110871   2.821   0.066   0.692
 3473SOL    HW210872   2.866   3.947   0.775
 3474SOL     OW10873   3.299   1.163   0.858
 3474SOL    HW110874   3.230   1.096   0.855
 3474SOL    HW210875   3.323   1.176   0.766
 3475SOL     OW10876   3.328   0.604   0.979
 3475SOL    HW110877   3.278   0.523   0.984
 3475SOL    HW210878   3.389   0.600   1.052
 3476SOL     OW10879   3.723   0.823   0.375
 3476SOL    HW110880   3.764   0.765   0.439
 3476SOL    HW210881   3.677   0.764   0.315
 3477SOL     OW10882   2.349   1.406   0.157
 3477SOL    HW110883   2.274   1.375   0.208
 3477SOL    HW210884   2.329   1.380   0.067
 3478SOL     OW10885   3.528   1.264   0.648
 3478SOL    HW110886   3.623   1.270   0.657
 3478SOL    HW210887   3.497   1.354   0.665
 3479SOL     OW10888   3.279   0.589   0.087
 3479SOL    HW110889   3.209   0.575   0.151
 3479SOL    HW210890   3.334   0.511   0.094
 3480SOL     OW10891   2.381   0.254   0.322
 3480SOL    HW110892   2.422   0.207   0.250
 3480SOL    HW210893   2.364   0.342   0.287
 3481SOL     OW10894   3.614   1.234   1.572
 3481SOL    HW110895   3.702   1.199   1.555
 3481SOL    HW210896   3.631   1.323   1.604
 3482SOL     OW10897   2.921   1.354   1.334
 3482SOL    HW110898   2.847   1.322   1.385
 3482SOL    HW210899   2.997   1.312   1.375
 3483SOL     OW10900   3.467   1.627   1.653
 3483SOL    HW110901   3.462   1.661   1.563
 3483SOL    HW210902   3.549   1.578   1.655
 3484SOL     OW10903   2.989   1.203   1.106
 3484SOL    HW110904   2.931   1.241   1.171
 3484SOL    HW210905   2.956   1.234   1.022
 3485SOL     OW10906   3.493   1.098   1.077
 3485SOL    HW110907   3.486   1.160   1.150
 3485SOL    HW210908   3.414   1.114   1.025
 3486SOL     OW10909   2.775   0.111   1.402
 3486SOL    HW110910   2.795   0.086   1.312
 3486SOL    HW210911   2.855   0.153   1.433
 3487SOL     OW10912   2.846   1.115   1.723
 3487SOL    HW110913   2.754   1.130   1.743
 3487SOL    HW210914   2.845   1.037   1.667
 3488SOL     OW10915   2.575   1.058   0.376
 3488SOL    HW110916   2.561   1.043   0.469
 3488SOL    HW210917   2.650   1.003   0.354
 3489SOL     OW10918   2.280   0.814   1.251
 3489SOL    HW110919   2.349   0.823   1.317
 3489SOL    HW210920   2.245   0.726   1.264
 3490SOL     OW10921   3.129   0.375   1.275
 3490SOL    HW110922   3.163   0.453   1.320
 3490SOL    HW210923   3.042   0.402   1.244
 3491SOL     OW10924   1.932   1.577   1.352
 3491SOL    HW110925   1.895   1.642   1.291
 3491SOL    HW210926   2.027   1.583   1.339
 3492SOL     OW10927   2.211   1.111   0.490
 3492SOL    HW110928   2.213   1.183   0.427
 3492SOL    HW210929   2.218   1.032   0.435
 3493SOL     OW10930   2.418   0.536   0.859
 3493SOL    HW110931   2.434   0.594   0.785
 3493SOL    HW210932   2.481   0.564   0.925
 3494SOL     OW10933   3.110   1.346   0.396
 3494SOL    HW110934   3.167   1.419   0.422
 3494SOL    HW210935   3.023   1.370   0.428
 3495SOL     OW10936   3.141   1.457   1.147
 3495SOL    HW110937   3.197   1.460   1.224
 3495SOL    HW210938   3.086   1.379   1.159
 3496SOL     OW10939   3.443   0.632   0.488
 3496SOL    HW110940   3.401   0.694   0.547
 3496SOL    HW210941   3.480   0.685   0.418
 3497SOL     OW10942   2.215   1.515   1.319
 3497SOL    HW110943   2.200   1.473   1.234
 3497SOL    HW210944   2.310   1.527   1.323
 3498SOL     OW10945   2.276   0.745   1.601
 3498SOL    HW110946   2.337   0.790   1.543
 3498SOL    HW210947   2.316   0.659   1.617
 3499SOL     OW10948   3.462   0.776   1.680
 3499SOL    HW110949   3.376   0.818   1.673
 3499SOL    HW210950   3.515   0.819   1.612
 3500SOL     OW10951   2.885   0.121   1.778
 3500SOL    HW110952   2.918   0.200   1.736
 3500SOL    HW210953   2.869   0.060   1.706
 3501SOL     OW10954   2.347   0.034   1.764
 3501SOL    HW110955   2.354   0.039   1.669
 3501SOL    HW210956   2.289   0.107   1.788
 3502SOL     OW10957   2.445   0.873   1.031
 3502SOL    HW110958   2.474   0.964   1.030
 3502SOL    HW210959   2.388   0.866   1.108
 3503SOL     OW10960   3.221   0.859   1.031
 3503SOL    HW110961   3.138   0.850   0.983
 3503SOL    HW210962   3.260   0.772   1.026
 3504SOL     OW10963   3.079   0.545   0.271
 3504SOL    HW110964   3.084   0.465   0.323
 3504SOL    HW210965   3.024   0.604   0.323
 3505SOL     OW10966   2.165   0.212   1.242
 3505SOL    HW110967   2.126   0.241   1.325
 3505SOL    HW210968   2.151   0.117   1.240
 3506SOL     OW10969   1.907   1.313   1.279
 3506SOL    HW110970   1.941   1.258   1.349
 3506SOL    HW210971   1.915   1.402   1.311
 3507SOL     OW10972   2.588   0.633   1.057
 3507SOL    HW110973   2.661   0.617   0.997
 3507SOL    HW210974   2.559   0.722   1.035
 3508SOL     OW10975   3.595   0.956   1.858
 3508SOL    HW110976   3.549   0.903   1.793
 3508SOL    HW210977   3.532   0.969   1.928
 3509SOL     OW10978   2.183   0.058   0.644
 3509SOL    HW110979   2.161   0.151   0.657
 3509SOL    HW210980   2.141   0.013   0.718
 3510SOL     OW10981   3.440   0.386   0.390
 3510SOL    HW110982   3.430   0.322   0.461
 3510SOL    HW210983   3.432   0.471   0.432
 3511SOL     OW10984   2.890   0.759   0.961
 3511SOL    HW110985   2.887   0.777   1.055
 3511SOL    HW210986   2.863   0.668   0.952
 3512SOL     OW10987   2.844   1.566   1.716
 3512SOL    HW110988   2.829   1.610   1.632
 3512SOL    HW210989   2.887   1.484   1.693
 3513SOL     OW10990   3.708   1.505   1.601
 3513SOL    HW110991   3.730   1.532   1.511
 3513SOL    HW210992   3.789   1.519   1.650
 3514SOL     OW10993   2.215   0.915   1.808
 3514SOL    HW110994   2.297   0.935   1.853
 3514SOL    HW210995   2.239   0.853   1.739
 3515SOL     OW10996   3.397   0.269   0.144
 3515SOL    HW110997   3.329   0.202   0.150
 3515SOL    HW210998   3.400   0.307   0.232
 3516SOL     OW10999   3.155   0.831   0.055
 3516SOL    HW111000   3.201   0.748   0.060
 3516SOL    HW211001   3.173   0.863  13.867
 3517SOL     OW11002   2.927   1.335   0.853
 3517SOL    HW111003   2.930   1.263   0.791
 3517SOL    HW211004   2.989   1.399   0.819
 3518SOL     OW11005   2.171   0.809   0.947
 3518SOL    HW111006   2.264   0.831   0.942
 3518SOL    HW211007   2.169   0.719   0.980
 3519SOL     OW11008   2.198   0.533   1.012
 3519SOL    HW111009   2.157   0.448   0.997
 3519SOL    HW211010   2.274   0.534   0.954
 3520SOL     OW11011   2.995   0.383   1.691
 3520SOL    HW111012   2.948   0.438   1.754
 3520SOL    HW211013   3.083   0.422   1.687
 3521SOL     OW11014   3.013   0.224   1.481
 3521SOL    HW111015   3.005   0.279   1.559
 3521SOL    HW211016   3.035   0.286   1.411
 3522SOL     OW11017   1.880   1.312   0.179
 3522SOL    HW111018   1.797   1.322   0.131
 3522SOL    HW211019   1.874   1.225   0.219
 3523SOL     OW11020   1.966   1.724   0.967
 3523SOL    HW111021   1.930   1.665   0.900
 3523SOL    HW211022   2.039   1.767   0.923
 3524SOL     OW11023   2.365   1.567   0.910
 3524SOL    HW111024   2.433   1.630   0.932
 3524SOL    HW211025   2.408   1.505   0.851
 3525SOL     OW11026   2.847   0.791   1.226
 3525SOL    HW111027   2.900   0.769   1.302
 3525SOL    HW211028   2.760   0.757   1.247
 3526SOL     OW11029   1.896   0.546   1.117
 3526SOL    HW111030   1.972   0.519   1.065
 3526SOL    HW211031   1.928   0.548   1.207
 3527SOL     OW11032   2.064   0.526   1.715
 3527SOL    HW111033   2.130   0.502   1.650
 3527SOL    HW211034   2.016   0.599   1.675
 3528SOL     OW11035   3.240   0.940   1.659
 3528SOL    HW111036   3.260   1.033   1.658
 3528SOL    HW211037   3.236   0.915   1.567
 3529SOL     OW11038   2.677   0.578   0.367
 3529SOL    HW111039   2.688   0.502   0.311
 3529SOL    HW211040   2.602   0.625   0.328
 3530SOL     OW11041   3.504   0.602   1.187
 3530SOL    HW111042   3.492   0.541   1.260
 3530SOL    HW211043   3.589   0.580   1.151
 3531SOL     OW11044   2.117   1.539   1.710
 3531SOL    HW111045   2.097   1.610   1.772
 3531SOL    HW211046   2.116   1.460   1.763
 3532SOL     OW11047   2.561   0.457   1.261
 3532SOL    HW111048   2.513   0.378   1.234
 3532SOL    HW211049   2.556   0.515   1.185
 3533SOL     OW11050   2.789   1.679   1.467
 3533SOL    HW111051   2.765   1.646   1.381
 3533SOL    HW211052   2.788   1.774   1.458
 3534SOL     OW11053   2.305   0.495   0.231
 3534SOL    HW111054   2.373   0.562   0.241
 3534SOL    HW211055   2.232   0.541   0.190
 3535SOL     OW11056   2.008   1.140   1.472
 3535SOL    HW111057   2.012   1.088   1.552
 3535SOL    HW211058   2.025   1.077   1.401
 3536SOL     OW11059   3.188   1.047   1.224
 3536SOL    HW111060   3.213   0.985   1.156
 3536SOL    HW211061   3.117   1.099   1.185
 3537SOL     OW11062   3.172   0.857   0.325
 3537SOL    HW111063   3.096   0.824   0.372
 3537SOL    HW211064   3.151   0.845   0.232
 3538SOL     OW11065   3.637   1.745   1.153
 3538SOL    HW111066   3.692   1.772   1.080
 3538SOL    HW211067   3.610   1.656   1.131
 3539SOL     OW11068   3.103   1.733   1.115
 3539SOL    HW111069   3.185   1.754   1.069
 3539SOL    HW211070   3.108   1.640   1.132
 3540SOL     OW11071   1.948   1.263   1.015
 3540SOL    HW111072   1.932   1.278   1.108
 3540SOL    HW211073   1.872   1.212   0.985
 3541SOL     OW11074   2.541   1.663   1.725
 3541SOL    HW111075   2.493   1.746   1.726
 3541SOL    HW211076   2.606   1.673   1.657
 3542SOL     OW11077   2.762   0.104   0.138
 3542SOL    HW111078   2.800   0.090   0.051
 3542SOL    HW211079   2.774   0.021   0.184
 3543SOL     OW11080   3.558   0.127   0.484
 3543SOL    HW111081   3.640   0.135   0.434
 3543SOL    HW211082   3.554   0.035   0.508
 3544SOL     OW11083   3.251   1.571   0.482
 3544SOL    HW111084   3.314   1.604   0.418
 3544SOL    HW211085   3.205   1.649   0.514
 3545SOL     OW11086   2.031   1.744   1.858
 3545SOL    HW111087   1.966   1.691   1.905
 3545SOL    HW211088   2.012   1.834   1.885
 3546SOL     OW11089   3.138   0.925   0.671
 3546SOL    HW111090   3.212   0.865   0.678
 3546SOL    HW211091   3.172   0.998   0.619
 3547SOL     OW11092   2.678   1.272   1.430
 3547SOL    HW111093   2.650   1.311   1.513
 3547SOL    HW211094   2.607   1.294   1.369
 3548SOL     OW11095   2.548   1.582   0.178
 3548SOL    HW111096   2.528   1.627   0.096
 3548SOL    HW211097   2.489   1.507   0.179
 3549SOL     OW11098   3.488   1.726   1.391
 3549SOL    HW111099   3.540   1.732   1.311
 3549SOL    HW211100   3.475   1.817   1.419
 3550SOL     OW11101   3.702   0.180   0.970
 3550SOL    HW111102   3.728   0.097   0.929
 3550SOL    HW211103   3.615   0.198   0.934
 3551SOL     OW11104   2.127   0.318   0.717
 3551SOL    HW111105   2.040   0.353   0.695
 3551SOL    HW211106   2.124   0.306   0.812
 3552SOL     OW11107   3.077   1.603   0.033
 3552SOL    HW111108   3.068   1.512   0.062
 3552SOL    HW211109   3.041   1.604  13.845
 3553SOL     OW11110   2.686   1.005   1.372
 3553SOL    HW111111   2.729   1.003   1.286
 3553SOL    HW211112   2.686   1.098   1.395
 3554SOL     OW11113   2.781   0.910   0.287
 3554SOL    HW111114   2.852   0.948   0.235
 3554SOL    HW211115   2.823   0.839   0.336
 3555SOL     OW11116   3.350   1.633   0.067
 3555SOL    HW111117   3.256   1.624   0.051
 3555SOL    HW211118   3.389   1.639  13.880
 3556SOL     OW11119   2.232   1.298   1.492
 3556SOL    HW111120   2.219   1.376   1.439
 3556SOL    HW211121   2.154   1.245   1.476
 3557SOL     OW11122   3.466   1.280   1.279
 3557SOL    HW111123   3.534   1.275   1.347
 3557SOL    HW211124   3.409   1.351   1.308
 3558SOL     OW11125   2.912   1.106   0.705
 3558SOL    HW111126   2.842   1.055   0.746
 3558SOL    HW211127   2.975   1.041   0.674
 3559SOL     OW11128   2.877   0.247   0.967
 3559SOL    HW111129   2.866   0.197   0.886
 3559SOL    HW211130   2.870   0.181   1.037
 3560SOL     OW11131   2.464   1.490   0.482
 3560SOL    HW111132   2.507   1.439   0.413
 3560SOL    HW211133   2.401   1.545   0.436
 3561SOL     OW11134   3.581   0.391   1.374
 3561SOL    HW111135   3.652   0.456   1.373
 3561SOL    HW211136   3.613   0.320   1.319
 3562SOL     OW11137   2.129   1.328   0.295
 3562SOL    HW111138   2.043   1.337   0.253
 3562SOL    HW211139   2.119   1.371   0.379
 3563SOL     OW11140   1.974   1.021   1.719
 3563SOL    HW111141   1.898   0.998   1.772
 3563SOL    HW211142   2.049   0.984   1.767
 3564SOL     OW11143   2.553   0.243   1.497
 3564SOL    HW111144   2.623   0.191   1.457
 3564SOL    HW211145   2.579   0.250   1.589
 3565SOL     OW11146   1.901   0.436   0.011
 3565SOL    HW111147   1.875   0.344   0.018
 3565SOL    HW211148   1.914   0.451  13.818
 3566SOL     OW11149   3.291   0.857   1.400
 3566SOL    HW111150   3.242   0.919   1.345
 3566SOL    HW211151   3.380   0.860   1.365
 3567SOL     OW11152   1.945   0.151   0.366
 3567SOL    HW111153   1.911   0.228   0.319
 3567SOL    HW211154   2.022   0.124   0.316
 3568SOL     OW11155   3.047   1.348   0.122
 3568SOL    HW111156   2.954   1.331   0.111
 3568SOL    HW211157   3.064   1.336   0.215
 3569SOL     OW11158   2.481   0.830   1.433
 3569SOL    HW111159   2.537   0.906   1.418
 3569SOL    HW211160   2.543   0.757   1.442
 3570SOL     OW11161   3.346   1.777   0.977
 3570SOL    HW111162   3.371   1.834   0.905
 3570SOL    HW211163   3.428   1.756   1.021
 3571SOL     OW11164   2.579   0.563   1.706
 3571SOL    HW111165   2.618   0.627   1.766
 3571SOL    HW211166   2.611   0.478   1.737
 3572SOL     OW11167   3.332   1.201   1.632
 3572SOL    HW111168   3.321   1.215   1.726
 3572SOL    HW211169   3.426   1.215   1.617
 3573SOL     OW11170   2.241   1.745   1.570
 3573SOL    HW111171   2.161   1.767   1.522
 3573SOL    HW211172   2.222   1.660   1.609
 3574SOL     OW11173   3.529   0.881   1.259
 3574SOL    HW111174   3.527   0.796   1.215
 3574SOL    HW211175   3.524   0.945   1.187
 3575SOL     OW11176   3.091   0.333   0.441
 3575SOL    HW111177   3.156   0.263   0.435
 3575SOL    HW211178   3.110   0.376   0.524
 3576SOL     OW11179   2.453   0.739   0.668
 3576SOL    HW111180   2.491   0.825   0.653
 3576SOL    HW211181   2.383   0.731   0.603
 3577SOL     OW11182   3.619   0.379   1.642
 3577SOL    HW111183   3.598   0.386   1.549
 3577SOL    HW211184   3.559   0.312   1.675
 3578SOL     OW11185   3.613   0.932   1.514
 3578SOL    HW111186   3.608   1.026   1.529
 3578SOL    HW211187   3.592   0.921   1.422
 3579SOL     OW11188   2.767   1.394   0.056
 3579SOL    HW111189   2.695   1.386   0.118
 3579SOL    HW211190   2.725   1.415  13.873
 3580SOL     OW11191   2.521   1.795   0.946
 3580SOL    HW111192   2.503   1.885   0.918
 3580SOL    HW211193   2.616   1.785   0.937
 3581SOL     OW11194   2.729   0.966   0.855
 3581SOL    HW111195   2.779   0.895   0.895
 3581SOL    HW211196   2.695   1.016   0.929
 3582SOL     OW11197   2.959   1.005   0.107
 3582SOL    HW111198   2.948   1.054   0.025
 3582SOL    HW211199   3.035   0.949   0.092
 3583SOL     OW11200   3.719   1.556   0.842
 3583SOL    HW111201   3.640   1.543   0.790
 3583SOL    HW211202   3.713   1.490   0.911
 3584SOL     OW11203   2.087   1.303   1.857
 3584SOL    HW111204   2.019   1.241   1.830
 3584SOL    HW211205   2.073   1.314   1.951
 3585SOL     OW11206   1.942   1.225   0.662
 3585SOL    HW111207   1.951   1.181   0.746
 3585SOL    HW211208   2.018   1.198   0.612
 3586SOL     OW11209   2.541   1.402   1.625
 3586SOL    HW111210   2.463   1.358   1.657
 3586SOL    HW211211   2.537   1.489   1.664
 3587SOL     OW11212   3.677   0.182   1.243
 3587SOL    HW111213   3.679   0.087   1.252
 3587SOL    HW211214   3.693   0.199   1.150
 3588SOL     OW11215   2.293   0.435   0.530
 3588SOL    HW111216   2.324   0.364   0.474
 3588SOL    HW211217   2.245   0.390   0.601
 3589SOL     OW11218   3.561   1.492   1.099
 3589SOL    HW111219   3.481   1.466   1.053
 3589SOL    HW211220   3.576   1.421   1.163
 3590SOL     OW11221   2.190   0.554   1.292
 3590SOL    HW111222   2.244   0.497   1.347
 3590SOL    HW211223   2.210   0.527   1.202
 3591SOL     OW11224   2.688   1.578   0.679
 3591SOL    HW111225   2.680   1.630   0.600
 3591SOL    HW211226   2.611   1.521   0.679
 3592SOL     OW11227   3.323   0.251   1.111
 3592SOL    HW111228   3.337   0.163   1.147
 3592SOL    HW211229   3.265   0.293   1.175
 3593SOL     OW11230   2.868   0.029   1.147
 3593SOL    HW111231   2.792   3.980   1.118
 3593SOL    HW211232   2.938   3.965   1.155
 3594SOL     OW11233   2.631   1.322   0.318
 3594SOL    HW111234   2.603   1.232   0.335
 3594SOL    HW211235   2.717   1.328   0.361
 3595SOL     OW11236   2.482   1.557   1.285
 3595SOL    HW111237   2.485   1.639   1.334
 3595SOL    HW211238   2.570   1.549   1.247
 3596SOL     OW11239   3.186   0.069   0.137
 3596SOL    HW111240   3.211   3.991   0.088
 3596SOL    HW211241   3.114   0.039   0.194
 3597SOL     OW11242   3.146   0.457   0.686
 3597SOL    HW111243   3.099   0.540   0.683
 3597SOL    HW211244   3.151   0.435   0.779
 3598SOL     OW11245   3.451   0.210   0.867
 3598SOL    HW111246   3.401   0.232   0.946
 3598SOL    HW211247   3.451   0.291   0.815
 3599SOL     OW11248   1.902   1.071   0.307
 3599SOL    HW111249   1.998   1.068   0.305
 3599SOL    HW211250   1.876   0.981   0.329
 3600SOL     OW11251   2.755   1.651   0.344
 3600SOL    HW111252   2.682   1.622   0.289
 3600SOL    HW211253   2.720   1.724   0.394
 3601SOL     OW11254   2.092   0.621   1.983
 3601SOL    HW111255   2.002   0.626   2.014
 3601SOL    HW211256   2.085   0.600   1.890
 3602SOL     OW11257   2.079   0.297   2.853
 3602SOL    HW111258   2.116   0.256   2.931
 3602SOL    HW211259   1.996   0.252   2.839
 3603SOL     OW11260   1.871   0.394   2.499
 3603SOL    HW111261   1.784   0.409   2.534
 3603SOL    HW211262   1.860   0.322   2.436
 3604SOL     OW11263   2.429   1.285   3.035
 3604SOL    HW111264   2.342   1.288   2.997
 3604SOL    HW211265   2.444   1.374   3.068
 3605SOL     OW11266   3.421   1.512   2.568
 3605SOL    HW111267   3.378   1.493   2.651
 3605SOL    HW211268   3.350   1.517   2.505
 3606SOL     OW11269   2.993   0.698   2.564
 3606SOL    HW111270   3.042   0.780   2.550
 3606SOL    HW211271   2.946   0.713   2.646
 3607SOL     OW11272   3.620   0.621   2.091
 3607SOL    HW111273   3.604   0.610   1.997
 3607SOL    HW211274   3.607   0.534   2.128
 3608SOL     OW11275   2.620   1.143   2.902
 3608SOL    HW111276   2.550   1.177   2.958
 3608SOL    HW211277   2.654   1.221   2.857
 3609SOL     OW11278   2.728   0.777   3.684
 3609SOL    HW111279   2.714   0.848   3.746
 3609SOL    HW211280   2.751   0.820   3.602
 3610SOL     OW11281   2.548   1.004   2.509
 3610SOL    HW111282   2.613   0.992   2.579
 3610SOL    HW211283   2.478   1.055   2.550
 3611SOL     OW11284   2.571   1.151   3.673
 3611SOL    HW111285   2.619   1.230   3.699
 3611SOL    HW211286   2.488   1.184   3.639
 3612SOL     OW11287   2.193   1.425   2.931
 3612SOL    HW111288   2.119   1.390   2.881
 3612SOL    HW211289   2.243   1.475   2.867
 3613SOL     OW11290   3.323   1.499   3.215
 3613SOL    HW111291   3.372   1.581   3.224
 3613SOL    HW211292   3.264   1.497   3.291
 3614SOL     OW11293   2.304   0.397   3.357
 3614SOL    HW111294   2.392   0.358   3.355
 3614SOL    HW211295   2.245   0.322   3.364
 3615SOL     OW11296   3.473   0.450   2.598
 3615SOL    HW111297   3.402   0.483   2.544
 3615SOL    HW211298   3.500   0.526   2.651
 3616SOL     OW11299   2.098   1.701   2.334
 3616SOL    HW111300   2.131   1.770   2.392
 3616SOL    HW211301   2.166   1.692   2.267
 3617SOL     OW11302   2.998   1.342   3.554
 3617SOL    HW111303   3.039   1.337   3.641
 3617SOL    HW211304   2.945   1.262   3.548
 3618SOL     OW11305   2.089   1.435   2.397
 3618SOL    HW111306   2.078   1.531   2.397
 3618SOL    HW211307   2.026   1.404   2.462
 3619SOL     OW11308   2.118   1.090   2.752
 3619SOL    HW111309   2.115   1.003   2.794
 3619SOL    HW211310   2.061   1.144   2.806
 3620SOL     OW11311   2.475   1.791   3.292
 3620SOL    HW111312   2.392   1.774   3.338
 3620SOL    HW211313   2.499   1.880   3.318
 3621SOL     OW11314   2.449   0.981   1.995
 3621SOL    HW111315   2.494   1.031   1.927
 3621SOL    HW211316   2.489   1.011   2.077
 3622SOL     OW11317   3.442   0.136   3.320
 3622SOL    HW111318   3.463   0.210   3.263
 3622SOL    HW211319   3.415   0.176   3.403
 3623SOL     OW11320   1.976   0.653   2.421
 3623SOL    HW111321   1.950   0.564   2.444
 3623SOL    HW211322   1.969   0.703   2.503
 3624SOL     OW11323   3.700   1.758   2.199
 3624SOL    HW111324   3.766   1.733   2.263
 3624SOL    HW211325   3.722   1.848   2.176
 3625SOL     OW11326   1.865   1.598   2.007
 3625SOL    HW111327   1.860   1.503   2.001
 3625SOL    HW211328   1.873   1.615   2.101
 3626SOL     OW11329   3.549   0.917   2.502
 3626SOL    HW111330   3.634   0.877   2.487
 3626SOL    HW211331   3.532   0.968   2.423
 3627SOL     OW11332   3.504   1.107   2.293
 3627SOL    HW111333   3.588   1.114   2.249
 3627SOL    HW211334   3.510   1.168   2.366
 3628SOL     OW11335   1.984   0.747   3.445
 3628SOL    HW111336   2.076   0.773   3.454
 3628SOL    HW211337   1.935   0.829   3.453
 3629SOL     OW11338   2.475   1.384   2.596
 3629SOL    HW111339   2.429   1.301   2.606
 3629SOL    HW211340   2.458   1.411   2.506
 3630SOL     OW11341   3.151   1.239   3.286
 3630SOL    HW111342   3.184   1.172   3.226
 3630SOL    HW211343   3.208   1.232   3.363
 3631SOL     OW11344   2.679   0.002   2.377
 3631SOL    HW111345   2.724   0.083   2.355
 3631SOL    HW211346   2.586   0.026   2.379
 3632SOL     OW11347   2.053   0.967   3.133
 3632SOL    HW111348   2.137   0.925   3.117
 3632SOL    HW211349   1.990   0.911   3.086
 3633SOL     OW11350   3.392   0.993   2.060
 3633SOL    HW111351   3.322   0.936   2.093
 3633SOL    HW211352   3.433   1.028   2.139
 3634SOL     OW11353   3.046   1.805   3.483
 3634SOL    HW111354   3.060   1.863   3.408
 3634SOL    HW211355   3.063   1.717   3.449
 3635SOL     OW11356   2.213   0.255   3.682
 3635SOL    HW111357   2.257   0.340   3.684
 3635SOL    HW211358   2.121   0.276   3.695
 3636SOL     OW11359   3.328   1.420   2.814
 3636SOL    HW111360   3.260   1.434   2.880
 3636SOL    HW211361   3.316   1.329   2.787
 3637SOL     OW11362   3.519   1.738   2.441
 3637SOL    HW111363   3.501   1.708   2.352
 3637SOL    HW211364   3.496   1.664   2.496
 3638SOL     OW11365   2.457   0.722   2.127
 3638SOL    HW111366   2.464   0.803   2.077
 3638SOL    HW211367   2.393   0.741   2.195
 3639SOL     OW11368   3.138   0.363   2.802
 3639SOL    HW111369   3.051   0.324   2.807
 3639SOL    HW211370   3.195   0.302   2.848
 3640SOL     OW11371   3.441   1.669   2.171
 3640SOL    HW111372   3.531   1.702   2.166
 3640SOL    HW211373   3.416   1.652   2.080
 3641SOL     OW11374   2.658   0.616   3.316
 3641SOL    HW111375   2.629   0.592   3.404
 3641SOL    HW211376   2.616   0.552   3.258
 3642SOL     OW11377   3.255   0.476   3.539
 3642SOL    HW111378   3.258   0.521   3.624
 3642SOL    HW211379   3.315   0.403   3.548
 3643SOL     OW11380   2.818   0.888   3.444
 3643SOL    HW111381   2.872   0.818   3.409
 3643SOL    HW211382   2.770   0.922   3.368
 3644SOL     OW11383   2.853   0.403   3.103
 3644SOL    HW111384   2.771   0.429   3.145
 3644SOL    HW211385   2.827   0.372   3.017
 3645SOL     OW11386   2.912   0.699   2.288
 3645SOL    HW111387   2.927   0.692   2.382
 3645SOL    HW211388   2.830   0.652   2.273
 3646SOL     OW11389   1.950   0.821   2.638
 3646SOL    HW111390   2.031   0.813   2.689
 3646SOL    HW211391   1.908   0.900   2.673
 3647SOL     OW11392   2.754   0.350   2.061
 3647SOL    HW111393   2.795   0.408   1.997
 3647SOL    HW211394   2.753   0.264   2.018
 3648SOL     OW11395   3.573   0.575   3.691
 3648SOL    HW111396   3.536   0.651   3.646
 3648SOL    HW211397   3.596   0.514   3.620
 3649SOL     OW11398   3.237   1.142   2.403
 3649SOL    HW111399   3.317   1.129   2.352
 3649SOL    HW211400   3.185   1.204   2.353
 3650SOL     OW11401   2.417   0.197   2.744
 3650SOL    HW111402   2.421   0.215   2.838
 3650SOL    HW211403   2.415   0.284   2.704
 3651SOL     OW11404   2.869   1.444   2.335
 3651SOL    HW111405   2.830   1.516   2.285
 3651SOL    HW211406   2.852   1.467   2.427
 3652SOL     OW11407   2.217   1.797   2.727
 3652SOL    HW111408   2.255   1.709   2.738
 3652SOL    HW211409   2.288   1.857   2.751
 3653SOL     OW11410   3.665   1.062   2.728
 3653SOL    HW111411   3.609   1.041   2.653
 3653SOL    HW211412   3.605   1.066   2.802
 3654SOL     OW11413   3.089   1.539   3.375
 3654SOL    HW111414   3.076   1.466   3.436
 3654SOL    HW211415   3.028   1.522   3.303
 3655SOL     OW11416   2.183   0.957   2.111
 3655SOL    HW111417   2.265   0.976   2.066
 3655SOL    HW211418   2.152   0.875   2.073
 3656SOL     OW11419   3.339   0.741   2.592
 3656SOL    HW111420   3.331   0.698   2.677
 3656SOL    HW211421   3.416   0.797   2.600
 3657SOL     OW11422   2.328   1.263   3.600
 3657SOL    HW111423   2.300   1.268   3.508
 3657SOL    HW211424   2.246   1.261   3.650
 3658SOL     OW11425   2.983   1.778   2.093
 3658SOL    HW111426   2.911   1.735   2.139
 3658SOL    HW211427   3.006   1.717   2.023
 3659SOL     OW11428   2.038   0.277   3.359
 3659SOL    HW111429   1.975   0.349   3.355
 3659SOL    HW211430   2.046   0.257   3.453
 3660SOL     OW11431   3.489   1.381   1.949
 3660SOL    HW111432   3.447   1.466   1.934
 3660SOL    HW211433   3.421   1.317   1.930
 3661SOL     OW11434   2.335   1.719   2.197
 3661SOL    HW111435   2.375   1.792   2.245
 3661SOL    HW211436   2.393   1.706   2.121
 3662SOL     OW11437   3.296   0.162   2.265
 3662SOL    HW111438   3.256   0.092   2.213
 3662SOL    HW211439   3.374   0.122   2.303
 3663SOL     OW11440   2.153   1.766   3.088
 3663SOL    HW111441   2.193   1.685   3.120
 3663SOL    HW211442   2.117   1.743   3.003
 3664SOL     OW11443   2.799   1.698   2.762
 3664SOL    HW111444   2.877   1.647   2.782
 3664SOL    HW211445   2.755   1.649   2.692
 3665SOL     OW11446   2.254   0.695   2.339
 3665SOL    HW111447   2.275   0.603   2.349
 3665SOL    HW211448   2.160   0.701   2.357
 3666SOL     OW11449   3.394   0.232   3.589
 3666SOL    HW111450   3.392   0.257   3.681
 3666SOL    HW211451   3.362   0.142   3.587
 3667SOL     OW11452   2.503   0.136   1.967
 3667SOL    HW111453   2.537   0.057   2.008
 3667SOL    HW211454   2.440   0.105   1.902
 3668SOL     OW11455   2.640   0.281   3.626
 3668SOL    HW111456   2.703   0.210   3.632
 3668SOL    HW211457   2.578   0.265   3.697
 3669SOL     OW11458   2.738   1.521   3.056
 3669SOL    HW111459   2.723   1.485   2.968
 3669SOL    HW211460   2.808   1.467   3.092
 3670SOL     OW11461   3.204   0.587   3.292
 3670SOL    HW111462   3.234   0.558   3.379
 3670SOL    HW211463   3.238   0.676   3.284
 3671SOL     OW11464   2.676   1.396   2.800
 3671SOL    HW111465   2.760   1.385   2.756
 3671SOL    HW211466   2.612   1.396   2.729
 3672SOL     OW11467   2.791   0.510   2.765
 3672SOL    HW111468   2.767   0.503   2.672
 3672SOL    HW211469   2.820   0.423   2.789
 3673SOL     OW11470   2.408   0.058   2.356
 3673SOL    HW111471   2.333   0.062   2.415
 3673SOL    HW211472   2.403   0.138   2.304
 3674SOL     OW11473   3.290   1.198   1.903
 3674SOL    HW111474   3.321   1.123   1.953
 3674SOL    HW211475   3.204   1.219   1.941
 3675SOL     OW11476   2.187   0.042   2.070
 3675SOL    HW111477   2.203   0.112   2.006
 3675SOL    HW211478   2.271   0.030   2.113
 3676SOL     OW11479   2.800   0.247   2.325
 3676SOL    HW111480   2.774   0.289   2.243
 3676SOL    HW211481   2.896   0.248   2.324
 3677SOL     OW11482   2.942   0.681   3.322
 3677SOL    HW111483   2.870   0.618   3.329
 3677SOL    HW211484   3.021   0.627   3.316
 3678SOL     OW11485   3.085   1.570   2.656
 3678SOL    HW111486   3.103   1.637   2.590
 3678SOL    HW211487   3.154   1.582   2.721
 3679SOL     OW11488   2.330   1.149   2.597
 3679SOL    HW111489   2.260   1.130   2.660
 3679SOL    HW211490   2.291   1.132   2.511
 3680SOL     OW11491   3.132   1.794   2.469
 3680SOL    HW111492   3.178   1.855   2.411
 3680SOL    HW211493   3.066   1.848   2.513
 3681SOL     OW11494   2.886   0.547   1.885
 3681SOL    HW111495   2.843   0.630   1.866
 3681SOL    HW211496   2.949   0.568   1.954
 3682SOL     OW11497   1.940   0.552   3.257
 3682SOL    HW111498   2.031   0.552   3.227
 3682SOL    HW211499   1.935   0.625   3.318
 3683SOL     OW11500   2.427   0.232   3.023
 3683SOL    HW111501   2.453   0.141   3.035
 3683SOL    HW211502   2.337   0.236   3.054
 3684SOL     OW11503   2.732   0.461   2.501
 3684SOL    HW111504   2.684   0.514   2.438
 3684SOL    HW211505   2.752   0.380   2.454
 3685SOL     OW11506   2.856   0.042   2.641
 3685SOL    HW111507   2.823   0.066   2.554
 3685SOL    HW211508   2.866   3.947   2.637
 3686SOL     OW11509   3.299   1.163   2.720
 3686SOL    HW111510   3.230   1.097   2.717
 3686SOL    HW211511   3.324   1.175   2.628
 3687SOL     OW11512   3.328   0.604   2.841
 3687SOL    HW111513   3.278   0.523   2.846
 3687SOL    HW211514   3.389   0.600   2.914
 3688SOL     OW11515   3.722   0.823   2.237
 3688SOL    HW111516   3.764   0.766   2.301
 3688SOL    HW211517   3.682   0.763   2.174
 3689SOL     OW11518   2.354   1.416   2.020
 3689SOL    HW111519   2.280   1.389   2.073
 3689SOL    HW211520   2.336   1.382   1.932
 3690SOL     OW11521   3.528   1.265   2.510
 3690SOL    HW111522   3.623   1.270   2.518
 3690SOL    HW211523   3.497   1.353   2.530
 3691SOL     OW11524   3.256   0.573   1.932
 3691SOL    HW111525   3.194   0.555   2.002
 3691SOL    HW211526   3.342   0.554   1.970
 3692SOL     OW11527   2.389   0.266   2.180
 3692SOL    HW111528   2.439   0.225   2.110
 3692SOL    HW211529   2.364   0.351   2.145
 3693SOL     OW11530   3.614   1.234   3.434
 3693SOL    HW111531   3.702   1.199   3.417
 3693SOL    HW211532   3.631   1.323   3.466
 3694SOL     OW11533   2.921   1.354   3.196
 3694SOL    HW111534   2.847   1.322   3.247
 3694SOL    HW211535   2.997   1.312   3.237
 3695SOL     OW11536   3.467   1.627   3.515
 3695SOL    HW111537   3.462   1.661   3.425
 3695SOL    HW211538   3.549   1.578   3.517
 3696SOL     OW11539   2.990   1.203   2.968
 3696SOL    HW111540   2.930   1.241   3.033
 3696SOL    HW211541   2.956   1.234   2.884
 3697SOL     OW11542   3.493   1.098   2.939
 3697SOL    HW111543   3.487   1.160   3.012
 3697SOL    HW211544   3.414   1.114   2.887
 3698SOL     OW11545   2.775   0.111   3.264
 3698SOL    HW111546   2.795   0.087   3.174
 3698SOL    HW211547   2.855   0.153   3.295
 3699SOL     OW11548   2.846   1.115   3.585
 3699SOL    HW111549   2.754   1.131   3.605
 3699SOL    HW211550   2.845   1.037   3.529
 3700SOL     OW11551   2.570   1.061   2.233
 3700SOL    HW111552   2.556   1.045   2.327
 3700SOL    HW211553   2.646   1.007   2.211
 3701SOL     OW11554   2.280   0.814   3.113
 3701SOL    HW111555   2.349   0.823   3.179
 3701SOL    HW211556   2.245   0.726   3.126
 3702SOL     OW11557   3.129   0.375   3.137
 3702SOL    HW111558   3.163   0.453   3.181
 3702SOL    HW211559   3.042   0.402   3.106
 3703SOL     OW11560   1.932   1.577   3.214
 3703SOL    HW111561   1.896   1.641   3.153
 3703SOL    HW211562   2.027   1.582   3.200
 3704SOL     OW11563   2.213   1.108   2.353
 3704SOL    HW111564   2.218   1.182   2.293
 3704SOL    HW211565   2.211   1.031   2.297
 3705SOL     OW11566   2.419   0.536   2.720
 3705SOL    HW111567   2.434   0.595   2.647
 3705SOL    HW211568   2.481   0.564   2.787
 3706SOL     OW11569   3.110   1.348   2.251
 3706SOL    HW111570   3.166   1.420   2.282
 3706SOL    HW211571   3.023   1.369   2.285
 3707SOL     OW11572   3.141   1.457   3.008
 3707SOL    HW111573   3.197   1.460   3.086
 3707SOL    HW211574   3.086   1.379   3.021
 3708SOL     OW11575   3.438   0.631   2.344
 3708SOL    HW111576   3.399   0.691   2.408
 3708SOL    HW211577   3.486   0.688   2.284
 3709SOL     OW11578   2.214   1.516   3.180
 3709SOL    HW111579   2.200   1.475   3.095
 3709SOL    HW211580   2.309   1.528   3.185
 3710SOL     OW11581   2.276   0.745   3.463
 3710SOL    HW111582   2.337   0.790   3.405
 3710SOL    HW211583   2.316   0.659   3.479
 3711SOL     OW11584   3.462   0.776   3.541
 3711SOL    HW111585   3.376   0.818   3.535
 3711SOL    HW211586   3.515   0.819   3.474
 3712SOL     OW11587   2.884   0.121   3.640
 3712SOL    HW111588   2.918   0.200   3.598
 3712SOL    HW211589   2.868   0.060   3.568
 3713SOL     OW11590   2.347   0.034   3.626
 3713SOL    HW111591   2.354   0.039   3.530
 3713SOL    HW211592   2.289   0.107   3.649
 3714SOL     OW11593   2.445   0.872   2.893
 3714SOL    HW111594   2.474   0.964   2.892
 3714SOL    HW211595   2.388   0.867   2.970
 3715SOL     OW11596   3.221   0.859   2.893
 3715SOL    HW111597   3.138   0.851   2.845
 3715SOL    HW211598   3.260   0.772   2.888
 3716SOL     OW11599   3.067   0.534   2.125
 3716SOL    HW111600   3.075   0.455   2.179
 3716SOL    HW211601   3.024   0.598   2.183
 3717SOL     OW11602   2.164   0.212   3.104
 3717SOL    HW111603   2.126   0.241   3.187
 3717SOL    HW211604   2.151   0.117   3.103
 3718SOL     OW11605   1.907   1.313   3.141
 3718SOL    HW111606   1.941   1.258   3.211
 3718SOL    HW211607   1.915   1.402   3.173
 3719SOL     OW11608   2.587   0.633   2.919
 3719SOL    HW111609   2.661   0.617   2.859
 3719SOL    HW211610   2.558   0.722   2.897
 3720SOL     OW11611   3.595   0.956   3.720
 3720SOL    HW111612   3.549   0.903   3.655
 3720SOL    HW211613   3.532   0.969   3.790
 3721SOL     OW11614   2.183   0.057   2.507
 3721SOL    HW111615   2.162   0.150   2.519
 3721SOL    HW211616   2.143   0.014   2.582
 3722SOL     OW11617   3.469   0.387   2.243
 3722SOL    HW111618   3.442   0.318   2.304
 3722SOL    HW211619   3.446   0.469   2.288
 3723SOL     OW11620   2.890   0.759   2.823
 3723SOL    HW111621   2.887   0.777   2.917
 3723SOL    HW211622   2.863   0.668   2.814
 3724SOL     OW11623   2.844   1.566   3.578
 3724SOL    HW111624   2.829   1.610   3.494
 3724SOL    HW211625   2.887   1.484   3.555
 3725SOL     OW11626   3.708   1.505   3.463
 3725SOL    HW111627   3.730   1.532   3.373
 3725SOL    HW211628   3.789   1.519   3.512
 3726SOL     OW11629   2.215   0.915   3.670
 3726SOL    HW111630   2.297   0.935   3.715
 3726SOL    HW211631   2.239   0.853   3.601
 3727SOL     OW11632   3.370   0.276   1.998
 3727SOL    HW111633   3.294   0.218   2.010
 3727SOL    HW211634   3.384   0.316   2.084
 3728SOL     OW11635   3.154   0.827   1.893
 3728SOL    HW111636   3.196   0.741   1.896
 3728SOL    HW211637   3.186   0.867   1.812
 3729SOL     OW11638   2.927   1.335   2.716
 3729SOL    HW111639   2.930   1.263   2.653
 3729SOL    HW211640   2.989   1.399   2.681
 3730SOL     OW11641   2.171   0.810   2.810
 3730SOL    HW111642   2.264   0.831   2.803
 3730SOL    HW211643   2.169   0.720   2.842
 3731SOL     OW11644   2.199   0.533   2.874
 3731SOL    HW111645   2.158   0.447   2.858
 3731SOL    HW211646   2.275   0.534   2.816
 3732SOL     OW11647   2.995   0.383   3.553
 3732SOL    HW111648   2.948   0.438   3.616
 3732SOL    HW211649   3.083   0.422   3.549
 3733SOL     OW11650   3.013   0.224   3.343
 3733SOL    HW111651   3.005   0.279   3.421
 3733SOL    HW211652   3.035   0.286   3.273
 3734SOL     OW11653   1.866   1.320   2.056
 3734SOL    HW111654   1.778   1.332   2.020
 3734SOL    HW211655   1.865   1.231   2.090
 3735SOL     OW11656   1.971   1.725   2.836
 3735SOL    HW111657   1.932   1.667   2.769
 3735SOL    HW211658   2.040   1.771   2.789
 3736SOL     OW11659   2.363   1.569   2.771
 3736SOL    HW111660   2.432   1.631   2.793
 3736SOL    HW211661   2.406   1.506   2.713
 3737SOL     OW11662   2.847   0.791   3.088
 3737SOL    HW111663   2.900   0.769   3.164
 3737SOL    HW211664   2.760   0.757   3.109
 3738SOL     OW11665   1.896   0.545   2.979
 3738SOL    HW111666   1.972   0.519   2.927
 3738SOL    HW211667   1.928   0.548   3.069
 3739SOL     OW11668   2.064   0.526   3.577
 3739SOL    HW111669   2.130   0.502   3.512
 3739SOL    HW211670   2.016   0.599   3.537
 3740SOL     OW11671   3.240   0.940   3.521
 3740SOL    HW111672   3.260   1.033   3.520
 3740SOL    HW211673   3.236   0.915   3.429
 3741SOL     OW11674   2.678   0.571   2.221
 3741SOL    HW111675   2.683   0.495   2.163
 3741SOL    HW211676   2.603   0.622   2.188
 3742SOL     OW11677   3.504   0.602   3.049
 3742SOL    HW111678   3.492   0.541   3.122
 3742SOL    HW211679   3.589   0.580   3.012
 3743SOL     OW11680   2.117   1.539   3.572
 3743SOL    HW111681   2.098   1.610   3.634
 3743SOL    HW211682   2.115   1.459   3.625
 3744SOL     OW11683   2.561   0.457   3.123
 3744SOL    HW111684   2.513   0.378   3.095
 3744SOL    HW211685   2.556   0.515   3.047
 3745SOL     OW11686   2.789   1.679   3.329
 3745SOL    HW111687   2.765   1.646   3.243
 3745SOL    HW211688   2.788   1.774   3.320
 3746SOL     OW11689   2.328   0.494   2.049
 3746SOL    HW111690   2.385   0.567   2.070
 3746SOL    HW211691   2.241   0.534   2.037
 3747SOL     OW11692   2.008   1.140   3.334
 3747SOL    HW111693   2.012   1.088   3.414
 3747SOL    HW211694   2.025   1.077   3.263
 3748SOL     OW11695   3.188   1.047   3.086
 3748SOL    HW111696   3.213   0.985   3.018
 3748SOL    HW211697   3.117   1.099   3.047
 3749SOL     OW11698   3.173   0.855   2.168
 3749SOL    HW111699   3.096   0.827   2.218
 3749SOL    HW211700   3.147   0.843   2.077
 3750SOL     OW11701   3.637   1.745   3.015
 3750SOL    HW111702   3.692   1.772   2.941
 3750SOL    HW211703   3.610   1.656   2.993
 3751SOL     OW11704   3.103   1.733   2.977
 3751SOL    HW111705   3.185   1.753   2.931
 3751SOL    HW211706   3.108   1.639   2.994
 3752SOL     OW11707   1.947   1.264   2.877
 3752SOL    HW111708   1.932   1.278   2.970
 3752SOL    HW211709   1.872   1.212   2.847
 3753SOL     OW11710   2.540   1.663   3.587
 3753SOL    HW111711   2.493   1.746   3.588
 3753SOL    HW211712   2.606   1.673   3.519
 3754SOL     OW11713   3.555   0.124   2.348
 3754SOL    HW111714   3.637   0.135   2.301
 3754SOL    HW211715   3.554   0.031   2.373
 3755SOL     OW11716   3.252   1.567   2.346
 3755SOL    HW111717   3.313   1.599   2.279
 3755SOL    HW211718   3.204   1.646   2.374
 3756SOL     OW11719   2.033   1.745   3.719
 3756SOL    HW111720   1.969   1.693   3.767
 3756SOL    HW211721   2.011   1.836   3.740
 3757SOL     OW11722   3.139   0.925   2.533
 3757SOL    HW111723   3.213   0.865   2.539
 3757SOL    HW211724   3.173   0.998   2.481
 3758SOL     OW11725   2.678   1.272   3.292
 3758SOL    HW111726   2.650   1.311   3.375
 3758SOL    HW211727   2.607   1.294   3.231
 3759SOL     OW11728   2.536   1.618   2.014
 3759SOL    HW111729   2.544   1.627   1.919
 3759SOL    HW211730   2.481   1.541   2.026
 3760SOL     OW11731   3.488   1.726   3.253
 3760SOL    HW111732   3.540   1.732   3.173
 3760SOL    HW211733   3.475   1.817   3.281
 3761SOL     OW11734   3.702   0.179   2.832
 3761SOL    HW111735   3.727   0.096   2.792
 3761SOL    HW211736   3.615   0.198   2.796
 3762SOL     OW11737   2.127   0.318   2.578
 3762SOL    HW111738   2.041   0.354   2.556
 3762SOL    HW211739   2.125   0.306   2.673
 3763SOL     OW11740   3.069   1.607   1.893
 3763SOL    HW111741   3.060   1.515   1.920
 3763SOL    HW211742   3.003   1.617   1.824
 3764SOL     OW11743   2.687   1.005   3.234
 3764SOL    HW111744   2.728   1.003   3.148
 3764SOL    HW211745   2.686   1.098   3.257
 3765SOL     OW11746   2.778   0.910   2.152
 3765SOL    HW111747   2.839   0.942   2.086
 3765SOL    HW211748   2.825   0.840   2.196
 3766SOL     OW11749   3.354   1.626   1.904
 3766SOL    HW111750   3.260   1.620   1.891
 3766SOL    HW211751   3.391   1.632   1.816
 3767SOL     OW11752   2.232   1.298   3.354
 3767SOL    HW111753   2.219   1.377   3.301
 3767SOL    HW211754   2.154   1.245   3.338
 3768SOL     OW11755   3.466   1.280   3.141
 3768SOL    HW111756   3.534   1.275   3.209
 3768SOL    HW211757   3.409   1.351   3.169
 3769SOL     OW11758   2.913   1.107   2.568
 3769SOL    HW111759   2.842   1.055   2.607
 3769SOL    HW211760   2.974   1.041   2.535
 3770SOL     OW11761   2.877   0.247   2.829
 3770SOL    HW111762   2.866   0.197   2.748
 3770SOL    HW211763   2.870   0.181   2.899
 3771SOL     OW11764   2.463   1.490   2.344
 3771SOL    HW111765   2.504   1.440   2.273
 3771SOL    HW211766   2.401   1.548   2.300
 3772SOL     OW11767   3.581   0.391   3.236
 3772SOL    HW111768   3.652   0.456   3.235
 3772SOL    HW211769   3.613   0.320   3.181
 3773SOL     OW11770   2.120   1.346   2.148
 3773SOL    HW111771   2.027   1.343   2.128
 3773SOL    HW211772   2.124   1.381   2.237
 3774SOL     OW11773   1.974   1.021   3.581
 3774SOL    HW111774   1.898   0.998   3.634
 3774SOL    HW211775   2.049   0.984   3.629
 3775SOL     OW11776   2.553   0.242   3.359
 3775SOL    HW111777   2.623   0.191   3.319
 3775SOL    HW211778   2.579   0.250   3.451
 3776SOL     OW11779   1.959   0.319   1.851
 3776SOL    HW111780   1.881   0.336   1.904
 3776SOL    HW211781   1.975   0.402   1.806
 3777SOL     OW11782   3.291   0.857   3.262
 3777SOL    HW111783   3.242   0.919   3.207
 3777SOL    HW211784   3.380   0.860   3.227
 3778SOL     OW11785   1.945   0.155   2.203
 3778SOL    HW111786   1.914   0.217   2.137
 3778SOL    HW211787   2.029   0.124   2.169
 3779SOL     OW11788   3.041   1.341   1.979
 3779SOL    HW111789   2.950   1.310   1.982
 3779SOL    HW211790   3.070   1.340   2.070
 3780SOL     OW11791   2.481   0.830   3.295
 3780SOL    HW111792   2.537   0.906   3.280
 3780SOL    HW211793   2.543   0.757   3.304
 3781SOL     OW11794   3.346   1.777   2.839
 3781SOL    HW111795   3.370   1.835   2.767
 3781SOL    HW211796   3.428   1.756   2.883
 3782SOL     OW11797   2.579   0.563   3.568
 3782SOL    HW111798   2.618   0.627   3.628
 3782SOL    HW211799   2.611   0.478   3.599
 3783SOL     OW11800   3.332   1.201   3.494
 3783SOL    HW111801   3.321   1.215   3.588
 3783SOL    HW211802   3.426   1.215   3.479
 3784SOL     OW11803   2.241   1.745   3.432
 3784SOL    HW111804   2.161   1.766   3.384
 3784SOL    HW211805   2.223   1.659   3.471
 3785SOL     OW11806   3.529   0.881   3.121
 3785SOL    HW111807   3.527   0.796   3.077
 3785SOL    HW211808   3.524   0.945   3.049
 3786SOL     OW11809   3.085   0.333   2.308
 3786SOL    HW111810   3.152   0.266   2.299
 3786SOL    HW211811   3.108   0.379   2.390
 3787SOL     OW11812   2.453   0.739   2.530
 3787SOL    HW111813   2.492   0.825   2.515
 3787SOL    HW211814   2.384   0.731   2.465
 3788SOL     OW11815   3.619   0.379   3.504
 3788SOL    HW111816   3.598   0.386   3.411
 3788SOL    HW211817   3.559   0.312   3.537
 3789SOL     OW11818   3.613   0.932   3.376
 3789SOL    HW111819   3.608   1.026   3.391
 3789SOL    HW211820   3.592   0.921   3.283
 3790SOL     OW11821   2.723   1.368   1.894
 3790SOL    HW111822   2.686   1.394   1.978
 3790SOL    HW211823   2.743   1.450   1.850
 3791SOL     OW11824   2.521   1.796   2.809
 3791SOL    HW111825   2.504   1.885   2.780
 3791SOL    HW211826   2.616   1.785   2.799
 3792SOL     OW11827   2.729   0.966   2.718
 3792SOL    HW111828   2.779   0.895   2.758
 3792SOL    HW211829   2.695   1.016   2.792
 3793SOL     OW11830   2.942   0.988   1.951
 3793SOL    HW111831   2.919   1.039   1.873
 3793SOL    HW211832   3.016   0.935   1.924
 3794SOL     OW11833   3.718   1.557   2.704
 3794SOL    HW111834   3.639   1.541   2.652
 3794SOL    HW211835   3.715   1.490   2.773
 3795SOL     OW11836   2.087   1.303   3.719
 3795SOL    HW111837   2.019   1.241   3.692
 3795SOL    HW211838   2.073   1.314   3.813
 3796SOL     OW11839   1.943   1.228   2.525
 3796SOL    HW111840   1.951   1.183   2.609
 3796SOL    HW211841   2.016   1.195   2.472
 3797SOL     OW11842   2.541   1.402   3.487
 3797SOL    HW111843   2.463   1.358   3.519
 3797SOL    HW211844   2.537   1.489   3.526
 3798SOL     OW11845   3.677   0.182   3.105
 3798SOL    HW111846   3.679   0.087   3.114
 3798SOL    HW211847   3.693   0.199   3.012
 3799SOL     OW11848   2.291   0.434   2.386
 3799SOL    HW111849   2.322   0.362   2.332
 3799SOL    HW211850   2.244   0.392   2.459
 3800SOL     OW11851   3.561   1.492   2.962
 3800SOL    HW111852   3.481   1.466   2.915
 3800SOL    HW211853   3.575   1.421   3.025
 3801SOL     OW11854   2.190   0.554   3.154
 3801SOL    HW111855   2.244   0.497   3.209
 3801SOL    HW211856   2.210   0.528   3.064
 3802SOL     OW11857   2.688   1.578   2.541
 3802SOL    HW111858   2.679   1.630   2.461
 3802SOL    HW211859   2.611   1.521   2.542
 3803SOL     OW11860   3.323   0.251   2.973
 3803SOL    HW111861   3.337   0.163   3.009
 3803SOL    HW211862   3.265   0.293   3.037
 3804SOL     OW11863   2.868   0.029   3.009
 3804SOL    HW111864   2.792   3.980   2.980
 3804SOL    HW211865   2.938   3.964   3.017
 3805SOL     OW11866   2.635   1.332   2.174
 3805SOL    HW111867   2.602   1.243   2.181
 3805SOL    HW211868   2.716   1.332   2.224
 3806SOL     OW11869   2.482   1.557   3.147
 3806SOL    HW111870   2.485   1.639   3.196
 3806SOL    HW211871   2.570   1.549   3.109
 3807SOL     OW11872   3.178   0.072   2.023
 3807SOL    HW111873   3.192   0.001   1.960
 3807SOL    HW211874   3.093   0.052   2.062
 3808SOL     OW11875   3.147   0.458   2.549
 3808SOL    HW111876   3.099   0.540   2.546
 3808SOL    HW211877   3.151   0.436   2.642
 3809SOL     OW11878   3.451   0.211   2.729
 3809SOL    HW111879   3.401   0.232   2.808
 3809SOL    HW211880   3.451   0.291   2.677
 3810SOL     OW11881   1.906   1.072   2.166
 3810SOL    HW111882   2.000   1.063   2.150
 3810SOL    HW211883   1.878   0.984   2.191
 3811SOL     OW11884   2.746   1.650   2.204
 3811SOL    HW111885   2.672   1.634   2.145
 3811SOL    HW211886   2.719   1.726   2.256
 3812SOL     OW11887   2.092   0.621   3.845
 3812SOL    HW111888   2.002   0.626   3.876
 3812SOL    HW211889   2.085   0.600   3.752
 3813SOL     OW11890   2.079   0.297   4.715
 3813SOL    HW111891   2.116   0.256   4.793
 3813SOL    HW211892   1.996   0.252   4.701
 3814SOL     OW11893   1.871   0.394   4.361
 3814SOL    HW111894   1.784   0.409   4.396
 3814SOL    HW211895   1.860   0.322   4.298
 3815SOL     OW11896   2.429   1.285   4.898
 3815SOL    HW111897   2.342   1.288   4.858
 3815SOL    HW211898   2.444   1.374   4.930
 3816SOL     OW11899   3.421   1.512   4.430
 3816SOL    HW111900   3.378   1.493   4.513
 3816SOL    HW211901   3.350   1.517   4.367
 3817SOL     OW11902   2.993   0.698   4.426
 3817SOL    HW111903   3.042   0.780   4.412
 3817SOL    HW211904   2.946   0.713   4.508
 3818SOL     OW11905   3.620   0.621   3.953
 3818SOL    HW111906   3.604   0.610   3.859
 3818SOL    HW211907   3.607   0.534   3.990
 3819SOL     OW11908   2.620   1.143   4.764
 3819SOL    HW111909   2.550   1.177   4.820
 3819SOL    HW211910   2.654   1.221   4.719
 3820SOL     OW11911   2.727   0.777   5.546
 3820SOL    HW111912   2.715   0.848   5.609
 3820SOL    HW211913   2.750   0.820   5.464
 3821SOL     OW11914   2.548   1.004   4.371
 3821SOL    HW111915   2.613   0.992   4.441
 3821SOL    HW211916   2.478   1.055   4.412
 3822SOL     OW11917   2.571   1.151   5.535
 3822SOL    HW111918   2.619   1.229   5.561
 3822SOL    HW211919   2.488   1.184   5.501
 3823SOL     OW11920   2.193   1.425   4.793
 3823SOL    HW111921   2.119   1.391   4.743
 3823SOL    HW211922   2.243   1.476   4.729
 3824SOL     OW11923   3.323   1.499   5.076
 3824SOL    HW111924   3.372   1.581   5.086
 3824SOL    HW211925   3.265   1.497   5.153
 3825SOL     OW11926   2.304   0.397   5.219
 3825SOL    HW111927   2.392   0.358   5.217
 3825SOL    HW211928   2.245   0.322   5.226
 3826SOL     OW11929   3.474   0.450   4.460
 3826SOL    HW111930   3.402   0.483   4.406
 3826SOL    HW211931   3.500   0.526   4.513
 3827SOL     OW11932   2.093   1.701   4.190
 3827SOL    HW111933   2.126   1.769   4.249
 3827SOL    HW211934   2.163   1.691   4.125
 3828SOL     OW11935   2.998   1.342   5.417
 3828SOL    HW111936   3.039   1.337   5.503
 3828SOL    HW211937   2.946   1.262   5.410
 3829SOL     OW11938   2.090   1.436   4.259
 3829SOL    HW111939   2.077   1.531   4.258
 3829SOL    HW211940   2.027   1.405   4.324
 3830SOL     OW11941   2.118   1.090   4.614
 3830SOL    HW111942   2.115   1.003   4.656
 3830SOL    HW211943   2.061   1.144   4.668
 3831SOL     OW11944   2.475   1.791   5.155
 3831SOL    HW111945   2.392   1.775   5.201
 3831SOL    HW211946   2.499   1.880   5.180
 3832SOL     OW11947   2.449   0.981   3.857
 3832SOL    HW111948   2.494   1.031   3.789
 3832SOL    HW211949   2.489   1.011   3.939
 3833SOL     OW11950   3.441   0.136   5.182
 3833SOL    HW111951   3.463   0.211   5.125
 3833SOL    HW211952   3.415   0.176   5.265
 3834SOL     OW11953   1.976   0.653   4.283
 3834SOL    HW111954   1.950   0.564   4.306
 3834SOL    HW211955   1.969   0.703   4.365
 3835SOL     OW11956   3.700   1.758   4.061
 3835SOL    HW111957   3.766   1.733   4.125
 3835SOL    HW211958   3.722   1.848   4.038
 3836SOL     OW11959   1.866   1.599   3.869
 3836SOL    HW111960   1.861   1.504   3.862
 3836SOL    HW211961   1.874   1.616   3.963
 3837SOL     OW11962   3.549   0.917   4.364
 3837SOL    HW111963   3.634   0.877   4.350
 3837SOL    HW211964   3.532   0.968   4.285
 3838SOL     OW11965   3.504   1.107   4.155
 3838SOL    HW111966   3.588   1.114   4.111
 3838SOL    HW211967   3.510   1.168   4.228
 3839SOL     OW11968   1.984   0.747   5.307
 3839SOL    HW111969   2.075   0.773   5.316
 3839SOL    HW211970   1.935   0.829   5.314
 3840SOL     OW11971   2.475   1.384   4.458
 3840SOL    HW111972   2.429   1.301   4.468
 3840SOL    HW211973   2.458   1.411   4.368
 3841SOL     OW11974   3.151   1.239   5.148
 3841SOL    HW111975   3.184   1.172   5.088
 3841SOL    HW211976   3.208   1.232   5.225
 3842SOL     OW11977   2.679   0.002   4.239
 3842SOL    HW111978   2.724   0.083   4.217
 3842SOL    HW211979   2.586   0.026   4.241
 3843SOL     OW11980   2.053   0.966   4.995
 3843SOL    HW111981   2.137   0.925   4.979
 3843SOL    HW211982   1.990   0.912   4.948
 3844SOL     OW11983   3.392   0.993   3.922
 3844SOL    HW111984   3.322   0.936   3.955
 3844SOL    HW211985   3.433   1.028   4.001
 3845SOL     OW11986   3.046   1.805   5.345
 3845SOL    HW111987   3.060   1.863   5.270
 3845SOL    HW211988   3.063   1.717   5.311
 3846SOL     OW11989   2.213   0.255   5.543
 3846SOL    HW111990   2.257   0.340   5.546
 3846SOL    HW211991   2.120   0.276   5.557
 3847SOL     OW11992   3.327   1.420   4.676
 3847SOL    HW111993   3.260   1.434   4.742
 3847SOL    HW211994   3.316   1.329   4.649
 3848SOL     OW11995   3.519   1.738   4.303
 3848SOL    HW111996   3.501   1.708   4.214
 3848SOL    HW211997   3.496   1.664   4.358
 3849SOL     OW11998   2.457   0.722   3.989
 3849SOL    HW111999   2.464   0.803   3.939
 3849SOL    HW212000   2.393   0.741   4.057
 3850SOL     OW12001   3.138   0.363   4.664
 3850SOL    HW112002   3.051   0.324   4.669
 3850SOL    HW212003   3.195   0.302   4.710
 3851SOL     OW12004   3.441   1.669   4.033
 3851SOL    HW112005   3.531   1.702   4.028
 3851SOL    HW212006   3.416   1.652   3.942
 3852SOL     OW12007   2.658   0.616   5.178
 3852SOL    HW112008   2.629   0.592   5.266
 3852SOL    HW212009   2.616   0.552   5.121
 3853SOL     OW12010   3.255   0.476   5.401
 3853SOL    HW112011   3.258   0.521   5.486
 3853SOL    HW212012   3.315   0.403   5.410
 3854SOL     OW12013   2.818   0.888   5.306
 3854SOL    HW112014   2.872   0.818   5.271
 3854SOL    HW212015   2.770   0.922   5.230
 3855SOL     OW12016   2.853   0.403   4.965
 3855SOL    HW112017   2.771   0.429   5.007
 3855SOL    HW212018   2.827   0.372   4.879
 3856SOL     OW12019   2.912   0.698   4.150
 3856SOL    HW112020   2.927   0.692   4.244
 3856SOL    HW212021   2.830   0.652   4.135
 3857SOL     OW12022   1.950   0.821   4.500
 3857SOL    HW112023   2.031   0.813   4.551
 3857SOL    HW212024   1.908   0.900   4.535
 3858SOL     OW12025   2.754   0.350   3.923
 3858SOL    HW112026   2.795   0.408   3.859
 3858SOL    HW212027   2.753   0.264   3.880
 3859SOL     OW12028   3.573   0.575   5.553
 3859SOL    HW112029   3.535   0.651   5.508
 3859SOL    HW212030   3.596   0.514   5.482
 3860SOL     OW12031   3.237   1.142   4.265
 3860SOL    HW112032   3.317   1.129   4.214
 3860SOL    HW212033   3.185   1.204   4.215
 3861SOL     OW12034   2.417   0.197   4.606
 3861SOL    HW112035   2.421   0.215   4.700
 3861SOL    HW212036   2.415   0.284   4.566
 3862SOL     OW12037   2.869   1.444   4.197
 3862SOL    HW112038   2.830   1.516   4.147
 3862SOL    HW212039   2.852   1.467   4.289
 3863SOL     OW12040   2.218   1.800   4.588
 3863SOL    HW112041   2.255   1.712   4.600
 3863SOL    HW212042   2.289   1.859   4.613
 3864SOL     OW12043   3.665   1.062   4.590
 3864SOL    HW112044   3.609   1.041   4.515
 3864SOL    HW212045   3.605   1.066   4.664
 3865SOL     OW12046   3.089   1.539   5.238
 3865SOL    HW112047   3.076   1.466   5.298
 3865SOL    HW212048   3.029   1.522   5.165
 3866SOL     OW12049   2.183   0.957   3.973
 3866SOL    HW112050   2.265   0.976   3.928
 3866SOL    HW212051   2.152   0.875   3.935
 3867SOL     OW12052   3.339   0.741   4.454
 3867SOL    HW112053   3.331   0.698   4.539
 3867SOL    HW212054   3.416   0.797   4.462
 3868SOL     OW12055   2.327   1.264   5.463
 3868SOL    HW112056   2.300   1.269   5.371
 3868SOL    HW212057   2.245   1.261   5.512
 3869SOL     OW12058   2.983   1.778   3.955
 3869SOL    HW112059   2.911   1.735   4.001
 3869SOL    HW212060   3.006   1.717   3.885
 3870SOL     OW12061   2.038   0.277   5.221
 3870SOL    HW112062   1.975   0.349   5.218
 3870SOL    HW212063   2.046   0.257   5.315
 3871SOL     OW12064   3.489   1.381   3.811
 3871SOL    HW112065   3.447   1.466   3.796
 3871SOL    HW212066   3.421   1.317   3.792
 3872SOL     OW12067   2.336   1.719   4.059
 3872SOL    HW112068   2.374   1.792   4.107
 3872SOL    HW212069   2.393   1.707   3.984
 3873SOL     OW12070   3.296   0.162   4.126
 3873SOL    HW112071   3.256   0.092   4.075
 3873SOL    HW212072   3.374   0.122   4.165
 3874SOL     OW12073   2.154   1.767   4.950
 3874SOL    HW112074   2.194   1.687   4.983
 3874SOL    HW212075   2.117   1.743   4.865
 3875SOL     OW12076   2.799   1.698   4.624
 3875SOL    HW112077   2.877   1.647   4.644
 3875SOL    HW212078   2.755   1.649   4.554
 3876SOL     OW12079   2.254   0.695   4.201
 3876SOL    HW112080   2.275   0.603   4.211
 3876SOL    HW212081   2.160   0.701   4.219
 3877SOL     OW12082   3.394   0.232   5.451
 3877SOL    HW112083   3.392   0.257   5.543
 3877SOL    HW212084   3.362   0.142   5.449
 3878SOL     OW12085   2.503   0.136   3.829
 3878SOL    HW112086   2.537   0.056   3.870
 3878SOL    HW212087   2.440   0.105   3.764
 3879SOL     OW12088   2.640   0.281   5.488
 3879SOL    HW112089   2.703   0.210   5.494
 3879SOL    HW212090   2.578   0.265   5.559
 3880SOL     OW12091   2.738   1.521   4.918
 3880SOL    HW112092   2.723   1.485   4.830
 3880SOL    HW212093   2.808   1.467   4.954
 3881SOL     OW12094   3.204   0.587   5.154
 3881SOL    HW112095   3.234   0.558   5.241
 3881SOL    HW212096   3.238   0.676   5.146
 3882SOL     OW12097   2.676   1.396   4.662
 3882SOL    HW112098   2.760   1.385   4.618
 3882SOL    HW212099   2.612   1.396   4.591
 3883SOL     OW12100   2.791   0.510   4.627
 3883SOL    HW112101   2.767   0.503   4.534
 3883SOL    HW212102   2.820   0.423   4.651
 3884SOL     OW12103   2.408   0.058   4.218
 3884SOL    HW112104   2.333   0.062   4.277
 3884SOL    HW212105   2.403   0.138   4.166
 3885SOL     OW12106   3.290   1.198   3.765
 3885SOL    HW112107   3.321   1.123   3.815
 3885SOL    HW212108   3.204   1.219   3.803
 3886SOL     OW12109   2.187   0.042   3.932
 3886SOL    HW112110   2.203   0.112   3.868
 3886SOL    HW212111   2.271   0.030   3.975
 3887SOL     OW12112   2.800   0.247   4.187
 3887SOL    HW112113   2.774   0.289   4.105
 3887SOL    HW212114   2.896   0.248   4.186
 3888SOL     OW12115   2.942   0.681   5.183
 3888SOL    HW112116   2.870   0.618   5.191
 3888SOL    HW212117   3.021   0.627   5.178
 3889SOL     OW12118   3.085   1.570   4.518
 3889SOL    HW112119   3.103   1.637   4.452
 3889SOL    HW212120   3.154   1.582   4.583
 3890SOL     OW12121   2.330   1.149   4.459
 3890SOL    HW112122   2.260   1.130   4.522
 3890SOL    HW212123   2.291   1.132   4.373
 3891SOL     OW12124   3.132   1.794   4.331
 3891SOL    HW112125   3.178   1.855   4.273
 3891SOL    HW212126   3.066   1.848   4.375
 3892SOL     OW12127   2.886   0.547   3.747
 3892SOL    HW112128   2.843   0.630   3.728
 3892SOL    HW212129   2.949   0.568   3.816
 3893SOL     OW12130   1.940   0.552   5.119
 3893SOL    HW112131   2.031   0.552   5.089
 3893SOL    HW212132   1.935   0.625   5.180
 3894SOL     OW12133   2.427   0.232   4.885
 3894SOL    HW112134   2.453   0.141   4.897
 3894SOL    HW212135   2.337   0.236   4.917
 3895SOL     OW12136   2.732   0.461   4.363
 3895SOL    HW112137   2.684   0.514   4.300
 3895SOL    HW212138   2.752   0.380   4.316
 3896SOL     OW12139   2.856   0.042   4.503
 3896SOL    HW112140   2.823   0.066   4.416
 3896SOL    HW212141   2.866   3.947   4.499
 3897SOL     OW12142   3.299   1.163   4.582
 3897SOL    HW112143   3.230   1.097   4.579
 3897SOL    HW212144   3.324   1.175   4.490
 3898SOL     OW12145   3.328   0.604   4.703
 3898SOL    HW112146   3.278   0.523   4.708
 3898SOL    HW212147   3.389   0.600   4.776
 3899SOL     OW12148   3.722   0.823   4.099
 3899SOL    HW112149   3.764   0.766   4.163
 3899SOL    HW212150   3.682   0.763   4.036
 3900SOL     OW12151   2.355   1.416   3.882
 3900SOL    HW112152   2.280   1.389   3.935
 3900SOL    HW212153   2.336   1.382   3.794
 3901SOL     OW12154   3.528   1.265   4.372
 3901SOL    HW112155   3.623   1.270   4.380
 3901SOL    HW212156   3.497   1.353   4.392
 3902SOL     OW12157   3.256   0.573   3.794
 3902SOL    HW112158   3.194   0.555   3.864
 3902SOL    HW212159   3.342   0.554   3.832
 3903SOL     OW12160   2.389   0.266   4.042
 3903SOL    HW112161   2.439   0.225   3.972
 3903SOL    HW212162   2.364   0.351   4.007
 3904SOL     OW12163   3.614   1.234   5.296
 3904SOL    HW112164   3.701   1.199   5.279
 3904SOL    HW212165   3.630   1.323   5.329
 3905SOL     OW12166   2.921   1.354   5.059
 3905SOL    HW112167   2.847   1.322   5.109
 3905SOL    HW212168   2.997   1.312   5.099
 3906SOL     OW12169   3.466   1.627   5.377
 3906SOL    HW112170   3.462   1.661   5.287
 3906SOL    HW212171   3.549   1.578   5.379
 3907SOL     OW12172   2.990   1.203   4.830
 3907SOL    HW112173   2.930   1.241   4.895
 3907SOL    HW212174   2.956   1.234   4.746
 3908SOL     OW12175   3.493   1.098   4.801
 3908SOL    HW112176   3.487   1.160   4.874
 3908SOL    HW212177   3.414   1.114   4.749
 3909SOL     OW12178   2.775   0.111   5.126
 3909SOL    HW112179   2.795   0.087   5.036
 3909SOL    HW212180   2.855   0.153   5.157
 3910SOL     OW12181   2.846   1.115   5.447
 3910SOL    HW112182   2.754   1.130   5.467
 3910SOL    HW212183   2.845   1.037   5.391
 3911SOL     OW12184   2.570   1.061   4.095
 3911SOL    HW112185   2.557   1.045   4.189
 3911SOL    HW212186   2.646   1.007   4.073
 3912SOL     OW12187   2.280   0.814   4.975
 3912SOL    HW112188   2.349   0.823   5.041
 3912SOL    HW212189   2.245   0.726   4.988
 3913SOL     OW12190   3.129   0.375   4.999
 3913SOL    HW112191   3.163   0.453   5.044
 3913SOL    HW212192   3.042   0.402   4.968
 3914SOL     OW12193   1.933   1.577   5.077
 3914SOL    HW112194   1.896   1.641   5.015
 3914SOL    HW212195   2.027   1.581   5.062
 3915SOL     OW12196   2.213   1.108   4.215
 3915SOL    HW112197   2.218   1.182   4.155
 3915SOL    HW212198   2.211   1.031   4.159
 3916SOL     OW12199   2.419   0.536   4.582
 3916SOL    HW112200   2.434   0.595   4.509
 3916SOL    HW212201   2.481   0.564   4.649
 3917SOL     OW12202   3.110   1.348   4.113
 3917SOL    HW112203   3.166   1.420   4.144
 3917SOL    HW212204   3.023   1.369   4.147
 3918SOL     OW12205   3.141   1.457   4.870
 3918SOL    HW112206   3.197   1.460   4.948
 3918SOL    HW212207   3.087   1.379   4.883
 3919SOL     OW12208   3.438   0.631   4.206
 3919SOL    HW112209   3.399   0.691   4.270
 3919SOL    HW212210   3.486   0.688   4.146
 3920SOL     OW12211   2.214   1.516   5.042
 3920SOL    HW112212   2.200   1.475   4.957
 3920SOL    HW212213   2.309   1.528   5.047
 3921SOL     OW12214   2.276   0.745   5.325
 3921SOL    HW112215   2.337   0.790   5.267
 3921SOL    HW212216   2.316   0.659   5.341
 3922SOL     OW12217   3.462   0.776   5.403
 3922SOL    HW112218   3.376   0.818   5.397
 3922SOL    HW212219   3.514   0.819   5.336
 3923SOL     OW12220   2.884   0.121   5.502
 3923SOL    HW112221   2.918   0.200   5.460
 3923SOL    HW212222   2.869   0.060   5.430
 3924SOL     OW12223   2.347   0.034   5.488
 3924SOL    HW112224   2.354   0.039   5.392
 3924SOL    HW212225   2.289   0.107   5.511
 3925SOL     OW12226   2.445   0.872   4.755
 3925SOL    HW112227   2.474   0.964   4.754
 3925SOL    HW212228   2.388   0.867   4.832
 3926SOL     OW12229   3.221   0.859   4.755
 3926SOL    HW112230   3.138   0.850   4.707
 3926SOL    HW212231   3.260   0.772   4.750
 3927SOL     OW12232   3.067   0.534   3.987
 3927SOL    HW112233   3.075   0.455   4.041
 3927SOL    HW212234   3.024   0.598   4.045
 3928SOL     OW12235   2.164   0.212   4.966
 3928SOL    HW112236   2.126   0.241   5.049
 3928SOL    HW212237   2.151   0.117   4.965
 3929SOL     OW12238   1.907   1.313   5.003
 3929SOL    HW112239   1.941   1.258   5.073
 3929SOL    HW212240   1.915   1.402   5.035
 3930SOL     OW12241   2.587   0.633   4.781
 3930SOL    HW112242   2.661   0.617   4.721
 3930SOL    HW212243   2.558   0.722   4.759
 3931SOL     OW12244   3.595   0.956   5.581
 3931SOL    HW112245   3.549   0.903   5.517
 3931SOL    HW212246   3.532   0.969   5.652
 3932SOL     OW12247   2.183   0.057   4.369
 3932SOL    HW112248   2.162   0.150   4.381
 3932SOL    HW212249   2.143   0.014   4.444
 3933SOL     OW12250   3.469   0.387   4.105
 3933SOL    HW112251   3.442   0.318   4.166
 3933SOL    HW212252   3.446   0.469   4.149
 3934SOL     OW12253   2.890   0.759   4.685
 3934SOL    HW112254   2.887   0.777   4.779
 3934SOL    HW212255   2.863   0.668   4.676
 3935SOL     OW12256   2.843   1.566   5.440
 3935SOL    HW112257   2.829   1.610   5.356
 3935SOL    HW212258   2.887   1.484   5.417
 3936SOL     OW12259   3.708   1.505   5.325
 3936SOL    HW112260   3.730   1.532   5.235
 3936SOL    HW212261   3.789   1.519   5.374
 3937SOL     OW12262   2.215   0.915   5.532
 3937SOL    HW112263   2.297   0.934   5.577
 3937SOL    HW212264   2.239   0.853   5.463
 3938SOL     OW12265   3.370   0.276   3.860
 3938SOL    HW112266   3.294   0.218   3.872
 3938SOL    HW212267   3.384   0.316   3.946
 3939SOL     OW12268   3.154   0.827   3.755
 3939SOL    HW112269   3.196   0.741   3.758
 3939SOL    HW212270   3.186   0.867   3.674
 3940SOL     OW12271   2.927   1.335   4.578
 3940SOL    HW112272   2.930   1.263   4.515
 3940SOL    HW212273   2.989   1.399   4.543
 3941SOL     OW12274   2.171   0.810   4.672
 3941SOL    HW112275   2.264   0.831   4.665
 3941SOL    HW212276   2.169   0.720   4.704
 3942SOL     OW12277   2.199   0.533   4.736
 3942SOL    HW112278   2.158   0.448   4.720
 3942SOL    HW212279   2.275   0.534   4.678
 3943SOL     OW12280   2.995   0.383   5.415
 3943SOL    HW112281   2.948   0.438   5.478
 3943SOL    HW212282   3.083   0.422   5.411
 3944SOL     OW12283   3.013   0.224   5.205
 3944SOL    HW112284   3.005   0.279   5.283
 3944SOL    HW212285   3.035   0.286   5.135
 3945SOL     OW12286   1.866   1.320   3.918
 3945SOL    HW112287   1.778   1.333   3.882
 3945SOL    HW212288   1.865   1.231   3.952
 3946SOL     OW12289   1.974   1.725   4.704
 3946SOL    HW112290   1.934   1.668   4.638
 3946SOL    HW212291   2.038   1.777   4.656
 3947SOL     OW12292   2.362   1.570   4.633
 3947SOL    HW112293   2.431   1.632   4.655
 3947SOL    HW212294   2.405   1.507   4.574
 3948SOL     OW12295   2.847   0.791   4.950
 3948SOL    HW112296   2.900   0.769   5.026
 3948SOL    HW212297   2.760   0.757   4.971
 3949SOL     OW12298   1.896   0.545   4.841
 3949SOL    HW112299   1.972   0.519   4.789
 3949SOL    HW212300   1.928   0.548   4.931
 3950SOL     OW12301   2.064   0.526   5.440
 3950SOL    HW112302   2.129   0.502   5.374
 3950SOL    HW212303   2.016   0.599   5.400
 3951SOL     OW12304   3.240   0.940   5.383
 3951SOL    HW112305   3.260   1.033   5.382
 3951SOL    HW212306   3.236   0.915   5.290
 3952SOL     OW12307   2.678   0.571   4.083
 3952SOL    HW112308   2.683   0.495   4.025
 3952SOL    HW212309   2.603   0.622   4.050
 3953SOL     OW12310   3.504   0.602   4.911
 3953SOL    HW112311   3.492   0.541   4.984
 3953SOL    HW212312   3.589   0.580   4.874
 3954SOL     OW12313   2.117   1.537   5.433
 3954SOL    HW112314   2.099   1.609   5.494
 3954SOL    HW212315   2.116   1.458   5.487
 3955SOL     OW12316   2.561   0.457   4.985
 3955SOL    HW112317   2.513   0.378   4.957
 3955SOL    HW212318   2.556   0.515   4.909
 3956SOL     OW12319   2.789   1.679   5.192
 3956SOL    HW112320   2.765   1.646   5.105
 3956SOL    HW212321   2.788   1.774   5.182
 3957SOL     OW12322   2.328   0.494   3.911
 3957SOL    HW112323   2.385   0.567   3.932
 3957SOL    HW212324   2.241   0.534   3.899
 3958SOL     OW12325   2.008   1.140   5.196
 3958SOL    HW112326   2.012   1.088   5.276
 3958SOL    HW212327   2.025   1.077   5.125
 3959SOL     OW12328   3.188   1.047   4.948
 3959SOL    HW112329   3.213   0.985   4.880
 3959SOL    HW212330   3.117   1.099   4.909
 3960SOL     OW12331   3.173   0.855   4.030
 3960SOL    HW112332   3.096   0.827   4.080
 3960SOL    HW212333   3.147   0.843   3.939
 3961SOL     OW12334   3.637   1.745   4.877
 3961SOL    HW112335   3.692   1.772   4.803
 3961SOL    HW212336   3.610   1.656   4.855
 3962SOL     OW12337   3.103   1.733   4.839
 3962SOL    HW112338   3.185   1.754   4.793
 3962SOL    HW212339   3.108   1.639   4.856
 3963SOL     OW12340   1.947   1.264   4.739
 3963SOL    HW112341   1.931   1.278   4.832
 3963SOL    HW212342   1.872   1.212   4.709
 3964SOL     OW12343   2.540   1.663   5.450
 3964SOL    HW112344   2.492   1.746   5.449
 3964SOL    HW212345   2.607   1.673   5.381
 3965SOL     OW12346   3.555   0.124   4.210
 3965SOL    HW112347   3.637   0.135   4.163
 3965SOL    HW212348   3.553   0.031   4.235
 3966SOL     OW12349   3.252   1.567   4.208
 3966SOL    HW112350   3.313   1.599   4.141
 3966SOL    HW212351   3.204   1.646   4.236
 3967SOL     OW12352   2.038   1.743   5.580
 3967SOL    HW112353   1.977   1.694   5.636
 3967SOL    HW212354   2.013   1.834   5.592
 3968SOL     OW12355   3.139   0.925   4.395
 3968SOL    HW112356   3.213   0.865   4.401
 3968SOL    HW212357   3.173   0.998   4.343
 3969SOL     OW12358   2.678   1.272   5.154
 3969SOL    HW112359   2.650   1.312   5.237
 3969SOL    HW212360   2.608   1.294   5.093
 3970SOL     OW12361   2.536   1.618   3.876
 3970SOL    HW112362   2.544   1.627   3.781
 3970SOL    HW212363   2.481   1.541   3.888
 3971SOL     OW12364   3.488   1.727   5.115
 3971SOL    HW112365   3.540   1.732   5.035
 3971SOL    HW212366   3.475   1.817   5.143
 3972SOL     OW12367   3.702   0.179   4.694
 3972SOL    HW112368   3.727   0.096   4.654
 3972SOL    HW212369   3.615   0.198   4.658
 3973SOL     OW12370   2.127   0.318   4.440
 3973SOL    HW112371   2.041   0.354   4.418
 3973SOL    HW212372   2.125   0.306   4.535
 3974SOL     OW12373   3.069   1.607   3.755
 3974SOL    HW112374   3.060   1.515   3.782
 3974SOL    HW212375   3.003   1.618   3.686
 3975SOL     OW12376   2.686   1.005   5.096
 3975SOL    HW112377   2.729   1.002   5.010
 3975SOL    HW212378   2.686   1.098   5.119
 3976SOL     OW12379   2.778   0.910   4.014
 3976SOL    HW112380   2.839   0.942   3.948
 3976SOL    HW212381   2.825   0.840   4.058
 3977SOL     OW12382   3.354   1.625   3.766
 3977SOL    HW112383   3.260   1.620   3.753
 3977SOL    HW212384   3.391   1.632   3.678
 3978SOL     OW12385   2.232   1.299   5.217
 3978SOL    HW112386   2.219   1.377   5.163
 3978SOL    HW212387   2.155   1.245   5.199
 3979SOL     OW12388   3.466   1.280   5.003
 3979SOL    HW112389   3.534   1.275   5.071
 3979SOL    HW212390   3.409   1.351   5.031
 3980SOL     OW12391   2.913   1.107   4.430
 3980SOL    HW112392   2.842   1.055   4.469
 3980SOL    HW212393   2.974   1.041   4.397
 3981SOL     OW12394   2.877   0.247   4.691
 3981SOL    HW112395   2.866   0.197   4.610
 3981SOL    HW212396   2.870   0.181   4.761
 3982SOL     OW12397   2.463   1.490   4.206
 3982SOL    HW112398   2.504   1.440   4.135
 3982SOL    HW212399   2.401   1.548   4.162
 3983SOL     OW12400   3.581   0.391   5.098
 3983SOL    HW112401   3.652   0.456   5.097
 3983SOL    HW212402   3.613   0.320   5.043
 3984SOL     OW12403   2.120   1.346   4.010
 3984SOL    HW112404   2.027   1.343   3.990
 3984SOL    HW212405   2.124   1.381   4.099
 3985SOL     OW12406   1.975   1.023   5.445
 3985SOL    HW112407   1.898   0.998   5.497
 3985SOL    HW212408   2.049   0.984   5.491
 3986SOL     OW12409   2.553   0.243   5.221
 3986SOL    HW112410   2.623   0.191   5.181
 3986SOL    HW212411   2.579   0.250   5.313
 3987SOL     OW12412   1.959   0.319   3.713
 3987SOL    HW112413   1.881   0.336   3.766
 3987SOL    HW212414   1.975   0.402   3.668
 3988SOL     OW12415   3.291   0.857   5.124
 3988SOL    HW112416   3.242   0.919   5.069
 3988SOL    HW212417   3.380   0.860   5.089
 3989SOL     OW12418   1.945   0.155   4.065
 3989SOL    HW112419   1.914   0.217   3.999
 3989SOL    HW212420   2.029   0.124   4.031
 3990SOL     OW12421   3.041   1.341   3.841
 3990SOL    HW112422   2.950   1.310   3.844
 3990SOL    HW212423   3.070   1.340   3.932
 3991SOL     OW12424   2.481   0.830   5.157
 3991SOL    HW112425   2.537   0.906   5.142
 3991SOL    HW212426   2.543   0.757   5.166
 3992SOL     OW12427   3.346   1.777   4.701
 3992SOL    HW112428   3.370   1.835   4.629
 3992SOL    HW212429   3.428   1.756   4.745
 3993SOL     OW12430   2.579   0.563   5.430
 3993SOL    HW112431   2.618   0.627   5.490
 3993SOL    HW212432   2.611   0.478   5.461
 3994SOL     OW12433   3.332   1.201   5.356
 3994SOL    HW112434   3.321   1.215   5.450
 3994SOL    HW212435   3.426   1.215   5.341
 3995SOL     OW12436   2.240   1.744   5.293
 3995SOL    HW112437   2.160   1.764   5.244
 3995SOL    HW212438   2.223   1.659   5.333
 3996SOL     OW12439   3.529   0.881   4.982
 3996SOL    HW112440   3.527   0.796   4.939
 3996SOL    HW212441   3.524   0.945   4.911
 3997SOL     OW12442   3.085   0.334   4.170
 3997SOL    HW112443   3.152   0.266   4.161
 3997SOL    HW212444   3.108   0.379   4.252
 3998SOL     OW12445   2.453   0.739   4.392
 3998SOL    HW112446   2.492   0.825   4.377
 3998SOL    HW212447   2.384   0.731   4.327
 3999SOL     OW12448   3.619   0.379   5.366
 3999SOL    HW112449   3.598   0.386   5.273
 3999SOL    HW212450   3.559   0.312   5.399
 4000SOL     OW12451   3.612   0.932   5.238
 4000SOL    HW112452   3.608   1.026   5.253
 4000SOL    HW212453   3.592   0.921   5.145
 4001SOL     OW12454   2.723   1.368   3.756
 4001SOL    HW112455   2.686   1.394   3.840
 4001SOL    HW212456   2.743   1.450   3.712
 4002SOL     OW12457   2.522   1.796   4.671
 4002SOL    HW112458   2.505   1.885   4.642
 4002SOL    HW212459   2.616   1.785   4.661
 4003SOL     OW12460   2.729   0.966   4.580
 4003SOL    HW112461   2.779   0.895   4.620
 4003SOL    HW212462   2.695   1.016   4.654
 4004SOL     OW12463   2.942   0.988   3.813
 4004SOL    HW112464   2.919   1.039   3.735
 4004SOL    HW212465   3.016   0.935   3.786
 4005SOL     OW12466   3.718   1.557   4.566
 4005SOL    HW112467   3.639   1.541   4.514
 4005SOL    HW212468   3.715   1.490   4.635
 4006SOL     OW12469   2.085   1.301   5.582
 4006SOL    HW112470   2.022   1.238   5.549
 4006SOL    HW212471   2.062   1.312   5.674
 4007SOL     OW12472   1.943   1.229   4.387
 4007SOL    HW112473   1.951   1.183   4.470
 4007SOL    HW212474   2.016   1.196   4.334
 4008SOL     OW12475   2.541   1.402   5.350
 4008SOL    HW112476   2.462   1.358   5.381
 4008SOL    HW212477   2.537   1.489   5.388
 4009SOL     OW12478   3.677   0.182   4.967
 4009SOL    HW112479   3.679   0.087   4.976
 4009SOL    HW212480   3.693   0.199   4.874
 4010SOL     OW12481   2.291   0.434   4.248
 4010SOL    HW112482   2.322   0.362   4.194
 4010SOL    HW212483   2.244   0.392   4.321
 4011SOL     OW12484   3.561   1.492   4.824
 4011SOL    HW112485   3.481   1.466   4.777
 4011SOL    HW212486   3.576   1.421   4.887
 4012SOL     OW12487   2.190   0.554   5.016
 4012SOL    HW112488   2.244   0.497   5.071
 4012SOL    HW212489   2.210   0.528   4.926
 4013SOL     OW12490   2.688   1.578   4.403
 4013SOL    HW112491   2.679   1.630   4.323
 4013SOL    HW212492   2.611   1.521   4.403
 4014SOL     OW12493   3.323   0.251   4.835
 4014SOL    HW112494   3.337   0.163   4.871
 4014SOL    HW212495   3.265   0.293   4.899
 4015SOL     OW12496   2.868   0.029   4.871
 4015SOL    HW112497   2.792   3.979   4.842
 4015SOL    HW212498   2.938   3.965   4.879
 4016SOL     OW12499   2.635   1.332   4.036
 4016SOL    HW112500   2.602   1.243   4.043
 4016SOL    HW212501   2.716   1.332   4.086
 4017SOL     OW12502   2.482   1.557   5.009
 4017SOL    HW112503   2.485   1.639   5.058
 4017SOL    HW212504   2.570   1.549   4.971
 4018SOL     OW12505   3.178   0.072   3.884
 4018SOL    HW112506   3.193   0.001   3.822
 4018SOL    HW212507   3.093   0.052   3.924
 4019SOL     OW12508   3.147   0.458   4.411
 4019SOL    HW112509   3.099   0.540   4.408
 4019SOL    HW212510   3.151   0.436   4.504
 4020SOL     OW12511   3.451   0.211   4.591
 4020SOL    HW112512   3.401   0.232   4.670
 4020SOL    HW212513   3.451   0.291   4.539
 4021SOL     OW12514   1.906   1.072   4.028
 4021SOL    HW112515   2.000   1.064   4.012
 4021SOL    HW212516   1.878   0.984   4.053
 4022SOL     OW12517   2.746   1.650   4.066
 4022SOL    HW112518   2.672   1.634   4.007
 4022SOL    HW212519   2.719   1.725   4.118
 4023SOL     OW12520   2.092   0.622   5.707
 4023SOL    HW112521   2.002   0.625   5.739
 4023SOL    HW212522   2.085   0.601   5.614
 4024SOL     OW12523   2.079   0.297   6.576
 4024SOL    HW112524   2.117   0.256   6.655
 4024SOL    HW212525   1.996   0.252   6.563
 4025SOL     OW12526   1.872   0.395   6.222
 4025SOL    HW112527   1.784   0.410   6.258
 4025SOL    HW212528   1.860   0.322   6.161
 4026SOL     OW12529   2.437   1.275   6.765
 4026SOL    HW112530   2.349   1.258   6.731
 4026SOL    HW212531   2.437   1.368   6.788
 4027SOL     OW12532   3.421   1.511   6.292
 4027SOL    HW112533   3.378   1.493   6.376
 4027SOL    HW212534   3.349   1.517   6.229
 4028SOL     OW12535   2.993   0.698   6.288
 4028SOL    HW112536   3.042   0.780   6.274
 4028SOL    HW212537   2.946   0.713   6.370
 4029SOL     OW12538   3.620   0.621   5.815
 4029SOL    HW112539   3.604   0.609   5.721
 4029SOL    HW212540   3.607   0.534   5.852
 4030SOL     OW12541   2.622   1.139   6.624
 4030SOL    HW112542   2.556   1.174   6.684
 4030SOL    HW212543   2.657   1.217   6.580
 4031SOL     OW12544   2.728   0.777   7.408
 4031SOL    HW112545   2.714   0.849   7.470
 4031SOL    HW212546   2.751   0.820   7.326
 4032SOL     OW12547   2.547   1.004   6.233
 4032SOL    HW112548   2.613   0.991   6.302
 4032SOL    HW212549   2.479   1.056   6.275
 4033SOL     OW12550   2.590   1.142   7.402
 4033SOL    HW112551   2.628   1.227   7.423
 4033SOL    HW212552   2.509   1.164   7.355
 4034SOL     OW12553   3.322   1.499   6.939
 4034SOL    HW112554   3.372   1.581   6.948
 4034SOL    HW212555   3.265   1.497   7.015
 4035SOL     OW12556   2.304   0.397   7.081
 4035SOL    HW112557   2.392   0.358   7.079
 4035SOL    HW212558   2.245   0.322   7.088
 4036SOL     OW12559   3.473   0.450   6.322
 4036SOL    HW112560   3.402   0.483   6.268
 4036SOL    HW212561   3.500   0.526   6.376
 4037SOL     OW12562   2.996   1.344   7.279
 4037SOL    HW112563   3.039   1.338   7.364
 4037SOL    HW212564   2.945   1.264   7.272
 4038SOL     OW12565   2.122   1.080   6.472
 4038SOL    HW112566   2.128   0.989   6.504
 4038SOL    HW212567   2.065   1.124   6.535
 4039SOL     OW12568   2.448   0.981   5.720
 4039SOL    HW112569   2.493   1.031   5.651
 4039SOL    HW212570   2.489   1.011   5.801
 4040SOL     OW12571   3.441   0.136   7.044
 4040SOL    HW112572   3.463   0.210   6.987
 4040SOL    HW212573   3.415   0.176   7.127
 4041SOL     OW12574   1.976   0.654   6.145
 4041SOL    HW112575   1.950   0.564   6.168
 4041SOL    HW212576   1.969   0.703   6.227
 4042SOL     OW12577   3.700   1.758   5.922
 4042SOL    HW112578   3.766   1.733   5.987
 4042SOL    HW212579   3.722   1.848   5.900
 4043SOL     OW12580   1.877   1.598   5.740
 4043SOL    HW112581   1.877   1.503   5.725
 4043SOL    HW212582   1.809   1.612   5.806
 4044SOL     OW12583   3.548   0.916   6.226
 4044SOL    HW112584   3.634   0.877   6.212
 4044SOL    HW212585   3.532   0.968   6.147
 4045SOL     OW12586   3.504   1.107   6.017
 4045SOL    HW112587   3.589   1.114   5.973
 4045SOL    HW212588   3.510   1.169   6.090
 4046SOL     OW12589   1.984   0.747   7.167
 4046SOL    HW112590   2.076   0.771   7.177
 4046SOL    HW212591   1.936   0.828   7.180
 4047SOL     OW12592   2.498   1.366   6.312
 4047SOL    HW112593   2.443   1.288   6.322
 4047SOL    HW212594   2.466   1.408   6.232
 4048SOL     OW12595   3.151   1.238   7.010
 4048SOL    HW112596   3.184   1.172   6.950
 4048SOL    HW212597   3.208   1.232   7.086
 4049SOL     OW12598   2.679   0.002   6.100
 4049SOL    HW112599   2.724   0.084   6.079
 4049SOL    HW212600   2.586   0.026   6.103
 4050SOL     OW12601   2.052   0.967   6.861
 4050SOL    HW112602   2.137   0.925   6.844
 4050SOL    HW212603   1.990   0.915   6.810
 4051SOL     OW12604   3.392   0.993   5.784
 4051SOL    HW112605   3.322   0.936   5.817
 4051SOL    HW212606   3.433   1.028   5.863
 4052SOL     OW12607   3.047   1.803   7.205
 4052SOL    HW112608   3.056   1.863   7.131
 4052SOL    HW212609   3.065   1.716   7.168
 4053SOL     OW12610   2.213   0.255   7.406
 4053SOL    HW112611   2.257   0.340   7.407
 4053SOL    HW212612   2.121   0.276   7.419
 4054SOL     OW12613   3.328   1.420   6.538
 4054SOL    HW112614   3.260   1.434   6.604
 4054SOL    HW212615   3.317   1.328   6.512
 4055SOL     OW12616   3.520   1.738   6.165
 4055SOL    HW112617   3.501   1.707   6.076
 4055SOL    HW212618   3.496   1.663   6.221
 4056SOL     OW12619   2.457   0.722   5.851
 4056SOL    HW112620   2.464   0.803   5.801
 4056SOL    HW212621   2.393   0.741   5.919
 4057SOL     OW12622   3.138   0.363   6.526
 4057SOL    HW112623   3.051   0.324   6.531
 4057SOL    HW212624   3.195   0.302   6.572
 4058SOL     OW12625   3.441   1.669   5.895
 4058SOL    HW112626   3.531   1.702   5.890
 4058SOL    HW212627   3.417   1.652   5.804
 4059SOL     OW12628   2.658   0.616   7.040
 4059SOL    HW112629   2.629   0.592   7.128
 4059SOL    HW212630   2.616   0.552   6.982
 4060SOL     OW12631   3.255   0.476   7.263
 4060SOL    HW112632   3.258   0.521   7.348
 4060SOL    HW212633   3.315   0.403   7.272
 4061SOL     OW12634   2.818   0.888   7.168
 4061SOL    HW112635   2.872   0.818   7.133
 4061SOL    HW212636   2.770   0.921   7.092
 4062SOL     OW12637   2.853   0.403   6.827
 4062SOL    HW112638   2.771   0.429   6.869
 4062SOL    HW212639   2.827   0.372   6.741
 4063SOL     OW12640   2.912   0.699   6.012
 4063SOL    HW112641   2.927   0.692   6.106
 4063SOL    HW212642   2.830   0.652   5.997
 4064SOL     OW12643   1.950   0.822   6.361
 4064SOL    HW112644   2.031   0.812   6.412
 4064SOL    HW212645   1.908   0.899   6.397
 4065SOL     OW12646   2.754   0.350   5.785
 4065SOL    HW112647   2.795   0.408   5.721
 4065SOL    HW212648   2.754   0.264   5.742
 4066SOL     OW12649   3.573   0.575   7.415
 4066SOL    HW112650   3.536   0.651   7.370
 4066SOL    HW212651   3.596   0.514   7.344
 4067SOL     OW12652   3.237   1.141   6.127
 4067SOL    HW112653   3.317   1.129   6.076
 4067SOL    HW212654   3.186   1.204   6.077
 4068SOL     OW12655   2.417   0.198   6.468
 4068SOL    HW112656   2.421   0.215   6.562
 4068SOL    HW212657   2.415   0.284   6.428
 4069SOL     OW12658   2.870   1.442   6.053
 4069SOL    HW112659   2.831   1.517   6.007
 4069SOL    HW212660   2.844   1.454   6.144
 4070SOL     OW12661   3.665   1.062   6.452
 4070SOL    HW112662   3.609   1.042   6.377
 4070SOL    HW212663   3.605   1.066   6.527
 4071SOL     OW12664   3.087   1.539   7.099
 4071SOL    HW112665   3.074   1.467   7.160
 4071SOL    HW212666   3.030   1.518   7.025
 4072SOL     OW12667   2.182   0.957   5.834
 4072SOL    HW112668   2.265   0.975   5.790
 4072SOL    HW212669   2.152   0.875   5.797
 4073SOL     OW12670   3.339   0.741   6.316
 4073SOL    HW112671   3.331   0.698   6.401
 4073SOL    HW212672   3.416   0.797   6.324
 4074SOL     OW12673   2.350   1.198   7.297
 4074SOL    HW112674   2.314   1.212   7.210
 4074SOL    HW212675   2.274   1.178   7.352
 4075SOL     OW12676   2.982   1.777   5.814
 4075SOL    HW112677   2.916   1.729   5.865
 4075SOL    HW212678   3.007   1.718   5.744
 4076SOL     OW12679   2.038   0.277   7.083
 4076SOL    HW112680   1.975   0.350   7.079
 4076SOL    HW212681   2.045   0.258   7.177
 4077SOL     OW12682   3.489   1.381   5.673
 4077SOL    HW112683   3.447   1.466   5.658
 4077SOL    HW212684   3.421   1.316   5.654
 4078SOL     OW12685   2.328   1.720   5.902
 4078SOL    HW112686   2.339   1.810   5.932
 4078SOL    HW212687   2.390   1.712   5.829
 4079SOL     OW12688   3.296   0.162   5.988
 4079SOL    HW112689   3.256   0.091   5.938
 4079SOL    HW212690   3.374   0.122   6.028
 4080SOL     OW12691   2.140   1.768   6.826
 4080SOL    HW112692   2.183   1.699   6.877
 4080SOL    HW212693   2.130   1.729   6.739
 4081SOL     OW12694   2.807   1.691   6.478
 4081SOL    HW112695   2.889   1.647   6.502
 4081SOL    HW212696   2.765   1.633   6.415
 4082SOL     OW12697   2.253   0.696   6.063
 4082SOL    HW112698   2.276   0.603   6.073
 4082SOL    HW212699   2.159   0.700   6.081
 4083SOL     OW12700   3.394   0.232   7.313
 4083SOL    HW112701   3.392   0.256   7.405
 4083SOL    HW212702   3.363   0.142   7.311
 4084SOL     OW12703   2.503   0.136   5.691
 4084SOL    HW112704   2.537   0.057   5.732
 4084SOL    HW212705   2.440   0.105   5.626
 4085SOL     OW12706   2.640   0.281   7.350
 4085SOL    HW112707   2.703   0.209   7.356
 4085SOL    HW212708   2.578   0.265   7.421
 4086SOL     OW12709   2.731   1.513   6.785
 4086SOL    HW112710   2.721   1.484   6.694
 4086SOL    HW212711   2.806   1.463   6.817
 4087SOL     OW12712   3.204   0.587   7.016
 4087SOL    HW112713   3.234   0.558   7.103
 4087SOL    HW212714   3.238   0.676   7.008
 4088SOL     OW12715   2.675   1.394   6.527
 4088SOL    HW112716   2.760   1.386   6.483
 4088SOL    HW212717   2.611   1.388   6.456
 4089SOL     OW12718   2.790   0.510   6.489
 4089SOL    HW112719   2.767   0.503   6.396
 4089SOL    HW212720   2.820   0.423   6.513
 4090SOL     OW12721   2.408   0.058   6.080
 4090SOL    HW112722   2.333   0.062   6.139
 4090SOL    HW212723   2.403   0.138   6.028
 4091SOL     OW12724   3.290   1.198   5.627
 4091SOL    HW112725   3.321   1.123   5.677
 4091SOL    HW212726   3.205   1.219   5.665
 4092SOL     OW12727   2.187   0.042   5.794
 4092SOL    HW112728   2.204   0.112   5.730
 4092SOL    HW212729   2.271   0.030   5.838
 4093SOL     OW12730   2.800   0.247   6.049
 4093SOL    HW112731   2.774   0.289   5.967
 4093SOL    HW212732   2.896   0.248   6.048
 4094SOL     OW12733   2.942   0.681   7.045
 4094SOL    HW112734   2.870   0.618   7.053
 4094SOL    HW212735   3.021   0.627   7.040
 4095SOL     OW12736   3.086   1.570   6.382
 4095SOL    HW112737   3.101   1.636   6.314
 4095SOL    HW212738   3.156   1.584   6.446
 4096SOL     OW12739   2.329   1.151   6.318
 4096SOL    HW112740   2.260   1.127   6.380
 4096SOL    HW212741   2.290   1.134   6.232
 4097SOL     OW12742   3.130   1.794   6.192
 4097SOL    HW112743   3.176   1.856   6.135
 4097SOL    HW212744   3.068   1.848   6.240
 4098SOL     OW12745   2.886   0.547   5.609
 4098SOL    HW112746   2.843   0.630   5.590
 4098SOL    HW212747   2.949   0.568   5.678
 4099SOL     OW12748   1.940   0.552   6.980
 4099SOL    HW112749   2.031   0.552   6.951
 4099SOL    HW212750   1.934   0.625   7.042
 4100SOL     OW12751   2.427   0.232   6.747
 4100SOL    HW112752   2.453   0.141   6.759
 4100SOL    HW212753   2.337   0.236   6.778
 4101SOL     OW12754   2.732   0.461   6.225
 4101SOL    HW112755   2.684   0.514   6.162
 4101SOL    HW212756   2.752   0.380   6.178
 4102SOL     OW12757   2.856   0.042   6.365
 4102SOL    HW112758   2.823   0.065   6.278
 4102SOL    HW212759   2.866   3.947   6.361
 4103SOL     OW12760   3.299   1.162   6.444
 4103SOL    HW112761   3.229   1.097   6.441
 4103SOL    HW212762   3.324   1.175   6.352
 4104SOL     OW12763   3.328   0.604   6.565
 4104SOL    HW112764   3.278   0.523   6.570
 4104SOL    HW212765   3.389   0.600   6.638
 4105SOL     OW12766   3.722   0.823   5.961
 4105SOL    HW112767   3.764   0.766   6.025
 4105SOL    HW212768   3.682   0.763   5.898
 4106SOL     OW12769   2.354   1.416   5.742
 4106SOL    HW112770   2.281   1.386   5.796
 4106SOL    HW212771   2.334   1.380   5.655
 4107SOL     OW12772   3.528   1.265   6.234
 4107SOL    HW112773   3.623   1.270   6.242
 4107SOL    HW212774   3.497   1.353   6.254
 4108SOL     OW12775   3.256   0.573   5.656
 4108SOL    HW112776   3.194   0.555   5.726
 4108SOL    HW212777   3.342   0.554   5.694
 4109SOL     OW12778   2.389   0.266   5.904
 4109SOL    HW112779   2.439   0.225   5.834
 4109SOL    HW212780   2.364   0.351   5.869
 4110SOL     OW12781   3.614   1.234   7.159
 4110SOL    HW112782   3.702   1.199   7.141
 4110SOL    HW212783   3.631   1.323   7.190
 4111SOL     OW12784   2.922   1.356   6.922
 4111SOL    HW112785   2.847   1.322   6.971
 4111SOL    HW212786   2.998   1.312   6.961
 4112SOL     OW12787   3.466   1.626   7.239
 4112SOL    HW112788   3.461   1.661   7.150
 4112SOL    HW212789   3.549   1.577   7.241
 4113SOL     OW12790   2.989   1.202   6.693
 4113SOL    HW112791   2.929   1.241   6.756
 4113SOL    HW212792   2.959   1.235   6.608
 4114SOL     OW12793   3.493   1.098   6.663
 4114SOL    HW112794   3.486   1.160   6.736
 4114SOL    HW212795   3.415   1.114   6.611
 4115SOL     OW12796   2.775   0.112   6.988
 4115SOL    HW112797   2.795   0.086   6.898
 4115SOL    HW212798   2.856   0.154   7.019
 4116SOL     OW12799   2.850   1.114   7.307
 4116SOL    HW112800   2.759   1.127   7.333
 4116SOL    HW212801   2.848   1.037   7.252
 4117SOL     OW12802   2.570   1.061   5.958
 4117SOL    HW112803   2.557   1.046   6.051
 4117SOL    HW212804   2.646   1.008   5.935
 4118SOL     OW12805   2.281   0.814   6.836
 4118SOL    HW112806   2.348   0.823   6.903
 4118SOL    HW212807   2.244   0.727   6.850
 4119SOL     OW12808   3.129   0.375   6.861
 4119SOL    HW112809   3.163   0.453   6.905
 4119SOL    HW212810   3.042   0.402   6.830
 4120SOL     OW12811   1.931   1.557   6.935
 4120SOL    HW112812   1.890   1.643   6.929
 4120SOL    HW212813   2.024   1.575   6.951
 4121SOL     OW12814   2.211   1.112   6.075
 4121SOL    HW112815   2.223   1.177   6.006
 4121SOL    HW212816   2.209   1.028   6.028
 4122SOL     OW12817   2.418   0.536   6.444
 4122SOL    HW112818   2.434   0.595   6.371
 4122SOL    HW212819   2.481   0.564   6.511
 4123SOL     OW12820   3.113   1.348   5.974
 4123SOL    HW112821   3.168   1.419   6.005
 4123SOL    HW212822   3.026   1.369   6.008
 4124SOL     OW12823   3.142   1.456   6.733
 4124SOL    HW112824   3.197   1.459   6.810
 4124SOL    HW212825   3.087   1.378   6.745
 4125SOL     OW12826   3.438   0.631   6.068
 4125SOL    HW112827   3.399   0.691   6.132
 4125SOL    HW212828   3.487   0.688   6.009
 4126SOL     OW12829   2.210   1.524   6.941
 4126SOL    HW112830   2.202   1.482   6.855
 4126SOL    HW212831   2.305   1.532   6.955
 4127SOL     OW12832   2.276   0.745   7.189
 4127SOL    HW112833   2.336   0.791   7.130
 4127SOL    HW212834   2.317   0.660   7.203
 4128SOL     OW12835   3.462   0.776   7.265
 4128SOL    HW112836   3.376   0.818   7.259
 4128SOL    HW212837   3.514   0.819   7.198
 4129SOL     OW12838   2.885   0.121   7.364
 4129SOL    HW112839   2.918   0.200   7.322
 4129SOL    HW212840   2.868   0.060   7.292
 4130SOL     OW12841   2.347   0.034   7.350
 4130SOL    HW112842   2.354   0.039   7.255
 4130SOL    HW212843   2.289   0.107   7.374
 4131SOL     OW12844   2.444   0.873   6.616
 4131SOL    HW112845   2.476   0.963   6.617
 4131SOL    HW212846   2.388   0.866   6.694
 4132SOL     OW12847   3.221   0.859   6.617
 4132SOL    HW112848   3.138   0.851   6.569
 4132SOL    HW212849   3.260   0.772   6.612
 4133SOL     OW12850   3.067   0.534   5.849
 4133SOL    HW112851   3.075   0.455   5.902
 4133SOL    HW212852   3.024   0.598   5.907
 4134SOL     OW12853   2.164   0.212   6.828
 4134SOL    HW112854   2.126   0.241   6.910
 4134SOL    HW212855   2.151   0.117   6.827
 4135SOL     OW12856   2.587   0.633   6.642
 4135SOL    HW112857   2.661   0.617   6.583
 4135SOL    HW212858   2.558   0.722   6.620
 4136SOL     OW12859   3.596   0.956   7.444
 4136SOL    HW112860   3.549   0.903   7.379
 4136SOL    HW212861   3.532   0.969   7.514
 4137SOL     OW12862   2.183   0.058   6.231
 4137SOL    HW112863   2.162   0.150   6.243
 4137SOL    HW212864   2.143   0.014   6.306
 4138SOL     OW12865   3.469   0.387   5.967
 4138SOL    HW112866   3.442   0.318   6.028
 4138SOL    HW212867   3.446   0.469   6.011
 4139SOL     OW12868   2.890   0.759   6.547
 4139SOL    HW112869   2.887   0.777   6.641
 4139SOL    HW212870   2.863   0.668   6.539
 4140SOL     OW12871   2.834   1.566   7.305
 4140SOL    HW112872   2.815   1.612   7.223
 4140SOL    HW212873   2.882   1.488   7.277
 4141SOL     OW12874   3.708   1.504   7.187
 4141SOL    HW112875   3.730   1.532   7.097
 4141SOL    HW212876   3.789   1.519   7.236
 4142SOL     OW12877   2.220   0.918   7.397
 4142SOL    HW112878   2.303   0.931   7.442
 4142SOL    HW212879   2.239   0.856   7.327
 4143SOL     OW12880   3.370   0.276   5.722
 4143SOL    HW112881   3.294   0.218   5.734
 4143SOL    HW212882   3.384   0.316   5.808
 4144SOL     OW12883   3.154   0.827   5.617
 4144SOL    HW112884   3.196   0.741   5.620
 4144SOL    HW212885   3.186   0.866   5.536
 4145SOL     OW12886   2.929   1.333   6.444
 4145SOL    HW112887   2.930   1.262   6.379
 4145SOL    HW212888   2.987   1.400   6.407
 4146SOL     OW12889   2.173   0.809   6.531
 4146SOL    HW112890   2.267   0.828   6.529
 4146SOL    HW212891   2.168   0.719   6.565
 4147SOL     OW12892   2.198   0.533   6.598
 4147SOL    HW112893   2.158   0.447   6.582
 4147SOL    HW212894   2.274   0.534   6.540
 4148SOL     OW12895   2.995   0.383   7.277
 4148SOL    HW112896   2.948   0.438   7.340
 4148SOL    HW212897   3.083   0.422   7.273
 4149SOL     OW12898   3.013   0.224   7.067
 4149SOL    HW112899   3.005   0.279   7.145
 4149SOL    HW212900   3.035   0.286   6.997
 4150SOL     OW12901   1.868   1.319   5.783
 4150SOL    HW112902   1.781   1.333   5.746
 4150SOL    HW212903   1.867   1.229   5.815
 4151SOL     OW12904   2.846   0.791   6.812
 4151SOL    HW112905   2.901   0.769   6.888
 4151SOL    HW212906   2.760   0.756   6.834
 4152SOL     OW12907   1.896   0.545   6.703
 4152SOL    HW112908   1.972   0.519   6.652
 4152SOL    HW212909   1.927   0.548   6.793
 4153SOL     OW12910   2.064   0.526   7.301
 4153SOL    HW112911   2.130   0.502   7.236
 4153SOL    HW212912   2.016   0.599   7.262
 4154SOL     OW12913   3.240   0.940   7.245
 4154SOL    HW112914   3.260   1.033   7.244
 4154SOL    HW212915   3.236   0.915   7.153
 4155SOL     OW12916   2.678   0.571   5.945
 4155SOL    HW112917   2.683   0.495   5.887
 4155SOL    HW212918   2.603   0.621   5.912
 4156SOL     OW12919   3.504   0.602   6.773
 4156SOL    HW112920   3.492   0.541   6.846
 4156SOL    HW212921   3.589   0.580   6.736
 4157SOL     OW12922   2.561   0.457   6.847
 4157SOL    HW112923   2.513   0.378   6.819
 4157SOL    HW212924   2.556   0.515   6.771
 4158SOL     OW12925   2.768   1.675   7.050
 4158SOL    HW112926   2.779   1.643   6.960
 4158SOL    HW212927   2.783   1.769   7.043
 4159SOL     OW12928   2.327   0.494   5.772
 4159SOL    HW112929   2.385   0.567   5.794
 4159SOL    HW212930   2.241   0.534   5.761
 4160SOL     OW12931   2.003   1.140   7.062
 4160SOL    HW112932   2.002   1.083   7.139
 4160SOL    HW212933   2.017   1.081   6.988
 4161SOL     OW12934   3.188   1.047   6.811
 4161SOL    HW112935   3.213   0.985   6.742
 4161SOL    HW212936   3.117   1.099   6.771
 4162SOL     OW12937   3.173   0.855   5.892
 4162SOL    HW112938   3.096   0.827   5.942
 4162SOL    HW212939   3.147   0.843   5.801
 4163SOL     OW12940   3.637   1.745   6.739
 4163SOL    HW112941   3.692   1.773   6.666
 4163SOL    HW212942   3.610   1.656   6.717
 4164SOL     OW12943   3.103   1.730   6.699
 4164SOL    HW112944   3.185   1.752   6.654
 4164SOL    HW212945   3.110   1.636   6.717
 4165SOL     OW12946   1.952   1.194   6.640
 4165SOL    HW112947   1.920   1.232   6.722
 4165SOL    HW212948   1.873   1.167   6.594
 4166SOL     OW12949   3.555   0.124   6.072
 4166SOL    HW112950   3.637   0.135   6.025
 4166SOL    HW212951   3.553   0.031   6.097
 4167SOL     OW12952   3.252   1.568   6.070
 4167SOL    HW112953   3.313   1.600   6.004
 4167SOL    HW212954   3.204   1.646   6.099
 4168SOL     OW12955   1.986   1.806   7.360
 4168SOL    HW112956   1.931   1.741   7.404
 4168SOL    HW212957   1.971   1.887   7.408
 4169SOL     OW12958   3.139   0.925   6.257
 4169SOL    HW112959   3.213   0.865   6.264
 4169SOL    HW212960   3.172   0.998   6.205
 4170SOL     OW12961   2.680   1.270   7.015
 4170SOL    HW112962   2.655   1.308   7.099
 4170SOL    HW212963   2.606   1.289   6.957
 4171SOL     OW12964   2.540   1.613   5.734
 4171SOL    HW112965   2.545   1.624   5.640
 4171SOL    HW212966   2.481   1.539   5.747
 4172SOL     OW12967   3.488   1.726   6.977
 4172SOL    HW112968   3.540   1.732   6.897
 4172SOL    HW212969   3.476   1.817   7.005
 4173SOL     OW12970   3.702   0.179   6.556
 4173SOL    HW112971   3.727   0.096   6.517
 4173SOL    HW212972   3.615   0.198   6.520
 4174SOL     OW12973   2.127   0.319   6.302
 4174SOL    HW112974   2.041   0.354   6.280
 4174SOL    HW212975   2.126   0.306   6.397
 4175SOL     OW12976   3.069   1.607   5.617
 4175SOL    HW112977   3.060   1.515   5.644
 4175SOL    HW212978   3.004   1.617   5.547
 4176SOL     OW12979   2.687   1.005   6.957
 4176SOL    HW112980   2.730   1.001   6.872
 4176SOL    HW212981   2.688   1.097   6.981
 4177SOL     OW12982   2.777   0.910   5.875
 4177SOL    HW112983   2.839   0.942   5.809
 4177SOL    HW212984   2.824   0.841   5.921
 4178SOL     OW12985   3.355   1.625   5.628
 4178SOL    HW112986   3.260   1.620   5.615
 4178SOL    HW212987   3.391   1.631   5.540
 4179SOL     OW12988   2.244   1.261   7.055
 4179SOL    HW112989   2.231   1.355   7.045
 4179SOL    HW212990   2.156   1.224   7.048
 4180SOL     OW12991   3.466   1.280   6.865
 4180SOL    HW112992   3.534   1.275   6.933
 4180SOL    HW212993   3.409   1.352   6.894
 4181SOL     OW12994   2.912   1.106   6.291
 4181SOL    HW112995   2.842   1.055   6.331
 4181SOL    HW212996   2.974   1.041   6.259
 4182SOL     OW12997   2.877   0.247   6.553
 4182SOL    HW112998   2.866   0.197   6.472
 4182SOL    HW212999   2.870   0.181   6.623
 4183SOL     OW13000   2.443   1.473   6.059
 4183SOL    HW113001   2.499   1.431   5.994
 4183SOL    HW213002   2.405   1.548   6.014
 4184SOL     OW13003   3.581   0.391   6.960
 4184SOL    HW113004   3.652   0.456   6.959
 4184SOL    HW213005   3.613   0.320   6.905
 4185SOL     OW13006   2.122   1.347   5.884
 4185SOL    HW113007   2.028   1.342   5.864
 4185SOL    HW213008   2.127   1.399   5.965
 4186SOL     OW13009   1.974   1.006   7.299
 4186SOL    HW113010   1.898   0.996   7.356
 4186SOL    HW213011   2.048   0.979   7.353
 4187SOL     OW13012   2.553   0.243   7.083
 4187SOL    HW113013   2.623   0.191   7.043
 4187SOL    HW213014   2.579   0.250   7.175
 4188SOL     OW13015   1.959   0.319   5.575
 4188SOL    HW113016   1.882   0.336   5.629
 4188SOL    HW213017   1.975   0.402   5.530
 4189SOL     OW13018   3.291   0.857   6.986
 4189SOL    HW113019   3.242   0.919   6.932
 4189SOL    HW213020   3.380   0.860   6.951
 4190SOL     OW13021   1.945   0.154   5.926
 4190SOL    HW113022   1.914   0.217   5.861
 4190SOL    HW213023   2.029   0.124   5.893
 4191SOL     OW13024   3.041   1.341   5.703
 4191SOL    HW113025   2.951   1.309   5.707
 4191SOL    HW213026   3.071   1.341   5.794
 4192SOL     OW13027   2.481   0.830   7.019
 4192SOL    HW113028   2.537   0.906   7.004
 4192SOL    HW213029   2.542   0.757   7.028
 4193SOL     OW13030   3.346   1.776   6.562
 4193SOL    HW113031   3.370   1.835   6.491
 4193SOL    HW213032   3.429   1.757   6.607
 4194SOL     OW13033   2.580   0.563   7.292
 4194SOL    HW113034   2.618   0.626   7.352
 4194SOL    HW213035   2.611   0.478   7.323
 4195SOL     OW13036   3.332   1.201   7.218
 4195SOL    HW113037   3.321   1.215   7.312
 4195SOL    HW213038   3.426   1.215   7.203
 4196SOL     OW13039   3.529   0.881   6.845
 4196SOL    HW113040   3.527   0.796   6.801
 4196SOL    HW213041   3.524   0.945   6.773
 4197SOL     OW13042   3.085   0.334   6.032
 4197SOL    HW113043   3.152   0.266   6.023
 4197SOL    HW213044   3.108   0.379   6.114
 4198SOL     OW13045   2.453   0.738   6.254
 4198SOL    HW113046   2.492   0.825   6.239
 4198SOL    HW213047   2.384   0.731   6.189
 4199SOL     OW13048   3.619   0.379   7.228
 4199SOL    HW113049   3.598   0.386   7.135
 4199SOL    HW213050   3.559   0.312   7.261
 4200SOL     OW13051   3.612   0.932   7.100
 4200SOL    HW113052   3.608   1.026   7.115
 4200SOL    HW213053   3.592   0.921   7.008
 4201SOL     OW13054   2.723   1.367   5.617
 4201SOL    HW113055   2.685   1.395   5.701
 4201SOL    HW213056   2.743   1.449   5.572
 4202SOL     OW13057   2.729   0.964   6.440
 4202SOL    HW113058   2.780   0.894   6.480
 4202SOL    HW213059   2.696   1.015   6.514
 4203SOL     OW13060   2.941   0.988   5.675
 4203SOL    HW113061   2.920   1.039   5.596
 4203SOL    HW213062   3.016   0.935   5.649
 4204SOL     OW13063   3.718   1.556   6.428
 4204SOL    HW113064   3.639   1.542   6.376
 4204SOL    HW213065   3.714   1.490   6.497
 4205SOL     OW13066   1.949   1.232   6.250
 4205SOL    HW113067   1.945   1.176   6.327
 4205SOL    HW213068   2.019   1.195   6.197
 4206SOL     OW13069   2.552   1.396   7.216
 4206SOL    HW113070   2.467   1.354   7.231
 4206SOL    HW213071   2.534   1.490   7.222
 4207SOL     OW13072   3.677   0.182   6.829
 4207SOL    HW113073   3.679   0.087   6.838
 4207SOL    HW213074   3.693   0.199   6.736
 4208SOL     OW13075   2.290   0.434   6.110
 4208SOL    HW113076   2.322   0.362   6.056
 4208SOL    HW213077   2.244   0.392   6.182
 4209SOL     OW13078   3.562   1.492   6.685
 4209SOL    HW113079   3.482   1.467   6.639
 4209SOL    HW213080   3.576   1.421   6.749
 4210SOL     OW13081   2.190   0.554   6.878
 4210SOL    HW113082   2.244   0.497   6.933
 4210SOL    HW213083   2.210   0.527   6.788
 4211SOL     OW13084   2.713   1.536   6.266
 4211SOL    HW113085   2.677   1.607   6.212
 4211SOL    HW213086   2.640   1.477   6.280
 4212SOL     OW13087   3.323   0.251   6.697
 4212SOL    HW113088   3.337   0.163   6.733
 4212SOL    HW213089   3.265   0.293   6.761
 4213SOL     OW13090   2.868   0.029   6.733
 4213SOL    HW113091   2.792   3.979   6.704
 4213SOL    HW213092   2.938   3.964   6.741
 4214SOL     OW13093   2.635   1.333   5.899
 4214SOL    HW113094   2.602   1.244   5.906
 4214SOL    HW213095   2.717   1.332   5.949
 4215SOL     OW13096   2.492   1.559   6.902
 4215SOL    HW113097   2.516   1.620   6.972
 4215SOL    HW213098   2.574   1.537   6.859
 4216SOL     OW13099   3.177   0.072   5.746
 4216SOL    HW113100   3.193   0.000   5.684
 4216SOL    HW213101   3.093   0.052   5.785
 4217SOL     OW13102   3.147   0.458   6.273
 4217SOL    HW113103   3.099   0.540   6.270
 4217SOL    HW213104   3.151   0.436   6.366
 4218SOL     OW13105   3.451   0.211   6.453
 4218SOL    HW113106   3.401   0.232   6.532
 4218SOL    HW213107   3.451   0.291   6.401
 4219SOL     OW13108   1.909   1.072   5.891
 4219SOL    HW113109   2.002   1.061   5.873
 4219SOL    HW213110   1.878   0.984   5.915
 4220SOL     OW13111   2.741   1.651   5.928
 4220SOL    HW113112   2.676   1.619   5.865
 4220SOL    HW213113   2.708   1.737   5.954
 4221SOL     OW13114   2.093   0.621   7.569
 4221SOL    HW113115   2.002   0.626   7.600
 4221SOL    HW213116   2.085   0.600   7.476
 4222SOL     OW13117   2.079   0.297   8.439
 4222SOL    HW113118   2.116   0.256   8.517
 4222SOL    HW213119   1.996   0.252   8.425
 4223SOL     OW13120   1.871   0.394   8.085
 4223SOL    HW113121   1.784   0.409   8.120
 4223SOL    HW213122   1.860   0.322   8.022
 4224SOL     OW13123   2.429   1.285   8.621
 4224SOL    HW113124   2.341   1.289   8.583
 4224SOL    HW213125   2.444   1.374   8.655
 4225SOL     OW13126   3.421   1.511   8.154
 4225SOL    HW113127   3.378   1.493   8.237
 4225SOL    HW213128   3.350   1.517   8.091
 4226SOL     OW13129   2.993   0.698   8.150
 4226SOL    HW113130   3.042   0.780   8.136
 4226SOL    HW213131   2.946   0.713   8.232
 4227SOL     OW13132   3.620   0.621   7.677
 4227SOL    HW113133   3.604   0.610   7.583
 4227SOL    HW213134   3.607   0.533   7.714
 4228SOL     OW13135   2.619   1.143   8.488
 4228SOL    HW113136   2.550   1.177   8.544
 4228SOL    HW213137   2.654   1.220   8.443
 4229SOL     OW13138   2.727   0.777   9.270
 4229SOL    HW113139   2.714   0.848   9.333
 4229SOL    HW213140   2.751   0.820   9.188
 4230SOL     OW13141   2.549   1.005   8.095
 4230SOL    HW113142   2.613   0.992   8.165
 4230SOL    HW213143   2.478   1.055   8.136
 4231SOL     OW13144   2.571   1.151   9.259
 4231SOL    HW113145   2.619   1.230   9.285
 4231SOL    HW213146   2.488   1.184   9.225
 4232SOL     OW13147   2.194   1.424   8.517
 4232SOL    HW113148   2.119   1.390   8.467
 4232SOL    HW213149   2.243   1.477   8.454
 4233SOL     OW13150   3.323   1.499   8.800
 4233SOL    HW113151   3.372   1.581   8.810
 4233SOL    HW213152   3.264   1.497   8.876
 4234SOL     OW13153   2.304   0.397   8.943
 4234SOL    HW113154   2.392   0.358   8.941
 4234SOL    HW213155   2.245   0.322   8.950
 4235SOL     OW13156   3.473   0.450   8.185
 4235SOL    HW113157   3.402   0.483   8.130
 4235SOL    HW213158   3.500   0.526   8.237
 4236SOL     OW13159   2.998   1.341   9.140
 4236SOL    HW113160   3.039   1.337   9.227
 4236SOL    HW213161   2.945   1.262   9.134
 4237SOL     OW13162   2.073   1.459   7.994
 4237SOL    HW113163   2.075   1.521   8.066
 4237SOL    HW213164   2.030   1.381   8.030
 4238SOL     OW13165   2.118   1.089   8.338
 4238SOL    HW113166   2.116   1.003   8.379
 4238SOL    HW213167   2.061   1.144   8.392
 4239SOL     OW13168   2.474   1.791   8.879
 4239SOL    HW113169   2.393   1.775   8.927
 4239SOL    HW213170   2.498   1.881   8.902
 4240SOL     OW13171   2.451   0.980   7.581
 4240SOL    HW113172   2.499   1.028   7.514
 4240SOL    HW213173   2.488   1.010   7.664
 4241SOL     OW13174   3.442   0.136   8.906
 4241SOL    HW113175   3.463   0.210   8.849
 4241SOL    HW213176   3.415   0.176   8.989
 4242SOL     OW13177   1.977   0.652   8.008
 4242SOL    HW113178   1.950   0.563   8.031
 4242SOL    HW213179   1.970   0.702   8.090
 4243SOL     OW13180   3.700   1.758   7.785
 4243SOL    HW113181   3.767   1.733   7.849
 4243SOL    HW213182   3.722   1.849   7.762
 4244SOL     OW13183   3.549   0.917   8.088
 4244SOL    HW113184   3.634   0.876   8.074
 4244SOL    HW213185   3.532   0.968   8.009
 4245SOL     OW13186   3.504   1.107   7.879
 4245SOL    HW113187   3.588   1.114   7.835
 4245SOL    HW213188   3.510   1.169   7.952
 4246SOL     OW13189   1.984   0.747   9.030
 4246SOL    HW113190   2.076   0.773   9.040
 4246SOL    HW213191   1.935   0.829   9.039
 4247SOL     OW13192   2.477   1.383   8.185
 4247SOL    HW113193   2.430   1.300   8.194
 4247SOL    HW213194   2.461   1.409   8.094
 4248SOL     OW13195   3.151   1.239   8.872
 4248SOL    HW113196   3.184   1.172   8.812
 4248SOL    HW213197   3.208   1.232   8.948
 4249SOL     OW13198   2.679   0.002   7.963
 4249SOL    HW113199   2.724   0.083   7.941
 4249SOL    HW213200   2.586   0.026   7.965
 4250SOL     OW13201   2.053   0.967   8.718
 4250SOL    HW113202   2.137   0.925   8.703
 4250SOL    HW213203   1.990   0.911   8.673
 4251SOL     OW13204   3.392   0.993   7.646
 4251SOL    HW113205   3.322   0.936   7.679
 4251SOL    HW213206   3.433   1.028   7.725
 4252SOL     OW13207   3.047   1.805   9.069
 4252SOL    HW113208   3.060   1.863   8.994
 4252SOL    HW213209   3.063   1.717   9.035
 4253SOL     OW13210   2.213   0.255   9.268
 4253SOL    HW113211   2.257   0.340   9.270
 4253SOL    HW213212   2.121   0.276   9.281
 4254SOL     OW13213   3.327   1.420   8.400
 4254SOL    HW113214   3.260   1.434   8.466
 4254SOL    HW213215   3.316   1.329   8.373
 4255SOL     OW13216   3.519   1.738   8.027
 4255SOL    HW113217   3.501   1.708   7.938
 4255SOL    HW213218   3.496   1.663   8.082
 4256SOL     OW13219   2.457   0.722   7.713
 4256SOL    HW113220   2.463   0.803   7.662
 4256SOL    HW213221   2.392   0.741   7.781
 4257SOL     OW13222   3.138   0.363   8.388
 4257SOL    HW113223   3.051   0.324   8.393
 4257SOL    HW213224   3.195   0.302   8.434
 4258SOL     OW13225   3.441   1.668   7.757
 4258SOL    HW113226   3.531   1.701   7.752
 4258SOL    HW213227   3.416   1.652   7.666
 4259SOL     OW13228   2.658   0.616   8.902
 4259SOL    HW113229   2.629   0.592   8.990
 4259SOL    HW213230   2.616   0.552   8.845
 4260SOL     OW13231   3.255   0.476   9.125
 4260SOL    HW113232   3.258   0.521   9.210
 4260SOL    HW213233   3.315   0.403   9.134
 4261SOL     OW13234   2.818   0.888   9.030
 4261SOL    HW113235   2.872   0.818   8.995
 4261SOL    HW213236   2.770   0.922   8.954
 4262SOL     OW13237   2.853   0.403   8.689
 4262SOL    HW113238   2.771   0.429   8.731
 4262SOL    HW213239   2.827   0.372   8.603
 4263SOL     OW13240   2.912   0.699   7.874
 4263SOL    HW113241   2.927   0.692   7.968
 4263SOL    HW213242   2.830   0.652   7.859
 4264SOL     OW13243   1.951   0.821   8.224
 4264SOL    HW113244   2.031   0.813   8.275
 4264SOL    HW213245   1.909   0.900   8.259
 4265SOL     OW13246   2.754   0.350   7.647
 4265SOL    HW113247   2.795   0.408   7.583
 4265SOL    HW213248   2.753   0.264   7.604
 4266SOL     OW13249   3.573   0.575   9.277
 4266SOL    HW113250   3.536   0.651   9.232
 4266SOL    HW213251   3.596   0.514   9.206
 4267SOL     OW13252   3.237   1.142   7.989
 4267SOL    HW113253   3.317   1.129   7.938
 4267SOL    HW213254   3.186   1.204   7.938
 4268SOL     OW13255   2.417   0.197   8.330
 4268SOL    HW113256   2.421   0.215   8.424
 4268SOL    HW213257   2.415   0.284   8.290
 4269SOL     OW13258   2.867   1.443   7.920
 4269SOL    HW113259   2.834   1.520   7.874
 4269SOL    HW213260   2.856   1.464   8.013
 4270SOL     OW13261   2.219   1.796   8.286
 4270SOL    HW113262   2.263   1.714   8.311
 4270SOL    HW213263   2.283   1.864   8.307
 4271SOL     OW13264   3.665   1.062   8.314
 4271SOL    HW113265   3.609   1.042   8.239
 4271SOL    HW213266   3.605   1.066   8.389
 4272SOL     OW13267   3.089   1.539   8.961
 4272SOL    HW113268   3.076   1.466   9.022
 4272SOL    HW213269   3.028   1.523   8.890
 4273SOL     OW13270   2.182   0.949   7.699
 4273SOL    HW113271   2.262   0.975   7.653
 4273SOL    HW213272   2.153   0.870   7.655
 4274SOL     OW13273   3.339   0.741   8.178
 4274SOL    HW113274   3.331   0.698   8.263
 4274SOL    HW213275   3.416   0.797   8.186
 4275SOL     OW13276   2.328   1.263   9.185
 4275SOL    HW113277   2.300   1.268   9.094
 4275SOL    HW213278   2.246   1.261   9.235
 4276SOL     OW13279   2.987   1.777   7.683
 4276SOL    HW113280   2.911   1.736   7.725
 4276SOL    HW213281   3.008   1.719   7.610
 4277SOL     OW13282   2.038   0.277   8.945
 4277SOL    HW113283   1.975   0.349   8.942
 4277SOL    HW213284   2.046   0.257   9.039
 4278SOL     OW13285   3.489   1.381   7.535
 4278SOL    HW113286   3.447   1.466   7.520
 4278SOL    HW213287   3.421   1.317   7.516
 4279SOL     OW13288   3.296   0.162   7.851
 4279SOL    HW113289   3.256   0.092   7.799
 4279SOL    HW213290   3.374   0.122   7.889
 4280SOL     OW13291   2.161   1.781   8.674
 4280SOL    HW113292   2.197   1.702   8.714
 4280SOL    HW213293   2.120   1.752   8.593
 4281SOL     OW13294   2.800   1.699   8.348
 4281SOL    HW113295   2.878   1.647   8.369
 4281SOL    HW213296   2.756   1.649   8.280
 4282SOL     OW13297   2.254   0.695   7.926
 4282SOL    HW113298   2.276   0.602   7.936
 4282SOL    HW213299   2.160   0.700   7.943
 4283SOL     OW13300   3.394   0.232   9.175
 4283SOL    HW113301   3.392   0.257   9.267
 4283SOL    HW213302   3.362   0.142   9.173
 4284SOL     OW13303   2.503   0.136   7.554
 4284SOL    HW113304   2.538   0.056   7.593
 4284SOL    HW213305   2.440   0.105   7.488
 4285SOL     OW13306   2.640   0.281   9.212
 4285SOL    HW113307   2.703   0.210   9.218
 4285SOL    HW213308   2.578   0.265   9.283
 4286SOL     OW13309   2.738   1.521   8.642
 4286SOL    HW113310   2.723   1.485   8.554
 4286SOL    HW213311   2.808   1.467   8.678
 4287SOL     OW13312   3.204   0.587   8.878
 4287SOL    HW113313   3.234   0.558   8.965
 4287SOL    HW213314   3.238   0.676   8.870
 4288SOL     OW13315   2.677   1.396   8.387
 4288SOL    HW113316   2.761   1.385   8.343
 4288SOL    HW213317   2.612   1.395   8.316
 4289SOL     OW13318   2.791   0.510   8.351
 4289SOL    HW113319   2.767   0.503   8.258
 4289SOL    HW213320   2.820   0.423   8.375
 4290SOL     OW13321   2.408   0.058   7.942
 4290SOL    HW113322   2.333   0.062   8.001
 4290SOL    HW213323   2.403   0.138   7.890
 4291SOL     OW13324   3.290   1.198   7.489
 4291SOL    HW113325   3.321   1.123   7.539
 4291SOL    HW213326   3.205   1.219   7.527
 4292SOL     OW13327   2.187   0.043   7.656
 4292SOL    HW113328   2.203   0.112   7.592
 4292SOL    HW213329   2.271   0.030   7.699
 4293SOL     OW13330   2.800   0.247   7.911
 4293SOL    HW113331   2.774   0.289   7.829
 4293SOL    HW213332   2.896   0.248   7.910
 4294SOL     OW13333   2.942   0.681   8.907
 4294SOL    HW113334   2.870   0.618   8.915
 4294SOL    HW213335   3.021   0.627   8.902
 4295SOL     OW13336   3.085   1.570   8.241
 4295SOL    HW113337   3.103   1.637   8.176
 4295SOL    HW213338   3.154   1.582   8.307
 4296SOL     OW13339   2.330   1.150   8.182
 4296SOL    HW113340   2.260   1.129   8.244
 4296SOL    HW213341   2.292   1.132   8.096
 4297SOL     OW13342   3.131   1.794   8.055
 4297SOL    HW113343   3.177   1.855   7.996
 4297SOL    HW213344   3.067   1.849   8.100
 4298SOL     OW13345   2.886   0.547   7.471
 4298SOL    HW113346   2.843   0.630   7.451
 4298SOL    HW213347   2.949   0.568   7.540
 4299SOL     OW13348   1.940   0.552   8.843
 4299SOL    HW113349   2.031   0.552   8.813
 4299SOL    HW213350   1.935   0.625   8.904
 4300SOL     OW13351   2.427   0.232   8.609
 4300SOL    HW113352   2.453   0.141   8.621
 4300SOL    HW213353   2.337   0.236   8.641
 4301SOL     OW13354   2.732   0.461   8.087
 4301SOL    HW113355   2.684   0.514   8.024
 4301SOL    HW213356   2.752   0.380   8.040
 4302SOL     OW13357   2.856   0.042   8.227
 4302SOL    HW113358   2.823   0.066   8.140
 4302SOL    HW213359   2.866   3.947   8.223
 4303SOL     OW13360   3.299   1.163   8.306
 4303SOL    HW113361   3.230   1.096   8.303
 4303SOL    HW213362   3.324   1.175   8.214
 4304SOL     OW13363   3.328   0.604   8.427
 4304SOL    HW113364   3.278   0.523   8.432
 4304SOL    HW213365   3.389   0.600   8.500
 4305SOL     OW13366   3.722   0.823   7.823
 4305SOL    HW113367   3.764   0.766   7.887
 4305SOL    HW213368   3.682   0.763   7.760
 4306SOL     OW13369   3.528   1.265   8.096
 4306SOL    HW113370   3.623   1.270   8.104
 4306SOL    HW213371   3.497   1.353   8.116
 4307SOL     OW13372   3.256   0.573   7.518
 4307SOL    HW113373   3.194   0.555   7.588
 4307SOL    HW213374   3.342   0.554   7.556
 4308SOL     OW13375   2.389   0.266   7.766
 4308SOL    HW113376   2.439   0.225   7.696
 4308SOL    HW213377   2.364   0.351   7.731
 4309SOL     OW13378   3.614   1.234   9.021
 4309SOL    HW113379   3.702   1.199   9.003
 4309SOL    HW213380   3.631   1.323   9.052
 4310SOL     OW13381   2.921   1.353   8.782
 4310SOL    HW113382   2.847   1.322   8.833
 4310SOL    HW213383   2.997   1.312   8.823
 4311SOL     OW13384   3.467   1.627   9.101
 4311SOL    HW113385   3.461   1.661   9.012
 4311SOL    HW213386   3.549   1.578   9.103
 4312SOL     OW13387   2.989   1.202   8.554
 4312SOL    HW113388   2.931   1.241   8.620
 4312SOL    HW213389   2.956   1.234   8.470
 4313SOL     OW13390   3.493   1.098   8.525
 4313SOL    HW113391   3.487   1.160   8.598
 4313SOL    HW213392   3.414   1.114   8.473
 4314SOL     OW13393   2.775   0.111   8.850
 4314SOL    HW113394   2.795   0.087   8.760
 4314SOL    HW213395   2.855   0.153   8.881
 4315SOL     OW13396   2.846   1.115   9.171
 4315SOL    HW113397   2.754   1.131   9.191
 4315SOL    HW213398   2.845   1.037   9.115
 4316SOL     OW13399   2.572   1.064   7.819
 4316SOL    HW113400   2.557   1.047   7.912
 4316SOL    HW213401   2.647   1.009   7.796
 4317SOL     OW13402   2.280   0.814   8.699
 4317SOL    HW113403   2.349   0.823   8.765
 4317SOL    HW213404   2.245   0.726   8.712
 4318SOL     OW13405   3.129   0.375   8.723
 4318SOL    HW113406   3.163   0.453   8.768
 4318SOL    HW213407   3.043   0.402   8.692
 4319SOL     OW13408   1.934   1.577   8.802
 4319SOL    HW113409   1.899   1.640   8.739
 4319SOL    HW213410   2.029   1.578   8.786
 4320SOL     OW13411   2.216   1.104   7.939
 4320SOL    HW113412   2.201   1.173   7.875
 4320SOL    HW213413   2.217   1.023   7.888
 4321SOL     OW13414   2.418   0.536   8.307
 4321SOL    HW113415   2.434   0.595   8.233
 4321SOL    HW213416   2.481   0.564   8.373
 4322SOL     OW13417   3.110   1.348   7.837
 4322SOL    HW113418   3.165   1.420   7.867
 4322SOL    HW213419   3.023   1.369   7.871
 4323SOL     OW13420   3.141   1.457   8.595
 4323SOL    HW113421   3.197   1.460   8.672
 4323SOL    HW213422   3.086   1.379   8.607
 4324SOL     OW13423   3.438   0.631   7.930
 4324SOL    HW113424   3.399   0.691   7.993
 4324SOL    HW213425   3.487   0.687   7.870
 4325SOL     OW13426   2.212   1.522   8.765
 4325SOL    HW113427   2.198   1.479   8.680
 4325SOL    HW213428   2.307   1.532   8.772
 4326SOL     OW13429   2.276   0.745   9.049
 4326SOL    HW113430   2.337   0.790   8.991
 4326SOL    HW213431   2.317   0.659   9.065
 4327SOL     OW13432   3.462   0.776   9.127
 4327SOL    HW113433   3.376   0.818   9.121
 4327SOL    HW213434   3.515   0.819   9.060
 4328SOL     OW13435   2.884   0.121   9.226
 4328SOL    HW113436   2.918   0.200   9.184
 4328SOL    HW213437   2.869   0.060   9.154
 4329SOL     OW13438   2.347   0.034   9.212
 4329SOL    HW113439   2.354   0.039   9.117
 4329SOL    HW213440   2.289   0.107   9.235
 4330SOL     OW13441   2.445   0.873   8.479
 4330SOL    HW113442   2.474   0.964   8.478
 4330SOL    HW213443   2.388   0.866   8.556
 4331SOL     OW13444   3.221   0.859   8.479
 4331SOL    HW113445   3.138   0.850   8.431
 4331SOL    HW213446   3.260   0.772   8.474
 4332SOL     OW13447   3.067   0.534   7.711
 4332SOL    HW113448   3.075   0.455   7.765
 4332SOL    HW213449   3.024   0.598   7.769
 4333SOL     OW13450   2.164   0.212   8.690
 4333SOL    HW113451   2.126   0.241   8.773
 4333SOL    HW213452   2.151   0.117   8.689
 4334SOL     OW13453   1.908   1.313   8.726
 4334SOL    HW113454   1.941   1.257   8.796
 4334SOL    HW213455   1.915   1.402   8.760
 4335SOL     OW13456   2.587   0.633   8.505
 4335SOL    HW113457   2.661   0.617   8.445
 4335SOL    HW213458   2.558   0.722   8.483
 4336SOL     OW13459   3.595   0.956   9.306
 4336SOL    HW113460   3.549   0.903   9.241
 4336SOL    HW213461   3.532   0.969   9.376
 4337SOL     OW13462   2.183   0.057   8.093
 4337SOL    HW113463   2.162   0.150   8.105
 4337SOL    HW213464   2.143   0.014   8.168
 4338SOL     OW13465   3.468   0.387   7.829
 4338SOL    HW113466   3.442   0.318   7.891
 4338SOL    HW213467   3.446   0.469   7.874
 4339SOL     OW13468   2.890   0.760   8.409
 4339SOL    HW113469   2.887   0.777   8.503
 4339SOL    HW213470   2.863   0.668   8.400
 4340SOL     OW13471   2.844   1.566   9.164
 4340SOL    HW113472   2.829   1.610   9.080
 4340SOL    HW213473   2.887   1.484   9.141
 4341SOL     OW13474   3.708   1.505   9.049
 4341SOL    HW113475   3.730   1.532   8.959
 4341SOL    HW213476   3.789   1.519   9.098
 4342SOL     OW13477   2.215   0.915   9.256
 4342SOL    HW113478   2.297   0.935   9.301
 4342SOL    HW213479   2.240   0.853   9.187
 4343SOL     OW13480   3.370   0.276   7.584
 4343SOL    HW113481   3.294   0.218   7.596
 4343SOL    HW213482   3.384   0.316   7.670
 4344SOL     OW13483   3.154   0.827   7.479
 4344SOL    HW113484   3.196   0.741   7.482
 4344SOL    HW213485   3.186   0.867   7.398
 4345SOL     OW13486   2.927   1.336   8.301
 4345SOL    HW113487   2.930   1.263   8.239
 4345SOL    HW213488   2.990   1.399   8.267
 4346SOL     OW13489   2.171   0.810   8.396
 4346SOL    HW113490   2.264   0.831   8.390
 4346SOL    HW213491   2.169   0.720   8.428
 4347SOL     OW13492   2.199   0.533   8.460
 4347SOL    HW113493   2.158   0.448   8.444
 4347SOL    HW213494   2.274   0.534   8.402
 4348SOL     OW13495   2.995   0.383   9.139
 4348SOL    HW113496   2.948   0.438   9.202
 4348SOL    HW213497   3.083   0.422   9.135
 4349SOL     OW13498   3.013   0.224   8.929
 4349SOL    HW113499   3.005   0.279   9.007
 4349SOL    HW213500   3.035   0.286   8.859
 4350SOL     OW13501   1.853   1.310   7.668
 4350SOL    HW113502   1.761   1.317   7.646
 4350SOL    HW213503   1.865   1.218   7.692
 4351SOL     OW13504   1.976   1.729   8.433
 4351SOL    HW113505   1.937   1.670   8.369
 4351SOL    HW213506   2.027   1.791   8.381
 4352SOL     OW13507   2.362   1.570   8.356
 4352SOL    HW113508   2.429   1.634   8.380
 4352SOL    HW213509   2.408   1.506   8.302
 4353SOL     OW13510   2.847   0.791   8.674
 4353SOL    HW113511   2.900   0.769   8.750
 4353SOL    HW213512   2.760   0.757   8.695
 4354SOL     OW13513   1.896   0.546   8.565
 4354SOL    HW113514   1.972   0.519   8.513
 4354SOL    HW213515   1.928   0.548   8.655
 4355SOL     OW13516   2.064   0.526   9.163
 4355SOL    HW113517   2.130   0.502   9.098
 4355SOL    HW213518   2.016   0.599   9.123
 4356SOL     OW13519   3.240   0.940   9.107
 4356SOL    HW113520   3.260   1.033   9.106
 4356SOL    HW213521   3.236   0.915   9.015
 4357SOL     OW13522   2.678   0.571   7.807
 4357SOL    HW113523   2.683   0.495   7.749
 4357SOL    HW213524   2.603   0.622   7.774
 4358SOL     OW13525   3.504   0.602   8.635
 4358SOL    HW113526   3.492   0.541   8.708
 4358SOL    HW213527   3.589   0.580   8.598
 4359SOL     OW13528   2.115   1.538   9.158
 4359SOL    HW113529   2.100   1.609   9.221
 4359SOL    HW213530   2.115   1.459   9.212
 4360SOL     OW13531   2.561   0.457   8.709
 4360SOL    HW113532   2.513   0.378   8.681
 4360SOL    HW213533   2.556   0.515   8.633
 4361SOL     OW13534   2.790   1.679   8.915
 4361SOL    HW113535   2.765   1.646   8.829
 4361SOL    HW213536   2.788   1.774   8.906
 4362SOL     OW13537   2.328   0.494   7.635
 4362SOL    HW113538   2.385   0.568   7.657
 4362SOL    HW213539   2.241   0.534   7.622
 4363SOL     OW13540   2.008   1.140   8.919
 4363SOL    HW113541   2.012   1.088   9.000
 4363SOL    HW213542   2.026   1.077   8.849
 4364SOL     OW13543   3.188   1.047   8.672
 4364SOL    HW113544   3.213   0.985   8.604
 4364SOL    HW213545   3.117   1.099   8.633
 4365SOL     OW13546   3.172   0.855   7.755
 4365SOL    HW113547   3.096   0.827   7.804
 4365SOL    HW213548   3.148   0.843   7.663
 4366SOL     OW13549   3.637   1.745   8.601
 4366SOL    HW113550   3.692   1.772   8.528
 4366SOL    HW213551   3.610   1.656   8.579
 4367SOL     OW13552   3.103   1.733   8.562
 4367SOL    HW113553   3.185   1.753   8.517
 4367SOL    HW213554   3.108   1.639   8.580
 4368SOL     OW13555   1.947   1.266   8.461
 4368SOL    HW113556   1.932   1.279   8.555
 4368SOL    HW213557   1.873   1.213   8.432
 4369SOL     OW13558   2.538   1.664   9.173
 4369SOL    HW113559   2.489   1.747   9.175
 4369SOL    HW213560   2.603   1.677   9.105
 4370SOL     OW13561   3.555   0.124   7.935
 4370SOL    HW113562   3.637   0.135   7.887
 4370SOL    HW213563   3.554   0.031   7.959
 4371SOL     OW13564   3.251   1.567   7.932
 4371SOL    HW113565   3.312   1.598   7.865
 4371SOL    HW213566   3.204   1.646   7.960
 4372SOL     OW13567   2.040   1.744   9.308
 4372SOL    HW113568   1.972   1.698   9.358
 4372SOL    HW213569   2.009   1.834   9.303
 4373SOL     OW13570   3.139   0.925   8.119
 4373SOL    HW113571   3.213   0.865   8.126
 4373SOL    HW213572   3.173   0.998   8.067
 4374SOL     OW13573   2.678   1.272   8.878
 4374SOL    HW113574   2.651   1.311   8.961
 4374SOL    HW213575   2.608   1.294   8.817
 4375SOL     OW13576   3.488   1.726   8.839
 4375SOL    HW113577   3.540   1.732   8.759
 4375SOL    HW213578   3.476   1.817   8.867
 4376SOL     OW13579   3.702   0.179   8.418
 4376SOL    HW113580   3.727   0.096   8.378
 4376SOL    HW213581   3.615   0.198   8.382
 4377SOL     OW13582   2.127   0.318   8.164
 4377SOL    HW113583   2.041   0.354   8.142
 4377SOL    HW213584   2.125   0.306   8.259
 4378SOL     OW13585   3.069   1.608   7.479
 4378SOL    HW113586   3.059   1.516   7.504
 4378SOL    HW213587   3.005   1.621   7.409
 4379SOL     OW13588   2.686   1.006   8.820
 4379SOL    HW113589   2.729   1.003   8.734
 4379SOL    HW213590   2.686   1.098   8.843
 4380SOL     OW13591   2.778   0.911   7.738
 4380SOL    HW113592   2.839   0.942   7.671
 4380SOL    HW213593   2.824   0.840   7.782
 4381SOL     OW13594   3.355   1.624   7.490
 4381SOL    HW113595   3.260   1.621   7.477
 4381SOL    HW213596   3.391   1.631   7.402
 4382SOL     OW13597   2.232   1.299   8.939
 4382SOL    HW113598   2.218   1.378   8.887
 4382SOL    HW213599   2.154   1.246   8.923
 4383SOL     OW13600   3.466   1.280   8.727
 4383SOL    HW113601   3.534   1.275   8.795
 4383SOL    HW213602   3.409   1.351   8.756
 4384SOL     OW13603   2.912   1.107   8.154
 4384SOL    HW113604   2.842   1.055   8.193
 4384SOL    HW213605   2.974   1.041   8.121
 4385SOL     OW13606   2.877   0.247   8.415
 4385SOL    HW113607   2.866   0.197   8.334
 4385SOL    HW213608   2.870   0.181   8.485
 4386SOL     OW13609   2.468   1.492   7.931
 4386SOL    HW113610   2.507   1.434   7.866
 4386SOL    HW213611   2.389   1.527   7.889
 4387SOL     OW13612   3.581   0.391   8.822
 4387SOL    HW113613   3.652   0.456   8.821
 4387SOL    HW213614   3.613   0.320   8.767
 4388SOL     OW13615   2.132   1.294   7.767
 4388SOL    HW113616   2.053   1.304   7.715
 4388SOL    HW213617   2.127   1.363   7.833
 4389SOL     OW13618   1.974   1.021   9.167
 4389SOL    HW113619   1.898   0.998   9.220
 4389SOL    HW213620   2.049   0.984   9.214
 4390SOL     OW13621   2.553   0.242   8.945
 4390SOL    HW113622   2.623   0.191   8.905
 4390SOL    HW213623   2.579   0.250   9.037
 4391SOL     OW13624   1.959   0.320   7.437
 4391SOL    HW113625   1.881   0.336   7.489
 4391SOL    HW213626   1.976   0.402   7.392
 4392SOL     OW13627   3.291   0.857   8.848
 4392SOL    HW113628   3.242   0.919   8.793
 4392SOL    HW213629   3.380   0.860   8.813
 4393SOL     OW13630   1.945   0.155   7.789
 4393SOL    HW113631   1.914   0.217   7.724
 4393SOL    HW213632   2.029   0.124   7.754
 4394SOL     OW13633   3.042   1.340   7.565
 4394SOL    HW113634   2.953   1.305   7.568
 4394SOL    HW213635   3.071   1.341   7.656
 4395SOL     OW13636   2.481   0.830   8.881
 4395SOL    HW113637   2.537   0.906   8.866
 4395SOL    HW213638   2.543   0.757   8.890
 4396SOL     OW13639   3.346   1.777   8.425
 4396SOL    HW113640   3.370   1.835   8.353
 4396SOL    HW213641   3.428   1.756   8.469
 4397SOL     OW13642   2.579   0.563   9.154
 4397SOL    HW113643   2.618   0.627   9.214
 4397SOL    HW213644   2.611   0.478   9.185
 4398SOL     OW13645   3.332   1.201   9.080
 4398SOL    HW113646   3.321   1.215   9.174
 4398SOL    HW213647   3.426   1.215   9.065
 4399SOL     OW13648   2.240   1.745   9.019
 4399SOL    HW113649   2.154   1.764   8.982
 4399SOL    HW213650   2.230   1.659   9.059
 4400SOL     OW13651   3.529   0.881   8.707
 4400SOL    HW113652   3.527   0.796   8.663
 4400SOL    HW213653   3.524   0.945   8.635
 4401SOL     OW13654   3.085   0.334   7.894
 4401SOL    HW113655   3.152   0.266   7.885
 4401SOL    HW213656   3.108   0.379   7.976
 4402SOL     OW13657   2.453   0.739   8.117
 4402SOL    HW113658   2.492   0.825   8.100
 4402SOL    HW213659   2.384   0.730   8.051
 4403SOL     OW13660   3.619   0.379   9.090
 4403SOL    HW113661   3.599   0.386   8.997
 4403SOL    HW213662   3.559   0.312   9.123
 4404SOL     OW13663   3.612   0.932   8.962
 4404SOL    HW113664   3.608   1.026   8.977
 4404SOL    HW213665   3.592   0.921   8.870
 4405SOL     OW13666   2.726   1.368   7.481
 4405SOL    HW113667   2.691   1.399   7.565
 4405SOL    HW213668   2.747   1.448   7.433
 4406SOL     OW13669   2.521   1.793   8.395
 4406SOL    HW113670   2.500   1.882   8.368
 4406SOL    HW213671   2.617   1.787   8.386
 4407SOL     OW13672   2.729   0.966   8.303
 4407SOL    HW113673   2.779   0.895   8.343
 4407SOL    HW213674   2.695   1.016   8.378
 4408SOL     OW13675   2.942   0.989   7.537
 4408SOL    HW113676   2.920   1.039   7.458
 4408SOL    HW213677   3.017   0.935   7.511
 4409SOL     OW13678   3.718   1.557   8.290
 4409SOL    HW113679   3.640   1.541   8.238
 4409SOL    HW213680   3.715   1.490   8.359
 4410SOL     OW13681   2.087   1.302   9.305
 4410SOL    HW113682   2.019   1.240   9.279
 4410SOL    HW213683   2.074   1.314   9.399
 4411SOL     OW13684   1.956   1.232   8.105
 4411SOL    HW113685   1.952   1.190   8.191
 4411SOL    HW213686   2.016   1.178   8.054
 4412SOL     OW13687   2.541   1.402   9.074
 4412SOL    HW113688   2.463   1.358   9.106
 4412SOL    HW213689   2.538   1.490   9.112
 4413SOL     OW13690   3.677   0.182   8.691
 4413SOL    HW113691   3.679   0.087   8.700
 4413SOL    HW213692   3.693   0.199   8.598
 4414SOL     OW13693   2.291   0.434   7.973
 4414SOL    HW113694   2.322   0.362   7.918
 4414SOL    HW213695   2.244   0.391   8.045
 4415SOL     OW13696   3.561   1.492   8.548
 4415SOL    HW113697   3.481   1.466   8.501
 4415SOL    HW213698   3.575   1.421   8.611
 4416SOL     OW13699   2.190   0.554   8.740
 4416SOL    HW113700   2.244   0.497   8.795
 4416SOL    HW213701   2.210   0.528   8.650
 4417SOL     OW13702   2.689   1.579   8.128
 4417SOL    HW113703   2.678   1.629   8.047
 4417SOL    HW213704   2.612   1.522   8.132
 4418SOL     OW13705   3.323   0.251   8.559
 4418SOL    HW113706   3.337   0.163   8.595
 4418SOL    HW213707   3.265   0.293   8.623
 4419SOL     OW13708   2.868   0.029   8.596
 4419SOL    HW113709   2.792   3.979   8.565
 4419SOL    HW213710   2.938   3.965   8.603
 4420SOL     OW13711   2.627   1.337   7.760
 4420SOL    HW113712   2.598   1.246   7.765
 4420SOL    HW213713   2.710   1.338   7.807
 4421SOL     OW13714   2.482   1.557   8.733
 4421SOL    HW113715   2.485   1.639   8.783
 4421SOL    HW213716   2.569   1.549   8.695
 4422SOL     OW13717   3.178   0.072   7.609
 4422SOL    HW113718   3.193   0.002   7.546
 4422SOL    HW213719   3.093   0.052   7.648
 4423SOL     OW13720   3.147   0.458   8.135
 4423SOL    HW113721   3.099   0.540   8.132
 4423SOL    HW213722   3.151   0.436   8.228
 4424SOL     OW13723   3.451   0.211   8.315
 4424SOL    HW113724   3.401   0.232   8.394
 4424SOL    HW213725   3.451   0.291   8.263
 4425SOL     OW13726   1.906   1.065   7.758
 4425SOL    HW113727   2.000   1.060   7.740
 4425SOL    HW213728   1.881   0.975   7.779
 4426SOL     OW13729   2.747   1.653   7.794
 4426SOL    HW113730   2.668   1.627   7.748
 4426SOL    HW213731   2.721   1.731   7.844
 4427SOL     OW13732   2.092   0.621   9.431
 4427SOL    HW113733   2.002   0.626   9.462
 4427SOL    HW213734   2.085   0.600   9.338
 4428SOL     OW13735   2.079   0.297  10.300
 4428SOL    HW113736   2.116   0.256  10.379
 4428SOL    HW213737   1.996   0.252  10.287
 4429SOL     OW13738   1.871   0.394   9.947
 4429SOL    HW113739   1.784   0.409   9.982
 4429SOL    HW213740   1.860   0.322   9.884
 4430SOL     OW13741   2.429   1.285  10.483
 4430SOL    HW113742   2.342   1.288  10.444
 4430SOL    HW213743   2.444   1.374  10.516
 4431SOL     OW13744   3.421   1.512  10.016
 4431SOL    HW113745   3.378   1.492  10.099
 4431SOL    HW213746   3.350   1.517   9.953
 4432SOL     OW13747   2.993   0.698  10.012
 4432SOL    HW113748   3.042   0.780   9.998
 4432SOL    HW213749   2.946   0.713  10.094
 4433SOL     OW13750   3.620   0.621   9.539
 4433SOL    HW113751   3.604   0.610   9.445
 4433SOL    HW213752   3.607   0.534   9.576
 4434SOL     OW13753   2.620   1.143  10.350
 4434SOL    HW113754   2.550   1.177  10.406
 4434SOL    HW213755   2.654   1.221  10.305
 4435SOL     OW13756   2.728   0.777  11.132
 4435SOL    HW113757   2.714   0.848  11.194
 4435SOL    HW213758   2.751   0.820  11.050
 4436SOL     OW13759   2.548   1.004   9.957
 4436SOL    HW113760   2.613   0.992  10.027
 4436SOL    HW213761   2.478   1.055   9.998
 4437SOL     OW13762   2.572   1.151  11.121
 4437SOL    HW113763   2.619   1.230  11.147
 4437SOL    HW213764   2.488   1.184  11.087
 4438SOL     OW13765   2.194   1.424  10.378
 4438SOL    HW113766   2.119   1.391  10.329
 4438SOL    HW213767   2.243   1.477  10.316
 4439SOL     OW13768   3.323   1.499  10.663
 4439SOL    HW113769   3.372   1.581  10.673
 4439SOL    HW213770   3.264   1.497  10.738
 4440SOL     OW13771   2.304   0.397  10.805
 4440SOL    HW113772   2.392   0.358  10.803
 4440SOL    HW213773   2.245   0.322  10.812
 4441SOL     OW13774   3.474   0.450  10.046
 4441SOL    HW113775   3.402   0.483   9.992
 4441SOL    HW213776   3.500   0.526  10.099
 4442SOL     OW13777   2.092   1.697   9.771
 4442SOL    HW113778   2.109   1.766   9.836
 4442SOL    HW213779   2.168   1.699   9.714
 4443SOL     OW13780   2.998   1.341  11.002
 4443SOL    HW113781   3.038   1.337  11.089
 4443SOL    HW213782   2.946   1.262  10.996
 4444SOL     OW13783   2.091   1.434   9.845
 4444SOL    HW113784   2.079   1.529   9.841
 4444SOL    HW213785   2.027   1.405   9.911
 4445SOL     OW13786   2.118   1.090  10.200
 4445SOL    HW113787   2.115   1.004  10.242
 4445SOL    HW213788   2.061   1.145  10.254
 4446SOL     OW13789   2.475   1.791  10.742
 4446SOL    HW113790   2.393   1.774  10.788
 4446SOL    HW213791   2.499   1.880  10.766
 4447SOL     OW13792   2.449   0.981   9.443
 4447SOL    HW113793   2.494   1.031   9.375
 4447SOL    HW213794   2.489   1.011   9.525
 4448SOL     OW13795   3.442   0.136  10.768
 4448SOL    HW113796   3.463   0.210  10.711
 4448SOL    HW213797   3.415   0.176  10.851
 4449SOL     OW13798   1.976   0.653   9.869
 4449SOL    HW113799   1.950   0.564   9.893
 4449SOL    HW213800   1.969   0.703   9.951
 4450SOL     OW13801   3.700   1.758   9.647
 4450SOL    HW113802   3.766   1.733   9.711
 4450SOL    HW213803   3.722   1.849   9.624
 4451SOL     OW13804   1.864   1.603   9.457
 4451SOL    HW113805   1.860   1.508   9.447
 4451SOL    HW213806   1.878   1.616   9.551
 4452SOL     OW13807   3.549   0.917   9.950
 4452SOL    HW113808   3.634   0.877   9.935
 4452SOL    HW213809   3.532   0.968   9.871
 4453SOL     OW13810   3.504   1.107   9.741
 4453SOL    HW113811   3.588   1.114   9.697
 4453SOL    HW213812   3.510   1.168   9.814
 4454SOL     OW13813   1.984   0.747  10.893
 4454SOL    HW113814   2.076   0.773  10.902
 4454SOL    HW213815   1.935   0.829  10.901
 4455SOL     OW13816   2.476   1.385  10.044
 4455SOL    HW113817   2.429   1.301  10.054
 4455SOL    HW213818   2.458   1.412   9.954
 4456SOL     OW13819   3.151   1.239  10.734
 4456SOL    HW113820   3.184   1.172  10.674
 4456SOL    HW213821   3.208   1.232  10.810
 4457SOL     OW13822   2.679   0.002   9.825
 4457SOL    HW113823   2.724   0.083   9.802
 4457SOL    HW213824   2.586   0.026   9.827
 4458SOL     OW13825   2.053   0.966  10.581
 4458SOL    HW113826   2.137   0.925  10.565
 4458SOL    HW213827   1.990   0.911  10.534
 4459SOL     OW13828   3.392   0.993   9.508
 4459SOL    HW113829   3.322   0.936   9.541
 4459SOL    HW213830   3.433   1.028   9.587
 4460SOL     OW13831   3.047   1.805  10.931
 4460SOL    HW113832   3.060   1.863  10.856
 4460SOL    HW213833   3.063   1.717  10.897
 4461SOL     OW13834   2.213   0.255  11.130
 4461SOL    HW113835   2.257   0.340  11.132
 4461SOL    HW213836   2.121   0.276  11.143
 4462SOL     OW13837   3.328   1.420  10.262
 4462SOL    HW113838   3.260   1.434  10.328
 4462SOL    HW213839   3.316   1.329  10.235
 4463SOL     OW13840   3.519   1.738   9.889
 4463SOL    HW113841   3.501   1.708   9.800
 4463SOL    HW213842   3.496   1.664   9.944
 4464SOL     OW13843   2.457   0.722   9.575
 4464SOL    HW113844   2.464   0.803   9.525
 4464SOL    HW213845   2.393   0.741   9.643
 4465SOL     OW13846   3.138   0.363  10.250
 4465SOL    HW113847   3.051   0.324  10.255
 4465SOL    HW213848   3.195   0.302  10.296
 4466SOL     OW13849   3.441   1.669   9.619
 4466SOL    HW113850   3.531   1.702   9.614
 4466SOL    HW213851   3.416   1.652   9.528
 4467SOL     OW13852   2.658   0.616  10.764
 4467SOL    HW113853   2.629   0.592  10.852
 4467SOL    HW213854   2.616   0.552  10.706
 4468SOL     OW13855   3.255   0.476  10.987
 4468SOL    HW113856   3.258   0.521  11.072
 4468SOL    HW213857   3.315   0.403  10.996
 4469SOL     OW13858   2.818   0.888  10.892
 4469SOL    HW113859   2.872   0.818  10.857
 4469SOL    HW213860   2.770   0.922  10.816
 4470SOL     OW13861   2.853   0.403  10.551
 4470SOL    HW113862   2.771   0.430  10.593
 4470SOL    HW213863   2.827   0.372  10.465
 4471SOL     OW13864   2.912   0.698   9.736
 4471SOL    HW113865   2.927   0.692   9.831
 4471SOL    HW213866   2.830   0.652   9.721
 4472SOL     OW13867   1.950   0.821  10.086
 4472SOL    HW113868   2.031   0.813  10.137
 4472SOL    HW213869   1.908   0.900  10.121
 4473SOL     OW13870   2.754   0.350   9.509
 4473SOL    HW113871   2.795   0.408   9.445
 4473SOL    HW213872   2.753   0.264   9.466
 4474SOL     OW13873   3.573   0.575  11.139
 4474SOL    HW113874   3.536   0.651  11.094
 4474SOL    HW213875   3.596   0.514  11.068
 4475SOL     OW13876   3.237   1.142   9.851
 4475SOL    HW113877   3.317   1.129   9.800
 4475SOL    HW213878   3.185   1.204   9.801
 4476SOL     OW13879   2.417   0.197  10.192
 4476SOL    HW113880   2.421   0.215  10.286
 4476SOL    HW213881   2.415   0.284  10.152
 4477SOL     OW13882   2.869   1.445   9.783
 4477SOL    HW113883   2.830   1.517   9.733
 4477SOL    HW213884   2.852   1.467   9.874
 4478SOL     OW13885   2.224   1.799  10.146
 4478SOL    HW113886   2.260   1.713  10.170
 4478SOL    HW213887   2.290   1.861  10.175
 4479SOL     OW13888   3.665   1.062  10.176
 4479SOL    HW113889   3.609   1.041  10.101
 4479SOL    HW213890   3.605   1.066  10.250
 4480SOL     OW13891   3.089   1.539  10.823
 4480SOL    HW113892   3.076   1.466  10.884
 4480SOL    HW213893   3.028   1.523  10.752
 4481SOL     OW13894   2.183   0.957   9.559
 4481SOL    HW113895   2.265   0.976   9.514
 4481SOL    HW213896   2.153   0.875   9.521
 4482SOL     OW13897   3.339   0.741  10.040
 4482SOL    HW113898   3.331   0.698  10.125
 4482SOL    HW213899   3.416   0.797  10.048
 4483SOL     OW13900   2.328   1.263  11.048
 4483SOL    HW113901   2.300   1.268  10.956
 4483SOL    HW213902   2.246   1.261  11.098
 4484SOL     OW13903   2.983   1.777   9.542
 4484SOL    HW113904   2.910   1.735   9.587
 4484SOL    HW213905   3.006   1.717   9.471
 4485SOL     OW13906   2.037   0.277  10.807
 4485SOL    HW113907   1.975   0.350  10.803
 4485SOL    HW213908   2.046   0.258  10.901
 4486SOL     OW13909   3.489   1.381   9.397
 4486SOL    HW113910   3.447   1.466   9.382
 4486SOL    HW213911   3.421   1.317   9.378
 4487SOL     OW13912   2.336   1.719   9.649
 4487SOL    HW113913   2.371   1.793   9.699
 4487SOL    HW213914   2.393   1.713   9.573
 4488SOL     OW13915   3.296   0.162   9.713
 4488SOL    HW113916   3.256   0.092   9.661
 4488SOL    HW213917   3.374   0.122   9.751
 4489SOL     OW13918   2.158   1.766  10.541
 4489SOL    HW113919   2.196   1.685  10.573
 4489SOL    HW213920   2.120   1.743  10.456
 4490SOL     OW13921   2.799   1.698  10.209
 4490SOL    HW113922   2.877   1.646  10.230
 4490SOL    HW213923   2.755   1.649  10.140
 4491SOL     OW13924   2.254   0.695   9.786
 4491SOL    HW113925   2.275   0.603   9.797
 4491SOL    HW213926   2.160   0.701   9.805
 4492SOL     OW13927   3.394   0.232  11.037
 4492SOL    HW113928   3.392   0.257  11.129
 4492SOL    HW213929   3.362   0.142  11.035
 4493SOL     OW13930   2.503   0.136   9.415
 4493SOL    HW113931   2.537   0.056   9.456
 4493SOL    HW213932   2.440   0.105   9.350
 4494SOL     OW13933   2.640   0.281  11.074
 4494SOL    HW113934   2.703   0.210  11.080
 4494SOL    HW213935   2.578   0.265  11.145
 4495SOL     OW13936   2.738   1.522  10.503
 4495SOL    HW113937   2.723   1.485  10.416
 4495SOL    HW213938   2.808   1.467  10.540
 4496SOL     OW13939   3.204   0.587  10.740
 4496SOL    HW113940   3.234   0.558  10.827
 4496SOL    HW213941   3.237   0.676  10.732
 4497SOL     OW13942   2.676   1.396  10.248
 4497SOL    HW113943   2.760   1.385  10.204
 4497SOL    HW213944   2.612   1.396  10.177
 4498SOL     OW13945   2.791   0.510  10.213
 4498SOL    HW113946   2.767   0.503  10.120
 4498SOL    HW213947   2.820   0.422  10.237
 4499SOL     OW13948   2.408   0.058   9.804
 4499SOL    HW113949   2.333   0.062   9.863
 4499SOL    HW213950   2.403   0.138   9.752
 4500SOL     OW13951   3.290   1.198   9.351
 4500SOL    HW113952   3.320   1.123   9.401
 4500SOL    HW213953   3.204   1.219   9.389
 4501SOL     OW13954   2.187   0.042   9.518
 4501SOL    HW113955   2.203   0.112   9.454
 4501SOL    HW213956   2.271   0.030   9.561
 4502SOL     OW13957   2.800   0.247   9.773
 4502SOL    HW113958   2.774   0.289   9.691
 4502SOL    HW213959   2.896   0.248   9.772
 4503SOL     OW13960   2.942   0.681  10.770
 4503SOL    HW113961   2.870   0.618  10.777
 4503SOL    HW213962   3.021   0.627  10.764
 4504SOL     OW13963   3.085   1.570  10.104
 4504SOL    HW113964   3.103   1.637  10.038
 4504SOL    HW213965   3.154   1.582  10.169
 4505SOL     OW13966   2.331   1.149  10.045
 4505SOL    HW113967   2.260   1.130  10.108
 4505SOL    HW213968   2.291   1.132   9.959
 4506SOL     OW13969   3.132   1.794   9.917
 4506SOL    HW113970   3.178   1.855   9.859
 4506SOL    HW213971   3.067   1.849   9.962
 4507SOL     OW13972   2.886   0.547   9.333
 4507SOL    HW113973   2.843   0.630   9.314
 4507SOL    HW213974   2.949   0.568   9.402
 4508SOL     OW13975   1.940   0.552  10.705
 4508SOL    HW113976   2.031   0.552  10.675
 4508SOL    HW213977   1.935   0.625  10.766
 4509SOL     OW13978   2.427   0.232  10.471
 4509SOL    HW113979   2.453   0.141  10.483
 4509SOL    HW213980   2.337   0.236  10.502
 4510SOL     OW13981   2.732   0.461   9.949
 4510SOL    HW113982   2.684   0.514   9.886
 4510SOL    HW213983   2.752   0.380   9.902
 4511SOL     OW13984   2.856   0.042  10.089
 4511SOL    HW113985   2.823   0.066  10.002
 4511SOL    HW213986   2.866   3.947  10.085
 4512SOL     OW13987   3.299   1.163  10.168
 4512SOL    HW113988   3.230   1.097  10.165
 4512SOL    HW213989   3.324   1.175  10.076
 4513SOL     OW13990   3.328   0.604  10.289
 4513SOL    HW113991   3.278   0.523  10.294
 4513SOL    HW213992   3.389   0.600  10.362
 4514SOL     OW13993   3.722   0.823   9.685
 4514SOL    HW113994   3.764   0.766   9.749
 4514SOL    HW213995   3.682   0.763   9.622
 4515SOL     OW13996   2.355   1.416   9.468
 4515SOL    HW113997   2.280   1.389   9.521
 4515SOL    HW213998   2.335   1.383   9.380
 4516SOL     OW13999   3.528   1.265   9.958
 4516SOL    HW114000   3.623   1.270   9.966
 4516SOL    HW214001   3.497   1.353   9.978
 4517SOL     OW14002   3.256   0.573   9.380
 4517SOL    HW114003   3.194   0.555   9.450
 4517SOL    HW214004   3.342   0.554   9.418
 4518SOL     OW14005   2.389   0.266   9.628
 4518SOL    HW114006   2.439   0.225   9.558
 4518SOL    HW214007   2.364   0.351   9.593
 4519SOL     OW14008   3.614   1.234  10.883
 4519SOL    HW114009   3.702   1.199  10.865
 4519SOL    HW214010   3.631   1.323  10.914
 4520SOL     OW14011   2.921   1.354  10.644
 4520SOL    HW114012   2.846   1.322  10.695
 4520SOL    HW214013   2.997   1.312  10.685
 4521SOL     OW14014   3.467   1.627  10.963
 4521SOL    HW114015   3.462   1.661  10.874
 4521SOL    HW214016   3.549   1.578  10.965
 4522SOL     OW14017   2.990   1.203  10.416
 4522SOL    HW114018   2.931   1.241  10.481
 4522SOL    HW214019   2.956   1.234  10.332
 4523SOL     OW14020   3.493   1.098  10.387
 4523SOL    HW114021   3.487   1.160  10.460
 4523SOL    HW214022   3.414   1.114  10.335
 4524SOL     OW14023   2.775   0.111  10.712
 4524SOL    HW114024   2.795   0.087  10.622
 4524SOL    HW214025   2.855   0.154  10.743
 4525SOL     OW14026   2.846   1.115  11.033
 4525SOL    HW114027   2.754   1.131  11.053
 4525SOL    HW214028   2.845   1.037  10.977
 4526SOL     OW14029   2.570   1.061   9.681
 4526SOL    HW114030   2.556   1.045   9.775
 4526SOL    HW214031   2.646   1.007   9.659
 4527SOL     OW14032   2.280   0.814  10.561
 4527SOL    HW114033   2.349   0.823  10.627
 4527SOL    HW214034   2.245   0.726  10.575
 4528SOL     OW14035   3.129   0.375  10.585
 4528SOL    HW114036   3.163   0.453  10.629
 4528SOL    HW214037   3.043   0.402  10.554
 4529SOL     OW14038   1.933   1.577  10.663
 4529SOL    HW114039   1.897   1.641  10.601
 4529SOL    HW214040   2.028   1.581  10.649
 4530SOL     OW14041   2.213   1.107   9.801
 4530SOL    HW114042   2.218   1.182   9.742
 4530SOL    HW214043   2.211   1.031   9.744
 4531SOL     OW14044   2.419   0.536  10.168
 4531SOL    HW114045   2.434   0.595  10.095
 4531SOL    HW214046   2.481   0.564  10.235
 4532SOL     OW14047   3.110   1.348   9.699
 4532SOL    HW114048   3.166   1.420   9.730
 4532SOL    HW214049   3.023   1.369   9.733
 4533SOL     OW14050   3.141   1.457  10.456
 4533SOL    HW114051   3.197   1.459  10.534
 4533SOL    HW214052   3.086   1.380  10.469
 4534SOL     OW14053   3.438   0.631   9.792
 4534SOL    HW114054   3.399   0.691   9.856
 4534SOL    HW214055   3.486   0.688   9.732
 4535SOL     OW14056   2.215   1.514  10.628
 4535SOL    HW114057   2.200   1.474  10.543
 4535SOL    HW214058   2.310   1.526  10.633
 4536SOL     OW14059   2.276   0.745  10.911
 4536SOL    HW114060   2.337   0.790  10.853
 4536SOL    HW214061   2.317   0.660  10.927
 4537SOL     OW14062   3.462   0.776  10.989
 4537SOL    HW114063   3.376   0.818  10.983
 4537SOL    HW214064   3.515   0.819  10.922
 4538SOL     OW14065   2.885   0.121  11.088
 4538SOL    HW114066   2.918   0.200  11.046
 4538SOL    HW214067   2.868   0.060  11.016
 4539SOL     OW14068   2.347   0.034  11.074
 4539SOL    HW114069   2.354   0.039  10.978
 4539SOL    HW214070   2.289   0.107  11.098
 4540SOL     OW14071   2.445   0.872  10.342
 4540SOL    HW114072   2.473   0.964  10.339
 4540SOL    HW214073   2.388   0.867  10.418
 4541SOL     OW14074   3.221   0.859  10.341
 4541SOL    HW114075   3.138   0.851  10.293
 4541SOL    HW214076   3.260   0.772  10.336
 4542SOL     OW14077   3.067   0.534   9.573
 4542SOL    HW114078   3.075   0.455   9.627
 4542SOL    HW214079   3.024   0.598   9.631
 4543SOL     OW14080   2.164   0.212  10.552
 4543SOL    HW114081   2.126   0.241  10.634
 4543SOL    HW214082   2.151   0.117  10.551
 4544SOL     OW14083   1.906   1.313  10.589
 4544SOL    HW114084   1.941   1.258  10.659
 4544SOL    HW214085   1.916   1.402  10.621
 4545SOL     OW14086   2.587   0.633  10.367
 4545SOL    HW114087   2.661   0.617  10.307
 4545SOL    HW214088   2.558   0.722  10.346
 4546SOL     OW14089   3.595   0.956  11.168
 4546SOL    HW114090   3.549   0.903  11.103
 4546SOL    HW214091   3.532   0.969  11.238
 4547SOL     OW14092   2.183   0.057   9.955
 4547SOL    HW114093   2.162   0.150   9.967
 4547SOL    HW214094   2.143   0.014  10.031
 4548SOL     OW14095   3.468   0.387   9.691
 4548SOL    HW114096   3.442   0.318   9.752
 4548SOL    HW214097   3.446   0.469   9.735
 4549SOL     OW14098   2.890   0.759  10.271
 4549SOL    HW114099   2.887   0.777  10.365
 4549SOL    HW214100   2.863   0.668  10.262
 4550SOL     OW14101   2.844   1.567  11.026
 4550SOL    HW114102   2.829   1.610  10.942
 4550SOL    HW214103   2.887   1.484  11.002
 4551SOL     OW14104   3.708   1.505  10.911
 4551SOL    HW114105   3.729   1.532  10.821
 4551SOL    HW214106   3.789   1.519  10.960
 4552SOL     OW14107   2.215   0.915  11.119
 4552SOL    HW114108   2.297   0.935  11.163
 4552SOL    HW214109   2.239   0.853  11.049
 4553SOL     OW14110   3.370   0.275   9.446
 4553SOL    HW114111   3.294   0.218   9.458
 4553SOL    HW214112   3.384   0.316   9.531
 4554SOL     OW14113   3.154   0.827   9.341
 4554SOL    HW114114   3.196   0.741   9.344
 4554SOL    HW214115   3.186   0.867   9.260
 4555SOL     OW14116   2.927   1.335  10.163
 4555SOL    HW114117   2.930   1.263  10.101
 4555SOL    HW214118   2.989   1.399  10.129
 4556SOL     OW14119   2.171   0.810  10.258
 4556SOL    HW114120   2.264   0.831  10.251
 4556SOL    HW214121   2.169   0.719  10.290
 4557SOL     OW14122   2.199   0.532  10.322
 4557SOL    HW114123   2.158   0.447  10.306
 4557SOL    HW214124   2.275   0.534  10.264
 4558SOL     OW14125   2.995   0.383  11.001
 4558SOL    HW114126   2.948   0.438  11.064
 4558SOL    HW214127   3.083   0.422  10.997
 4559SOL     OW14128   3.013   0.224  10.791
 4559SOL    HW114129   3.005   0.279  10.869
 4559SOL    HW214130   3.035   0.286  10.721
 4560SOL     OW14131   1.866   1.321   9.504
 4560SOL    HW114132   1.779   1.333   9.467
 4560SOL    HW214133   1.865   1.231   9.538
 4561SOL     OW14134   1.976   1.732  10.294
 4561SOL    HW114135   1.938   1.670  10.231
 4561SOL    HW214136   2.020   1.796  10.240
 4562SOL     OW14137   2.362   1.570  10.220
 4562SOL    HW114138   2.430   1.634  10.242
 4562SOL    HW214139   2.406   1.508  10.161
 4563SOL     OW14140   2.847   0.791  10.536
 4563SOL    HW114141   2.900   0.769  10.612
 4563SOL    HW214142   2.760   0.757  10.557
 4564SOL     OW14143   1.896   0.545  10.427
 4564SOL    HW114144   1.972   0.520  10.375
 4564SOL    HW214145   1.928   0.548  10.517
 4565SOL     OW14146   2.064   0.526  11.025
 4565SOL    HW114147   2.130   0.502  10.960
 4565SOL    HW214148   2.016   0.599  10.985
 4566SOL     OW14149   3.240   0.939  10.969
 4566SOL    HW114150   3.260   1.033  10.968
 4566SOL    HW214151   3.236   0.915  10.877
 4567SOL     OW14152   2.678   0.571   9.669
 4567SOL    HW114153   2.683   0.495   9.611
 4567SOL    HW214154   2.603   0.622   9.636
 4568SOL     OW14155   3.504   0.602  10.497
 4568SOL    HW114156   3.492   0.541  10.570
 4568SOL    HW214157   3.589   0.580  10.460
 4569SOL     OW14158   2.115   1.538  11.020
 4569SOL    HW114159   2.100   1.608  11.083
 4569SOL    HW214160   2.115   1.458  11.073
 4570SOL     OW14161   2.561   0.457  10.571
 4570SOL    HW114162   2.513   0.378  10.543
 4570SOL    HW214163   2.556   0.515  10.495
 4571SOL     OW14164   2.791   1.679  10.777
 4571SOL    HW114165   2.765   1.646  10.691
 4571SOL    HW214166   2.787   1.774  10.768
 4572SOL     OW14167   2.328   0.494   9.497
 4572SOL    HW114168   2.385   0.567   9.518
 4572SOL    HW214169   2.241   0.534   9.485
 4573SOL     OW14170   2.008   1.140  10.782
 4573SOL    HW114171   2.012   1.088  10.862
 4573SOL    HW214172   2.025   1.077  10.711
 4574SOL     OW14173   3.188   1.047  10.534
 4574SOL    HW114174   3.213   0.985  10.466
 4574SOL    HW214175   3.117   1.099  10.495
 4575SOL     OW14176   3.173   0.855   9.616
 4575SOL    HW114177   3.096   0.827   9.666
 4575SOL    HW214178   3.147   0.843   9.525
 4576SOL     OW14179   3.637   1.745  10.463
 4576SOL    HW114180   3.692   1.772  10.389
 4576SOL    HW214181   3.610   1.656  10.441
 4577SOL     OW14182   3.103   1.733  10.425
 4577SOL    HW114183   3.185   1.753  10.379
 4577SOL    HW214184   3.108   1.640  10.442
 4578SOL     OW14185   1.947   1.264  10.325
 4578SOL    HW114186   1.931   1.278  10.418
 4578SOL    HW214187   1.872   1.212  10.295
 4579SOL     OW14188   2.538   1.664  11.036
 4579SOL    HW114189   2.488   1.746  11.036
 4579SOL    HW214190   2.603   1.676  10.966
 4580SOL     OW14191   3.555   0.124   9.796
 4580SOL    HW114192   3.637   0.135   9.749
 4580SOL    HW214193   3.554   0.031   9.821
 4581SOL     OW14194   3.252   1.567   9.794
 4581SOL    HW114195   3.313   1.599   9.727
 4581SOL    HW214196   3.204   1.645   9.822
 4582SOL     OW14197   2.042   1.741  11.173
 4582SOL    HW114198   1.972   1.699  11.222
 4582SOL    HW214199   2.010   1.831  11.159
 4583SOL     OW14200   3.139   0.925   9.981
 4583SOL    HW114201   3.213   0.865   9.987
 4583SOL    HW214202   3.173   0.998   9.929
 4584SOL     OW14203   2.678   1.272  10.740
 4584SOL    HW114204   2.650   1.312  10.823
 4584SOL    HW214205   2.607   1.294  10.679
 4585SOL     OW14206   2.538   1.617   9.462
 4585SOL    HW114207   2.543   1.627   9.367
 4585SOL    HW214208   2.481   1.541   9.474
 4586SOL     OW14209   3.488   1.726  10.701
 4586SOL    HW114210   3.540   1.732  10.621
 4586SOL    HW214211   3.476   1.817  10.729
 4587SOL     OW14212   3.702   0.179  10.280
 4587SOL    HW114213   3.727   0.096  10.240
 4587SOL    HW214214   3.615   0.198  10.244
 4588SOL     OW14215   2.127   0.318  10.026
 4588SOL    HW114216   2.041   0.354  10.004
 4588SOL    HW214217   2.125   0.306  10.121
 4589SOL     OW14218   3.069   1.607   9.341
 4589SOL    HW114219   3.060   1.515   9.368
 4589SOL    HW214220   3.003   1.618   9.272
 4590SOL     OW14221   2.687   1.006  10.682
 4590SOL    HW114222   2.728   1.003  10.595
 4590SOL    HW214223   2.686   1.098  10.705
 4591SOL     OW14224   2.778   0.910   9.600
 4591SOL    HW114225   2.839   0.942   9.534
 4591SOL    HW214226   2.825   0.840   9.644
 4592SOL     OW14227   3.354   1.625   9.352
 4592SOL    HW114228   3.260   1.620   9.339
 4592SOL    HW214229   3.391   1.632   9.264
 4593SOL     OW14230   2.232   1.298  10.803
 4593SOL    HW114231   2.220   1.376  10.749
 4593SOL    HW214232   2.154   1.245  10.786
 4594SOL     OW14233   3.466   1.280  10.589
 4594SOL    HW114234   3.534   1.275  10.657
 4594SOL    HW214235   3.409   1.351  10.617
 4595SOL     OW14236   2.913   1.107  10.016
 4595SOL    HW114237   2.842   1.055  10.055
 4595SOL    HW214238   2.974   1.041   9.983
 4596SOL     OW14239   2.877   0.247  10.277
 4596SOL    HW114240   2.866   0.197  10.196
 4596SOL    HW214241   2.870   0.181  10.347
 4597SOL     OW14242   2.463   1.489   9.791
 4597SOL    HW114243   2.504   1.440   9.721
 4597SOL    HW214244   2.401   1.547   9.747
 4598SOL     OW14245   3.581   0.391  10.684
 4598SOL    HW114246   3.652   0.456  10.683
 4598SOL    HW214247   3.613   0.320  10.629
 4599SOL     OW14248   2.120   1.346   9.596
 4599SOL    HW114249   2.027   1.343   9.575
 4599SOL    HW214250   2.125   1.381   9.685
 4600SOL     OW14251   1.974   1.021  11.029
 4600SOL    HW114252   1.898   0.998  11.083
 4600SOL    HW214253   2.049   0.984  11.077
 4601SOL     OW14254   2.553   0.242  10.807
 4601SOL    HW114255   2.623   0.191  10.767
 4601SOL    HW214256   2.579   0.250  10.899
 4602SOL     OW14257   1.959   0.319   9.299
 4602SOL    HW114258   1.881   0.336   9.352
 4602SOL    HW214259   1.976   0.402   9.254
 4603SOL     OW14260   3.291   0.857  10.710
 4603SOL    HW114261   3.242   0.919  10.655
 4603SOL    HW214262   3.380   0.860  10.675
 4604SOL     OW14263   1.945   0.154   9.651
 4604SOL    HW114264   1.914   0.217   9.585
 4604SOL    HW214265   2.029   0.124   9.617
 4605SOL     OW14266   3.041   1.340   9.427
 4605SOL    HW114267   2.950   1.310   9.430
 4605SOL    HW214268   3.069   1.340   9.518
 4606SOL     OW14269   2.481   0.830  10.743
 4606SOL    HW114270   2.537   0.906  10.728
 4606SOL    HW214271   2.543   0.757  10.752
 4607SOL     OW14272   3.346   1.777  10.287
 4607SOL    HW114273   3.370   1.835  10.215
 4607SOL    HW214274   3.428   1.756  10.331
 4608SOL     OW14275   2.579   0.563  11.016
 4608SOL    HW114276   2.618   0.627  11.076
 4608SOL    HW214277   2.611   0.478  11.047
 4609SOL     OW14278   3.332   1.201  10.942
 4609SOL    HW114279   3.321   1.215  11.036
 4609SOL    HW214280   3.426   1.215  10.927
 4610SOL     OW14281   2.241   1.745  10.882
 4610SOL    HW114282   2.161   1.763  10.832
 4610SOL    HW214283   2.226   1.660  10.922
 4611SOL     OW14284   3.529   0.881  10.569
 4611SOL    HW114285   3.527   0.796  10.525
 4611SOL    HW214286   3.524   0.945  10.497
 4612SOL     OW14287   3.085   0.333   9.757
 4612SOL    HW114288   3.152   0.266   9.747
 4612SOL    HW214289   3.108   0.379   9.838
 4613SOL     OW14290   2.453   0.739   9.978
 4613SOL    HW114291   2.492   0.825   9.963
 4613SOL    HW214292   2.384   0.731   9.913
 4614SOL     OW14293   3.619   0.379  10.952
 4614SOL    HW114294   3.599   0.386  10.859
 4614SOL    HW214295   3.559   0.312  10.985
 4615SOL     OW14296   3.613   0.932  10.824
 4615SOL    HW114297   3.608   1.026  10.839
 4615SOL    HW214298   3.592   0.921  10.732
 4616SOL     OW14299   2.723   1.368   9.342
 4616SOL    HW114300   2.685   1.394   9.426
 4616SOL    HW214301   2.743   1.450   9.298
 4617SOL     OW14302   2.522   1.795  10.257
 4617SOL    HW114303   2.505   1.885  10.229
 4617SOL    HW214304   2.617   1.785  10.247
 4618SOL     OW14305   2.729   0.966  10.166
 4618SOL    HW114306   2.779   0.895  10.206
 4618SOL    HW214307   2.695   1.016  10.240
 4619SOL     OW14308   2.941   0.988   9.399
 4619SOL    HW114309   2.919   1.039   9.321
 4619SOL    HW214310   3.016   0.935   9.372
 4620SOL     OW14311   3.718   1.557  10.152
 4620SOL    HW114312   3.639   1.541  10.100
 4620SOL    HW214313   3.715   1.490  10.221
 4621SOL     OW14314   2.087   1.302  11.167
 4621SOL    HW114315   2.019   1.241  11.140
 4621SOL    HW214316   2.074   1.314  11.261
 4622SOL     OW14317   1.942   1.229   9.974
 4622SOL    HW114318   1.951   1.183  10.057
 4622SOL    HW214319   2.015   1.197   9.920
 4623SOL     OW14320   2.542   1.402  10.936
 4623SOL    HW114321   2.463   1.358  10.968
 4623SOL    HW214322   2.537   1.490  10.974
 4624SOL     OW14323   3.677   0.182  10.553
 4624SOL    HW114324   3.679   0.087  10.562
 4624SOL    HW214325   3.693   0.199  10.460
 4625SOL     OW14326   2.291   0.434   9.834
 4625SOL    HW114327   2.322   0.362   9.780
 4625SOL    HW214328   2.244   0.391   9.907
 4626SOL     OW14329   3.561   1.492  10.410
 4626SOL    HW114330   3.481   1.467  10.363
 4626SOL    HW214331   3.575   1.421  10.473
 4627SOL     OW14332   2.190   0.554  10.602
 4627SOL    HW114333   2.244   0.497  10.657
 4627SOL    HW214334   2.210   0.528  10.512
 4628SOL     OW14335   2.687   1.578   9.988
 4628SOL    HW114336   2.677   1.627   9.906
 4628SOL    HW214337   2.611   1.521   9.992
 4629SOL     OW14338   3.323   0.251  10.422
 4629SOL    HW114339   3.337   0.163  10.457
 4629SOL    HW214340   3.265   0.293  10.485
 4630SOL     OW14341   2.868   0.029  10.458
 4630SOL    HW114342   2.792   3.980  10.427
 4630SOL    HW214343   2.938   3.965  10.465
 4631SOL     OW14344   2.635   1.332   9.622
 4631SOL    HW114345   2.601   1.243   9.629
 4631SOL    HW214346   2.716   1.331   9.673
 4632SOL     OW14347   2.483   1.557  10.596
 4632SOL    HW114348   2.485   1.639  10.645
 4632SOL    HW214349   2.570   1.549  10.557
 4633SOL     OW14350   3.178   0.072   9.471
 4633SOL    HW114351   3.192   0.001   9.408
 4633SOL    HW214352   3.093   0.052   9.510
 4634SOL     OW14353   3.147   0.458   9.997
 4634SOL    HW114354   3.099   0.540   9.994
 4634SOL    HW214355   3.151   0.436  10.090
 4635SOL     OW14356   3.451   0.211  10.177
 4635SOL    HW114357   3.401   0.232  10.256
 4635SOL    HW214358   3.451   0.291  10.125
 4636SOL     OW14359   1.906   1.072   9.614
 4636SOL    HW114360   2.000   1.064   9.599
 4636SOL    HW214361   1.878   0.984   9.639
 4637SOL     OW14362   2.744   1.652   9.654
 4637SOL    HW114363   2.673   1.633   9.593
 4637SOL    HW214364   2.714   1.727   9.704
 4638SOL     OW14365   2.092   0.621  11.293
 4638SOL    HW114366   2.002   0.626  11.324
 4638SOL    HW214367   2.085   0.600  11.200
 4639SOL     OW14368   2.079   0.297  12.163
 4639SOL    HW114369   2.116   0.256  12.241
 4639SOL    HW214370   1.996   0.252  12.149
 4640SOL     OW14371   1.871   0.394  11.809
 4640SOL    HW114372   1.784   0.409  11.844
 4640SOL    HW214373   1.860   0.322  11.746
 4641SOL     OW14374   2.429   1.285  12.345
 4641SOL    HW114375   2.342   1.288  12.306
 4641SOL    HW214376   2.444   1.373  12.378
 4642SOL     OW14377   3.421   1.512  11.878
 4642SOL    HW114378   3.378   1.492  11.961
 4642SOL    HW214379   3.350   1.517  11.815
 4643SOL     OW14380   2.993   0.698  11.874
 4643SOL    HW114381   3.042   0.780  11.860
 4643SOL    HW214382   2.946   0.713  11.956
 4644SOL     OW14383   3.620   0.621  11.401
 4644SOL    HW114384   3.604   0.610  11.307
 4644SOL    HW214385   3.607   0.534  11.438
 4645SOL     OW14386   2.620   1.143  12.212
 4645SOL    HW114387   2.550   1.177  12.268
 4645SOL    HW214388   2.654   1.221  12.167
 4646SOL     OW14389   2.728   0.777  12.994
 4646SOL    HW114390   2.714   0.849  13.056
 4646SOL    HW214391   2.751   0.820  12.912
 4647SOL     OW14392   2.548   1.004  11.819
 4647SOL    HW114393   2.613   0.992  11.889
 4647SOL    HW214394   2.478   1.055  11.860
 4648SOL     OW14395   2.572   1.151  12.983
 4648SOL    HW114396   2.619   1.230  13.009
 4648SOL    HW214397   2.488   1.184  12.949
 4649SOL     OW14398   2.194   1.424  12.240
 4649SOL    HW114399   2.119   1.391  12.191
 4649SOL    HW214400   2.243   1.477  12.178
 4650SOL     OW14401   3.323   1.499  12.525
 4650SOL    HW114402   3.372   1.581  12.535
 4650SOL    HW214403   3.264   1.497  12.600
 4651SOL     OW14404   2.304   0.397  12.668
 4651SOL    HW114405   2.392   0.358  12.665
 4651SOL    HW214406   2.245   0.322  12.674
 4652SOL     OW14407   3.473   0.450  11.908
 4652SOL    HW114408   3.402   0.483  11.854
 4652SOL    HW214409   3.500   0.526  11.961
 4653SOL     OW14410   2.094   1.694  11.633
 4653SOL    HW114411   2.112   1.761  11.699
 4653SOL    HW214412   2.169   1.697  11.574
 4654SOL     OW14413   2.998   1.341  12.864
 4654SOL    HW114414   3.038   1.337  12.951
 4654SOL    HW214415   2.946   1.261  12.858
 4655SOL     OW14416   2.091   1.432  11.708
 4655SOL    HW114417   2.080   1.527  11.702
 4655SOL    HW214418   2.027   1.404  11.774
 4656SOL     OW14419   2.118   1.090  12.062
 4656SOL    HW114420   2.115   1.004  12.104
 4656SOL    HW214421   2.061   1.145  12.116
 4657SOL     OW14422   2.475   1.791  12.604
 4657SOL    HW114423   2.393   1.774  12.650
 4657SOL    HW214424   2.499   1.880  12.628
 4658SOL     OW14425   2.449   0.981  11.305
 4658SOL    HW114426   2.494   1.031  11.237
 4658SOL    HW214427   2.489   1.011  11.387
 4659SOL     OW14428   3.442   0.136  12.630
 4659SOL    HW114429   3.463   0.210  12.573
 4659SOL    HW214430   3.415   0.176  12.713
 4660SOL     OW14431   1.976   0.653  11.731
 4660SOL    HW114432   1.950   0.564  11.755
 4660SOL    HW214433   1.969   0.703  11.813
 4661SOL     OW14434   3.700   1.758  11.509
 4661SOL    HW114435   3.766   1.733  11.573
 4661SOL    HW214436   3.722   1.849  11.486
 4662SOL     OW14437   1.862   1.604  11.320
 4662SOL    HW114438   1.858   1.509  11.309
 4662SOL    HW214439   1.878   1.616  11.414
 4663SOL     OW14440   3.549   0.917  11.812
 4663SOL    HW114441   3.634   0.877  11.797
 4663SOL    HW214442   3.532   0.968  11.733
 4664SOL     OW14443   3.504   1.107  11.603
 4664SOL    HW114444   3.588   1.114  11.559
 4664SOL    HW214445   3.510   1.168  11.676
 4665SOL     OW14446   1.984   0.747  12.755
 4665SOL    HW114447   2.076   0.773  12.764
 4665SOL    HW214448   1.935   0.829  12.763
 4666SOL     OW14449   2.476   1.385  11.907
 4666SOL    HW114450   2.429   1.301  11.916
 4666SOL    HW214451   2.458   1.412  11.816
 4667SOL     OW14452   3.151   1.238  12.596
 4667SOL    HW114453   3.184   1.172  12.536
 4667SOL    HW214454   3.208   1.232  12.672
 4668SOL     OW14455   2.679   0.002  11.687
 4668SOL    HW114456   2.724   0.083  11.664
 4668SOL    HW214457   2.586   0.026  11.689
 4669SOL     OW14458   2.053   0.966  12.443
 4669SOL    HW114459   2.137   0.925  12.427
 4669SOL    HW214460   1.990   0.912  12.396
 4670SOL     OW14461   3.392   0.992  11.370
 4670SOL    HW114462   3.322   0.935  11.403
 4670SOL    HW214463   3.433   1.028  11.449
 4671SOL     OW14464   3.047   1.805  12.793
 4671SOL    HW114465   3.060   1.863  12.718
 4671SOL    HW214466   3.063   1.717  12.759
 4672SOL     OW14467   2.213   0.255  12.992
 4672SOL    HW114468   2.257   0.340  12.993
 4672SOL    HW214469   2.120   0.276  13.005
 4673SOL     OW14470   3.328   1.420  12.124
 4673SOL    HW114471   3.260   1.434  12.190
 4673SOL    HW214472   3.316   1.329  12.097
 4674SOL     OW14473   3.519   1.738  11.751
 4674SOL    HW114474   3.501   1.708  11.662
 4674SOL    HW214475   3.496   1.664  11.806
 4675SOL     OW14476   2.457   0.722  11.437
 4675SOL    HW114477   2.464   0.803  11.387
 4675SOL    HW214478   2.393   0.741  11.505
 4676SOL     OW14479   3.138   0.363  12.112
 4676SOL    HW114480   3.051   0.324  12.117
 4676SOL    HW214481   3.195   0.302  12.158
 4677SOL     OW14482   3.441   1.669  11.481
 4677SOL    HW114483   3.531   1.702  11.476
 4677SOL    HW214484   3.416   1.652  11.390
 4678SOL     OW14485   2.658   0.616  12.626
 4678SOL    HW114486   2.629   0.592  12.714
 4678SOL    HW214487   2.616   0.552  12.568
 4679SOL     OW14488   3.255   0.476  12.849
 4679SOL    HW114489   3.258   0.521  12.934
 4679SOL    HW214490   3.315   0.403  12.858
 4680SOL     OW14491   2.818   0.888  12.754
 4680SOL    HW114492   2.872   0.818  12.719
 4680SOL    HW214493   2.770   0.922  12.678
 4681SOL     OW14494   2.853   0.403  12.413
 4681SOL    HW114495   2.771   0.429  12.455
 4681SOL    HW214496   2.827   0.372  12.327
 4682SOL     OW14497   2.912   0.698  11.598
 4682SOL    HW114498   2.927   0.692  11.693
 4682SOL    HW214499   2.830   0.652  11.583
 4683SOL     OW14500   1.950   0.821  11.948
 4683SOL    HW114501   2.031   0.813  11.999
 4683SOL    HW214502   1.908   0.900  11.983
 4684SOL     OW14503   2.754   0.350  11.371
 4684SOL    HW114504   2.795   0.409  11.307
 4684SOL    HW214505   2.753   0.264  11.328
 4685SOL     OW14506   3.574   0.576  13.001
 4685SOL    HW114507   3.536   0.651  12.956
 4685SOL    HW214508   3.596   0.515  12.931
 4686SOL     OW14509   3.237   1.142  11.713
 4686SOL    HW114510   3.317   1.129  11.662
 4686SOL    HW214511   3.185   1.204  11.663
 4687SOL     OW14512   2.417   0.197  12.054
 4687SOL    HW114513   2.421   0.215  12.148
 4687SOL    HW214514   2.415   0.284  12.014
 4688SOL     OW14515   2.869   1.445  11.645
 4688SOL    HW114516   2.830   1.517  11.595
 4688SOL    HW214517   2.852   1.467  11.736
 4689SOL     OW14518   2.225   1.799  12.008
 4689SOL    HW114519   2.261   1.714  12.032
 4689SOL    HW214520   2.291   1.862  12.037
 4690SOL     OW14521   3.665   1.062  12.038
 4690SOL    HW114522   3.609   1.041  11.963
 4690SOL    HW214523   3.605   1.066  12.112
 4691SOL     OW14524   3.090   1.539  12.685
 4691SOL    HW114525   3.076   1.466  12.746
 4691SOL    HW214526   3.028   1.523  12.614
 4692SOL     OW14527   2.183   0.957  11.421
 4692SOL    HW114528   2.265   0.976  11.376
 4692SOL    HW214529   2.153   0.875  11.383
 4693SOL     OW14530   3.339   0.741  11.902
 4693SOL    HW114531   3.331   0.698  11.987
 4693SOL    HW214532   3.416   0.797  11.910
 4694SOL     OW14533   2.328   1.263  12.910
 4694SOL    HW114534   2.300   1.268  12.819
 4694SOL    HW214535   2.246   1.261  12.960
 4695SOL     OW14536   2.983   1.777  11.404
 4695SOL    HW114537   2.910   1.735  11.449
 4695SOL    HW214538   3.006   1.717  11.333
 4696SOL     OW14539   2.038   0.277  12.669
 4696SOL    HW114540   1.975   0.350  12.665
 4696SOL    HW214541   2.045   0.257  12.763
 4697SOL     OW14542   3.489   1.381  11.259
 4697SOL    HW114543   3.447   1.466  11.244
 4697SOL    HW214544   3.421   1.317  11.240
 4698SOL     OW14545   2.337   1.719  11.510
 4698SOL    HW114546   2.372   1.793  11.560
 4698SOL    HW214547   2.394   1.713  11.434
 4699SOL     OW14548   3.296   0.162  11.575
 4699SOL    HW114549   3.256   0.092  11.523
 4699SOL    HW214550   3.374   0.122  11.613
 4700SOL     OW14551   2.156   1.764  12.408
 4700SOL    HW114552   2.196   1.683  12.438
 4700SOL    HW214553   2.121   1.743  12.322
 4701SOL     OW14554   2.799   1.698  12.071
 4701SOL    HW114555   2.877   1.646  12.092
 4701SOL    HW214556   2.755   1.649  12.002
 4702SOL     OW14557   2.254   0.695  11.649
 4702SOL    HW114558   2.275   0.603  11.659
 4702SOL    HW214559   2.160   0.701  11.667
 4703SOL     OW14560   3.394   0.232  12.898
 4703SOL    HW114561   3.392   0.256  12.991
 4703SOL    HW214562   3.363   0.142  12.897
 4704SOL     OW14563   2.503   0.136  11.277
 4704SOL    HW114564   2.537   0.056  11.318
 4704SOL    HW214565   2.440   0.105  11.212
 4705SOL     OW14566   2.640   0.281  12.936
 4705SOL    HW114567   2.703   0.210  12.942
 4705SOL    HW214568   2.578   0.265  13.007
 4706SOL     OW14569   2.738   1.522  12.365
 4706SOL    HW114570   2.723   1.485  12.278
 4706SOL    HW214571   2.808   1.467  12.402
 4707SOL     OW14572   3.204   0.587  12.602
 4707SOL    HW114573   3.234   0.558  12.689
 4707SOL    HW214574   3.237   0.676  12.594
 4708SOL     OW14575   2.676   1.396  12.110
 4708SOL    HW114576   2.760   1.385  12.066
 4708SOL    HW214577   2.611   1.396  12.039
 4709SOL     OW14578   2.791   0.510  12.075
 4709SOL    HW114579   2.767   0.503  11.982
 4709SOL    HW214580   2.820   0.422  12.099
 4710SOL     OW14581   2.408   0.058  11.666
 4710SOL    HW114582   2.333   0.062  11.725
 4710SOL    HW214583   2.403   0.138  11.614
 4711SOL     OW14584   3.290   1.198  11.213
 4711SOL    HW114585   3.320   1.123  11.263
 4711SOL    HW214586   3.204   1.219  11.251
 4712SOL     OW14587   2.187   0.042  11.380
 4712SOL    HW114588   2.203   0.112  11.316
 4712SOL    HW214589   2.271   0.030  11.423
 4713SOL     OW14590   2.800   0.247  11.635
 4713SOL    HW114591   2.774   0.289  11.553
 4713SOL    HW214592   2.896   0.248  11.634
 4714SOL     OW14593   2.942   0.681  12.632
 4714SOL    HW114594   2.870   0.618  12.638
 4714SOL    HW214595   3.021   0.627  12.626
 4715SOL     OW14596   3.085   1.570  11.966
 4715SOL    HW114597   3.103   1.637  11.899
 4715SOL    HW214598   3.154   1.583  12.031
 4716SOL     OW14599   2.331   1.149  11.907
 4716SOL    HW114600   2.260   1.130  11.969
 4716SOL    HW214601   2.291   1.132  11.821
 4717SOL     OW14602   3.132   1.794  11.779
 4717SOL    HW114603   3.178   1.855  11.721
 4717SOL    HW214604   3.067   1.848  11.824
 4718SOL     OW14605   2.886   0.547  11.195
 4718SOL    HW114606   2.843   0.630  11.175
 4718SOL    HW214607   2.949   0.568  11.264
 4719SOL     OW14608   1.940   0.552  12.567
 4719SOL    HW114609   2.031   0.552  12.537
 4719SOL    HW214610   1.935   0.625  12.628
 4720SOL     OW14611   2.427   0.232  12.333
 4720SOL    HW114612   2.453   0.141  12.345
 4720SOL    HW214613   2.337   0.236  12.364
 4721SOL     OW14614   2.732   0.461  11.811
 4721SOL    HW114615   2.684   0.514  11.748
 4721SOL    HW214616   2.752   0.380  11.764
 4722SOL     OW14617   2.856   0.042  11.951
 4722SOL    HW114618   2.823   0.066  11.864
 4722SOL    HW214619   2.866   3.947  11.947
 4723SOL     OW14620   3.299   1.163  12.030
 4723SOL    HW114621   3.230   1.097  12.027
 4723SOL    HW214622   3.324   1.175  11.938
 4724SOL     OW14623   3.328   0.604  12.151
 4724SOL    HW114624   3.278   0.523  12.156
 4724SOL    HW214625   3.389   0.600  12.224
 4725SOL     OW14626   3.722   0.823  11.547
 4725SOL    HW114627   3.764   0.766  11.611
 4725SOL    HW214628   3.682   0.763  11.484
 4726SOL     OW14629   2.355   1.416  11.330
 4726SOL    HW114630   2.280   1.389  11.383
 4726SOL    HW214631   2.335   1.383  11.242
 4727SOL     OW14632   3.528   1.265  11.820
 4727SOL    HW114633   3.623   1.270  11.828
 4727SOL    HW214634   3.497   1.353  11.840
 4728SOL     OW14635   3.256   0.573  11.242
 4728SOL    HW114636   3.194   0.555  11.312
 4728SOL    HW214637   3.342   0.554  11.280
 4729SOL     OW14638   2.389   0.266  11.490
 4729SOL    HW114639   2.439   0.225  11.420
 4729SOL    HW214640   2.364   0.351  11.455
 4730SOL     OW14641   3.614   1.234  12.745
 4730SOL    HW114642   3.702   1.199  12.727
 4730SOL    HW214643   3.631   1.323  12.777
 4731SOL     OW14644   2.921   1.354  12.506
 4731SOL    HW114645   2.846   1.322  12.557
 4731SOL    HW214646   2.997   1.312  12.547
 4732SOL     OW14647   3.467   1.627  12.825
 4732SOL    HW114648   3.462   1.661  12.736
 4732SOL    HW214649   3.549   1.578  12.827
 4733SOL     OW14650   2.990   1.203  12.278
 4733SOL    HW114651   2.931   1.241  12.343
 4733SOL    HW214652   2.956   1.234  12.194
 4734SOL     OW14653   3.493   1.098  12.249
 4734SOL    HW114654   3.487   1.160  12.322
 4734SOL    HW214655   3.414   1.114  12.197
 4735SOL     OW14656   2.775   0.111  12.574
 4735SOL    HW114657   2.795   0.087  12.484
 4735SOL    HW214658   2.855   0.153  12.605
 4736SOL     OW14659   2.846   1.114  12.895
 4736SOL    HW114660   2.754   1.131  12.915
 4736SOL    HW214661   2.845   1.037  12.839
 4737SOL     OW14662   2.570   1.061  11.543
 4737SOL    HW114663   2.556   1.045  11.637
 4737SOL    HW214664   2.646   1.007  11.521
 4738SOL     OW14665   2.280   0.814  12.423
 4738SOL    HW114666   2.349   0.823  12.489
 4738SOL    HW214667   2.245   0.726  12.436
 4739SOL     OW14668   3.129   0.375  12.447
 4739SOL    HW114669   3.163   0.453  12.491
 4739SOL    HW214670   3.043   0.402  12.416
 4740SOL     OW14671   1.933   1.577  12.524
 4740SOL    HW114672   1.896   1.641  12.464
 4740SOL    HW214673   2.028   1.582  12.511
 4741SOL     OW14674   2.214   1.107  11.663
 4741SOL    HW114675   2.217   1.182  11.604
 4741SOL    HW214676   2.211   1.031  11.606
 4742SOL     OW14677   2.419   0.536  12.030
 4742SOL    HW114678   2.434   0.595  11.957
 4742SOL    HW214679   2.481   0.564  12.097
 4743SOL     OW14680   3.110   1.348  11.561
 4743SOL    HW114681   3.166   1.420  11.592
 4743SOL    HW214682   3.023   1.369  11.595
 4744SOL     OW14683   3.141   1.457  12.319
 4744SOL    HW114684   3.197   1.459  12.396
 4744SOL    HW214685   3.086   1.380  12.331
 4745SOL     OW14686   3.438   0.631  11.654
 4745SOL    HW114687   3.399   0.691  11.718
 4745SOL    HW214688   3.486   0.688  11.594
 4746SOL     OW14689   2.216   1.512  12.491
 4746SOL    HW114690   2.201   1.472  12.405
 4746SOL    HW214691   2.311   1.525  12.495
 4747SOL     OW14692   2.276   0.745  12.773
 4747SOL    HW114693   2.337   0.790  12.715
 4747SOL    HW214694   2.316   0.660  12.789
 4748SOL     OW14695   3.462   0.776  12.851
 4748SOL    HW114696   3.376   0.818  12.845
 4748SOL    HW214697   3.514   0.819  12.784
 4749SOL     OW14698   2.884   0.121  12.950
 4749SOL    HW114699   2.918   0.200  12.908
 4749SOL    HW214700   2.869   0.060  12.878
 4750SOL     OW14701   2.347   0.034  12.936
 4750SOL    HW114702   2.354   0.039  12.841
 4750SOL    HW214703   2.289   0.107  12.960
 4751SOL     OW14704   2.446   0.872  12.204
 4751SOL    HW114705   2.473   0.964  12.201
 4751SOL    HW214706   2.388   0.867  12.280
 4752SOL     OW14707   3.221   0.859  12.203
 4752SOL    HW114708   3.138   0.851  12.155
 4752SOL    HW214709   3.260   0.772  12.198
 4753SOL     OW14710   3.067   0.534  11.435
 4753SOL    HW114711   3.075   0.455  11.489
 4753SOL    HW214712   3.024   0.598  11.493
 4754SOL     OW14713   2.164   0.212  12.414
 4754SOL    HW114714   2.126   0.241  12.496
 4754SOL    HW214715   2.151   0.117  12.413
 4755SOL     OW14716   1.906   1.312  12.451
 4755SOL    HW114717   1.941   1.258  12.521
 4755SOL    HW214718   1.916   1.402  12.483
 4756SOL     OW14719   2.587   0.633  12.229
 4756SOL    HW114720   2.661   0.617  12.169
 4756SOL    HW214721   2.558   0.722  12.208
 4757SOL     OW14722   3.596   0.955  13.031
 4757SOL    HW114723   3.549   0.904  12.965
 4757SOL    HW214724   3.532   0.969  13.100
 4758SOL     OW14725   2.183   0.057  11.817
 4758SOL    HW114726   2.162   0.150  11.829
 4758SOL    HW214727   2.143   0.014  11.892
 4759SOL     OW14728   3.469   0.387  11.553
 4759SOL    HW114729   3.442   0.318  11.614
 4759SOL    HW214730   3.446   0.469  11.597
 4760SOL     OW14731   2.890   0.759  12.133
 4760SOL    HW114732   2.887   0.777  12.227
 4760SOL    HW214733   2.863   0.668  12.124
 4761SOL     OW14734   2.844   1.566  12.888
 4761SOL    HW114735   2.829   1.610  12.804
 4761SOL    HW214736   2.887   1.484  12.864
 4762SOL     OW14737   3.708   1.505  12.773
 4762SOL    HW114738   3.729   1.532  12.683
 4762SOL    HW214739   3.789   1.520  12.822
 4763SOL     OW14740   2.215   0.914  12.981
 4763SOL    HW114741   2.297   0.935  13.025
 4763SOL    HW214742   2.239   0.853  12.912
 4764SOL     OW14743   3.370   0.275  11.308
 4764SOL    HW114744   3.294   0.218  11.320
 4764SOL    HW214745   3.384   0.316  11.393
 4765SOL     OW14746   3.154   0.827  11.203
 4765SOL    HW114747   3.196   0.741  11.206
 4765SOL    HW214748   3.186   0.867  11.122
 4766SOL     OW14749   2.927   1.335  12.025
 4766SOL    HW114750   2.930   1.263  11.963
 4766SOL    HW214751   2.989   1.399  11.991
 4767SOL     OW14752   2.171   0.810  12.120
 4767SOL    HW114753   2.264   0.831  12.113
 4767SOL    HW214754   2.169   0.719  12.152
 4768SOL     OW14755   2.199   0.532  12.184
 4768SOL    HW114756   2.158   0.447  12.168
 4768SOL    HW214757   2.275   0.534  12.126
 4769SOL     OW14758   2.995   0.383  12.863
 4769SOL    HW114759   2.948   0.438  12.925
 4769SOL    HW214760   3.083   0.422  12.859
 4770SOL     OW14761   3.013   0.224  12.653
 4770SOL    HW114762   3.005   0.279  12.731
 4770SOL    HW214763   3.035   0.286  12.583
 4771SOL     OW14764   1.866   1.321  11.366
 4771SOL    HW114765   1.779   1.333  11.329
 4771SOL    HW214766   1.865   1.231  11.400
 4772SOL     OW14767   1.974   1.733  12.153
 4772SOL    HW114768   1.936   1.670  12.092
 4772SOL    HW214769   2.018   1.797  12.098
 4773SOL     OW14770   2.362   1.571  12.082
 4773SOL    HW114771   2.430   1.634  12.104
 4773SOL    HW214772   2.406   1.508  12.023
 4774SOL     OW14773   2.847   0.791  12.398
 4774SOL    HW114774   2.900   0.769  12.475
 4774SOL    HW214775   2.760   0.757  12.419
 4775SOL     OW14776   1.896   0.545  12.289
 4775SOL    HW114777   1.972   0.520  12.237
 4775SOL    HW214778   1.928   0.548  12.379
 4776SOL     OW14779   2.064   0.526  12.887
 4776SOL    HW114780   2.130   0.502  12.822
 4776SOL    HW214781   2.016   0.599  12.848
 4777SOL     OW14782   3.240   0.940  12.831
 4777SOL    HW114783   3.260   1.033  12.830
 4777SOL    HW214784   3.236   0.915  12.738
 4778SOL     OW14785   2.678   0.571  11.531
 4778SOL    HW114786   2.682   0.495  11.473
 4778SOL    HW214787   2.603   0.622  11.498
 4779SOL     OW14788   3.504   0.602  12.359
 4779SOL    HW114789   3.492   0.541  12.432
 4779SOL    HW214790   3.589   0.580  12.323
 4780SOL     OW14791   2.115   1.537  12.882
 4780SOL    HW114792   2.101   1.607  12.945
 4780SOL    HW214793   2.115   1.457  12.934
 4781SOL     OW14794   2.561   0.457  12.433
 4781SOL    HW114795   2.513   0.378  12.405
 4781SOL    HW214796   2.556   0.515  12.357
 4782SOL     OW14797   2.791   1.679  12.639
 4782SOL    HW114798   2.765   1.646  12.553
 4782SOL    HW214799   2.788   1.774  12.630
 4783SOL     OW14800   2.328   0.494  11.359
 4783SOL    HW114801   2.385   0.567  11.380
 4783SOL    HW214802   2.241   0.534  11.347
 4784SOL     OW14803   2.007   1.140  12.644
 4784SOL    HW114804   2.011   1.088  12.724
 4784SOL    HW214805   2.025   1.077  12.573
 4785SOL     OW14806   3.188   1.047  12.396
 4785SOL    HW114807   3.213   0.985  12.328
 4785SOL    HW214808   3.117   1.099  12.357
 4786SOL     OW14809   3.173   0.855  11.478
 4786SOL    HW114810   3.096   0.827  11.528
 4786SOL    HW214811   3.147   0.843  11.387
 4787SOL     OW14812   3.637   1.745  12.325
 4787SOL    HW114813   3.692   1.772  12.251
 4787SOL    HW214814   3.610   1.656  12.303
 4788SOL     OW14815   3.103   1.733  12.287
 4788SOL    HW114816   3.185   1.753  12.241
 4788SOL    HW214817   3.108   1.640  12.304
 4789SOL     OW14818   1.947   1.264  12.187
 4789SOL    HW114819   1.931   1.278  12.280
 4789SOL    HW214820   1.872   1.212  12.157
 4790SOL     OW14821   2.538   1.664  12.898
 4790SOL    HW114822   2.488   1.745  12.898
 4790SOL    HW214823   2.603   1.676  12.828
 4791SOL     OW14824   3.555   0.124  11.658
 4791SOL    HW114825   3.637   0.135  11.611
 4791SOL    HW214826   3.554   0.031  11.683
 4792SOL     OW14827   3.252   1.567  11.656
 4792SOL    HW114828   3.312   1.599  11.589
 4792SOL    HW214829   3.204   1.645  11.684
 4793SOL     OW14830   2.042   1.739  13.036
 4793SOL    HW114831   1.971   1.698  13.085
 4793SOL    HW214832   2.011   1.829  13.019
 4794SOL     OW14833   3.139   0.925  11.843
 4794SOL    HW114834   3.213   0.865  11.849
 4794SOL    HW214835   3.173   0.998  11.791
 4795SOL     OW14836   2.678   1.272  12.603
 4795SOL    HW114837   2.650   1.312  12.685
 4795SOL    HW214838   2.608   1.294  12.541
 4796SOL     OW14839   2.538   1.617  11.324
 4796SOL    HW114840   2.544   1.627  11.229
 4796SOL    HW214841   2.481   1.541  11.336
 4797SOL     OW14842   3.488   1.727  12.563
 4797SOL    HW114843   3.540   1.732  12.483
 4797SOL    HW214844   3.476   1.817  12.591
 4798SOL     OW14845   3.702   0.179  12.142
 4798SOL    HW114846   3.727   0.096  12.102
 4798SOL    HW214847   3.615   0.198  12.106
 4799SOL     OW14848   2.127   0.318  11.888
 4799SOL    HW114849   2.041   0.354  11.866
 4799SOL    HW214850   2.125   0.306  11.983
 4800SOL     OW14851   3.069   1.607  11.203
 4800SOL    HW114852   3.060   1.515  11.230
 4800SOL    HW214853   3.003   1.618  11.134
 4801SOL     OW14854   2.687   1.006  12.544
 4801SOL    HW114855   2.728   1.003  12.457
 4801SOL    HW214856   2.686   1.098  12.567
 4802SOL     OW14857   2.778   0.910  11.462
 4802SOL    HW114858   2.839   0.942  11.396
 4802SOL    HW214859   2.825   0.840  11.506
 4803SOL     OW14860   3.354   1.625  11.214
 4803SOL    HW114861   3.260   1.620  11.201
 4803SOL    HW214862   3.391   1.632  11.126
 4804SOL     OW14863   2.232   1.297  12.665
 4804SOL    HW114864   2.221   1.375  12.611
 4804SOL    HW214865   2.154   1.244  12.648
 4805SOL     OW14866   3.466   1.280  12.451
 4805SOL    HW114867   3.534   1.275  12.519
 4805SOL    HW214868   3.409   1.351  12.479
 4806SOL     OW14869   2.913   1.107  11.878
 4806SOL    HW114870   2.842   1.055  11.917
 4806SOL    HW214871   2.974   1.041  11.845
 4807SOL     OW14872   2.877   0.247  12.139
 4807SOL    HW114873   2.866   0.197  12.058
 4807SOL    HW214874   2.870   0.181  12.209
 4808SOL     OW14875   2.463   1.489  11.653
 4808SOL    HW114876   2.504   1.440  11.583
 4808SOL    HW214877   2.401   1.547  11.609
 4809SOL     OW14878   3.581   0.391  12.546
 4809SOL    HW114879   3.652   0.456  12.545
 4809SOL    HW214880   3.613   0.320  12.491
 4810SOL     OW14881   2.120   1.346  11.458
 4810SOL    HW114882   2.027   1.343  11.437
 4810SOL    HW214883   2.125   1.380  11.547
 4811SOL     OW14884   1.974   1.020  12.891
 4811SOL    HW114885   1.898   0.997  12.944
 4811SOL    HW214886   2.049   0.983  12.939
 4812SOL     OW14887   2.553   0.242  12.669
 4812SOL    HW114888   2.623   0.191  12.629
 4812SOL    HW214889   2.579   0.250  12.761
 4813SOL     OW14890   1.959   0.319  11.161
 4813SOL    HW114891   1.881   0.336  11.214
 4813SOL    HW214892   1.976   0.402  11.116
 4814SOL     OW14893   3.291   0.857  12.572
 4814SOL    HW114894   3.242   0.919  12.517
 4814SOL    HW214895   3.380   0.860  12.537
 4815SOL     OW14896   1.945   0.154  11.513
 4815SOL    HW114897   1.914   0.217  11.448
 4815SOL    HW214898   2.029   0.125  11.479
 4816SOL     OW14899   3.041   1.340  11.289
 4816SOL    HW114900   2.950   1.311  11.292
 4816SOL    HW214901   3.069   1.340  11.380
 4817SOL     OW14902   2.481   0.830  12.605
 4817SOL    HW114903   2.537   0.906  12.590
 4817SOL    HW214904   2.543   0.757  12.614
 4818SOL     OW14905   3.346   1.777  12.149
 4818SOL    HW114906   3.370   1.835  12.077
 4818SOL    HW214907   3.428   1.756  12.193
 4819SOL     OW14908   2.579   0.563  12.878
 4819SOL    HW114909   2.618   0.627  12.938
 4819SOL    HW214910   2.611   0.478  12.909
 4820SOL     OW14911   3.332   1.201  12.805
 4820SOL    HW114912   3.321   1.215  12.899
 4820SOL    HW214913   3.425   1.215  12.789
 4821SOL     OW14914   2.241   1.744  12.743
 4821SOL    HW114915   2.162   1.761  12.693
 4821SOL    HW214916   2.226   1.659  12.784
 4822SOL     OW14917   3.529   0.881  12.431
 4822SOL    HW114918   3.527   0.796  12.387
 4822SOL    HW214919   3.524   0.945  12.359
 4823SOL     OW14920   3.085   0.333  11.619
 4823SOL    HW114921   3.152   0.266  11.609
 4823SOL    HW214922   3.108   0.379  11.700
 4824SOL     OW14923   2.453   0.739  11.840
 4824SOL    HW114924   2.492   0.825  11.825
 4824SOL    HW214925   2.384   0.731  11.775
 4825SOL     OW14926   3.618   0.379  12.814
 4825SOL    HW114927   3.599   0.386  12.721
 4825SOL    HW214928   3.559   0.312  12.847
 4826SOL     OW14929   3.613   0.932  12.686
 4826SOL    HW114930   3.608   1.026  12.701
 4826SOL    HW214931   3.592   0.921  12.594
 4827SOL     OW14932   2.724   1.368  11.204
 4827SOL    HW114933   2.685   1.394  11.288
 4827SOL    HW214934   2.743   1.450  11.159
 4828SOL     OW14935   2.522   1.795  12.119
 4828SOL    HW114936   2.505   1.885  12.091
 4828SOL    HW214937   2.617   1.785  12.110
 4829SOL     OW14938   2.729   0.966  12.028
 4829SOL    HW114939   2.779   0.895  12.068
 4829SOL    HW214940   2.695   1.016  12.102
 4830SOL     OW14941   2.942   0.988  11.261
 4830SOL    HW114942   2.919   1.039  11.183
 4830SOL    HW214943   3.016   0.935  11.234
 4831SOL     OW14944   3.718   1.557  12.014
 4831SOL    HW114945   3.639   1.542  11.962
 4831SOL    HW214946   3.714   1.490  12.083
 4832SOL     OW14947   2.087   1.302  13.029
 4832SOL    HW114948   2.019   1.241  13.002
 4832SOL    HW214949   2.074   1.314  13.122
 4833SOL     OW14950   1.941   1.228  11.836
 4833SOL    HW114951   1.951   1.182  11.919
 4833SOL    HW214952   2.015   1.198  11.783
 4834SOL     OW14953   2.542   1.402  12.798
 4834SOL    HW114954   2.463   1.358  12.830
 4834SOL    HW214955   2.538   1.490  12.836
 4835SOL     OW14956   3.678   0.182  12.415
 4835SOL    HW114957   3.679   0.087  12.424
 4835SOL    HW214958   3.693   0.199  12.322
 4836SOL     OW14959   2.291   0.434  11.696
 4836SOL    HW114960   2.322   0.362  11.642
 4836SOL    HW214961   2.244   0.391  11.769
 4837SOL     OW14962   3.561   1.492  12.272
 4837SOL    HW114963   3.481   1.467  12.225
 4837SOL    HW214964   3.575   1.421  12.335
 4838SOL     OW14965   2.190   0.554  12.464
 4838SOL    HW114966   2.244   0.497  12.519
 4838SOL    HW214967   2.210   0.528  12.374
 4839SOL     OW14968   2.687   1.578  11.850
 4839SOL    HW114969   2.677   1.627  11.768
 4839SOL    HW214970   2.611   1.521  11.854
 4840SOL     OW14971   3.323   0.251  12.284
 4840SOL    HW114972   3.337   0.163  12.319
 4840SOL    HW214973   3.265   0.293  12.347
 4841SOL     OW14974   2.868   0.029  12.320
 4841SOL    HW114975   2.792   3.980  12.290
 4841SOL    HW214976   2.938   3.964  12.327
 4842SOL     OW14977   2.635   1.332  11.484
 4842SOL    HW114978   2.601   1.243  11.491
 4842SOL    HW214979   2.716   1.331  11.534
 4843SOL     OW14980   2.483   1.557  12.457
 4843SOL    HW114981   2.485   1.639  12.507
 4843SOL    HW214982   2.570   1.550  12.419
 4844SOL     OW14983   3.178   0.072  11.333
 4844SOL    HW114984   3.192   0.001  11.270
 4844SOL    HW214985   3.093   0.052  11.372
 4845SOL     OW14986   3.147   0.458  11.859
 4845SOL    HW114987   3.099   0.540  11.856
 4845SOL    HW214988   3.151   0.436  11.952
 4846SOL     OW14989   3.452   0.211  12.039
 4846SOL    HW114990   3.401   0.232  12.118
 4846SOL    HW214991   3.451   0.291  11.987
 4847SOL     OW14992   1.906   1.072  11.476
 4847SOL    HW114993   2.000   1.064  11.461
 4847SOL    HW214994   1.878   0.984  11.501
 4848SOL     OW14995   2.744   1.652  11.516
 4848SOL    HW114996   2.673   1.633  11.454
 4848SOL    HW214997   2.714   1.727  11.566
 4849SOL     OW14998   2.092   0.621  13.156
 4849SOL    HW114999   2.002   0.625  13.186
 4849SOL    HW215000   2.085   0.600  13.062
 4850SOL     OW15001   2.114   0.266   0.126
 4850SOL    HW115002   2.142   0.318   0.200
 4850SOL    HW215003   2.018   0.270   0.129
 4851SOL     OW15004   1.871   0.390  13.647
 4851SOL    HW115005   1.780   0.401  13.672
 4851SOL    HW215006   1.875   0.301  13.611
 4852SOL     OW15007   3.395   1.501  13.723
 4852SOL    HW115008   3.335   1.448  13.775
 4852SOL    HW215009   3.347   1.518  13.642
 4853SOL     OW15010   2.990   0.702  13.737
 4853SOL    HW115011   3.046   0.774  13.708
 4853SOL    HW215012   2.939   0.737  13.809
 4854SOL     OW15013   3.625   0.619  13.263
 4854SOL    HW115014   3.607   0.610  13.169
 4854SOL    HW215015   3.605   0.532  13.299
 4855SOL     OW15016   2.547   1.012  13.674
 4855SOL    HW115017   2.602   0.989  13.749
 4855SOL    HW215018   2.474   1.060  13.712
 4856SOL     OW15019   3.481   0.462  13.768
 4856SOL    HW115020   3.399   0.474  13.721
 4856SOL    HW215021   3.500   0.548  13.805
 4857SOL     OW15022   2.095   1.693  13.497
 4857SOL    HW115023   2.117   1.758  13.564
 4857SOL    HW215024   2.169   1.696  13.436
 4858SOL     OW15025   2.095   1.430  13.570
 4858SOL    HW115026   2.083   1.525  13.563
 4858SOL    HW215027   2.029   1.402  13.632
 4859SOL     OW15028   2.100   1.103   0.022
 4859SOL    HW115029   2.121   1.039   0.091
 4859SOL    HW215030   2.037   1.162   0.063
 4860SOL     OW15031   2.449   0.981  13.166
 4860SOL    HW115032   2.493   1.031  13.098
 4860SOL    HW215033   2.489   1.012  13.248
 4861SOL     OW15034   1.979   0.655  13.589
 4861SOL    HW115035   1.948   0.566  13.602
 4861SOL    HW215036   1.962   0.699  13.672
 4862SOL     OW15037   3.700   1.758  13.371
 4862SOL    HW115038   3.768   1.732  13.433
 4862SOL    HW215039   3.722   1.849  13.348
 4863SOL     OW15040   1.860   1.604  13.184
 4863SOL    HW115041   1.857   1.509  13.171
 4863SOL    HW215042   1.879   1.615  13.277
 4864SOL     OW15043   3.547   0.913  13.665
 4864SOL    HW115044   3.637   0.885  13.650
 4864SOL    HW215045   3.527   0.971  13.592
 4865SOL     OW15046   3.504   1.106  13.463
 4865SOL    HW115047   3.588   1.113  13.418
 4865SOL    HW215048   3.511   1.168  13.536
 4866SOL     OW15049   2.467   1.384  13.762
 4866SOL    HW115050   2.425   1.299  13.770
 4866SOL    HW215051   2.446   1.414  13.674
 4867SOL     OW15052   2.680   0.002  13.550
 4867SOL    HW115053   2.724   0.083  13.526
 4867SOL    HW215054   2.587   0.024  13.549
 4868SOL     OW15055   3.391   0.992  13.233
 4868SOL    HW115056   3.322   0.935  13.266
 4868SOL    HW215057   3.431   1.029  13.312
 4869SOL     OW15058   3.518   1.738  13.613
 4869SOL    HW115059   3.498   1.710  13.524
 4869SOL    HW215060   3.511   1.659  13.666
 4870SOL     OW15061   2.456   0.723  13.298
 4870SOL    HW115062   2.463   0.804  13.248
 4870SOL    HW215063   2.392   0.742  13.366
 4871SOL     OW15064   3.113   0.336   0.055
 4871SOL    HW115065   3.022   0.320   0.081
 4871SOL    HW215066   3.165   0.298   0.126
 4872SOL     OW15067   3.441   1.671  13.342
 4872SOL    HW115068   3.531   1.702  13.338
 4872SOL    HW215069   3.417   1.653  13.251
 4873SOL     OW15070   2.910   0.696  13.460
 4873SOL    HW115071   2.923   0.686  13.554
 4873SOL    HW215072   2.829   0.650  13.441
 4874SOL     OW15073   1.942   0.817  13.810
 4874SOL    HW115074   2.027   0.814  13.856
 4874SOL    HW215075   1.900   0.896  13.844
 4875SOL     OW15076   2.754   0.350  13.232
 4875SOL    HW115077   2.795   0.408  13.169
 4875SOL    HW215078   2.754   0.264  13.189
 4876SOL     OW15079   3.225   1.135  13.557
 4876SOL    HW115080   3.315   1.134  13.523
 4876SOL    HW215081   3.183   1.207  13.510
 4877SOL     OW15082   2.867   1.443  13.505
 4877SOL    HW115083   2.830   1.517  13.456
 4877SOL    HW215084   2.841   1.458  13.595
 4878SOL     OW15085   2.255   1.782  13.853
 4878SOL    HW115086   2.251   1.696  13.894
 4878SOL    HW215087   2.320   1.830   0.004
 4879SOL     OW15088   3.652   1.055  13.899
 4879SOL    HW115089   3.591   1.052  13.825
 4879SOL    HW215090   3.596   1.053   0.076
 4880SOL     OW15091   2.183   0.957  13.284
 4880SOL    HW115092   2.265   0.977  13.238
 4880SOL    HW215093   2.152   0.876  13.245
 4881SOL     OW15094   3.349   0.731  13.751
 4881SOL    HW115095   3.333   0.690  13.836
 4881SOL    HW215096   3.418   0.796  13.768
 4882SOL     OW15097   2.983   1.778  13.265
 4882SOL    HW115098   2.911   1.736  13.311
 4882SOL    HW215099   3.006   1.717  13.195
 4883SOL     OW15100   3.489   1.381  13.120
 4883SOL    HW115101   3.447   1.466  13.106
 4883SOL    HW215102   3.421   1.317  13.102
 4884SOL     OW15103   2.338   1.720  13.371
 4884SOL    HW115104   2.372   1.793  13.422
 4884SOL    HW215105   2.395   1.714  13.295
 4885SOL     OW15106   3.286   0.157  13.444
 4885SOL    HW115107   3.253   0.099  13.376
 4885SOL    HW215108   3.376   0.129  13.458
 4886SOL     OW15109   2.789   1.692   0.013
 4886SOL    HW115110   2.827   1.626   0.071
 4886SOL    HW215111   2.746   1.641  13.844
 4887SOL     OW15112   2.254   0.697  13.510
 4887SOL    HW115113   2.276   0.605  13.519
 4887SOL    HW215114   2.160   0.701  13.527
 4888SOL     OW15115   2.503   0.136  13.139
 4888SOL    HW115116   2.538   0.056  13.179
 4888SOL    HW215117   2.440   0.105  13.074
 4889SOL     OW15118   2.411   0.058  13.529
 4889SOL    HW115119   2.335   0.061  13.587
 4889SOL    HW215120   2.404   0.137  13.476
 4890SOL     OW15121   3.290   1.198  13.075
 4890SOL    HW115122   3.320   1.123  13.126
 4890SOL    HW215123   3.205   1.219  13.113
 4891SOL     OW15124   2.188   0.044  13.240
 4891SOL    HW115125   2.204   0.112  13.176
 4891SOL    HW215126   2.273   0.028  13.282
 4892SOL     OW15127   2.799   0.244  13.496
 4892SOL    HW115128   2.772   0.289  13.415
 4892SOL    HW215129   2.895   0.250  13.495
 4893SOL     OW15130   2.326   1.142  13.774
 4893SOL    HW115131   2.252   1.129  13.832
 4893SOL    HW215132   2.290   1.129  13.686
 4894SOL     OW15133   3.133   1.797  13.634
 4894SOL    HW115134   3.176   1.862  13.579
 4894SOL    HW215135   3.066   1.845  13.682
 4895SOL     OW15136   2.886   0.547  13.057
 4895SOL    HW115137   2.842   0.630  13.037
 4895SOL    HW215138   2.949   0.569  13.126
 4896SOL     OW15139   2.755   0.473  13.666
 4896SOL    HW115140   2.685   0.517  13.616
 4896SOL    HW215141   2.759   0.385  13.628
 4897SOL     OW15142   2.862   0.040  13.798
 4897SOL    HW115143   2.830   0.063  13.710
 4897SOL    HW215144   2.882   3.947  13.792
 4898SOL     OW15145   3.727   0.822  13.409
 4898SOL    HW115146   3.773   0.765  13.471
 4898SOL    HW215147   3.686   0.762  13.347
 4899SOL     OW15148   2.355   1.416  13.192
 4899SOL    HW115149   2.280   1.388  13.245
 4899SOL    HW215150   2.335   1.384  13.104
 4900SOL     OW15151   3.538   1.266  13.671
 4900SOL    HW115152   3.631   1.273  13.688
 4900SOL    HW215153   3.502   1.349  13.701
 4901SOL     OW15154   3.256   0.573  13.104
 4901SOL    HW115155   3.194   0.555  13.174
 4901SOL    HW215156   3.341   0.552  13.142
 4902SOL     OW15157   2.390   0.266  13.352
 4902SOL    HW115158   2.440   0.224  13.281
 4902SOL    HW215159   2.364   0.351  13.317
 4903SOL     OW15160   2.570   1.062  13.402
 4903SOL    HW115161   2.556   1.047  13.495
 4903SOL    HW215162   2.646   1.008  13.381
 4904SOL     OW15163   2.216   1.107  13.527
 4904SOL    HW115164   2.218   1.183  13.468
 4904SOL    HW215165   2.212   1.031  13.468
 4905SOL     OW15166   2.434   0.541  13.865
 4905SOL    HW115167   2.446   0.610  13.800
 4905SOL    HW215168   2.486   0.568   0.040
 4906SOL     OW15169   3.109   1.350  13.420
 4906SOL    HW115170   3.164   1.423  13.448
 4906SOL    HW215171   3.022   1.370  13.455
 4907SOL     OW15172   3.447   0.630  13.513
 4907SOL    HW115173   3.407   0.684  13.581
 4907SOL    HW215174   3.484   0.693  13.451
 4908SOL     OW15175   3.068   0.532  13.299
 4908SOL    HW115176   3.073   0.453  13.352
 4908SOL    HW215177   3.024   0.596  13.355
 4909SOL     OW15178   2.192   0.053  13.684
 4909SOL    HW115179   2.167   0.146  13.691
 4909SOL    HW215180   2.120   0.007  13.726
 4910SOL     OW15181   3.458   0.387  13.409
 4910SOL    HW115182   3.444   0.319  13.474
 4910SOL    HW215183   3.443   0.469  13.457
 4911SOL     OW15184   3.369   0.277  13.168
 4911SOL    HW115185   3.295   0.219  13.182
 4911SOL    HW215186   3.384   0.318  13.254
 4912SOL     OW15187   3.154   0.827  13.065
 4912SOL    HW115188   3.197   0.741  13.068
 4912SOL    HW215189   3.186   0.867  12.984
 4913SOL     OW15190   1.866   1.321  13.228
 4913SOL    HW115191   1.779   1.333  13.191
 4913SOL    HW215192   1.865   1.231  13.262
 4914SOL     OW15193   2.678   0.574  13.386
 4914SOL    HW115194   2.681   0.496  13.331
 4914SOL    HW215195   2.601   0.622  13.356
 4915SOL     OW15196   2.328   0.494  13.220
 4915SOL    HW115197   2.385   0.567  13.242
 4915SOL    HW215198   2.241   0.533  13.209
 4916SOL     OW15199   3.175   0.849  13.340
 4916SOL    HW115200   3.095   0.829  13.389
 4916SOL    HW215201   3.149   0.841  13.248
 4917SOL     OW15202   3.545   0.120  13.477
 4917SOL    HW115203   3.637   0.127  13.451
 4917SOL    HW215204   3.545   0.058  13.550
 4918SOL     OW15205   3.246   1.571  13.508
 4918SOL    HW115206   3.307   1.606  13.444
 4918SOL    HW215207   3.201   1.648  13.543
 4919SOL     OW15208   3.149   0.914  13.686
 4919SOL    HW115209   3.227   0.860  13.670
 4919SOL    HW215210   3.171   0.999  13.647
 4920SOL     OW15211   2.538   1.617  13.185
 4920SOL    HW115212   2.544   1.628  13.090
 4920SOL    HW215213   2.481   1.541  13.198
 4921SOL     OW15214   3.677   0.159   0.058
 4921SOL    HW115215   3.714   0.071   0.060
 4921SOL    HW215216   3.583   0.145   0.042
 4922SOL     OW15217   2.137   0.315  13.745
 4922SOL    HW115218   2.046   0.332  13.720
 4922SOL    HW215219   2.135   0.309  13.840
 4923SOL     OW15220   3.069   1.607  13.065
 4923SOL    HW115221   3.060   1.515  13.092
 4923SOL    HW215222   3.003   1.618  12.996
 4924SOL     OW15223   2.780   0.913  13.327
 4924SOL    HW115224   2.839   0.942  13.259
 4924SOL    HW215225   2.824   0.838  13.367
 4925SOL     OW15226   3.354   1.625  13.076
 4925SOL    HW115227   3.260   1.620  13.063
 4925SOL    HW215228   3.391   1.631  12.988
 4926SOL     OW15229   2.912   1.090  13.754
 4926SOL    HW115230   2.824   1.052  13.748
 4926SOL    HW215231   2.961   1.048  13.684
 4927SOL     OW15232   2.460   1.489  13.510
 4927SOL    HW115233   2.503   1.441  13.440
 4927SOL    HW215234   2.401   1.550  13.465
 4928SOL     OW15235   2.120   1.345  13.319
 4928SOL    HW115236   2.027   1.343  13.299
 4928SOL    HW215237   2.125   1.380  13.408
 4929SOL     OW15238   1.959   0.320  13.023
 4929SOL    HW115239   1.880   0.336  13.075
 4929SOL    HW215240   1.976   0.402  12.978
 4930SOL     OW15241   1.953   0.156  13.369
 4930SOL    HW115242   1.922   0.220  13.305
 4930SOL    HW215243   2.036   0.124  13.333
 4931SOL     OW15244   3.041   1.340  13.150
 4931SOL    HW115245   2.950   1.311  13.153
 4931SOL    HW215246   3.069   1.341  13.241
 4932SOL     OW15247   3.083   0.330  13.486
 4932SOL    HW115248   3.152   0.265  13.472
 4932SOL    HW215249   3.112   0.381  13.561
 4933SOL     OW15250   2.455   0.750  13.693
 4933SOL    HW115251   2.490   0.837  13.672
 4933SOL    HW215252   2.384   0.737  13.630
 4934SOL     OW15253   2.724   1.368  13.066
 4934SOL    HW115254   2.685   1.394  13.149
 4934SOL    HW215255   2.743   1.450  13.021
 4935SOL     OW15256   2.514   1.843   0.069
 4935SOL    HW115257   2.523   1.938   0.056
 4935SOL    HW215258   2.604   1.812   0.078
 4936SOL     OW15259   2.695   0.962  13.893
 4936SOL    HW115260   2.737   0.887   0.035
 4936SOL    HW215261   2.703   1.033   0.057
 4937SOL     OW15262   2.941   0.987  13.123
 4937SOL    HW115263   2.919   1.039  13.046
 4937SOL    HW215264   3.016   0.934  13.096
 4938SOL     OW15265   1.947   1.231  13.701
 4938SOL    HW115266   1.947   1.174  13.778
 4938SOL    HW215267   2.017   1.197  13.646
 4939SOL     OW15268   2.291   0.436  13.552
 4939SOL    HW115269   2.324   0.363  13.500
 4939SOL    HW215270   2.252   0.395  13.629
 4940SOL     OW15271   3.541   1.463   0.340
 4940SOL    HW115272   3.513   1.442   0.251
 4940SOL    HW215273   3.625   1.417   0.349
 4941SOL     OW15274   2.682   1.554  13.712
 4941SOL    HW115275   2.665   1.608  13.635
 4941SOL    HW215276   2.602   1.502  13.723
 4942SOL     OW15277   2.635   1.333  13.345
 4942SOL    HW115278   2.602   1.243  13.352
 4942SOL    HW215279   2.716   1.332  13.395
 4943SOL     OW15280   3.178   0.075  13.200
 4943SOL    HW115281   3.200   0.006  13.137
 4943SOL    HW215282   3.091   0.050  13.233
 4944SOL     OW15283   3.156   0.460  13.717
 4944SOL    HW115284   3.104   0.540  13.719
 4944SOL    HW215285   3.153   0.427  13.807
 4945SOL     OW15286   1.907   1.073  13.338
 4945SOL    HW115287   2.001   1.064  13.321
 4945SOL    HW215288   1.878   0.984  13.362
 4946SOL     OW15289   2.745   1.652  13.377
 4946SOL    HW115290   2.673   1.634  13.316
 4946SOL    HW215291   2.714   1.726  13.429
 4947SOL     OW15292   2.096   2.500   0.110
 4947SOL    HW115293   2.010   2.472   0.139
 4947SOL    HW215294   2.113   2.449   0.031
 4948SOL     OW15295   1.870   2.279   0.633
 4948SOL    HW115296   1.781   2.276   0.667
 4948SOL    HW215297   1.879   2.198   0.583
 4949SOL     OW15298   2.428   3.147   1.173
 4949SOL    HW115299   2.341   3.152   1.135
 4949SOL    HW215300   2.444   3.235   1.208
 4950SOL     OW15301   3.421   3.373   0.707
 4950SOL    HW115302   3.376   3.352   0.789
 4950SOL    HW215303   3.351   3.377   0.641
 4951SOL     OW15304   2.991   2.561   0.703
 4951SOL    HW115305   3.041   2.640   0.688
 4951SOL    HW215306   2.945   2.576   0.785
 4952SOL     OW15307   3.622   2.468   0.230
 4952SOL    HW115308   3.627   2.433   0.142
 4952SOL    HW215309   3.588   2.396   0.283
 4953SOL     OW15310   2.618   3.005   1.039
 4953SOL    HW115311   2.549   3.039   1.096
 4953SOL    HW215312   2.653   3.082   0.995
 4954SOL     OW15313   2.726   2.639   1.821
 4954SOL    HW115314   2.714   2.710   1.884
 4954SOL    HW215315   2.750   2.683   1.740
 4955SOL     OW15316   2.547   2.865   0.648
 4955SOL    HW115317   2.613   2.853   0.717
 4955SOL    HW215318   2.478   2.917   0.688
 4956SOL     OW15319   2.571   3.013   1.811
 4956SOL    HW115320   2.619   3.092   1.837
 4956SOL    HW215321   2.488   3.046   1.776
 4957SOL     OW15322   2.194   3.288   1.067
 4957SOL    HW115323   2.120   3.253   1.017
 4957SOL    HW215324   2.243   3.340   1.004
 4958SOL     OW15325   3.322   3.361   1.352
 4958SOL    HW115326   3.372   3.443   1.363
 4958SOL    HW215327   3.263   3.360   1.427
 4959SOL     OW15328   2.284   2.238   1.480
 4959SOL    HW115329   2.372   2.203   1.493
 4959SOL    HW215330   2.226   2.162   1.492
 4960SOL     OW15331   3.474   2.310   0.741
 4960SOL    HW115332   3.400   2.335   0.687
 4960SOL    HW215333   3.494   2.388   0.793
 4961SOL     OW15334   2.082   3.574   0.483
 4961SOL    HW115335   2.115   3.643   0.541
 4961SOL    HW215336   2.142   3.576   0.408
 4962SOL     OW15337   2.998   3.203   1.692
 4962SOL    HW115338   3.039   3.198   1.779
 4962SOL    HW215339   2.945   3.123   1.686
 4963SOL     OW15340   2.084   3.303   0.532
 4963SOL    HW115341   2.075   3.398   0.538
 4963SOL    HW215342   2.027   3.268   0.601
 4964SOL     OW15343   2.117   2.953   0.890
 4964SOL    HW115344   2.114   2.867   0.933
 4964SOL    HW215345   2.060   3.008   0.943
 4965SOL     OW15346   2.475   3.649   1.430
 4965SOL    HW115347   2.393   3.634   1.476
 4965SOL    HW215348   2.500   3.738   1.455
 4966SOL     OW15349   2.434   2.841   0.156
 4966SOL    HW115350   2.457   2.891   0.078
 4966SOL    HW215351   2.486   2.879   0.226
 4967SOL     OW15352   3.458   1.985   1.468
 4967SOL    HW115353   3.460   2.066   1.417
 4967SOL    HW215354   3.446   2.014   1.559
 4968SOL     OW15355   1.981   2.519   0.560
 4968SOL    HW115356   1.948   2.431   0.581
 4968SOL    HW215357   1.970   2.568   0.641
 4969SOL     OW15358   3.699   3.617   0.340
 4969SOL    HW115359   3.762   3.583   0.403
 4969SOL    HW215360   3.725   3.707   0.325
 4970SOL     OW15361   1.884   3.467   0.108
 4970SOL    HW115362   1.888   3.375   0.135
 4970SOL    HW215363   1.869   3.516   0.189
 4971SOL     OW15364   3.549   2.780   0.642
 4971SOL    HW115365   3.634   2.740   0.626
 4971SOL    HW215366   3.531   2.830   0.562
 4972SOL     OW15367   3.505   2.968   0.432
 4972SOL    HW115368   3.591   2.975   0.391
 4972SOL    HW215369   3.508   3.030   0.505
 4973SOL     OW15370   1.983   2.605   1.584
 4973SOL    HW115371   2.074   2.629   1.598
 4973SOL    HW215372   1.935   2.687   1.594
 4974SOL     OW15373   2.475   3.247   0.735
 4974SOL    HW115374   2.429   3.164   0.744
 4974SOL    HW215375   2.458   3.274   0.645
 4975SOL     OW15376   3.151   3.100   1.424
 4975SOL    HW115377   3.184   3.034   1.364
 4975SOL    HW215378   3.208   3.094   1.501
 4976SOL     OW15379   2.698   1.860   0.516
 4976SOL    HW115380   2.736   1.945   0.493
 4976SOL    HW215381   2.603   1.875   0.513
 4977SOL     OW15382   2.053   2.831   1.269
 4977SOL    HW115383   2.137   2.787   1.254
 4977SOL    HW215384   1.988   2.773   1.229
 4978SOL     OW15385   3.394   2.855   0.202
 4978SOL    HW115386   3.325   2.797   0.232
 4978SOL    HW215387   3.431   2.892   0.283
 4979SOL     OW15388   3.072   3.664   1.625
 4979SOL    HW115389   3.056   3.723   1.551
 4979SOL    HW215390   3.074   3.577   1.585
 4980SOL     OW15391   3.326   3.282   0.952
 4980SOL    HW115392   3.259   3.296   1.018
 4980SOL    HW215393   3.316   3.191   0.925
 4981SOL     OW15394   3.518   3.601   0.585
 4981SOL    HW115395   3.505   3.574   0.494
 4981SOL    HW215396   3.497   3.523   0.636
 4982SOL     OW15397   2.459   2.582   0.260
 4982SOL    HW115398   2.464   2.664   0.211
 4982SOL    HW215399   2.399   2.602   0.333
 4983SOL     OW15400   3.141   2.213   0.932
 4983SOL    HW115401   3.052   2.179   0.940
 4983SOL    HW215402   3.192   2.161   0.994
 4984SOL     OW15403   3.422   3.594   0.311
 4984SOL    HW115404   3.517   3.594   0.312
 4984SOL    HW215405   3.398   3.552   0.229
 4985SOL     OW15406   2.655   2.480   1.450
 4985SOL    HW115407   2.630   2.457   1.540
 4985SOL    HW215408   2.613   2.413   1.396
 4986SOL     OW15409   3.256   2.335   1.678
 4986SOL    HW115410   3.257   2.380   1.763
 4986SOL    HW215411   3.317   2.263   1.688
 4987SOL     OW15412   2.818   2.750   1.582
 4987SOL    HW115413   2.872   2.679   1.547
 4987SOL    HW215414   2.771   2.784   1.505
 4988SOL     OW15415   2.855   2.275   1.239
 4988SOL    HW115416   2.771   2.297   1.278
 4988SOL    HW215417   2.833   2.228   1.159
 4989SOL     OW15418   2.911   2.563   0.429
 4989SOL    HW115419   2.926   2.555   0.523
 4989SOL    HW215420   2.829   2.516   0.413
 4990SOL     OW15421   1.951   2.685   0.776
 4990SOL    HW115422   2.032   2.679   0.826
 4990SOL    HW215423   1.907   2.762   0.811
 4991SOL     OW15424   1.987   3.698   1.575
 4991SOL    HW115425   1.986   3.681   1.669
 4991SOL    HW215426   1.895   3.710   1.551
 4992SOL     OW15427   2.733   2.219   0.213
 4992SOL    HW115428   2.773   2.278   0.149
 4992SOL    HW215429   2.743   2.132   0.175
 4993SOL     OW15430   3.574   2.439   1.828
 4993SOL    HW115431   3.535   2.513   1.782
 4993SOL    HW215432   3.595   2.376   1.759
 4994SOL     OW15433   3.237   3.004   0.543
 4994SOL    HW115434   3.316   2.990   0.490
 4994SOL    HW215435   3.185   3.067   0.493
 4995SOL     OW15436   2.408   2.052   0.894
 4995SOL    HW115437   2.412   2.075   0.986
 4995SOL    HW215438   2.427   2.134   0.848
 4996SOL     OW15439   2.869   3.306   0.475
 4996SOL    HW115440   2.832   3.379   0.426
 4996SOL    HW215441   2.852   3.328   0.567
 4997SOL     OW15442   2.213   3.670   0.843
 4997SOL    HW115443   2.263   3.591   0.860
 4997SOL    HW215444   2.274   3.741   0.861
 4998SOL     OW15445   3.665   2.922   0.867
 4998SOL    HW115446   3.609   2.903   0.792
 4998SOL    HW215447   3.605   2.927   0.941
 4999SOL     OW15448   3.090   3.399   1.512
 4999SOL    HW115449   3.075   3.327   1.572
 4999SOL    HW215450   3.026   3.385   1.442
 5000SOL     OW15451   2.177   2.803   0.229
 5000SOL    HW115452   2.268   2.815   0.204
 5000SOL    HW215453   2.163   2.708   0.223
 5001SOL     OW15454   3.338   2.602   0.728
 5001SOL    HW115455   3.330   2.559   0.813
 5001SOL    HW215456   3.415   2.658   0.737
 5002SOL     OW15457   2.327   3.126   1.737
 5002SOL    HW115458   2.300   3.131   1.646
 5002SOL    HW215459   2.246   3.124   1.787
 5003SOL     OW15460   2.986   3.640   0.234
 5003SOL    HW115461   2.923   3.594   0.289
 5003SOL    HW215462   3.012   3.575   0.168
 5004SOL     OW15463   3.494   3.235   0.082
 5004SOL    HW115464   3.456   3.319   0.055
 5004SOL    HW215465   3.426   3.171   0.063
 5005SOL     OW15466   2.339   3.594   0.322
 5005SOL    HW115467   2.370   3.658   0.386
 5005SOL    HW215468   2.417   3.574   0.270
 5006SOL     OW15469   3.265   1.972   0.434
 5006SOL    HW115470   3.258   1.941   0.344
 5006SOL    HW215471   3.359   1.969   0.452
 5007SOL     OW15472   2.120   3.655   1.228
 5007SOL    HW115473   2.169   3.588   1.275
 5007SOL    HW215474   2.106   3.618   1.141
 5008SOL     OW15475   2.800   3.561   0.901
 5008SOL    HW115476   2.877   3.508   0.921
 5008SOL    HW215477   2.754   3.512   0.833
 5009SOL     OW15478   2.253   2.557   0.474
 5009SOL    HW115479   2.275   2.465   0.484
 5009SOL    HW215480   2.160   2.562   0.496
 5010SOL     OW15481   3.399   2.088   1.726
 5010SOL    HW115482   3.407   2.109   1.819
 5010SOL    HW215483   3.331   2.020   1.722
 5011SOL     OW15484   2.628   2.138   1.753
 5011SOL    HW115485   2.703   2.080   1.755
 5011SOL    HW215486   2.580   2.120   1.834
 5012SOL     OW15487   2.738   3.382   1.194
 5012SOL    HW115488   2.723   3.347   1.106
 5012SOL    HW215489   2.808   3.328   1.230
 5013SOL     OW15490   3.203   2.451   1.432
 5013SOL    HW115491   3.234   2.419   1.517
 5013SOL    HW215492   3.239   2.539   1.425
 5014SOL     OW15493   2.676   3.258   0.938
 5014SOL    HW115494   2.760   3.247   0.893
 5014SOL    HW215495   2.612   3.258   0.867
 5015SOL     OW15496   2.788   2.370   0.903
 5015SOL    HW115497   2.765   2.362   0.811
 5015SOL    HW215498   2.822   2.284   0.927
 5016SOL     OW15499   2.443   1.923   0.484
 5016SOL    HW115500   2.371   1.916   0.546
 5016SOL    HW215501   2.425   2.003   0.435
 5017SOL     OW15502   3.292   3.065   0.046
 5017SOL    HW115503   3.313   2.984   0.092
 5017SOL    HW215504   3.199   3.080   0.064
 5018SOL     OW15505   2.803   2.109   0.462
 5018SOL    HW115506   2.772   2.149   0.380
 5018SOL    HW215507   2.898   2.126   0.462
 5019SOL     OW15508   2.942   2.542   1.460
 5019SOL    HW115509   2.874   2.476   1.465
 5019SOL    HW215510   3.024   2.492   1.453
 5020SOL     OW15511   3.085   3.432   0.794
 5020SOL    HW115512   3.103   3.499   0.728
 5020SOL    HW215513   3.154   3.443   0.859
 5021SOL     OW15514   2.330   3.010   0.734
 5021SOL    HW115515   2.260   2.992   0.797
 5021SOL    HW215516   2.289   2.996   0.649
 5022SOL     OW15517   3.132   3.659   0.605
 5022SOL    HW115518   3.176   3.723   0.549
 5022SOL    HW215519   3.062   3.709   0.648
 5023SOL     OW15520   2.861   2.409   0.060
 5023SOL    HW115521   2.861   2.406  13.864
 5023SOL    HW215522   2.953   2.410   0.085
 5024SOL     OW15523   1.937   2.423   1.386
 5024SOL    HW115524   2.030   2.419   1.365
 5024SOL    HW215525   1.931   2.489   1.455
 5025SOL     OW15526   2.418   2.084   1.167
 5025SOL    HW115527   2.465   2.005   1.195
 5025SOL    HW215528   2.333   2.078   1.212
 5026SOL     OW15529   2.727   2.320   0.639
 5026SOL    HW115530   2.687   2.376   0.573
 5026SOL    HW215531   2.751   2.240   0.592
 5027SOL     OW15532   2.874   1.915   0.753
 5027SOL    HW115533   2.819   1.905   0.675
 5027SOL    HW215534   2.854   1.839   0.807
 5028SOL     OW15535   3.298   3.025   0.857
 5028SOL    HW115536   3.230   2.958   0.856
 5028SOL    HW215537   3.322   3.037   0.765
 5029SOL     OW15538   3.328   2.467   0.979
 5029SOL    HW115539   3.280   2.384   0.982
 5029SOL    HW215540   3.389   2.462   1.053
 5030SOL     OW15541   3.722   2.679   0.374
 5030SOL    HW115542   3.766   2.624   0.439
 5030SOL    HW215543   3.683   2.617   0.312
 5031SOL     OW15544   2.351   3.265   0.158
 5031SOL    HW115545   2.275   3.236   0.209
 5031SOL    HW215546   2.330   3.244   0.068
 5032SOL     OW15547   3.528   3.127   0.647
 5032SOL    HW115548   3.623   3.131   0.657
 5032SOL    HW215549   3.498   3.216   0.665
 5033SOL     OW15550   3.282   2.448   0.087
 5033SOL    HW115551   3.213   2.438   0.152
 5033SOL    HW215552   3.323   2.361   0.082
 5034SOL     OW15553   2.384   2.126   0.320
 5034SOL    HW115554   2.434   2.086   0.249
 5034SOL    HW215555   2.357   2.211   0.286
 5035SOL     OW15556   3.614   3.097   1.572
 5035SOL    HW115557   3.701   3.061   1.555
 5035SOL    HW215558   3.631   3.186   1.604
 5036SOL     OW15559   2.921   3.214   1.333
 5036SOL    HW115560   2.847   3.184   1.385
 5036SOL    HW215561   2.997   3.174   1.375
 5037SOL     OW15562   3.468   3.489   1.654
 5037SOL    HW115563   3.461   3.522   1.564
 5037SOL    HW215564   3.550   3.440   1.655
 5038SOL     OW15565   2.989   3.064   1.106
 5038SOL    HW115566   2.931   3.103   1.171
 5038SOL    HW215567   2.956   3.097   1.022
 5039SOL     OW15568   3.494   2.961   1.077
 5039SOL    HW115569   3.487   3.022   1.150
 5039SOL    HW215570   3.414   2.976   1.025
 5040SOL     OW15571   2.779   1.961   1.396
 5040SOL    HW115572   2.803   1.940   1.306
 5040SOL    HW215573   2.858   1.999   1.434
 5041SOL     OW15574   2.846   2.976   1.722
 5041SOL    HW115575   2.754   2.992   1.743
 5041SOL    HW215576   2.845   2.899   1.667
 5042SOL     OW15577   2.576   2.921   0.376
 5042SOL    HW115578   2.561   2.905   0.469
 5042SOL    HW215579   2.651   2.865   0.354
 5043SOL     OW15580   2.279   2.675   1.251
 5043SOL    HW115581   2.348   2.687   1.317
 5043SOL    HW215582   2.244   2.587   1.268
 5044SOL     OW15583   3.128   2.239   1.275
 5044SOL    HW115584   3.161   2.317   1.321
 5044SOL    HW215585   3.039   2.262   1.251
 5045SOL     OW15586   1.931   3.434   1.350
 5045SOL    HW115587   1.901   3.509   1.299
 5045SOL    HW215588   2.027   3.440   1.347
 5046SOL     OW15589   2.211   2.973   0.489
 5046SOL    HW115590   2.213   3.045   0.427
 5046SOL    HW215591   2.217   2.894   0.435
 5047SOL     OW15592   2.410   2.400   0.863
 5047SOL    HW115593   2.426   2.456   0.787
 5047SOL    HW215594   2.476   2.427   0.927
 5048SOL     OW15595   3.110   3.208   0.396
 5048SOL    HW115596   3.166   3.281   0.422
 5048SOL    HW215597   3.023   3.232   0.428
 5049SOL     OW15598   3.141   3.320   1.147
 5049SOL    HW115599   3.197   3.322   1.224
 5049SOL    HW215600   3.086   3.242   1.160
 5050SOL     OW15601   3.445   2.487   0.481
 5050SOL    HW115602   3.397   2.540   0.545
 5050SOL    HW215603   3.479   2.551   0.418
 5051SOL     OW15604   2.209   3.388   1.316
 5051SOL    HW115605   2.196   3.345   1.231
 5051SOL    HW215606   2.303   3.400   1.323
 5052SOL     OW15607   2.276   2.608   1.602
 5052SOL    HW115608   2.338   2.652   1.544
 5052SOL    HW215609   2.319   2.526   1.626
 5053SOL     OW15610   3.462   2.639   1.679
 5053SOL    HW115611   3.376   2.681   1.673
 5053SOL    HW215612   3.514   2.682   1.612
 5054SOL     OW15613   2.857   1.983   1.754
 5054SOL    HW115614   2.913   2.056   1.726
 5054SOL    HW215615   2.906   1.905   1.730
 5055SOL     OW15616   2.374   1.899   1.746
 5055SOL    HW115617   2.328   1.843   1.683
 5055SOL    HW215618   2.312   1.969   1.765
 5056SOL     OW15619   2.445   2.734   1.031
 5056SOL    HW115620   2.476   2.825   1.028
 5056SOL    HW215621   2.389   2.731   1.109
 5057SOL     OW15622   3.221   2.721   1.031
 5057SOL    HW115623   3.139   2.712   0.982
 5057SOL    HW215624   3.261   2.634   1.027
 5058SOL     OW15625   3.080   2.404   0.274
 5058SOL    HW115626   3.084   2.323   0.325
 5058SOL    HW215627   3.025   2.462   0.327
 5059SOL     OW15628   1.908   3.172   1.277
 5059SOL    HW115629   1.941   3.119   1.349
 5059SOL    HW215630   1.915   3.262   1.308
 5060SOL     OW15631   2.585   2.491   1.057
 5060SOL    HW115632   2.661   2.475   1.001
 5060SOL    HW215633   2.559   2.581   1.038
 5061SOL     OW15634   3.594   2.821   1.857
 5061SOL    HW115635   3.550   2.764   1.794
 5061SOL    HW215636   3.531   2.832   1.927
 5062SOL     OW15637   2.223   1.907   0.620
 5062SOL    HW115638   2.146   1.958   0.596
 5062SOL    HW215639   2.202   1.871   0.706
 5063SOL     OW15640   3.480   2.236   0.373
 5063SOL    HW115641   3.503   2.171   0.438
 5063SOL    HW215642   3.455   2.313   0.424
 5064SOL     OW15643   2.888   2.621   0.961
 5064SOL    HW115644   2.887   2.639   1.055
 5064SOL    HW215645   2.863   2.529   0.954
 5065SOL     OW15646   2.846   3.429   1.717
 5065SOL    HW115647   2.829   3.472   1.633
 5065SOL    HW215648   2.888   3.347   1.694
 5066SOL     OW15649   3.708   3.367   1.600
 5066SOL    HW115650   3.730   3.394   1.511
 5066SOL    HW215651   3.789   3.381   1.650
 5067SOL     OW15652   2.216   2.780   1.808
 5067SOL    HW115653   2.298   2.797   1.854
 5067SOL    HW215654   2.239   2.717   1.739
 5068SOL     OW15655   3.411   2.125   0.135
 5068SOL    HW115656   3.354   2.052   0.158
 5068SOL    HW215657   3.435   2.164   0.220
 5069SOL     OW15658   3.155   2.692   0.055
 5069SOL    HW115659   3.202   2.608   0.060
 5069SOL    HW215660   3.174   2.724  13.867
 5070SOL     OW15661   2.927   3.197   0.853
 5070SOL    HW115662   2.931   3.125   0.791
 5070SOL    HW215663   2.989   3.261   0.818
 5071SOL     OW15664   2.172   2.672   0.946
 5071SOL    HW115665   2.265   2.695   0.939
 5071SOL    HW215666   2.172   2.586   0.988
 5072SOL     OW15667   2.189   2.359   1.013
 5072SOL    HW115668   2.149   2.286   0.966
 5072SOL    HW215669   2.268   2.380   0.962
 5073SOL     OW15670   2.996   2.239   1.681
 5073SOL    HW115671   2.949   2.294   1.744
 5073SOL    HW215672   3.084   2.277   1.677
 5074SOL     OW15673   3.022   2.066   1.469
 5074SOL    HW115674   3.012   2.128   1.541
 5074SOL    HW215675   3.062   2.117   1.399
 5075SOL     OW15676   1.879   3.176   0.182
 5075SOL    HW115677   1.799   3.186   0.131
 5075SOL    HW215678   1.873   3.087   0.218
 5076SOL     OW15679   1.957   3.646   0.937
 5076SOL    HW115680   1.926   3.567   0.893
 5076SOL    HW215681   2.043   3.663   0.899
 5077SOL     OW15682   2.359   3.436   0.906
 5077SOL    HW115683   2.427   3.499   0.930
 5077SOL    HW215684   2.405   3.373   0.851
 5078SOL     OW15685   2.847   2.654   1.227
 5078SOL    HW115686   2.903   2.631   1.301
 5078SOL    HW215687   2.761   2.620   1.251
 5079SOL     OW15688   1.899   2.399   1.117
 5079SOL    HW115689   1.984   2.397   1.072
 5079SOL    HW215690   1.921   2.413   1.209
 5080SOL     OW15691   2.058   2.384   1.723
 5080SOL    HW115692   2.118   2.352   1.655
 5080SOL    HW215693   2.008   2.453   1.681
 5081SOL     OW15694   3.239   2.802   1.659
 5081SOL    HW115695   3.260   2.895   1.658
 5081SOL    HW215696   3.236   2.777   1.567
 5082SOL     OW15697   2.676   2.437   0.368
 5082SOL    HW115698   2.689   2.362   0.310
 5082SOL    HW215699   2.604   2.486   0.329
 5083SOL     OW15700   3.504   2.464   1.187
 5083SOL    HW115701   3.492   2.403   1.261
 5083SOL    HW215702   3.589   2.441   1.151
 5084SOL     OW15703   2.108   3.413   1.728
 5084SOL    HW115704   2.084   3.478   1.794
 5084SOL    HW215705   2.107   3.330   1.775
 5085SOL     OW15706   2.555   2.314   1.262
 5085SOL    HW115707   2.508   2.238   1.227
 5085SOL    HW215708   2.556   2.377   1.189
 5086SOL     OW15709   2.793   3.536   1.467
 5086SOL    HW115710   2.765   3.502   1.382
 5086SOL    HW215711   2.786   3.631   1.458
 5087SOL     OW15712   2.305   2.359   0.229
 5087SOL    HW115713   2.370   2.429   0.235
 5087SOL    HW215714   2.228   2.402   0.191
 5088SOL     OW15715   2.009   3.002   1.472
 5088SOL    HW115716   2.011   2.950   1.552
 5088SOL    HW215717   2.026   2.940   1.402
 5089SOL     OW15718   3.188   2.909   1.224
 5089SOL    HW115719   3.213   2.847   1.156
 5089SOL    HW215720   3.117   2.961   1.185
 5090SOL     OW15721   3.172   2.720   0.324
 5090SOL    HW115722   3.096   2.686   0.372
 5090SOL    HW215723   3.151   2.706   0.232
 5091SOL     OW15724   3.634   3.607   1.151
 5091SOL    HW115725   3.693   3.633   1.079
 5091SOL    HW215726   3.609   3.517   1.130
 5092SOL     OW15727   3.105   3.596   1.114
 5092SOL    HW115728   3.187   3.615   1.069
 5092SOL    HW215729   3.109   3.502   1.133
 5093SOL     OW15730   1.946   3.127   1.013
 5093SOL    HW115731   1.933   3.141   1.107
 5093SOL    HW215732   1.871   3.075   0.985
 5094SOL     OW15733   2.540   3.525   1.726
 5094SOL    HW115734   2.486   3.604   1.730
 5094SOL    HW215735   2.600   3.540   1.653
 5095SOL     OW15736   2.781   1.966   0.134
 5095SOL    HW115737   2.817   1.957   0.046
 5095SOL    HW215738   2.830   1.904   0.187
 5096SOL     OW15739   3.572   2.006   0.515
 5096SOL    HW115740   3.650   1.998   0.461
 5096SOL    HW215741   3.562   1.919   0.555
 5097SOL     OW15742   3.251   3.433   0.483
 5097SOL    HW115743   3.314   3.467   0.418
 5097SOL    HW215744   3.205   3.511   0.514
 5098SOL     OW15745   1.994   3.655   1.840
 5098SOL    HW115746   1.942   3.591   1.888
 5098SOL    HW215747   2.044   3.701   1.907
 5099SOL     OW15748   3.138   2.787   0.671
 5099SOL    HW115749   3.212   2.726   0.677
 5099SOL    HW215750   3.172   2.860   0.619
 5100SOL     OW15751   2.678   3.134   1.431
 5100SOL    HW115752   2.650   3.173   1.514
 5100SOL    HW215753   2.608   3.158   1.369
 5101SOL     OW15754   2.547   3.447   0.178
 5101SOL    HW115755   2.525   3.493   0.097
 5101SOL    HW215756   2.489   3.371   0.178
 5102SOL     OW15757   3.487   3.588   1.390
 5102SOL    HW115758   3.540   3.593   1.311
 5102SOL    HW215759   3.475   3.679   1.417
 5103SOL     OW15760   3.699   2.042   0.968
 5103SOL    HW115761   3.730   1.956   0.942
 5103SOL    HW215762   3.613   2.051   0.928
 5104SOL     OW15763   3.081   3.463   0.031
 5104SOL    HW115764   3.070   3.373   0.061
 5104SOL    HW215765   3.039   3.465  13.845
 5105SOL     OW15766   2.686   2.868   1.371
 5105SOL    HW115767   2.730   2.865   1.286
 5105SOL    HW215768   2.686   2.960   1.395
 5106SOL     OW15769   2.782   2.772   0.287
 5106SOL    HW115770   2.852   2.810   0.234
 5106SOL    HW215771   2.824   2.701   0.335
 5107SOL     OW15772   3.350   3.498   0.066
 5107SOL    HW115773   3.257   3.485   0.051
 5107SOL    HW215774   3.389   3.502  13.879
 5108SOL     OW15775   2.232   3.164   1.491
 5108SOL    HW115776   2.218   3.242   1.437
 5108SOL    HW215777   2.154   3.110   1.476
 5109SOL     OW15778   3.466   3.142   1.279
 5109SOL    HW115779   3.534   3.137   1.347
 5109SOL    HW215780   3.409   3.213   1.308
 5110SOL     OW15781   2.912   2.968   0.705
 5110SOL    HW115782   2.842   2.916   0.745
 5110SOL    HW215783   2.975   2.903   0.674
 5111SOL     OW15784   2.881   2.102   0.966
 5111SOL    HW115785   2.877   2.054   0.883
 5111SOL    HW215786   2.878   2.034   1.033
 5112SOL     OW15787   2.465   3.352   0.481
 5112SOL    HW115788   2.507   3.300   0.413
 5112SOL    HW215789   2.399   3.404   0.435
 5113SOL     OW15790   3.583   2.253   1.379
 5113SOL    HW115791   3.655   2.316   1.375
 5113SOL    HW215792   3.613   2.180   1.323
 5114SOL     OW15793   2.129   3.190   0.295
 5114SOL    HW115794   2.044   3.199   0.252
 5114SOL    HW215795   2.119   3.235   0.378
 5115SOL     OW15796   1.974   2.882   1.718
 5115SOL    HW115797   1.897   2.860   1.772
 5115SOL    HW215798   2.048   2.846   1.767
 5116SOL     OW15799   2.535   2.060   1.499
 5116SOL    HW115800   2.618   2.039   1.457
 5116SOL    HW215801   2.559   2.089   1.587
 5117SOL     OW15802   1.875   2.287   0.050
 5117SOL    HW115803   1.861   2.192   0.055
 5117SOL    HW215804   1.937   2.299  13.879
 5118SOL     OW15805   3.292   2.721   1.401
 5118SOL    HW115806   3.242   2.781   1.346
 5118SOL    HW215807   3.380   2.722   1.366
 5119SOL     OW15808   3.047   3.211   0.122
 5119SOL    HW115809   2.954   3.192   0.112
 5119SOL    HW215810   3.064   3.197   0.216
 5120SOL     OW15811   2.481   2.692   1.432
 5120SOL    HW115812   2.536   2.770   1.418
 5120SOL    HW215813   2.543   2.620   1.441
 5121SOL     OW15814   3.347   3.641   0.980
 5121SOL    HW115815   3.373   3.691   0.902
 5121SOL    HW215816   3.430   3.615   1.020
 5122SOL     OW15817   2.580   2.425   1.703
 5122SOL    HW115818   2.617   2.489   1.764
 5122SOL    HW215819   2.609   2.340   1.736
 5123SOL     OW15820   3.332   3.063   1.632
 5123SOL    HW115821   3.321   3.077   1.727
 5123SOL    HW215822   3.426   3.077   1.617
 5124SOL     OW15823   2.241   3.601   1.562
 5124SOL    HW115824   2.155   3.640   1.548
 5124SOL    HW215825   2.223   3.517   1.604
 5125SOL     OW15826   3.529   2.743   1.258
 5125SOL    HW115827   3.526   2.658   1.215
 5125SOL    HW215828   3.524   2.807   1.187
 5126SOL     OW15829   3.081   2.182   0.455
 5126SOL    HW115830   3.145   2.111   0.448
 5126SOL    HW215831   3.108   2.231   0.533
 5127SOL     OW15832   2.450   2.600   0.670
 5127SOL    HW115833   2.491   2.685   0.655
 5127SOL    HW215834   2.382   2.594   0.602
 5128SOL     OW15835   3.625   2.225   1.649
 5128SOL    HW115836   3.607   2.237   1.555
 5128SOL    HW215837   3.555   2.167   1.679
 5129SOL     OW15838   3.613   2.793   1.514
 5129SOL    HW115839   3.609   2.887   1.529
 5129SOL    HW215840   3.592   2.782   1.421
 5130SOL     OW15841   2.767   3.257   0.057
 5130SOL    HW115842   2.694   3.247   0.119
 5130SOL    HW215843   2.724   3.276  13.873
 5131SOL     OW15844   2.521   3.654   0.945
 5131SOL    HW115845   2.499   3.744   0.921
 5131SOL    HW215846   2.617   3.651   0.938
 5132SOL     OW15847   2.728   2.828   0.855
 5132SOL    HW115848   2.779   2.757   0.895
 5132SOL    HW215849   2.695   2.879   0.929
 5133SOL     OW15850   2.959   2.867   0.107
 5133SOL    HW115851   2.949   2.915   0.024
 5133SOL    HW215852   3.035   2.810   0.091
 5134SOL     OW15853   3.718   3.417   0.841
 5134SOL    HW115854   3.638   3.402   0.790
 5134SOL    HW215855   3.713   3.352   0.911
 5135SOL     OW15856   2.087   3.165   1.856
 5135SOL    HW115857   2.019   3.104   1.827
 5135SOL    HW215858   2.070   3.178   1.949
 5136SOL     OW15859   1.945   3.095   0.665
 5136SOL    HW115860   1.950   3.046   0.747
 5136SOL    HW215861   2.017   3.060   0.612
 5137SOL     OW15862   2.543   3.264   1.627
 5137SOL    HW115863   2.463   3.221   1.658
 5137SOL    HW215864   2.539   3.352   1.664
 5138SOL     OW15865   3.677   2.043   1.240
 5138SOL    HW115866   3.671   1.948   1.245
 5138SOL    HW215867   3.689   2.061   1.146
 5139SOL     OW15868   2.291   2.293   0.532
 5139SOL    HW115869   2.322   2.235   0.463
 5139SOL    HW215870   2.251   2.234   0.597
 5140SOL     OW15871   3.561   3.353   1.099
 5140SOL    HW115872   3.481   3.327   1.054
 5140SOL    HW215873   3.577   3.284   1.163
 5141SOL     OW15874   2.191   2.416   1.289
 5141SOL    HW115875   2.238   2.357   1.348
 5141SOL    HW215876   2.211   2.383   1.201
 5142SOL     OW15877   2.688   3.440   0.678
 5142SOL    HW115878   2.679   3.488   0.596
 5142SOL    HW215879   2.611   3.384   0.682
 5143SOL     OW15880   3.294   2.087   1.118
 5143SOL    HW115881   3.319   2.007   1.163
 5143SOL    HW215882   3.242   2.136   1.182
 5144SOL     OW15883   2.870   1.881   1.144
 5144SOL    HW115884   2.817   1.812   1.103
 5144SOL    HW215885   2.958   1.844   1.146
 5145SOL     OW15886   2.632   3.184   0.318
 5145SOL    HW115887   2.603   3.095   0.335
 5145SOL    HW215888   2.717   3.190   0.361
 5146SOL     OW15889   2.482   3.418   1.284
 5146SOL    HW115890   2.484   3.499   1.335
 5146SOL    HW215891   2.569   3.411   1.246
 5147SOL     OW15892   3.210   1.927   0.163
 5147SOL    HW115893   3.242   1.868   0.094
 5147SOL    HW215894   3.128   1.887   0.192
 5148SOL     OW15895   3.157   2.322   0.681
 5148SOL    HW115896   3.105   2.402   0.690
 5148SOL    HW215897   3.155   2.282   0.768
 5149SOL     OW15898   3.446   2.065   0.876
 5149SOL    HW115899   3.385   2.085   0.947
 5149SOL    HW215900   3.447   2.143   0.822
 5150SOL     OW15901   1.902   2.932   0.308
 5150SOL    HW115902   1.997   2.928   0.304
 5150SOL    HW215903   1.875   2.842   0.329
 5151SOL     OW15904   2.753   3.516   0.347
 5151SOL    HW115905   2.682   3.486   0.290
 5151SOL    HW215906   2.717   3.592   0.392
 5152SOL     OW15907   2.094   2.492   1.983
 5152SOL    HW115908   2.007   2.471   2.018
 5152SOL    HW215909   2.092   2.460   1.892
 5153SOL     OW15910   1.868   2.283   2.494
 5153SOL    HW115911   1.779   2.278   2.529
 5153SOL    HW215912   1.878   2.203   2.442
 5154SOL     OW15913   2.429   3.147   3.035
 5154SOL    HW115914   2.341   3.151   2.997
 5154SOL    HW215915   2.444   3.236   3.070
 5155SOL     OW15916   3.421   3.374   2.569
 5155SOL    HW115917   3.378   3.353   2.652
 5155SOL    HW215918   3.349   3.378   2.505
 5156SOL     OW15919   2.991   2.561   2.564
 5156SOL    HW115920   3.041   2.641   2.549
 5156SOL    HW215921   2.945   2.576   2.647
 5157SOL     OW15922   3.627   2.470   2.093
 5157SOL    HW115923   3.608   2.461   1.999
 5157SOL    HW215924   3.592   2.390   2.132
 5158SOL     OW15925   2.619   3.005   2.901
 5158SOL    HW115926   2.549   3.039   2.958
 5158SOL    HW215927   2.654   3.082   2.857
 5159SOL     OW15928   2.726   2.639   3.683
 5159SOL    HW115929   2.714   2.710   3.746
 5159SOL    HW215930   2.750   2.683   3.602
 5160SOL     OW15931   2.548   2.865   2.510
 5160SOL    HW115932   2.613   2.853   2.579
 5160SOL    HW215933   2.478   2.917   2.550
 5161SOL     OW15934   2.571   3.013   3.673
 5161SOL    HW115935   2.619   3.092   3.699
 5161SOL    HW215936   2.488   3.046   3.638
 5162SOL     OW15937   2.193   3.288   2.930
 5162SOL    HW115938   2.120   3.252   2.879
 5162SOL    HW215939   2.243   3.340   2.866
 5163SOL     OW15940   3.322   3.361   3.214
 5163SOL    HW115941   3.372   3.443   3.225
 5163SOL    HW215942   3.263   3.359   3.289
 5164SOL     OW15943   2.284   2.239   3.342
 5164SOL    HW115944   2.373   2.204   3.355
 5164SOL    HW215945   2.227   2.163   3.352
 5165SOL     OW15946   3.474   2.310   2.603
 5165SOL    HW115947   3.400   2.335   2.548
 5165SOL    HW215948   3.493   2.389   2.655
 5166SOL     OW15949   2.082   3.579   2.341
 5166SOL    HW115950   2.117   3.639   2.406
 5166SOL    HW215951   2.151   3.573   2.275
 5167SOL     OW15952   2.998   3.203   3.554
 5167SOL    HW115953   3.039   3.198   3.641
 5167SOL    HW215954   2.945   3.124   3.548
 5168SOL     OW15955   2.090   3.303   2.396
 5168SOL    HW115956   2.073   3.397   2.403
 5168SOL    HW215957   2.031   3.263   2.460
 5169SOL     OW15958   2.118   2.953   2.753
 5169SOL    HW115959   2.114   2.867   2.795
 5169SOL    HW215960   2.060   3.008   2.806
 5170SOL     OW15961   2.475   3.649   3.292
 5170SOL    HW115962   2.393   3.634   3.338
 5170SOL    HW215963   2.500   3.738   3.317
 5171SOL     OW15964   2.450   2.842   1.995
 5171SOL    HW115965   2.494   2.893   1.927
 5171SOL    HW215966   2.489   2.873   2.076
 5172SOL     OW15967   3.458   1.985   3.330
 5172SOL    HW115968   3.460   2.066   3.279
 5172SOL    HW215969   3.446   2.014   3.421
 5173SOL     OW15970   1.982   2.520   2.422
 5173SOL    HW115971   1.948   2.433   2.442
 5173SOL    HW215972   1.971   2.570   2.503
 5174SOL     OW15973   3.699   3.617   2.203
 5174SOL    HW115974   3.766   3.591   2.266
 5174SOL    HW215975   3.722   3.706   2.178
 5175SOL     OW15976   1.889   3.456   1.985
 5175SOL    HW115977   1.875   3.364   2.006
 5175SOL    HW215978   1.869   3.503   2.066
 5176SOL     OW15979   3.550   2.781   2.503
 5176SOL    HW115980   3.634   2.739   2.486
 5176SOL    HW215981   3.531   2.831   2.423
 5177SOL     OW15982   3.503   2.969   2.293
 5177SOL    HW115983   3.588   2.976   2.249
 5177SOL    HW215984   3.510   3.030   2.366
 5178SOL     OW15985   1.983   2.606   3.445
 5178SOL    HW115986   2.074   2.630   3.460
 5178SOL    HW215987   1.934   2.688   3.456
 5179SOL     OW15988   2.476   3.247   2.597
 5179SOL    HW115989   2.429   3.163   2.606
 5179SOL    HW215990   2.458   3.273   2.506
 5180SOL     OW15991   3.151   3.100   3.286
 5180SOL    HW115992   3.184   3.034   3.226
 5180SOL    HW215993   3.208   3.094   3.362
 5181SOL     OW15994   2.696   1.860   2.377
 5181SOL    HW115995   2.736   1.945   2.355
 5181SOL    HW215996   2.602   1.876   2.374
 5182SOL     OW15997   2.053   2.831   3.131
 5182SOL    HW115998   2.137   2.787   3.116
 5182SOL    HW215999   1.988   2.773   3.091
 5183SOL     OW16000   3.392   2.855   2.060
 5183SOL    HW116001   3.322   2.798   2.092
 5183SOL    HW216002   3.432   2.890   2.139
 5184SOL     OW16003   3.072   3.664   3.487
 5184SOL    HW116004   3.056   3.723   3.413
 5184SOL    HW216005   3.074   3.577   3.447
 5185SOL     OW16006   3.327   3.282   2.813
 5185SOL    HW116007   3.259   3.296   2.880
 5185SOL    HW216008   3.316   3.191   2.787
 5186SOL     OW16009   3.515   3.601   2.441
 5186SOL    HW116010   3.502   3.569   2.352
 5186SOL    HW216011   3.495   3.526   2.497
 5187SOL     OW16012   2.459   2.586   2.128
 5187SOL    HW116013   2.464   2.667   2.076
 5187SOL    HW216014   2.393   2.606   2.195
 5188SOL     OW16015   3.141   2.213   2.795
 5188SOL    HW116016   3.052   2.179   2.803
 5188SOL    HW216017   3.192   2.161   2.856
 5189SOL     OW16018   3.439   3.536   2.170
 5189SOL    HW116019   3.530   3.564   2.166
 5189SOL    HW216020   3.416   3.515   2.079
 5190SOL     OW16021   2.655   2.479   3.312
 5190SOL    HW116022   2.630   2.457   3.402
 5190SOL    HW216023   2.613   2.413   3.258
 5191SOL     OW16024   3.256   2.335   3.540
 5191SOL    HW116025   3.257   2.380   3.625
 5191SOL    HW216026   3.317   2.263   3.550
 5192SOL     OW16027   2.818   2.750   3.444
 5192SOL    HW116028   2.872   2.679   3.409
 5192SOL    HW216029   2.771   2.784   3.368
 5193SOL     OW16030   2.855   2.275   3.101
 5193SOL    HW116031   2.771   2.297   3.140
 5193SOL    HW216032   2.833   2.228   3.021
 5194SOL     OW16033   2.912   2.560   2.288
 5194SOL    HW116034   2.927   2.554   2.382
 5194SOL    HW216035   2.830   2.514   2.274
 5195SOL     OW16036   1.950   2.684   2.639
 5195SOL    HW116037   2.032   2.678   2.688
 5195SOL    HW216038   1.907   2.762   2.673
 5196SOL     OW16039   1.987   3.698   3.437
 5196SOL    HW116040   1.986   3.681   3.531
 5196SOL    HW216041   1.895   3.710   3.413
 5197SOL     OW16042   2.754   2.211   2.058
 5197SOL    HW116043   2.796   2.271   1.996
 5197SOL    HW216044   2.766   2.124   2.018
 5198SOL     OW16045   3.574   2.439   3.690
 5198SOL    HW116046   3.535   2.513   3.644
 5198SOL    HW216047   3.595   2.376   3.621
 5199SOL     OW16048   3.237   3.004   2.404
 5199SOL    HW116049   3.317   2.990   2.352
 5199SOL    HW216050   3.185   3.066   2.352
 5200SOL     OW16051   2.406   2.052   2.755
 5200SOL    HW116052   2.410   2.075   2.848
 5200SOL    HW216053   2.427   2.134   2.710
 5201SOL     OW16054   2.869   3.308   2.335
 5201SOL    HW116055   2.829   3.380   2.286
 5201SOL    HW216056   2.852   3.329   2.427
 5202SOL     OW16057   2.213   3.670   2.703
 5202SOL    HW116058   2.263   3.590   2.721
 5202SOL    HW216059   2.274   3.741   2.723
 5203SOL     OW16060   3.665   2.923   2.728
 5203SOL    HW116061   3.610   2.902   2.653
 5203SOL    HW216062   3.605   2.927   2.802
 5204SOL     OW16063   3.090   3.399   3.374
 5204SOL    HW116064   3.075   3.327   3.435
 5204SOL    HW216065   3.026   3.385   3.304
 5205SOL     OW16066   2.182   2.817   2.112
 5205SOL    HW116067   2.263   2.836   2.065
 5205SOL    HW216068   2.150   2.736   2.073
 5206SOL     OW16069   3.339   2.603   2.590
 5206SOL    HW116070   3.330   2.559   2.674
 5206SOL    HW216071   3.416   2.658   2.599
 5207SOL     OW16072   2.328   3.126   3.599
 5207SOL    HW116073   2.300   3.131   3.508
 5207SOL    HW216074   2.246   3.124   3.649
 5208SOL     OW16075   2.975   3.642   2.086
 5208SOL    HW116076   2.913   3.594   2.141
 5208SOL    HW216077   3.004   3.578   2.021
 5209SOL     OW16078   3.488   3.244   1.951
 5209SOL    HW116079   3.446   3.328   1.933
 5209SOL    HW216080   3.421   3.179   1.931
 5210SOL     OW16081   2.331   3.596   2.187
 5210SOL    HW116082   2.366   3.661   2.246
 5210SOL    HW216083   2.404   3.573   2.129
 5211SOL     OW16084   3.263   1.970   2.294
 5211SOL    HW116085   3.253   1.945   2.202
 5211SOL    HW216086   3.357   1.975   2.308
 5212SOL     OW16087   2.120   3.655   3.090
 5212SOL    HW116088   2.169   3.588   3.138
 5212SOL    HW216089   2.106   3.617   3.003
 5213SOL     OW16090   2.800   3.561   2.763
 5213SOL    HW116091   2.877   3.508   2.784
 5213SOL    HW216092   2.754   3.512   2.695
 5214SOL     OW16093   2.254   2.557   2.339
 5214SOL    HW116094   2.275   2.464   2.348
 5214SOL    HW216095   2.160   2.563   2.357
 5215SOL     OW16096   3.399   2.088   3.588
 5215SOL    HW116097   3.407   2.109   3.681
 5215SOL    HW216098   3.331   2.020   3.584
 5216SOL     OW16099   2.503   1.988   1.968
 5216SOL    HW116100   2.570   1.924   1.991
 5216SOL    HW216101   2.457   1.950   1.894
 5217SOL     OW16102   2.628   2.138   3.615
 5217SOL    HW116103   2.703   2.080   3.618
 5217SOL    HW216104   2.580   2.120   3.696
 5218SOL     OW16105   2.738   3.382   3.056
 5218SOL    HW116106   2.723   3.347   2.968
 5218SOL    HW216107   2.808   3.328   3.092
 5219SOL     OW16108   3.203   2.451   3.294
 5219SOL    HW116109   3.234   2.419   3.379
 5219SOL    HW216110   3.239   2.539   3.287
 5220SOL     OW16111   2.676   3.258   2.800
 5220SOL    HW116112   2.760   3.247   2.755
 5220SOL    HW216113   2.612   3.258   2.729
 5221SOL     OW16114   2.788   2.370   2.766
 5221SOL    HW116115   2.766   2.363   2.673
 5221SOL    HW216116   2.823   2.284   2.789
 5222SOL     OW16117   2.442   1.926   2.342
 5222SOL    HW116118   2.368   1.917   2.403
 5222SOL    HW216119   2.424   2.007   2.294
 5223SOL     OW16120   3.290   3.061   1.903
 5223SOL    HW116121   3.321   2.985   1.953
 5223SOL    HW216122   3.204   3.080   1.941
 5224SOL     OW16123   2.802   2.110   2.323
 5224SOL    HW116124   2.774   2.150   2.241
 5224SOL    HW216125   2.897   2.124   2.325
 5225SOL     OW16126   2.942   2.542   3.322
 5225SOL    HW116127   2.874   2.476   3.327
 5225SOL    HW216128   3.024   2.492   3.315
 5226SOL     OW16129   3.085   3.431   2.655
 5226SOL    HW116130   3.103   3.500   2.591
 5226SOL    HW216131   3.154   3.442   2.721
 5227SOL     OW16132   2.330   3.011   2.597
 5227SOL    HW116133   2.260   2.992   2.659
 5227SOL    HW216134   2.291   2.994   2.511
 5228SOL     OW16135   3.131   3.659   2.467
 5228SOL    HW116136   3.175   3.723   2.412
 5228SOL    HW216137   3.062   3.708   2.510
 5229SOL     OW16138   2.886   2.405   1.883
 5229SOL    HW116139   2.844   2.489   1.863
 5229SOL    HW216140   2.951   2.426   1.950
 5230SOL     OW16141   1.937   2.423   3.248
 5230SOL    HW116142   2.030   2.419   3.227
 5230SOL    HW216143   1.931   2.489   3.317
 5231SOL     OW16144   2.418   2.084   3.029
 5231SOL    HW116145   2.464   2.005   3.056
 5231SOL    HW216146   2.333   2.078   3.073
 5232SOL     OW16147   2.727   2.320   2.502
 5232SOL    HW116148   2.685   2.375   2.436
 5232SOL    HW216149   2.751   2.240   2.455
 5233SOL     OW16150   2.874   1.916   2.615
 5233SOL    HW116151   2.819   1.904   2.537
 5233SOL    HW216152   2.854   1.839   2.669
 5234SOL     OW16153   3.299   3.025   2.719
 5234SOL    HW116154   3.230   2.958   2.718
 5234SOL    HW216155   3.323   3.037   2.628
 5235SOL     OW16156   3.328   2.467   2.841
 5235SOL    HW116157   3.280   2.384   2.844
 5235SOL    HW216158   3.389   2.462   2.915
 5236SOL     OW16159   3.722   2.681   2.237
 5236SOL    HW116160   3.767   2.625   2.301
 5236SOL    HW216161   3.685   2.620   2.173
 5237SOL     OW16162   2.354   3.277   2.020
 5237SOL    HW116163   2.279   3.249   2.072
 5237SOL    HW216164   2.335   3.244   1.932
 5238SOL     OW16165   3.528   3.127   2.509
 5238SOL    HW116166   3.623   3.131   2.518
 5238SOL    HW216167   3.498   3.216   2.530
 5239SOL     OW16168   3.256   2.433   1.933
 5239SOL    HW116169   3.195   2.415   2.005
 5239SOL    HW216170   3.340   2.400   1.965
 5240SOL     OW16171   2.384   2.130   2.177
 5240SOL    HW116172   2.425   2.079   2.107
 5240SOL    HW216173   2.364   2.214   2.136
 5241SOL     OW16174   3.614   3.097   3.434
 5241SOL    HW116175   3.701   3.061   3.417
 5241SOL    HW216176   3.631   3.186   3.466
 5242SOL     OW16177   2.921   3.215   3.195
 5242SOL    HW116178   2.847   3.184   3.247
 5242SOL    HW216179   2.997   3.174   3.237
 5243SOL     OW16180   3.468   3.490   3.516
 5243SOL    HW116181   3.461   3.522   3.426
 5243SOL    HW216182   3.550   3.440   3.517
 5244SOL     OW16183   2.989   3.064   2.968
 5244SOL    HW116184   2.931   3.103   3.033
 5244SOL    HW216185   2.956   3.096   2.884
 5245SOL     OW16186   3.494   2.961   2.938
 5245SOL    HW116187   3.487   3.022   3.012
 5245SOL    HW216188   3.414   2.975   2.888
 5246SOL     OW16189   2.779   1.961   3.258
 5246SOL    HW116190   2.803   1.940   3.168
 5246SOL    HW216191   2.858   1.999   3.296
 5247SOL     OW16192   2.846   2.976   3.584
 5247SOL    HW116193   2.754   2.992   3.605
 5247SOL    HW216194   2.845   2.899   3.529
 5248SOL     OW16195   2.571   2.923   2.233
 5248SOL    HW116196   2.556   2.907   2.327
 5248SOL    HW216197   2.646   2.869   2.211
 5249SOL     OW16198   2.279   2.675   3.113
 5249SOL    HW116199   2.348   2.687   3.179
 5249SOL    HW216200   2.244   2.588   3.130
 5250SOL     OW16201   3.128   2.239   3.137
 5250SOL    HW116202   3.161   2.317   3.183
 5250SOL    HW216203   3.039   2.262   3.113
 5251SOL     OW16204   1.931   3.434   3.212
 5251SOL    HW116205   1.901   3.510   3.161
 5251SOL    HW216206   2.027   3.440   3.209
 5252SOL     OW16207   2.213   2.970   2.353
 5252SOL    HW116208   2.217   3.043   2.291
 5252SOL    HW216209   2.210   2.892   2.297
 5253SOL     OW16210   2.410   2.400   2.725
 5253SOL    HW116211   2.426   2.457   2.649
 5253SOL    HW216212   2.477   2.427   2.789
 5254SOL     OW16213   3.110   3.210   2.251
 5254SOL    HW116214   3.166   3.281   2.282
 5254SOL    HW216215   3.023   3.231   2.285
 5255SOL     OW16216   3.141   3.320   3.009
 5255SOL    HW116217   3.197   3.322   3.086
 5255SOL    HW216218   3.086   3.242   3.021
 5256SOL     OW16219   3.443   2.485   2.340
 5256SOL    HW116220   3.398   2.541   2.404
 5256SOL    HW216221   3.487   2.547   2.282
 5257SOL     OW16222   2.209   3.388   3.178
 5257SOL    HW116223   2.196   3.346   3.093
 5257SOL    HW216224   2.303   3.400   3.185
 5258SOL     OW16225   2.276   2.608   3.464
 5258SOL    HW116226   2.338   2.652   3.406
 5258SOL    HW216227   2.319   2.526   3.488
 5259SOL     OW16228   3.462   2.639   3.541
 5259SOL    HW116229   3.376   2.681   3.535
 5259SOL    HW216230   3.514   2.682   3.474
 5260SOL     OW16231   2.857   1.983   3.616
 5260SOL    HW116232   2.913   2.056   3.588
 5260SOL    HW216233   2.906   1.905   3.592
 5261SOL     OW16234   2.373   1.900   3.608
 5261SOL    HW116235   2.327   1.844   3.545
 5261SOL    HW216236   2.310   1.969   3.628
 5262SOL     OW16237   2.445   2.734   2.894
 5262SOL    HW116238   2.476   2.825   2.890
 5262SOL    HW216239   2.389   2.731   2.971
 5263SOL     OW16240   3.221   2.721   2.893
 5263SOL    HW116241   3.139   2.712   2.844
 5263SOL    HW216242   3.261   2.634   2.889
 5264SOL     OW16243   3.067   2.391   2.129
 5264SOL    HW116244   3.076   2.312   2.184
 5264SOL    HW216245   3.025   2.455   2.186
 5265SOL     OW16246   1.908   3.172   3.139
 5265SOL    HW116247   1.941   3.119   3.211
 5265SOL    HW216248   1.915   3.262   3.170
 5266SOL     OW16249   2.585   2.491   2.919
 5266SOL    HW116250   2.660   2.475   2.863
 5266SOL    HW216251   2.559   2.581   2.900
 5267SOL     OW16252   3.594   2.821   3.719
 5267SOL    HW116253   3.550   2.764   3.656
 5267SOL    HW216254   3.531   2.832   3.789
 5268SOL     OW16255   2.221   1.903   2.478
 5268SOL    HW116256   2.146   1.959   2.458
 5268SOL    HW216257   2.204   1.870   2.566
 5269SOL     OW16258   3.478   2.236   2.230
 5269SOL    HW116259   3.505   2.172   2.295
 5269SOL    HW216260   3.455   2.314   2.280
 5270SOL     OW16261   2.889   2.621   2.823
 5270SOL    HW116262   2.887   2.639   2.917
 5270SOL    HW216263   2.863   2.529   2.816
 5271SOL     OW16264   2.846   3.429   3.579
 5271SOL    HW116265   2.829   3.472   3.495
 5271SOL    HW216266   2.888   3.347   3.556
 5272SOL     OW16267   3.708   3.367   3.462
 5272SOL    HW116268   3.730   3.394   3.373
 5272SOL    HW216269   3.789   3.381   3.512
 5273SOL     OW16270   2.216   2.780   3.670
 5273SOL    HW116271   2.298   2.797   3.716
 5273SOL    HW216272   2.239   2.717   3.601
 5274SOL     OW16273   3.392   2.136   1.989
 5274SOL    HW116274   3.327   2.070   2.015
 5274SOL    HW216275   3.425   2.171   2.072
 5275SOL     OW16276   3.154   2.688   1.894
 5275SOL    HW116277   3.198   2.603   1.897
 5275SOL    HW216278   3.186   2.728   1.812
 5276SOL     OW16279   2.927   3.197   2.715
 5276SOL    HW116280   2.930   3.124   2.653
 5276SOL    HW216281   2.989   3.261   2.680
 5277SOL     OW16282   2.172   2.673   2.809
 5277SOL    HW116283   2.265   2.695   2.800
 5277SOL    HW216284   2.172   2.586   2.850
 5278SOL     OW16285   2.189   2.360   2.874
 5278SOL    HW116286   2.149   2.287   2.827
 5278SOL    HW216287   2.268   2.380   2.824
 5279SOL     OW16288   2.996   2.239   3.543
 5279SOL    HW116289   2.949   2.294   3.606
 5279SOL    HW216290   3.084   2.277   3.539
 5280SOL     OW16291   3.022   2.066   3.331
 5280SOL    HW116292   3.012   2.128   3.403
 5280SOL    HW216293   3.062   2.117   3.261
 5281SOL     OW16294   1.867   3.184   2.057
 5281SOL    HW116295   1.780   3.197   2.020
 5281SOL    HW216296   1.864   3.094   2.091
 5282SOL     OW16297   1.956   3.647   2.799
 5282SOL    HW116298   1.926   3.567   2.755
 5282SOL    HW216299   2.043   3.663   2.761
 5283SOL     OW16300   2.359   3.436   2.768
 5283SOL    HW116301   2.427   3.499   2.792
 5283SOL    HW216302   2.404   3.372   2.713
 5284SOL     OW16303   2.847   2.654   3.089
 5284SOL    HW116304   2.903   2.631   3.163
 5284SOL    HW216305   2.761   2.620   3.113
 5285SOL     OW16306   1.899   2.398   2.979
 5285SOL    HW116307   1.983   2.397   2.934
 5285SOL    HW216308   1.921   2.413   3.071
 5286SOL     OW16309   2.060   2.386   3.584
 5286SOL    HW116310   2.120   2.354   3.516
 5286SOL    HW216311   2.010   2.455   3.542
 5287SOL     OW16312   3.239   2.802   3.521
 5287SOL    HW116313   3.260   2.895   3.520
 5287SOL    HW216314   3.236   2.777   3.429
 5288SOL     OW16315   2.677   2.431   2.222
 5288SOL    HW116316   2.681   2.356   2.162
 5288SOL    HW216317   2.604   2.483   2.190
 5289SOL     OW16318   3.504   2.464   3.049
 5289SOL    HW116319   3.492   2.403   3.123
 5289SOL    HW216320   3.589   2.441   3.013
 5290SOL     OW16321   2.108   3.413   3.590
 5290SOL    HW116322   2.084   3.478   3.656
 5290SOL    HW216323   2.107   3.330   3.637
 5291SOL     OW16324   2.555   2.314   3.124
 5291SOL    HW116325   2.508   2.238   3.089
 5291SOL    HW216326   2.556   2.377   3.051
 5292SOL     OW16327   2.793   3.536   3.329
 5292SOL    HW116328   2.765   3.502   3.244
 5292SOL    HW216329   2.785   3.631   3.320
 5293SOL     OW16330   2.327   2.360   2.054
 5293SOL    HW116331   2.384   2.434   2.073
 5293SOL    HW216332   2.241   2.399   2.036
 5294SOL     OW16333   2.009   3.002   3.334
 5294SOL    HW116334   2.011   2.950   3.414
 5294SOL    HW216335   2.026   2.940   3.264
 5295SOL     OW16336   3.188   2.909   3.086
 5295SOL    HW116337   3.212   2.847   3.018
 5295SOL    HW216338   3.117   2.961   3.047
 5296SOL     OW16339   3.172   2.718   2.169
 5296SOL    HW116340   3.096   2.688   2.218
 5296SOL    HW216341   3.148   2.705   2.077
 5297SOL     OW16342   3.634   3.607   3.012
 5297SOL    HW116343   3.693   3.633   2.941
 5297SOL    HW216344   3.609   3.517   2.992
 5298SOL     OW16345   3.105   3.596   2.976
 5298SOL    HW116346   3.187   3.615   2.931
 5298SOL    HW216347   3.109   3.502   2.995
 5299SOL     OW16348   1.945   3.128   2.875
 5299SOL    HW116349   1.932   3.141   2.969
 5299SOL    HW216350   1.872   3.074   2.847
 5300SOL     OW16351   2.540   3.525   3.588
 5300SOL    HW116352   2.486   3.604   3.592
 5300SOL    HW216353   2.600   3.540   3.515
 5301SOL     OW16354   3.576   2.007   2.376
 5301SOL    HW116355   3.645   1.994   2.310
 5301SOL    HW216356   3.564   1.921   2.415
 5302SOL     OW16357   3.251   3.430   2.346
 5302SOL    HW116358   3.312   3.462   2.279
 5302SOL    HW216359   3.205   3.509   2.376
 5303SOL     OW16360   1.994   3.655   3.702
 5303SOL    HW116361   1.942   3.591   3.750
 5303SOL    HW216362   2.044   3.701   3.769
 5304SOL     OW16363   3.139   2.787   2.533
 5304SOL    HW116364   3.213   2.726   2.539
 5304SOL    HW216365   3.173   2.860   2.481
 5305SOL     OW16366   2.678   3.134   3.293
 5305SOL    HW116367   2.650   3.173   3.376
 5305SOL    HW216368   2.608   3.157   3.231
 5306SOL     OW16369   2.537   3.477   2.018
 5306SOL    HW116370   2.544   3.492   1.924
 5306SOL    HW216371   2.480   3.400   2.026
 5307SOL     OW16372   3.487   3.588   3.252
 5307SOL    HW116373   3.540   3.593   3.173
 5307SOL    HW216374   3.475   3.679   3.279
 5308SOL     OW16375   3.699   2.042   2.831
 5308SOL    HW116376   3.730   1.956   2.804
 5308SOL    HW216377   3.613   2.051   2.789
 5309SOL     OW16378   3.068   3.469   1.896
 5309SOL    HW116379   3.059   3.377   1.921
 5309SOL    HW216380   3.007   3.481   1.824
 5310SOL     OW16381   2.686   2.868   3.233
 5310SOL    HW116382   2.730   2.865   3.148
 5310SOL    HW216383   2.686   2.960   3.257
 5311SOL     OW16384   2.778   2.772   2.152
 5311SOL    HW116385   2.839   2.804   2.085
 5311SOL    HW216386   2.826   2.702   2.197
 5312SOL     OW16387   3.353   3.490   1.903
 5312SOL    HW116388   3.259   3.480   1.888
 5312SOL    HW216389   3.391   3.495   1.816
 5313SOL     OW16390   2.232   3.164   3.353
 5313SOL    HW116391   2.218   3.242   3.299
 5313SOL    HW216392   2.154   3.109   3.338
 5314SOL     OW16393   3.466   3.142   3.141
 5314SOL    HW116394   3.534   3.137   3.209
 5314SOL    HW216395   3.409   3.213   3.170
 5315SOL     OW16396   2.912   2.968   2.568
 5315SOL    HW116397   2.842   2.917   2.607
 5315SOL    HW216398   2.974   2.903   2.535
 5316SOL     OW16399   2.881   2.102   2.828
 5316SOL    HW116400   2.877   2.054   2.745
 5316SOL    HW216401   2.878   2.034   2.895
 5317SOL     OW16402   2.464   3.352   2.343
 5317SOL    HW116403   2.507   3.301   2.274
 5317SOL    HW216404   2.398   3.404   2.297
 5318SOL     OW16405   3.583   2.253   3.241
 5318SOL    HW116406   3.655   2.316   3.237
 5318SOL    HW216407   3.613   2.180   3.185
 5319SOL     OW16408   2.121   3.208   2.150
 5319SOL    HW116409   2.028   3.205   2.127
 5319SOL    HW216410   2.123   3.245   2.238
 5320SOL     OW16411   1.974   2.882   3.581
 5320SOL    HW116412   1.897   2.860   3.634
 5320SOL    HW216413   2.048   2.846   3.629
 5321SOL     OW16414   2.535   2.060   3.361
 5321SOL    HW116415   2.618   2.039   3.319
 5321SOL    HW216416   2.559   2.089   3.449
 5322SOL     OW16417   1.898   2.277   1.924
 5322SOL    HW116418   1.855   2.197   1.893
 5322SOL    HW216419   1.949   2.307   1.849
 5323SOL     OW16420   3.292   2.721   3.263
 5323SOL    HW116421   3.242   2.781   3.208
 5323SOL    HW216422   3.380   2.722   3.228
 5324SOL     OW16423   3.041   3.202   1.979
 5324SOL    HW116424   2.950   3.172   1.981
 5324SOL    HW216425   3.069   3.201   2.070
 5325SOL     OW16426   2.481   2.692   3.294
 5325SOL    HW116427   2.536   2.770   3.280
 5325SOL    HW216428   2.543   2.620   3.303
 5326SOL     OW16429   3.347   3.641   2.841
 5326SOL    HW116430   3.373   3.691   2.764
 5326SOL    HW216431   3.429   3.615   2.883
 5327SOL     OW16432   2.580   2.425   3.565
 5327SOL    HW116433   2.617   2.489   3.626
 5327SOL    HW216434   2.609   2.340   3.598
 5328SOL     OW16435   3.332   3.063   3.494
 5328SOL    HW116436   3.321   3.077   3.589
 5328SOL    HW216437   3.426   3.077   3.479
 5329SOL     OW16438   2.241   3.601   3.424
 5329SOL    HW116439   2.155   3.640   3.410
 5329SOL    HW216440   2.223   3.517   3.466
 5330SOL     OW16441   3.529   2.743   3.120
 5330SOL    HW116442   3.526   2.658   3.077
 5330SOL    HW216443   3.524   2.806   3.049
 5331SOL     OW16444   3.080   2.182   2.319
 5331SOL    HW116445   3.143   2.110   2.311
 5331SOL    HW216446   3.109   2.230   2.397
 5332SOL     OW16447   2.451   2.600   2.532
 5332SOL    HW116448   2.491   2.685   2.516
 5332SOL    HW216449   2.383   2.593   2.464
 5333SOL     OW16450   3.625   2.225   3.511
 5333SOL    HW116451   3.607   2.237   3.418
 5333SOL    HW216452   3.555   2.167   3.541
 5334SOL     OW16453   3.614   2.793   3.376
 5334SOL    HW116454   3.609   2.887   3.391
 5334SOL    HW216455   3.592   2.782   3.283
 5335SOL     OW16456   2.725   3.230   1.895
 5335SOL    HW116457   2.684   3.257   1.977
 5335SOL    HW216458   2.742   3.312   1.849
 5336SOL     OW16459   2.521   3.654   2.807
 5336SOL    HW116460   2.499   3.744   2.783
 5336SOL    HW216461   2.617   3.651   2.800
 5337SOL     OW16462   2.728   2.828   2.718
 5337SOL    HW116463   2.779   2.757   2.758
 5337SOL    HW216464   2.695   2.878   2.792
 5338SOL     OW16465   2.941   2.850   1.951
 5338SOL    HW116466   2.920   2.901   1.872
 5338SOL    HW216467   3.016   2.797   1.925
 5339SOL     OW16468   3.717   3.418   2.704
 5339SOL    HW116469   3.638   3.400   2.652
 5339SOL    HW216470   3.716   3.351   2.772
 5340SOL     OW16471   2.087   3.165   3.718
 5340SOL    HW116472   2.019   3.104   3.689
 5340SOL    HW216473   2.069   3.178   3.811
 5341SOL     OW16474   1.946   3.097   2.526
 5341SOL    HW116475   1.950   3.048   2.608
 5341SOL    HW216476   2.014   3.057   2.471
 5342SOL     OW16477   2.543   3.264   3.489
 5342SOL    HW116478   2.463   3.221   3.520
 5342SOL    HW216479   2.539   3.352   3.526
 5343SOL     OW16480   3.677   2.043   3.102
 5343SOL    HW116481   3.671   1.948   3.108
 5343SOL    HW216482   3.689   2.061   3.008
 5344SOL     OW16483   2.291   2.293   2.386
 5344SOL    HW116484   2.324   2.232   2.320
 5344SOL    HW216485   2.251   2.237   2.452
 5345SOL     OW16486   3.561   3.353   2.961
 5345SOL    HW116487   3.481   3.327   2.916
 5345SOL    HW216488   3.577   3.284   3.025
 5346SOL     OW16489   2.191   2.416   3.151
 5346SOL    HW116490   2.238   2.357   3.210
 5346SOL    HW216491   2.211   2.383   3.063
 5347SOL     OW16492   2.688   3.440   2.540
 5347SOL    HW116493   2.678   3.486   2.457
 5347SOL    HW216494   2.611   3.383   2.546
 5348SOL     OW16495   3.294   2.087   2.980
 5348SOL    HW116496   3.319   2.007   3.025
 5348SOL    HW216497   3.242   2.136   3.044
 5349SOL     OW16498   2.870   1.881   3.006
 5349SOL    HW116499   2.817   1.812   2.965
 5349SOL    HW216500   2.958   1.844   3.008
 5350SOL     OW16501   2.634   3.194   2.176
 5350SOL    HW116502   2.601   3.104   2.181
 5350SOL    HW216503   2.716   3.192   2.224
 5351SOL     OW16504   2.482   3.418   3.146
 5351SOL    HW116505   2.484   3.499   3.197
 5351SOL    HW216506   2.569   3.411   3.108
 5352SOL     OW16507   3.214   1.916   2.026
 5352SOL    HW116508   3.242   1.852   1.960
 5352SOL    HW216509   3.127   1.886   2.053
 5353SOL     OW16510   3.158   2.322   2.544
 5353SOL    HW116511   3.105   2.402   2.552
 5353SOL    HW216512   3.155   2.283   2.631
 5354SOL     OW16513   3.446   2.065   2.738
 5354SOL    HW116514   3.385   2.085   2.809
 5354SOL    HW216515   3.447   2.143   2.684
 5355SOL     OW16516   1.906   2.934   2.168
 5355SOL    HW116517   1.999   2.925   2.150
 5355SOL    HW216518   1.877   2.845   2.190
 5356SOL     OW16519   2.745   3.516   2.207
 5356SOL    HW116520   2.675   3.496   2.145
 5356SOL    HW216521   2.714   3.593   2.255
 5357SOL     OW16522   2.094   2.491   3.845
 5357SOL    HW116523   2.007   2.471   3.879
 5357SOL    HW216524   2.092   2.461   3.754
 5358SOL     OW16525   1.865   2.284   4.353
 5358SOL    HW116526   1.777   2.280   4.390
 5358SOL    HW216527   1.872   2.207   4.297
 5359SOL     OW16528   2.428   3.147   4.897
 5359SOL    HW116529   2.341   3.152   4.859
 5359SOL    HW216530   2.444   3.235   4.932
 5360SOL     OW16531   3.421   3.374   4.431
 5360SOL    HW116532   3.378   3.353   4.514
 5360SOL    HW216533   3.349   3.378   4.367
 5361SOL     OW16534   2.991   2.561   4.426
 5361SOL    HW116535   3.041   2.641   4.411
 5361SOL    HW216536   2.945   2.576   4.509
 5362SOL     OW16537   3.627   2.470   3.955
 5362SOL    HW116538   3.608   2.461   3.861
 5362SOL    HW216539   3.592   2.390   3.994
 5363SOL     OW16540   2.618   3.005   4.763
 5363SOL    HW116541   2.549   3.039   4.820
 5363SOL    HW216542   2.653   3.082   4.719
 5364SOL     OW16543   2.724   2.639   5.545
 5364SOL    HW116544   2.716   2.709   5.609
 5364SOL    HW216545   2.750   2.683   5.464
 5365SOL     OW16546   2.548   2.865   4.372
 5365SOL    HW116547   2.613   2.853   4.441
 5365SOL    HW216548   2.478   2.917   4.412
 5366SOL     OW16549   2.571   3.013   5.534
 5366SOL    HW116550   2.619   3.092   5.561
 5366SOL    HW216551   2.488   3.046   5.500
 5367SOL     OW16552   2.193   3.288   4.791
 5367SOL    HW116553   2.120   3.252   4.741
 5367SOL    HW216554   2.243   3.340   4.728
 5368SOL     OW16555   3.322   3.362   5.076
 5368SOL    HW116556   3.372   3.443   5.087
 5368SOL    HW216557   3.263   3.359   5.151
 5369SOL     OW16558   2.285   2.240   5.206
 5369SOL    HW116559   2.374   2.206   5.218
 5369SOL    HW216560   2.229   2.163   5.211
 5370SOL     OW16561   3.474   2.310   4.465
 5370SOL    HW116562   3.400   2.335   4.410
 5370SOL    HW216563   3.493   2.389   4.517
 5371SOL     OW16564   2.083   3.579   4.203
 5371SOL    HW116565   2.117   3.639   4.268
 5371SOL    HW216566   2.151   3.573   4.137
 5372SOL     OW16567   2.998   3.203   5.416
 5372SOL    HW116568   3.039   3.198   5.503
 5372SOL    HW216569   2.945   3.124   5.410
 5373SOL     OW16570   2.090   3.303   4.258
 5373SOL    HW116571   2.073   3.397   4.265
 5373SOL    HW216572   2.031   3.263   4.322
 5374SOL     OW16573   2.118   2.953   4.615
 5374SOL    HW116574   2.114   2.867   4.657
 5374SOL    HW216575   2.060   3.008   4.668
 5375SOL     OW16576   2.475   3.649   5.154
 5375SOL    HW116577   2.393   3.634   5.200
 5375SOL    HW216578   2.500   3.738   5.179
 5376SOL     OW16579   2.450   2.842   3.857
 5376SOL    HW116580   2.494   2.893   3.789
 5376SOL    HW216581   2.489   2.873   3.938
 5377SOL     OW16582   3.458   1.985   5.192
 5377SOL    HW116583   3.461   2.066   5.141
 5377SOL    HW216584   3.446   2.014   5.283
 5378SOL     OW16585   1.982   2.521   4.284
 5378SOL    HW116586   1.947   2.434   4.303
 5378SOL    HW216587   1.971   2.570   4.365
 5379SOL     OW16588   3.699   3.617   4.064
 5379SOL    HW116589   3.766   3.591   4.127
 5379SOL    HW216590   3.722   3.706   4.040
 5380SOL     OW16591   1.889   3.456   3.847
 5380SOL    HW116592   1.875   3.364   3.868
 5380SOL    HW216593   1.869   3.503   3.928
 5381SOL     OW16594   3.550   2.781   4.365
 5381SOL    HW116595   3.634   2.740   4.348
 5381SOL    HW216596   3.531   2.831   4.285
 5382SOL     OW16597   3.503   2.969   4.155
 5382SOL    HW116598   3.588   2.976   4.111
 5382SOL    HW216599   3.510   3.030   4.228
 5383SOL     OW16600   1.983   2.606   5.308
 5383SOL    HW116601   2.074   2.631   5.321
 5383SOL    HW216602   1.934   2.688   5.317
 5384SOL     OW16603   2.476   3.247   4.459
 5384SOL    HW116604   2.429   3.163   4.468
 5384SOL    HW216605   2.458   3.273   4.368
 5385SOL     OW16606   3.151   3.100   5.148
 5385SOL    HW116607   3.184   3.034   5.088
 5385SOL    HW216608   3.208   3.094   5.225
 5386SOL     OW16609   2.697   1.860   4.239
 5386SOL    HW116610   2.736   1.945   4.217
 5386SOL    HW216611   2.602   1.877   4.236
 5387SOL     OW16612   2.053   2.830   4.994
 5387SOL    HW116613   2.137   2.787   4.978
 5387SOL    HW216614   1.989   2.774   4.952
 5388SOL     OW16615   3.392   2.855   3.922
 5388SOL    HW116616   3.322   2.798   3.954
 5388SOL    HW216617   3.432   2.890   4.001
 5389SOL     OW16618   3.072   3.664   5.349
 5389SOL    HW116619   3.056   3.723   5.275
 5389SOL    HW216620   3.074   3.577   5.309
 5390SOL     OW16621   3.326   3.282   4.675
 5390SOL    HW116622   3.259   3.296   4.742
 5390SOL    HW216623   3.316   3.191   4.649
 5391SOL     OW16624   3.515   3.601   4.303
 5391SOL    HW116625   3.502   3.568   4.214
 5391SOL    HW216626   3.495   3.526   4.359
 5392SOL     OW16627   2.459   2.586   3.990
 5392SOL    HW116628   2.464   2.667   3.938
 5392SOL    HW216629   2.393   2.606   4.057
 5393SOL     OW16630   3.141   2.213   4.657
 5393SOL    HW116631   3.052   2.179   4.665
 5393SOL    HW216632   3.192   2.161   4.718
 5394SOL     OW16633   3.439   3.536   4.032
 5394SOL    HW116634   3.530   3.564   4.028
 5394SOL    HW216635   3.416   3.515   3.941
 5395SOL     OW16636   2.655   2.479   5.175
 5395SOL    HW116637   2.630   2.457   5.264
 5395SOL    HW216638   2.612   2.413   5.120
 5396SOL     OW16639   3.256   2.335   5.402
 5396SOL    HW116640   3.257   2.380   5.487
 5396SOL    HW216641   3.317   2.263   5.412
 5397SOL     OW16642   2.818   2.750   5.306
 5397SOL    HW116643   2.872   2.679   5.271
 5397SOL    HW216644   2.771   2.784   5.229
 5398SOL     OW16645   2.855   2.275   4.963
 5398SOL    HW116646   2.771   2.298   5.002
 5398SOL    HW216647   2.832   2.228   4.883
 5399SOL     OW16648   2.912   2.560   4.150
 5399SOL    HW116649   2.927   2.554   4.244
 5399SOL    HW216650   2.830   2.514   4.136
 5400SOL     OW16651   1.950   2.683   4.502
 5400SOL    HW116652   2.032   2.679   4.551
 5400SOL    HW216653   1.907   2.762   4.535
 5401SOL     OW16654   1.987   3.698   5.299
 5401SOL    HW116655   1.986   3.681   5.393
 5401SOL    HW216656   1.895   3.710   5.276
 5402SOL     OW16657   2.754   2.211   3.920
 5402SOL    HW116658   2.796   2.271   3.858
 5402SOL    HW216659   2.765   2.124   3.880
 5403SOL     OW16660   3.574   2.439   5.552
 5403SOL    HW116661   3.535   2.513   5.506
 5403SOL    HW216662   3.595   2.376   5.482
 5404SOL     OW16663   3.237   3.004   4.266
 5404SOL    HW116664   3.317   2.990   4.214
 5404SOL    HW216665   3.185   3.066   4.214
 5405SOL     OW16666   2.405   2.052   4.617
 5405SOL    HW116667   2.409   2.075   4.710
 5405SOL    HW216668   2.427   2.134   4.571
 5406SOL     OW16669   2.869   3.308   4.197
 5406SOL    HW116670   2.829   3.380   4.148
 5406SOL    HW216671   2.852   3.329   4.289
 5407SOL     OW16672   2.213   3.670   4.565
 5407SOL    HW116673   2.263   3.590   4.583
 5407SOL    HW216674   2.274   3.741   4.585
 5408SOL     OW16675   3.665   2.923   4.590
 5408SOL    HW116676   3.609   2.902   4.515
 5408SOL    HW216677   3.605   2.927   4.664
 5409SOL     OW16678   3.089   3.399   5.236
 5409SOL    HW116679   3.075   3.327   5.297
 5409SOL    HW216680   3.026   3.385   5.166
 5410SOL     OW16681   2.182   2.817   3.974
 5410SOL    HW116682   2.263   2.836   3.927
 5410SOL    HW216683   2.150   2.736   3.935
 5411SOL     OW16684   3.339   2.603   4.452
 5411SOL    HW116685   3.330   2.559   4.536
 5411SOL    HW216686   3.416   2.658   4.461
 5412SOL     OW16687   2.327   3.126   5.461
 5412SOL    HW116688   2.300   3.131   5.370
 5412SOL    HW216689   2.246   3.124   5.511
 5413SOL     OW16690   2.975   3.642   3.948
 5413SOL    HW116691   2.913   3.594   4.003
 5413SOL    HW216692   3.004   3.578   3.883
 5414SOL     OW16693   3.488   3.244   3.813
 5414SOL    HW116694   3.446   3.328   3.795
 5414SOL    HW216695   3.421   3.179   3.793
 5415SOL     OW16696   2.331   3.596   4.049
 5415SOL    HW116697   2.366   3.661   4.108
 5415SOL    HW216698   2.404   3.573   3.991
 5416SOL     OW16699   3.263   1.970   4.156
 5416SOL    HW116700   3.254   1.945   4.064
 5416SOL    HW216701   3.357   1.975   4.170
 5417SOL     OW16702   2.119   3.655   4.952
 5417SOL    HW116703   2.169   3.588   5.000
 5417SOL    HW216704   2.106   3.617   4.865
 5418SOL     OW16705   2.800   3.561   4.625
 5418SOL    HW116706   2.877   3.508   4.646
 5418SOL    HW216707   2.754   3.512   4.557
 5419SOL     OW16708   2.254   2.557   4.201
 5419SOL    HW116709   2.275   2.464   4.210
 5419SOL    HW216710   2.160   2.563   4.219
 5420SOL     OW16711   3.399   2.088   5.450
 5420SOL    HW116712   3.408   2.109   5.543
 5420SOL    HW216713   3.331   2.020   5.447
 5421SOL     OW16714   2.504   1.988   3.830
 5421SOL    HW116715   2.570   1.924   3.853
 5421SOL    HW216716   2.457   1.950   3.756
 5422SOL     OW16717   2.627   2.137   5.475
 5422SOL    HW116718   2.703   2.080   5.479
 5422SOL    HW216719   2.584   2.127   5.560
 5423SOL     OW16720   2.738   3.382   4.918
 5423SOL    HW116721   2.723   3.347   4.830
 5423SOL    HW216722   2.808   3.328   4.954
 5424SOL     OW16723   3.203   2.451   5.156
 5424SOL    HW116724   3.234   2.419   5.241
 5424SOL    HW216725   3.239   2.539   5.149
 5425SOL     OW16726   2.676   3.258   4.662
 5425SOL    HW116727   2.760   3.247   4.618
 5425SOL    HW216728   2.612   3.258   4.591
 5426SOL     OW16729   2.788   2.370   4.628
 5426SOL    HW116730   2.766   2.363   4.535
 5426SOL    HW216731   2.823   2.284   4.651
 5427SOL     OW16732   2.443   1.926   4.204
 5427SOL    HW116733   2.368   1.915   4.263
 5427SOL    HW216734   2.424   2.007   4.156
 5428SOL     OW16735   3.290   3.061   3.765
 5428SOL    HW116736   3.321   2.985   3.815
 5428SOL    HW216737   3.204   3.080   3.803
 5429SOL     OW16738   2.803   2.110   4.185
 5429SOL    HW116739   2.774   2.150   4.103
 5429SOL    HW216740   2.897   2.124   4.187
 5430SOL     OW16741   2.942   2.542   5.183
 5430SOL    HW116742   2.874   2.476   5.190
 5430SOL    HW216743   3.024   2.493   5.177
 5431SOL     OW16744   3.085   3.431   4.517
 5431SOL    HW116745   3.103   3.500   4.453
 5431SOL    HW216746   3.154   3.442   4.583
 5432SOL     OW16747   2.330   3.011   4.459
 5432SOL    HW116748   2.260   2.992   4.521
 5432SOL    HW216749   2.291   2.994   4.373
 5433SOL     OW16750   3.131   3.659   4.329
 5433SOL    HW116751   3.175   3.723   4.274
 5433SOL    HW216752   3.062   3.708   4.372
 5434SOL     OW16753   2.886   2.405   3.745
 5434SOL    HW116754   2.844   2.489   3.725
 5434SOL    HW216755   2.951   2.426   3.812
 5435SOL     OW16756   1.937   2.423   5.111
 5435SOL    HW116757   2.030   2.418   5.089
 5435SOL    HW216758   1.931   2.490   5.179
 5436SOL     OW16759   2.417   2.084   4.891
 5436SOL    HW116760   2.464   2.005   4.918
 5436SOL    HW216761   2.332   2.077   4.935
 5437SOL     OW16762   2.727   2.320   4.364
 5437SOL    HW116763   2.685   2.375   4.298
 5437SOL    HW216764   2.751   2.240   4.317
 5438SOL     OW16765   2.874   1.916   4.477
 5438SOL    HW116766   2.819   1.904   4.399
 5438SOL    HW216767   2.854   1.839   4.531
 5439SOL     OW16768   3.299   3.025   4.581
 5439SOL    HW116769   3.230   2.958   4.580
 5439SOL    HW216770   3.323   3.037   4.490
 5440SOL     OW16771   3.328   2.467   4.703
 5440SOL    HW116772   3.280   2.384   4.706
 5440SOL    HW216773   3.389   2.462   4.777
 5441SOL     OW16774   3.722   2.681   4.099
 5441SOL    HW116775   3.767   2.625   4.163
 5441SOL    HW216776   3.685   2.620   4.035
 5442SOL     OW16777   2.354   3.277   3.882
 5442SOL    HW116778   2.279   3.249   3.934
 5442SOL    HW216779   2.335   3.244   3.794
 5443SOL     OW16780   3.528   3.127   4.371
 5443SOL    HW116781   3.623   3.131   4.380
 5443SOL    HW216782   3.498   3.216   4.392
 5444SOL     OW16783   3.256   2.433   3.795
 5444SOL    HW116784   3.195   2.415   3.867
 5444SOL    HW216785   3.340   2.400   3.827
 5445SOL     OW16786   2.384   2.130   4.039
 5445SOL    HW116787   2.425   2.079   3.969
 5445SOL    HW216788   2.364   2.214   3.998
 5446SOL     OW16789   3.614   3.097   5.296
 5446SOL    HW116790   3.701   3.061   5.279
 5446SOL    HW216791   3.631   3.186   5.328
 5447SOL     OW16792   2.921   3.215   5.057
 5447SOL    HW116793   2.847   3.184   5.109
 5447SOL    HW216794   2.997   3.174   5.099
 5448SOL     OW16795   3.468   3.490   5.378
 5448SOL    HW116796   3.461   3.522   5.288
 5448SOL    HW216797   3.550   3.440   5.379
 5449SOL     OW16798   2.989   3.064   4.830
 5449SOL    HW116799   2.931   3.103   4.895
 5449SOL    HW216800   2.955   3.097   4.746
 5450SOL     OW16801   3.494   2.961   4.800
 5450SOL    HW116802   3.487   3.022   4.874
 5450SOL    HW216803   3.414   2.976   4.750
 5451SOL     OW16804   2.779   1.961   5.120
 5451SOL    HW116805   2.803   1.940   5.030
 5451SOL    HW216806   2.858   1.999   5.158
 5452SOL     OW16807   2.846   2.977   5.446
 5452SOL    HW116808   2.754   2.992   5.467
 5452SOL    HW216809   2.845   2.899   5.390
 5453SOL     OW16810   2.571   2.923   4.095
 5453SOL    HW116811   2.557   2.907   4.189
 5453SOL    HW216812   2.646   2.869   4.073
 5454SOL     OW16813   2.279   2.675   4.975
 5454SOL    HW116814   2.348   2.687   5.041
 5454SOL    HW216815   2.244   2.587   4.992
 5455SOL     OW16816   3.128   2.239   4.999
 5455SOL    HW116817   3.161   2.317   5.045
 5455SOL    HW216818   3.039   2.262   4.975
 5456SOL     OW16819   1.931   3.434   5.074
 5456SOL    HW116820   1.901   3.510   5.023
 5456SOL    HW216821   2.027   3.440   5.071
 5457SOL     OW16822   2.213   2.970   4.215
 5457SOL    HW116823   2.217   3.043   4.153
 5457SOL    HW216824   2.210   2.892   4.159
 5458SOL     OW16825   2.411   2.400   4.587
 5458SOL    HW116826   2.426   2.457   4.511
 5458SOL    HW216827   2.477   2.427   4.651
 5459SOL     OW16828   3.110   3.210   4.113
 5459SOL    HW116829   3.166   3.281   4.144
 5459SOL    HW216830   3.023   3.231   4.147
 5460SOL     OW16831   3.141   3.320   4.871
 5460SOL    HW116832   3.197   3.322   4.948
 5460SOL    HW216833   3.086   3.242   4.883
 5461SOL     OW16834   3.443   2.485   4.202
 5461SOL    HW116835   3.398   2.541   4.266
 5461SOL    HW216836   3.487   2.547   4.144
 5462SOL     OW16837   2.209   3.388   5.040
 5462SOL    HW116838   2.196   3.345   4.955
 5462SOL    HW216839   2.303   3.400   5.047
 5463SOL     OW16840   2.276   2.608   5.326
 5463SOL    HW116841   2.338   2.652   5.267
 5463SOL    HW216842   2.319   2.526   5.349
 5464SOL     OW16843   3.462   2.639   5.403
 5464SOL    HW116844   3.376   2.681   5.397
 5464SOL    HW216845   3.514   2.682   5.336
 5465SOL     OW16846   2.857   1.983   5.478
 5465SOL    HW116847   2.913   2.056   5.451
 5465SOL    HW216848   2.906   1.905   5.453
 5466SOL     OW16849   2.372   1.899   5.469
 5466SOL    HW116850   2.326   1.844   5.406
 5466SOL    HW216851   2.310   1.968   5.491
 5467SOL     OW16852   2.445   2.734   4.756
 5467SOL    HW116853   2.476   2.825   4.752
 5467SOL    HW216854   2.389   2.731   4.833
 5468SOL     OW16855   3.221   2.721   4.755
 5468SOL    HW116856   3.139   2.712   4.706
 5468SOL    HW216857   3.261   2.634   4.751
 5469SOL     OW16858   3.067   2.391   3.991
 5469SOL    HW116859   3.076   2.312   4.046
 5469SOL    HW216860   3.025   2.455   4.048
 5470SOL     OW16861   1.907   3.172   5.001
 5470SOL    HW116862   1.941   3.119   5.073
 5470SOL    HW216863   1.915   3.262   5.032
 5471SOL     OW16864   2.585   2.491   4.781
 5471SOL    HW116865   2.660   2.475   4.725
 5471SOL    HW216866   2.559   2.581   4.762
 5472SOL     OW16867   3.594   2.821   5.580
 5472SOL    HW116868   3.550   2.763   5.518
 5472SOL    HW216869   3.531   2.832   5.651
 5473SOL     OW16870   2.221   1.897   4.336
 5473SOL    HW116871   2.149   1.958   4.318
 5473SOL    HW216872   2.205   1.868   4.426
 5474SOL     OW16873   3.478   2.236   4.092
 5474SOL    HW116874   3.505   2.172   4.157
 5474SOL    HW216875   3.455   2.314   4.142
 5475SOL     OW16876   2.889   2.621   4.685
 5475SOL    HW116877   2.887   2.639   4.779
 5475SOL    HW216878   2.863   2.529   4.678
 5476SOL     OW16879   2.846   3.429   5.441
 5476SOL    HW116880   2.829   3.472   5.357
 5476SOL    HW216881   2.888   3.347   5.418
 5477SOL     OW16882   3.708   3.367   5.324
 5477SOL    HW116883   3.730   3.394   5.235
 5477SOL    HW216884   3.789   3.381   5.374
 5478SOL     OW16885   2.215   2.778   5.533
 5478SOL    HW116886   2.298   2.797   5.577
 5478SOL    HW216887   2.239   2.717   5.464
 5479SOL     OW16888   3.392   2.136   3.851
 5479SOL    HW116889   3.327   2.070   3.877
 5479SOL    HW216890   3.425   2.171   3.934
 5480SOL     OW16891   3.154   2.688   3.756
 5480SOL    HW116892   3.198   2.603   3.759
 5480SOL    HW216893   3.186   2.728   3.674
 5481SOL     OW16894   2.927   3.197   4.577
 5481SOL    HW116895   2.930   3.124   4.515
 5481SOL    HW216896   2.989   3.261   4.542
 5482SOL     OW16897   2.172   2.673   4.671
 5482SOL    HW116898   2.265   2.696   4.662
 5482SOL    HW216899   2.172   2.586   4.712
 5483SOL     OW16900   2.189   2.360   4.736
 5483SOL    HW116901   2.149   2.288   4.688
 5483SOL    HW216902   2.268   2.381   4.686
 5484SOL     OW16903   2.996   2.239   5.405
 5484SOL    HW116904   2.950   2.294   5.468
 5484SOL    HW216905   3.084   2.276   5.401
 5485SOL     OW16906   3.022   2.066   5.193
 5485SOL    HW116907   3.012   2.128   5.265
 5485SOL    HW216908   3.062   2.117   5.123
 5486SOL     OW16909   1.867   3.184   3.919
 5486SOL    HW116910   1.780   3.197   3.882
 5486SOL    HW216911   1.864   3.094   3.953
 5487SOL     OW16912   1.956   3.647   4.661
 5487SOL    HW116913   1.926   3.567   4.617
 5487SOL    HW216914   2.043   3.663   4.623
 5488SOL     OW16915   2.359   3.436   4.630
 5488SOL    HW116916   2.427   3.499   4.654
 5488SOL    HW216917   2.404   3.372   4.575
 5489SOL     OW16918   2.847   2.654   4.951
 5489SOL    HW116919   2.903   2.631   5.025
 5489SOL    HW216920   2.761   2.620   4.975
 5490SOL     OW16921   1.899   2.397   4.842
 5490SOL    HW116922   1.983   2.398   4.796
 5490SOL    HW216923   1.921   2.413   4.933
 5491SOL     OW16924   2.061   2.387   5.448
 5491SOL    HW116925   2.121   2.355   5.381
 5491SOL    HW216926   2.011   2.457   5.404
 5492SOL     OW16927   3.239   2.802   5.383
 5492SOL    HW116928   3.260   2.895   5.382
 5492SOL    HW216929   3.237   2.777   5.291
 5493SOL     OW16930   2.677   2.431   4.084
 5493SOL    HW116931   2.681   2.356   4.024
 5493SOL    HW216932   2.604   2.483   4.052
 5494SOL     OW16933   3.504   2.464   4.911
 5494SOL    HW116934   3.492   2.403   4.985
 5494SOL    HW216935   3.589   2.441   4.875
 5495SOL     OW16936   2.108   3.413   5.452
 5495SOL    HW116937   2.084   3.478   5.518
 5495SOL    HW216938   2.107   3.330   5.499
 5496SOL     OW16939   2.554   2.314   4.986
 5496SOL    HW116940   2.508   2.238   4.951
 5496SOL    HW216941   2.556   2.377   4.913
 5497SOL     OW16942   2.792   3.536   5.191
 5497SOL    HW116943   2.765   3.502   5.106
 5497SOL    HW216944   2.785   3.631   5.182
 5498SOL     OW16945   2.327   2.360   3.916
 5498SOL    HW116946   2.384   2.434   3.935
 5498SOL    HW216947   2.241   2.399   3.898
 5499SOL     OW16948   2.009   3.002   5.196
 5499SOL    HW116949   2.011   2.950   5.276
 5499SOL    HW216950   2.026   2.940   5.126
 5500SOL     OW16951   3.188   2.909   4.948
 5500SOL    HW116952   3.212   2.847   4.880
 5500SOL    HW216953   3.117   2.961   4.909
 5501SOL     OW16954   3.172   2.718   4.031
 5501SOL    HW116955   3.096   2.688   4.080
 5501SOL    HW216956   3.148   2.705   3.939
 5502SOL     OW16957   3.634   3.607   4.874
 5502SOL    HW116958   3.693   3.633   4.803
 5502SOL    HW216959   3.609   3.517   4.854
 5503SOL     OW16960   3.105   3.596   4.838
 5503SOL    HW116961   3.187   3.615   4.793
 5503SOL    HW216962   3.109   3.502   4.857
 5504SOL     OW16963   1.946   3.128   4.737
 5504SOL    HW116964   1.932   3.141   4.831
 5504SOL    HW216965   1.872   3.074   4.709
 5505SOL     OW16966   2.540   3.525   5.450
 5505SOL    HW116967   2.486   3.604   5.454
 5505SOL    HW216968   2.600   3.540   5.378
 5506SOL     OW16969   3.576   2.007   4.238
 5506SOL    HW116970   3.645   1.994   4.172
 5506SOL    HW216971   3.564   1.921   4.277
 5507SOL     OW16972   3.251   3.430   4.208
 5507SOL    HW116973   3.312   3.462   4.141
 5507SOL    HW216974   3.205   3.509   4.238
 5508SOL     OW16975   1.994   3.655   5.564
 5508SOL    HW116976   1.942   3.591   5.612
 5508SOL    HW216977   2.044   3.701   5.631
 5509SOL     OW16978   3.139   2.787   4.395
 5509SOL    HW116979   3.213   2.726   4.401
 5509SOL    HW216980   3.173   2.860   4.343
 5510SOL     OW16981   2.678   3.134   5.155
 5510SOL    HW116982   2.651   3.173   5.238
 5510SOL    HW216983   2.608   3.157   5.093
 5511SOL     OW16984   2.537   3.477   3.880
 5511SOL    HW116985   2.544   3.492   3.786
 5511SOL    HW216986   2.480   3.400   3.888
 5512SOL     OW16987   3.487   3.588   5.114
 5512SOL    HW116988   3.540   3.593   5.035
 5512SOL    HW216989   3.475   3.679   5.141
 5513SOL     OW16990   3.699   2.042   4.693
 5513SOL    HW116991   3.730   1.956   4.666
 5513SOL    HW216992   3.613   2.051   4.651
 5514SOL     OW16993   3.068   3.469   3.758
 5514SOL    HW116994   3.059   3.377   3.783
 5514SOL    HW216995   3.007   3.481   3.686
 5515SOL     OW16996   2.686   2.868   5.095
 5515SOL    HW116997   2.730   2.865   5.011
 5515SOL    HW216998   2.686   2.960   5.119
 5516SOL     OW16999   2.778   2.772   4.014
 5516SOL    HW117000   2.839   2.804   3.947
 5516SOL    HW217001   2.826   2.702   4.059
 5517SOL     OW17002   3.353   3.490   3.765
 5517SOL    HW117003   3.259   3.480   3.750
 5517SOL    HW217004   3.391   3.495   3.678
 5518SOL     OW17005   2.232   3.164   5.215
 5518SOL    HW117006   2.218   3.242   5.161
 5518SOL    HW217007   2.154   3.110   5.199
 5519SOL     OW17008   3.466   3.142   5.003
 5519SOL    HW117009   3.533   3.137   5.071
 5519SOL    HW217010   3.409   3.213   5.032
 5520SOL     OW17011   2.912   2.968   4.430
 5520SOL    HW117012   2.842   2.917   4.469
 5520SOL    HW217013   2.975   2.903   4.397
 5521SOL     OW17014   2.881   2.102   4.690
 5521SOL    HW117015   2.877   2.054   4.607
 5521SOL    HW217016   2.878   2.034   4.757
 5522SOL     OW17017   2.464   3.352   4.205
 5522SOL    HW117018   2.507   3.301   4.136
 5522SOL    HW217019   2.398   3.404   4.159
 5523SOL     OW17020   3.583   2.253   5.103
 5523SOL    HW117021   3.655   2.316   5.099
 5523SOL    HW217022   3.613   2.180   5.047
 5524SOL     OW17023   2.121   3.208   4.012
 5524SOL    HW117024   2.028   3.205   3.989
 5524SOL    HW217025   2.123   3.245   4.100
 5525SOL     OW17026   1.974   2.882   5.443
 5525SOL    HW117027   1.898   2.860   5.496
 5525SOL    HW217028   2.048   2.846   5.491
 5526SOL     OW17029   2.534   2.060   5.222
 5526SOL    HW117030   2.618   2.039   5.180
 5526SOL    HW217031   2.558   2.088   5.311
 5527SOL     OW17032   1.897   2.278   3.781
 5527SOL    HW117033   1.857   2.197   3.749
 5527SOL    HW217034   1.950   2.309   3.708
 5528SOL     OW17035   3.292   2.721   5.125
 5528SOL    HW117036   3.243   2.781   5.070
 5528SOL    HW217037   3.380   2.722   5.090
 5529SOL     OW17038   3.041   3.202   3.841
 5529SOL    HW117039   2.950   3.172   3.843
 5529SOL    HW217040   3.069   3.201   3.932
 5530SOL     OW17041   2.481   2.692   5.156
 5530SOL    HW117042   2.536   2.770   5.142
 5530SOL    HW217043   2.543   2.620   5.165
 5531SOL     OW17044   3.347   3.641   4.703
 5531SOL    HW117045   3.373   3.691   4.626
 5531SOL    HW217046   3.429   3.615   4.745
 5532SOL     OW17047   2.579   2.426   5.427
 5532SOL    HW117048   2.617   2.490   5.487
 5532SOL    HW217049   2.610   2.342   5.461
 5533SOL     OW17050   3.332   3.064   5.357
 5533SOL    HW117051   3.321   3.077   5.451
 5533SOL    HW217052   3.426   3.077   5.341
 5534SOL     OW17053   2.241   3.601   5.286
 5534SOL    HW117054   2.155   3.640   5.272
 5534SOL    HW217055   2.223   3.517   5.328
 5535SOL     OW17056   3.529   2.743   4.982
 5535SOL    HW117057   3.526   2.658   4.939
 5535SOL    HW217058   3.524   2.806   4.911
 5536SOL     OW17059   3.080   2.182   4.181
 5536SOL    HW117060   3.143   2.110   4.173
 5536SOL    HW217061   3.109   2.230   4.259
 5537SOL     OW17062   2.450   2.600   4.394
 5537SOL    HW117063   2.491   2.685   4.378
 5537SOL    HW217064   2.383   2.593   4.326
 5538SOL     OW17065   3.625   2.225   5.372
 5538SOL    HW117066   3.607   2.237   5.279
 5538SOL    HW217067   3.556   2.167   5.403
 5539SOL     OW17068   3.614   2.793   5.238
 5539SOL    HW117069   3.609   2.887   5.253
 5539SOL    HW217070   3.592   2.782   5.145
 5540SOL     OW17071   2.725   3.230   3.757
 5540SOL    HW117072   2.684   3.257   3.839
 5540SOL    HW217073   2.742   3.312   3.711
 5541SOL     OW17074   2.521   3.654   4.668
 5541SOL    HW117075   2.499   3.744   4.645
 5541SOL    HW217076   2.617   3.650   4.662
 5542SOL     OW17077   2.728   2.828   4.580
 5542SOL    HW117078   2.779   2.757   4.620
 5542SOL    HW217079   2.695   2.878   4.654
 5543SOL     OW17080   2.941   2.850   3.813
 5543SOL    HW117081   2.920   2.901   3.734
 5543SOL    HW217082   3.016   2.797   3.787
 5544SOL     OW17083   3.717   3.418   4.566
 5544SOL    HW117084   3.638   3.400   4.514
 5544SOL    HW217085   3.716   3.352   4.635
 5545SOL     OW17086   2.087   3.166   5.580
 5545SOL    HW117087   2.019   3.105   5.551
 5545SOL    HW217088   2.070   3.178   5.673
 5546SOL     OW17089   1.946   3.097   4.388
 5546SOL    HW117090   1.950   3.048   4.470
 5546SOL    HW217091   2.014   3.057   4.333
 5547SOL     OW17092   2.542   3.264   5.350
 5547SOL    HW117093   2.463   3.221   5.382
 5547SOL    HW217094   2.539   3.352   5.388
 5548SOL     OW17095   3.677   2.043   4.964
 5548SOL    HW117096   3.671   1.948   4.970
 5548SOL    HW217097   3.689   2.061   4.870
 5549SOL     OW17098   2.292   2.293   4.248
 5549SOL    HW117099   2.323   2.232   4.181
 5549SOL    HW217100   2.251   2.238   4.314
 5550SOL     OW17101   3.561   3.353   4.823
 5550SOL    HW117102   3.481   3.327   4.778
 5550SOL    HW217103   3.577   3.284   4.887
 5551SOL     OW17104   2.191   2.416   5.013
 5551SOL    HW117105   2.239   2.358   5.072
 5551SOL    HW217106   2.211   2.383   4.925
 5552SOL     OW17107   2.688   3.440   4.402
 5552SOL    HW117108   2.678   3.486   4.319
 5552SOL    HW217109   2.611   3.383   4.408
 5553SOL     OW17110   3.294   2.087   4.842
 5553SOL    HW117111   3.320   2.007   4.887
 5553SOL    HW217112   3.242   2.136   4.906
 5554SOL     OW17113   2.870   1.881   4.868
 5554SOL    HW117114   2.817   1.812   4.827
 5554SOL    HW217115   2.958   1.844   4.870
 5555SOL     OW17116   2.634   3.194   4.038
 5555SOL    HW117117   2.601   3.104   4.043
 5555SOL    HW217118   2.716   3.192   4.086
 5556SOL     OW17119   2.482   3.418   5.008
 5556SOL    HW117120   2.484   3.499   5.058
 5556SOL    HW217121   2.569   3.411   4.970
 5557SOL     OW17122   3.214   1.916   3.888
 5557SOL    HW117123   3.242   1.852   3.822
 5557SOL    HW217124   3.127   1.886   3.915
 5558SOL     OW17125   3.158   2.322   4.406
 5558SOL    HW117126   3.105   2.402   4.414
 5558SOL    HW217127   3.155   2.283   4.493
 5559SOL     OW17128   3.446   2.065   4.600
 5559SOL    HW117129   3.385   2.085   4.671
 5559SOL    HW217130   3.447   2.143   4.546
 5560SOL     OW17131   1.906   2.934   4.030
 5560SOL    HW117132   1.999   2.925   4.012
 5560SOL    HW217133   1.877   2.845   4.052
 5561SOL     OW17134   2.745   3.516   4.069
 5561SOL    HW117135   2.675   3.496   4.007
 5561SOL    HW217136   2.714   3.593   4.117
 5562SOL     OW17137   2.093   2.488   5.709
 5562SOL    HW117138   2.003   2.473   5.739
 5562SOL    HW217139   2.093   2.460   5.617
 5563SOL     OW17140   2.429   3.149   6.760
 5563SOL    HW117141   2.341   3.151   6.722
 5563SOL    HW217142   2.444   3.237   6.793
 5564SOL     OW17143   3.421   3.374   6.293
 5564SOL    HW117144   3.378   3.353   6.376
 5564SOL    HW217145   3.349   3.377   6.230
 5565SOL     OW17146   2.996   2.562   6.291
 5565SOL    HW117147   3.043   2.643   6.275
 5565SOL    HW217148   2.950   2.575   6.374
 5566SOL     OW17149   3.629   2.469   5.816
 5566SOL    HW117150   3.609   2.460   5.723
 5566SOL    HW217151   3.592   2.391   5.857
 5567SOL     OW17152   2.618   3.006   6.624
 5567SOL    HW117153   2.549   3.039   6.682
 5567SOL    HW217154   2.653   3.084   6.581
 5568SOL     OW17155   2.731   2.640   7.407
 5568SOL    HW117156   2.715   2.713   7.467
 5568SOL    HW217157   2.752   2.681   7.323
 5569SOL     OW17158   2.549   2.870   6.236
 5569SOL    HW117159   2.614   2.856   6.304
 5569SOL    HW217160   2.480   2.921   6.278
 5570SOL     OW17161   2.570   3.013   7.399
 5570SOL    HW117162   2.619   3.091   7.424
 5570SOL    HW217163   2.488   3.046   7.362
 5571SOL     OW17164   2.193   3.289   6.654
 5571SOL    HW117165   2.119   3.254   6.604
 5571SOL    HW217166   2.243   3.340   6.590
 5572SOL     OW17167   3.322   3.361   6.938
 5572SOL    HW117168   3.372   3.443   6.949
 5572SOL    HW217169   3.263   3.359   7.013
 5573SOL     OW17170   2.273   2.252   7.046
 5573SOL    HW117171   2.334   2.178   7.038
 5573SOL    HW217172   2.189   2.211   7.069
 5574SOL     OW17173   3.474   2.311   6.327
 5574SOL    HW117174   3.398   2.333   6.274
 5574SOL    HW217175   3.490   2.388   6.381
 5575SOL     OW17176   2.083   3.579   6.065
 5575SOL    HW117177   2.117   3.639   6.131
 5575SOL    HW217178   2.152   3.573   5.999
 5576SOL     OW17179   2.998   3.203   7.279
 5576SOL    HW117180   3.038   3.198   7.365
 5576SOL    HW217181   2.945   3.123   7.271
 5577SOL     OW17182   2.090   3.303   6.120
 5577SOL    HW117183   2.073   3.397   6.127
 5577SOL    HW217184   2.030   3.263   6.183
 5578SOL     OW17185   2.117   2.953   6.481
 5578SOL    HW117186   2.101   2.874   6.533
 5578SOL    HW217187   2.063   3.020   6.522
 5579SOL     OW17188   2.475   3.649   7.016
 5579SOL    HW117189   2.393   3.634   7.062
 5579SOL    HW217190   2.500   3.738   7.041
 5580SOL     OW17191   2.450   2.844   5.719
 5580SOL    HW117192   2.495   2.894   5.650
 5580SOL    HW217193   2.490   2.874   5.800
 5581SOL     OW17194   3.459   1.984   7.055
 5581SOL    HW117195   3.458   2.065   7.003
 5581SOL    HW217196   3.446   2.013   7.145
 5582SOL     OW17197   3.699   3.617   5.926
 5582SOL    HW117198   3.766   3.591   5.989
 5582SOL    HW217199   3.722   3.706   5.902
 5583SOL     OW17200   1.889   3.456   5.709
 5583SOL    HW117201   1.875   3.364   5.731
 5583SOL    HW217202   1.869   3.504   5.790
 5584SOL     OW17203   3.551   2.783   6.227
 5584SOL    HW117204   3.635   2.740   6.210
 5584SOL    HW217205   3.532   2.831   6.147
 5585SOL     OW17206   3.503   2.969   6.016
 5585SOL    HW117207   3.588   2.976   5.973
 5585SOL    HW217208   3.509   3.030   6.090
 5586SOL     OW17209   2.476   3.247   6.321
 5586SOL    HW117210   2.430   3.164   6.331
 5586SOL    HW217211   2.459   3.274   6.230
 5587SOL     OW17212   3.152   3.100   7.010
 5587SOL    HW117213   3.184   3.034   6.949
 5587SOL    HW217214   3.209   3.093   7.086
 5588SOL     OW17215   2.040   2.841   6.845
 5588SOL    HW117216   2.126   2.798   6.851
 5588SOL    HW217217   1.982   2.773   6.812
 5589SOL     OW17218   3.392   2.855   5.784
 5589SOL    HW117219   3.322   2.798   5.816
 5589SOL    HW217220   3.432   2.890   5.863
 5590SOL     OW17221   3.072   3.664   7.211
 5590SOL    HW117222   3.056   3.723   7.137
 5590SOL    HW217223   3.074   3.577   7.172
 5591SOL     OW17224   3.326   3.282   6.537
 5591SOL    HW117225   3.259   3.296   6.604
 5591SOL    HW217226   3.316   3.191   6.511
 5592SOL     OW17227   3.514   3.601   6.165
 5592SOL    HW117228   3.502   3.568   6.076
 5592SOL    HW217229   3.495   3.526   6.221
 5593SOL     OW17230   2.456   2.588   5.847
 5593SOL    HW117231   2.468   2.667   5.796
 5593SOL    HW217232   2.393   2.612   5.915
 5594SOL     OW17233   3.144   2.213   6.518
 5594SOL    HW117234   3.054   2.181   6.526
 5594SOL    HW217235   3.194   2.160   6.580
 5595SOL     OW17236   3.438   3.536   5.894
 5595SOL    HW117237   3.530   3.564   5.890
 5595SOL    HW217238   3.416   3.515   5.803
 5596SOL     OW17239   2.661   2.469   7.043
 5596SOL    HW117240   2.637   2.440   7.131
 5596SOL    HW217241   2.602   2.421   6.985
 5597SOL     OW17242   3.256   2.336   7.264
 5597SOL    HW117243   3.258   2.380   7.349
 5597SOL    HW217244   3.317   2.263   7.274
 5598SOL     OW17245   2.819   2.750   7.167
 5598SOL    HW117246   2.874   2.680   7.131
 5598SOL    HW217247   2.773   2.786   7.091
 5599SOL     OW17248   2.863   2.272   6.823
 5599SOL    HW117249   2.784   2.309   6.861
 5599SOL    HW217250   2.831   2.222   6.747
 5600SOL     OW17251   2.912   2.560   6.014
 5600SOL    HW117252   2.927   2.549   6.108
 5600SOL    HW217253   2.830   2.512   5.998
 5601SOL     OW17254   1.987   3.698   7.161
 5601SOL    HW117255   1.986   3.681   7.255
 5601SOL    HW217256   1.895   3.709   7.137
 5602SOL     OW17257   2.746   2.210   5.774
 5602SOL    HW117258   2.793   2.272   5.719
 5602SOL    HW217259   2.777   2.124   5.746
 5603SOL     OW17260   3.575   2.439   7.414
 5603SOL    HW117261   3.535   2.513   7.368
 5603SOL    HW217262   3.595   2.376   7.345
 5604SOL     OW17263   3.238   3.005   6.128
 5604SOL    HW117264   3.317   2.991   6.075
 5604SOL    HW217265   3.186   3.066   6.076
 5605SOL     OW17266   2.869   3.308   6.059
 5605SOL    HW117267   2.829   3.380   6.011
 5605SOL    HW217268   2.853   3.328   6.151
 5606SOL     OW17269   2.213   3.670   6.427
 5606SOL    HW117270   2.263   3.590   6.445
 5606SOL    HW217271   2.274   3.741   6.447
 5607SOL     OW17272   3.665   2.924   6.452
 5607SOL    HW117273   3.610   2.901   6.377
 5607SOL    HW217274   3.605   2.928   6.526
 5608SOL     OW17275   3.089   3.399   7.098
 5608SOL    HW117276   3.075   3.327   7.159
 5608SOL    HW217277   3.026   3.384   7.027
 5609SOL     OW17278   2.184   2.818   5.836
 5609SOL    HW117279   2.265   2.837   5.789
 5609SOL    HW217280   2.151   2.737   5.795
 5610SOL     OW17281   3.340   2.603   6.312
 5610SOL    HW117282   3.328   2.558   6.396
 5610SOL    HW217283   3.416   2.659   6.325
 5611SOL     OW17284   2.327   3.124   7.323
 5611SOL    HW117285   2.300   3.130   7.232
 5611SOL    HW217286   2.244   3.126   7.373
 5612SOL     OW17287   2.975   3.642   5.810
 5612SOL    HW117288   2.914   3.594   5.866
 5612SOL    HW217289   3.004   3.578   5.745
 5613SOL     OW17290   3.489   3.244   5.674
 5613SOL    HW117291   3.446   3.328   5.657
 5613SOL    HW217292   3.421   3.179   5.655
 5614SOL     OW17293   2.331   3.596   5.911
 5614SOL    HW117294   2.366   3.661   5.970
 5614SOL    HW217295   2.404   3.573   5.853
 5615SOL     OW17296   3.264   1.969   6.018
 5615SOL    HW117297   3.255   1.945   5.926
 5615SOL    HW217298   3.358   1.976   6.032
 5616SOL     OW17299   2.120   3.655   6.814
 5616SOL    HW117300   2.169   3.588   6.862
 5616SOL    HW217301   2.107   3.617   6.727
 5617SOL     OW17302   2.800   3.561   6.487
 5617SOL    HW117303   2.876   3.507   6.509
 5617SOL    HW217304   2.754   3.512   6.419
 5618SOL     OW17305   2.250   2.565   6.052
 5618SOL    HW117306   2.269   2.472   6.046
 5618SOL    HW217307   2.163   2.569   6.092
 5619SOL     OW17308   3.399   2.087   7.311
 5619SOL    HW117309   3.407   2.108   7.405
 5619SOL    HW217310   3.328   2.023   7.307
 5620SOL     OW17311   2.503   1.982   5.691
 5620SOL    HW117312   2.581   1.927   5.701
 5620SOL    HW217313   2.458   1.946   5.615
 5621SOL     OW17314   2.738   3.383   6.780
 5621SOL    HW117315   2.723   3.347   6.693
 5621SOL    HW217316   2.808   3.328   6.817
 5622SOL     OW17317   3.203   2.451   7.018
 5622SOL    HW117318   3.234   2.419   7.103
 5622SOL    HW217319   3.239   2.539   7.011
 5623SOL     OW17320   2.676   3.259   6.524
 5623SOL    HW117321   2.760   3.247   6.480
 5623SOL    HW217322   2.612   3.258   6.453
 5624SOL     OW17323   2.784   2.365   6.488
 5624SOL    HW117324   2.785   2.363   6.392
 5624SOL    HW217325   2.824   2.283   6.514
 5625SOL     OW17326   3.290   3.060   5.627
 5625SOL    HW117327   3.322   2.985   5.677
 5625SOL    HW217328   3.204   3.080   5.665
 5626SOL     OW17329   2.804   2.086   6.054
 5626SOL    HW117330   2.762   2.136   5.984
 5626SOL    HW217331   2.897   2.109   6.047
 5627SOL     OW17332   2.942   2.543   7.042
 5627SOL    HW117333   2.874   2.476   7.052
 5627SOL    HW217334   3.024   2.493   7.037
 5628SOL     OW17335   3.086   3.431   6.379
 5628SOL    HW117336   3.104   3.500   6.315
 5628SOL    HW217337   3.154   3.442   6.445
 5629SOL     OW17338   2.329   3.012   6.321
 5629SOL    HW117339   2.260   2.992   6.385
 5629SOL    HW217340   2.289   2.994   6.236
 5630SOL     OW17341   3.132   3.659   6.191
 5630SOL    HW117342   3.175   3.724   6.135
 5630SOL    HW217343   3.062   3.708   6.234
 5631SOL     OW17344   2.888   2.406   5.606
 5631SOL    HW117345   2.844   2.489   5.588
 5631SOL    HW217346   2.950   2.426   5.676
 5632SOL     OW17347   2.793   2.318   6.219
 5632SOL    HW117348   2.705   2.350   6.201
 5632SOL    HW217349   2.796   2.231   6.179
 5633SOL     OW17350   2.886   1.917   6.344
 5633SOL    HW117351   2.824   1.928   6.272
 5633SOL    HW217352   2.856   1.839   6.390
 5634SOL     OW17353   3.298   3.026   6.443
 5634SOL    HW117354   3.231   2.957   6.443
 5634SOL    HW217355   3.321   3.036   6.351
 5635SOL     OW17356   3.329   2.466   6.564
 5635SOL    HW117357   3.279   2.385   6.568
 5635SOL    HW217358   3.389   2.461   6.639
 5636SOL     OW17359   3.722   2.681   5.961
 5636SOL    HW117360   3.767   2.625   6.025
 5636SOL    HW217361   3.685   2.619   5.898
 5637SOL     OW17362   2.354   3.277   5.744
 5637SOL    HW117363   2.279   3.249   5.796
 5637SOL    HW217364   2.335   3.244   5.656
 5638SOL     OW17365   3.528   3.128   6.232
 5638SOL    HW117366   3.623   3.132   6.242
 5638SOL    HW217367   3.498   3.216   6.254
 5639SOL     OW17368   3.255   2.433   5.658
 5639SOL    HW117369   3.194   2.415   5.729
 5639SOL    HW217370   3.340   2.401   5.690
 5640SOL     OW17371   2.376   2.108   5.900
 5640SOL    HW117372   2.425   2.069   5.828
 5640SOL    HW217373   2.360   2.198   5.872
 5641SOL     OW17374   3.614   3.097   7.158
 5641SOL    HW117375   3.701   3.061   7.141
 5641SOL    HW217376   3.631   3.186   7.190
 5642SOL     OW17377   2.922   3.217   6.921
 5642SOL    HW117378   2.847   3.185   6.971
 5642SOL    HW217379   2.997   3.174   6.961
 5643SOL     OW17380   3.468   3.490   7.240
 5643SOL    HW117381   3.461   3.523   7.150
 5643SOL    HW217382   3.550   3.441   7.241
 5644SOL     OW17383   2.992   3.067   6.692
 5644SOL    HW117384   2.931   3.101   6.757
 5644SOL    HW217385   2.955   3.095   6.608
 5645SOL     OW17386   3.494   2.961   6.662
 5645SOL    HW117387   3.487   3.022   6.736
 5645SOL    HW217388   3.414   2.975   6.612
 5646SOL     OW17389   2.803   1.932   6.981
 5646SOL    HW117390   2.810   1.940   6.886
 5646SOL    HW217391   2.871   1.989   7.015
 5647SOL     OW17392   2.846   2.976   7.309
 5647SOL    HW117393   2.753   2.991   7.328
 5647SOL    HW217394   2.846   2.898   7.252
 5648SOL     OW17395   2.570   2.922   5.958
 5648SOL    HW117396   2.558   2.908   6.052
 5648SOL    HW217397   2.646   2.869   5.935
 5649SOL     OW17398   2.265   2.698   6.866
 5649SOL    HW117399   2.337   2.703   6.929
 5649SOL    HW217400   2.277   2.613   6.823
 5650SOL     OW17401   3.132   2.239   6.860
 5650SOL    HW117402   3.162   2.318   6.906
 5650SOL    HW217403   3.041   2.259   6.835
 5651SOL     OW17404   1.932   3.434   6.936
 5651SOL    HW117405   1.902   3.510   6.885
 5651SOL    HW217406   2.027   3.439   6.933
 5652SOL     OW17407   2.211   2.968   6.077
 5652SOL    HW117408   2.218   3.044   6.020
 5652SOL    HW217409   2.210   2.893   6.017
 5653SOL     OW17410   3.110   3.210   5.974
 5653SOL    HW117411   3.166   3.281   6.006
 5653SOL    HW217412   3.023   3.231   6.009
 5654SOL     OW17413   3.141   3.320   6.732
 5654SOL    HW117414   3.196   3.321   6.810
 5654SOL    HW217415   3.086   3.242   6.742
 5655SOL     OW17416   3.443   2.486   6.063
 5655SOL    HW117417   3.397   2.538   6.129
 5655SOL    HW217418   3.486   2.550   6.007
 5656SOL     OW17419   2.209   3.388   6.902
 5656SOL    HW117420   2.196   3.346   6.817
 5656SOL    HW217421   2.303   3.401   6.909
 5657SOL     OW17422   3.462   2.640   7.266
 5657SOL    HW117423   3.376   2.681   7.259
 5657SOL    HW217424   3.515   2.682   7.198
 5658SOL     OW17425   2.882   1.978   7.358
 5658SOL    HW117426   2.908   2.056   7.309
 5658SOL    HW217427   2.929   1.906   7.316
 5659SOL     OW17428   2.446   2.736   6.617
 5659SOL    HW117429   2.481   2.825   6.612
 5659SOL    HW217430   2.389   2.737   6.694
 5660SOL     OW17431   3.221   2.721   6.616
 5660SOL    HW117432   3.136   2.711   6.572
 5660SOL    HW217433   3.260   2.634   6.612
 5661SOL     OW17434   3.066   2.391   5.854
 5661SOL    HW117435   3.075   2.313   5.908
 5661SOL    HW217436   3.022   2.455   5.910
 5662SOL     OW17437   2.260   2.042   6.862
 5662SOL    HW117438   2.185   2.089   6.898
 5662SOL    HW217439   2.228   1.953   6.849
 5663SOL     OW17440   1.906   3.173   6.862
 5663SOL    HW117441   1.940   3.119   6.933
 5663SOL    HW217442   1.915   3.263   6.894
 5664SOL     OW17443   2.629   2.527   6.674
 5664SOL    HW117444   2.655   2.473   6.600
 5664SOL    HW217445   2.563   2.586   6.640
 5665SOL     OW17446   3.594   2.821   7.443
 5665SOL    HW117447   3.550   2.763   7.380
 5665SOL    HW217448   3.530   2.832   7.513
 5666SOL     OW17449   3.478   2.236   5.954
 5666SOL    HW117450   3.505   2.172   6.020
 5666SOL    HW217451   3.454   2.314   6.004
 5667SOL     OW17452   2.893   2.619   6.546
 5667SOL    HW117453   2.889   2.642   6.639
 5667SOL    HW217454   2.855   2.532   6.541
 5668SOL     OW17455   2.846   3.429   7.303
 5668SOL    HW117456   2.829   3.472   7.219
 5668SOL    HW217457   2.888   3.346   7.280
 5669SOL     OW17458   3.708   3.367   7.187
 5669SOL    HW117459   3.729   3.394   7.097
 5669SOL    HW217460   3.789   3.381   7.236
 5670SOL     OW17461   2.218   2.773   7.381
 5670SOL    HW117462   2.297   2.808   7.423
 5670SOL    HW217463   2.250   2.727   7.304
 5671SOL     OW17464   3.393   2.135   5.713
 5671SOL    HW117465   3.328   2.070   5.739
 5671SOL    HW217466   3.425   2.171   5.796
 5672SOL     OW17467   3.154   2.688   5.617
 5672SOL    HW117468   3.197   2.603   5.621
 5672SOL    HW217469   3.186   2.727   5.536
 5673SOL     OW17470   2.925   3.198   6.437
 5673SOL    HW117471   2.930   3.124   6.376
 5673SOL    HW217472   2.989   3.261   6.404
 5674SOL     OW17473   2.994   2.246   7.262
 5674SOL    HW117474   2.949   2.296   7.330
 5674SOL    HW217475   3.083   2.281   7.261
 5675SOL     OW17476   3.028   2.067   7.058
 5675SOL    HW117477   3.014   2.131   7.128
 5675SOL    HW217478   3.064   2.118   6.985
 5676SOL     OW17479   1.867   3.185   5.781
 5676SOL    HW117480   1.780   3.198   5.743
 5676SOL    HW217481   1.865   3.095   5.814
 5677SOL     OW17482   1.956   3.647   6.522
 5677SOL    HW117483   1.926   3.567   6.479
 5677SOL    HW217484   2.043   3.663   6.485
 5678SOL     OW17485   2.359   3.436   6.492
 5678SOL    HW117486   2.427   3.499   6.516
 5678SOL    HW217487   2.405   3.372   6.437
 5679SOL     OW17488   2.850   2.664   6.811
 5679SOL    HW117489   2.892   2.630   6.891
 5679SOL    HW217490   2.767   2.616   6.805
 5680SOL     OW17491   3.239   2.802   7.245
 5680SOL    HW117492   3.260   2.896   7.244
 5680SOL    HW217493   3.236   2.776   7.153
 5681SOL     OW17494   2.681   2.437   5.929
 5681SOL    HW117495   2.677   2.355   5.880
 5681SOL    HW217496   2.603   2.485   5.903
 5682SOL     OW17497   3.504   2.464   6.774
 5682SOL    HW117498   3.492   2.403   6.847
 5682SOL    HW217499   3.589   2.441   6.737
 5683SOL     OW17500   2.108   3.413   7.314
 5683SOL    HW117501   2.084   3.478   7.381
 5683SOL    HW217502   2.107   3.330   7.361
 5684SOL     OW17503   2.792   3.536   7.054
 5684SOL    HW117504   2.766   3.501   6.969
 5684SOL    HW217505   2.785   3.631   7.043
 5685SOL     OW17506   2.323   2.356   5.792
 5685SOL    HW117507   2.383   2.431   5.800
 5685SOL    HW217508   2.240   2.395   5.764
 5686SOL     OW17509   2.008   3.004   7.057
 5686SOL    HW117510   2.013   2.949   7.136
 5686SOL    HW217511   2.023   2.942   6.985
 5687SOL     OW17512   3.189   2.910   6.809
 5687SOL    HW117513   3.212   2.846   6.742
 5687SOL    HW217514   3.118   2.961   6.771
 5688SOL     OW17515   3.172   2.719   5.893
 5688SOL    HW117516   3.097   2.688   5.944
 5688SOL    HW217517   3.147   2.704   5.802
 5689SOL     OW17518   3.634   3.607   6.736
 5689SOL    HW117519   3.693   3.633   6.665
 5689SOL    HW217520   3.609   3.517   6.716
 5690SOL     OW17521   3.105   3.596   6.700
 5690SOL    HW117522   3.187   3.614   6.655
 5690SOL    HW217523   3.108   3.503   6.719
 5691SOL     OW17524   1.947   3.133   6.596
 5691SOL    HW117525   1.932   3.141   6.690
 5691SOL    HW217526   1.877   3.075   6.566
 5692SOL     OW17527   2.540   3.525   7.312
 5692SOL    HW117528   2.486   3.604   7.316
 5692SOL    HW217529   2.600   3.539   7.240
 5693SOL     OW17530   3.576   2.007   6.099
 5693SOL    HW117531   3.645   1.994   6.034
 5693SOL    HW217532   3.564   1.920   6.139
 5694SOL     OW17533   3.251   3.430   6.070
 5694SOL    HW117534   3.312   3.462   6.003
 5694SOL    HW217535   3.205   3.509   6.100
 5695SOL     OW17536   1.994   3.655   7.426
 5695SOL    HW117537   1.942   3.591   7.474
 5695SOL    HW217538   2.044   3.701   7.493
 5696SOL     OW17539   3.140   2.789   6.258
 5696SOL    HW117540   3.213   2.727   6.263
 5696SOL    HW217541   3.174   2.861   6.205
 5697SOL     OW17542   2.678   3.138   7.015
 5697SOL    HW117543   2.650   3.176   7.099
 5697SOL    HW217544   2.606   3.157   6.955
 5698SOL     OW17545   2.537   3.477   5.743
 5698SOL    HW117546   2.544   3.492   5.648
 5698SOL    HW217547   2.480   3.400   5.750
 5699SOL     OW17548   3.487   3.588   6.977
 5699SOL    HW117549   3.540   3.593   6.897
 5699SOL    HW217550   3.475   3.679   7.003
 5700SOL     OW17551   3.699   2.042   6.555
 5700SOL    HW117552   3.730   1.956   6.527
 5700SOL    HW217553   3.613   2.051   6.514
 5701SOL     OW17554   3.068   3.469   5.620
 5701SOL    HW117555   3.059   3.377   5.645
 5701SOL    HW217556   3.007   3.480   5.548
 5702SOL     OW17557   2.693   2.872   6.960
 5702SOL    HW117558   2.734   2.864   6.873
 5702SOL    HW217559   2.693   2.966   6.977
 5703SOL     OW17560   2.776   2.772   5.875
 5703SOL    HW117561   2.840   2.803   5.810
 5703SOL    HW217562   2.822   2.701   5.921
 5704SOL     OW17563   3.353   3.490   5.627
 5704SOL    HW117564   3.259   3.480   5.612
 5704SOL    HW217565   3.391   3.495   5.540
 5705SOL     OW17566   2.231   3.165   7.078
 5705SOL    HW117567   2.217   3.242   7.023
 5705SOL    HW217568   2.154   3.110   7.062
 5706SOL     OW17569   3.467   3.142   6.865
 5706SOL    HW117570   3.533   3.137   6.934
 5706SOL    HW217571   3.409   3.213   6.894
 5707SOL     OW17572   2.912   2.968   6.291
 5707SOL    HW117573   2.843   2.917   6.332
 5707SOL    HW217574   2.975   2.903   6.260
 5708SOL     OW17575   2.889   2.104   6.549
 5708SOL    HW117576   2.889   2.053   6.468
 5708SOL    HW217577   2.884   2.037   6.618
 5709SOL     OW17578   2.464   3.352   6.066
 5709SOL    HW117579   2.507   3.301   5.998
 5709SOL    HW217580   2.398   3.404   6.020
 5710SOL     OW17581   3.584   2.253   6.965
 5710SOL    HW117582   3.655   2.316   6.961
 5710SOL    HW217583   3.613   2.180   6.910
 5711SOL     OW17584   2.121   3.207   5.874
 5711SOL    HW117585   2.028   3.206   5.851
 5711SOL    HW217586   2.123   3.245   5.962
 5712SOL     OW17587   1.973   2.898   7.314
 5712SOL    HW117588   1.896   2.867   7.361
 5712SOL    HW217589   2.046   2.846   7.349
 5713SOL     OW17590   1.893   2.275   5.638
 5713SOL    HW117591   1.858   2.194   5.601
 5713SOL    HW217592   1.951   2.309   5.570
 5714SOL     OW17593   3.292   2.721   6.988
 5714SOL    HW117594   3.242   2.780   6.932
 5714SOL    HW217595   3.381   2.723   6.951
 5715SOL     OW17596   3.041   3.203   5.703
 5715SOL    HW117597   2.950   3.172   5.706
 5715SOL    HW217598   3.069   3.202   5.794
 5716SOL     OW17599   2.491   2.700   7.010
 5716SOL    HW117600   2.551   2.773   6.997
 5716SOL    HW217601   2.548   2.625   7.031
 5717SOL     OW17602   3.347   3.642   6.566
 5717SOL    HW117603   3.374   3.691   6.488
 5717SOL    HW217604   3.429   3.615   6.607
 5718SOL     OW17605   3.332   3.064   7.219
 5718SOL    HW117606   3.321   3.077   7.313
 5718SOL    HW217607   3.426   3.077   7.203
 5719SOL     OW17608   2.241   3.601   7.148
 5719SOL    HW117609   2.155   3.640   7.135
 5719SOL    HW217610   2.223   3.517   7.190
 5720SOL     OW17611   3.530   2.743   6.844
 5720SOL    HW117612   3.526   2.658   6.802
 5720SOL    HW217613   3.524   2.806   6.772
 5721SOL     OW17614   3.080   2.180   6.042
 5721SOL    HW117615   3.144   2.110   6.036
 5721SOL    HW217616   3.105   2.230   6.119
 5722SOL     OW17617   2.461   2.607   6.220
 5722SOL    HW117618   2.500   2.694   6.225
 5722SOL    HW217619   2.380   2.620   6.170
 5723SOL     OW17620   3.625   2.225   7.235
 5723SOL    HW117621   3.607   2.237   7.142
 5723SOL    HW217622   3.555   2.167   7.265
 5724SOL     OW17623   3.614   2.793   7.100
 5724SOL    HW117624   3.609   2.887   7.114
 5724SOL    HW217625   3.593   2.782   7.007
 5725SOL     OW17626   2.724   3.230   5.619
 5725SOL    HW117627   2.684   3.257   5.702
 5725SOL    HW217628   2.742   3.312   5.573
 5726SOL     OW17629   2.521   3.654   6.531
 5726SOL    HW117630   2.499   3.745   6.507
 5726SOL    HW217631   2.616   3.650   6.524
 5727SOL     OW17632   2.729   2.828   6.442
 5727SOL    HW117633   2.777   2.755   6.481
 5727SOL    HW217634   2.695   2.877   6.517
 5728SOL     OW17635   2.941   2.850   5.674
 5728SOL    HW117636   2.920   2.901   5.596
 5728SOL    HW217637   3.016   2.797   5.649
 5729SOL     OW17638   3.716   3.418   6.428
 5729SOL    HW117639   3.638   3.400   6.376
 5729SOL    HW217640   3.716   3.351   6.496
 5730SOL     OW17641   2.086   3.165   7.441
 5730SOL    HW117642   2.023   3.101   7.409
 5730SOL    HW217643   2.065   3.176   7.534
 5731SOL     OW17644   1.945   3.097   6.250
 5731SOL    HW117645   1.942   3.045   6.331
 5731SOL    HW217646   2.015   3.056   6.199
 5732SOL     OW17647   2.543   3.263   7.214
 5732SOL    HW117648   2.462   3.221   7.243
 5732SOL    HW217649   2.538   3.351   7.251
 5733SOL     OW17650   3.678   2.043   6.826
 5733SOL    HW117651   3.670   1.948   6.832
 5733SOL    HW217652   3.690   2.061   6.732
 5734SOL     OW17653   3.561   3.353   6.685
 5734SOL    HW117654   3.481   3.327   6.640
 5734SOL    HW217655   3.576   3.284   6.749
 5735SOL     OW17656   2.687   3.441   6.264
 5735SOL    HW117657   2.677   3.485   6.180
 5735SOL    HW217658   2.611   3.383   6.271
 5736SOL     OW17659   3.295   2.086   6.705
 5736SOL    HW117660   3.318   2.006   6.751
 5736SOL    HW217661   3.243   2.136   6.767
 5737SOL     OW17662   2.878   1.887   6.717
 5737SOL    HW117663   2.816   1.822   6.685
 5737SOL    HW217664   2.962   1.840   6.721
 5738SOL     OW17665   2.634   3.194   5.900
 5738SOL    HW117666   2.601   3.104   5.906
 5738SOL    HW217667   2.717   3.193   5.948
 5739SOL     OW17668   2.482   3.418   6.870
 5739SOL    HW117669   2.484   3.499   6.920
 5739SOL    HW217670   2.569   3.411   6.832
 5740SOL     OW17671   3.214   1.916   5.750
 5740SOL    HW117672   3.242   1.852   5.685
 5740SOL    HW217673   3.127   1.887   5.777
 5741SOL     OW17674   3.160   2.322   6.267
 5741SOL    HW117675   3.103   2.399   6.273
 5741SOL    HW217676   3.156   2.283   6.354
 5742SOL     OW17677   3.446   2.065   6.462
 5742SOL    HW117678   3.386   2.085   6.533
 5742SOL    HW217679   3.447   2.143   6.407
 5743SOL     OW17680   1.906   2.936   5.890
 5743SOL    HW117681   2.000   2.929   5.874
 5743SOL    HW217682   1.878   2.847   5.913
 5744SOL     OW17683   2.745   3.516   5.931
 5744SOL    HW117684   2.675   3.497   5.869
 5744SOL    HW217685   2.714   3.593   5.979
 5745SOL     OW17686   1.855   2.282   8.072
 5745SOL    HW117687   1.771   2.286   8.118
 5745SOL    HW217688   1.850   2.203   8.019
 5746SOL     OW17689   2.429   3.148   8.622
 5746SOL    HW117690   2.341   3.151   8.583
 5746SOL    HW217691   2.444   3.236   8.656
 5747SOL     OW17692   3.421   3.374   8.155
 5747SOL    HW117693   3.378   3.353   8.238
 5747SOL    HW217694   3.350   3.378   8.091
 5748SOL     OW17695   2.991   2.561   8.150
 5748SOL    HW117696   3.041   2.641   8.135
 5748SOL    HW217697   2.945   2.576   8.233
 5749SOL     OW17698   3.626   2.470   7.679
 5749SOL    HW117699   3.608   2.461   7.585
 5749SOL    HW217700   3.592   2.389   7.717
 5750SOL     OW17701   2.619   3.005   8.487
 5750SOL    HW117702   2.549   3.039   8.544
 5750SOL    HW217703   2.653   3.082   8.443
 5751SOL     OW17704   2.726   2.639   9.269
 5751SOL    HW117705   2.714   2.710   9.332
 5751SOL    HW217706   2.750   2.682   9.187
 5752SOL     OW17707   2.548   2.866   8.096
 5752SOL    HW117708   2.613   2.854   8.166
 5752SOL    HW217709   2.479   2.917   8.136
 5753SOL     OW17710   2.571   3.013   9.259
 5753SOL    HW117711   2.619   3.092   9.285
 5753SOL    HW217712   2.488   3.046   9.224
 5754SOL     OW17713   2.193   3.288   8.516
 5754SOL    HW117714   2.120   3.252   8.465
 5754SOL    HW217715   2.243   3.340   8.452
 5755SOL     OW17716   3.322   3.361   8.800
 5755SOL    HW117717   3.372   3.443   8.811
 5755SOL    HW217718   3.263   3.359   8.875
 5756SOL     OW17719   2.292   2.256   8.950
 5756SOL    HW117720   2.384   2.228   8.946
 5756SOL    HW217721   2.243   2.174   8.955
 5757SOL     OW17722   3.474   2.310   8.190
 5757SOL    HW117723   3.400   2.335   8.134
 5757SOL    HW217724   3.493   2.389   8.241
 5758SOL     OW17725   2.083   3.578   7.927
 5758SOL    HW117726   2.117   3.639   7.992
 5758SOL    HW217727   2.151   3.573   7.860
 5759SOL     OW17728   2.998   3.203   9.140
 5759SOL    HW117729   3.039   3.198   9.227
 5759SOL    HW217730   2.945   3.123   9.134
 5760SOL     OW17731   2.090   3.303   7.983
 5760SOL    HW117732   2.073   3.397   7.989
 5760SOL    HW217733   2.030   3.264   8.046
 5761SOL     OW17734   2.117   2.952   8.338
 5761SOL    HW117735   2.114   2.867   8.381
 5761SOL    HW217736   2.060   3.008   8.392
 5762SOL     OW17737   2.475   3.649   8.878
 5762SOL    HW117738   2.393   3.634   8.924
 5762SOL    HW217739   2.500   3.738   8.903
 5763SOL     OW17740   2.447   2.842   7.580
 5763SOL    HW117741   2.492   2.892   7.512
 5763SOL    HW217742   2.487   2.871   7.662
 5764SOL     OW17743   3.458   1.985   8.916
 5764SOL    HW117744   3.460   2.066   8.865
 5764SOL    HW217745   3.446   2.014   9.007
 5765SOL     OW17746   1.981   2.516   8.010
 5765SOL    HW117747   1.943   2.430   8.031
 5765SOL    HW217748   1.971   2.567   8.090
 5766SOL     OW17749   3.699   3.617   7.789
 5766SOL    HW117750   3.767   3.591   7.851
 5766SOL    HW217751   3.722   3.706   7.764
 5767SOL     OW17752   1.889   3.456   7.571
 5767SOL    HW117753   1.875   3.364   7.593
 5767SOL    HW217754   1.869   3.503   7.652
 5768SOL     OW17755   3.550   2.781   8.089
 5768SOL    HW117756   3.634   2.739   8.072
 5768SOL    HW217757   3.531   2.831   8.009
 5769SOL     OW17758   3.503   2.969   7.879
 5769SOL    HW117759   3.588   2.976   7.835
 5769SOL    HW217760   3.510   3.030   7.952
 5770SOL     OW17761   1.981   2.603   9.033
 5770SOL    HW117762   2.074   2.623   9.049
 5770SOL    HW217763   1.936   2.687   9.043
 5771SOL     OW17764   2.475   3.247   8.183
 5771SOL    HW117765   2.429   3.163   8.192
 5771SOL    HW217766   2.458   3.273   8.092
 5772SOL     OW17767   3.151   3.100   8.872
 5772SOL    HW117768   3.184   3.034   8.812
 5772SOL    HW217769   3.208   3.094   8.948
 5773SOL     OW17770   2.673   1.862   7.952
 5773SOL    HW117771   2.717   1.945   7.933
 5773SOL    HW217772   2.583   1.886   7.974
 5774SOL     OW17773   2.054   2.831   8.717
 5774SOL    HW117774   2.137   2.786   8.703
 5774SOL    HW217775   1.989   2.773   8.677
 5775SOL     OW17776   3.392   2.855   7.646
 5775SOL    HW117777   3.322   2.797   7.678
 5775SOL    HW217778   3.432   2.890   7.725
 5776SOL     OW17779   3.072   3.664   9.073
 5776SOL    HW117780   3.056   3.723   8.999
 5776SOL    HW217781   3.074   3.577   9.033
 5777SOL     OW17782   2.256   2.156   9.261
 5777SOL    HW117783   2.303   2.235   9.290
 5777SOL    HW217784   2.164   2.175   9.278
 5778SOL     OW17785   3.326   3.282   8.399
 5778SOL    HW117786   3.259   3.296   8.466
 5778SOL    HW217787   3.316   3.191   8.373
 5779SOL     OW17788   3.514   3.601   8.027
 5779SOL    HW117789   3.502   3.569   7.938
 5779SOL    HW217790   3.495   3.526   8.083
 5780SOL     OW17791   2.467   2.592   7.728
 5780SOL    HW117792   2.471   2.665   7.665
 5780SOL    HW217793   2.399   2.619   7.790
 5781SOL     OW17794   3.141   2.213   8.381
 5781SOL    HW117795   3.052   2.179   8.389
 5781SOL    HW217796   3.192   2.161   8.442
 5782SOL     OW17797   3.439   3.536   7.756
 5782SOL    HW117798   3.530   3.564   7.752
 5782SOL    HW217799   3.416   3.515   7.665
 5783SOL     OW17800   2.656   2.480   8.900
 5783SOL    HW117801   2.630   2.457   8.989
 5783SOL    HW217802   2.613   2.415   8.845
 5784SOL     OW17803   3.256   2.336   9.126
 5784SOL    HW117804   3.257   2.380   9.211
 5784SOL    HW217805   3.317   2.263   9.136
 5785SOL     OW17806   2.818   2.750   9.030
 5785SOL    HW117807   2.872   2.679   8.995
 5785SOL    HW217808   2.770   2.783   8.954
 5786SOL     OW17809   2.855   2.275   8.687
 5786SOL    HW117810   2.771   2.297   8.727
 5786SOL    HW217811   2.832   2.228   8.607
 5787SOL     OW17812   2.912   2.561   7.875
 5787SOL    HW117813   2.928   2.554   7.969
 5787SOL    HW217814   2.830   2.514   7.861
 5788SOL     OW17815   1.951   2.685   8.223
 5788SOL    HW117816   2.032   2.678   8.273
 5788SOL    HW217817   1.907   2.762   8.259
 5789SOL     OW17818   1.987   3.698   9.023
 5789SOL    HW117819   1.986   3.681   9.117
 5789SOL    HW217820   1.895   3.710   8.999
 5790SOL     OW17821   2.751   2.209   7.642
 5790SOL    HW117822   2.798   2.267   7.583
 5790SOL    HW217823   2.766   2.121   7.607
 5791SOL     OW17824   3.574   2.439   9.276
 5791SOL    HW117825   3.535   2.513   9.230
 5791SOL    HW217826   3.595   2.376   9.207
 5792SOL     OW17827   3.237   3.004   7.990
 5792SOL    HW117828   3.316   2.990   7.938
 5792SOL    HW217829   3.185   3.066   7.938
 5793SOL     OW17830   2.402   2.047   8.337
 5793SOL    HW117831   2.419   2.071   8.428
 5793SOL    HW217832   2.420   2.127   8.288
 5794SOL     OW17833   2.870   3.308   7.921
 5794SOL    HW117834   2.829   3.380   7.872
 5794SOL    HW217835   2.852   3.329   8.013
 5795SOL     OW17836   2.213   3.670   8.290
 5795SOL    HW117837   2.263   3.590   8.307
 5795SOL    HW217838   2.274   3.741   8.309
 5796SOL     OW17839   3.665   2.923   8.314
 5796SOL    HW117840   3.610   2.902   8.239
 5796SOL    HW217841   3.605   2.927   8.388
 5797SOL     OW17842   3.089   3.399   8.960
 5797SOL    HW117843   3.075   3.327   9.020
 5797SOL    HW217844   3.026   3.385   8.890
 5798SOL     OW17845   2.181   2.823   7.700
 5798SOL    HW117846   2.261   2.836   7.649
 5798SOL    HW217847   2.151   2.735   7.676
 5799SOL     OW17848   3.338   2.603   8.176
 5799SOL    HW117849   3.330   2.559   8.261
 5799SOL    HW217850   3.416   2.658   8.185
 5800SOL     OW17851   2.327   3.126   9.185
 5800SOL    HW117852   2.300   3.131   9.094
 5800SOL    HW217853   2.246   3.124   9.235
 5801SOL     OW17854   2.975   3.642   7.672
 5801SOL    HW117855   2.913   3.594   7.727
 5801SOL    HW217856   3.004   3.578   7.607
 5802SOL     OW17857   3.488   3.244   7.537
 5802SOL    HW117858   3.446   3.328   7.518
 5802SOL    HW217859   3.422   3.179   7.517
 5803SOL     OW17860   2.331   3.595   7.773
 5803SOL    HW117861   2.367   3.661   7.832
 5803SOL    HW217862   2.404   3.573   7.715
 5804SOL     OW17863   3.263   1.970   7.880
 5804SOL    HW117864   3.253   1.945   7.788
 5804SOL    HW217865   3.357   1.976   7.893
 5805SOL     OW17866   2.120   3.655   8.676
 5805SOL    HW117867   2.169   3.588   8.724
 5805SOL    HW217868   2.106   3.617   8.589
 5806SOL     OW17869   2.800   3.561   8.349
 5806SOL    HW117870   2.877   3.508   8.369
 5806SOL    HW217871   2.754   3.512   8.281
 5807SOL     OW17872   2.257   2.555   7.941
 5807SOL    HW117873   2.277   2.463   7.927
 5807SOL    HW217874   2.162   2.558   7.953
 5808SOL     OW17875   3.399   2.088   9.174
 5808SOL    HW117876   3.407   2.109   9.267
 5808SOL    HW217877   3.331   2.020   9.170
 5809SOL     OW17878   2.629   2.140   9.203
 5809SOL    HW117879   2.703   2.080   9.205
 5809SOL    HW217880   2.577   2.116   9.279
 5810SOL     OW17881   2.738   3.382   8.642
 5810SOL    HW117882   2.723   3.347   8.554
 5810SOL    HW217883   2.808   3.328   8.678
 5811SOL     OW17884   3.203   2.451   8.880
 5811SOL    HW117885   3.234   2.419   8.965
 5811SOL    HW217886   3.239   2.539   8.873
 5812SOL     OW17887   2.676   3.258   8.386
 5812SOL    HW117888   2.760   3.247   8.342
 5812SOL    HW217889   2.612   3.258   8.315
 5813SOL     OW17890   2.788   2.371   8.351
 5813SOL    HW117891   2.765   2.362   8.259
 5813SOL    HW217892   2.822   2.284   8.375
 5814SOL     OW17893   2.422   1.952   7.996
 5814SOL    HW117894   2.339   1.926   8.037
 5814SOL    HW217895   2.396   2.015   7.929
 5815SOL     OW17896   3.291   3.061   7.489
 5815SOL    HW117897   3.322   2.985   7.538
 5815SOL    HW217898   3.204   3.079   7.526
 5816SOL     OW17899   2.800   2.107   7.909
 5816SOL    HW117900   2.775   2.148   7.826
 5816SOL    HW217901   2.895   2.120   7.913
 5817SOL     OW17902   2.942   2.542   8.908
 5817SOL    HW117903   2.873   2.476   8.914
 5817SOL    HW217904   3.023   2.492   8.901
 5818SOL     OW17905   3.085   3.432   8.242
 5818SOL    HW117906   3.103   3.500   8.177
 5818SOL    HW217907   3.154   3.442   8.307
 5819SOL     OW17908   2.330   3.011   8.183
 5819SOL    HW117909   2.260   2.992   8.246
 5819SOL    HW217910   2.291   2.995   8.097
 5820SOL     OW17911   3.131   3.659   8.053
 5820SOL    HW117912   3.175   3.723   7.997
 5820SOL    HW217913   3.062   3.708   8.096
 5821SOL     OW17914   2.884   2.404   7.470
 5821SOL    HW117915   2.837   2.484   7.448
 5821SOL    HW217916   2.950   2.431   7.534
 5822SOL     OW17917   1.938   2.422   8.834
 5822SOL    HW117918   2.031   2.418   8.812
 5822SOL    HW217919   1.933   2.487   8.904
 5823SOL     OW17920   2.457   2.086   8.601
 5823SOL    HW117921   2.495   2.005   8.636
 5823SOL    HW217922   2.373   2.094   8.646
 5824SOL     OW17923   2.727   2.320   8.087
 5824SOL    HW117924   2.689   2.376   8.020
 5824SOL    HW217925   2.750   2.240   8.041
 5825SOL     OW17926   2.876   1.916   8.202
 5825SOL    HW117927   2.819   1.909   8.126
 5825SOL    HW217928   2.856   1.839   8.255
 5826SOL     OW17929   3.299   3.025   8.305
 5826SOL    HW117930   3.230   2.958   8.304
 5826SOL    HW217931   3.323   3.037   8.214
 5827SOL     OW17932   3.328   2.467   8.427
 5827SOL    HW117933   3.280   2.384   8.430
 5827SOL    HW217934   3.389   2.462   8.501
 5828SOL     OW17935   3.722   2.681   7.823
 5828SOL    HW117936   3.767   2.625   7.887
 5828SOL    HW217937   3.685   2.620   7.760
 5829SOL     OW17938   2.353   3.278   7.606
 5829SOL    HW117939   2.278   3.249   7.658
 5829SOL    HW217940   2.335   3.244   7.518
 5830SOL     OW17941   3.528   3.127   8.096
 5830SOL    HW117942   3.623   3.131   8.104
 5830SOL    HW217943   3.498   3.216   8.116
 5831SOL     OW17944   3.256   2.433   7.520
 5831SOL    HW117945   3.195   2.415   7.591
 5831SOL    HW217946   3.340   2.399   7.551
 5832SOL     OW17947   3.614   3.097   9.020
 5832SOL    HW117948   3.701   3.061   9.003
 5832SOL    HW217949   3.631   3.186   9.052
 5833SOL     OW17950   2.921   3.215   8.782
 5833SOL    HW117951   2.847   3.184   8.833
 5833SOL    HW217952   2.997   3.174   8.823
 5834SOL     OW17953   3.468   3.490   9.102
 5834SOL    HW117954   3.461   3.523   9.012
 5834SOL    HW217955   3.550   3.440   9.103
 5835SOL     OW17956   2.989   3.064   8.554
 5835SOL    HW117957   2.931   3.103   8.619
 5835SOL    HW217958   2.956   3.096   8.470
 5836SOL     OW17959   3.494   2.961   8.524
 5836SOL    HW117960   3.487   3.022   8.598
 5836SOL    HW217961   3.414   2.975   8.473
 5837SOL     OW17962   2.780   1.960   8.845
 5837SOL    HW117963   2.803   1.940   8.754
 5837SOL    HW217964   2.859   1.999   8.882
 5838SOL     OW17965   2.846   2.976   9.170
 5838SOL    HW117966   2.754   2.992   9.191
 5838SOL    HW217967   2.845   2.899   9.115
 5839SOL     OW17968   2.569   2.922   7.819
 5839SOL    HW117969   2.557   2.906   7.913
 5839SOL    HW217970   2.646   2.869   7.796
 5840SOL     OW17971   2.279   2.674   8.699
 5840SOL    HW117972   2.347   2.686   8.765
 5840SOL    HW217973   2.245   2.586   8.716
 5841SOL     OW17974   3.128   2.239   8.723
 5841SOL    HW117975   3.161   2.317   8.768
 5841SOL    HW217976   3.038   2.262   8.698
 5842SOL     OW17977   1.931   3.434   8.798
 5842SOL    HW117978   1.901   3.509   8.747
 5842SOL    HW217979   2.027   3.440   8.795
 5843SOL     OW17980   2.212   2.972   7.940
 5843SOL    HW117981   2.217   3.047   7.880
 5843SOL    HW217982   2.211   2.895   7.882
 5844SOL     OW17983   2.411   2.403   8.311
 5844SOL    HW117984   2.430   2.463   8.238
 5844SOL    HW217985   2.477   2.425   8.377
 5845SOL     OW17986   3.110   3.210   7.837
 5845SOL    HW117987   3.166   3.281   7.868
 5845SOL    HW217988   3.023   3.231   7.871
 5846SOL     OW17989   3.141   3.320   8.595
 5846SOL    HW117990   3.197   3.322   8.672
 5846SOL    HW217991   3.086   3.242   8.607
 5847SOL     OW17992   3.443   2.485   7.927
 5847SOL    HW117993   3.398   2.541   7.990
 5847SOL    HW217994   3.486   2.546   7.867
 5848SOL     OW17995   2.209   3.388   8.764
 5848SOL    HW117996   2.196   3.345   8.679
 5848SOL    HW217997   2.303   3.400   8.771
 5849SOL     OW17998   2.275   2.609   9.050
 5849SOL    HW117999   2.338   2.652   8.992
 5849SOL    HW218000   2.313   2.523   9.068
 5850SOL     OW18001   3.462   2.639   9.127
 5850SOL    HW118002   3.376   2.681   9.121
 5850SOL    HW218003   3.514   2.682   9.060
 5851SOL     OW18004   2.857   1.983   9.202
 5851SOL    HW118005   2.912   2.056   9.174
 5851SOL    HW218006   2.906   1.904   9.177
 5852SOL     OW18007   2.371   1.906   9.199
 5852SOL    HW118008   2.318   1.856   9.138
 5852SOL    HW218009   2.325   1.989   9.209
 5853SOL     OW18010   2.444   2.734   8.479
 5853SOL    HW118011   2.476   2.825   8.477
 5853SOL    HW218012   2.389   2.730   8.557
 5854SOL     OW18013   3.221   2.721   8.479
 5854SOL    HW118014   3.139   2.712   8.430
 5854SOL    HW218015   3.261   2.634   8.475
 5855SOL     OW18016   3.069   2.391   7.717
 5855SOL    HW118017   3.076   2.312   7.771
 5855SOL    HW218018   3.026   2.455   7.773
 5856SOL     OW18019   2.228   2.070   8.729
 5856SOL    HW118020   2.145   2.091   8.772
 5856SOL    HW218021   2.222   1.976   8.711
 5857SOL     OW18022   1.908   3.172   8.725
 5857SOL    HW118023   1.941   3.119   8.796
 5857SOL    HW218024   1.915   3.262   8.756
 5858SOL     OW18025   2.586   2.492   8.506
 5858SOL    HW118026   2.661   2.475   8.449
 5858SOL    HW218027   2.559   2.581   8.485
 5859SOL     OW18028   3.594   2.821   9.305
 5859SOL    HW118029   3.550   2.764   9.242
 5859SOL    HW218030   3.530   2.832   9.375
 5860SOL     OW18031   3.478   2.235   7.816
 5860SOL    HW118032   3.505   2.172   7.882
 5860SOL    HW218033   3.455   2.313   7.867
 5861SOL     OW18034   2.889   2.621   8.409
 5861SOL    HW118035   2.887   2.639   8.503
 5861SOL    HW218036   2.863   2.529   8.402
 5862SOL     OW18037   2.846   3.429   9.165
 5862SOL    HW118038   2.829   3.472   9.081
 5862SOL    HW218039   2.888   3.347   9.142
 5863SOL     OW18040   3.708   3.367   9.048
 5863SOL    HW118041   3.729   3.394   8.959
 5863SOL    HW218042   3.789   3.381   9.098
 5864SOL     OW18043   2.215   2.778   9.258
 5864SOL    HW118044   2.298   2.797   9.301
 5864SOL    HW218045   2.237   2.716   9.188
 5865SOL     OW18046   3.393   2.136   7.575
 5865SOL    HW118047   3.328   2.070   7.601
 5865SOL    HW218048   3.425   2.171   7.658
 5866SOL     OW18049   3.155   2.688   7.480
 5866SOL    HW118050   3.197   2.603   7.483
 5866SOL    HW218051   3.186   2.728   7.398
 5867SOL     OW18052   2.927   3.197   8.301
 5867SOL    HW118053   2.930   3.124   8.239
 5867SOL    HW218054   2.989   3.261   8.266
 5868SOL     OW18055   2.172   2.672   8.395
 5868SOL    HW118056   2.265   2.695   8.388
 5868SOL    HW218057   2.171   2.585   8.434
 5869SOL     OW18058   2.187   2.365   8.457
 5869SOL    HW118059   2.153   2.285   8.417
 5869SOL    HW218060   2.267   2.384   8.407
 5870SOL     OW18061   2.996   2.239   9.128
 5870SOL    HW118062   2.949   2.294   9.192
 5870SOL    HW218063   3.084   2.277   9.125
 5871SOL     OW18064   3.022   2.066   8.917
 5871SOL    HW118065   3.012   2.128   8.989
 5871SOL    HW218066   3.062   2.117   8.847
 5872SOL     OW18067   1.867   3.183   7.644
 5872SOL    HW118068   1.780   3.198   7.606
 5872SOL    HW218069   1.864   3.094   7.676
 5873SOL     OW18070   1.956   3.646   8.385
 5873SOL    HW118071   1.926   3.567   8.341
 5873SOL    HW218072   2.043   3.663   8.347
 5874SOL     OW18073   2.359   3.436   8.354
 5874SOL    HW118074   2.427   3.499   8.378
 5874SOL    HW218075   2.404   3.372   8.299
 5875SOL     OW18076   2.847   2.654   8.675
 5875SOL    HW118077   2.903   2.631   8.749
 5875SOL    HW218078   2.761   2.619   8.698
 5876SOL     OW18079   1.900   2.395   8.565
 5876SOL    HW118080   1.984   2.398   8.519
 5876SOL    HW218081   1.923   2.411   8.657
 5877SOL     OW18082   2.069   2.381   9.178
 5877SOL    HW118083   2.121   2.351   9.104
 5877SOL    HW218084   2.004   2.439   9.140
 5878SOL     OW18085   3.239   2.802   9.107
 5878SOL    HW118086   3.260   2.895   9.106
 5878SOL    HW218087   3.236   2.777   9.015
 5879SOL     OW18088   2.678   2.430   7.810
 5879SOL    HW118089   2.686   2.360   7.745
 5879SOL    HW218090   2.606   2.484   7.778
 5880SOL     OW18091   3.504   2.464   8.636
 5880SOL    HW118092   3.492   2.403   8.709
 5880SOL    HW218093   3.589   2.441   8.599
 5881SOL     OW18094   2.108   3.413   9.176
 5881SOL    HW118095   2.084   3.478   9.242
 5881SOL    HW218096   2.107   3.330   9.223
 5882SOL     OW18097   2.554   2.318   8.712
 5882SOL    HW118098   2.518   2.238   8.675
 5882SOL    HW218099   2.556   2.380   8.639
 5883SOL     OW18100   2.792   3.536   8.915
 5883SOL    HW118101   2.765   3.501   8.830
 5883SOL    HW218102   2.785   3.631   8.906
 5884SOL     OW18103   2.009   3.002   8.920
 5884SOL    HW118104   2.012   2.950   9.000
 5884SOL    HW218105   2.026   2.940   8.849
 5885SOL     OW18106   3.188   2.909   8.672
 5885SOL    HW118107   3.212   2.846   8.604
 5885SOL    HW218108   3.117   2.961   8.633
 5886SOL     OW18109   3.172   2.718   7.755
 5886SOL    HW118110   3.095   2.688   7.804
 5886SOL    HW218111   3.149   2.705   7.663
 5887SOL     OW18112   3.634   3.607   8.598
 5887SOL    HW118113   3.693   3.633   8.527
 5887SOL    HW218114   3.609   3.517   8.578
 5888SOL     OW18115   3.105   3.596   8.562
 5888SOL    HW118116   3.187   3.615   8.517
 5888SOL    HW218117   3.109   3.502   8.581
 5889SOL     OW18118   1.945   3.128   8.461
 5889SOL    HW118119   1.932   3.141   8.555
 5889SOL    HW218120   1.872   3.074   8.433
 5890SOL     OW18121   2.540   3.525   9.174
 5890SOL    HW118122   2.486   3.604   9.178
 5890SOL    HW218123   2.600   3.540   9.101
 5891SOL     OW18124   3.576   2.007   7.962
 5891SOL    HW118125   3.645   1.995   7.896
 5891SOL    HW218126   3.564   1.921   8.001
 5892SOL     OW18127   3.251   3.430   7.932
 5892SOL    HW118128   3.312   3.462   7.865
 5892SOL    HW218129   3.205   3.509   7.962
 5893SOL     OW18130   1.994   3.655   9.288
 5893SOL    HW118131   1.942   3.591   9.337
 5893SOL    HW218132   2.044   3.701   9.355
 5894SOL     OW18133   3.139   2.787   8.119
 5894SOL    HW118134   3.213   2.726   8.126
 5894SOL    HW218135   3.172   2.860   8.067
 5895SOL     OW18136   2.678   3.135   8.879
 5895SOL    HW118137   2.650   3.174   8.962
 5895SOL    HW218138   2.608   3.157   8.817
 5896SOL     OW18139   2.537   3.477   7.605
 5896SOL    HW118140   2.544   3.492   7.510
 5896SOL    HW218141   2.480   3.400   7.612
 5897SOL     OW18142   3.487   3.588   8.838
 5897SOL    HW118143   3.540   3.593   8.759
 5897SOL    HW218144   3.475   3.679   8.865
 5898SOL     OW18145   3.699   2.042   8.417
 5898SOL    HW118146   3.730   1.956   8.390
 5898SOL    HW218147   3.613   2.051   8.375
 5899SOL     OW18148   3.068   3.469   7.482
 5899SOL    HW118149   3.059   3.377   7.507
 5899SOL    HW218150   3.007   3.481   7.409
 5900SOL     OW18151   2.686   2.868   8.820
 5900SOL    HW118152   2.730   2.865   8.735
 5900SOL    HW218153   2.686   2.961   8.843
 5901SOL     OW18154   2.779   2.774   7.738
 5901SOL    HW118155   2.839   2.805   7.671
 5901SOL    HW218156   2.826   2.703   7.782
 5902SOL     OW18157   3.353   3.490   7.489
 5902SOL    HW118158   3.259   3.480   7.474
 5902SOL    HW218159   3.391   3.495   7.402
 5903SOL     OW18160   2.231   3.164   8.939
 5903SOL    HW118161   2.218   3.242   8.885
 5903SOL    HW218162   2.154   3.110   8.923
 5904SOL     OW18163   3.466   3.142   8.727
 5904SOL    HW118164   3.534   3.137   8.795
 5904SOL    HW218165   3.409   3.213   8.756
 5905SOL     OW18166   2.912   2.968   8.154
 5905SOL    HW118167   2.842   2.917   8.193
 5905SOL    HW218168   2.974   2.903   8.121
 5906SOL     OW18169   2.882   2.102   8.414
 5906SOL    HW118170   2.878   2.054   8.332
 5906SOL    HW218171   2.878   2.034   8.482
 5907SOL     OW18172   2.464   3.352   7.929
 5907SOL    HW118173   2.507   3.301   7.861
 5907SOL    HW218174   2.398   3.404   7.883
 5908SOL     OW18175   3.583   2.253   8.827
 5908SOL    HW118176   3.655   2.316   8.823
 5908SOL    HW218177   3.613   2.180   8.771
 5909SOL     OW18178   2.121   3.207   7.737
 5909SOL    HW118179   2.028   3.205   7.713
 5909SOL    HW218180   2.123   3.245   7.824
 5910SOL     OW18181   1.974   2.882   9.167
 5910SOL    HW118182   1.898   2.859   9.220
 5910SOL    HW218183   2.048   2.845   9.215
 5911SOL     OW18184   2.537   2.059   8.947
 5911SOL    HW118185   2.622   2.038   8.907
 5911SOL    HW218186   2.559   2.088   9.035
 5912SOL     OW18187   3.292   2.721   8.849
 5912SOL    HW118188   3.242   2.781   8.794
 5912SOL    HW218189   3.380   2.722   8.813
 5913SOL     OW18190   3.041   3.203   7.565
 5913SOL    HW118191   2.950   3.172   7.567
 5913SOL    HW218192   3.069   3.201   7.656
 5914SOL     OW18193   2.481   2.692   8.880
 5914SOL    HW118194   2.536   2.769   8.866
 5914SOL    HW218195   2.543   2.620   8.889
 5915SOL     OW18196   3.347   3.641   8.428
 5915SOL    HW118197   3.373   3.691   8.350
 5915SOL    HW218198   3.429   3.615   8.468
 5916SOL     OW18199   2.579   2.424   9.152
 5916SOL    HW118200   2.618   2.488   9.212
 5916SOL    HW218201   2.609   2.340   9.184
 5917SOL     OW18202   3.332   3.063   9.080
 5917SOL    HW118203   3.321   3.077   9.175
 5917SOL    HW218204   3.426   3.077   9.065
 5918SOL     OW18205   2.241   3.601   9.010
 5918SOL    HW118206   2.155   3.640   8.996
 5918SOL    HW218207   2.223   3.517   9.052
 5919SOL     OW18208   3.529   2.743   8.706
 5919SOL    HW118209   3.526   2.658   8.663
 5919SOL    HW218210   3.524   2.806   8.635
 5920SOL     OW18211   3.079   2.181   7.906
 5920SOL    HW118212   3.143   2.110   7.897
 5920SOL    HW218213   3.109   2.229   7.983
 5921SOL     OW18214   2.457   2.600   8.121
 5921SOL    HW118215   2.498   2.686   8.105
 5921SOL    HW218216   2.386   2.596   8.057
 5922SOL     OW18217   3.625   2.225   9.097
 5922SOL    HW118218   3.607   2.238   9.004
 5922SOL    HW218219   3.555   2.167   9.127
 5923SOL     OW18220   3.614   2.793   8.962
 5923SOL    HW118221   3.609   2.887   8.977
 5923SOL    HW218222   3.592   2.782   8.869
 5924SOL     OW18223   2.725   3.230   7.481
 5924SOL    HW118224   2.684   3.258   7.563
 5924SOL    HW218225   2.743   3.311   7.434
 5925SOL     OW18226   2.521   3.654   8.393
 5925SOL    HW118227   2.499   3.744   8.369
 5925SOL    HW218228   2.617   3.650   8.386
 5926SOL     OW18229   2.728   2.828   8.304
 5926SOL    HW118230   2.779   2.757   8.344
 5926SOL    HW218231   2.695   2.878   8.378
 5927SOL     OW18232   2.942   2.852   7.537
 5927SOL    HW118233   2.919   2.901   7.458
 5927SOL    HW218234   3.016   2.797   7.511
 5928SOL     OW18235   3.717   3.418   8.290
 5928SOL    HW118236   3.638   3.400   8.238
 5928SOL    HW218237   3.716   3.351   8.358
 5929SOL     OW18238   2.087   3.165   9.304
 5929SOL    HW118239   2.019   3.105   9.275
 5929SOL    HW218240   2.069   3.178   9.397
 5930SOL     OW18241   1.946   3.096   8.112
 5930SOL    HW118242   1.950   3.048   8.195
 5930SOL    HW218243   2.015   3.058   8.058
 5931SOL     OW18244   2.543   3.264   9.075
 5931SOL    HW118245   2.463   3.221   9.106
 5931SOL    HW218246   2.539   3.352   9.112
 5932SOL     OW18247   3.677   2.043   8.688
 5932SOL    HW118248   3.671   1.948   8.693
 5932SOL    HW218249   3.689   2.061   8.595
 5933SOL     OW18250   3.561   3.354   8.548
 5933SOL    HW118251   3.481   3.327   8.502
 5933SOL    HW218252   3.577   3.284   8.611
 5934SOL     OW18253   2.192   2.413   8.737
 5934SOL    HW118254   2.242   2.356   8.796
 5934SOL    HW218255   2.211   2.379   8.650
 5935SOL     OW18256   2.688   3.441   8.126
 5935SOL    HW118257   2.678   3.486   8.042
 5935SOL    HW218258   2.611   3.383   8.131
 5936SOL     OW18259   3.294   2.087   8.566
 5936SOL    HW118260   3.319   2.007   8.612
 5936SOL    HW218261   3.242   2.136   8.630
 5937SOL     OW18262   2.870   1.881   8.592
 5937SOL    HW118263   2.817   1.813   8.551
 5937SOL    HW218264   2.959   1.844   8.594
 5938SOL     OW18265   2.633   3.194   7.763
 5938SOL    HW118266   2.600   3.104   7.767
 5938SOL    HW218267   2.717   3.192   7.809
 5939SOL     OW18268   2.482   3.418   8.732
 5939SOL    HW118269   2.484   3.499   8.783
 5939SOL    HW218270   2.569   3.411   8.694
 5940SOL     OW18271   3.215   1.917   7.613
 5940SOL    HW118272   3.240   1.856   7.543
 5940SOL    HW218273   3.128   1.887   7.640
 5941SOL     OW18274   3.158   2.322   8.130
 5941SOL    HW118275   3.105   2.402   8.138
 5941SOL    HW218276   3.155   2.283   8.217
 5942SOL     OW18277   3.446   2.065   8.324
 5942SOL    HW118278   3.385   2.086   8.395
 5942SOL    HW218279   3.447   2.143   8.270
 5943SOL     OW18280   1.904   2.933   7.755
 5943SOL    HW118281   1.998   2.924   7.738
 5943SOL    HW218282   1.876   2.845   7.780
 5944SOL     OW18283   2.745   3.516   7.793
 5944SOL    HW118284   2.675   3.496   7.731
 5944SOL    HW218285   2.714   3.593   7.841
 5945SOL     OW18286   2.089   2.478   9.434
 5945SOL    HW118287   1.998   2.486   9.463
 5945SOL    HW218288   2.083   2.451   9.343
 5946SOL     OW18289   1.857   2.282   9.935
 5946SOL    HW118290   1.773   2.283   9.979
 5946SOL    HW218291   1.856   2.203   9.881
 5947SOL     OW18292   2.429   3.148  10.483
 5947SOL    HW118293   2.341   3.151  10.445
 5947SOL    HW218294   2.444   3.236  10.518
 5948SOL     OW18295   3.421   3.374  10.017
 5948SOL    HW118296   3.378   3.353  10.100
 5948SOL    HW218297   3.349   3.378   9.953
 5949SOL     OW18298   2.991   2.561  10.012
 5949SOL    HW118299   3.041   2.641   9.997
 5949SOL    HW218300   2.945   2.576  10.095
 5950SOL     OW18301   3.627   2.470   9.541
 5950SOL    HW118302   3.608   2.461   9.447
 5950SOL    HW218303   3.592   2.389   9.580
 5951SOL     OW18304   2.619   3.005  10.349
 5951SOL    HW118305   2.549   3.039  10.406
 5951SOL    HW218306   2.653   3.082  10.305
 5952SOL     OW18307   2.726   2.639  11.131
 5952SOL    HW118308   2.714   2.710  11.194
 5952SOL    HW218309   2.750   2.682  11.049
 5953SOL     OW18310   2.548   2.865   9.958
 5953SOL    HW118311   2.613   2.853  10.027
 5953SOL    HW218312   2.478   2.917   9.998
 5954SOL     OW18313   2.571   3.013  11.121
 5954SOL    HW118314   2.619   3.092  11.147
 5954SOL    HW218315   2.488   3.046  11.086
 5955SOL     OW18316   2.193   3.288  10.378
 5955SOL    HW118317   2.120   3.252  10.327
 5955SOL    HW218318   2.243   3.340  10.314
 5956SOL     OW18319   3.322   3.361  10.662
 5956SOL    HW118320   3.372   3.443  10.673
 5956SOL    HW218321   3.263   3.359  10.737
 5957SOL     OW18322   2.291   2.241  10.785
 5957SOL    HW118323   2.380   2.211  10.802
 5957SOL    HW218324   2.235   2.168  10.812
 5958SOL     OW18325   3.474   2.310  10.051
 5958SOL    HW118326   3.400   2.335   9.996
 5958SOL    HW218327   3.493   2.389  10.103
 5959SOL     OW18328   2.083   3.579   9.789
 5959SOL    HW118329   2.117   3.639   9.854
 5959SOL    HW218330   2.151   3.573   9.723
 5960SOL     OW18331   2.998   3.203  11.002
 5960SOL    HW118332   3.039   3.198  11.089
 5960SOL    HW218333   2.945   3.123  10.996
 5961SOL     OW18334   2.090   3.303   9.844
 5961SOL    HW118335   2.073   3.397   9.851
 5961SOL    HW218336   2.031   3.263   9.908
 5962SOL     OW18337   2.118   2.953  10.200
 5962SOL    HW118338   2.114   2.867  10.243
 5962SOL    HW218339   2.060   3.008  10.254
 5963SOL     OW18340   2.475   3.649  10.740
 5963SOL    HW118341   2.393   3.634  10.786
 5963SOL    HW218342   2.500   3.738  10.765
 5964SOL     OW18343   2.450   2.843   9.443
 5964SOL    HW118344   2.494   2.893   9.375
 5964SOL    HW218345   2.489   2.873   9.525
 5965SOL     OW18346   3.458   1.985  10.778
 5965SOL    HW118347   3.460   2.066  10.727
 5965SOL    HW218348   3.446   2.014  10.869
 5966SOL     OW18349   1.981   2.519   9.870
 5966SOL    HW118350   1.944   2.432   9.888
 5966SOL    HW218351   1.970   2.567   9.952
 5967SOL     OW18352   3.699   3.617   9.651
 5967SOL    HW118353   3.766   3.591   9.713
 5967SOL    HW218354   3.722   3.706   9.626
 5968SOL     OW18355   1.889   3.456   9.433
 5968SOL    HW118356   1.875   3.364   9.455
 5968SOL    HW218357   1.869   3.503   9.514
 5969SOL     OW18358   3.550   2.781   9.951
 5969SOL    HW118359   3.634   2.739   9.934
 5969SOL    HW218360   3.531   2.831   9.871
 5970SOL     OW18361   3.503   2.969   9.741
 5970SOL    HW118362   3.588   2.976   9.697
 5970SOL    HW218363   3.510   3.030   9.814
 5971SOL     OW18364   1.981   2.603  10.895
 5971SOL    HW118365   2.073   2.624  10.911
 5971SOL    HW218366   1.936   2.687  10.905
 5972SOL     OW18367   2.476   3.247  10.045
 5972SOL    HW118368   2.429   3.163  10.054
 5972SOL    HW218369   2.458   3.273   9.954
 5973SOL     OW18370   3.151   3.100  10.734
 5973SOL    HW118371   3.184   3.034  10.674
 5973SOL    HW218372   3.208   3.094  10.810
 5974SOL     OW18373   2.673   1.863   9.817
 5974SOL    HW118374   2.713   1.947   9.799
 5974SOL    HW218375   2.579   1.882   9.826
 5975SOL     OW18376   2.053   2.831  10.579
 5975SOL    HW118377   2.137   2.787  10.564
 5975SOL    HW218378   1.989   2.773  10.539
 5976SOL     OW18379   3.392   2.855   9.508
 5976SOL    HW118380   3.322   2.798   9.540
 5976SOL    HW218381   3.432   2.890   9.587
 5977SOL     OW18382   3.072   3.664  10.935
 5977SOL    HW118383   3.056   3.723  10.861
 5977SOL    HW218384   3.074   3.577  10.895
 5978SOL     OW18385   2.259   2.162  11.114
 5978SOL    HW118386   2.303   2.235  11.156
 5978SOL    HW218387   2.165   2.177  11.130
 5979SOL     OW18388   3.327   3.282  10.261
 5979SOL    HW118389   3.259   3.296  10.328
 5979SOL    HW218390   3.316   3.191  10.235
 5980SOL     OW18391   3.515   3.601   9.889
 5980SOL    HW118392   3.502   3.569   9.800
 5980SOL    HW218393   3.495   3.526   9.945
 5981SOL     OW18394   2.458   2.585   9.575
 5981SOL    HW118395   2.465   2.665   9.524
 5981SOL    HW218396   2.393   2.605   9.643
 5982SOL     OW18397   3.141   2.213  10.243
 5982SOL    HW118398   3.052   2.179  10.251
 5982SOL    HW218399   3.192   2.161  10.304
 5983SOL     OW18400   3.439   3.536   9.618
 5983SOL    HW118401   3.530   3.564   9.614
 5983SOL    HW218402   3.416   3.515   9.527
 5984SOL     OW18403   2.655   2.479  10.761
 5984SOL    HW118404   2.629   2.456  10.851
 5984SOL    HW218405   2.613   2.413  10.706
 5985SOL     OW18406   3.256   2.336  10.988
 5985SOL    HW118407   3.258   2.380  11.073
 5985SOL    HW218408   3.317   2.263  10.998
 5986SOL     OW18409   2.818   2.750  10.892
 5986SOL    HW118410   2.872   2.679  10.857
 5986SOL    HW218411   2.771   2.784  10.816
 5987SOL     OW18412   2.855   2.276  10.549
 5987SOL    HW118413   2.771   2.297  10.588
 5987SOL    HW218414   2.833   2.228  10.469
 5988SOL     OW18415   2.912   2.561   9.736
 5988SOL    HW118416   2.928   2.554   9.830
 5988SOL    HW218417   2.830   2.514   9.722
 5989SOL     OW18418   1.950   2.683  10.087
 5989SOL    HW118419   2.032   2.678  10.136
 5989SOL    HW218420   1.907   2.762  10.121
 5990SOL     OW18421   1.987   3.697  10.885
 5990SOL    HW118422   1.986   3.681  10.979
 5990SOL    HW218423   1.895   3.710  10.861
 5991SOL     OW18424   2.754   2.212   9.507
 5991SOL    HW118425   2.796   2.270   9.444
 5991SOL    HW218426   2.758   2.125   9.466
 5992SOL     OW18427   3.574   2.439  11.138
 5992SOL    HW118428   3.535   2.513  11.092
 5992SOL    HW218429   3.595   2.376  11.069
 5993SOL     OW18430   3.237   3.004   9.852
 5993SOL    HW118431   3.317   2.990   9.800
 5993SOL    HW218432   3.185   3.066   9.800
 5994SOL     OW18433   2.409   2.054  10.200
 5994SOL    HW118434   2.409   2.072  10.294
 5994SOL    HW218435   2.428   2.138  10.159
 5995SOL     OW18436   2.869   3.308   9.783
 5995SOL    HW118437   2.829   3.380   9.734
 5995SOL    HW218438   2.852   3.329   9.875
 5996SOL     OW18439   2.213   3.670  10.151
 5996SOL    HW118440   2.263   3.590  10.169
 5996SOL    HW218441   2.274   3.741  10.171
 5997SOL     OW18442   3.665   2.923  10.176
 5997SOL    HW118443   3.610   2.902  10.101
 5997SOL    HW218444   3.605   2.927  10.250
 5998SOL     OW18445   3.090   3.399  10.822
 5998SOL    HW118446   3.075   3.327  10.882
 5998SOL    HW218447   3.026   3.385  10.752
 5999SOL     OW18448   2.183   2.819   9.560
 5999SOL    HW118449   2.265   2.838   9.514
 5999SOL    HW218450   2.152   2.738   9.519
 6000SOL     OW18451   3.339   2.603  10.038
 6000SOL    HW118452   3.330   2.559  10.122
 6000SOL    HW218453   3.416   2.658  10.047
 6001SOL     OW18454   2.327   3.125  11.047
 6001SOL    HW118455   2.300   3.131  10.956
 6001SOL    HW218456   2.246   3.124  11.097
 6002SOL     OW18457   2.975   3.642   9.534
 6002SOL    HW118458   2.913   3.594   9.589
 6002SOL    HW218459   3.004   3.578   9.469
 6003SOL     OW18460   3.488   3.244   9.399
 6003SOL    HW118461   3.446   3.328   9.381
 6003SOL    HW218462   3.421   3.179   9.379
 6004SOL     OW18463   2.331   3.596   9.635
 6004SOL    HW118464   2.366   3.661   9.694
 6004SOL    HW218465   2.404   3.573   9.577
 6005SOL     OW18466   3.263   1.970   9.742
 6005SOL    HW118467   3.253   1.945   9.650
 6005SOL    HW218468   3.357   1.975   9.755
 6006SOL     OW18469   2.120   3.655  10.538
 6006SOL    HW118470   2.169   3.588  10.586
 6006SOL    HW218471   2.106   3.617  10.451
 6007SOL     OW18472   2.800   3.561  10.211
 6007SOL    HW118473   2.877   3.508  10.231
 6007SOL    HW218474   2.754   3.512  10.143
 6008SOL     OW18475   2.254   2.557   9.787
 6008SOL    HW118476   2.275   2.464   9.797
 6008SOL    HW218477   2.160   2.562   9.805
 6009SOL     OW18478   3.399   2.088  11.036
 6009SOL    HW118479   3.407   2.109  11.129
 6009SOL    HW218480   3.331   2.020  11.032
 6010SOL     OW18481   2.507   1.986   9.421
 6010SOL    HW118482   2.573   1.917   9.429
 6010SOL    HW218483   2.449   1.956   9.351
 6011SOL     OW18484   2.629   2.140  11.065
 6011SOL    HW118485   2.703   2.080  11.067
 6011SOL    HW218486   2.576   2.116  11.141
 6012SOL     OW18487   2.738   3.382  10.504
 6012SOL    HW118488   2.723   3.347  10.416
 6012SOL    HW218489   2.808   3.328  10.540
 6013SOL     OW18490   3.203   2.451  10.742
 6013SOL    HW118491   3.234   2.419  10.827
 6013SOL    HW218492   3.239   2.539  10.735
 6014SOL     OW18493   2.676   3.258  10.248
 6014SOL    HW118494   2.760   3.247  10.203
 6014SOL    HW218495   2.612   3.258  10.177
 6015SOL     OW18496   2.788   2.370  10.214
 6015SOL    HW118497   2.766   2.362  10.121
 6015SOL    HW218498   2.823   2.284  10.237
 6016SOL     OW18499   2.405   1.927   9.816
 6016SOL    HW118500   2.341   1.940   9.887
 6016SOL    HW218501   2.394   2.004   9.760
 6017SOL     OW18502   3.290   3.061   9.351
 6017SOL    HW118503   3.321   2.985   9.401
 6017SOL    HW218504   3.204   3.080   9.389
 6018SOL     OW18505   2.799   2.108   9.772
 6018SOL    HW118506   2.772   2.149   9.689
 6018SOL    HW218507   2.894   2.120   9.775
 6019SOL     OW18508   2.942   2.542  10.770
 6019SOL    HW118509   2.874   2.476  10.776
 6019SOL    HW218510   3.024   2.492  10.763
 6020SOL     OW18511   3.085   3.431  10.103
 6020SOL    HW118512   3.103   3.500  10.039
 6020SOL    HW218513   3.154   3.442  10.169
 6021SOL     OW18514   2.330   3.011  10.045
 6021SOL    HW118515   2.260   2.992  10.107
 6021SOL    HW218516   2.291   2.994   9.959
 6022SOL     OW18517   3.131   3.659   9.915
 6022SOL    HW118518   3.175   3.723   9.859
 6022SOL    HW218519   3.062   3.708   9.958
 6023SOL     OW18520   2.887   2.405   9.331
 6023SOL    HW118521   2.844   2.489   9.311
 6023SOL    HW218522   2.951   2.427   9.398
 6024SOL     OW18523   1.937   2.423  10.696
 6024SOL    HW118524   2.030   2.418  10.674
 6024SOL    HW218525   1.932   2.488  10.766
 6025SOL     OW18526   2.414   2.083  10.476
 6025SOL    HW118527   2.462   2.005  10.505
 6025SOL    HW218528   2.331   2.079  10.523
 6026SOL     OW18529   2.727   2.320   9.950
 6026SOL    HW118530   2.686   2.376   9.884
 6026SOL    HW218531   2.751   2.240   9.902
 6027SOL     OW18532   2.875   1.916  10.063
 6027SOL    HW118533   2.819   1.907   9.986
 6027SOL    HW218534   2.855   1.839  10.117
 6028SOL     OW18535   3.299   3.025  10.167
 6028SOL    HW118536   3.230   2.958  10.166
 6028SOL    HW218537   3.323   3.037  10.076
 6029SOL     OW18538   3.328   2.467  10.289
 6029SOL    HW118539   3.280   2.384  10.292
 6029SOL    HW218540   3.389   2.462  10.363
 6030SOL     OW18541   3.722   2.681   9.685
 6030SOL    HW118542   3.767   2.625   9.749
 6030SOL    HW218543   3.685   2.620   9.622
 6031SOL     OW18544   2.354   3.277   9.468
 6031SOL    HW118545   2.279   3.249   9.520
 6031SOL    HW218546   2.335   3.244   9.380
 6032SOL     OW18547   3.528   3.127   9.958
 6032SOL    HW118548   3.623   3.131   9.966
 6032SOL    HW218549   3.498   3.216   9.978
 6033SOL     OW18550   3.256   2.433   9.382
 6033SOL    HW118551   3.195   2.415   9.453
 6033SOL    HW218552   3.340   2.400   9.413
 6034SOL     OW18553   2.386   2.126   9.630
 6034SOL    HW118554   2.427   2.073   9.562
 6034SOL    HW218555   2.366   2.209   9.587
 6035SOL     OW18556   3.614   3.097  10.882
 6035SOL    HW118557   3.701   3.061  10.865
 6035SOL    HW218558   3.631   3.186  10.914
 6036SOL     OW18559   2.921   3.215  10.644
 6036SOL    HW118560   2.847   3.184  10.695
 6036SOL    HW218561   2.997   3.174  10.685
 6037SOL     OW18562   3.468   3.490  10.964
 6037SOL    HW118563   3.461   3.523  10.874
 6037SOL    HW218564   3.550   3.440  10.965
 6038SOL     OW18565   2.989   3.064  10.416
 6038SOL    HW118566   2.931   3.103  10.481
 6038SOL    HW218567   2.956   3.096  10.332
 6039SOL     OW18568   3.494   2.961  10.386
 6039SOL    HW118569   3.487   3.022  10.460
 6039SOL    HW218570   3.414   2.975  10.336
 6040SOL     OW18571   2.779   1.961  10.707
 6040SOL    HW118572   2.803   1.940  10.616
 6040SOL    HW218573   2.858   1.999  10.744
 6041SOL     OW18574   2.846   2.976  11.032
 6041SOL    HW118575   2.754   2.992  11.053
 6041SOL    HW218576   2.845   2.899  10.977
 6042SOL     OW18577   2.570   2.923   9.681
 6042SOL    HW118578   2.557   2.907   9.775
 6042SOL    HW218579   2.646   2.869   9.659
 6043SOL     OW18580   2.279   2.675  10.561
 6043SOL    HW118581   2.348   2.687  10.627
 6043SOL    HW218582   2.244   2.588  10.578
 6044SOL     OW18583   3.128   2.239  10.585
 6044SOL    HW118584   3.161   2.317  10.631
 6044SOL    HW218585   3.038   2.262  10.561
 6045SOL     OW18586   1.931   3.434  10.660
 6045SOL    HW118587   1.901   3.510  10.609
 6045SOL    HW218588   2.027   3.440  10.657
 6046SOL     OW18589   2.213   2.970   9.801
 6046SOL    HW118590   2.217   3.044   9.740
 6046SOL    HW218591   2.211   2.892   9.745
 6047SOL     OW18592   2.412   2.399  10.172
 6047SOL    HW118593   2.427   2.457  10.097
 6047SOL    HW218594   2.477   2.426  10.236
 6048SOL     OW18595   3.110   3.210   9.699
 6048SOL    HW118596   3.166   3.281   9.730
 6048SOL    HW218597   3.023   3.231   9.733
 6049SOL     OW18598   3.141   3.320  10.457
 6049SOL    HW118599   3.197   3.322  10.534
 6049SOL    HW218600   3.086   3.242  10.469
 6050SOL     OW18601   3.443   2.485   9.788
 6050SOL    HW118602   3.398   2.541   9.852
 6050SOL    HW218603   3.487   2.547   9.730
 6051SOL     OW18604   2.209   3.388  10.626
 6051SOL    HW118605   2.196   3.345  10.541
 6051SOL    HW218606   2.303   3.400  10.633
 6052SOL     OW18607   2.275   2.609  10.912
 6052SOL    HW118608   2.338   2.652  10.854
 6052SOL    HW218609   2.315   2.525  10.933
 6053SOL     OW18610   3.462   2.639  10.989
 6053SOL    HW118611   3.376   2.681  10.983
 6053SOL    HW218612   3.514   2.682  10.922
 6054SOL     OW18613   2.857   1.983  11.064
 6054SOL    HW118614   2.913   2.056  11.036
 6054SOL    HW218615   2.906   1.904  11.039
 6055SOL     OW18616   2.372   1.907  11.060
 6055SOL    HW118617   2.318   1.855  11.001
 6055SOL    HW218618   2.325   1.990  11.068
 6056SOL     OW18619   2.445   2.734  10.342
 6056SOL    HW118620   2.476   2.825  10.338
 6056SOL    HW218621   2.389   2.731  10.419
 6057SOL     OW18622   3.221   2.721  10.341
 6057SOL    HW118623   3.139   2.712  10.292
 6057SOL    HW218624   3.261   2.634  10.337
 6058SOL     OW18625   3.068   2.391   9.578
 6058SOL    HW118626   3.075   2.312   9.632
 6058SOL    HW218627   3.025   2.455   9.634
 6059SOL     OW18628   1.908   3.172  10.587
 6059SOL    HW118629   1.941   3.119  10.658
 6059SOL    HW218630   1.915   3.262  10.618
 6060SOL     OW18631   2.584   2.491  10.367
 6060SOL    HW118632   2.660   2.475  10.311
 6060SOL    HW218633   2.559   2.581  10.348
 6061SOL     OW18634   3.594   2.821  11.167
 6061SOL    HW118635   3.550   2.764  11.104
 6061SOL    HW218636   3.531   2.832  11.237
 6062SOL     OW18637   3.478   2.236   9.678
 6062SOL    HW118638   3.505   2.172   9.743
 6062SOL    HW218639   3.455   2.313   9.728
 6063SOL     OW18640   2.889   2.621  10.271
 6063SOL    HW118641   2.887   2.639  10.365
 6063SOL    HW218642   2.863   2.529  10.264
 6064SOL     OW18643   2.846   3.429  11.027
 6064SOL    HW118644   2.829   3.472  10.943
 6064SOL    HW218645   2.888   3.347  11.004
 6065SOL     OW18646   3.708   3.367  10.910
 6065SOL    HW118647   3.730   3.394  10.821
 6065SOL    HW218648   3.789   3.381  10.960
 6066SOL     OW18649   2.215   2.778  11.120
 6066SOL    HW118650   2.298   2.797  11.163
 6066SOL    HW218651   2.237   2.717  11.050
 6067SOL     OW18652   3.392   2.136   9.437
 6067SOL    HW118653   3.327   2.070   9.463
 6067SOL    HW218654   3.425   2.171   9.520
 6068SOL     OW18655   3.154   2.688   9.342
 6068SOL    HW118656   3.198   2.603   9.345
 6068SOL    HW218657   3.186   2.728   9.260
 6069SOL     OW18658   2.927   3.197  10.163
 6069SOL    HW118659   2.930   3.124  10.101
 6069SOL    HW218660   2.989   3.261  10.128
 6070SOL     OW18661   2.172   2.673  10.257
 6070SOL    HW118662   2.265   2.695  10.249
 6070SOL    HW218663   2.172   2.586  10.298
 6071SOL     OW18664   2.189   2.363  10.320
 6071SOL    HW118665   2.149   2.290  10.274
 6071SOL    HW218666   2.269   2.382  10.271
 6072SOL     OW18667   2.996   2.239  10.990
 6072SOL    HW118668   2.949   2.294  11.054
 6072SOL    HW218669   3.084   2.277  10.987
 6073SOL     OW18670   3.022   2.066  10.779
 6073SOL    HW118671   3.012   2.128  10.851
 6073SOL    HW218672   3.062   2.117  10.709
 6074SOL     OW18673   1.867   3.184   9.505
 6074SOL    HW118674   1.780   3.198   9.468
 6074SOL    HW218675   1.864   3.094   9.538
 6075SOL     OW18676   1.956   3.646  10.246
 6075SOL    HW118677   1.926   3.567  10.203
 6075SOL    HW218678   2.043   3.663  10.209
 6076SOL     OW18679   2.359   3.436  10.216
 6076SOL    HW118680   2.427   3.499  10.240
 6076SOL    HW218681   2.404   3.372  10.161
 6077SOL     OW18682   2.847   2.654  10.537
 6077SOL    HW118683   2.903   2.631  10.611
 6077SOL    HW218684   2.761   2.619  10.560
 6078SOL     OW18685   1.900   2.396  10.427
 6078SOL    HW118686   1.985   2.398  10.383
 6078SOL    HW218687   1.921   2.410  10.519
 6079SOL     OW18688   2.066   2.381  11.041
 6079SOL    HW118689   2.115   2.349  10.965
 6079SOL    HW218690   2.001   2.440  11.004
 6080SOL     OW18691   3.239   2.802  10.969
 6080SOL    HW118692   3.260   2.895  10.968
 6080SOL    HW218693   3.236   2.777  10.877
 6081SOL     OW18694   2.677   2.431   9.670
 6081SOL    HW118695   2.683   2.357   9.610
 6081SOL    HW218696   2.604   2.483   9.637
 6082SOL     OW18697   3.504   2.464  10.498
 6082SOL    HW118698   3.492   2.403  10.571
 6082SOL    HW218699   3.589   2.441  10.461
 6083SOL     OW18700   2.108   3.413  11.038
 6083SOL    HW118701   2.084   3.478  11.104
 6083SOL    HW218702   2.107   3.330  11.085
 6084SOL     OW18703   2.557   2.313  10.571
 6084SOL    HW118704   2.507   2.238  10.538
 6084SOL    HW218705   2.556   2.376  10.499
 6085SOL     OW18706   2.792   3.536  10.777
 6085SOL    HW118707   2.765   3.501  10.692
 6085SOL    HW218708   2.785   3.631  10.768
 6086SOL     OW18709   2.327   2.356   9.497
 6086SOL    HW118710   2.385   2.430   9.519
 6086SOL    HW218711   2.241   2.396   9.486
 6087SOL     OW18712   2.009   3.002  10.782
 6087SOL    HW118713   2.012   2.950  10.862
 6087SOL    HW218714   2.026   2.940  10.711
 6088SOL     OW18715   3.188   2.909  10.534
 6088SOL    HW118716   3.212   2.846  10.466
 6088SOL    HW218717   3.117   2.961  10.495
 6089SOL     OW18718   3.172   2.718   9.617
 6089SOL    HW118719   3.096   2.688   9.666
 6089SOL    HW218720   3.148   2.705   9.525
 6090SOL     OW18721   3.634   3.607  10.460
 6090SOL    HW118722   3.693   3.633  10.389
 6090SOL    HW218723   3.609   3.517  10.440
 6091SOL     OW18724   3.105   3.596  10.424
 6091SOL    HW118725   3.187   3.615  10.379
 6091SOL    HW218726   3.109   3.502  10.443
 6092SOL     OW18727   1.945   3.128  10.323
 6092SOL    HW118728   1.932   3.141  10.417
 6092SOL    HW218729   1.872   3.074  10.295
 6093SOL     OW18730   2.540   3.525  11.036
 6093SOL    HW118731   2.486   3.604  11.040
 6093SOL    HW218732   2.600   3.540  10.963
 6094SOL     OW18733   3.576   2.007   9.824
 6094SOL    HW118734   3.645   1.994   9.758
 6094SOL    HW218735   3.564   1.921   9.863
 6095SOL     OW18736   3.251   3.430   9.794
 6095SOL    HW118737   3.312   3.462   9.727
 6095SOL    HW218738   3.205   3.509   9.824
 6096SOL     OW18739   1.994   3.655  11.150
 6096SOL    HW118740   1.942   3.591  11.199
 6096SOL    HW218741   2.044   3.701  11.217
 6097SOL     OW18742   3.139   2.787   9.981
 6097SOL    HW118743   3.213   2.726   9.987
 6097SOL    HW218744   3.173   2.860   9.929
 6098SOL     OW18745   2.678   3.135  10.741
 6098SOL    HW118746   2.650   3.174  10.824
 6098SOL    HW218747   2.608   3.157  10.679
 6099SOL     OW18748   2.537   3.477   9.466
 6099SOL    HW118749   2.544   3.492   9.372
 6099SOL    HW218750   2.480   3.400   9.474
 6100SOL     OW18751   3.487   3.588  10.700
 6100SOL    HW118752   3.540   3.593  10.621
 6100SOL    HW218753   3.475   3.679  10.727
 6101SOL     OW18754   3.699   2.042  10.279
 6101SOL    HW118755   3.730   1.956  10.252
 6101SOL    HW218756   3.613   2.051  10.237
 6102SOL     OW18757   3.068   3.469   9.344
 6102SOL    HW118758   3.059   3.377   9.369
 6102SOL    HW218759   3.007   3.481   9.272
 6103SOL     OW18760   2.686   2.868  10.682
 6103SOL    HW118761   2.730   2.865  10.597
 6103SOL    HW218762   2.686   2.961  10.705
 6104SOL     OW18763   2.778   2.772   9.600
 6104SOL    HW118764   2.839   2.804   9.533
 6104SOL    HW218765   2.826   2.702   9.645
 6105SOL     OW18766   3.353   3.490   9.351
 6105SOL    HW118767   3.259   3.480   9.336
 6105SOL    HW218768   3.391   3.495   9.264
 6106SOL     OW18769   2.231   3.164  10.801
 6106SOL    HW118770   2.218   3.242  10.747
 6106SOL    HW218771   2.154   3.110  10.785
 6107SOL     OW18772   3.466   3.142  10.589
 6107SOL    HW118773   3.534   3.137  10.657
 6107SOL    HW218774   3.409   3.213  10.618
 6108SOL     OW18775   2.912   2.968  10.016
 6108SOL    HW118776   2.842   2.917  10.055
 6108SOL    HW218777   2.974   2.903   9.983
 6109SOL     OW18778   2.881   2.102  10.276
 6109SOL    HW118779   2.877   2.054  10.193
 6109SOL    HW218780   2.878   2.034  10.344
 6110SOL     OW18781   2.464   3.352   9.791
 6110SOL    HW118782   2.507   3.301   9.722
 6110SOL    HW218783   2.398   3.404   9.745
 6111SOL     OW18784   3.583   2.253  10.689
 6111SOL    HW118785   3.655   2.316  10.685
 6111SOL    HW218786   3.613   2.180  10.633
 6112SOL     OW18787   2.121   3.207   9.598
 6112SOL    HW118788   2.028   3.205   9.575
 6112SOL    HW218789   2.123   3.245   9.686
 6113SOL     OW18790   1.974   2.882  11.029
 6113SOL    HW118791   1.898   2.860  11.082
 6113SOL    HW218792   2.048   2.845  11.077
 6114SOL     OW18793   2.536   2.060  10.809
 6114SOL    HW118794   2.620   2.039  10.768
 6114SOL    HW218795   2.558   2.088  10.897
 6115SOL     OW18796   3.292   2.721  10.711
 6115SOL    HW118797   3.242   2.781  10.656
 6115SOL    HW218798   3.380   2.722  10.676
 6116SOL     OW18799   3.041   3.202   9.427
 6116SOL    HW118800   2.950   3.172   9.429
 6116SOL    HW218801   3.069   3.201   9.518
 6117SOL     OW18802   2.481   2.693  10.742
 6117SOL    HW118803   2.536   2.769  10.728
 6117SOL    HW218804   2.543   2.620  10.751
 6118SOL     OW18805   3.347   3.641  10.289
 6118SOL    HW118806   3.373   3.691  10.212
 6118SOL    HW218807   3.429   3.615  10.331
 6119SOL     OW18808   2.579   2.424  11.014
 6119SOL    HW118809   2.617   2.488  11.074
 6119SOL    HW218810   2.609   2.340  11.046
 6120SOL     OW18811   3.332   3.063  10.942
 6120SOL    HW118812   3.321   3.077  11.037
 6120SOL    HW218813   3.426   3.077  10.927
 6121SOL     OW18814   2.241   3.601  10.872
 6121SOL    HW118815   2.155   3.640  10.858
 6121SOL    HW218816   2.223   3.517  10.914
 6122SOL     OW18817   3.529   2.743  10.568
 6122SOL    HW118818   3.526   2.658  10.525
 6122SOL    HW218819   3.524   2.806  10.497
 6123SOL     OW18820   3.079   2.181   9.768
 6123SOL    HW118821   3.143   2.110   9.759
 6123SOL    HW218822   3.109   2.230   9.845
 6124SOL     OW18823   2.450   2.600   9.980
 6124SOL    HW118824   2.492   2.685   9.964
 6124SOL    HW218825   2.383   2.593   9.912
 6125SOL     OW18826   3.625   2.225  10.959
 6125SOL    HW118827   3.607   2.238  10.866
 6125SOL    HW218828   3.555   2.167  10.989
 6126SOL     OW18829   3.614   2.793  10.824
 6126SOL    HW118830   3.609   2.887  10.839
 6126SOL    HW218831   3.592   2.782  10.731
 6127SOL     OW18832   2.725   3.230   9.343
 6127SOL    HW118833   2.684   3.258   9.425
 6127SOL    HW218834   2.742   3.312   9.296
 6128SOL     OW18835   2.521   3.654  10.255
 6128SOL    HW118836   2.499   3.744  10.231
 6128SOL    HW218837   2.617   3.650  10.248
 6129SOL     OW18838   2.728   2.828  10.166
 6129SOL    HW118839   2.779   2.757  10.206
 6129SOL    HW218840   2.695   2.878  10.240
 6130SOL     OW18841   2.941   2.850   9.399
 6130SOL    HW118842   2.920   2.901   9.320
 6130SOL    HW218843   3.016   2.797   9.373
 6131SOL     OW18844   3.717   3.418  10.152
 6131SOL    HW118845   3.638   3.400  10.100
 6131SOL    HW218846   3.716   3.351  10.220
 6132SOL     OW18847   2.087   3.165  11.166
 6132SOL    HW118848   2.019   3.105  11.137
 6132SOL    HW218849   2.069   3.178  11.259
 6133SOL     OW18850   1.946   3.096   9.974
 6133SOL    HW118851   1.950   3.048  10.057
 6133SOL    HW218852   2.014   3.057   9.920
 6134SOL     OW18853   2.543   3.264  10.937
 6134SOL    HW118854   2.463   3.221  10.968
 6134SOL    HW218855   2.539   3.352  10.974
 6135SOL     OW18856   3.677   2.043  10.550
 6135SOL    HW118857   3.671   1.948  10.556
 6135SOL    HW218858   3.689   2.061  10.456
 6136SOL     OW18859   2.293   2.294   9.835
 6136SOL    HW118860   2.322   2.232   9.768
 6136SOL    HW218861   2.246   2.241   9.899
 6137SOL     OW18862   3.561   3.353  10.409
 6137SOL    HW118863   3.481   3.327  10.364
 6137SOL    HW218864   3.577   3.284  10.473
 6138SOL     OW18865   2.191   2.416  10.598
 6138SOL    HW118866   2.237   2.356  10.657
 6138SOL    HW218867   2.210   2.382  10.511
 6139SOL     OW18868   2.688   3.441   9.988
 6139SOL    HW118869   2.678   3.486   9.905
 6139SOL    HW218870   2.611   3.383   9.994
 6140SOL     OW18871   3.294   2.087  10.428
 6140SOL    HW118872   3.319   2.007  10.473
 6140SOL    HW218873   3.242   2.136  10.492
 6141SOL     OW18874   2.870   1.881  10.454
 6141SOL    HW118875   2.816   1.812  10.414
 6141SOL    HW218876   2.958   1.844  10.456
 6142SOL     OW18877   2.634   3.194   9.624
 6142SOL    HW118878   2.601   3.104   9.629
 6142SOL    HW218879   2.717   3.192   9.672
 6143SOL     OW18880   2.482   3.418  10.594
 6143SOL    HW118881   2.484   3.499  10.645
 6143SOL    HW218882   2.569   3.411  10.556
 6144SOL     OW18883   3.214   1.916   9.474
 6144SOL    HW118884   3.242   1.852   9.408
 6144SOL    HW218885   3.127   1.886   9.501
 6145SOL     OW18886   3.158   2.322   9.992
 6145SOL    HW118887   3.105   2.402  10.000
 6145SOL    HW218888   3.155   2.283  10.079
 6146SOL     OW18889   3.446   2.065  10.186
 6146SOL    HW118890   3.385   2.085  10.257
 6146SOL    HW218891   3.447   2.143  10.132
 6147SOL     OW18892   1.905   2.934   9.616
 6147SOL    HW118893   1.999   2.925   9.599
 6147SOL    HW218894   1.877   2.845   9.639
 6148SOL     OW18895   2.745   3.516   9.655
 6148SOL    HW118896   2.675   3.496   9.593
 6148SOL    HW218897   2.714   3.593   9.703
 6149SOL     OW18898   2.089   2.479  11.296
 6149SOL    HW118899   1.998   2.486  11.326
 6149SOL    HW218900   2.082   2.451  11.205
 6150SOL     OW18901   1.855   2.282  11.797
 6150SOL    HW118902   1.772   2.285  11.843
 6150SOL    HW218903   1.852   2.201  11.746
 6151SOL     OW18904   2.429   3.148  12.345
 6151SOL    HW118905   2.341   3.151  12.307
 6151SOL    HW218906   2.444   3.236  12.380
 6152SOL     OW18907   3.421   3.374  11.879
 6152SOL    HW118908   3.378   3.353  11.962
 6152SOL    HW218909   3.349   3.378  11.815
 6153SOL     OW18910   2.991   2.561  11.874
 6153SOL    HW118911   3.041   2.641  11.859
 6153SOL    HW218912   2.945   2.576  11.957
 6154SOL     OW18913   3.627   2.470  11.403
 6154SOL    HW118914   3.608   2.461  11.309
 6154SOL    HW218915   3.592   2.390  11.442
 6155SOL     OW18916   2.619   3.005  12.211
 6155SOL    HW118917   2.549   3.039  12.268
 6155SOL    HW218918   2.653   3.082  12.167
 6156SOL     OW18919   2.726   2.639  12.993
 6156SOL    HW118920   2.714   2.711  13.055
 6156SOL    HW218921   2.750   2.682  12.911
 6157SOL     OW18922   2.548   2.865  11.820
 6157SOL    HW118923   2.613   2.853  11.889
 6157SOL    HW218924   2.478   2.917  11.860
 6158SOL     OW18925   2.571   3.013  12.983
 6158SOL    HW118926   2.619   3.092  13.009
 6158SOL    HW218927   2.488   3.046  12.948
 6159SOL     OW18928   2.193   3.288  12.240
 6159SOL    HW118929   2.120   3.252  12.189
 6159SOL    HW218930   2.243   3.340  12.176
 6160SOL     OW18931   3.322   3.361  12.524
 6160SOL    HW118932   3.372   3.443  12.535
 6160SOL    HW218933   3.263   3.359  12.599
 6161SOL     OW18934   2.292   2.241  12.646
 6161SOL    HW118935   2.382   2.212  12.662
 6161SOL    HW218936   2.237   2.171  12.680
 6162SOL     OW18937   3.474   2.310  11.913
 6162SOL    HW118938   3.400   2.335  11.858
 6162SOL    HW218939   3.493   2.389  11.965
 6163SOL     OW18940   2.083   3.579  11.651
 6163SOL    HW118941   2.117   3.639  11.716
 6163SOL    HW218942   2.151   3.573  11.585
 6164SOL     OW18943   2.998   3.203  12.864
 6164SOL    HW118944   3.038   3.199  12.951
 6164SOL    HW218945   2.945   3.124  12.858
 6165SOL     OW18946   2.090   3.303  11.706
 6165SOL    HW118947   2.073   3.397  11.713
 6165SOL    HW218948   2.031   3.263  11.770
 6166SOL     OW18949   2.118   2.953  12.062
 6166SOL    HW118950   2.114   2.867  12.105
 6166SOL    HW218951   2.060   3.008  12.116
 6167SOL     OW18952   2.475   3.649  12.602
 6167SOL    HW118953   2.393   3.634  12.648
 6167SOL    HW218954   2.500   3.738  12.627
 6168SOL     OW18955   2.450   2.843  11.305
 6168SOL    HW118956   2.494   2.893  11.237
 6168SOL    HW218957   2.489   2.873  11.387
 6169SOL     OW18958   3.458   1.985  12.640
 6169SOL    HW118959   3.460   2.066  12.589
 6169SOL    HW218960   3.446   2.014  12.731
 6170SOL     OW18961   1.981   2.518  11.732
 6170SOL    HW118962   1.944   2.432  11.750
 6170SOL    HW218963   1.970   2.566  11.814
 6171SOL     OW18964   3.699   3.617  11.512
 6171SOL    HW118965   3.766   3.591  11.575
 6171SOL    HW218966   3.722   3.706  11.488
 6172SOL     OW18967   1.889   3.456  11.295
 6172SOL    HW118968   1.875   3.364  11.317
 6172SOL    HW218969   1.869   3.503  11.376
 6173SOL     OW18970   3.550   2.781  11.813
 6173SOL    HW118971   3.634   2.739  11.796
 6173SOL    HW218972   3.531   2.831  11.733
 6174SOL     OW18973   3.503   2.969  11.603
 6174SOL    HW118974   3.588   2.976  11.559
 6174SOL    HW218975   3.510   3.030  11.676
 6175SOL     OW18976   1.981   2.603  12.757
 6175SOL    HW118977   2.074   2.624  12.773
 6175SOL    HW218978   1.936   2.687  12.767
 6176SOL     OW18979   2.476   3.247  11.907
 6176SOL    HW118980   2.429   3.163  11.916
 6176SOL    HW218981   2.458   3.273  11.816
 6177SOL     OW18982   3.151   3.100  12.596
 6177SOL    HW118983   3.184   3.034  12.536
 6177SOL    HW218984   3.208   3.094  12.673
 6178SOL     OW18985   2.673   1.863  11.679
 6178SOL    HW118986   2.713   1.948  11.661
 6178SOL    HW218987   2.579   1.882  11.688
 6179SOL     OW18988   2.053   2.831  12.441
 6179SOL    HW118989   2.137   2.787  12.426
 6179SOL    HW218990   1.989   2.773  12.401
 6180SOL     OW18991   3.392   2.855  11.370
 6180SOL    HW118992   3.322   2.798  11.402
 6180SOL    HW218993   3.432   2.890  11.449
 6181SOL     OW18994   3.072   3.664  12.797
 6181SOL    HW118995   3.056   3.723  12.723
 6181SOL    HW218996   3.074   3.577  12.757
 6182SOL     OW18997   2.257   2.162  12.972
 6182SOL    HW118998   2.301   2.232  13.021
 6182SOL    HW218999   2.164   2.180  12.984
 6183SOL     OW19000   3.327   3.282  12.123
 6183SOL    HW119001   3.259   3.296  12.190
 6183SOL    HW219002   3.316   3.191  12.097
 6184SOL     OW19003   3.515   3.601  11.751
 6184SOL    HW119004   3.502   3.569  11.662
 6184SOL    HW219005   3.495   3.526  11.807
 6185SOL     OW19006   2.457   2.584  11.437
 6185SOL    HW119007   2.465   2.664  11.386
 6185SOL    HW219008   2.392   2.604  11.505
 6186SOL     OW19009   3.141   2.213  12.105
 6186SOL    HW119010   3.052   2.179  12.113
 6186SOL    HW219011   3.192   2.161  12.166
 6187SOL     OW19012   3.439   3.536  11.480
 6187SOL    HW119013   3.530   3.564  11.476
 6187SOL    HW219014   3.416   3.515  11.389
 6188SOL     OW19015   2.655   2.479  12.623
 6188SOL    HW119016   2.629   2.456  12.713
 6188SOL    HW219017   2.613   2.413  12.568
 6189SOL     OW19018   3.256   2.336  12.850
 6189SOL    HW119019   3.257   2.380  12.935
 6189SOL    HW219020   3.317   2.263  12.860
 6190SOL     OW19021   2.818   2.750  12.754
 6190SOL    HW119022   2.872   2.679  12.719
 6190SOL    HW219023   2.771   2.784  12.678
 6191SOL     OW19024   2.855   2.275  12.411
 6191SOL    HW119025   2.771   2.297  12.450
 6191SOL    HW219026   2.833   2.228  12.331
 6192SOL     OW19027   2.912   2.561  11.598
 6192SOL    HW119028   2.928   2.554  11.693
 6192SOL    HW219029   2.830   2.514  11.584
 6193SOL     OW19030   1.950   2.683  11.949
 6193SOL    HW119031   2.032   2.678  11.998
 6193SOL    HW219032   1.907   2.762  11.983
 6194SOL     OW19033   1.987   3.698  12.747
 6194SOL    HW119034   1.986   3.681  12.841
 6194SOL    HW219035   1.895   3.710  12.724
 6195SOL     OW19036   2.754   2.212  11.369
 6195SOL    HW119037   2.796   2.270  11.306
 6195SOL    HW219038   2.759   2.125  11.328
 6196SOL     OW19039   3.574   2.439  13.000
 6196SOL    HW119040   3.535   2.514  12.954
 6196SOL    HW219041   3.595   2.376  12.931
 6197SOL     OW19042   3.237   3.004  11.714
 6197SOL    HW119043   3.317   2.990  11.662
 6197SOL    HW219044   3.185   3.066  11.662
 6198SOL     OW19045   2.409   2.054  12.062
 6198SOL    HW119046   2.408   2.072  12.156
 6198SOL    HW219047   2.428   2.138  12.022
 6199SOL     OW19048   2.869   3.308  11.645
 6199SOL    HW119049   2.829   3.380  11.596
 6199SOL    HW219050   2.852   3.329  11.737
 6200SOL     OW19051   2.213   3.670  12.013
 6200SOL    HW119052   2.263   3.590  12.031
 6200SOL    HW219053   2.274   3.741  12.033
 6201SOL     OW19054   3.665   2.923  12.038
 6201SOL    HW119055   3.610   2.902  11.963
 6201SOL    HW219056   3.605   2.927  12.112
 6202SOL     OW19057   3.090   3.399  12.684
 6202SOL    HW119058   3.075   3.327  12.745
 6202SOL    HW219059   3.026   3.385  12.614
 6203SOL     OW19060   2.183   2.819  11.422
 6203SOL    HW119061   2.265   2.838  11.376
 6203SOL    HW219062   2.152   2.738  11.382
 6204SOL     OW19063   3.339   2.603  11.900
 6204SOL    HW119064   3.330   2.559  11.984
 6204SOL    HW219065   3.416   2.658  11.910
 6205SOL     OW19066   2.327   3.125  12.909
 6205SOL    HW119067   2.300   3.131  12.818
 6205SOL    HW219068   2.246   3.124  12.959
 6206SOL     OW19069   2.975   3.642  11.396
 6206SOL    HW119070   2.913   3.594  11.451
 6206SOL    HW219071   3.004   3.578  11.331
 6207SOL     OW19072   3.488   3.244  11.261
 6207SOL    HW119073   3.446   3.328  11.243
 6207SOL    HW219074   3.421   3.179  11.241
 6208SOL     OW19075   2.331   3.596  11.497
 6208SOL    HW119076   2.366   3.661  11.556
 6208SOL    HW219077   2.404   3.573  11.439
 6209SOL     OW19078   3.263   1.970  11.604
 6209SOL    HW119079   3.253   1.945  11.512
 6209SOL    HW219080   3.357   1.975  11.617
 6210SOL     OW19081   2.120   3.655  12.400
 6210SOL    HW119082   2.169   3.588  12.448
 6210SOL    HW219083   2.106   3.617  12.313
 6211SOL     OW19084   2.800   3.561  12.073
 6211SOL    HW119085   2.877   3.508  12.094
 6211SOL    HW219086   2.754   3.512  12.005
 6212SOL     OW19087   2.254   2.557  11.649
 6212SOL    HW119088   2.275   2.465  11.659
 6212SOL    HW219089   2.160   2.563  11.667
 6213SOL     OW19090   3.399   2.087  12.898
 6213SOL    HW119091   3.407   2.108  12.991
 6213SOL    HW219092   3.331   2.020  12.894
 6214SOL     OW19093   2.506   1.987  11.282
 6214SOL    HW119094   2.572   1.918  11.292
 6214SOL    HW219095   2.449   1.956  11.212
 6215SOL     OW19096   2.629   2.140  12.926
 6215SOL    HW119097   2.703   2.080  12.928
 6215SOL    HW219098   2.577   2.117  13.003
 6216SOL     OW19099   2.738   3.382  12.366
 6216SOL    HW119100   2.723   3.347  12.279
 6216SOL    HW219101   2.808   3.328  12.402
 6217SOL     OW19102   3.203   2.451  12.604
 6217SOL    HW119103   3.234   2.419  12.689
 6217SOL    HW219104   3.239   2.539  12.597
 6218SOL     OW19105   2.676   3.258  12.110
 6218SOL    HW119106   2.760   3.247  12.065
 6218SOL    HW219107   2.612   3.258  12.039
 6219SOL     OW19108   2.789   2.370  12.076
 6219SOL    HW119109   2.766   2.362  11.983
 6219SOL    HW219110   2.823   2.284  12.099
 6220SOL     OW19111   2.405   1.927  11.678
 6220SOL    HW119112   2.342   1.940  11.749
 6220SOL    HW219113   2.394   2.004  11.622
 6221SOL     OW19114   3.290   3.061  11.213
 6221SOL    HW119115   3.321   2.985  11.263
 6221SOL    HW219116   3.204   3.080  11.251
 6222SOL     OW19117   2.799   2.108  11.634
 6222SOL    HW119118   2.772   2.149  11.551
 6222SOL    HW219119   2.894   2.120  11.637
 6223SOL     OW19120   2.942   2.542  12.632
 6223SOL    HW119121   2.873   2.476  12.638
 6223SOL    HW219122   3.023   2.492  12.625
 6224SOL     OW19123   3.085   3.431  11.965
 6224SOL    HW119124   3.103   3.500  11.901
 6224SOL    HW219125   3.154   3.442  12.031
 6225SOL     OW19126   2.330   3.011  11.907
 6225SOL    HW119127   2.260   2.992  11.969
 6225SOL    HW219128   2.291   2.994  11.821
 6226SOL     OW19129   3.131   3.659  11.777
 6226SOL    HW119130   3.175   3.723  11.721
 6226SOL    HW219131   3.062   3.708  11.820
 6227SOL     OW19132   2.887   2.405  11.193
 6227SOL    HW119133   2.844   2.489  11.173
 6227SOL    HW219134   2.951   2.426  11.260
 6228SOL     OW19135   1.937   2.423  12.558
 6228SOL    HW119136   2.030   2.418  12.536
 6228SOL    HW219137   1.932   2.488  12.628
 6229SOL     OW19138   2.413   2.083  12.338
 6229SOL    HW119139   2.461   2.005  12.368
 6229SOL    HW219140   2.331   2.080  12.386
 6230SOL     OW19141   2.727   2.320  11.812
 6230SOL    HW119142   2.686   2.376  11.746
 6230SOL    HW219143   2.751   2.240  11.764
 6231SOL     OW19144   2.875   1.916  11.925
 6231SOL    HW119145   2.819   1.906  11.848
 6231SOL    HW219146   2.855   1.839  11.979
 6232SOL     OW19147   3.299   3.025  12.029
 6232SOL    HW119148   3.230   2.958  12.028
 6232SOL    HW219149   3.323   3.037  11.938
 6233SOL     OW19150   3.328   2.467  12.151
 6233SOL    HW119151   3.280   2.384  12.154
 6233SOL    HW219152   3.389   2.462  12.225
 6234SOL     OW19153   3.722   2.681  11.547
 6234SOL    HW119154   3.767   2.625  11.611
 6234SOL    HW219155   3.685   2.620  11.484
 6235SOL     OW19156   2.354   3.277  11.330
 6235SOL    HW119157   2.279   3.249  11.382
 6235SOL    HW219158   2.335   3.244  11.242
 6236SOL     OW19159   3.528   3.127  11.819
 6236SOL    HW119160   3.623   3.131  11.828
 6236SOL    HW219161   3.498   3.216  11.840
 6237SOL     OW19162   3.256   2.433  11.244
 6237SOL    HW119163   3.195   2.415  11.315
 6237SOL    HW219164   3.340   2.400  11.275
 6238SOL     OW19165   2.387   2.127  11.492
 6238SOL    HW119166   2.428   2.073  11.424
 6238SOL    HW219167   2.367   2.210  11.449
 6239SOL     OW19168   3.614   3.097  12.744
 6239SOL    HW119169   3.701   3.061  12.727
 6239SOL    HW219170   3.631   3.186  12.776
 6240SOL     OW19171   2.921   3.215  12.505
 6240SOL    HW119172   2.847   3.184  12.557
 6240SOL    HW219173   2.997   3.174  12.547
 6241SOL     OW19174   3.468   3.490  12.826
 6241SOL    HW119175   3.461   3.522  12.736
 6241SOL    HW219176   3.550   3.440  12.827
 6242SOL     OW19177   2.989   3.064  12.278
 6242SOL    HW119178   2.931   3.103  12.343
 6242SOL    HW219179   2.956   3.096  12.194
 6243SOL     OW19180   3.494   2.961  12.248
 6243SOL    HW119181   3.487   3.022  12.322
 6243SOL    HW219182   3.414   2.975  12.198
 6244SOL     OW19183   2.779   1.960  12.569
 6244SOL    HW119184   2.803   1.940  12.478
 6244SOL    HW219185   2.859   1.999  12.606
 6245SOL     OW19186   2.846   2.976  12.894
 6245SOL    HW119187   2.754   2.992  12.915
 6245SOL    HW219188   2.845   2.899  12.839
 6246SOL     OW19189   2.570   2.923  11.543
 6246SOL    HW119190   2.557   2.907  11.637
 6246SOL    HW219191   2.646   2.869  11.521
 6247SOL     OW19192   2.279   2.675  12.423
 6247SOL    HW119193   2.348   2.687  12.489
 6247SOL    HW219194   2.244   2.587  12.440
 6248SOL     OW19195   3.128   2.239  12.447
 6248SOL    HW119196   3.161   2.317  12.493
 6248SOL    HW219197   3.038   2.262  12.423
 6249SOL     OW19198   1.931   3.434  12.522
 6249SOL    HW119199   1.902   3.510  12.471
 6249SOL    HW219200   2.027   3.440  12.519
 6250SOL     OW19201   2.213   2.970  11.663
 6250SOL    HW119202   2.217   3.044  11.602
 6250SOL    HW219203   2.211   2.893  11.607
 6251SOL     OW19204   2.412   2.399  12.034
 6251SOL    HW119205   2.427   2.457  11.959
 6251SOL    HW219206   2.477   2.426  12.098
 6252SOL     OW19207   3.110   3.210  11.561
 6252SOL    HW119208   3.166   3.281  11.592
 6252SOL    HW219209   3.023   3.231  11.595
 6253SOL     OW19210   3.141   3.320  12.319
 6253SOL    HW119211   3.197   3.322  12.396
 6253SOL    HW219212   3.086   3.242  12.331
 6254SOL     OW19213   3.443   2.485  11.650
 6254SOL    HW119214   3.398   2.541  11.714
 6254SOL    HW219215   3.487   2.547  11.592
 6255SOL     OW19216   2.209   3.388  12.488
 6255SOL    HW119217   2.196   3.346  12.403
 6255SOL    HW219218   2.303   3.400  12.495
 6256SOL     OW19219   2.275   2.609  12.774
 6256SOL    HW119220   2.338   2.652  12.716
 6256SOL    HW219221   2.316   2.525  12.795
 6257SOL     OW19222   3.462   2.639  12.851
 6257SOL    HW119223   3.376   2.681  12.845
 6257SOL    HW219224   3.514   2.682  12.784
 6258SOL     OW19225   2.857   1.983  12.926
 6258SOL    HW119226   2.913   2.056  12.898
 6258SOL    HW219227   2.906   1.904  12.901
 6259SOL     OW19228   2.372   1.906  12.921
 6259SOL    HW119229   2.318   1.854  12.862
 6259SOL    HW219230   2.326   1.990  12.927
 6260SOL     OW19231   2.445   2.734  12.204
 6260SOL    HW119232   2.476   2.825  12.200
 6260SOL    HW219233   2.389   2.731  12.281
 6261SOL     OW19234   3.221   2.721  12.203
 6261SOL    HW119235   3.139   2.712  12.154
 6261SOL    HW219236   3.261   2.634  12.199
 6262SOL     OW19237   3.068   2.391  11.439
 6262SOL    HW119238   3.075   2.312  11.494
 6262SOL    HW219239   3.025   2.455  11.496
 6263SOL     OW19240   1.908   3.172  12.449
 6263SOL    HW119241   1.941   3.119  12.520
 6263SOL    HW219242   1.915   3.262  12.480
 6264SOL     OW19243   2.584   2.491  12.229
 6264SOL    HW119244   2.660   2.475  12.173
 6264SOL    HW219245   2.559   2.581  12.210
 6265SOL     OW19246   3.595   2.820  13.029
 6265SOL    HW119247   3.550   2.764  12.966
 6265SOL    HW219248   3.531   2.832  13.100
 6266SOL     OW19249   3.478   2.236  11.540
 6266SOL    HW119250   3.505   2.172  11.605
 6266SOL    HW219251   3.455   2.314  11.590
 6267SOL     OW19252   2.889   2.621  12.133
 6267SOL    HW119253   2.887   2.639  12.227
 6267SOL    HW219254   2.863   2.529  12.126
 6268SOL     OW19255   2.846   3.429  12.889
 6268SOL    HW119256   2.829   3.472  12.805
 6268SOL    HW219257   2.888   3.347  12.866
 6269SOL     OW19258   3.708   3.367  12.772
 6269SOL    HW119259   3.730   3.394  12.683
 6269SOL    HW219260   3.789   3.381  12.822
 6270SOL     OW19261   2.215   2.778  12.982
 6270SOL    HW119262   2.298   2.797  13.025
 6270SOL    HW219263   2.237   2.717  12.912
 6271SOL     OW19264   3.392   2.136  11.299
 6271SOL    HW119265   3.327   2.070  11.325
 6271SOL    HW219266   3.425   2.171  11.382
 6272SOL     OW19267   3.154   2.688  11.204
 6272SOL    HW119268   3.198   2.603  11.207
 6272SOL    HW219269   3.186   2.728  11.122
 6273SOL     OW19270   2.927   3.197  12.025
 6273SOL    HW119271   2.930   3.124  11.963
 6273SOL    HW219272   2.989   3.261  11.990
 6274SOL     OW19273   2.172   2.673  12.119
 6274SOL    HW119274   2.265   2.695  12.111
 6274SOL    HW219275   2.172   2.586  12.160
 6275SOL     OW19276   2.190   2.364  12.182
 6275SOL    HW119277   2.150   2.291  12.136
 6275SOL    HW219278   2.269   2.383  12.133
 6276SOL     OW19279   2.996   2.239  12.852
 6276SOL    HW119280   2.949   2.294  12.915
 6276SOL    HW219281   3.084   2.277  12.849
 6277SOL     OW19282   3.022   2.066  12.641
 6277SOL    HW119283   3.012   2.128  12.713
 6277SOL    HW219284   3.062   2.117  12.571
 6278SOL     OW19285   1.867   3.184  11.367
 6278SOL    HW119286   1.780   3.198  11.330
 6278SOL    HW219287   1.864   3.094  11.400
 6279SOL     OW19288   1.956   3.647  12.108
 6279SOL    HW119289   1.926   3.567  12.065
 6279SOL    HW219290   2.043   3.663  12.071
 6280SOL     OW19291   2.359   3.436  12.078
 6280SOL    HW119292   2.427   3.499  12.102
 6280SOL    HW219293   2.404   3.372  12.023
 6281SOL     OW19294   2.847   2.654  12.399
 6281SOL    HW119295   2.903   2.631  12.473
 6281SOL    HW219296   2.761   2.620  12.423
 6282SOL     OW19297   1.900   2.396  12.289
 6282SOL    HW119298   1.985   2.399  12.245
 6282SOL    HW219299   1.921   2.410  12.381
 6283SOL     OW19300   2.065   2.380  12.903
 6283SOL    HW119301   2.115   2.350  12.827
 6283SOL    HW219302   2.000   2.440  12.866
 6284SOL     OW19303   3.239   2.802  12.831
 6284SOL    HW119304   3.260   2.895  12.830
 6284SOL    HW219305   3.236   2.777  12.739
 6285SOL     OW19306   2.677   2.431  11.532
 6285SOL    HW119307   2.683   2.357  11.472
 6285SOL    HW219308   2.604   2.483  11.499
 6286SOL     OW19309   3.504   2.464  12.360
 6286SOL    HW119310   3.492   2.403  12.433
 6286SOL    HW219311   3.589   2.441  12.323
 6287SOL     OW19312   2.108   3.413  12.900
 6287SOL    HW119313   2.084   3.478  12.966
 6287SOL    HW219314   2.107   3.330  12.948
 6288SOL     OW19315   2.557   2.313  12.433
 6288SOL    HW119316   2.507   2.239  12.401
 6288SOL    HW219317   2.557   2.376  12.361
 6289SOL     OW19318   2.792   3.536  12.639
 6289SOL    HW119319   2.765   3.502  12.554
 6289SOL    HW219320   2.785   3.631  12.630
 6290SOL     OW19321   2.327   2.356  11.356
 6290SOL    HW119322   2.385   2.428  11.380
 6290SOL    HW219323   2.241   2.395  11.347
 6291SOL     OW19324   2.009   3.002  12.644
 6291SOL    HW119325   2.012   2.949  12.724
 6291SOL    HW219326   2.026   2.940  12.573
 6292SOL     OW19327   3.188   2.909  12.396
 6292SOL    HW119328   3.212   2.847  12.328
 6292SOL    HW219329   3.117   2.961  12.357
 6293SOL     OW19330   3.172   2.718  11.479
 6293SOL    HW119331   3.096   2.688  11.528
 6293SOL    HW219332   3.148   2.705  11.387
 6294SOL     OW19333   3.634   3.607  12.322
 6294SOL    HW119334   3.693   3.633  12.251
 6294SOL    HW219335   3.609   3.517  12.302
 6295SOL     OW19336   3.105   3.596  12.286
 6295SOL    HW119337   3.187   3.615  12.241
 6295SOL    HW219338   3.109   3.502  12.305
 6296SOL     OW19339   1.945   3.128  12.185
 6296SOL    HW119340   1.932   3.141  12.279
 6296SOL    HW219341   1.872   3.074  12.157
 6297SOL     OW19342   2.540   3.525  12.898
 6297SOL    HW119343   2.486   3.604  12.902
 6297SOL    HW219344   2.600   3.540  12.825
 6298SOL     OW19345   3.576   2.007  11.686
 6298SOL    HW119346   3.645   1.994  11.620
 6298SOL    HW219347   3.564   1.921  11.725
 6299SOL     OW19348   3.251   3.430  11.656
 6299SOL    HW119349   3.312   3.462  11.589
 6299SOL    HW219350   3.205   3.509  11.686
 6300SOL     OW19351   1.993   3.655  13.012
 6300SOL    HW119352   1.942   3.591  13.061
 6300SOL    HW219353   2.044   3.701  13.079
 6301SOL     OW19354   3.139   2.787  11.843
 6301SOL    HW119355   3.213   2.726  11.849
 6301SOL    HW219356   3.173   2.860  11.791
 6302SOL     OW19357   2.678   3.135  12.603
 6302SOL    HW119358   2.650   3.174  12.686
 6302SOL    HW219359   2.608   3.157  12.541
 6303SOL     OW19360   2.537   3.477  11.328
 6303SOL    HW119361   2.544   3.492  11.234
 6303SOL    HW219362   2.480   3.400  11.336
 6304SOL     OW19363   3.487   3.588  12.562
 6304SOL    HW119364   3.540   3.593  12.483
 6304SOL    HW219365   3.475   3.679  12.589
 6305SOL     OW19366   3.699   2.042  12.141
 6305SOL    HW119367   3.730   1.956  12.114
 6305SOL    HW219368   3.613   2.051  12.099
 6306SOL     OW19369   3.068   3.469  11.206
 6306SOL    HW119370   3.059   3.377  11.231
 6306SOL    HW219371   3.007   3.481  11.134
 6307SOL     OW19372   2.686   2.868  12.544
 6307SOL    HW119373   2.730   2.865  12.459
 6307SOL    HW219374   2.686   2.961  12.567
 6308SOL     OW19375   2.778   2.772  11.462
 6308SOL    HW119376   2.839   2.804  11.395
 6308SOL    HW219377   2.826   2.702  11.507
 6309SOL     OW19378   3.353   3.490  11.213
 6309SOL    HW119379   3.259   3.480  11.198
 6309SOL    HW219380   3.391   3.495  11.126
 6310SOL     OW19381   2.232   3.164  12.663
 6310SOL    HW119382   2.218   3.242  12.609
 6310SOL    HW219383   2.154   3.109  12.647
 6311SOL     OW19384   3.466   3.142  12.451
 6311SOL    HW119385   3.533   3.137  12.520
 6311SOL    HW219386   3.409   3.213  12.480
 6312SOL     OW19387   2.912   2.968  11.878
 6312SOL    HW119388   2.842   2.917  11.917
 6312SOL    HW219389   2.975   2.903  11.846
 6313SOL     OW19390   2.881   2.102  12.138
 6313SOL    HW119391   2.877   2.054  12.055
 6313SOL    HW219392   2.878   2.034  12.205
 6314SOL     OW19393   2.464   3.352  11.653
 6314SOL    HW119394   2.507   3.301  11.584
 6314SOL    HW219395   2.398   3.404  11.607
 6315SOL     OW19396   3.583   2.253  12.551
 6315SOL    HW119397   3.655   2.316  12.547
 6315SOL    HW219398   3.613   2.180  12.495
 6316SOL     OW19399   2.121   3.207  11.460
 6316SOL    HW119400   2.028   3.205  11.437
 6316SOL    HW219401   2.123   3.245  11.548
 6317SOL     OW19402   1.974   2.882  12.890
 6317SOL    HW119403   1.898   2.860  12.944
 6317SOL    HW219404   2.048   2.845  12.939
 6318SOL     OW19405   2.536   2.060  12.671
 6318SOL    HW119406   2.620   2.039  12.630
 6318SOL    HW219407   2.558   2.088  12.759
 6319SOL     OW19408   3.292   2.721  12.573
 6319SOL    HW119409   3.242   2.781  12.518
 6319SOL    HW219410   3.380   2.722  12.537
 6320SOL     OW19411   3.041   3.202  11.289
 6320SOL    HW119412   2.950   3.172  11.291
 6320SOL    HW219413   3.069   3.201  11.380
 6321SOL     OW19414   2.481   2.693  12.604
 6321SOL    HW119415   2.536   2.769  12.590
 6321SOL    HW219416   2.543   2.620  12.613
 6322SOL     OW19417   3.347   3.641  12.151
 6322SOL    HW119418   3.373   3.691  12.074
 6322SOL    HW219419   3.429   3.615  12.193
 6323SOL     OW19420   2.579   2.424  12.876
 6323SOL    HW119421   2.617   2.488  12.936
 6323SOL    HW219422   2.609   2.339  12.908
 6324SOL     OW19423   3.332   3.063  12.805
 6324SOL    HW119424   3.321   3.077  12.899
 6324SOL    HW219425   3.426   3.077  12.789
 6325SOL     OW19426   2.241   3.601  12.734
 6325SOL    HW119427   2.155   3.640  12.721
 6325SOL    HW219428   2.223   3.517  12.776
 6326SOL     OW19429   3.529   2.743  12.430
 6326SOL    HW119430   3.526   2.658  12.387
 6326SOL    HW219431   3.524   2.806  12.359
 6327SOL     OW19432   3.079   2.181  11.630
 6327SOL    HW119433   3.143   2.110  11.621
 6327SOL    HW219434   3.109   2.230  11.707
 6328SOL     OW19435   2.451   2.600  11.842
 6328SOL    HW119436   2.492   2.685  11.826
 6328SOL    HW219437   2.383   2.594  11.774
 6329SOL     OW19438   3.625   2.225  12.821
 6329SOL    HW119439   3.607   2.238  12.728
 6329SOL    HW219440   3.555   2.167  12.851
 6330SOL     OW19441   3.614   2.793  12.686
 6330SOL    HW119442   3.609   2.887  12.701
 6330SOL    HW219443   3.592   2.782  12.593
 6331SOL     OW19444   2.725   3.230  11.205
 6331SOL    HW119445   2.684   3.257  11.287
 6331SOL    HW219446   2.742   3.312  11.158
 6332SOL     OW19447   2.521   3.654  12.117
 6332SOL    HW119448   2.499   3.744  12.093
 6332SOL    HW219449   2.617   3.651  12.110
 6333SOL     OW19450   2.728   2.828  12.028
 6333SOL    HW119451   2.779   2.757  12.068
 6333SOL    HW219452   2.695   2.878  12.102
 6334SOL     OW19453   2.941   2.850  11.261
 6334SOL    HW119454   2.920   2.901  11.182
 6334SOL    HW219455   3.016   2.797  11.235
 6335SOL     OW19456   3.717   3.418  12.014
 6335SOL    HW119457   3.638   3.400  11.962
 6335SOL    HW219458   3.716   3.351  12.082
 6336SOL     OW19459   2.087   3.165  13.028
 6336SOL    HW119460   2.019   3.105  12.999
 6336SOL    HW219461   2.069   3.178  13.121
 6337SOL     OW19462   1.946   3.096  11.836
 6337SOL    HW119463   1.950   3.048  11.919
 6337SOL    HW219464   2.014   3.057  11.782
 6338SOL     OW19465   2.543   3.264  12.799
 6338SOL    HW119466   2.463   3.221  12.830
 6338SOL    HW219467   2.539   3.352  12.836
 6339SOL     OW19468   3.678   2.043  12.412
 6339SOL    HW119469   3.671   1.948  12.418
 6339SOL    HW219470   3.689   2.061  12.318
 6340SOL     OW19471   2.293   2.294  11.696
 6340SOL    HW119472   2.322   2.231  11.630
 6340SOL    HW219473   2.249   2.242  11.763
 6341SOL     OW19474   3.561   3.353  12.271
 6341SOL    HW119475   3.481   3.327  12.226
 6341SOL    HW219476   3.577   3.284  12.335
 6342SOL     OW19477   2.191   2.416  12.460
 6342SOL    HW119478   2.237   2.356  12.519
 6342SOL    HW219479   2.210   2.383  12.373
 6343SOL     OW19480   2.688   3.440  11.850
 6343SOL    HW119481   2.678   3.486  11.767
 6343SOL    HW219482   2.611   3.383  11.856
 6344SOL     OW19483   3.294   2.087  12.290
 6344SOL    HW119484   3.319   2.007  12.335
 6344SOL    HW219485   3.242   2.136  12.354
 6345SOL     OW19486   2.870   1.881  12.316
 6345SOL    HW119487   2.816   1.812  12.276
 6345SOL    HW219488   2.959   1.844  12.318
 6346SOL     OW19489   2.634   3.194  11.486
 6346SOL    HW119490   2.601   3.104  11.491
 6346SOL    HW219491   2.717   3.192  11.534
 6347SOL     OW19492   2.482   3.418  12.456
 6347SOL    HW119493   2.484   3.499  12.507
 6347SOL    HW219494   2.569   3.411  12.418
 6348SOL     OW19495   3.214   1.916  11.336
 6348SOL    HW119496   3.242   1.852  11.270
 6348SOL    HW219497   3.127   1.886  11.363
 6349SOL     OW19498   3.158   2.322  11.854
 6349SOL    HW119499   3.105   2.402  11.862
 6349SOL    HW219500   3.155   2.283  11.941
 6350SOL     OW19501   3.446   2.065  12.048
 6350SOL    HW119502   3.385   2.085  12.119
 6350SOL    HW219503   3.447   2.143  11.994
 6351SOL     OW19504   1.905   2.934  11.478
 6351SOL    HW119505   1.999   2.925  11.461
 6351SOL    HW219506   1.877   2.845  11.501
 6352SOL     OW19507   2.745   3.516  11.517
 6352SOL    HW119508   2.675   3.496  11.455
 6352SOL    HW219509   2.714   3.593  11.565
 6353SOL     OW19510   2.088   2.479  13.159
 6353SOL    HW119511   1.997   2.486  13.188
 6353SOL    HW219512   2.081   2.451  13.067
 6354SOL     OW19513   1.876   2.264  13.657
 6354SOL    HW119514   1.789   2.280  13.693
 6354SOL    HW219515   1.861   2.207  13.583
 6355SOL     OW19516   3.393   3.362  13.724
 6355SOL    HW119517   3.334   3.306  13.775
 6355SOL    HW219518   3.346   3.379  13.643
 6356SOL     OW19519   2.988   2.564  13.735
 6356SOL    HW119520   3.044   2.637  13.709
 6356SOL    HW219521   2.943   2.595  13.814
 6357SOL     OW19522   3.634   2.468  13.264
 6357SOL    HW119523   3.611   2.460  13.171
 6357SOL    HW219524   3.591   2.392  13.304
 6358SOL     OW19525   2.547   2.873  13.674
 6358SOL    HW119526   2.602   2.851  13.749
 6358SOL    HW219527   2.473   2.921  13.712
 6359SOL     OW19528   3.487   2.323  13.756
 6359SOL    HW119529   3.399   2.321  13.718
 6359SOL    HW219530   3.484   2.396  13.818
 6360SOL     OW19531   2.083   3.579  13.515
 6360SOL    HW119532   2.120   3.629  13.588
 6360SOL    HW219533   2.153   3.576  13.450
 6361SOL     OW19534   2.092   3.303  13.569
 6361SOL    HW119535   2.072   3.397  13.575
 6361SOL    HW219536   2.031   3.261  13.629
 6362SOL     OW19537   2.101   2.965   0.023
 6362SOL    HW119538   2.121   2.902   0.092
 6362SOL    HW219539   2.035   3.023   0.062
 6363SOL     OW19540   2.450   2.842  13.166
 6363SOL    HW119541   2.493   2.893  13.098
 6363SOL    HW219542   2.489   2.873  13.248
 6364SOL     OW19543   1.977   2.520  13.591
 6364SOL    HW119544   1.948   2.431  13.610
 6364SOL    HW219545   1.965   2.567  13.673
 6365SOL     OW19546   3.699   3.616  13.374
 6365SOL    HW119547   3.767   3.589  13.435
 6365SOL    HW219548   3.720   3.707  13.352
 6366SOL     OW19549   1.889   3.456  13.157
 6366SOL    HW119550   1.875   3.364  13.179
 6366SOL    HW219551   1.869   3.503  13.238
 6367SOL     OW19552   3.548   2.777  13.668
 6367SOL    HW119553   3.637   2.747  13.650
 6367SOL    HW219554   3.527   2.833  13.593
 6368SOL     OW19555   3.504   2.968  13.463
 6368SOL    HW119556   3.588   2.974  13.418
 6368SOL    HW219557   3.510   3.029  13.535
 6369SOL     OW19558   2.468   3.246  13.762
 6369SOL    HW119559   2.425   3.161  13.770
 6369SOL    HW219560   2.447   3.275  13.674
 6370SOL     OW19561   2.672   1.861  13.542
 6370SOL    HW119562   2.713   1.945  13.522
 6370SOL    HW219563   2.579   1.880  13.551
 6371SOL     OW19564   3.391   2.854  13.233
 6371SOL    HW119565   3.322   2.797  13.265
 6371SOL    HW219566   3.431   2.891  13.312
 6372SOL     OW19567   3.515   3.597  13.613
 6372SOL    HW119568   3.498   3.568  13.523
 6372SOL    HW219569   3.510   3.518  13.666
 6373SOL     OW19570   2.456   2.583  13.298
 6373SOL    HW119571   2.463   2.664  13.247
 6373SOL    HW219572   2.391   2.604  13.366
 6374SOL     OW19573   3.123   2.193   0.051
 6374SOL    HW119574   3.042   2.147   0.071
 6374SOL    HW219575   3.190   2.146   0.099
 6375SOL     OW19576   3.438   3.536  13.341
 6375SOL    HW119577   3.530   3.564  13.338
 6375SOL    HW219578   3.417   3.515  13.250
 6376SOL     OW19579   2.910   2.559  13.460
 6376SOL    HW119580   2.924   2.549  13.554
 6376SOL    HW219581   2.829   2.512  13.442
 6377SOL     OW19582   1.946   2.683  13.808
 6377SOL    HW119583   2.028   2.677  13.857
 6377SOL    HW219584   1.901   2.759  13.846
 6378SOL     OW19585   2.753   2.211  13.230
 6378SOL    HW119586   2.796   2.270  13.168
 6378SOL    HW219587   2.760   2.124  13.191
 6379SOL     OW19588   3.226   2.998  13.558
 6379SOL    HW119589   3.315   2.995  13.523
 6379SOL    HW219590   3.183   3.069  13.509
 6380SOL     OW19591   2.868   3.306  13.505
 6380SOL    HW119592   2.829   3.380  13.457
 6380SOL    HW219593   2.840   3.319  13.596
 6381SOL     OW19594   2.249   3.663  13.812
 6381SOL    HW119595   2.227   3.585  13.863
 6381SOL    HW219596   2.302   3.716  13.871
 6382SOL     OW19597   3.651   2.919  13.900
 6382SOL    HW119598   3.592   2.910  13.824
 6382SOL    HW219599   3.593   2.914   0.076
 6383SOL     OW19600   2.183   2.819  13.284
 6383SOL    HW119601   2.265   2.838  13.238
 6383SOL    HW219602   2.151   2.738  13.245
 6384SOL     OW19603   3.347   2.595  13.746
 6384SOL    HW119604   3.334   2.549  13.829
 6384SOL    HW219605   3.420   2.654  13.763
 6385SOL     OW19606   2.975   3.643  13.257
 6385SOL    HW119607   2.914   3.594  13.314
 6385SOL    HW219608   3.004   3.578  13.193
 6386SOL     OW19609   3.489   3.244  13.122
 6386SOL    HW119610   3.446   3.328  13.104
 6386SOL    HW219611   3.421   3.179  13.103
 6387SOL     OW19612   2.330   3.595  13.358
 6387SOL    HW119613   2.366   3.660  13.418
 6387SOL    HW219614   2.404   3.573  13.301
 6388SOL     OW19615   3.264   1.974  13.463
 6388SOL    HW119616   3.253   1.946  13.372
 6388SOL    HW219617   3.359   1.974  13.477
 6389SOL     OW19618   2.795   3.551   0.013
 6389SOL    HW119619   2.825   3.483   0.073
 6389SOL    HW219620   2.747   3.504  13.845
 6390SOL     OW19621   2.251   2.564  13.509
 6390SOL    HW119622   2.272   2.471  13.514
 6390SOL    HW219623   2.158   2.569  13.528
 6391SOL     OW19624   2.506   1.987  13.143
 6391SOL    HW119625   2.572   1.919  13.153
 6391SOL    HW219626   2.450   1.956  13.072
 6392SOL     OW19627   2.406   1.926  13.541
 6392SOL    HW119628   2.337   1.936  13.607
 6392SOL    HW219629   2.395   2.002  13.483
 6393SOL     OW19630   3.290   3.060  13.075
 6393SOL    HW119631   3.321   2.984  13.125
 6393SOL    HW219632   3.205   3.080  13.113
 6394SOL     OW19633   2.799   2.104  13.496
 6394SOL    HW119634   2.771   2.148  13.415
 6394SOL    HW219635   2.893   2.119  13.500
 6395SOL     OW19636   2.326   3.005  13.773
 6395SOL    HW119637   2.252   2.991  13.832
 6395SOL    HW219638   2.290   2.992  13.686
 6396SOL     OW19639   3.133   3.661  13.630
 6396SOL    HW119640   3.176   3.728  13.576
 6396SOL    HW219641   3.067   3.709  13.679
 6397SOL     OW19642   2.887   2.405  13.054
 6397SOL    HW119643   2.844   2.489  13.035
 6397SOL    HW219644   2.951   2.426  13.122
 6398SOL     OW19645   2.752   2.332  13.668
 6398SOL    HW119646   2.687   2.378  13.614
 6398SOL    HW219647   2.759   2.245  13.628
 6399SOL     OW19648   2.885   1.904  13.780
 6399SOL    HW119649   2.827   1.912  13.705
 6399SOL    HW219650   2.857   1.823  13.824
 6400SOL     OW19651   3.726   2.679  13.410
 6400SOL    HW119652   3.774   2.623  13.471
 6400SOL    HW219653   3.689   2.618  13.346
 6401SOL     OW19654   2.354   3.277  13.192
 6401SOL    HW119655   2.279   3.249  13.245
 6401SOL    HW219656   2.335   3.244  13.104
 6402SOL     OW19657   3.538   3.129  13.670
 6402SOL    HW119658   3.632   3.134  13.688
 6402SOL    HW219659   3.502   3.212  13.702
 6403SOL     OW19660   3.256   2.433  13.105
 6403SOL    HW119661   3.194   2.415  13.177
 6403SOL    HW219662   3.340   2.400  13.137
 6404SOL     OW19663   2.389   2.123  13.355
 6404SOL    HW119664   2.429   2.073  13.284
 6404SOL    HW219665   2.366   2.207  13.316
 6405SOL     OW19666   2.571   2.924  13.402
 6405SOL    HW119667   2.556   2.909  13.495
 6405SOL    HW219668   2.647   2.870  13.380
 6406SOL     OW19669   2.216   2.970  13.526
 6406SOL    HW119670   2.217   3.044  13.465
 6406SOL    HW219671   2.212   2.893  13.469
 6407SOL     OW19672   2.446   2.397  13.862
 6407SOL    HW119673   2.449   2.469  13.799
 6407SOL    HW219674   2.487   2.431   0.041
 6408SOL     OW19675   3.109   3.212  13.419
 6408SOL    HW119676   3.164   3.285  13.448
 6408SOL    HW219677   3.022   3.232  13.455
 6409SOL     OW19678   3.445   2.488  13.502
 6409SOL    HW119679   3.403   2.534  13.575
 6409SOL    HW219680   3.482   2.558  13.448
 6410SOL     OW19681   3.067   2.391  13.301
 6410SOL    HW119682   3.075   2.312  13.355
 6410SOL    HW219683   3.025   2.455  13.358
 6411SOL     OW19684   3.479   2.235  13.402
 6411SOL    HW119685   3.503   2.172  13.469
 6411SOL    HW219686   3.455   2.314  13.450
 6412SOL     OW19687   3.393   2.136  13.162
 6412SOL    HW119688   3.327   2.070  13.187
 6412SOL    HW219689   3.425   2.171  13.244
 6413SOL     OW19690   3.154   2.688  13.065
 6413SOL    HW119691   3.197   2.603  13.069
 6413SOL    HW219692   3.186   2.728  12.984
 6414SOL     OW19693   1.867   3.184  13.229
 6414SOL    HW119694   1.780   3.198  13.191
 6414SOL    HW219695   1.865   3.094  13.263
 6415SOL     OW19696   2.677   2.433  13.388
 6415SOL    HW119697   2.681   2.357  13.331
 6415SOL    HW219698   2.601   2.483  13.357
 6416SOL     OW19699   2.328   2.353  13.213
 6416SOL    HW119700   2.385   2.426  13.239
 6416SOL    HW219701   2.241   2.393  13.208
 6417SOL     OW19702   3.173   2.714  13.340
 6417SOL    HW119703   3.095   2.689  13.389
 6417SOL    HW219704   3.149   2.703  13.248
 6418SOL     OW19705   3.579   2.007  13.550
 6418SOL    HW119706   3.646   1.994  13.483
 6418SOL    HW219707   3.566   1.919  13.586
 6419SOL     OW19708   3.246   3.434  13.508
 6419SOL    HW119709   3.307   3.469  13.444
 6419SOL    HW219710   3.202   3.511  13.544
 6420SOL     OW19711   3.148   2.777  13.687
 6420SOL    HW119712   3.224   2.721  13.672
 6420SOL    HW219713   3.171   2.861  13.647
 6421SOL     OW19714   2.537   3.477  13.190
 6421SOL    HW119715   2.544   3.492  13.096
 6421SOL    HW219716   2.480   3.400  13.198
 6422SOL     OW19717   3.684   2.020   0.081
 6422SOL    HW119718   3.701   1.931   0.050
 6422SOL    HW219719   3.589   2.030   0.075
 6423SOL     OW19720   2.116   2.283  13.796
 6423SOL    HW119721   2.057   2.261  13.724
 6423SOL    HW219722   2.139   2.198  13.835
 6424SOL     OW19723   3.069   3.469  13.068
 6424SOL    HW119724   3.059   3.377  13.093
 6424SOL    HW219725   3.007   3.481  12.996
 6425SOL     OW19726   2.780   2.774  13.327
 6425SOL    HW119727   2.840   2.804  13.258
 6425SOL    HW219728   2.825   2.701  13.368
 6426SOL     OW19729   3.353   3.490  13.075
 6426SOL    HW119730   3.259   3.480  13.060
 6426SOL    HW219731   3.391   3.495  12.987
 6427SOL     OW19732   2.911   2.953  13.753
 6427SOL    HW119733   2.825   2.912  13.748
 6427SOL    HW219734   2.963   2.908  13.686
 6428SOL     OW19735   2.462   3.353  13.510
 6428SOL    HW119736   2.505   3.302  13.441
 6428SOL    HW219737   2.396   3.405  13.464
 6429SOL     OW19738   2.121   3.207  13.322
 6429SOL    HW119739   2.028   3.205  13.300
 6429SOL    HW219740   2.124   3.246  13.410
 6430SOL     OW19741   3.041   3.202  13.150
 6430SOL    HW119742   2.950   3.172  13.153
 6430SOL    HW219743   3.069   3.202  13.241
 6431SOL     OW19744   3.080   2.182  13.492
 6431SOL    HW119745   3.143   2.110  13.481
 6431SOL    HW219746   3.110   2.230  13.569
 6432SOL     OW19747   2.452   2.610  13.694
 6432SOL    HW119748   2.490   2.696  13.674
 6432SOL    HW219749   2.381   2.600  13.631
 6433SOL     OW19750   2.725   3.230  13.067
 6433SOL    HW119751   2.684   3.257  13.149
 6433SOL    HW219752   2.742   3.312  13.021
 6434SOL     OW19753   2.512   3.707   0.066
 6434SOL    HW119754   2.509   3.801   0.081
 6434SOL    HW219755   2.604   3.683   0.079
 6435SOL     OW19756   2.695   2.824  13.893
 6435SOL    HW119757   2.737   2.747   0.032
 6435SOL    HW219758   2.706   2.893   0.058
 6436SOL     OW19759   2.940   2.849  13.123
 6436SOL    HW119760   2.919   2.900  13.045
 6436SOL    HW219761   3.016   2.796  13.097
 6437SOL     OW19762   1.952   3.096  13.699
 6437SOL    HW119763   1.945   3.040  13.776
 6437SOL    HW219764   2.018   3.054  13.644
 6438SOL     OW19765   2.284   2.303  13.545
 6438SOL    HW119766   2.320   2.225  13.503
 6438SOL    HW219767   2.277   2.280  13.637
 6439SOL     OW19768   3.541   3.329   0.337
 6439SOL    HW119769   3.512   3.301   0.250
 6439SOL    HW219770   3.623   3.281   0.351
 6440SOL     OW19771   2.681   3.416  13.712
 6440SOL    HW119772   2.664   3.466  13.633
 6440SOL    HW219773   2.602   3.364  13.726
 6441SOL     OW19774   2.634   3.194  13.346
 6441SOL    HW119775   2.601   3.105  13.352
 6441SOL    HW219776   2.717   3.193  13.394
 6442SOL     OW19777   3.214   1.916  13.198
 6442SOL    HW119778   3.242   1.852  13.132
 6442SOL    HW219779   3.127   1.886  13.225
 6443SOL     OW19780   3.165   2.321  13.715
 6443SOL    HW119781   3.108   2.398  13.722
 6443SOL    HW219782   3.155   2.276  13.798
 6444SOL     OW19783   1.906   2.934  13.339
 6444SOL    HW119784   2.000   2.925  13.321
 6444SOL    HW219785   1.877   2.846  13.361
 6445SOL     OW19786   2.745   3.516  13.379
 6445SOL    HW119787   2.674   3.497  13.317
 6445SOL    HW219788   2.714   3.592  13.429
 6446SOL     OW19789   2.094   3.986   0.986
 6446SOL    HW119790   2.118   3.965   1.076
 6446SOL    HW219791   2.004   3.953   0.978
 6447SOL     OW19792   1.879   0.064   0.707
 6447SOL    HW119793   1.804   0.118   0.682
 6447SOL    HW219794   1.899   0.012   0.629
 6448SOL     OW19795   3.660   0.359   0.250
 6448SOL    HW119796   3.634   0.312   0.170
 6448SOL    HW219797   3.583   0.354   0.307
 6449SOL     OW19798   2.299   0.099   1.507
 6449SOL    HW119799   2.373   0.058   1.463
 6449SOL    HW219800   2.224   0.043   1.485
 6450SOL     OW19801   3.460   3.847   1.465
 6450SOL    HW119802   3.458   3.932   1.420
 6450SOL    HW219803   3.447   3.868   1.557
 6451SOL     OW19804   2.667   3.727   0.503
 6451SOL    HW119805   2.696   3.818   0.494
 6451SOL    HW219806   2.572   3.732   0.514
 6452SOL     OW19807   3.131   0.063   0.939
 6452SOL    HW119808   3.061   0.007   0.906
 6452SOL    HW219809   3.187   0.004   0.990
 6453SOL     OW19810   2.415   3.906   0.889
 6453SOL    HW119811   2.410   3.925   0.983
 6453SOL    HW219812   2.410   3.991   0.847
 6454SOL     OW19813   2.053   3.984   1.491
 6454SOL    HW119814   1.997   0.062   1.491
 6454SOL    HW219815   2.022   3.932   1.565
 6455SOL     OW19816   3.269   3.841   0.424
 6455SOL    HW119817   3.260   3.797   0.339
 6455SOL    HW219818   3.360   3.823   0.450
 6456SOL     OW19819   3.398   3.942   1.725
 6456SOL    HW119820   3.423   3.946   1.817
 6456SOL    HW219821   3.333   3.872   1.720
 6457SOL     OW19822   2.636   3.963   1.745
 6457SOL    HW119823   2.691   3.931   1.816
 6457SOL    HW219824   2.551   3.978   1.786
 6458SOL     OW19825   2.394   3.785   0.509
 6458SOL    HW119826   2.343   3.785   0.590
 6458SOL    HW219827   2.407   3.877   0.488
 6459SOL     OW19828   2.135   3.744   0.212
 6459SOL    HW119829   2.166   3.827   0.177
 6459SOL    HW219830   2.215   3.695   0.232
 6460SOL     OW19831   2.421   3.943   1.166
 6460SOL    HW119832   2.461   3.867   1.208
 6460SOL    HW219833   2.330   3.942   1.194
 6461SOL     OW19834   2.880   3.769   0.744
 6461SOL    HW119835   2.817   3.758   0.673
 6461SOL    HW219836   2.857   3.702   0.808
 6462SOL     OW19837   2.784   3.805   1.401
 6462SOL    HW119838   2.811   3.786   1.312
 6462SOL    HW219839   2.856   3.856   1.439
 6463SOL     OW19840   3.127   0.079   1.264
 6463SOL    HW119841   3.145   0.146   1.330
 6463SOL    HW219842   3.058   0.117   1.209
 6464SOL     OW19843   2.368   3.750   1.753
 6464SOL    HW119844   2.317   3.704   1.687
 6464SOL    HW219845   2.330   3.838   1.757
 6465SOL     OW19846   2.158   3.923   1.252
 6465SOL    HW119847   2.115   3.941   1.336
 6465SOL    HW219848   2.145   3.829   1.239
 6466SOL     OW19849   3.457   3.945   0.148
 6466SOL    HW119850   3.378   3.892   0.157
 6466SOL    HW219851   3.437   0.027   0.194
 6467SOL     OW19852   3.026   3.925   1.473
 6467SOL    HW119853   3.030   3.997   1.536
 6467SOL    HW219854   3.064   3.961   1.393
 6468SOL     OW19855   2.777   3.823   0.151
 6468SOL    HW119856   2.809   3.813   0.061
 6468SOL    HW219857   2.834   3.767   0.203
 6469SOL     OW19858   3.585   3.863   0.526
 6469SOL    HW119859   3.656   3.849   0.463
 6469SOL    HW219860   3.567   3.775   0.560
 6470SOL     OW19861   3.696   3.895   0.964
 6470SOL    HW119862   3.730   3.809   0.939
 6470SOL    HW219863   3.610   3.901   0.922
 6471SOL     OW19864   2.534   3.912   1.494
 6471SOL    HW119865   2.616   3.907   1.445
 6471SOL    HW219866   2.561   3.934   1.584
 6472SOL     OW19867   1.930   3.865   0.341
 6472SOL    HW119868   1.908   3.937   0.282
 6472SOL    HW219869   2.012   3.830   0.305
 6473SOL     OW19870   3.050   0.011   0.467
 6473SOL    HW119871   3.119   3.946   0.464
 6473SOL    HW219872   3.074   0.069   0.540
 6474SOL     OW19873   3.647   0.051   1.633
 6474SOL    HW119874   3.610   0.080   1.550
 6474SOL    HW219875   3.574   0.010   1.679
 6475SOL     OW19876   3.680   3.911   1.237
 6475SOL    HW119877   3.671   3.819   1.261
 6475SOL    HW219878   3.687   3.911   1.142
 6476SOL     OW19879   3.300   3.935   1.118
 6476SOL    HW119880   3.330   3.856   1.162
 6476SOL    HW219881   3.240   3.976   1.181
 6477SOL     OW19882   2.874   3.738   1.151
 6477SOL    HW119883   2.817   3.681   1.100
 6477SOL    HW219884   2.960   3.696   1.146
 6478SOL     OW19885   3.211   3.783   0.152
 6478SOL    HW119886   3.248   3.715   0.096
 6478SOL    HW219887   3.129   3.746   0.184
 6479SOL     OW19888   3.147   0.162   0.683
 6479SOL    HW119889   3.137   0.257   0.689
 6479SOL    HW219890   3.153   0.133   0.773
 6480SOL     OW19891   3.442   3.932   0.877
 6480SOL    HW119892   3.387   3.933   0.955
 6480SOL    HW219893   3.440   0.022   0.845
 6481SOL     OW19894   2.094   3.984   2.848
 6481SOL    HW119895   2.118   3.965   2.938
 6481SOL    HW219896   2.004   3.953   2.840
 6482SOL     OW19897   1.879   0.062   2.571
 6482SOL    HW119898   1.807   0.121   2.546
 6482SOL    HW219899   1.897   0.012   2.491
 6483SOL     OW19900   3.637   0.321   2.049
 6483SOL    HW119901   3.560   0.309   1.993
 6483SOL    HW219902   3.600   0.335   2.136
 6484SOL     OW19903   2.299   0.099   3.369
 6484SOL    HW119904   2.373   0.058   3.325
 6484SOL    HW219905   2.224   0.043   3.347
 6485SOL     OW19906   3.460   3.847   3.326
 6485SOL    HW119907   3.458   3.932   3.282
 6485SOL    HW219908   3.447   3.868   3.419
 6486SOL     OW19909   2.668   3.728   2.363
 6486SOL    HW119910   2.695   3.820   2.358
 6486SOL    HW219911   2.573   3.732   2.376
 6487SOL     OW19912   3.131   0.063   2.802
 6487SOL    HW119913   3.061   0.007   2.769
 6487SOL    HW219914   3.187   0.003   2.852
 6488SOL     OW19915   2.415   3.906   2.751
 6488SOL    HW119916   2.411   3.925   2.845
 6488SOL    HW219917   2.410   3.992   2.709
 6489SOL     OW19918   2.053   3.984   3.353
 6489SOL    HW119919   1.997   0.062   3.353
 6489SOL    HW219920   2.022   3.932   3.427
 6490SOL     OW19921   3.267   3.836   2.287
 6490SOL    HW119922   3.257   3.800   2.199
 6490SOL    HW219923   3.359   3.824   2.309
 6491SOL     OW19924   3.398   3.942   3.587
 6491SOL    HW119925   3.423   3.946   3.679
 6491SOL    HW219926   3.333   3.872   3.582
 6492SOL     OW19927   2.487   3.850   1.984
 6492SOL    HW119928   2.577   3.820   1.990
 6492SOL    HW219929   2.450   3.804   1.909
 6493SOL     OW19930   2.636   3.963   3.607
 6493SOL    HW119931   2.691   3.931   3.678
 6493SOL    HW219932   2.551   3.978   3.648
 6494SOL     OW19933   2.395   3.786   2.372
 6494SOL    HW119934   2.344   3.790   2.453
 6494SOL    HW219935   2.407   3.878   2.348
 6495SOL     OW19936   2.151   3.754   2.040
 6495SOL    HW119937   2.194   3.838   2.023
 6495SOL    HW219938   2.219   3.700   2.080
 6496SOL     OW19939   2.421   3.943   3.028
 6496SOL    HW119940   2.461   3.867   3.071
 6496SOL    HW219941   2.330   3.942   3.056
 6497SOL     OW19942   2.880   3.769   2.606
 6497SOL    HW119943   2.817   3.757   2.535
 6497SOL    HW219944   2.857   3.702   2.670
 6498SOL     OW19945   2.783   3.805   3.263
 6498SOL    HW119946   2.811   3.786   3.174
 6498SOL    HW219947   2.856   3.856   3.301
 6499SOL     OW19948   3.127   0.079   3.126
 6499SOL    HW119949   3.145   0.146   3.192
 6499SOL    HW219950   3.058   0.117   3.071
 6500SOL     OW19951   2.368   3.750   3.615
 6500SOL    HW119952   2.317   3.704   3.549
 6500SOL    HW219953   2.330   3.837   3.619
 6501SOL     OW19954   2.158   3.923   3.114
 6501SOL    HW119955   2.115   3.941   3.198
 6501SOL    HW219956   2.145   3.829   3.101
 6502SOL     OW19957   3.442   3.958   1.986
 6502SOL    HW119958   3.378   3.901   2.028
 6502SOL    HW219959   3.454   0.030   2.047
 6503SOL     OW19960   3.026   3.925   3.335
 6503SOL    HW119961   3.030   3.997   3.398
 6503SOL    HW219962   3.064   3.961   3.255
 6504SOL     OW19963   2.763   3.812   1.971
 6504SOL    HW119964   2.826   3.781   1.905
 6504SOL    HW219965   2.801   3.788   2.055
 6505SOL     OW19966   3.587   3.861   2.383
 6505SOL    HW119967   3.656   3.846   2.319
 6505SOL    HW219968   3.569   3.774   2.419
 6506SOL     OW19969   3.696   3.896   2.827
 6506SOL    HW119970   3.730   3.810   2.801
 6506SOL    HW219971   3.610   3.901   2.784
 6507SOL     OW19972   2.534   3.912   3.356
 6507SOL    HW119973   2.616   3.907   3.307
 6507SOL    HW219974   2.561   3.934   3.446
 6508SOL     OW19975   1.909   0.053   1.897
 6508SOL    HW119976   1.864   0.033   1.815
 6508SOL    HW219977   1.945   0.141   1.884
 6509SOL     OW19978   1.928   3.869   2.174
 6509SOL    HW119979   1.914   3.958   2.141
 6509SOL    HW219980   2.010   3.841   2.135
 6510SOL     OW19981   3.051   0.012   2.331
 6510SOL    HW119982   3.122   3.949   2.324
 6510SOL    HW219983   3.076   0.070   2.403
 6511SOL     OW19984   3.647   0.051   3.495
 6511SOL    HW119985   3.610   0.080   3.412
 6511SOL    HW219986   3.574   0.010   3.541
 6512SOL     OW19987   3.680   3.911   3.099
 6512SOL    HW119988   3.671   3.819   3.123
 6512SOL    HW219989   3.687   3.911   3.004
 6513SOL     OW19990   3.300   3.935   2.980
 6513SOL    HW119991   3.330   3.856   3.024
 6513SOL    HW219992   3.240   3.976   3.043
 6514SOL     OW19993   2.874   3.738   3.013
 6514SOL    HW119994   2.817   3.681   2.963
 6514SOL    HW219995   2.960   3.696   3.007
 6515SOL     OW19996   3.215   3.772   2.019
 6515SOL    HW119997   3.245   3.704   1.959
 6515SOL    HW219998   3.128   3.742   2.047
 6516SOL     OW19999   3.146   0.162   2.546
 6516SOL    HW120000   3.138   0.257   2.552
 6516SOL    HW220001   3.153   0.133   2.637
 6517SOL     OW20002   3.442   3.932   2.738
 6517SOL    HW120003   3.387   3.933   2.817
 6517SOL    HW220004   3.440   0.022   2.706
 6518SOL     OW20005   2.094   3.984   4.710
 6518SOL    HW120006   2.118   3.965   4.800
 6518SOL    HW220007   2.004   3.953   4.702
 6519SOL     OW20008   1.879   0.062   4.433
 6519SOL    HW120009   1.807   0.121   4.408
 6519SOL    HW220010   1.897   0.012   4.353
 6520SOL     OW20011   3.637   0.321   3.911
 6520SOL    HW120012   3.560   0.309   3.855
 6520SOL    HW220013   3.600   0.335   3.998
 6521SOL     OW20014   2.299   0.099   5.231
 6521SOL    HW120015   2.373   0.058   5.187
 6521SOL    HW220016   2.224   0.043   5.209
 6522SOL     OW20017   3.460   3.847   5.188
 6522SOL    HW120018   3.458   3.932   5.145
 6522SOL    HW220019   3.447   3.867   5.281
 6523SOL     OW20020   2.668   3.728   4.225
 6523SOL    HW120021   2.695   3.820   4.220
 6523SOL    HW220022   2.573   3.732   4.238
 6524SOL     OW20023   3.131   0.063   4.664
 6524SOL    HW120024   3.061   0.007   4.631
 6524SOL    HW220025   3.187   0.004   4.714
 6525SOL     OW20026   2.415   3.906   4.613
 6525SOL    HW120027   2.411   3.925   4.707
 6525SOL    HW220028   2.410   3.992   4.571
 6526SOL     OW20029   2.053   3.984   5.215
 6526SOL    HW120030   1.997   0.062   5.215
 6526SOL    HW220031   2.022   3.932   5.290
 6527SOL     OW20032   3.267   3.836   4.149
 6527SOL    HW120033   3.257   3.800   4.061
 6527SOL    HW220034   3.359   3.824   4.171
 6528SOL     OW20035   3.398   3.942   5.449
 6528SOL    HW120036   3.422   3.946   5.541
 6528SOL    HW220037   3.333   3.871   5.445
 6529SOL     OW20038   2.487   3.850   3.846
 6529SOL    HW120039   2.577   3.820   3.852
 6529SOL    HW220040   2.450   3.804   3.771
 6530SOL     OW20041   2.636   3.963   5.469
 6530SOL    HW120042   2.691   3.931   5.540
 6530SOL    HW220043   2.551   3.978   5.510
 6531SOL     OW20044   2.395   3.786   4.234
 6531SOL    HW120045   2.344   3.790   4.316
 6531SOL    HW220046   2.407   3.878   4.210
 6532SOL     OW20047   2.151   3.754   3.902
 6532SOL    HW120048   2.194   3.838   3.885
 6532SOL    HW220049   2.219   3.700   3.942
 6533SOL     OW20050   2.421   3.943   4.890
 6533SOL    HW120051   2.461   3.867   4.933
 6533SOL    HW220052   2.330   3.942   4.918
 6534SOL     OW20053   2.880   3.769   4.468
 6534SOL    HW120054   2.817   3.757   4.397
 6534SOL    HW220055   2.857   3.702   4.532
 6535SOL     OW20056   2.783   3.805   5.125
 6535SOL    HW120057   2.811   3.786   5.036
 6535SOL    HW220058   2.856   3.855   5.163
 6536SOL     OW20059   3.127   0.079   4.988
 6536SOL    HW120060   3.145   0.146   5.054
 6536SOL    HW220061   3.058   0.117   4.933
 6537SOL     OW20062   2.368   3.750   5.477
 6537SOL    HW120063   2.317   3.704   5.411
 6537SOL    HW220064   2.330   3.837   5.481
 6538SOL     OW20065   2.158   3.923   4.976
 6538SOL    HW120066   2.115   3.941   5.060
 6538SOL    HW220067   2.145   3.829   4.963
 6539SOL     OW20068   3.442   3.958   3.848
 6539SOL    HW120069   3.378   3.901   3.890
 6539SOL    HW220070   3.454   0.030   3.909
 6540SOL     OW20071   3.026   3.925   5.197
 6540SOL    HW120072   3.030   3.997   5.261
 6540SOL    HW220073   3.064   3.961   5.117
 6541SOL     OW20074   2.763   3.812   3.833
 6541SOL    HW120075   2.826   3.781   3.767
 6541SOL    HW220076   2.801   3.788   3.917
 6542SOL     OW20077   3.587   3.861   4.245
 6542SOL    HW120078   3.656   3.846   4.181
 6542SOL    HW220079   3.569   3.774   4.281
 6543SOL     OW20080   3.696   3.896   4.689
 6543SOL    HW120081   3.730   3.810   4.663
 6543SOL    HW220082   3.610   3.901   4.646
 6544SOL     OW20083   2.534   3.913   5.218
 6544SOL    HW120084   2.616   3.907   5.169
 6544SOL    HW220085   2.561   3.934   5.308
 6545SOL     OW20086   1.909   0.053   3.759
 6545SOL    HW120087   1.864   0.033   3.677
 6545SOL    HW220088   1.945   0.141   3.746
 6546SOL     OW20089   1.928   3.869   4.036
 6546SOL    HW120090   1.914   3.958   4.003
 6546SOL    HW220091   2.010   3.841   3.997
 6547SOL     OW20092   3.051   0.012   4.193
 6547SOL    HW120093   3.122   3.949   4.186
 6547SOL    HW220094   3.076   0.070   4.265
 6548SOL     OW20095   3.647   0.051   5.357
 6548SOL    HW120096   3.610   0.080   5.274
 6548SOL    HW220097   3.574   0.010   5.403
 6549SOL     OW20098   3.680   3.911   4.961
 6549SOL    HW120099   3.671   3.819   4.985
 6549SOL    HW220100   3.687   3.911   4.866
 6550SOL     OW20101   3.300   3.935   4.842
 6550SOL    HW120102   3.331   3.856   4.886
 6550SOL    HW220103   3.240   3.976   4.905
 6551SOL     OW20104   2.874   3.738   4.875
 6551SOL    HW120105   2.817   3.680   4.825
 6551SOL    HW220106   2.960   3.696   4.869
 6552SOL     OW20107   3.215   3.772   3.881
 6552SOL    HW120108   3.245   3.704   3.821
 6552SOL    HW220109   3.128   3.742   3.909
 6553SOL     OW20110   3.146   0.162   4.408
 6553SOL    HW120111   3.138   0.257   4.414
 6553SOL    HW220112   3.153   0.133   4.499
 6554SOL     OW20113   3.442   3.932   4.600
 6554SOL    HW120114   3.387   3.933   4.679
 6554SOL    HW220115   3.440   0.022   4.569
 6555SOL     OW20116   2.094   3.984   6.571
 6555SOL    HW120117   2.118   3.965   6.662
 6555SOL    HW220118   2.004   3.953   6.564
 6556SOL     OW20119   1.879   0.063   6.294
 6556SOL    HW120120   1.806   0.121   6.270
 6556SOL    HW220121   1.896   0.012   6.215
 6557SOL     OW20122   3.637   0.321   5.773
 6557SOL    HW120123   3.560   0.309   5.717
 6557SOL    HW220124   3.600   0.335   5.860
 6558SOL     OW20125   2.299   0.099   7.093
 6558SOL    HW120126   2.373   0.058   7.049
 6558SOL    HW220127   2.224   0.043   7.071
 6559SOL     OW20128   3.460   3.847   7.050
 6559SOL    HW120129   3.458   3.932   7.006
 6559SOL    HW220130   3.447   3.868   7.143
 6560SOL     OW20131   2.668   3.728   6.087
 6560SOL    HW120132   2.695   3.820   6.081
 6560SOL    HW220133   2.573   3.732   6.100
 6561SOL     OW20134   3.131   0.063   6.526
 6561SOL    HW120135   3.061   0.007   6.493
 6561SOL    HW220136   3.187   0.004   6.576
 6562SOL     OW20137   2.415   3.906   6.475
 6562SOL    HW120138   2.411   3.925   6.569
 6562SOL    HW220139   2.410   3.992   6.433
 6563SOL     OW20140   2.053   3.984   7.077
 6563SOL    HW120141   1.997   0.062   7.078
 6563SOL    HW220142   2.022   3.932   7.151
 6564SOL     OW20143   3.267   3.837   6.011
 6564SOL    HW120144   3.257   3.800   5.923
 6564SOL    HW220145   3.359   3.823   6.033
 6565SOL     OW20146   3.397   3.942   7.311
 6565SOL    HW120147   3.422   3.946   7.403
 6565SOL    HW220148   3.333   3.871   7.306
 6566SOL     OW20149   2.487   3.850   5.708
 6566SOL    HW120150   2.577   3.820   5.714
 6566SOL    HW220151   2.451   3.804   5.632
 6567SOL     OW20152   2.636   3.963   7.331
 6567SOL    HW120153   2.691   3.931   7.402
 6567SOL    HW220154   2.550   3.977   7.372
 6568SOL     OW20155   2.394   3.786   6.096
 6568SOL    HW120156   2.344   3.789   6.178
 6568SOL    HW220157   2.407   3.878   6.072
 6569SOL     OW20158   2.151   3.754   5.764
 6569SOL    HW120159   2.194   3.838   5.747
 6569SOL    HW220160   2.219   3.700   5.804
 6570SOL     OW20161   2.421   3.943   6.752
 6570SOL    HW120162   2.461   3.867   6.794
 6570SOL    HW220163   2.330   3.942   6.780
 6571SOL     OW20164   2.880   3.769   6.330
 6571SOL    HW120165   2.817   3.757   6.259
 6571SOL    HW220166   2.858   3.702   6.394
 6572SOL     OW20167   2.783   3.806   6.987
 6572SOL    HW120168   2.811   3.786   6.898
 6572SOL    HW220169   2.856   3.855   7.025
 6573SOL     OW20170   3.127   0.079   6.850
 6573SOL    HW120171   3.145   0.146   6.916
 6573SOL    HW220172   3.058   0.117   6.795
 6574SOL     OW20173   2.368   3.750   7.339
 6574SOL    HW120174   2.317   3.704   7.273
 6574SOL    HW220175   2.330   3.838   7.343
 6575SOL     OW20176   2.158   3.923   6.838
 6575SOL    HW120177   2.115   3.941   6.922
 6575SOL    HW220178   2.145   3.829   6.825
 6576SOL     OW20179   3.441   3.958   5.710
 6576SOL    HW120180   3.378   3.900   5.752
 6576SOL    HW220181   3.454   0.030   5.772
 6577SOL     OW20182   3.025   3.925   7.059
 6577SOL    HW120183   3.030   3.997   7.122
 6577SOL    HW220184   3.064   3.961   6.979
 6578SOL     OW20185   2.763   3.812   5.695
 6578SOL    HW120186   2.826   3.781   5.630
 6578SOL    HW220187   2.801   3.788   5.779
 6579SOL     OW20188   3.587   3.861   6.107
 6579SOL    HW120189   3.656   3.846   6.043
 6579SOL    HW220190   3.569   3.774   6.143
 6580SOL     OW20191   3.696   3.896   6.550
 6580SOL    HW120192   3.730   3.810   6.526
 6580SOL    HW220193   3.610   3.901   6.508
 6581SOL     OW20194   2.534   3.913   7.080
 6581SOL    HW120195   2.616   3.907   7.031
 6581SOL    HW220196   2.561   3.934   7.170
 6582SOL     OW20197   1.909   0.053   5.621
 6582SOL    HW120198   1.863   0.033   5.539
 6582SOL    HW220199   1.945   0.141   5.608
 6583SOL     OW20200   1.928   3.869   5.897
 6583SOL    HW120201   1.914   3.958   5.865
 6583SOL    HW220202   2.010   3.841   5.859
 6584SOL     OW20203   3.051   0.013   6.054
 6584SOL    HW120204   3.122   3.949   6.048
 6584SOL    HW220205   3.076   0.070   6.127
 6585SOL     OW20206   3.647   0.051   7.219
 6585SOL    HW120207   3.610   0.080   7.136
 6585SOL    HW220208   3.574   0.010   7.265
 6586SOL     OW20209   3.680   3.911   6.823
 6586SOL    HW120210   3.671   3.819   6.847
 6586SOL    HW220211   3.687   3.911   6.728
 6587SOL     OW20212   3.300   3.935   6.704
 6587SOL    HW120213   3.330   3.855   6.748
 6587SOL    HW220214   3.240   3.976   6.767
 6588SOL     OW20215   2.874   3.738   6.737
 6588SOL    HW120216   2.817   3.680   6.687
 6588SOL    HW220217   2.960   3.696   6.732
 6589SOL     OW20218   3.214   3.772   5.743
 6589SOL    HW120219   3.245   3.704   5.683
 6589SOL    HW220220   3.128   3.742   5.771
 6590SOL     OW20221   3.146   0.162   6.270
 6590SOL    HW120222   3.138   0.257   6.276
 6590SOL    HW220223   3.153   0.133   6.361
 6591SOL     OW20224   3.442   3.932   6.462
 6591SOL    HW120225   3.387   3.933   6.541
 6591SOL    HW220226   3.440   0.022   6.431
 6592SOL     OW20227   2.094   3.985   8.434
 6592SOL    HW120228   2.118   3.965   8.524
 6592SOL    HW220229   2.004   3.953   8.426
 6593SOL     OW20230   1.879   0.062   8.157
 6593SOL    HW120231   1.807   0.121   8.132
 6593SOL    HW220232   1.897   0.012   8.077
 6594SOL     OW20233   3.637   0.321   7.635
 6594SOL    HW120234   3.560   0.309   7.578
 6594SOL    HW220235   3.600   0.335   7.722
 6595SOL     OW20236   2.299   0.099   8.955
 6595SOL    HW120237   2.373   0.058   8.911
 6595SOL    HW220238   2.224   0.043   8.933
 6596SOL     OW20239   3.460   3.847   8.912
 6596SOL    HW120240   3.458   3.932   8.868
 6596SOL    HW220241   3.447   3.868   9.005
 6597SOL     OW20242   2.668   3.728   7.949
 6597SOL    HW120243   2.695   3.820   7.944
 6597SOL    HW220244   2.573   3.732   7.962
 6598SOL     OW20245   3.131   0.063   8.388
 6598SOL    HW120246   3.061   0.007   8.355
 6598SOL    HW220247   3.187   0.004   8.438
 6599SOL     OW20248   2.415   3.906   8.337
 6599SOL    HW120249   2.411   3.925   8.431
 6599SOL    HW220250   2.410   3.992   8.295
 6600SOL     OW20251   2.053   3.984   8.939
 6600SOL    HW120252   1.997   0.062   8.939
 6600SOL    HW220253   2.022   3.932   9.013
 6601SOL     OW20254   3.267   3.836   7.873
 6601SOL    HW120255   3.257   3.800   7.785
 6601SOL    HW220256   3.359   3.824   7.895
 6602SOL     OW20257   3.398   3.942   9.173
 6602SOL    HW120258   3.423   3.946   9.265
 6602SOL    HW220259   3.333   3.872   9.168
 6603SOL     OW20260   2.487   3.850   7.570
 6603SOL    HW120261   2.577   3.820   7.576
 6603SOL    HW220262   2.450   3.804   7.495
 6604SOL     OW20263   2.636   3.963   9.193
 6604SOL    HW120264   2.691   3.931   9.264
 6604SOL    HW220265   2.551   3.978   9.234
 6605SOL     OW20266   2.395   3.786   7.958
 6605SOL    HW120267   2.344   3.790   8.039
 6605SOL    HW220268   2.407   3.878   7.934
 6606SOL     OW20269   2.151   3.754   7.626
 6606SOL    HW120270   2.194   3.838   7.609
 6606SOL    HW220271   2.219   3.700   7.666
 6607SOL     OW20272   2.421   3.943   8.614
 6607SOL    HW120273   2.461   3.867   8.656
 6607SOL    HW220274   2.330   3.942   8.642
 6608SOL     OW20275   2.880   3.769   8.192
 6608SOL    HW120276   2.817   3.757   8.121
 6608SOL    HW220277   2.857   3.702   8.256
 6609SOL     OW20278   2.783   3.805   8.849
 6609SOL    HW120279   2.811   3.786   8.760
 6609SOL    HW220280   2.856   3.856   8.887
 6610SOL     OW20281   3.127   0.079   8.712
 6610SOL    HW120282   3.145   0.146   8.778
 6610SOL    HW220283   3.058   0.117   8.657
 6611SOL     OW20284   2.368   3.750   9.201
 6611SOL    HW120285   2.317   3.704   9.135
 6611SOL    HW220286   2.330   3.838   9.205
 6612SOL     OW20287   2.158   3.923   8.700
 6612SOL    HW120288   2.115   3.941   8.784
 6612SOL    HW220289   2.145   3.829   8.687
 6613SOL     OW20290   3.442   3.958   7.572
 6613SOL    HW120291   3.378   3.900   7.614
 6613SOL    HW220292   3.454   0.030   7.633
 6614SOL     OW20293   3.026   3.925   8.921
 6614SOL    HW120294   3.030   3.997   8.984
 6614SOL    HW220295   3.064   3.961   8.841
 6615SOL     OW20296   2.763   3.812   7.556
 6615SOL    HW120297   2.825   3.781   7.491
 6615SOL    HW220298   2.802   3.788   7.640
 6616SOL     OW20299   3.587   3.861   7.969
 6616SOL    HW120300   3.656   3.846   7.905
 6616SOL    HW220301   3.569   3.774   8.005
 6617SOL     OW20302   3.696   3.896   8.413
 6617SOL    HW120303   3.730   3.810   8.388
 6617SOL    HW220304   3.610   3.901   8.370
 6618SOL     OW20305   2.534   3.912   8.942
 6618SOL    HW120306   2.616   3.907   8.893
 6618SOL    HW220307   2.561   3.934   9.032
 6619SOL     OW20308   1.909   0.053   7.483
 6619SOL    HW120309   1.864   0.033   7.401
 6619SOL    HW220310   1.945   0.141   7.470
 6620SOL     OW20311   1.928   3.869   7.760
 6620SOL    HW120312   1.914   3.957   7.726
 6620SOL    HW220313   2.010   3.841   7.721
 6621SOL     OW20314   3.050   0.012   7.917
 6621SOL    HW120315   3.122   3.949   7.910
 6621SOL    HW220316   3.076   0.070   7.989
 6622SOL     OW20317   3.647   0.051   9.081
 6622SOL    HW120318   3.610   0.080   8.998
 6622SOL    HW220319   3.574   0.010   9.127
 6623SOL     OW20320   3.680   3.911   8.685
 6623SOL    HW120321   3.671   3.819   8.709
 6623SOL    HW220322   3.687   3.911   8.590
 6624SOL     OW20323   3.300   3.935   8.566
 6624SOL    HW120324   3.330   3.855   8.610
 6624SOL    HW220325   3.240   3.976   8.629
 6625SOL     OW20326   2.874   3.738   8.599
 6625SOL    HW120327   2.817   3.681   8.549
 6625SOL    HW220328   2.960   3.696   8.594
 6626SOL     OW20329   3.215   3.772   7.605
 6626SOL    HW120330   3.245   3.704   7.545
 6626SOL    HW220331   3.128   3.742   7.633
 6627SOL     OW20332   3.146   0.162   8.132
 6627SOL    HW120333   3.138   0.257   8.138
 6627SOL    HW220334   3.153   0.133   8.224
 6628SOL     OW20335   3.442   3.932   8.324
 6628SOL    HW120336   3.387   3.933   8.403
 6628SOL    HW220337   3.440   0.022   8.292
 6629SOL     OW20338   2.094   3.984  10.295
 6629SOL    HW120339   2.118   3.965  10.386
 6629SOL    HW220340   2.004   3.953  10.288
 6630SOL     OW20341   1.878   0.062  10.019
 6630SOL    HW120342   1.807   0.121   9.994
 6630SOL    HW220343   1.897   0.012   9.939
 6631SOL     OW20344   3.637   0.321   9.497
 6631SOL    HW120345   3.560   0.309   9.440
 6631SOL    HW220346   3.600   0.335   9.584
 6632SOL     OW20347   2.299   0.099  10.817
 6632SOL    HW120348   2.373   0.058  10.773
 6632SOL    HW220349   2.224   0.043  10.795
 6633SOL     OW20350   3.460   3.847  10.774
 6633SOL    HW120351   3.458   3.932  10.730
 6633SOL    HW220352   3.447   3.868  10.867
 6634SOL     OW20353   2.668   3.728   9.811
 6634SOL    HW120354   2.695   3.820   9.806
 6634SOL    HW220355   2.573   3.732   9.824
 6635SOL     OW20356   3.131   0.063  10.250
 6635SOL    HW120357   3.061   0.007  10.217
 6635SOL    HW220358   3.187   0.003  10.300
 6636SOL     OW20359   2.415   3.906  10.199
 6636SOL    HW120360   2.411   3.925  10.293
 6636SOL    HW220361   2.410   3.992  10.157
 6637SOL     OW20362   2.052   3.984  10.801
 6637SOL    HW120363   1.998   0.062  10.801
 6637SOL    HW220364   2.021   3.933  10.876
 6638SOL     OW20365   3.267   3.836   9.736
 6638SOL    HW120366   3.257   3.800   9.647
 6638SOL    HW220367   3.359   3.824   9.757
 6639SOL     OW20368   3.398   3.942  11.035
 6639SOL    HW120369   3.423   3.946  11.127
 6639SOL    HW220370   3.333   3.872  11.030
 6640SOL     OW20371   2.487   3.850   9.432
 6640SOL    HW120372   2.577   3.820   9.438
 6640SOL    HW220373   2.450   3.804   9.357
 6641SOL     OW20374   2.636   3.963  11.055
 6641SOL    HW120375   2.691   3.931  11.126
 6641SOL    HW220376   2.551   3.978  11.096
 6642SOL     OW20377   2.395   3.786   9.820
 6642SOL    HW120378   2.344   3.790   9.901
 6642SOL    HW220379   2.407   3.878   9.796
 6643SOL     OW20380   2.151   3.754   9.488
 6643SOL    HW120381   2.194   3.838   9.471
 6643SOL    HW220382   2.219   3.700   9.528
 6644SOL     OW20383   2.421   3.943  10.476
 6644SOL    HW120384   2.461   3.867  10.518
 6644SOL    HW220385   2.330   3.942  10.504
 6645SOL     OW20386   2.880   3.769  10.054
 6645SOL    HW120387   2.817   3.757   9.983
 6645SOL    HW220388   2.857   3.702  10.118
 6646SOL     OW20389   2.784   3.805  10.711
 6646SOL    HW120390   2.811   3.786  10.622
 6646SOL    HW220391   2.856   3.856  10.749
 6647SOL     OW20392   3.127   0.079  10.574
 6647SOL    HW120393   3.145   0.146  10.640
 6647SOL    HW220394   3.058   0.117  10.519
 6648SOL     OW20395   2.368   3.750  11.063
 6648SOL    HW120396   2.317   3.704  10.997
 6648SOL    HW220397   2.330   3.838  11.067
 6649SOL     OW20398   2.158   3.923  10.562
 6649SOL    HW120399   2.115   3.941  10.646
 6649SOL    HW220400   2.145   3.829  10.549
 6650SOL     OW20401   3.442   3.958   9.434
 6650SOL    HW120402   3.378   3.901   9.476
 6650SOL    HW220403   3.454   0.030   9.495
 6651SOL     OW20404   3.026   3.925  10.783
 6651SOL    HW120405   3.030   3.997  10.846
 6651SOL    HW220406   3.064   3.961  10.703
 6652SOL     OW20407   2.763   3.812   9.419
 6652SOL    HW120408   2.825   3.781   9.353
 6652SOL    HW220409   2.801   3.788   9.503
 6653SOL     OW20410   3.587   3.861   9.831
 6653SOL    HW120411   3.656   3.846   9.767
 6653SOL    HW220412   3.569   3.774   9.867
 6654SOL     OW20413   3.696   3.896  10.275
 6654SOL    HW120414   3.730   3.810  10.249
 6654SOL    HW220415   3.610   3.901  10.232
 6655SOL     OW20416   2.534   3.912  10.804
 6655SOL    HW120417   2.616   3.907  10.755
 6655SOL    HW220418   2.561   3.934  10.894
 6656SOL     OW20419   1.909   0.053   9.345
 6656SOL    HW120420   1.864   0.033   9.263
 6656SOL    HW220421   1.945   0.141   9.332
 6657SOL     OW20422   1.928   3.869   9.622
 6657SOL    HW120423   1.914   3.958   9.589
 6657SOL    HW220424   2.010   3.841   9.583
 6658SOL     OW20425   3.050   0.012   9.779
 6658SOL    HW120426   3.122   3.949   9.772
 6658SOL    HW220427   3.076   0.070   9.851
 6659SOL     OW20428   3.647   0.051  10.943
 6659SOL    HW120429   3.610   0.080  10.860
 6659SOL    HW220430   3.574   0.010  10.989
 6660SOL     OW20431   3.680   3.911  10.547
 6660SOL    HW120432   3.671   3.819  10.571
 6660SOL    HW220433   3.687   3.911  10.452
 6661SOL     OW20434   3.300   3.935  10.428
 6661SOL    HW120435   3.330   3.856  10.472
 6661SOL    HW220436   3.240   3.976  10.491
 6662SOL     OW20437   2.874   3.738  10.461
 6662SOL    HW120438   2.817   3.681  10.411
 6662SOL    HW220439   2.960   3.696  10.455
 6663SOL     OW20440   3.215   3.772   9.467
 6663SOL    HW120441   3.245   3.704   9.407
 6663SOL    HW220442   3.128   3.742   9.495
 6664SOL     OW20443   3.146   0.162   9.994
 6664SOL    HW120444   3.138   0.257  10.000
 6664SOL    HW220445   3.153   0.133  10.085
 6665SOL     OW20446   3.442   3.932  10.186
 6665SOL    HW120447   3.387   3.933  10.265
 6665SOL    HW220448   3.440   0.022  10.154
 6666SOL     OW20449   2.094   3.984  12.157
 6666SOL    HW120450   2.118   3.965  12.248
 6666SOL    HW220451   2.004   3.953  12.150
 6667SOL     OW20452   1.878   0.062  11.881
 6667SOL    HW120453   1.807   0.121  11.856
 6667SOL    HW220454   1.897   0.012  11.801
 6668SOL     OW20455   3.637   0.321  11.359
 6668SOL    HW120456   3.560   0.309  11.302
 6668SOL    HW220457   3.600   0.335  11.446
 6669SOL     OW20458   2.299   0.099  12.679
 6669SOL    HW120459   2.373   0.058  12.635
 6669SOL    HW220460   2.224   0.043  12.657
 6670SOL     OW20461   3.460   3.847  12.636
 6670SOL    HW120462   3.458   3.932  12.593
 6670SOL    HW220463   3.447   3.867  12.729
 6671SOL     OW20464   2.668   3.728  11.673
 6671SOL    HW120465   2.695   3.820  11.668
 6671SOL    HW220466   2.573   3.732  11.686
 6672SOL     OW20467   3.131   0.063  12.112
 6672SOL    HW120468   3.061   0.007  12.079
 6672SOL    HW220469   3.187   0.003  12.162
 6673SOL     OW20470   2.415   3.906  12.061
 6673SOL    HW120471   2.411   3.925  12.155
 6673SOL    HW220472   2.410   3.992  12.019
 6674SOL     OW20473   2.053   3.984  12.663
 6674SOL    HW120474   1.997   0.062  12.664
 6674SOL    HW220475   2.022   3.932  12.737
 6675SOL     OW20476   3.267   3.836  11.598
 6675SOL    HW120477   3.257   3.801  11.509
 6675SOL    HW220478   3.359   3.824  11.619
 6676SOL     OW20479   3.398   3.942  12.896
 6676SOL    HW120480   3.422   3.947  12.989
 6676SOL    HW220481   3.333   3.872  12.892
 6677SOL     OW20482   2.487   3.850  11.294
 6677SOL    HW120483   2.577   3.820  11.300
 6677SOL    HW220484   2.450   3.804  11.219
 6678SOL     OW20485   2.636   3.963  12.917
 6678SOL    HW120486   2.691   3.931  12.988
 6678SOL    HW220487   2.550   3.977  12.958
 6679SOL     OW20488   2.395   3.786  11.682
 6679SOL    HW120489   2.344   3.790  11.763
 6679SOL    HW220490   2.407   3.878  11.658
 6680SOL     OW20491   2.151   3.754  11.350
 6680SOL    HW120492   2.194   3.838  11.333
 6680SOL    HW220493   2.219   3.700  11.390
 6681SOL     OW20494   2.421   3.943  12.338
 6681SOL    HW120495   2.461   3.867  12.380
 6681SOL    HW220496   2.330   3.942  12.366
 6682SOL     OW20497   2.880   3.769  11.916
 6682SOL    HW120498   2.817   3.757  11.845
 6682SOL    HW220499   2.857   3.702  11.980
 6683SOL     OW20500   2.783   3.805  12.573
 6683SOL    HW120501   2.811   3.786  12.484
 6683SOL    HW220502   2.856   3.855  12.611
 6684SOL     OW20503   3.127   0.079  12.436
 6684SOL    HW120504   3.145   0.146  12.502
 6684SOL    HW220505   3.058   0.116  12.381
 6685SOL     OW20506   2.368   3.750  12.925
 6685SOL    HW120507   2.317   3.704  12.859
 6685SOL    HW220508   2.330   3.837  12.929
 6686SOL     OW20509   2.158   3.923  12.424
 6686SOL    HW120510   2.115   3.941  12.508
 6686SOL    HW220511   2.145   3.829  12.411
 6687SOL     OW20512   3.442   3.958  11.296
 6687SOL    HW120513   3.378   3.901  11.338
 6687SOL    HW220514   3.454   0.030  11.357
 6688SOL     OW20515   3.026   3.925  12.645
 6688SOL    HW120516   3.030   3.997  12.708
 6688SOL    HW220517   3.064   3.961  12.565
 6689SOL     OW20518   2.763   3.812  11.281
 6689SOL    HW120519   2.825   3.781  11.215
 6689SOL    HW220520   2.801   3.788  11.365
 6690SOL     OW20521   3.587   3.861  11.693
 6690SOL    HW120522   3.656   3.846  11.629
 6690SOL    HW220523   3.569   3.774  11.729
 6691SOL     OW20524   3.696   3.896  12.137
 6691SOL    HW120525   3.730   3.810  12.111
 6691SOL    HW220526   3.610   3.901  12.094
 6692SOL     OW20527   2.534   3.912  12.666
 6692SOL    HW120528   2.616   3.907  12.617
 6692SOL    HW220529   2.561   3.934  12.756
 6693SOL     OW20530   1.909   0.053  11.207
 6693SOL    HW120531   1.864   0.033  11.125
 6693SOL    HW220532   1.945   0.141  11.194
 6694SOL     OW20533   1.928   3.869  11.484
 6694SOL    HW120534   1.914   3.958  11.451
 6694SOL    HW220535   2.010   3.841  11.445
 6695SOL     OW20536   3.051   0.012  11.641
 6695SOL    HW120537   3.122   3.949  11.634
 6695SOL    HW220538   3.076   0.070  11.713
 6696SOL     OW20539   3.647   0.051  12.805
 6696SOL    HW120540   3.609   0.080  12.722
 6696SOL    HW220541   3.575   0.010  12.851
 6697SOL     OW20542   3.681   3.911  12.409
 6697SOL    HW120543   3.671   3.819  12.433
 6697SOL    HW220544   3.687   3.911  12.314
 6698SOL     OW20545   3.300   3.935  12.290
 6698SOL    HW120546   3.330   3.855  12.334
 6698SOL    HW220547   3.240   3.976  12.353
 6699SOL     OW20548   2.874   3.738  12.323
 6699SOL    HW120549   2.817   3.681  12.273
 6699SOL    HW220550   2.960   3.696  12.317
 6700SOL     OW20551   3.215   3.772  11.329
 6700SOL    HW120552   3.245   3.704  11.269
 6700SOL    HW220553   3.128   3.742  11.357
 6701SOL     OW20554   3.146   0.162  11.856
 6701SOL    HW120555   3.138   0.257  11.862
 6701SOL    HW220556   3.153   0.133  11.947
 6702SOL     OW20557   3.442   3.932  12.048
 6702SOL    HW120558   3.387   3.933  12.127
 6702SOL    HW220559   3.440   0.022  12.016
 6703SOL     OW20560   1.884   0.090  13.688
 6703SOL    HW120561   1.804   0.107  13.737
 6703SOL    HW220562   1.873   0.002  13.653
 6704SOL     OW20563   3.636   0.319  13.221
 6704SOL    HW120564   3.560   0.310  13.165
 6704SOL    HW220565   3.601   0.326  13.310
 6705SOL     OW20566   3.467   0.175  13.763
 6705SOL    HW120567   3.378   0.163  13.729
 6705SOL    HW220568   3.463   0.257  13.813
 6706SOL     OW20569   2.669   3.728  13.537
 6706SOL    HW120570   2.695   3.821  13.530
 6706SOL    HW220571   2.574   3.730  13.549
 6707SOL     OW20572   3.267   3.837  13.459
 6707SOL    HW120573   3.260   3.800  13.370
 6707SOL    HW220574   3.360   3.829  13.481
 6708SOL     OW20575   2.487   3.851  13.155
 6708SOL    HW120576   2.577   3.820  13.162
 6708SOL    HW220577   2.450   3.804  13.081
 6709SOL     OW20578   2.397   3.784  13.543
 6709SOL    HW120579   2.341   3.778  13.620
 6709SOL    HW220580   2.404   3.878  13.526
 6710SOL     OW20581   2.151   3.754  13.211
 6710SOL    HW120582   2.195   3.837  13.194
 6710SOL    HW220583   2.218   3.700  13.252
 6711SOL     OW20584   2.873   3.767  13.777
 6711SOL    HW120585   2.817   3.761  13.699
 6711SOL    HW220586   2.854   3.687  13.826
 6712SOL     OW20587   3.439   3.961  13.157
 6712SOL    HW120588   3.381   3.899  13.201
 6712SOL    HW220589   3.465   0.023  13.226
 6713SOL     OW20590   2.763   3.812  13.143
 6713SOL    HW120591   2.825   3.781  13.077
 6713SOL    HW220592   2.802   3.787  13.226
 6714SOL     OW20593   3.589   3.858  13.563
 6714SOL    HW120594   3.656   3.847  13.496
 6714SOL    HW220595   3.572   3.769  13.594
 6715SOL     OW20596   3.711   3.889   0.049
 6715SOL    HW120597   3.740   3.799   0.059
 6715SOL    HW220598   3.620   3.889   0.080
 6716SOL     OW20599   1.910   0.053  13.068
 6716SOL    HW120600   1.864   0.034  12.986
 6716SOL    HW220601   1.945   0.141  13.056
 6717SOL     OW20602   1.926   3.869  13.345
 6717SOL    HW120603   1.915   3.960  13.317
 6717SOL    HW220604   2.009   3.842  13.306
 6718SOL     OW20605   3.047   0.006  13.511
 6718SOL    HW120606   3.121   3.948  13.494
 6718SOL    HW220607   3.080   0.068  13.577
 6719SOL     OW20608   3.215   3.772  13.191
 6719SOL    HW120609   3.245   3.704  13.131
 6719SOL    HW220610   3.128   3.742  13.219
 6720SOL     OW20611   3.168   0.159  13.732
 6720SOL    HW120612   3.129   0.245  13.715
 6720SOL    HW220613   3.158   0.147  13.827
 6721SOL     OW20614   3.955   0.632   0.123
 6721SOL    HW120615   3.884   0.626   0.188
 6721SOL    HW220616   3.925   0.579   0.050
 6722SOL     OW20617   3.952   0.293   0.989
 6722SOL    HW120618   3.966   0.273   1.082
 6722SOL    HW220619   3.866   0.258   0.970
 6723SOL     OW20620   3.731   0.392   0.640
 6723SOL    HW120621   3.644   0.407   0.676
 6723SOL    HW220622   3.721   0.315   0.584
 6724SOL     OW20623   0.014   1.518   1.050
 6724SOL    HW120624   3.968   1.435   1.034
 6724SOL    HW220625   0.084   1.519   0.985
 6725SOL     OW20626   3.945   1.718   0.472
 6725SOL    HW120627   3.951   1.792   0.533
 6725SOL    HW220628   0.035   1.705   0.442
 6726SOL     OW20629   3.937   1.438   0.510
 6726SOL    HW120630   3.926   1.533   0.516
 6726SOL    HW220631   3.884   1.403   0.582
 6727SOL     OW20632   3.812   0.648   0.556
 6727SOL    HW120633   3.797   0.557   0.581
 6727SOL    HW220634   3.815   0.695   0.639
 6728SOL     OW20635   3.700   1.615   0.103
 6728SOL    HW120636   3.734   1.528   0.121
 6728SOL    HW220637   3.702   1.660   0.188
 6729SOL     OW20638   3.829   0.747   1.579
 6729SOL    HW120639   3.914   0.779   1.609
 6729SOL    HW220640   3.773   0.825   1.578
 6730SOL     OW20641   3.803   0.817   0.772
 6730SOL    HW120642   3.895   0.810   0.795
 6730SOL    HW220643   3.771   0.892   0.823
 6731SOL     OW20644   3.848   1.861   1.568
 6731SOL    HW120645   3.850   1.831   1.659
 6731SOL    HW220646   3.760   1.837   1.537
 6732SOL     OW20647   3.924   0.310   1.518
 6732SOL    HW120648   3.847   0.354   1.484
 6732SOL    HW220649   3.889   0.247   1.581
 6733SOL     OW20650   3.805   0.550   1.390
 6733SOL    HW120651   3.900   0.546   1.377
 6733SOL    HW220652   3.791   0.625   1.447
 6734SOL     OW20653   3.789   1.572   1.348
 6734SOL    HW120654   3.762   1.637   1.283
 6734SOL    HW220655   3.885   1.578   1.349
 6735SOL     OW20656   0.070   1.091   0.527
 6735SOL    HW120657   0.084   1.153   0.455
 6735SOL    HW220658   0.137   1.024   0.515
 6736SOL     OW20659   0.009   0.215   1.243
 6736SOL    HW120660   3.983   0.241   1.332
 6736SOL    HW220661   0.007   0.120   1.244
 6737SOL     OW20662   3.753   1.311   1.278
 6737SOL    HW120663   3.799   1.262   1.347
 6737SOL    HW220664   3.767   1.403   1.301
 6738SOL     OW20665   3.741   1.316   0.174
 6738SOL    HW120666   3.658   1.331   0.128
 6738SOL    HW220667   3.729   1.233   0.219
 6739SOL     OW20668   3.801   1.795   0.936
 6739SOL    HW120669   3.780   1.713   0.892
 6739SOL    HW220670   3.895   1.807   0.921
 6740SOL     OW20671   0.216   1.555   0.875
 6740SOL    HW120672   0.285   1.621   0.876
 6740SOL    HW220673   0.243   1.494   0.806
 6741SOL     OW20674   3.754   0.535   1.116
 6741SOL    HW120675   3.834   0.525   1.065
 6741SOL    HW220676   3.784   0.548   1.206
 6742SOL     OW20677   3.908   0.529   1.715
 6742SOL    HW120678   3.946   0.477   1.644
 6742SOL    HW220679   3.859   0.598   1.670
 6743SOL     OW20680   3.946   1.537   1.727
 6743SOL    HW120681   3.939   1.613   1.786
 6743SOL    HW220682   3.987   1.469   1.780
 6744SOL     OW20683   3.859   1.127   1.474
 6744SOL    HW120684   3.930   1.115   1.537
 6744SOL    HW220685   3.895   1.095   1.392
 6745SOL     OW20686   3.811   1.265   1.014
 6745SOL    HW120687   3.784   1.277   1.105
 6745SOL    HW220688   3.747   1.203   0.979
 6746SOL     OW20689   3.839   1.793   1.828
 6746SOL    HW120690   3.789   1.727   1.875
 6746SOL    HW220691   3.892   1.836   1.896
 6747SOL     OW20692   3.804   0.400   0.004
 6747SOL    HW120693   3.766   0.318   0.034
 6747SOL    HW220694   3.774   0.408  13.813
 6748SOL     OW20695   3.794   0.147   0.344
 6748SOL    HW120696   3.760   0.224   0.299
 6748SOL    HW220697   3.889   0.159   0.345
 6749SOL     OW20698   3.800   1.236   0.662
 6749SOL    HW120699   3.794   1.188   0.745
 6749SOL    HW220700   3.884   1.209   0.625
 6750SOL     OW20701   3.752   1.079   0.306
 6750SOL    HW120702   3.848   1.082   0.301
 6750SOL    HW220703   3.733   0.988   0.329
 6751SOL     OW20704   3.956   0.630   1.971
 6751SOL    HW120705   3.874   0.632   2.020
 6751SOL    HW220706   3.932   0.598   1.884
 6752SOL     OW20707   3.953   0.291   2.851
 6752SOL    HW120708   3.966   0.273   2.944
 6752SOL    HW220709   3.865   0.257   2.831
 6753SOL     OW20710   3.731   0.391   2.502
 6753SOL    HW120711   3.644   0.407   2.538
 6753SOL    HW220712   3.720   0.314   2.446
 6754SOL     OW20713   0.014   1.518   2.911
 6754SOL    HW120714   3.968   1.435   2.897
 6754SOL    HW220715   0.084   1.519   2.846
 6755SOL     OW20716   3.941   1.719   2.335
 6755SOL    HW120717   3.950   1.792   2.397
 6755SOL    HW220718   0.030   1.701   2.306
 6756SOL     OW20719   3.942   1.439   2.373
 6756SOL    HW120720   3.922   1.532   2.378
 6756SOL    HW220721   3.885   1.399   2.440
 6757SOL     OW20722   3.811   0.648   2.419
 6757SOL    HW120723   3.798   0.557   2.445
 6757SOL    HW220724   3.815   0.696   2.502
 6758SOL     OW20725   3.753   1.597   1.991
 6758SOL    HW120726   3.733   1.505   2.009
 6758SOL    HW220727   3.723   1.643   2.069
 6759SOL     OW20728   3.829   0.747   3.441
 6759SOL    HW120729   3.914   0.779   3.471
 6759SOL    HW220730   3.773   0.825   3.440
 6760SOL     OW20731   3.803   0.817   2.635
 6760SOL    HW120732   3.896   0.810   2.657
 6760SOL    HW220733   3.771   0.892   2.686
 6761SOL     OW20734   3.848   1.860   3.430
 6761SOL    HW120735   3.850   1.831   3.521
 6761SOL    HW220736   3.760   1.837   3.400
 6762SOL     OW20737   3.924   0.310   3.380
 6762SOL    HW120738   3.847   0.355   3.346
 6762SOL    HW220739   3.889   0.247   3.443
 6763SOL     OW20740   3.805   0.550   3.252
 6763SOL    HW120741   3.900   0.546   3.239
 6763SOL    HW220742   3.791   0.625   3.309
 6764SOL     OW20743   0.266   0.288   2.196
 6764SOL    HW120744   0.306   0.224   2.138
 6764SOL    HW220745   0.292   0.373   2.160
 6765SOL     OW20746   3.789   1.572   3.210
 6765SOL    HW120747   3.762   1.637   3.145
 6765SOL    HW220748   3.885   1.578   3.211
 6766SOL     OW20749   0.070   1.090   2.385
 6766SOL    HW120750   0.071   1.144   2.305
 6766SOL    HW220751   0.127   1.016   2.365
 6767SOL     OW20752   0.009   0.216   3.105
 6767SOL    HW120753   3.984   0.241   3.194
 6767SOL    HW220754   0.007   0.120   3.106
 6768SOL     OW20755   3.753   1.311   3.140
 6768SOL    HW120756   3.799   1.262   3.210
 6768SOL    HW220757   3.767   1.403   3.163
 6769SOL     OW20758   3.729   1.326   2.050
 6769SOL    HW120759   3.643   1.339   2.011
 6769SOL    HW220760   3.723   1.242   2.094
 6770SOL     OW20761   3.801   1.795   2.798
 6770SOL    HW120762   3.780   1.713   2.754
 6770SOL    HW220763   3.895   1.807   2.783
 6771SOL     OW20764   0.216   1.555   2.737
 6771SOL    HW120765   0.286   1.621   2.739
 6771SOL    HW220766   0.244   1.493   2.669
 6772SOL     OW20767   3.754   0.535   2.979
 6772SOL    HW120768   3.834   0.525   2.928
 6772SOL    HW220769   3.783   0.548   3.069
 6773SOL     OW20770   3.908   0.529   3.577
 6773SOL    HW120771   3.947   0.477   3.506
 6773SOL    HW220772   3.859   0.598   3.532
 6774SOL     OW20773   3.946   1.537   3.589
 6774SOL    HW120774   3.939   1.613   3.647
 6774SOL    HW220775   3.987   1.469   3.642
 6775SOL     OW20776   3.859   1.127   3.336
 6775SOL    HW120777   3.931   1.115   3.399
 6775SOL    HW220778   3.895   1.094   3.254
 6776SOL     OW20779   3.810   1.265   2.876
 6776SOL    HW120780   3.784   1.277   2.967
 6776SOL    HW220781   3.747   1.203   2.841
 6777SOL     OW20782   3.839   1.793   3.690
 6777SOL    HW120783   3.789   1.727   3.737
 6777SOL    HW220784   3.892   1.836   3.758
 6778SOL     OW20785   3.822   0.317   1.854
 6778SOL    HW120786   3.749   0.334   1.912
 6778SOL    HW220787   3.829   0.396   1.800
 6779SOL     OW20788   3.781   0.152   2.207
 6779SOL    HW120789   3.750   0.211   2.138
 6779SOL    HW220790   3.876   0.149   2.194
 6780SOL     OW20791   3.800   1.238   2.525
 6780SOL    HW120792   3.794   1.188   2.607
 6780SOL    HW220793   3.880   1.206   2.484
 6781SOL     OW20794   3.753   1.082   2.171
 6781SOL    HW120795   3.844   1.082   2.140
 6781SOL    HW220796   3.735   0.990   2.191
 6782SOL     OW20797   3.956   0.630   3.833
 6782SOL    HW120798   3.874   0.632   3.882
 6782SOL    HW220799   3.932   0.598   3.746
 6783SOL     OW20800   3.953   0.291   4.713
 6783SOL    HW120801   3.966   0.273   4.806
 6783SOL    HW220802   3.865   0.257   4.693
 6784SOL     OW20803   3.731   0.391   4.364
 6784SOL    HW120804   3.644   0.407   4.400
 6784SOL    HW220805   3.720   0.314   4.308
 6785SOL     OW20806   0.014   1.518   4.773
 6785SOL    HW120807   3.968   1.435   4.759
 6785SOL    HW220808   0.084   1.519   4.708
 6786SOL     OW20809   3.941   1.719   4.197
 6786SOL    HW120810   3.950   1.792   4.259
 6786SOL    HW220811   0.030   1.701   4.168
 6787SOL     OW20812   3.942   1.439   4.235
 6787SOL    HW120813   3.922   1.532   4.240
 6787SOL    HW220814   3.885   1.399   4.302
 6788SOL     OW20815   3.811   0.648   4.281
 6788SOL    HW120816   3.798   0.557   4.307
 6788SOL    HW220817   3.815   0.696   4.364
 6789SOL     OW20818   3.753   1.597   3.853
 6789SOL    HW120819   3.733   1.505   3.871
 6789SOL    HW220820   3.723   1.643   3.931
 6790SOL     OW20821   3.829   0.747   5.303
 6790SOL    HW120822   3.914   0.779   5.333
 6790SOL    HW220823   3.773   0.825   5.302
 6791SOL     OW20824   3.803   0.817   4.497
 6791SOL    HW120825   3.896   0.810   4.519
 6791SOL    HW220826   3.771   0.892   4.548
 6792SOL     OW20827   3.848   1.860   5.292
 6792SOL    HW120828   3.851   1.831   5.383
 6792SOL    HW220829   3.760   1.837   5.262
 6793SOL     OW20830   3.924   0.310   5.242
 6793SOL    HW120831   3.847   0.355   5.208
 6793SOL    HW220832   3.889   0.247   5.305
 6794SOL     OW20833   3.805   0.550   5.114
 6794SOL    HW120834   3.900   0.546   5.101
 6794SOL    HW220835   3.791   0.625   5.171
 6795SOL     OW20836   0.266   0.288   4.058
 6795SOL    HW120837   0.306   0.224   4.000
 6795SOL    HW220838   0.292   0.373   4.022
 6796SOL     OW20839   3.789   1.572   5.072
 6796SOL    HW120840   3.762   1.638   5.008
 6796SOL    HW220841   3.885   1.578   5.073
 6797SOL     OW20842   0.070   1.090   4.247
 6797SOL    HW120843   0.071   1.144   4.167
 6797SOL    HW220844   0.127   1.016   4.227
 6798SOL     OW20845   0.009   0.216   4.967
 6798SOL    HW120846   3.984   0.241   5.056
 6798SOL    HW220847   0.007   0.120   4.968
 6799SOL     OW20848   3.753   1.311   5.002
 6799SOL    HW120849   3.798   1.262   5.072
 6799SOL    HW220850   3.767   1.403   5.025
 6800SOL     OW20851   3.729   1.326   3.912
 6800SOL    HW120852   3.643   1.339   3.873
 6800SOL    HW220853   3.723   1.242   3.956
 6801SOL     OW20854   3.801   1.795   4.660
 6801SOL    HW120855   3.780   1.713   4.616
 6801SOL    HW220856   3.895   1.807   4.645
 6802SOL     OW20857   0.216   1.555   4.599
 6802SOL    HW120858   0.286   1.621   4.601
 6802SOL    HW220859   0.244   1.493   4.531
 6803SOL     OW20860   3.754   0.535   4.840
 6803SOL    HW120861   3.834   0.526   4.790
 6803SOL    HW220862   3.783   0.548   4.931
 6804SOL     OW20863   3.908   0.529   5.439
 6804SOL    HW120864   3.947   0.477   5.368
 6804SOL    HW220865   3.859   0.598   5.394
 6805SOL     OW20866   3.946   1.537   5.451
 6805SOL    HW120867   3.939   1.613   5.509
 6805SOL    HW220868   3.987   1.469   5.504
 6806SOL     OW20869   3.859   1.127   5.198
 6806SOL    HW120870   3.930   1.115   5.262
 6806SOL    HW220871   3.895   1.094   5.116
 6807SOL     OW20872   3.810   1.265   4.738
 6807SOL    HW120873   3.784   1.277   4.829
 6807SOL    HW220874   3.747   1.203   4.703
 6808SOL     OW20875   3.839   1.793   5.552
 6808SOL    HW120876   3.789   1.727   5.599
 6808SOL    HW220877   3.892   1.835   5.620
 6809SOL     OW20878   3.822   0.317   3.716
 6809SOL    HW120879   3.749   0.334   3.775
 6809SOL    HW220880   3.829   0.396   3.662
 6810SOL     OW20881   3.781   0.152   4.069
 6810SOL    HW120882   3.750   0.211   4.000
 6810SOL    HW220883   3.876   0.149   4.056
 6811SOL     OW20884   3.800   1.238   4.387
 6811SOL    HW120885   3.794   1.188   4.469
 6811SOL    HW220886   3.880   1.206   4.346
 6812SOL     OW20887   3.753   1.082   4.033
 6812SOL    HW120888   3.844   1.082   4.002
 6812SOL    HW220889   3.735   0.990   4.053
 6813SOL     OW20890   3.956   0.630   5.695
 6813SOL    HW120891   3.874   0.632   5.744
 6813SOL    HW220892   3.931   0.598   5.608
 6814SOL     OW20893   3.953   0.291   6.574
 6814SOL    HW120894   3.966   0.273   6.668
 6814SOL    HW220895   3.865   0.257   6.555
 6815SOL     OW20896   3.731   0.391   6.226
 6815SOL    HW120897   3.644   0.407   6.262
 6815SOL    HW220898   3.720   0.314   6.170
 6816SOL     OW20899   0.014   1.518   6.635
 6816SOL    HW120900   3.968   1.435   6.620
 6816SOL    HW220901   0.084   1.519   6.570
 6817SOL     OW20902   3.941   1.719   6.059
 6817SOL    HW120903   3.950   1.792   6.121
 6817SOL    HW220904   0.030   1.701   6.030
 6818SOL     OW20905   3.942   1.439   6.097
 6818SOL    HW120906   3.922   1.532   6.102
 6818SOL    HW220907   3.885   1.399   6.164
 6819SOL     OW20908   3.811   0.648   6.143
 6819SOL    HW120909   3.798   0.557   6.169
 6819SOL    HW220910   3.815   0.696   6.226
 6820SOL     OW20911   3.753   1.597   5.714
 6820SOL    HW120912   3.733   1.505   5.733
 6820SOL    HW220913   3.723   1.644   5.793
 6821SOL     OW20914   3.829   0.747   7.165
 6821SOL    HW120915   3.914   0.779   7.195
 6821SOL    HW220916   3.773   0.825   7.164
 6822SOL     OW20917   3.803   0.817   6.359
 6822SOL    HW120918   3.896   0.810   6.381
 6822SOL    HW220919   3.771   0.892   6.409
 6823SOL     OW20920   3.848   1.860   7.154
 6823SOL    HW120921   3.850   1.831   7.245
 6823SOL    HW220922   3.760   1.838   7.124
 6824SOL     OW20923   3.924   0.310   7.104
 6824SOL    HW120924   3.847   0.355   7.070
 6824SOL    HW220925   3.889   0.247   7.167
 6825SOL     OW20926   3.805   0.550   6.976
 6825SOL    HW120927   3.900   0.546   6.963
 6825SOL    HW220928   3.791   0.625   7.033
 6826SOL     OW20929   0.266   0.288   5.920
 6826SOL    HW120930   0.306   0.224   5.862
 6826SOL    HW220931   0.292   0.373   5.884
 6827SOL     OW20932   3.789   1.572   6.934
 6827SOL    HW120933   3.762   1.638   6.870
 6827SOL    HW220934   3.885   1.578   6.935
 6828SOL     OW20935   0.069   1.090   6.109
 6828SOL    HW120936   0.071   1.144   6.030
 6828SOL    HW220937   0.128   1.017   6.089
 6829SOL     OW20938   0.009   0.216   6.829
 6829SOL    HW120939   3.984   0.241   6.918
 6829SOL    HW220940   0.007   0.120   6.830
 6830SOL     OW20941   3.753   1.311   6.865
 6830SOL    HW120942   3.799   1.263   6.933
 6830SOL    HW220943   3.767   1.403   6.886
 6831SOL     OW20944   3.729   1.327   5.774
 6831SOL    HW120945   3.643   1.339   5.734
 6831SOL    HW220946   3.723   1.242   5.818
 6832SOL     OW20947   3.801   1.795   6.522
 6832SOL    HW120948   3.780   1.713   6.478
 6832SOL    HW220949   3.895   1.807   6.507
 6833SOL     OW20950   0.216   1.555   6.461
 6833SOL    HW120951   0.285   1.621   6.463
 6833SOL    HW220952   0.245   1.493   6.393
 6834SOL     OW20953   3.754   0.535   6.703
 6834SOL    HW120954   3.834   0.526   6.652
 6834SOL    HW220955   3.783   0.548   6.793
 6835SOL     OW20956   3.908   0.529   7.301
 6835SOL    HW120957   3.947   0.478   7.230
 6835SOL    HW220958   3.859   0.598   7.256
 6836SOL     OW20959   3.945   1.537   7.313
 6836SOL    HW120960   3.939   1.613   7.371
 6836SOL    HW220961   3.988   1.469   7.366
 6837SOL     OW20962   3.859   1.126   7.061
 6837SOL    HW120963   3.931   1.115   7.123
 6837SOL    HW220964   3.895   1.095   6.978
 6838SOL     OW20965   3.810   1.264   6.600
 6838SOL    HW120966   3.784   1.277   6.691
 6838SOL    HW220967   3.746   1.203   6.565
 6839SOL     OW20968   3.839   1.793   7.414
 6839SOL    HW120969   3.789   1.727   7.461
 6839SOL    HW220970   3.892   1.836   7.482
 6840SOL     OW20971   3.822   0.317   5.578
 6840SOL    HW120972   3.749   0.334   5.637
 6840SOL    HW220973   3.829   0.396   5.524
 6841SOL     OW20974   3.781   0.152   5.931
 6841SOL    HW120975   3.750   0.211   5.862
 6841SOL    HW220976   3.876   0.149   5.918
 6842SOL     OW20977   3.800   1.238   6.249
 6842SOL    HW120978   3.794   1.189   6.331
 6842SOL    HW220979   3.881   1.206   6.208
 6843SOL     OW20980   3.753   1.082   5.895
 6843SOL    HW120981   3.844   1.082   5.864
 6843SOL    HW220982   3.735   0.990   5.915
 6844SOL     OW20983   3.956   0.630   7.557
 6844SOL    HW120984   3.874   0.632   7.606
 6844SOL    HW220985   3.932   0.598   7.470
 6845SOL     OW20986   3.953   0.291   8.437
 6845SOL    HW120987   3.966   0.273   8.530
 6845SOL    HW220988   3.865   0.257   8.418
 6846SOL     OW20989   3.731   0.391   8.088
 6846SOL    HW120990   3.644   0.407   8.124
 6846SOL    HW220991   3.720   0.314   8.032
 6847SOL     OW20992   0.014   1.518   8.497
 6847SOL    HW120993   3.968   1.435   8.482
 6847SOL    HW220994   0.084   1.519   8.433
 6848SOL     OW20995   3.941   1.719   7.922
 6848SOL    HW120996   3.950   1.792   7.983
 6848SOL    HW220997   0.030   1.701   7.892
 6849SOL     OW20998   3.942   1.439   7.960
 6849SOL    HW120999   3.923   1.532   7.964
 6849SOL    HW221000   3.885   1.400   8.026
 6850SOL     OW21001   3.811   0.648   8.005
 6850SOL    HW121002   3.798   0.557   8.031
 6850SOL    HW221003   3.815   0.696   8.088
 6851SOL     OW21004   3.753   1.597   7.577
 6851SOL    HW121005   3.733   1.505   7.595
 6851SOL    HW221006   3.723   1.644   7.655
 6852SOL     OW21007   3.829   0.747   9.027
 6852SOL    HW121008   3.914   0.779   9.057
 6852SOL    HW221009   3.773   0.825   9.026
 6853SOL     OW21010   3.803   0.816   8.221
 6853SOL    HW121011   3.896   0.810   8.243
 6853SOL    HW221012   3.772   0.892   8.271
 6854SOL     OW21013   3.848   1.861   9.016
 6854SOL    HW121014   3.850   1.831   9.107
 6854SOL    HW221015   3.760   1.837   8.985
 6855SOL     OW21016   3.924   0.310   8.966
 6855SOL    HW121017   3.847   0.355   8.932
 6855SOL    HW221018   3.889   0.247   9.029
 6856SOL     OW21019   3.805   0.550   8.838
 6856SOL    HW121020   3.900   0.546   8.825
 6856SOL    HW221021   3.792   0.625   8.895
 6857SOL     OW21022   0.266   0.288   7.782
 6857SOL    HW121023   0.306   0.224   7.724
 6857SOL    HW221024   0.292   0.373   7.746
 6858SOL     OW21025   3.789   1.572   8.796
 6858SOL    HW121026   3.762   1.637   8.731
 6858SOL    HW221027   3.885   1.578   8.797
 6859SOL     OW21028   0.069   1.090   7.971
 6859SOL    HW121029   0.071   1.144   7.892
 6859SOL    HW221030   0.128   1.017   7.951
 6860SOL     OW21031   0.009   0.216   8.691
 6860SOL    HW121032   3.983   0.241   8.780
 6860SOL    HW221033   0.007   0.120   8.692
 6861SOL     OW21034   3.753   1.311   8.726
 6861SOL    HW121035   3.799   1.263   8.796
 6861SOL    HW221036   3.767   1.403   8.748
 6862SOL     OW21037   3.729   1.326   7.636
 6862SOL    HW121038   3.643   1.339   7.597
 6862SOL    HW221039   3.723   1.242   7.680
 6863SOL     OW21040   3.801   1.795   8.384
 6863SOL    HW121041   3.780   1.713   8.340
 6863SOL    HW221042   3.895   1.807   8.369
 6864SOL     OW21043   0.216   1.555   8.323
 6864SOL    HW121044   0.285   1.621   8.325
 6864SOL    HW221045   0.244   1.493   8.255
 6865SOL     OW21046   3.754   0.535   8.565
 6865SOL    HW121047   3.834   0.525   8.513
 6865SOL    HW221048   3.784   0.548   8.654
 6866SOL     OW21049   3.908   0.529   9.163
 6866SOL    HW121050   3.947   0.477   9.092
 6866SOL    HW221051   3.859   0.598   9.118
 6867SOL     OW21052   3.946   1.537   9.175
 6867SOL    HW121053   3.939   1.613   9.233
 6867SOL    HW221054   3.987   1.469   9.228
 6868SOL     OW21055   3.859   1.127   8.922
 6868SOL    HW121056   3.931   1.115   8.985
 6868SOL    HW221057   3.895   1.095   8.840
 6869SOL     OW21058   3.810   1.265   8.462
 6869SOL    HW121059   3.784   1.277   8.553
 6869SOL    HW221060   3.747   1.203   8.427
 6870SOL     OW21061   3.839   1.793   9.276
 6870SOL    HW121062   3.789   1.727   9.323
 6870SOL    HW221063   3.892   1.836   9.344
 6871SOL     OW21064   3.822   0.317   7.440
 6871SOL    HW121065   3.749   0.334   7.498
 6871SOL    HW221066   3.829   0.396   7.386
 6872SOL     OW21067   3.781   0.152   7.793
 6872SOL    HW121068   3.750   0.211   7.724
 6872SOL    HW221069   3.876   0.149   7.780
 6873SOL     OW21070   3.800   1.238   8.111
 6873SOL    HW121071   3.795   1.188   8.193
 6873SOL    HW221072   3.880   1.207   8.069
 6874SOL     OW21073   3.753   1.082   7.757
 6874SOL    HW121074   3.843   1.082   7.726
 6874SOL    HW221075   3.735   0.990   7.777
 6875SOL     OW21076   3.956   0.630   9.419
 6875SOL    HW121077   3.874   0.632   9.468
 6875SOL    HW221078   3.932   0.598   9.332
 6876SOL     OW21079   3.953   0.291  10.299
 6876SOL    HW121080   3.966   0.273  10.392
 6876SOL    HW221081   3.865   0.257  10.280
 6877SOL     OW21082   3.731   0.391   9.950
 6877SOL    HW121083   3.644   0.407   9.986
 6877SOL    HW221084   3.720   0.314   9.894
 6878SOL     OW21085   0.014   1.518  10.359
 6878SOL    HW121086   3.968   1.435  10.344
 6878SOL    HW221087   0.084   1.519  10.294
 6879SOL     OW21088   3.941   1.719   9.783
 6879SOL    HW121089   3.950   1.792   9.845
 6879SOL    HW221090   0.030   1.701   9.754
 6880SOL     OW21091   3.942   1.439   9.822
 6880SOL    HW121092   3.922   1.532   9.826
 6880SOL    HW221093   3.885   1.399   9.888
 6881SOL     OW21094   3.811   0.648   9.867
 6881SOL    HW121095   3.798   0.557   9.893
 6881SOL    HW221096   3.815   0.696   9.950
 6882SOL     OW21097   3.753   1.597   9.439
 6882SOL    HW121098   3.733   1.505   9.457
 6882SOL    HW221099   3.723   1.643   9.517
 6883SOL     OW21100   3.829   0.747  10.889
 6883SOL    HW121101   3.914   0.779  10.919
 6883SOL    HW221102   3.773   0.825  10.888
 6884SOL     OW21103   3.803   0.816  10.083
 6884SOL    HW121104   3.896   0.810  10.105
 6884SOL    HW221105   3.771   0.892  10.133
 6885SOL     OW21106   3.848   1.861  10.878
 6885SOL    HW121107   3.850   1.831  10.969
 6885SOL    HW221108   3.760   1.837  10.847
 6886SOL     OW21109   3.924   0.310  10.828
 6886SOL    HW121110   3.847   0.355  10.794
 6886SOL    HW221111   3.889   0.247  10.891
 6887SOL     OW21112   3.805   0.550  10.700
 6887SOL    HW121113   3.900   0.546  10.687
 6887SOL    HW221114   3.791   0.625  10.757
 6888SOL     OW21115   0.266   0.288   9.644
 6888SOL    HW121116   0.306   0.224   9.586
 6888SOL    HW221117   0.292   0.373   9.608
 6889SOL     OW21118   3.789   1.572  10.658
 6889SOL    HW121119   3.762   1.637  10.593
 6889SOL    HW221120   3.885   1.578  10.659
 6890SOL     OW21121   0.070   1.090   9.833
 6890SOL    HW121122   0.071   1.144   9.753
 6890SOL    HW221123   0.127   1.016   9.813
 6891SOL     OW21124   0.009   0.216  10.553
 6891SOL    HW121125   3.983   0.241  10.642
 6891SOL    HW221126   0.007   0.120  10.554
 6892SOL     OW21127   3.754   1.311  10.588
 6892SOL    HW121128   3.799   1.262  10.658
 6892SOL    HW221129   3.767   1.403  10.611
 6893SOL     OW21130   3.729   1.326   9.498
 6893SOL    HW121131   3.643   1.339   9.459
 6893SOL    HW221132   3.723   1.242   9.542
 6894SOL     OW21133   3.801   1.795  10.246
 6894SOL    HW121134   3.780   1.713  10.202
 6894SOL    HW221135   3.895   1.807  10.231
 6895SOL     OW21136   0.216   1.555  10.185
 6895SOL    HW121137   0.286   1.621  10.187
 6895SOL    HW221138   0.244   1.493  10.117
 6896SOL     OW21139   3.754   0.534  10.427
 6896SOL    HW121140   3.834   0.525  10.376
 6896SOL    HW221141   3.783   0.548  10.517
 6897SOL     OW21142   3.908   0.529  11.025
 6897SOL    HW121143   3.947   0.477  10.954
 6897SOL    HW221144   3.859   0.598  10.980
 6898SOL     OW21145   3.946   1.537  11.037
 6898SOL    HW121146   3.939   1.613  11.096
 6898SOL    HW221147   3.987   1.469  11.090
 6899SOL     OW21148   3.859   1.127  10.784
 6899SOL    HW121149   3.931   1.115  10.847
 6899SOL    HW221150   3.895   1.095  10.702
 6900SOL     OW21151   3.810   1.265  10.324
 6900SOL    HW121152   3.784   1.277  10.415
 6900SOL    HW221153   3.747   1.203  10.289
 6901SOL     OW21154   3.839   1.793  11.138
 6901SOL    HW121155   3.789   1.727  11.185
 6901SOL    HW221156   3.892   1.836  11.206
 6902SOL     OW21157   3.822   0.317   9.302
 6902SOL    HW121158   3.749   0.334   9.360
 6902SOL    HW221159   3.829   0.396   9.248
 6903SOL     OW21160   3.781   0.152   9.655
 6903SOL    HW121161   3.750   0.211   9.586
 6903SOL    HW221162   3.876   0.149   9.642
 6904SOL     OW21163   3.800   1.238   9.973
 6904SOL    HW121164   3.794   1.188  10.055
 6904SOL    HW221165   3.880   1.206   9.932
 6905SOL     OW21166   3.753   1.082   9.619
 6905SOL    HW121167   3.844   1.082   9.588
 6905SOL    HW221168   3.735   0.990   9.639
 6906SOL     OW21169   3.956   0.630  11.281
 6906SOL    HW121170   3.874   0.632  11.330
 6906SOL    HW221171   3.932   0.598  11.194
 6907SOL     OW21172   3.953   0.291  12.161
 6907SOL    HW121173   3.966   0.273  12.254
 6907SOL    HW221174   3.865   0.257  12.142
 6908SOL     OW21175   3.731   0.391  11.812
 6908SOL    HW121176   3.644   0.407  11.848
 6908SOL    HW221177   3.720   0.314  11.755
 6909SOL     OW21178   0.014   1.518  12.221
 6909SOL    HW121179   3.968   1.435  12.206
 6909SOL    HW221180   0.084   1.519  12.156
 6910SOL     OW21181   3.941   1.719  11.645
 6910SOL    HW121182   3.950   1.792  11.707
 6910SOL    HW221183   0.030   1.701  11.616
 6911SOL     OW21184   3.942   1.439  11.684
 6911SOL    HW121185   3.922   1.532  11.688
 6911SOL    HW221186   3.885   1.399  11.750
 6912SOL     OW21187   3.811   0.648  11.729
 6912SOL    HW121188   3.798   0.557  11.755
 6912SOL    HW221189   3.815   0.696  11.812
 6913SOL     OW21190   3.753   1.597  11.301
 6913SOL    HW121191   3.733   1.505  11.319
 6913SOL    HW221192   3.723   1.643  11.379
 6914SOL     OW21193   3.829   0.747  12.751
 6914SOL    HW121194   3.914   0.780  12.780
 6914SOL    HW221195   3.773   0.825  12.750
 6915SOL     OW21196   3.803   0.816  11.945
 6915SOL    HW121197   3.896   0.810  11.967
 6915SOL    HW221198   3.771   0.892  11.995
 6916SOL     OW21199   3.848   1.861  12.741
 6916SOL    HW121200   3.850   1.831  12.832
 6916SOL    HW221201   3.760   1.837  12.710
 6917SOL     OW21202   3.924   0.310  12.691
 6917SOL    HW121203   3.847   0.355  12.655
 6917SOL    HW221204   3.889   0.246  12.753
 6918SOL     OW21205   3.805   0.549  12.562
 6918SOL    HW121206   3.900   0.546  12.549
 6918SOL    HW221207   3.791   0.625  12.619
 6919SOL     OW21208   0.266   0.288  11.506
 6919SOL    HW121209   0.306   0.224  11.448
 6919SOL    HW221210   0.292   0.373  11.470
 6920SOL     OW21211   3.789   1.572  12.520
 6920SOL    HW121212   3.762   1.637  12.455
 6920SOL    HW221213   3.885   1.578  12.521
 6921SOL     OW21214   0.070   1.090  11.695
 6921SOL    HW121215   0.071   1.144  11.615
 6921SOL    HW221216   0.127   1.016  11.675
 6922SOL     OW21217   0.009   0.215  12.415
 6922SOL    HW121218   3.983   0.241  12.504
 6922SOL    HW221219   0.007   0.120  12.416
 6923SOL     OW21220   3.753   1.311  12.450
 6923SOL    HW121221   3.799   1.263  12.520
 6923SOL    HW221222   3.767   1.403  12.472
 6924SOL     OW21223   3.729   1.326  11.360
 6924SOL    HW121224   3.643   1.339  11.321
 6924SOL    HW221225   3.723   1.242  11.404
 6925SOL     OW21226   3.801   1.795  12.108
 6925SOL    HW121227   3.780   1.713  12.064
 6925SOL    HW221228   3.895   1.807  12.093
 6926SOL     OW21229   0.216   1.555  12.047
 6926SOL    HW121230   0.286   1.621  12.049
 6926SOL    HW221231   0.244   1.493  11.979
 6927SOL     OW21232   3.754   0.534  12.289
 6927SOL    HW121233   3.834   0.525  12.238
 6927SOL    HW221234   3.784   0.548  12.379
 6928SOL     OW21235   3.909   0.529  12.887
 6928SOL    HW121236   3.946   0.477  12.816
 6928SOL    HW221237   3.860   0.598  12.843
 6929SOL     OW21238   3.946   1.538  12.899
 6929SOL    HW121239   3.939   1.613  12.958
 6929SOL    HW221240   3.985   1.469  12.952
 6930SOL     OW21241   3.859   1.127  12.646
 6930SOL    HW121242   3.931   1.115  12.709
 6930SOL    HW221243   3.895   1.095  12.563
 6931SOL     OW21244   3.810   1.265  12.186
 6931SOL    HW121245   3.784   1.277  12.277
 6931SOL    HW221246   3.747   1.203  12.151
 6932SOL     OW21247   3.840   1.794  13.001
 6932SOL    HW121248   3.790   1.727  13.048
 6932SOL    HW221249   3.892   1.836  13.070
 6933SOL     OW21250   3.822   0.317  11.164
 6933SOL    HW121251   3.749   0.334  11.222
 6933SOL    HW221252   3.829   0.396  11.110
 6934SOL     OW21253   3.781   0.152  11.517
 6934SOL    HW121254   3.750   0.211  11.448
 6934SOL    HW221255   3.876   0.149  11.504
 6935SOL     OW21256   3.800   1.238  11.835
 6935SOL    HW121257   3.794   1.188  11.917
 6935SOL    HW221258   3.880   1.206  11.794
 6936SOL     OW21259   3.753   1.082  11.481
 6936SOL    HW121260   3.844   1.082  11.450
 6936SOL    HW221261   3.735   0.990  11.501
 6937SOL     OW21262   3.955   0.628  13.145
 6937SOL    HW121263   3.871   0.632  13.190
 6937SOL    HW221264   3.933   0.597  13.057
 6938SOL     OW21265   3.722   0.391  13.649
 6938SOL    HW121266   3.632   0.409  13.676
 6938SOL    HW221267   3.721   0.300  13.618
 6939SOL     OW21268   3.941   1.716  13.503
 6939SOL    HW121269   3.946   1.792  13.561
 6939SOL    HW221270   0.032   1.699  13.479
 6940SOL     OW21271   3.942   1.436  13.544
 6940SOL    HW121272   3.924   1.530  13.549
 6940SOL    HW221273   3.884   1.398  13.610
 6941SOL     OW21274   3.949   1.090  13.900
 6941SOL    HW121275   3.982   1.043   0.077
 6941SOL    HW221276   3.877   1.143   0.033
 6942SOL     OW21277   3.827   0.649  13.593
 6942SOL    HW121278   3.784   0.565  13.610
 6942SOL    HW221279   3.816   0.698  13.674
 6943SOL     OW21280   3.752   1.597  13.163
 6943SOL    HW121281   3.733   1.505  13.181
 6943SOL    HW221282   3.723   1.643  13.241
 6944SOL     OW21283   3.798   0.809  13.812
 6944SOL    HW121284   3.892   0.814  13.830
 6944SOL    HW221285   3.763   0.889  13.850
 6945SOL     OW21286   0.097   1.809  13.879
 6945SOL    HW121287   0.057   1.734   0.023
 6945SOL    HW221288   0.168   1.836   0.038
 6946SOL     OW21289   0.266   0.292  13.369
 6946SOL    HW121290   0.307   0.223  13.318
 6946SOL    HW221291   0.298   0.373  13.331
 6947SOL     OW21292   0.072   1.088  13.553
 6947SOL    HW121293   0.071   1.146  13.476
 6947SOL    HW221294   0.132   1.018  13.528
 6948SOL     OW21295   3.729   1.327  13.221
 6948SOL    HW121296   3.643   1.340  13.182
 6948SOL    HW221297   3.723   1.243  13.267
 6949SOL     OW21298   0.310   1.534   0.027
 6949SOL    HW121299   0.270   1.620   0.037
 6949SOL    HW221300   0.254   1.489  13.864
 6950SOL     OW21301   3.822   0.318  13.025
 6950SOL    HW121302   3.748   0.334  13.083
 6950SOL    HW221303   3.829   0.396  12.971
 6951SOL     OW21304   3.789   0.155  13.375
 6951SOL    HW121305   3.755   0.212  13.306
 6951SOL    HW221306   3.883   0.150  13.359
 6952SOL     OW21307   3.807   1.235  13.695
 6952SOL    HW121308   3.797   1.172  13.766
 6952SOL    HW221309   3.885   1.206  13.649
 6953SOL     OW21310   3.753   1.081  13.342
 6953SOL    HW121311   3.843   1.082  13.310
 6953SOL    HW221312   3.735   0.989  13.362
 6954SOL     OW21313   3.955   2.496   0.126
 6954SOL    HW121314   3.879   2.490   0.184
 6954SOL    HW221315   3.928   2.448   0.047
 6955SOL     OW21316   3.960   2.126   0.985
 6955SOL    HW121317   3.967   2.123   1.081
 6955SOL    HW221318   3.867   2.111   0.968
 6956SOL     OW21319   3.727   2.245   0.636
 6956SOL    HW121320   3.646   2.266   0.682
 6956SOL    HW221321   3.709   2.161   0.593
 6957SOL     OW21322   0.014   3.378   1.050
 6957SOL    HW121323   3.969   3.296   1.031
 6957SOL    HW221324   0.084   3.382   0.985
 6958SOL     OW21325   3.940   3.577   0.478
 6958SOL    HW121326   3.956   3.651   0.537
 6958SOL    HW221327   0.024   3.563   0.434
 6959SOL     OW21328   3.936   3.299   0.510
 6959SOL    HW121329   3.927   3.394   0.515
 6959SOL    HW221330   3.883   3.266   0.583
 6960SOL     OW21331   3.819   2.504   0.558
 6960SOL    HW121332   3.789   2.417   0.583
 6960SOL    HW221333   3.815   2.555   0.640
 6961SOL     OW21334   3.731   3.472   0.111
 6961SOL    HW121335   3.727   3.379   0.134
 6961SOL    HW221336   3.707   3.517   0.192
 6962SOL     OW21337   3.830   2.603   1.583
 6962SOL    HW121338   3.915   2.634   1.614
 6962SOL    HW221339   3.775   2.681   1.582
 6963SOL     OW21340   3.803   2.678   0.771
 6963SOL    HW121341   3.895   2.672   0.794
 6963SOL    HW221342   3.769   2.752   0.821
 6964SOL     OW21343   3.850   3.714   1.567
 6964SOL    HW121344   3.851   3.687   1.659
 6964SOL    HW221345   3.758   3.703   1.541
 6965SOL     OW21346   3.925   2.158   1.514
 6965SOL    HW121347   3.844   2.199   1.485
 6965SOL    HW221348   3.898   2.078   1.559
 6966SOL     OW21349   3.805   2.412   1.388
 6966SOL    HW121350   3.900   2.407   1.378
 6966SOL    HW221351   3.792   2.486   1.448
 6967SOL     OW21352   3.789   3.434   1.347
 6967SOL    HW121353   3.763   3.501   1.285
 6967SOL    HW221354   3.885   3.440   1.350
 6968SOL     OW21355   0.070   2.950   0.526
 6968SOL    HW121356   0.084   3.016   0.458
 6968SOL    HW221357   0.141   2.888   0.514
 6969SOL     OW21358   0.010   2.075   1.249
 6969SOL    HW121359   3.982   2.104   1.335
 6969SOL    HW221360   0.010   1.979   1.254
 6970SOL     OW21361   3.753   3.173   1.278
 6970SOL    HW121362   3.798   3.125   1.347
 6970SOL    HW221363   3.767   3.265   1.300
 6971SOL     OW21364   0.001   1.921   0.651
 6971SOL    HW121365   0.021   2.013   0.667
 6971SOL    HW221366   0.023   1.877   0.733
 6972SOL     OW21367   3.739   3.178   0.176
 6972SOL    HW121368   3.657   3.189   0.127
 6972SOL    HW221369   3.729   3.094   0.220
 6973SOL     OW21370   3.803   3.654   0.936
 6973SOL    HW121371   3.782   3.572   0.891
 6973SOL    HW221372   3.898   3.665   0.923
 6974SOL     OW21373   0.216   3.420   0.876
 6974SOL    HW121374   0.276   3.494   0.872
 6974SOL    HW221375   0.248   3.360   0.809
 6975SOL     OW21376   3.756   2.400   1.117
 6975SOL    HW121377   3.840   2.393   1.071
 6975SOL    HW221378   3.780   2.409   1.209
 6976SOL     OW21379   3.904   2.378   1.722
 6976SOL    HW121380   3.936   2.321   1.652
 6976SOL    HW221381   3.856   2.447   1.676
 6977SOL     OW21382   3.945   3.398   1.727
 6977SOL    HW121383   3.940   3.476   1.783
 6977SOL    HW221384   3.988   3.332   1.782
 6978SOL     OW21385   3.859   2.989   1.474
 6978SOL    HW121386   3.930   2.977   1.538
 6978SOL    HW221387   3.896   2.958   1.392
 6979SOL     OW21388   3.810   3.126   1.014
 6979SOL    HW121389   3.785   3.139   1.105
 6979SOL    HW221390   3.746   3.064   0.979
 6980SOL     OW21391   3.839   3.653   1.828
 6980SOL    HW121392   3.790   3.587   1.876
 6980SOL    HW221393   3.889   3.700   1.895
 6981SOL     OW21394   3.781   2.268   0.029
 6981SOL    HW121395   3.742   2.185   0.057
 6981SOL    HW221396   3.762   2.272  13.835
 6982SOL     OW21397   3.789   2.023   0.347
 6982SOL    HW121398   3.765   2.056   0.261
 6982SOL    HW221399   3.885   2.020   0.346
 6983SOL     OW21400   3.799   3.097   0.663
 6983SOL    HW121401   3.795   3.050   0.746
 6983SOL    HW221402   3.884   3.073   0.626
 6984SOL     OW21403   3.751   2.938   0.307
 6984SOL    HW121404   3.847   2.942   0.300
 6984SOL    HW221405   3.732   2.847   0.328
 6985SOL     OW21406   3.955   2.494   1.972
 6985SOL    HW121407   3.873   2.491   2.021
 6985SOL    HW221408   3.932   2.456   1.887
 6986SOL     OW21409   3.960   2.125   2.847
 6986SOL    HW121410   3.967   2.123   2.943
 6986SOL    HW221411   3.867   2.111   2.830
 6987SOL     OW21412   3.727   2.242   2.498
 6987SOL    HW121413   3.647   2.267   2.544
 6987SOL    HW221414   3.706   2.158   2.457
 6988SOL     OW21415   0.013   3.378   2.911
 6988SOL    HW121416   3.970   3.295   2.894
 6988SOL    HW221417   0.084   3.382   2.847
 6989SOL     OW21418   3.941   3.583   2.336
 6989SOL    HW121419   3.955   3.655   2.397
 6989SOL    HW221420   0.028   3.562   2.303
 6990SOL     OW21421   3.940   3.301   2.372
 6990SOL    HW121422   3.924   3.395   2.380
 6990SOL    HW221423   3.885   3.262   2.440
 6991SOL     OW21424   3.820   2.504   2.421
 6991SOL    HW121425   3.790   2.416   2.445
 6991SOL    HW221426   3.815   2.554   2.503
 6992SOL     OW21427   3.751   3.459   1.991
 6992SOL    HW121428   3.733   3.367   2.009
 6992SOL    HW221429   3.722   3.504   2.071
 6993SOL     OW21430   3.830   2.603   3.445
 6993SOL    HW121431   3.915   2.634   3.476
 6993SOL    HW221432   3.775   2.681   3.444
 6994SOL     OW21433   3.803   2.677   2.634
 6994SOL    HW121434   3.895   2.672   2.656
 6994SOL    HW221435   3.770   2.752   2.684
 6995SOL     OW21436   3.850   3.714   3.429
 6995SOL    HW121437   3.851   3.687   3.521
 6995SOL    HW221438   3.758   3.703   3.403
 6996SOL     OW21439   3.925   2.158   3.376
 6996SOL    HW121440   3.844   2.199   3.347
 6996SOL    HW221441   3.897   2.078   3.421
 6997SOL     OW21442   0.002   1.880   2.025
 6997SOL    HW121443   0.032   1.970   2.011
 6997SOL    HW221444   0.069   1.842   2.083
 6998SOL     OW21445   3.805   2.412   3.250
 6998SOL    HW121446   3.900   2.407   3.240
 6998SOL    HW221447   3.792   2.486   3.310
 6999SOL     OW21448   0.282   2.147   2.188
 6999SOL    HW121449   0.298   2.079   2.124
 6999SOL    HW221450   0.297   2.229   2.141
 7000SOL     OW21451   3.789   3.433   3.209
 7000SOL    HW121452   3.763   3.501   3.147
 7000SOL    HW221453   3.885   3.440   3.212
 7001SOL     OW21454   0.070   2.951   2.384
 7001SOL    HW121455   0.071   3.007   2.307
 7001SOL    HW221456   0.130   2.880   2.363
 7002SOL     OW21457   0.010   2.075   3.111
 7002SOL    HW121458   3.982   2.104   3.198
 7002SOL    HW221459   0.010   1.980   3.116
 7003SOL     OW21460   3.753   3.173   3.140
 7003SOL    HW121461   3.798   3.124   3.209
 7003SOL    HW221462   3.767   3.265   3.162
 7004SOL     OW21463   0.003   1.919   2.512
 7004SOL    HW121464   0.020   2.012   2.526
 7004SOL    HW221465   0.023   1.878   2.596
 7005SOL     OW21466   3.729   3.188   2.050
 7005SOL    HW121467   3.643   3.201   2.011
 7005SOL    HW221468   3.723   3.104   2.095
 7006SOL     OW21469   3.803   3.655   2.798
 7006SOL    HW121470   3.782   3.572   2.754
 7006SOL    HW221471   3.897   3.665   2.785
 7007SOL     OW21472   0.216   3.420   2.738
 7007SOL    HW121473   0.277   3.494   2.734
 7007SOL    HW221474   0.249   3.359   2.672
 7008SOL     OW21475   3.756   2.400   2.979
 7008SOL    HW121476   3.839   2.393   2.933
 7008SOL    HW221477   3.780   2.409   3.071
 7009SOL     OW21478   3.904   2.378   3.584
 7009SOL    HW121479   3.936   2.321   3.514
 7009SOL    HW221480   3.856   2.447   3.538
 7010SOL     OW21481   3.945   3.398   3.589
 7010SOL    HW121482   3.940   3.476   3.645
 7010SOL    HW221483   3.988   3.332   3.644
 7011SOL     OW21484   3.859   2.989   3.336
 7011SOL    HW121485   3.930   2.977   3.400
 7011SOL    HW221486   3.896   2.957   3.254
 7012SOL     OW21487   3.810   3.127   2.876
 7012SOL    HW121488   3.785   3.139   2.967
 7012SOL    HW221489   3.746   3.064   2.841
 7013SOL     OW21490   3.839   3.653   3.690
 7013SOL    HW121491   3.790   3.587   3.738
 7013SOL    HW221492   3.889   3.700   3.757
 7014SOL     OW21493   3.801   2.200   1.903
 7014SOL    HW121494   3.717   2.165   1.874
 7014SOL    HW221495   3.821   2.270   1.841
 7015SOL     OW21496   3.768   2.021   2.175
 7015SOL    HW121497   3.759   2.091   2.111
 7015SOL    HW221498   3.861   2.020   2.197
 7016SOL     OW21499   3.800   3.100   2.526
 7016SOL    HW121500   3.795   3.051   2.607
 7016SOL    HW221501   3.880   3.070   2.484
 7017SOL     OW21502   3.752   2.942   2.171
 7017SOL    HW121503   3.843   2.943   2.140
 7017SOL    HW221504   3.734   2.850   2.191
 7018SOL     OW21505   3.955   2.494   3.834
 7018SOL    HW121506   3.873   2.491   3.883
 7018SOL    HW221507   3.932   2.456   3.749
 7019SOL     OW21508   3.960   2.125   4.709
 7019SOL    HW121509   3.967   2.123   4.805
 7019SOL    HW221510   3.867   2.111   4.692
 7020SOL     OW21511   3.727   2.242   4.360
 7020SOL    HW121512   3.647   2.267   4.406
 7020SOL    HW221513   3.706   2.158   4.319
 7021SOL     OW21514   0.013   3.379   4.773
 7021SOL    HW121515   3.970   3.295   4.756
 7021SOL    HW221516   0.084   3.382   4.709
 7022SOL     OW21517   3.941   3.583   4.198
 7022SOL    HW121518   3.955   3.655   4.259
 7022SOL    HW221519   0.028   3.562   4.165
 7023SOL     OW21520   3.940   3.301   4.234
 7023SOL    HW121521   3.924   3.395   4.242
 7023SOL    HW221522   3.885   3.262   4.302
 7024SOL     OW21523   3.820   2.504   4.283
 7024SOL    HW121524   3.790   2.416   4.307
 7024SOL    HW221525   3.815   2.554   4.365
 7025SOL     OW21526   3.751   3.459   3.853
 7025SOL    HW121527   3.733   3.367   3.871
 7025SOL    HW221528   3.722   3.504   3.933
 7026SOL     OW21529   3.830   2.603   5.307
 7026SOL    HW121530   3.915   2.634   5.338
 7026SOL    HW221531   3.775   2.681   5.306
 7027SOL     OW21532   3.803   2.677   4.496
 7027SOL    HW121533   3.895   2.672   4.518
 7027SOL    HW221534   3.770   2.752   4.546
 7028SOL     OW21535   3.850   3.714   5.291
 7028SOL    HW121536   3.851   3.687   5.383
 7028SOL    HW221537   3.758   3.703   5.265
 7029SOL     OW21538   3.925   2.158   5.238
 7029SOL    HW121539   3.844   2.199   5.210
 7029SOL    HW221540   3.898   2.078   5.283
 7030SOL     OW21541   0.002   1.880   3.887
 7030SOL    HW121542   0.031   1.970   3.873
 7030SOL    HW221543   0.069   1.842   3.945
 7031SOL     OW21544   3.805   2.412   5.112
 7031SOL    HW121545   3.900   2.407   5.102
 7031SOL    HW221546   3.792   2.486   5.172
 7032SOL     OW21547   0.282   2.147   4.050
 7032SOL    HW121548   0.298   2.079   3.986
 7032SOL    HW221549   0.297   2.229   4.003
 7033SOL     OW21550   3.789   3.433   5.071
 7033SOL    HW121551   3.763   3.501   5.009
 7033SOL    HW221552   3.885   3.440   5.074
 7034SOL     OW21553   0.070   2.951   4.247
 7034SOL    HW121554   0.071   3.007   4.169
 7034SOL    HW221555   0.130   2.880   4.225
 7035SOL     OW21556   0.010   2.075   4.973
 7035SOL    HW121557   3.981   2.104   5.060
 7035SOL    HW221558   0.010   1.980   4.978
 7036SOL     OW21559   3.754   3.172   5.002
 7036SOL    HW121560   3.798   3.124   5.072
 7036SOL    HW221561   3.767   3.265   5.024
 7037SOL     OW21562   0.003   1.919   4.374
 7037SOL    HW121563   0.020   2.012   4.388
 7037SOL    HW221564   0.023   1.878   4.458
 7038SOL     OW21565   3.729   3.188   3.912
 7038SOL    HW121566   3.643   3.201   3.873
 7038SOL    HW221567   3.723   3.104   3.957
 7039SOL     OW21568   3.803   3.655   4.660
 7039SOL    HW121569   3.782   3.572   4.616
 7039SOL    HW221570   3.897   3.665   4.647
 7040SOL     OW21571   0.216   3.420   4.600
 7040SOL    HW121572   0.277   3.494   4.596
 7040SOL    HW221573   0.249   3.359   4.534
 7041SOL     OW21574   3.756   2.400   4.841
 7041SOL    HW121575   3.839   2.393   4.795
 7041SOL    HW221576   3.780   2.409   4.933
 7042SOL     OW21577   3.904   2.379   5.446
 7042SOL    HW121578   3.936   2.321   5.376
 7042SOL    HW221579   3.856   2.447   5.400
 7043SOL     OW21580   3.945   3.398   5.451
 7043SOL    HW121581   3.939   3.476   5.507
 7043SOL    HW221582   3.987   3.332   5.506
 7044SOL     OW21583   3.859   2.989   5.198
 7044SOL    HW121584   3.929   2.977   5.262
 7044SOL    HW221585   3.896   2.957   5.116
 7045SOL     OW21586   3.810   3.127   4.738
 7045SOL    HW121587   3.785   3.139   4.829
 7045SOL    HW221588   3.746   3.064   4.703
 7046SOL     OW21589   3.839   3.653   5.552
 7046SOL    HW121590   3.790   3.587   5.600
 7046SOL    HW221591   3.889   3.700   5.619
 7047SOL     OW21592   3.801   2.200   3.765
 7047SOL    HW121593   3.717   2.165   3.736
 7047SOL    HW221594   3.821   2.270   3.703
 7048SOL     OW21595   3.768   2.021   4.037
 7048SOL    HW121596   3.759   2.091   3.973
 7048SOL    HW221597   3.861   2.020   4.059
 7049SOL     OW21598   3.800   3.100   4.388
 7049SOL    HW121599   3.794   3.051   4.469
 7049SOL    HW221600   3.880   3.070   4.346
 7050SOL     OW21601   3.752   2.942   4.033
 7050SOL    HW121602   3.843   2.943   4.002
 7050SOL    HW221603   3.734   2.850   4.053
 7051SOL     OW21604   3.955   2.494   5.696
 7051SOL    HW121605   3.873   2.491   5.746
 7051SOL    HW221606   3.932   2.456   5.611
 7052SOL     OW21607   3.960   2.125   6.571
 7052SOL    HW121608   3.967   2.123   6.667
 7052SOL    HW221609   3.867   2.111   6.554
 7053SOL     OW21610   3.726   2.243   6.222
 7053SOL    HW121611   3.647   2.268   6.268
 7053SOL    HW221612   3.705   2.158   6.182
 7054SOL     OW21613   0.013   3.379   6.635
 7054SOL    HW121614   3.969   3.295   6.619
 7054SOL    HW221615   0.084   3.382   6.571
 7055SOL     OW21616   3.941   3.583   6.060
 7055SOL    HW121617   3.955   3.655   6.121
 7055SOL    HW221618   0.028   3.562   6.027
 7056SOL     OW21619   3.940   3.301   6.096
 7056SOL    HW121620   3.924   3.395   6.104
 7056SOL    HW221621   3.886   3.262   6.164
 7057SOL     OW21622   3.820   2.504   6.145
 7057SOL    HW121623   3.790   2.417   6.168
 7057SOL    HW221624   3.815   2.554   6.226
 7058SOL     OW21625   3.751   3.459   5.715
 7058SOL    HW121626   3.733   3.367   5.733
 7058SOL    HW221627   3.722   3.504   5.795
 7059SOL     OW21628   3.830   2.603   7.169
 7059SOL    HW121629   3.915   2.634   7.200
 7059SOL    HW221630   3.774   2.681   7.168
 7060SOL     OW21631   3.803   2.677   6.357
 7060SOL    HW121632   3.895   2.672   6.381
 7060SOL    HW221633   3.770   2.752   6.407
 7061SOL     OW21634   3.850   3.714   7.153
 7061SOL    HW121635   3.851   3.687   7.245
 7061SOL    HW221636   3.758   3.702   7.127
 7062SOL     OW21637   3.925   2.158   7.100
 7062SOL    HW121638   3.844   2.199   7.071
 7062SOL    HW221639   3.897   2.078   7.145
 7063SOL     OW21640   0.002   1.880   5.749
 7063SOL    HW121641   0.031   1.970   5.735
 7063SOL    HW221642   0.068   1.842   5.807
 7064SOL     OW21643   3.806   2.412   6.974
 7064SOL    HW121644   3.901   2.407   6.964
 7064SOL    HW221645   3.792   2.486   7.034
 7065SOL     OW21646   0.282   2.147   5.912
 7065SOL    HW121647   0.298   2.079   5.848
 7065SOL    HW221648   0.296   2.229   5.865
 7066SOL     OW21649   3.789   3.433   6.933
 7066SOL    HW121650   3.763   3.501   6.871
 7066SOL    HW221651   3.885   3.440   6.936
 7067SOL     OW21652   0.070   2.951   6.109
 7067SOL    HW121653   0.070   3.007   6.031
 7067SOL    HW221654   0.129   2.879   6.087
 7068SOL     OW21655   0.011   2.075   6.835
 7068SOL    HW121656   3.981   2.104   6.921
 7068SOL    HW221657   0.009   1.980   6.840
 7069SOL     OW21658   3.754   3.173   6.864
 7069SOL    HW121659   3.798   3.124   6.934
 7069SOL    HW221660   3.768   3.265   6.886
 7070SOL     OW21661   0.003   1.919   6.236
 7070SOL    HW121662   0.019   2.012   6.250
 7070SOL    HW221663   0.023   1.878   6.320
 7071SOL     OW21664   3.729   3.188   5.774
 7071SOL    HW121665   3.643   3.201   5.735
 7071SOL    HW221666   3.723   3.104   5.819
 7072SOL     OW21667   3.803   3.655   6.522
 7072SOL    HW121668   3.782   3.572   6.478
 7072SOL    HW221669   3.897   3.665   6.509
 7073SOL     OW21670   0.216   3.420   6.462
 7073SOL    HW121671   0.278   3.494   6.458
 7073SOL    HW221672   0.249   3.358   6.396
 7074SOL     OW21673   3.756   2.400   6.703
 7074SOL    HW121674   3.840   2.393   6.657
 7074SOL    HW221675   3.780   2.409   6.795
 7075SOL     OW21676   3.904   2.378   7.308
 7075SOL    HW121677   3.936   2.321   7.238
 7075SOL    HW221678   3.856   2.447   7.262
 7076SOL     OW21679   3.945   3.398   7.313
 7076SOL    HW121680   3.940   3.476   7.369
 7076SOL    HW221681   3.987   3.332   7.368
 7077SOL     OW21682   3.859   2.990   7.060
 7077SOL    HW121683   3.930   2.977   7.124
 7077SOL    HW221684   3.895   2.957   6.978
 7078SOL     OW21685   3.810   3.127   6.600
 7078SOL    HW121686   3.785   3.139   6.691
 7078SOL    HW221687   3.746   3.065   6.565
 7079SOL     OW21688   3.839   3.653   7.414
 7079SOL    HW121689   3.790   3.587   7.462
 7079SOL    HW221690   3.889   3.700   7.481
 7080SOL     OW21691   3.802   2.200   5.626
 7080SOL    HW121692   3.717   2.166   5.599
 7080SOL    HW221693   3.821   2.270   5.564
 7081SOL     OW21694   3.768   2.020   5.899
 7081SOL    HW121695   3.759   2.092   5.836
 7081SOL    HW221696   3.861   2.020   5.921
 7082SOL     OW21697   3.800   3.101   6.250
 7082SOL    HW121698   3.793   3.050   6.331
 7082SOL    HW221699   3.880   3.069   6.209
 7083SOL     OW21700   3.752   2.942   5.895
 7083SOL    HW121701   3.843   2.942   5.864
 7083SOL    HW221702   3.734   2.850   5.915
 7084SOL     OW21703   3.955   2.494   7.558
 7084SOL    HW121704   3.873   2.491   7.607
 7084SOL    HW221705   3.933   2.456   7.472
 7085SOL     OW21706   3.960   2.125   8.433
 7085SOL    HW121707   3.967   2.123   8.529
 7085SOL    HW221708   3.867   2.111   8.416
 7086SOL     OW21709   3.727   2.242   8.084
 7086SOL    HW121710   3.647   2.267   8.130
 7086SOL    HW221711   3.706   2.158   8.043
 7087SOL     OW21712   0.014   3.378   8.498
 7087SOL    HW121713   3.969   3.295   8.480
 7087SOL    HW221714   0.084   3.382   8.433
 7088SOL     OW21715   3.941   3.583   7.923
 7088SOL    HW121716   3.955   3.655   7.983
 7088SOL    HW221717   0.028   3.562   7.889
 7089SOL     OW21718   3.940   3.301   7.958
 7089SOL    HW121719   3.924   3.395   7.966
 7089SOL    HW221720   3.885   3.262   8.026
 7090SOL     OW21721   3.820   2.504   8.007
 7090SOL    HW121722   3.790   2.416   8.031
 7090SOL    HW221723   3.815   2.554   8.089
 7091SOL     OW21724   3.751   3.459   7.578
 7091SOL    HW121725   3.733   3.367   7.595
 7091SOL    HW221726   3.722   3.504   7.657
 7092SOL     OW21727   3.830   2.603   9.031
 7092SOL    HW121728   3.915   2.634   9.061
 7092SOL    HW221729   3.775   2.681   9.030
 7093SOL     OW21730   3.803   2.677   8.220
 7093SOL    HW121731   3.895   2.672   8.242
 7093SOL    HW221732   3.770   2.752   8.270
 7094SOL     OW21733   3.850   3.714   9.015
 7094SOL    HW121734   3.851   3.687   9.107
 7094SOL    HW221735   3.758   3.703   8.989
 7095SOL     OW21736   3.925   2.158   8.962
 7095SOL    HW121737   3.844   2.199   8.933
 7095SOL    HW221738   3.897   2.078   9.007
 7096SOL     OW21739   0.002   1.880   7.612
 7096SOL    HW121740   0.032   1.970   7.596
 7096SOL    HW221741   0.069   1.843   7.669
 7097SOL     OW21742   3.805   2.412   8.837
 7097SOL    HW121743   3.900   2.407   8.826
 7097SOL    HW221744   3.792   2.486   8.896
 7098SOL     OW21745   0.281   2.147   7.774
 7098SOL    HW121746   0.299   2.079   7.710
 7098SOL    HW221747   0.298   2.229   7.727
 7099SOL     OW21748   3.789   3.433   8.795
 7099SOL    HW121749   3.763   3.501   8.733
 7099SOL    HW221750   3.885   3.440   8.798
 7100SOL     OW21751   0.070   2.951   7.971
 7100SOL    HW121752   0.070   3.007   7.893
 7100SOL    HW221753   0.130   2.879   7.949
 7101SOL     OW21754   0.011   2.075   8.697
 7101SOL    HW121755   3.981   2.104   8.784
 7101SOL    HW221756   0.009   1.980   8.702
 7102SOL     OW21757   3.753   3.173   8.726
 7102SOL    HW121758   3.798   3.124   8.795
 7102SOL    HW221759   3.767   3.265   8.748
 7103SOL     OW21760   0.003   1.919   8.098
 7103SOL    HW121761   0.020   2.012   8.112
 7103SOL    HW221762   0.023   1.878   8.182
 7104SOL     OW21763   3.729   3.188   7.636
 7104SOL    HW121764   3.643   3.201   7.597
 7104SOL    HW221765   3.723   3.104   7.681
 7105SOL     OW21766   3.803   3.655   8.384
 7105SOL    HW121767   3.782   3.572   8.340
 7105SOL    HW221768   3.898   3.665   8.371
 7106SOL     OW21769   0.216   3.420   8.324
 7106SOL    HW121770   0.277   3.493   8.320
 7106SOL    HW221771   0.248   3.359   8.258
 7107SOL     OW21772   3.756   2.400   8.565
 7107SOL    HW121773   3.839   2.393   8.518
 7107SOL    HW221774   3.780   2.409   8.657
 7108SOL     OW21775   3.904   2.378   9.170
 7108SOL    HW121776   3.936   2.321   9.100
 7108SOL    HW221777   3.856   2.447   9.124
 7109SOL     OW21778   3.945   3.398   9.175
 7109SOL    HW121779   3.940   3.476   9.231
 7109SOL    HW221780   3.987   3.332   9.230
 7110SOL     OW21781   3.859   2.989   8.922
 7110SOL    HW121782   3.930   2.977   8.986
 7110SOL    HW221783   3.895   2.957   8.840
 7111SOL     OW21784   3.810   3.127   8.462
 7111SOL    HW121785   3.784   3.139   8.553
 7111SOL    HW221786   3.746   3.064   8.427
 7112SOL     OW21787   3.839   3.653   9.276
 7112SOL    HW121788   3.790   3.587   9.324
 7112SOL    HW221789   3.889   3.700   9.343
 7113SOL     OW21790   3.801   2.200   7.489
 7113SOL    HW121791   3.717   2.165   7.459
 7113SOL    HW221792   3.821   2.270   7.427
 7114SOL     OW21793   3.768   2.021   7.761
 7114SOL    HW121794   3.759   2.091   7.697
 7114SOL    HW221795   3.861   2.020   7.783
 7115SOL     OW21796   3.800   3.101   8.112
 7115SOL    HW121797   3.794   3.051   8.193
 7115SOL    HW221798   3.880   3.070   8.070
 7116SOL     OW21799   3.752   2.942   7.758
 7116SOL    HW121800   3.843   2.943   7.726
 7116SOL    HW221801   3.734   2.850   7.777
 7117SOL     OW21802   3.955   2.494   9.420
 7117SOL    HW121803   3.873   2.491   9.469
 7117SOL    HW221804   3.933   2.456   9.335
 7118SOL     OW21805   3.960   2.125  10.295
 7118SOL    HW121806   3.967   2.123  10.391
 7118SOL    HW221807   3.867   2.111  10.278
 7119SOL     OW21808   3.727   2.242   9.946
 7119SOL    HW121809   3.647   2.267   9.992
 7119SOL    HW221810   3.706   2.158   9.905
 7120SOL     OW21811   0.014   3.378  10.360
 7120SOL    HW121812   3.969   3.295  10.342
 7120SOL    HW221813   0.084   3.382  10.295
 7121SOL     OW21814   3.941   3.583   9.784
 7121SOL    HW121815   3.955   3.655   9.845
 7121SOL    HW221816   0.028   3.562   9.751
 7122SOL     OW21817   3.940   3.301   9.820
 7122SOL    HW121818   3.924   3.395   9.828
 7122SOL    HW221819   3.885   3.262   9.888
 7123SOL     OW21820   3.820   2.504   9.869
 7123SOL    HW121821   3.790   2.416   9.893
 7123SOL    HW221822   3.815   2.554   9.951
 7124SOL     OW21823   3.751   3.459   9.439
 7124SOL    HW121824   3.733   3.367   9.457
 7124SOL    HW221825   3.722   3.504   9.519
 7125SOL     OW21826   3.830   2.603  10.893
 7125SOL    HW121827   3.915   2.634  10.924
 7125SOL    HW221828   3.775   2.681  10.892
 7126SOL     OW21829   3.803   2.677  10.082
 7126SOL    HW121830   3.895   2.672  10.104
 7126SOL    HW221831   3.770   2.752  10.132
 7127SOL     OW21832   3.850   3.714  10.877
 7127SOL    HW121833   3.851   3.687  10.969
 7127SOL    HW221834   3.758   3.703  10.851
 7128SOL     OW21835   3.925   2.158  10.824
 7128SOL    HW121836   3.844   2.199  10.795
 7128SOL    HW221837   3.897   2.078  10.869
 7129SOL     OW21838   0.002   1.880   9.473
 7129SOL    HW121839   0.032   1.970   9.458
 7129SOL    HW221840   0.069   1.842   9.531
 7130SOL     OW21841   3.805   2.412  10.698
 7130SOL    HW121842   3.900   2.407  10.688
 7130SOL    HW221843   3.792   2.486  10.758
 7131SOL     OW21844   0.282   2.147   9.636
 7131SOL    HW121845   0.298   2.079   9.572
 7131SOL    HW221846   0.297   2.229   9.589
 7132SOL     OW21847   3.789   3.433  10.657
 7132SOL    HW121848   3.763   3.501  10.595
 7132SOL    HW221849   3.885   3.440  10.660
 7133SOL     OW21850   0.070   2.951   9.833
 7133SOL    HW121851   0.071   3.007   9.755
 7133SOL    HW221852   0.130   2.879   9.811
 7134SOL     OW21853   0.010   2.075  10.559
 7134SOL    HW121854   3.981   2.104  10.646
 7134SOL    HW221855   0.009   1.980  10.564
 7135SOL     OW21856   3.753   3.173  10.588
 7135SOL    HW121857   3.798   3.124  10.657
 7135SOL    HW221858   3.767   3.265  10.610
 7136SOL     OW21859   0.003   1.919   9.960
 7136SOL    HW121860   0.020   2.012   9.974
 7136SOL    HW221861   0.023   1.878  10.044
 7137SOL     OW21862   3.729   3.188   9.498
 7137SOL    HW121863   3.643   3.201   9.459
 7137SOL    HW221864   3.723   3.104   9.543
 7138SOL     OW21865   3.803   3.655  10.246
 7138SOL    HW121866   3.782   3.572  10.202
 7138SOL    HW221867   3.897   3.665  10.233
 7139SOL     OW21868   0.216   3.420  10.186
 7139SOL    HW121869   0.277   3.494  10.182
 7139SOL    HW221870   0.249   3.359  10.120
 7140SOL     OW21871   3.756   2.400  10.427
 7140SOL    HW121872   3.839   2.393  10.381
 7140SOL    HW221873   3.780   2.409  10.519
 7141SOL     OW21874   3.904   2.378  11.032
 7141SOL    HW121875   3.936   2.321  10.962
 7141SOL    HW221876   3.856   2.447  10.986
 7142SOL     OW21877   3.945   3.398  11.037
 7142SOL    HW121878   3.940   3.476  11.093
 7142SOL    HW221879   3.987   3.332  11.092
 7143SOL     OW21880   3.859   2.989  10.784
 7143SOL    HW121881   3.930   2.977  10.848
 7143SOL    HW221882   3.896   2.957  10.702
 7144SOL     OW21883   3.810   3.127  10.324
 7144SOL    HW121884   3.785   3.139  10.415
 7144SOL    HW221885   3.746   3.064  10.289
 7145SOL     OW21886   3.839   3.653  11.138
 7145SOL    HW121887   3.790   3.587  11.186
 7145SOL    HW221888   3.889   3.700  11.205
 7146SOL     OW21889   3.801   2.200   9.351
 7146SOL    HW121890   3.717   2.165   9.322
 7146SOL    HW221891   3.821   2.270   9.289
 7147SOL     OW21892   3.768   2.021   9.623
 7147SOL    HW121893   3.759   2.091   9.559
 7147SOL    HW221894   3.861   2.020   9.645
 7148SOL     OW21895   3.800   3.101   9.974
 7148SOL    HW121896   3.794   3.051  10.055
 7148SOL    HW221897   3.880   3.070   9.932
 7149SOL     OW21898   3.752   2.942   9.619
 7149SOL    HW121899   3.843   2.943   9.588
 7149SOL    HW221900   3.734   2.850   9.639
 7150SOL     OW21901   3.955   2.494  11.282
 7150SOL    HW121902   3.873   2.491  11.331
 7150SOL    HW221903   3.932   2.456  11.197
 7151SOL     OW21904   3.960   2.125  12.157
 7151SOL    HW121905   3.967   2.123  12.253
 7151SOL    HW221906   3.867   2.111  12.140
 7152SOL     OW21907   3.727   2.242  11.808
 7152SOL    HW121908   3.647   2.267  11.854
 7152SOL    HW221909   3.706   2.158  11.767
 7153SOL     OW21910   0.014   3.379  12.222
 7153SOL    HW121911   3.969   3.295  12.204
 7153SOL    HW221912   0.084   3.382  12.157
 7154SOL     OW21913   3.941   3.583  11.646
 7154SOL    HW121914   3.955   3.655  11.707
 7154SOL    HW221915   0.028   3.562  11.613
 7155SOL     OW21916   3.940   3.301  11.682
 7155SOL    HW121917   3.924   3.395  11.690
 7155SOL    HW221918   3.885   3.262  11.750
 7156SOL     OW21919   3.820   2.504  11.731
 7156SOL    HW121920   3.790   2.416  11.755
 7156SOL    HW221921   3.815   2.554  11.813
 7157SOL     OW21922   3.751   3.459  11.301
 7157SOL    HW121923   3.733   3.367  11.319
 7157SOL    HW221924   3.722   3.504  11.381
 7158SOL     OW21925   3.830   2.603  12.755
 7158SOL    HW121926   3.915   2.634  12.785
 7158SOL    HW221927   3.775   2.681  12.754
 7159SOL     OW21928   3.803   2.677  11.944
 7159SOL    HW121929   3.895   2.672  11.966
 7159SOL    HW221930   3.770   2.752  11.994
 7160SOL     OW21931   3.850   3.715  12.740
 7160SOL    HW121932   3.852   3.688  12.832
 7160SOL    HW221933   3.758   3.702  12.714
 7161SOL     OW21934   3.925   2.158  12.686
 7161SOL    HW121935   3.844   2.199  12.657
 7161SOL    HW221936   3.897   2.078  12.731
 7162SOL     OW21937   0.002   1.880  11.335
 7162SOL    HW121938   0.032   1.970  11.320
 7162SOL    HW221939   0.069   1.842  11.393
 7163SOL     OW21940   3.805   2.412  12.560
 7163SOL    HW121941   3.900   2.407  12.550
 7163SOL    HW221942   3.792   2.486  12.620
 7164SOL     OW21943   0.282   2.147  11.498
 7164SOL    HW121944   0.298   2.079  11.434
 7164SOL    HW221945   0.297   2.229  11.451
 7165SOL     OW21946   3.789   3.433  12.519
 7165SOL    HW121947   3.763   3.501  12.457
 7165SOL    HW221948   3.885   3.440  12.522
 7166SOL     OW21949   0.070   2.951  11.695
 7166SOL    HW121950   0.071   3.007  11.617
 7166SOL    HW221951   0.130   2.879  11.673
 7167SOL     OW21952   0.011   2.075  12.421
 7167SOL    HW121953   3.981   2.104  12.508
 7167SOL    HW221954   0.009   1.980  12.426
 7168SOL     OW21955   3.753   3.173  12.450
 7168SOL    HW121956   3.798   3.124  12.520
 7168SOL    HW221957   3.767   3.265  12.472
 7169SOL     OW21958   0.003   1.919  11.822
 7169SOL    HW121959   0.020   2.012  11.836
 7169SOL    HW221960   0.023   1.878  11.906
 7170SOL     OW21961   3.729   3.188  11.360
 7170SOL    HW121962   3.643   3.201  11.321
 7170SOL    HW221963   3.723   3.104  11.405
 7171SOL     OW21964   3.803   3.655  12.108
 7171SOL    HW121965   3.782   3.572  12.064
 7171SOL    HW221966   3.897   3.665  12.095
 7172SOL     OW21967   0.216   3.420  12.047
 7172SOL    HW121968   0.277   3.494  12.044
 7172SOL    HW221969   0.249   3.359  11.982
 7173SOL     OW21970   3.756   2.400  12.289
 7173SOL    HW121971   3.839   2.393  12.243
 7173SOL    HW221972   3.780   2.409  12.381
 7174SOL     OW21973   3.905   2.379  12.894
 7174SOL    HW121974   3.936   2.321  12.824
 7174SOL    HW221975   3.856   2.447  12.849
 7175SOL     OW21976   3.945   3.398  12.899
 7175SOL    HW121977   3.939   3.476  12.955
 7175SOL    HW221978   3.986   3.332  12.955
 7176SOL     OW21979   3.859   2.989  12.646
 7176SOL    HW121980   3.930   2.977  12.710
 7176SOL    HW221981   3.896   2.957  12.563
 7177SOL     OW21982   3.810   3.127  12.186
 7177SOL    HW121983   3.785   3.139  12.277
 7177SOL    HW221984   3.746   3.064  12.151
 7178SOL     OW21985   3.841   3.654  13.002
 7178SOL    HW121986   3.791   3.588  13.049
 7178SOL    HW221987   3.889   3.701  13.069
 7179SOL     OW21988   3.801   2.200  11.213
 7179SOL    HW121989   3.717   2.165  11.184
 7179SOL    HW221990   3.821   2.270  11.151
 7180SOL     OW21991   3.768   2.021  11.485
 7180SOL    HW121992   3.759   2.091  11.421
 7180SOL    HW221993   3.861   2.020  11.507
 7181SOL     OW21994   3.800   3.100  11.836
 7181SOL    HW121995   3.794   3.051  11.917
 7181SOL    HW221996   3.880   3.070  11.794
 7182SOL     OW21997   3.752   2.942  11.481
 7182SOL    HW121998   3.843   2.943  11.450
 7182SOL    HW221999   3.734   2.850  11.501
 7183SOL     OW22000   3.953   2.493  13.145
 7183SOL    HW122001   3.870   2.490  13.192
 7183SOL    HW222002   3.933   2.456  13.059
 7184SOL     OW22003   3.725   2.244  13.662
 7184SOL    HW122004   3.638   2.272  13.689
 7184SOL    HW222005   3.711   2.159  13.621
 7185SOL     OW22006   3.942   3.579  13.502
 7185SOL    HW122007   3.944   3.656  13.558
 7185SOL    HW222008   0.033   3.563  13.479
 7186SOL     OW22009   3.941   3.298  13.544
 7186SOL    HW122010   3.926   3.392  13.549
 7186SOL    HW222011   3.884   3.261  13.611
 7187SOL     OW22012   3.949   2.950  13.899
 7187SOL    HW122013   3.982   2.905   0.077
 7187SOL    HW222014   3.878   3.005   0.032
 7188SOL     OW22015   3.833   2.505  13.597
 7188SOL    HW122016   3.783   2.425  13.612
 7188SOL    HW222017   3.817   2.558  13.675
 7189SOL     OW22018   3.749   3.459  13.162
 7189SOL    HW122019   3.733   3.367  13.181
 7189SOL    HW222020   3.722   3.505  13.242
 7190SOL     OW22021   3.800   2.673  13.809
 7190SOL    HW122022   3.894   2.678  13.828
 7190SOL    HW222023   3.763   2.751  13.849
 7191SOL     OW22024   0.109   3.636  13.841
 7191SOL    HW122025   0.068   3.575   0.002
 7191SOL    HW222026   0.179   3.678  13.892
 7192SOL     OW22027   0.002   1.883  13.200
 7192SOL    HW122028   0.038   1.969  13.178
 7192SOL    HW222029   0.068   1.843  13.256
 7193SOL     OW22030   0.281   2.148  13.357
 7193SOL    HW122031   0.300   2.077  13.294
 7193SOL    HW222032   0.301   2.228  13.309
 7194SOL     OW22033   0.071   2.950  13.553
 7194SOL    HW122034   0.071   3.010  13.478
 7194SOL    HW222035   0.133   2.881  13.528
 7195SOL     OW22036   3.988   1.928  13.666
 7195SOL    HW122037   0.017   2.018  13.682
 7195SOL    HW222038   0.024   1.878  13.740
 7196SOL     OW22039   3.729   3.189  13.222
 7196SOL    HW122040   3.643   3.202  13.182
 7196SOL    HW222041   3.723   3.105  13.267
 7197SOL     OW22042   0.319   3.404   0.020
 7197SOL    HW122043   0.271   3.486   0.032
 7197SOL    HW222044   0.261   3.351  13.866
 7198SOL     OW22045   3.801   2.199  13.074
 7198SOL    HW122046   3.717   2.165  13.046
 7198SOL    HW222047   3.821   2.270  13.013
 7199SOL     OW22048   3.768   2.021  13.347
 7199SOL    HW122049   3.759   2.090  13.281
 7199SOL    HW222050   3.861   2.021  13.370
 7200SOL     OW22051   3.807   3.097  13.696
 7200SOL    HW122052   3.796   3.033  13.766
 7200SOL    HW222053   3.884   3.069  13.649
 7201SOL     OW22054   3.753   2.942  13.342
 7201SOL    HW122055   3.843   2.943  13.310
 7201SOL    HW222056   3.735   2.850  13.362
 7202SOL     OW22057   3.961   3.976   0.990
 7202SOL    HW122058   3.967   3.971   1.085
 7202SOL    HW222059   3.871   3.953   0.970
 7203SOL     OW22060   3.750   0.067   0.688
 7203SOL    HW122061   3.671   0.121   0.692
 7203SOL    HW222062   3.725   3.991   0.635
 7204SOL     OW22063   3.919   0.007   1.506
 7204SOL    HW122064   3.830   0.040   1.493
 7204SOL    HW222065   3.909   3.939   1.572
 7205SOL     OW22066   3.985   3.765   0.182
 7205SOL    HW122067   0.023   3.831   0.125
 7205SOL    HW222068   0.053   3.699   0.193
 7206SOL     OW22069   0.003   3.936   1.255
 7206SOL    HW122070   3.973   3.945   1.345
 7206SOL    HW222071   0.024   3.843   1.245
 7207SOL     OW22072   0.024   3.777   0.647
 7207SOL    HW122073   0.042   3.871   0.653
 7207SOL    HW222074   0.034   3.746   0.737
 7208SOL     OW22075   3.790   3.869   0.342
 7208SOL    HW122076   3.786   3.961   0.314
 7208SOL    HW222077   3.870   3.836   0.302
 7209SOL     OW22078   3.962   3.975   2.851
 7209SOL    HW122079   3.967   3.972   2.946
 7209SOL    HW222080   3.871   3.952   2.832
 7210SOL     OW22081   3.749   0.065   2.553
 7210SOL    HW122082   3.672   0.122   2.556
 7210SOL    HW222083   3.722   3.991   2.498
 7211SOL     OW22084   3.919   0.007   3.368
 7211SOL    HW122085   3.830   0.041   3.356
 7211SOL    HW222086   3.909   3.939   3.434
 7212SOL     OW22087   3.993   3.751   2.026
 7212SOL    HW122088   0.029   3.831   1.988
 7212SOL    HW222089   0.064   3.716   2.080
 7213SOL     OW22090   0.003   3.936   3.116
 7213SOL    HW122091   3.973   3.945   3.207
 7213SOL    HW222092   0.024   3.843   3.107
 7214SOL     OW22093   0.020   3.778   2.512
 7214SOL    HW122094   0.045   3.870   2.518
 7214SOL    HW222095   0.033   3.744   2.601
 7215SOL     OW22096   3.804   0.053   1.896
 7215SOL    HW122097   3.735   0.021   1.838
 7215SOL    HW222098   3.809   0.147   1.878
 7216SOL     OW22099   3.784   3.871   2.185
 7216SOL    HW122100   3.779   3.962   2.156
 7216SOL    HW222101   3.874   3.845   2.164
 7217SOL     OW22102   3.962   3.975   4.713
 7217SOL    HW122103   3.968   3.972   4.808
 7217SOL    HW222104   3.871   3.952   4.694
 7218SOL     OW22105   3.749   0.065   4.415
 7218SOL    HW122106   3.672   0.122   4.418
 7218SOL    HW222107   3.722   3.991   4.360
 7219SOL     OW22108   3.919   0.007   5.230
 7219SOL    HW122109   3.830   0.041   5.218
 7219SOL    HW222110   3.910   3.939   5.296
 7220SOL     OW22111   3.993   3.751   3.888
 7220SOL    HW122112   0.029   3.831   3.850
 7220SOL    HW222113   0.064   3.716   3.942
 7221SOL     OW22114   0.003   3.936   4.978
 7221SOL    HW122115   3.973   3.945   5.069
 7221SOL    HW222116   0.024   3.843   4.969
 7222SOL     OW22117   0.020   3.778   4.374
 7222SOL    HW122118   0.045   3.870   4.381
 7222SOL    HW222119   0.033   3.744   4.463
 7223SOL     OW22120   3.804   0.053   3.758
 7223SOL    HW122121   3.735   0.021   3.700
 7223SOL    HW222122   3.809   0.147   3.740
 7224SOL     OW22123   3.784   3.871   4.047
 7224SOL    HW122124   3.779   3.962   4.018
 7224SOL    HW222125   3.874   3.845   4.026
 7225SOL     OW22126   3.962   3.975   6.575
 7225SOL    HW122127   3.968   3.972   6.670
 7225SOL    HW222128   3.871   3.952   6.556
 7226SOL     OW22129   3.749   0.065   6.277
 7226SOL    HW122130   3.672   0.122   6.281
 7226SOL    HW222131   3.722   3.991   6.222
 7227SOL     OW22132   3.919   0.007   7.092
 7227SOL    HW122133   3.830   0.041   7.080
 7227SOL    HW222134   3.909   3.939   7.158
 7228SOL     OW22135   3.993   3.751   5.750
 7228SOL    HW122136   0.029   3.831   5.712
 7228SOL    HW222137   0.063   3.716   5.804
 7229SOL     OW22138   0.003   3.936   6.840
 7229SOL    HW122139   3.973   3.945   6.931
 7229SOL    HW222140   0.024   3.843   6.831
 7230SOL     OW22141   0.020   3.778   6.236
 7230SOL    HW122142   0.045   3.870   6.243
 7230SOL    HW222143   0.033   3.744   6.325
 7231SOL     OW22144   3.804   0.053   5.620
 7231SOL    HW122145   3.735   0.021   5.562
 7231SOL    HW222146   3.809   0.147   5.602
 7232SOL     OW22147   3.784   3.871   5.909
 7232SOL    HW122148   3.779   3.962   5.880
 7232SOL    HW222149   3.874   3.845   5.888
 7233SOL     OW22150   3.962   3.975   8.437
 7233SOL    HW122151   3.967   3.972   8.532
 7233SOL    HW222152   3.871   3.952   8.418
 7234SOL     OW22153   3.749   0.065   8.139
 7234SOL    HW122154   3.672   0.122   8.142
 7234SOL    HW222155   3.722   3.991   8.084
 7235SOL     OW22156   3.919   0.007   8.954
 7235SOL    HW122157   3.830   0.041   8.942
 7235SOL    HW222158   3.909   3.939   9.020
 7236SOL     OW22159   3.993   3.751   7.612
 7236SOL    HW122160   0.029   3.831   7.574
 7236SOL    HW222161   0.064   3.716   7.666
 7237SOL     OW22162   0.003   3.936   8.702
 7237SOL    HW122163   3.973   3.945   8.793
 7237SOL    HW222164   0.024   3.843   8.693
 7238SOL     OW22165   0.020   3.778   8.098
 7238SOL    HW122166   0.045   3.870   8.104
 7238SOL    HW222167   0.033   3.744   8.187
 7239SOL     OW22168   3.804   0.053   7.482
 7239SOL    HW122169   3.735   0.021   7.424
 7239SOL    HW222170   3.809   0.147   7.464
 7240SOL     OW22171   3.784   3.871   7.771
 7240SOL    HW122172   3.779   3.962   7.742
 7240SOL    HW222173   3.874   3.845   7.750
 7241SOL     OW22174   3.962   3.975  10.299
 7241SOL    HW122175   3.967   3.972  10.394
 7241SOL    HW222176   3.871   3.952  10.280
 7242SOL     OW22177   3.749   0.065  10.001
 7242SOL    HW122178   3.672   0.122  10.004
 7242SOL    HW222179   3.722   3.991   9.946
 7243SOL     OW22180   3.919   0.007  10.816
 7243SOL    HW122181   3.830   0.041  10.804
 7243SOL    HW222182   3.909   3.939  10.882
 7244SOL     OW22183   3.993   3.751   9.474
 7244SOL    HW122184   0.029   3.831   9.436
 7244SOL    HW222185   0.064   3.716   9.528
 7245SOL     OW22186   0.003   3.936  10.564
 7245SOL    HW122187   3.973   3.945  10.655
 7245SOL    HW222188   0.024   3.843  10.555
 7246SOL     OW22189   0.020   3.778   9.960
 7246SOL    HW122190   0.045   3.870   9.966
 7246SOL    HW222191   0.033   3.744  10.049
 7247SOL     OW22192   3.804   0.053   9.344
 7247SOL    HW122193   3.735   0.021   9.286
 7247SOL    HW222194   3.809   0.147   9.326
 7248SOL     OW22195   3.784   3.871   9.633
 7248SOL    HW122196   3.779   3.962   9.604
 7248SOL    HW222197   3.874   3.845   9.612
 7249SOL     OW22198   3.962   3.975  12.161
 7249SOL    HW122199   3.967   3.972  12.256
 7249SOL    HW222200   3.871   3.952  12.142
 7250SOL     OW22201   3.749   0.065  11.863
 7250SOL    HW122202   3.672   0.122  11.866
 7250SOL    HW222203   3.722   3.991  11.808
 7251SOL     OW22204   3.918   0.007  12.678
 7251SOL    HW122205   3.829   0.040  12.665
 7251SOL    HW222206   3.909   3.938  12.744
 7252SOL     OW22207   3.993   3.751  11.336
 7252SOL    HW122208   0.029   3.831  11.298
 7252SOL    HW222209   0.064   3.716  11.390
 7253SOL     OW22210   0.003   3.936  12.426
 7253SOL    HW122211   3.973   3.945  12.517
 7253SOL    HW222212   0.023   3.843  12.417
 7254SOL     OW22213   0.020   3.778  11.822
 7254SOL    HW122214   0.045   3.870  11.828
 7254SOL    HW222215   0.033   3.744  11.911
 7255SOL     OW22216   3.804   0.053  11.206
 7255SOL    HW122217   3.735   0.021  11.148
 7255SOL    HW222218   3.809   0.147  11.188
 7256SOL     OW22219   3.784   3.871  11.495
 7256SOL    HW122220   3.779   3.962  11.466
 7256SOL    HW222221   3.874   3.845  11.474
 7257SOL     OW22222   3.743   0.084  13.686
 7257SOL    HW122223   3.671   0.110  13.744
 7257SOL    HW222224   3.722   3.995  13.660
 7258SOL     OW22225   3.993   3.755  13.201
 7258SOL    HW122226   0.034   3.830  13.158
 7258SOL    HW222227   0.063   3.717  13.254
 7259SOL     OW22228   3.987   3.794  13.664
 7259SOL    HW122229   0.029   3.879  13.681
 7259SOL    HW222230   0.028   3.735  13.727
 7260SOL     OW22231   3.805   0.053  13.068
 7260SOL    HW122232   3.735   0.021  13.011
 7260SOL    HW222233   3.809   0.147  13.049
 7261SOL     OW22234   3.781   3.871  13.355
 7261SOL    HW122235   3.778   3.964  13.330
 7261SOL    HW222236   3.871   3.844  13.333
   4.00000   4.00000  13.90000
