Built with Packmol
21951
    1LIG      O    1   2.227   2.220   0.053
    1LIG      C    2   2.292   2.270   0.173
    1LIG     C1    3   2.221   2.217   0.301
    1LIG     O1    4   2.285   2.267   0.423
    1LIG     C2    5   2.220   2.218   0.544
    1LIG     C3    6   2.291   2.273   0.670
    1LIG     O2    7   2.227   2.225   0.791
    1LIG     C4    8   2.290   2.275   0.912
    1LIG     C5    9   2.218   2.221   1.038
    1LIG     O3   10   2.281   2.270   1.160
    1LIG     C6   11   2.216   2.221   1.280
    1LIG     C7   12   2.288   2.277   1.406
    1LIG     O4   13   2.224   2.229   1.528
    1LIG     C8   14   2.288   2.279   1.649
    1LIG     C9   15   2.215   2.223   1.774
    1LIG     O5   16   2.279   2.273   1.895
    1LIG    C10   17   2.215   2.224   2.016
    1LIG    C11   18   2.287   2.280   2.142
    1LIG     O6   19   2.223   2.231   2.263
    1LIG    C12   20   2.286   2.280   2.384
    1LIG    C13   21   2.213   2.225   2.509
    1LIG     O7   22   2.277   2.274   2.631
    1LIG    C14   23   2.213   2.225   2.752
    1LIG    C15   24   2.285   2.280   2.878
    1LIG     O8   25   2.221   2.232   3.000
    1LIG    C16   26   2.285   2.281   3.121
    1LIG    C17   27   2.214   2.226   3.247
    1LIG     O9   28   2.277   2.275   3.369
    1LIG    C18   29   2.212   2.226   3.489
    1LIG    C19   30   2.284   2.281   3.614
    1LIG    O10   31   2.221   2.232   3.736
    1LIG    C20   32   2.285   2.282   3.857
    1LIG    C21   33   2.212   2.226   3.982
    1LIG    O11   34   2.276   2.275   4.103
    1LIG    C22   35   2.212   2.226   4.224
    1LIG    C23   36   2.284   2.282   4.350
    1LIG    O12   37   2.220   2.233   4.471
    1LIG    C24   38   2.284   2.282   4.593
    1LIG    C25   39   2.212   2.227   4.719
    1LIG    O13   40   2.275   2.276   4.841
    1LIG    C26   41   2.211   2.227   4.961
    1LIG    C27   42   2.283   2.282   5.086
    1LIG    O14   43   2.219   2.233   5.208
    1LIG    C28   44   2.284   2.282   5.329
    1LIG    C29   45   2.212   2.226   5.455
    1LIG    O15   46   2.276   2.276   5.577
    1LIG    C30   47   2.212   2.226   5.697
    1LIG    C31   48   2.284   2.281   5.822
    1LIG    O16   49   2.220   2.232   5.943
    1LIG    C32   50   2.284   2.281   6.065
    1LIG    C33   51   2.212   2.226   6.191
    1LIG    O17   52   2.276   2.275   6.312
    1LIG    C34   53   2.212   2.225   6.433
    1LIG    C35   54   2.284   2.280   6.559
    1LIG    O18   55   2.220   2.231   6.680
    1LIG    C36   56   2.284   2.281   6.801
    1LIG    C37   57   2.213   2.225   6.927
    1LIG    O19   58   2.277   2.274   7.049
    1LIG    C38   59   2.213   2.224   7.169
    1LIG    C39   60   2.284   2.279   7.295
    1LIG    O20   61   2.221   2.230   7.417
    1LIG    C40   62   2.285   2.279   7.538
    1LIG    C41   63   2.214   2.224   7.664
    1LIG    O21   64   2.277   2.273   7.786
    1LIG    C42   65   2.213   2.223   7.906
    1LIG    C43   66   2.285   2.278   8.031
    1LIG    O22   67   2.222   2.229   8.153
    1LIG    C44   68   2.286   2.278   8.274
    1LIG    C45   69   2.214   2.222   8.399
    1LIG    O23   70   2.278   2.271   8.521
    1LIG    C46   71   2.214   2.222   8.642
    1LIG    C47   72   2.287   2.278   8.767
    1LIG    O24   73   2.223   2.228   8.888
    1LIG    C48   74   2.286   2.277   9.010
    1LIG    C49   75   2.214   2.221   9.135
    1LIG    O25   76   2.278   2.270   9.256
    1LIG    C50   77   2.215   2.221   9.378
    1LIG    C51   78   2.287   2.277   9.503
    1LIG    O26   79   2.224   2.227   9.624
    1LIG    C52   80   2.287   2.276   9.746
    1LIG    C53   81   2.215   2.220   9.871
    1LIG    O27   82   2.279   2.269   9.991
    1LIG    C54   83   2.216   2.219  10.113
    1LIG    C55   84   2.288   2.275  10.240
    1LIG    O28   85   2.224   2.225  10.361
    1LIG    C56   86   2.288   2.274  10.482
    1LIG    C57   87   2.217   2.218  10.609
    1LIG    O29   88   2.281   2.267  10.731
    1LIG    C58   89   2.217   2.217  10.852
    1LIG    C59   90   2.288   2.272  10.978
    1LIG      H   91   2.289   2.380   0.171
    1LIG     H1   92   2.397   2.239   0.172
    1LIG     H2   93   2.224   2.108   0.301
    1LIG     H3   94   2.116   2.248   0.300
    1LIG     H4   95   2.223   2.108   0.546
    1LIG     H5   96   2.115   2.249   0.545
    1LIG     H6   97   2.289   2.383   0.668
    1LIG     H7   98   2.397   2.242   0.669
    1LIG     H8   99   2.288   2.384   0.913
    1LIG     H9  100   2.395   2.244   0.914
    1LIG    H10  101   2.221   2.111   1.037
    1LIG    H11  102   2.113   2.251   1.036
    1LIG    H12  103   2.219   2.112   1.282
    1LIG    H13  104   2.111   2.252   1.281
    1LIG    H14  105   2.285   2.387   1.404
    1LIG    H15  106   2.393   2.247   1.405
    1LIG    H16  107   2.285   2.388   1.650
    1LIG    H17  108   2.393   2.248   1.651
    1LIG    H18  109   2.218   2.114   1.772
    1LIG    H19  110   2.110   2.255   1.772
    1LIG    H20  111   2.217   2.115   2.018
    1LIG    H21  112   2.109   2.255   2.018
    1LIG    H22  113   2.284   2.389   2.140
    1LIG    H23  114   2.392   2.249   2.140
    1LIG    H24  115   2.283   2.390   2.386
    1LIG    H25  116   2.391   2.249   2.386
    1LIG    H26  117   2.216   2.115   2.508
    1LIG    H27  118   2.108   2.256   2.508
    1LIG    H28  119   2.216   2.115   2.754
    1LIG    H29  120   2.108   2.256   2.753
    1LIG    H30  121   2.282   2.390   2.877
    1LIG    H31  122   2.390   2.249   2.877
    1LIG    H32  123   2.282   2.391   3.122
    1LIG    H33  124   2.390   2.250   3.122
    1LIG    H34  125   2.216   2.117   3.245
    1LIG    H35  126   2.108   2.257   3.245
    1LIG    H36  127   2.215   2.116   3.490
    1LIG    H37  128   2.107   2.257   3.490
    1LIG    H38  129   2.281   2.391   3.613
    1LIG    H39  130   2.389   2.250   3.613
    1LIG    H40  131   2.282   2.391   3.858
    1LIG    H41  132   2.390   2.251   3.858
    1LIG    H42  133   2.215   2.117   3.981
    1LIG    H43  134   2.107   2.257   3.980
    1LIG    H44  135   2.215   2.117   4.226
    1LIG    H45  136   2.107   2.257   4.226
    1LIG    H46  137   2.281   2.392   4.348
    1LIG    H47  138   2.390   2.251   4.349
    1LIG    H48  139   2.281   2.392   4.594
    1LIG    H49  140   2.389   2.251   4.594
    1LIG    H50  141   2.215   2.117   4.718
    1LIG    H51  142   2.107   2.258   4.717
    1LIG    H52  143   2.214   2.117   4.963
    1LIG    H53  144   2.106   2.258   4.963
    1LIG    H54  145   2.280   2.392   5.085
    1LIG    H55  146   2.388   2.251   5.085
    1LIG    H56  147   2.281   2.391   5.331
    1LIG    H57  148   2.389   2.251   5.330
    1LIG    H58  149   2.215   2.117   5.453
    1LIG    H59  150   2.107   2.257   5.454
    1LIG    H60  151   2.215   2.116   5.699
    1LIG    H61  152   2.107   2.257   5.699
    1LIG    H62  153   2.281   2.391   5.821
    1LIG    H63  154   2.389   2.251   5.821
    1LIG    H64  155   2.281   2.391   6.066
    1LIG    H65  156   2.389   2.250   6.066
    1LIG    H66  157   2.215   2.116   6.189
    1LIG    H67  158   2.107   2.257   6.189
    1LIG    H68  159   2.215   2.116   6.434
    1LIG    H69  160   2.107   2.256   6.434
    1LIG    H70  161   2.281   2.390   6.558
    1LIG    H71  162   2.389   2.250   6.557
    1LIG    H72  163   2.281   2.390   6.802
    1LIG    H73  164   2.390   2.250   6.802
    1LIG    H74  165   2.216   2.116   6.926
    1LIG    H75  166   2.108   2.256   6.926
    1LIG    H76  167   2.216   2.115   7.170
    1LIG    H77  168   2.108   2.255   7.171
    1LIG    H78  169   2.281   2.389   7.294
    1LIG    H79  170   2.390   2.248   7.294
    1LIG    H80  171   2.282   2.389   7.539
    1LIG    H81  172   2.390   2.249   7.539
    1LIG    H82  173   2.217   2.114   7.662
    1LIG    H83  174   2.108   2.254   7.663
    1LIG    H84  175   2.217   2.113   7.907
    1LIG    H85  176   2.108   2.254   7.907
    1LIG    H86  177   2.282   2.388   8.030
    1LIG    H87  178   2.391   2.248   8.029
    1LIG    H88  179   2.283   2.388   8.276
    1LIG    H89  180   2.391   2.248   8.275
    1LIG    H90  181   2.217   2.113   8.398
    1LIG    H91  182   2.109   2.253   8.398
    1LIG    H92  183   2.218   2.112   8.644
    1LIG    H93  184   2.109   2.252   8.644
    1LIG    H94  185   2.283   2.387   8.766
    1LIG    H95  186   2.392   2.247   8.766
    1LIG    H96  187   2.283   2.386   9.012
    1LIG    H97  188   2.391   2.246   9.011
    1LIG    H98  189   2.218   2.111   9.133
    1LIG    H99  190   2.109   2.251   9.134
    1LIG   H100  191   2.218   2.111   9.379
    1LIG   H101  192   2.110   2.251   9.380
    1LIG   H102  193   2.284   2.386   9.502
    1LIG   H103  194   2.392   2.246   9.501
    1LIG   H104  195   2.284   2.385   9.747
    1LIG   H105  196   2.392   2.245   9.747
    1LIG   H106  197   2.219   2.110   9.869
    1LIG   H107  198   2.110   2.250   9.870
    1LIG   H108  199   2.220   2.110  10.114
    1LIG   H109  200   2.111   2.250  10.115
    1LIG   H110  201   2.284   2.384  10.239
    1LIG   H111  202   2.393   2.244  10.238
    1LIG   H112  203   2.285   2.384  10.484
    1LIG   H113  204   2.394   2.244  10.483
    1LIG   H114  205   2.221   2.109  10.607
    1LIG   H115  206   2.112   2.249  10.608
    1LIG   H116  207   2.221   2.108  10.852
    1LIG   H117  208   2.112   2.249  10.853
    1LIG   H118  209   2.393   2.242  10.978
    1LIG   H119  210   2.241   2.235  11.073
    1MOL     C1  211   2.803   2.247   5.038
    1MOL     H1  212   2.892   2.307   5.059
    1MOL     O1  213   2.777   2.174   5.156
    1MOL     C2  214   2.656   2.095   5.150
    1MOL     H2  215   2.571   2.159   5.125
    1MOL     C3  216   2.632   2.039   5.291
    1MOL     H3  217   2.728   2.036   5.344
    1MOL     H4  218   2.592   1.937   5.286
    1MOL     O2  219   2.543   2.121   5.366
    1MOL     H5  220   2.456   2.077   5.365
    1MOL     C4  221   2.825   2.151   4.920
    1MOL     H6  222   2.914   2.091   4.941
    1MOL     O3  223   2.850   2.219   4.798
    1MOL     H7  224   2.796   2.301   4.797
    1MOL     C5  225   2.704   2.059   4.907
    1MOL     H8  226   2.617   2.120   4.878
    1MOL     O4  227   2.726   1.958   4.808
    1MOL     H9  228   2.761   2.004   4.730
    1MOL     C6  229   2.670   1.990   5.038
    1MOL    H10  230   2.747   1.916   5.063
    1MOL     O5  231   2.544   1.925   5.016
    1MOL     C7  232   2.524   1.792   5.056
    1MOL    H11  233   2.619   1.743   5.081
    1MOL     O6  234   2.445   1.783   5.173
    1MOL     C8  235   2.316   1.848   5.162
    1MOL    H12  236   2.330   1.953   5.134
    1MOL     C9  237   2.253   1.843   5.299
    1MOL    H13  238   2.269   1.744   5.343
    1MOL    H14  239   2.145   1.862   5.291
    1MOL     O7  240   2.315   1.944   5.380
    1MOL    H15  241   2.292   1.929   5.473
    1MOL    C10  242   2.454   1.721   4.939
    1MOL    H16  243   2.443   1.615   4.965
    1MOL     O8  244   2.527   1.727   4.819
    1MOL    H17  245   2.573   1.813   4.813
    1MOL    C11  246   2.314   1.781   4.921
    1MOL    H18  247   2.325   1.885   4.890
    1MOL     O9  248   2.241   1.708   4.822
    1MOL    H19  249   2.302   1.698   4.747
    1MOL    C12  250   2.233   1.780   5.051
    1MOL    H20  251   2.210   1.676   5.079
    1MOL    O10  252   2.114   1.853   5.027
    1MOL    C13  253   1.986   1.793   5.046
    1MOL    H21  254   1.998   1.686   5.067
    1MOL    O11  255   1.920   1.847   5.158
    1MOL    C14  256   1.894   1.988   5.153
    1MOL    H22  257   1.990   2.043   5.154
    1MOL    C15  258   1.817   2.025   5.279
    1MOL    H23  259   1.813   2.135   5.285
    1MOL    H24  260   1.873   1.987   5.366
    1MOL    O12  261   1.687   1.969   5.272
    1MOL    H25  262   1.633   2.011   5.340
    1MOL    C16  263   1.904   1.817   4.919
    1MOL    H26  264   1.806   1.770   4.934
    1MOL    O13  265   1.959   1.759   4.803
    1MOL    H27  266   2.057   1.762   4.807
    1MOL    C17  267   1.884   1.967   4.901
    1MOL    H28  268   1.982   2.014   4.887
    1MOL    O14  269   1.801   1.994   4.788
    1MOL    H29  270   1.834   1.937   4.717
    1MOL    C18  271   1.818   2.028   5.024
    1MOL    H30  272   1.714   1.994   5.031
    1MOL    O15  273   1.824   2.170   5.009
    1MOL    C19  274   1.708   2.249   5.024
    1MOL    H31  275   1.619   2.186   5.038
    1MOL    O16  276   1.716   2.330   5.140
    1MOL    C20  277   1.831   2.417   5.144
    1MOL    H32  278   1.922   2.356   5.146
    1MOL    C21  279   1.824   2.496   5.274
    1MOL    H33  280   1.921   2.545   5.289
    1MOL    H34  281   1.807   2.425   5.356
    1MOL    O17  282   1.718   2.591   5.266
    1MOL    H35  283   1.726   2.650   5.342
    1MOL    C22  284   1.696   2.337   4.899
    1MOL    H36  285   1.607   2.400   4.909
    1MOL    O18  286   1.681   2.263   4.779
    1MOL    H37  287   1.738   2.184   4.782
    1MOL    C23  288   1.819   2.428   4.891
    1MOL    H38  289   1.908   2.365   4.877
    1MOL    O19  290   1.808   2.520   4.783
    1MOL    H39  291   1.779   2.468   4.707
    1MOL    C24  292   1.838   2.508   5.020
    1MOL    H40  293   1.761   2.585   5.026
    1MOL    O20  294   1.968   2.567   5.010
    1MOL    C25  295   1.990   2.700   5.051
    1MOL    H41  296   1.895   2.748   5.078
    1MOL    O21  297   2.071   2.706   5.166
    1MOL    C26  298   2.200   2.641   5.151
    1MOL    H42  299   2.182   2.537   5.122
    1MOL    C27  300   2.271   2.643   5.287
    1MOL    H43  301   2.328   2.551   5.300
    1MOL    H44  302   2.193   2.644   5.364
    1MOL    O22  303   2.354   2.757   5.308
    1MOL    H45  304   2.445   2.726   5.290
    1MOL    C28  305   2.057   2.772   4.933
    1MOL    H46  306   2.069   2.878   4.958
    1MOL    O23  307   1.980   2.768   4.814
    1MOL    H47  308   1.942   2.678   4.804
    1MOL    C29  309   2.196   2.711   4.910
    1MOL    H48  310   2.184   2.607   4.877
    1MOL    O24  311   2.268   2.785   4.811
    1MOL    H49  312   2.205   2.798   4.737
    1MOL    C30  313   2.277   2.712   5.038
    1MOL    H50  314   2.299   2.815   5.069
    1MOL    O25  315   2.399   2.643   5.009
    1MOL    C31  316   2.522   2.702   5.043
    1MOL    H51  317   2.509   2.808   5.068
    1MOL    O26  318   2.579   2.642   5.159
    1MOL    C32  319   2.600   2.499   5.149
    1MOL    H52  320   2.504   2.450   5.128
    1MOL    C33  321   2.650   2.451   5.286
    1MOL    H53  322   2.705   2.534   5.332
    1MOL    H54  323   2.720   2.368   5.272
    1MOL    O27  324   2.543   2.414   5.371
    1MOL    H55  325   2.538   2.316   5.371
    1MOL    C34  326   2.616   2.684   4.923
    1MOL    H56  327   2.711   2.735   4.946
    1MOL    O28  328   2.566   2.743   4.805
    1MOL    H57  329   2.468   2.735   4.804
    1MOL    C35  330   2.644   2.535   4.903
    1MOL    H58  331   2.549   2.487   4.876
    1MOL    O29  332   2.740   2.514   4.800
    1MOL    H59  333   2.712   2.571   4.726
    1MOL    C36  334   2.694   2.469   5.031
    1MOL    H60  335   2.797   2.504   5.052
    1MOL    O30  336   2.695   2.329   5.002
    1MOL     C1  337   1.697   2.247   6.062
    1MOL     H1  338   1.608   2.307   6.041
    1MOL     O1  339   1.723   2.174   5.944
    1MOL     C2  340   1.844   2.095   5.950
    1MOL     H2  341   1.929   2.159   5.975
    1MOL     C3  342   1.868   2.039   5.809
    1MOL     H3  343   1.772   2.036   5.756
    1MOL     H4  344   1.908   1.937   5.814
    1MOL     O2  345   1.957   2.121   5.734
    1MOL     H5  346   2.045   2.077   5.735
    1MOL     C4  347   1.675   2.151   6.180
    1MOL     H6  348   1.586   2.091   6.159
    1MOL     O3  349   1.650   2.219   6.302
    1MOL     H7  350   1.704   2.301   6.303
    1MOL     C5  351   1.796   2.059   6.193
    1MOL     H8  352   1.883   2.120   6.222
    1MOL     O4  353   1.774   1.958   6.292
    1MOL     H9  354   1.739   2.004   6.370
    1MOL     C6  355   1.830   1.990   6.062
    1MOL    H10  356   1.753   1.916   6.037
    1MOL     O5  357   1.956   1.925   6.084
    1MOL     C7  358   1.976   1.792   6.044
    1MOL    H11  359   1.881   1.743   6.019
    1MOL     O6  360   2.055   1.783   5.927
    1MOL     C8  361   2.184   1.848   5.938
    1MOL    H12  362   2.170   1.953   5.966
    1MOL     C9  363   2.247   1.843   5.801
    1MOL    H13  364   2.231   1.744   5.757
    1MOL    H14  365   2.355   1.862   5.809
    1MOL     O7  366   2.185   1.944   5.720
    1MOL    H15  367   2.208   1.929   5.628
    1MOL    C10  368   2.047   1.721   6.161
    1MOL    H16  369   2.057   1.615   6.135
    1MOL     O8  370   1.973   1.727   6.282
    1MOL    H17  371   1.927   1.813   6.287
    1MOL    C11  372   2.186   1.781   6.179
    1MOL    H18  373   2.175   1.885   6.210
    1MOL     O9  374   2.259   1.708   6.278
    1MOL    H19  375   2.198   1.698   6.353
    1MOL    C12  376   2.267   1.780   6.049
    1MOL    H20  377   2.291   1.676   6.021
    1MOL    O10  378   2.387   1.853   6.073
    1MOL    C13  379   2.514   1.793   6.054
    1MOL    H21  380   2.502   1.686   6.034
    1MOL    O11  381   2.580   1.847   5.942
    1MOL    C14  382   2.606   1.988   5.947
    1MOL    H22  383   2.510   2.043   5.946
    1MOL    C15  384   2.683   2.025   5.821
    1MOL    H23  385   2.687   2.135   5.815
    1MOL    H24  386   2.627   1.987   5.734
    1MOL    O12  387   2.813   1.969   5.828
    1MOL    H25  388   2.867   2.011   5.760
    1MOL    C16  389   2.596   1.817   6.181
    1MOL    H26  390   2.694   1.770   6.166
    1MOL    O13  391   2.541   1.759   6.298
    1MOL    H27  392   2.443   1.762   6.293
    1MOL    C17  393   2.616   1.967   6.199
    1MOL    H28  394   2.518   2.014   6.213
    1MOL    O14  395   2.699   1.994   6.312
    1MOL    H29  396   2.666   1.937   6.383
    1MOL    C18  397   2.682   2.028   6.076
    1MOL    H30  398   2.786   1.994   6.069
    1MOL    O15  399   2.676   2.170   6.092
    1MOL    C19  400   2.792   2.249   6.076
    1MOL    H31  401   2.881   2.186   6.062
    1MOL    O16  402   2.784   2.330   5.960
    1MOL    C20  403   2.669   2.417   5.956
    1MOL    H32  404   2.578   2.356   5.954
    1MOL    C21  405   2.676   2.496   5.826
    1MOL    H33  406   2.579   2.545   5.811
    1MOL    H34  407   2.693   2.425   5.744
    1MOL    O17  408   2.782   2.591   5.835
    1MOL    H35  409   2.774   2.650   5.758
    1MOL    C22  410   2.804   2.337   6.201
    1MOL    H36  411   2.893   2.400   6.191
    1MOL    O18  412   2.819   2.263   6.321
    1MOL    H37  413   2.762   2.184   6.318
    1MOL    C23  414   2.681   2.428   6.209
    1MOL    H38  415   2.592   2.365   6.223
    1MOL    O19  416   2.692   2.520   6.317
    1MOL    H39  417   2.721   2.468   6.393
    1MOL    C24  418   2.662   2.508   6.081
    1MOL    H40  419   2.739   2.585   6.074
    1MOL    O20  420   2.532   2.567   6.090
    1MOL    C25  421   2.511   2.700   6.049
    1MOL    H41  422   2.605   2.748   6.022
    1MOL    O21  423   2.429   2.706   5.934
    1MOL    C26  424   2.300   2.641   5.949
    1MOL    H42  425   2.318   2.537   5.978
    1MOL    C27  426   2.229   2.643   5.813
    1MOL    H43  427   2.172   2.551   5.800
    1MOL    H44  428   2.308   2.644   5.736
    1MOL    O22  429   2.146   2.757   5.792
    1MOL    H45  430   2.055   2.726   5.810
    1MOL    C28  431   2.443   2.772   6.168
    1MOL    H46  432   2.431   2.878   6.142
    1MOL    O23  433   2.520   2.768   6.286
    1MOL    H47  434   2.558   2.678   6.296
    1MOL    C29  435   2.304   2.711   6.190
    1MOL    H48  436   2.317   2.607   6.223
    1MOL    O24  437   2.232   2.785   6.290
    1MOL    H49  438   2.295   2.798   6.363
    1MOL    C30  439   2.223   2.712   6.062
    1MOL    H50  440   2.201   2.815   6.031
    1MOL    O25  441   2.101   2.643   6.091
    1MOL    C31  442   1.978   2.702   6.057
    1MOL    H51  443   1.991   2.808   6.032
    1MOL    O26  444   1.921   2.642   5.941
    1MOL    C32  445   1.900   2.499   5.951
    1MOL    H52  446   1.996   2.450   5.972
    1MOL    C33  447   1.850   2.451   5.814
    1MOL    H53  448   1.796   2.534   5.768
    1MOL    H54  449   1.781   2.368   5.828
    1MOL    O27  450   1.957   2.414   5.729
    1MOL    H55  451   1.962   2.316   5.730
    1MOL    C34  452   1.884   2.684   6.177
    1MOL    H56  453   1.789   2.735   6.154
    1MOL    O28  454   1.934   2.743   6.295
    1MOL    H57  455   2.032   2.735   6.296
    1MOL    C35  456   1.857   2.535   6.197
    1MOL    H58  457   1.952   2.487   6.224
    1MOL    O29  458   1.761   2.514   6.300
    1MOL    H59  459   1.788   2.571   6.374
    1MOL    C36  460   1.806   2.469   6.070
    1MOL    H60  461   1.703   2.504   6.048
    1MOL    O30  462   1.806   2.329   6.098
    2SOL     OW  463   0.230   0.628   0.113
    2SOL    HW1  464   0.137   0.626   0.150
    2SOL    HW2  465   0.231   0.589   0.021
    3SOL     OW  466   0.225   0.275   0.996
    3SOL    HW1  467   0.260   0.258   1.088
    3SOL    HW2  468   0.137   0.230   0.984
    4SOL     OW  469   0.019   0.368   0.647
    4SOL    HW1  470  -0.063   0.411   0.686
    4SOL    HW2  471  -0.009   0.295   0.584
    5SOL     OW  472   0.569   1.275   1.165
    5SOL    HW1  473   0.476   1.268   1.128
    5SOL    HW2  474   0.580   1.364   1.209
    6SOL     OW  475   1.555   1.511   0.703
    6SOL    HW1  476   1.498   1.495   0.784
    6SOL    HW2  477   1.496   1.521   0.623
    7SOL     OW  478   1.135   0.703   0.717
    7SOL    HW1  479   1.192   0.781   0.692
    7SOL    HW2  480   1.075   0.729   0.793
    8SOL     OW  481   1.755   0.607   0.231
    8SOL    HW1  482   1.743   0.594   0.132
    8SOL    HW2  483   1.725   0.526   0.280
    9SOL     OW  484   0.768   1.144   1.023
    9SOL    HW1  485   0.690   1.161   1.083
    9SOL    HW2  486   0.802   1.231   0.987
   10SOL     OW  487   0.850   0.798   1.823
   10SOL    HW1  488   0.846   0.874   1.888
   10SOL    HW2  489   0.872   0.834   1.732
   11SOL     OW  490   0.685   1.012   0.665
   11SOL    HW1  491   0.754   0.996   0.735
   11SOL    HW2  492   0.612   1.069   0.703
   12SOL     OW  493   0.686   1.161   1.803
   12SOL    HW1  494   0.746   1.240   1.817
   12SOL    HW2  495   0.600   1.192   1.762
   13SOL     OW  496   0.335   1.435   1.061
   13SOL    HW1  497   0.257   1.404   1.008
   13SOL    HW2  498   0.393   1.493   1.004
   14SOL     OW  499   1.460   1.505   1.339
   14SOL    HW1  500   1.484   1.599   1.365
   14SOL    HW2  501   1.444   1.451   1.421
   15SOL     OW  502   0.438   0.392   1.499
   15SOL    HW1  503   0.520   0.336   1.508
   15SOL    HW2  504   0.357   0.334   1.503
   16SOL     OW  505   1.603   0.447   0.737
   16SOL    HW1  506   1.529   0.493   0.687
   16SOL    HW2  507   1.654   0.515   0.790
   17SOL     OW  508   0.231   1.713   0.483
   17SOL    HW1  509   0.265   1.790   0.537
   17SOL    HW2  510   0.275   1.713   0.393
   18SOL     OW  511   1.127   1.341   1.690
   18SOL    HW1  512   1.174   1.341   1.778
   18SOL    HW2  513   1.079   1.254   1.679
   19SOL     OW  514   0.230   1.434   0.538
   19SOL    HW1  515   0.204   1.530   0.538
   19SOL    HW2  516   0.159   1.380   0.583
   20SOL     OW  517   0.240   1.091   0.886
   20SOL    HW1  518   0.254   1.007   0.938
   20SOL    HW2  519   0.185   1.155   0.941
   21SOL     OW  520   0.620   1.786   1.439
   21SOL    HW1  521   0.528   1.769   1.474
   21SOL    HW2  522   0.648   1.878   1.465
   22SOL     OW  523   0.606   0.964   0.123
   22SOL    HW1  524   0.613   1.048   0.069
   22SOL    HW2  525   0.652   0.977   0.211
   23SOL     OW  526   1.594   0.114   1.480
   23SOL    HW1  527   1.576   0.181   1.408
   23SOL    HW2  528   1.591   0.160   1.569
   24SOL     OW  529   0.122   0.643   0.563
   24SOL    HW1  530   0.077   0.555   0.580
   24SOL    HW2  531   0.121   0.697   0.647
   25SOL     OW  532   1.842   1.767   0.359
   25SOL    HW1  533   1.896   1.738   0.439
   25SOL    HW2  534   1.872   1.857   0.330
   26SOL     OW  535   0.027   1.596   0.117
   26SOL    HW1  536   0.008   1.500   0.138
   26SOL    HW2  537  -0.006   1.654   0.192
   27SOL     OW  538   1.689   0.922   0.612
   27SOL    HW1  539   1.784   0.893   0.620
   27SOL    HW2  540   1.681   0.987   0.537
   28SOL     OW  541   1.641   1.108   0.432
   28SOL    HW1  542   1.727   1.110   0.380
   28SOL    HW2  543   1.655   1.155   0.520
   29SOL     OW  544   0.113   0.737   1.597
   29SOL    HW1  545   0.201   0.724   1.642
   29SOL    HW2  546   0.100   0.834   1.575
   30SOL     OW  547   0.613   1.365   0.726
   30SOL    HW1  548   0.564   1.278   0.735
   30SOL    HW2  549   0.590   1.408   0.639
   31SOL     OW  550   1.293   1.228   1.423
   31SOL    HW1  551   1.330   1.155   1.365
   31SOL    HW2  552   1.345   1.233   1.508
   32SOL     OW  553   0.809   0.004   0.502
   32SOL    HW1  554   0.849   0.095   0.493
   32SOL    HW2  555   0.709   0.012   0.508
   33SOL     OW  556   0.197   0.976   1.264
   33SOL    HW1  557   0.286   0.931   1.250
   33SOL    HW2  558   0.124   0.911   1.245
   34SOL     OW  559   1.525   0.999   0.190
   34SOL    HW1  560   1.462   0.923   0.203
   34SOL    HW2  561   1.573   1.017   0.276
   35SOL     OW  562   1.187   1.792   1.616
   35SOL    HW1  563   1.211   1.852   1.540
   35SOL    HW2  564   1.194   1.697   1.586
   36SOL     OW  565   0.317   0.251   1.801
   36SOL    HW1  566   0.388   0.322   1.807
   36SOL    HW2  567   0.229   0.290   1.829
   37SOL     OW  568   1.466   1.417   0.953
   37SOL    HW1  569   1.407   1.423   1.033
   37SOL    HW2  570   1.451   1.329   0.907
   38SOL     OW  571   1.667   1.714   0.572
   38SOL    HW1  572   1.626   1.691   0.484
   38SOL    HW2  573   1.649   1.640   0.637
   39SOL     OW  574   0.598   0.729   0.270
   39SOL    HW1  575   0.622   0.798   0.202
   39SOL    HW2  576   0.520   0.762   0.324
   40SOL     OW  577   1.281   0.345   0.944
   40SOL    HW1  578   1.195   0.295   0.931
   40SOL    HW2  579   1.343   0.291   1.000
   41SOL     OW  580   1.576   1.662   0.307
   41SOL    HW1  581   1.665   1.708   0.310
   41SOL    HW2  582   1.555   1.638   0.212
   42SOL     OW  583   0.807   0.605   1.465
   42SOL    HW1  584   0.760   0.602   1.554
   42SOL    HW2  585   0.756   0.550   1.399
   43SOL     OW  586   1.394   0.469   1.674
   43SOL    HW1  587   1.374   0.512   1.762
   43SOL    HW2  588   1.472   0.407   1.683
   44SOL     OW  589   0.973   0.890   1.572
   44SOL    HW1  590   1.019   0.806   1.543
   44SOL    HW2  591   0.917   0.924   1.497
   45SOL     OW  592   0.991   0.410   1.242
   45SOL    HW1  593   0.914   0.444   1.296
   45SOL    HW2  594   0.957   0.359   1.163
   46SOL     OW  595   1.041   0.701   0.429
   46SOL    HW1  596   1.067   0.697   0.525
   46SOL    HW2  597   0.956   0.650   0.415
   47SOL     OW  598   0.076   0.811   0.789
   47SOL    HW1  599   0.175   0.799   0.798
   47SOL    HW2  600   0.052   0.906   0.810
   48SOL     OW  601   0.130   1.821   1.571
   48SOL    HW1  602   0.120   1.806   1.670
   48SOL    HW2  603   0.044   1.857   1.535
   49SOL     OW  604   0.865   0.348   0.195
   49SOL    HW1  605   0.924   0.411   0.146
   49SOL    HW2  606   0.884   0.254   0.166
   50SOL     OW  607   1.719   0.585   1.831
   50SOL    HW1  608   1.693   0.674   1.795
   50SOL    HW2  609   1.717   0.517   1.758
   51SOL     OW  610   1.362   1.144   0.545
   51SOL    HW1  611   1.445   1.115   0.497
   51SOL    HW2  612   1.313   1.211   0.489
   52SOL     OW  613   0.550   0.196   0.885
   52SOL    HW1  614   0.545   0.191   0.985
   52SOL    HW2  615   0.552   0.292   0.856
   53SOL     OW  616   1.008   1.456   0.477
   53SOL    HW1  617   0.962   1.528   0.425
   53SOL    HW2  618   1.004   1.476   0.575
   54SOL     OW  619   0.351   1.801   0.853
   54SOL    HW1  620   0.401   1.715   0.859
   54SOL    HW2  621   0.416   1.878   0.850
   55SOL     OW  622   1.795   1.066   0.873
   55SOL    HW1  623   1.733   1.051   0.797
   55SOL    HW2  624   1.743   1.077   0.958
   56SOL     OW  625   1.227   1.550   1.506
   56SOL    HW1  626   1.233   1.473   1.570
   56SOL    HW2  627   1.175   1.524   1.426
   57SOL     OW  628   0.321   0.943   0.242
   57SOL    HW1  629   0.403   0.982   0.200
   57SOL    HW2  630   0.294   0.861   0.193
   58SOL     OW  631   1.458   0.735   0.728
   58SOL    HW1  632   1.453   0.670   0.803
   58SOL    HW2  633   1.538   0.794   0.741
   59SOL     OW  634   0.461   1.266   1.727
   59SOL    HW1  635   0.411   1.267   1.641
   59SOL    HW2  636   0.398   1.248   1.803
   60SOL     OW  637   1.111   1.776   0.237
   60SOL    HW1  638   1.051   1.714   0.287
   60SOL    HW2  639   1.142   1.732   0.152
   61SOL     OW  640   0.202   0.285   1.498
   61SOL    HW1  641   0.122   0.345   1.485
   61SOL    HW2  642   0.192   0.236   1.584
   62SOL     OW  643   1.632   1.377   0.081
   62SOL    HW1  644   1.600   1.471   0.071
   62SOL    HW2  645   1.556   1.314   0.069
   63SOL     OW  646   0.464   1.743   0.323
   63SOL    HW1  647   0.497   1.782   0.409
   63SOL    HW2  648   0.540   1.736   0.258
   64SOL     OW  649   1.400   0.107   0.426
   64SOL    HW1  650   1.376   0.070   0.336
   64SOL    HW2  651   1.499   0.123   0.430
   65SOL     OW  652   0.249   1.785   1.241
   65SOL    HW1  653   0.306   1.720   1.291
   65SOL    HW2  654   0.233   1.752   1.148
   66SOL     OW  655   0.940   1.698   0.904
   66SOL    HW1  656   1.020   1.641   0.925
   66SOL    HW2  657   0.891   1.658   0.827
   67SOL     OW  658   0.382   0.700   0.480
   67SOL    HW1  659   0.427   0.610   0.477
   67SOL    HW2  660   0.288   0.689   0.513
   68SOL     OW  661   1.547   0.222   1.729
   68SOL    HW1  662   1.542   0.259   1.821
   68SOL    HW2  663   1.475   0.153   1.717
   69SOL     OW  664   0.614   0.122   0.117
   69SOL    HW1  665   0.712   0.100   0.124
   69SOL    HW2  666   0.583   0.105   0.024
   70SOL     OW  667   0.781   0.264   1.749
   70SOL    HW1  668   0.848   0.203   1.792
   70SOL    HW2  669   0.708   0.283   1.814
   71SOL     OW  670   0.888   1.514   1.195
   71SOL    HW1  671   0.865   1.489   1.101
   71SOL    HW2  672   0.949   1.445   1.234
   72SOL     OW  673   1.351   0.590   1.433
   72SOL    HW1  674   1.379   0.547   1.518
   72SOL    HW2  675   1.376   0.686   1.434
   73SOL     OW  676   0.803   1.402   0.924
   73SOL    HW1  677   0.893   1.416   0.882
   73SOL    HW2  678   0.732   1.404   0.853
   74SOL     OW  679   0.922   0.503   0.899
   74SOL    HW1  680   0.897   0.494   0.803
   74SOL    HW2  681   0.970   0.421   0.930
   75SOL     OW  682   0.539   0.064   0.512
   75SOL    HW1  683   0.458   0.065   0.570
   75SOL    HW2  684   0.542   0.147   0.457
   76SOL     OW  685   1.434   1.188   0.041
   76SOL    HW1  686   1.466   1.112   0.098
   76SOL    HW2  687   1.342   1.215   0.071
   77SOL     OW  688   0.297   0.035   0.171
   77SOL    HW1  689   0.346   0.119   0.150
   77SOL    HW2  690   0.359  -0.030   0.216
   78SOL     OW  691   0.935   0.236   0.480
   78SOL    HW1  692   0.887   0.277   0.402
   78SOL    HW2  693   1.034   0.234   0.461
   79SOL     OW  694   1.076   0.683   1.464
   79SOL    HW1  695   0.996   0.622   1.467
   79SOL    HW2  696   1.157   0.630   1.440
   80SOL     OW  697   1.227   1.570   0.793
   80SOL    HW1  698   1.248   1.644   0.728
   80SOL    HW2  699   1.295   1.570   0.866
   81SOL     OW  700   0.459   1.152   0.741
   81SOL    HW1  701   0.388   1.125   0.806
   81SOL    HW2  702   0.433   1.124   0.648
   82SOL     OW  703   1.271   1.797   0.591
   82SOL    HW1  704   1.315   1.861   0.527
   82SOL    HW2  705   1.221   1.849   0.661
   83SOL     OW  706   1.032   0.549   0.016
   83SOL    HW1  707   0.991   0.631  -0.023
   83SOL    HW2  708   1.096   0.575   0.089
   84SOL     OW  709   0.078   0.556   1.386
   84SOL    HW1  710   0.170   0.555   1.345
   84SOL    HW2  711   0.072   0.630   1.453
   85SOL     OW  712   0.561   0.222   1.147
   85SOL    HW1  713   0.599   0.138   1.184
   85SOL    HW2  714   0.473   0.241   1.191
   86SOL     OW  715   0.866   0.454   0.642
   86SOL    HW1  716   0.834   0.526   0.580
   86SOL    HW2  717   0.890   0.373   0.589
   87SOL     OW  718   1.017   0.039   0.753
   87SOL    HW1  719   0.945   0.044   0.684
   87SOL    HW2  720   0.993  -0.030   0.822
   88SOL     OW  721   1.429   1.173   0.867
   88SOL    HW1  722   1.374   1.089   0.860
   88SOL    HW2  723   1.455   1.202   0.775
   89SOL     OW  724   1.466   0.590   0.992
   89SOL    HW1  725   1.436   0.495   0.999
   89SOL    HW2  726   1.539   0.606   1.058
   90SOL     OW  727   1.857   0.833   0.377
   90SOL    HW1  728   1.899   0.769   0.441
   90SOL    HW2  729   1.819   0.782   0.299
   91SOL     OW  730   0.488   1.385   0.174
   91SOL    HW1  731   0.401   1.370   0.221
   91SOL    HW2  732   0.471   1.411   0.079
   92SOL     OW  733   1.664   1.280   0.657
   92SOL    HW1  734   1.763   1.288   0.671
   92SOL    HW2  735   1.619   1.364   0.688
   93SOL     OW  736   1.390   0.575   0.078
   93SOL    HW1  737   1.336   0.554   0.159
   93SOL    HW2  738   1.481   0.534   0.087
   94SOL     OW  739   0.527   0.256   0.328
   94SOL    HW1  740   0.554   0.197   0.253
   94SOL    HW2  741   0.527   0.351   0.297
   95SOL     OW  742   1.754   1.223   1.588
   95SOL    HW1  743   1.845   1.184   1.575
   95SOL    HW2  744   1.762   1.319   1.612
   96SOL     OW  745   1.064   1.347   1.340
   96SOL    HW1  746   0.984   1.324   1.395
   96SOL    HW2  747   1.147   1.321   1.389
   97SOL     OW  748   1.592   1.629   1.625
   97SOL    HW1  749   1.619   1.663   1.535
   97SOL    HW2  750   1.671   1.591   1.671
   98SOL     OW  751   1.111   1.195   1.100
   98SOL    HW1  752   1.071   1.239   1.181
   98SOL    HW2  753   1.070   1.232   1.017
   99SOL     OW  754   1.638   1.099   1.079
   99SOL    HW1  755   1.643   1.180   1.138
   99SOL    HW2  756   1.552   1.101   1.028
  100SOL     OW  757   0.915   0.089   1.402
  100SOL    HW1  758   0.940   0.069   1.307
  100SOL    HW2  759   0.987   0.145   1.444
  101SOL     OW  760   0.980   1.116   1.719
  101SOL    HW1  761   0.881   1.122   1.729
  101SOL    HW2  762   1.003   1.036   1.663
  102SOL     OW  763   0.705   1.050   0.368
  102SOL    HW1  764   0.691   1.057   0.467
  102SOL    HW2  765   0.789   0.999   0.350
  103SOL     OW  766   0.410   0.813   1.251
  103SOL    HW1  767   0.496   0.825   1.301
  103SOL    HW2  768   0.368   0.726   1.278
  104SOL     OW  769   1.274   0.386   1.262
  104SOL    HW1  770   1.295   0.460   1.326
  104SOL    HW2  771   1.185   0.403   1.219
  105SOL     OW  772   0.064   1.564   1.331
  105SOL    HW1  773   0.018   1.646   1.297
  105SOL    HW2  774   0.162   1.583   1.340
  106SOL     OW  775   0.367   1.100   0.501
  106SOL    HW1  776   0.360   1.183   0.445
  106SOL    HW2  777   0.371   1.020   0.441
  107SOL     OW  778   0.566   0.537   0.865
  107SOL    HW1  779   0.578   0.603   0.791
  107SOL    HW2  780   0.612   0.571   0.948
  108SOL     OW  781   1.252   1.348   0.388
  108SOL    HW1  782   1.302   1.425   0.428
  108SOL    HW2  783   1.157   1.350   0.420
  109SOL     OW  784   1.272   1.445   1.142
  109SOL    HW1  785   1.319   1.458   1.229
  109SOL    HW2  786   1.206   1.371   1.151
  110SOL     OW  787   1.582   0.639   0.472
  110SOL    HW1  788   1.551   0.700   0.545
  110SOL    HW2  789   1.632   0.691   0.403
  111SOL     OW  790   0.354   1.510   1.329
  111SOL    HW1  791   0.333   1.466   1.242
  111SOL    HW2  792   0.451   1.536   1.332
  112SOL     OW  793   0.402   0.751   1.598
  112SOL    HW1  794   0.470   0.806   1.551
  112SOL    HW2  795   0.442   0.663   1.625
  113SOL     OW  796   1.587   0.779   1.670
  113SOL    HW1  797   1.495   0.817   1.665
  113SOL    HW2  798   1.647   0.826   1.605
  114SOL     OW  799   1.013   0.105   1.770
  114SOL    HW1  800   1.019   0.190   1.718
  114SOL    HW2  801   1.045   0.029   1.713
  115SOL     OW  802   0.504   0.050   1.740
  115SOL    HW1  803   0.462  -0.007   1.670
  115SOL    HW2  804   0.438   0.119   1.772
  116SOL     OW  805   0.573   0.870   1.029
  116SOL    HW1  806   0.617   0.959   1.020
  116SOL    HW2  807   0.510   0.870   1.106
  117SOL     OW  808   1.360   0.862   1.045
  117SOL    HW1  809   1.285   0.862   0.979
  117SOL    HW2  810   1.397   0.770   1.054
  118SOL     OW  811   1.209   0.525   0.275
  118SOL    HW1  812   1.222   0.441   0.329
  118SOL    HW2  813   1.180   0.599   0.335
  119SOL     OW  814   0.307   0.213   1.231
  119SOL    HW1  815   0.284   0.250   1.321
  119SOL    HW2  816   0.277   0.118   1.225
  120SOL     OW  817   0.037   1.310   1.282
  120SOL    HW1  818   0.090   1.261   1.350
  120SOL    HW2  819   0.059   1.408   1.287
  121SOL     OW  820   0.732   0.634   1.064
  121SOL    HW1  821   0.791   0.608   0.988
  121SOL    HW2  822   0.704   0.730   1.053
  122SOL     OW  823   1.728   0.935   1.854
  122SOL    HW1  824   1.682   0.928   1.765
  122SOL    HW2  825   1.666   0.979   1.920
  123SOL     OW  826   0.307   0.063   0.618
  123SOL    HW1  827   0.296   0.157   0.651
  123SOL    HW2  828   0.302   0.000   0.695
  124SOL     OW  829   1.622   0.367   0.374
  124SOL    HW1  830   1.624   0.291   0.438
  124SOL    HW2  831   1.574   0.444   0.414
  125SOL     OW  832   1.023   0.766   0.966
  125SOL    HW1  833   1.038   0.787   1.062
  125SOL    HW2  834   0.993   0.671   0.957
  126SOL     OW  835   0.980   1.573   1.700
  126SOL    HW1  836   0.960   1.617   1.612
  126SOL    HW2  837   1.019   1.482   1.684
  127SOL     OW  838   1.859   1.518   1.605
  127SOL    HW1  839   1.873   1.545   1.510
  127SOL    HW2  840   1.942   1.540   1.658
  128SOL     OW  841   0.350   0.898   1.804
  128SOL    HW1  842   0.426   0.942   1.852
  128SOL    HW2  843   0.385   0.851   1.722
  129SOL     OW  844   1.540   0.274   0.125
  129SOL    HW1  845   1.479   0.199   0.148
  129SOL    HW2  846   1.562   0.326   0.208
  130SOL     OW  847   1.303   0.838   0.042
  130SOL    HW1  848   1.337   0.745   0.057
  130SOL    HW2  849   1.321   0.865  -0.053
  131SOL     OW  850   1.068   1.333   0.849
  131SOL    HW1  851   1.075   1.249   0.794
  131SOL    HW2  852   1.130   1.402   0.813
  132SOL     OW  853   0.319   0.810   0.949
  132SOL    HW1  854   0.412   0.846   0.954
  132SOL    HW2  855   0.313   0.725   1.001
  133SOL     OW  856   0.339   0.509   1.006
  133SOL    HW1  857   0.287   0.426   0.989
  133SOL    HW2  858   0.416   0.514   0.942
  134SOL     OW  859   1.138   0.380   1.678
  134SOL    HW1  860   1.093   0.443   1.742
  134SOL    HW2  861   1.231   0.411   1.661
  135SOL     OW  862   1.160   0.207   1.477
  135SOL    HW1  863   1.160   0.271   1.554
  135SOL    HW2  864   1.188   0.255   1.394
  136SOL     OW  865   0.008   1.326   0.200
  136SOL    HW1  866  -0.085   1.347   0.169
  136SOL    HW2  867   0.018   1.227   0.213
  137SOL     OW  868   0.088   1.801   0.927
  137SOL    HW1  869   0.046   1.715   0.900
  137SOL    HW2  870   0.182   1.804   0.893
  138SOL     OW  871   0.504   1.568   0.910
  138SOL    HW1  872   0.570   1.642   0.919
  138SOL    HW2  873   0.548   1.489   0.868
  139SOL     OW  874   1.002   0.796   1.238
  139SOL    HW1  875   1.043   0.764   1.324
  139SOL    HW2  876   0.906   0.769   1.235
  140SOL     OW  877   0.040   0.544   1.114
  140SOL    HW1  878   0.125   0.511   1.073
  140SOL    HW2  879   0.053   0.559   1.212
  141SOL     OW  880   0.189   0.520   1.722
  141SOL    HW1  881   0.248   0.480   1.652
  141SOL    HW2  882   0.131   0.591   1.681
  142SOL     OW  883   1.369   0.950   1.660
  142SOL    HW1  884   1.408   1.039   1.680
  142SOL    HW2  885   1.379   0.930   1.563
  143SOL     OW  886   0.815   0.572   0.325
  143SOL    HW1  887   0.822   0.483   0.279
  143SOL    HW2  888   0.721   0.606   0.317
  144SOL     OW  889   1.657   0.604   1.206
  144SOL    HW1  890   1.619   0.535   1.268
  144SOL    HW2  891   1.739   0.568   1.162
  145SOL     OW  892   0.252   1.564   1.744
  145SOL    HW1  893   0.222   1.621   1.820
  145SOL    HW2  894   0.245   1.467   1.770
  146SOL     OW  895   0.671   0.464   1.269
  146SOL    HW1  896   0.637   0.375   1.239
  146SOL    HW2  897   0.697   0.518   1.189
  147SOL     OW  898   0.930   1.678   1.465
  147SOL    HW1  899   0.906   1.660   1.370
  147SOL    HW2  900   0.960   1.772   1.475
  148SOL     OW  901   0.473   0.500   0.191
  148SOL    HW1  902   0.534   0.580   0.195
  148SOL    HW2  903   0.378   0.531   0.198
  149SOL     OW  904   0.159   1.137   1.466
  149SOL    HW1  905   0.181   1.076   1.542
  149SOL    HW2  906   0.169   1.088   1.380
  150SOL     OW  907   1.347   1.059   1.234
  150SOL    HW1  908   1.371   0.996   1.160
  150SOL    HW2  909   1.257   1.099   1.216
  151SOL     OW  910   1.302   0.855   0.309
  151SOL    HW1  911   1.216   0.824   0.351
  151SOL    HW2  912   1.298   0.841   0.210
  152SOL     OW  913   1.759   1.747   1.154
  152SOL    HW1  914   1.820   1.777   1.081
  152SOL    HW2  915   1.721   1.658   1.132
  153SOL     OW  916   1.252   1.731   1.128
  153SOL    HW1  917   1.336   1.736   1.074
  153SOL    HW2  918   1.229   1.635   1.146
  154SOL     OW  919   0.083   1.258   1.022
  154SOL    HW1  920   0.078   1.257   1.122
  154SOL    HW2  921   0.000   1.217   0.984
  155SOL     OW  922   0.688   1.662   1.716
  155SOL    HW1  923   0.632   1.743   1.725
  155SOL    HW2  924   0.740   1.666   1.630
  156SOL     OW  925   0.903   0.086   0.133
  156SOL    HW1  926   0.954   0.087   0.047
  156SOL    HW2  927   0.959   0.044   0.204
  157SOL     OW  928   1.726   0.135   0.523
  157SOL    HW1  929   1.799   0.118   0.456
  157SOL    HW2  930   1.695   0.048   0.561
  158SOL     OW  931   1.388   1.573   0.477
  158SOL    HW1  932   1.455   1.585   0.403
  158SOL    HW2  933   1.348   1.662   0.500
  159SOL     OW  934   0.130   1.794   1.851
  159SOL    HW1  935   0.089   1.720   1.904
  159SOL    HW2  936   0.194   1.845   1.909
  160SOL     OW  937   1.280   0.927   0.672
  160SOL    HW1  938   1.340   0.846   0.674
  160SOL    HW2  939   1.320   0.996   0.612
  161SOL     OW  940   0.830   1.273   1.422
  161SOL    HW1  941   0.825   1.306   1.517
  161SOL    HW2  942   0.744   1.292   1.376
  162SOL     OW  943   0.672   1.616   0.154
  162SOL    HW1  944   0.681   1.626   0.055
  162SOL    HW2  945   0.632   1.527   0.175
  163SOL     OW  946   1.650   1.720   1.394
  163SOL    HW1  947   1.703   1.730   1.310
  163SOL    HW2  948   1.623   1.810   1.428
  164SOL     OW  949   1.841   0.175   0.963
  164SOL    HW1  950   1.880   0.090   0.927
  164SOL    HW2  951   1.743   0.177   0.944
  165SOL     OW  952   0.263   0.326   0.720
  165SOL    HW1  953   0.184   0.377   0.686
  165SOL    HW2  954   0.254   0.311   0.818
  166SOL     OW  955   1.194   1.612   0.031
  166SOL    HW1  956   1.200   1.519   0.068
  166SOL    HW2  957   1.135   1.612  -0.049
  167SOL     OW  958   0.822   1.002   1.372
  167SOL    HW1  959   0.862   1.001   1.280
  167SOL    HW2  960   0.832   1.094   1.412
  168SOL     OW  961   0.916   0.910   0.291
  168SOL    HW1  962   0.979   0.948   0.223
  168SOL    HW2  963   0.956   0.827   0.330
  169SOL     OW  964   1.504   1.607   0.044
  169SOL    HW1  965   1.412   1.644   0.051
  169SOL    HW2  966   1.542   1.627  -0.046
  170SOL     OW  967   0.372   1.288   1.490
  170SOL    HW1  968   0.359   1.381   1.456
  170SOL    HW2  969   0.288   1.236   1.477
  171SOL     OW  970   1.614   1.292   1.289
  171SOL    HW1  971   1.674   1.295   1.369
  171SOL    HW2  972   1.539   1.356   1.302
  172SOL     OW  973   1.039   1.098   0.696
  172SOL    HW1  974   0.969   1.051   0.750
  172SOL    HW2  975   1.098   1.030   0.653
  173SOL     OW  976   1.014   0.236   0.971
  173SOL    HW1  977   1.006   0.200   0.878
  173SOL    HW2  978   1.012   0.160   1.036
  174SOL     OW  979   0.590   1.487   0.491
  174SOL    HW1  980   0.632   1.429   0.421
  174SOL    HW2  981   0.546   1.566   0.447
  175SOL     OW  982   1.709   0.385   1.381
  175SOL    HW1  983   1.782   0.454   1.385
  175SOL    HW2  984   1.737   0.310   1.322
  176SOL     OW  985   0.255   1.348   0.290
  176SOL    HW1  986   0.159   1.349   0.263
  176SOL    HW2  987   0.267   1.401   0.374
  177SOL     OW  988   0.105   1.013   1.726
  177SOL    HW1  989   0.028   0.980   1.780
  177SOL    HW2  990   0.190   0.983   1.768
  178SOL     OW  991   0.672   0.203   1.489
  178SOL    HW1  992   0.762   0.187   1.449
  178SOL    HW2  993   0.680   0.208   1.588
  179SOL     OW  994   0.075   0.345   0.033
  179SOL    HW1  995  -0.017   0.317   0.004
  179SOL    HW2  996   0.106   0.422  -0.023
  180SOL     OW  997   1.440   0.856   1.398
  180SOL    HW1  998   1.383   0.908   1.335
  180SOL    HW2  999   1.536   0.868   1.374
  181SOL     OW 1000   0.072   0.166   0.318
  181SOL    HW1 1001   0.055   0.249   0.264
  181SOL    HW2 1002   0.162   0.129   0.296
  182SOL     OW 1003   1.183   1.335   0.119
  182SOL    HW1 1004   1.084   1.324   0.121
  182SOL    HW2 1005   1.217   1.350   0.212
  183SOL     OW 1006   0.613   0.842   1.431
  183SOL    HW1 1007   0.669   0.923   1.414
  183SOL    HW2 1008   0.672   0.762   1.434
  184SOL     OW 1009   1.493   1.767   0.959
  184SOL    HW1 1010   1.526   1.831   0.890
  184SOL    HW2 1011   1.559   1.761   1.034
  185SOL     OW 1012   0.716   0.565   1.708
  185SOL    HW1 1013   0.735   0.630   1.782
  185SOL    HW2 1014   0.776   0.485   1.717
  186SOL     OW 1015   1.450   1.220   1.633
  186SOL    HW1 1016   1.441   1.210   1.732
  186SOL    HW2 1017   1.546   1.213   1.607
  187SOL     OW 1018   0.390   1.741   1.560
  187SOL    HW1 1019   0.299   1.782   1.558
  187SOL    HW2 1020   0.383   1.647   1.592
  188SOL     OW 1021   1.674   0.883   1.254
  188SOL    HW1 1022   1.647   0.794   1.217
  188SOL    HW2 1023   1.675   0.951   1.181
  189SOL     OW 1024   1.225   0.325   0.449
  189SOL    HW1 1025   1.290   0.251   0.438
  189SOL    HW2 1026   1.245   0.375   0.533
  190SOL     OW 1027   0.594   0.745   0.652
  190SOL    HW1 1028   0.644   0.830   0.633
  190SOL    HW2 1029   0.506   0.747   0.604
  191SOL     OW 1030   1.777   0.342   1.642
  191SOL    HW1 1031   1.760   0.373   1.548
  191SOL    HW2 1032   1.693   0.305   1.680
  192SOL     OW 1033   1.730   0.934   1.517
  192SOL    HW1 1034   1.768   1.025   1.532
  192SOL    HW2 1035   1.722   0.917   1.418
  193SOL     OW 1036   0.859   1.374   0.016
  193SOL    HW1 1037   0.813   1.389   0.104
  193SOL    HW2 1038   0.903   1.459  -0.014
  194SOL     OW 1039   0.661   1.790   0.953
  194SOL    HW1 1040   0.615   1.878   0.940
  194SOL    HW2 1041   0.760   1.802   0.946
  195SOL     OW 1042   0.859   0.956   0.861
  195SOL    HW1 1043   0.913   0.887   0.909
  195SOL    HW2 1044   0.827   1.025   0.927
  196SOL     OW 1045   1.083   0.984   0.087
  196SOL    HW1 1046   1.060   1.037   0.005
  196SOL    HW2 1047   1.164   0.928   0.068
  197SOL     OW 1048   1.861   1.569   0.851
  197SOL    HW1 1049   1.790   1.557   0.781
  197SOL    HW2 1050   1.862   1.490   0.911
  198SOL     OW 1051   0.221   1.314   1.844
  198SOL    HW1 1052   0.156   1.241   1.823
  198SOL    HW2 1053   0.225   1.328   1.942
  199SOL     OW 1054   0.079   1.240   0.653
  199SOL    HW1 1055   0.078   1.193   0.741
  199SOL    HW2 1056   0.161   1.212   0.602
  200SOL     OW 1057   0.672   1.391   1.624
  200SOL    HW1 1058   0.594   1.341   1.662
  200SOL    HW2 1059   0.669   1.486   1.655
  201SOL     OW 1060   1.824   0.192   1.227
  201SOL    HW1 1061   1.820   0.102   1.271
  201SOL    HW2 1062   1.827   0.181   1.128
  202SOL     OW 1063   0.428   0.424   0.520
  202SOL    HW1 1064   0.458   0.352   0.458
  202SOL    HW2 1065   0.389   0.384   0.603
  203SOL     OW 1066   1.705   1.487   1.104
  203SOL    HW1 1067   1.612   1.462   1.077
  203SOL    HW2 1068   1.731   1.437   1.186
  204SOL     OW 1069   0.317   0.547   1.280
  204SOL    HW1 1070   0.355   0.488   1.352
  204SOL    HW2 1071   0.357   0.521   1.192
  205SOL     OW 1072   0.812   1.586   0.687
  205SOL    HW1 1073   0.844   1.596   0.593
  205SOL    HW2 1074   0.733   1.524   0.689
  206SOL     OW 1075   1.424   0.214   1.112
  206SOL    HW1 1076   1.476   0.149   1.167
  206SOL    HW2 1077   1.375   0.277   1.173
  207SOL     OW 1078   1.001   0.034   1.154
  207SOL    HW1 1079   0.938  -0.038   1.123
  207SOL    HW2 1080   1.094  -0.002   1.154
  208SOL     OW 1081   0.770   1.330   0.301
  208SOL    HW1 1082   0.724   1.243   0.318
  208SOL    HW2 1083   0.861   1.327   0.342
  209SOL     OW 1084   0.618   1.567   1.284
  209SOL    HW1 1085   0.613   1.649   1.341
  209SOL    HW2 1086   0.707   1.564   1.239
  210SOL     OW 1087   1.352   0.052   0.168
  210SOL    HW1 1088   1.387   0.011   0.084
  210SOL    HW2 1089   1.262   0.014   0.188
  211SOL     OW 1090   1.300   0.453   0.691
  211SOL    HW1 1091   1.241   0.533   0.695
  211SOL    HW2 1092   1.315   0.418   0.784
  212SOL     OW 1093   1.593   0.221   0.882
  212SOL    HW1 1094   1.509   0.220   0.936
  212SOL    HW2 1095   1.595   0.304   0.826
  213SOL     OW 1096   0.039   1.077   0.300
  213SOL    HW1 1097   0.138   1.066   0.291
  213SOL    HW2 1098  -0.001   0.991   0.332
  214SOL     OW 1099   0.875   1.646   0.337
  214SOL    HW1 1100   0.798   1.611   0.283
  214SOL    HW2 1101   0.843   1.717   0.399
  215SOL     OW 1102   0.230   0.628   1.975
  215SOL    HW1 1103   0.137   0.626   2.012
  215SOL    HW2 1104   0.231   0.589   1.883
  216SOL     OW 1105   0.225   0.275   2.858
  216SOL    HW1 1106   0.260   0.258   2.950
  216SOL    HW2 1107   0.137   0.230   2.846
  217SOL     OW 1108   0.019   0.368   2.509
  217SOL    HW1 1109  -0.063   0.411   2.548
  217SOL    HW2 1110  -0.009   0.295   2.446
  218SOL     OW 1111   0.569   1.275   3.027
  218SOL    HW1 1112   0.476   1.268   2.990
  218SOL    HW2 1113   0.580   1.364   3.071
  219SOL     OW 1114   1.555   1.511   2.565
  219SOL    HW1 1115   1.498   1.495   2.646
  219SOL    HW2 1116   1.496   1.521   2.485
  220SOL     OW 1117   1.135   0.703   2.579
  220SOL    HW1 1118   1.192   0.781   2.554
  220SOL    HW2 1119   1.075   0.729   2.655
  221SOL     OW 1120   1.755   0.607   2.093
  221SOL    HW1 1121   1.743   0.594   1.994
  221SOL    HW2 1122   1.725   0.526   2.142
  222SOL     OW 1123   0.768   1.144   2.885
  222SOL    HW1 1124   0.690   1.161   2.945
  222SOL    HW2 1125   0.802   1.231   2.849
  223SOL     OW 1126   0.850   0.798   3.685
  223SOL    HW1 1127   0.846   0.874   3.750
  223SOL    HW2 1128   0.872   0.834   3.594
  224SOL     OW 1129   0.685   1.012   2.527
  224SOL    HW1 1130   0.754   0.996   2.597
  224SOL    HW2 1131   0.612   1.069   2.565
  225SOL     OW 1132   0.686   1.161   3.665
  225SOL    HW1 1133   0.746   1.240   3.679
  225SOL    HW2 1134   0.600   1.192   3.624
  226SOL     OW 1135   0.335   1.435   2.923
  226SOL    HW1 1136   0.257   1.404   2.870
  226SOL    HW2 1137   0.393   1.493   2.866
  227SOL     OW 1138   1.460   1.505   3.201
  227SOL    HW1 1139   1.484   1.599   3.227
  227SOL    HW2 1140   1.444   1.451   3.283
  228SOL     OW 1141   0.438   0.392   3.361
  228SOL    HW1 1142   0.520   0.336   3.370
  228SOL    HW2 1143   0.357   0.334   3.365
  229SOL     OW 1144   1.603   0.447   2.599
  229SOL    HW1 1145   1.529   0.493   2.549
  229SOL    HW2 1146   1.654   0.515   2.652
  230SOL     OW 1147   0.231   1.713   2.345
  230SOL    HW1 1148   0.265   1.790   2.399
  230SOL    HW2 1149   0.275   1.713   2.255
  231SOL     OW 1150   1.127   1.341   3.552
  231SOL    HW1 1151   1.174   1.341   3.640
  231SOL    HW2 1152   1.079   1.254   3.541
  232SOL     OW 1153   0.230   1.434   2.400
  232SOL    HW1 1154   0.204   1.530   2.400
  232SOL    HW2 1155   0.159   1.380   2.445
  233SOL     OW 1156   0.240   1.091   2.748
  233SOL    HW1 1157   0.254   1.007   2.800
  233SOL    HW2 1158   0.185   1.155   2.803
  234SOL     OW 1159   0.620   1.786   3.301
  234SOL    HW1 1160   0.528   1.769   3.336
  234SOL    HW2 1161   0.648   1.878   3.327
  235SOL     OW 1162   0.606   0.964   1.985
  235SOL    HW1 1163   0.613   1.048   1.931
  235SOL    HW2 1164   0.652   0.977   2.073
  236SOL     OW 1165   1.594   0.114   3.342
  236SOL    HW1 1166   1.576   0.181   3.270
  236SOL    HW2 1167   1.591   0.160   3.431
  237SOL     OW 1168   0.122   0.643   2.425
  237SOL    HW1 1169   0.077   0.555   2.442
  237SOL    HW2 1170   0.121   0.697   2.509
  238SOL     OW 1171   1.842   1.767   2.221
  238SOL    HW1 1172   1.896   1.738   2.301
  238SOL    HW2 1173   1.872   1.857   2.192
  239SOL     OW 1174   0.027   1.596   1.979
  239SOL    HW1 1175   0.008   1.500   2.000
  239SOL    HW2 1176  -0.006   1.654   2.054
  240SOL     OW 1177   1.689   0.922   2.474
  240SOL    HW1 1178   1.784   0.893   2.482
  240SOL    HW2 1179   1.681   0.987   2.399
  241SOL     OW 1180   1.641   1.108   2.294
  241SOL    HW1 1181   1.727   1.110   2.242
  241SOL    HW2 1182   1.655   1.155   2.382
  242SOL     OW 1183   0.113   0.737   3.459
  242SOL    HW1 1184   0.201   0.724   3.504
  242SOL    HW2 1185   0.100   0.834   3.437
  243SOL     OW 1186   0.613   1.365   2.588
  243SOL    HW1 1187   0.564   1.278   2.597
  243SOL    HW2 1188   0.590   1.408   2.501
  244SOL     OW 1189   1.293   1.228   3.285
  244SOL    HW1 1190   1.330   1.155   3.227
  244SOL    HW2 1191   1.345   1.233   3.370
  245SOL     OW 1192   0.809   0.004   2.364
  245SOL    HW1 1193   0.849   0.095   2.355
  245SOL    HW2 1194   0.709   0.012   2.370
  246SOL     OW 1195   0.197   0.976   3.126
  246SOL    HW1 1196   0.286   0.931   3.112
  246SOL    HW2 1197   0.124   0.911   3.107
  247SOL     OW 1198   1.525   0.999   2.052
  247SOL    HW1 1199   1.462   0.923   2.065
  247SOL    HW2 1200   1.573   1.017   2.138
  248SOL     OW 1201   1.187   1.792   3.478
  248SOL    HW1 1202   1.211   1.852   3.402
  248SOL    HW2 1203   1.194   1.697   3.448
  249SOL     OW 1204   0.317   0.251   3.663
  249SOL    HW1 1205   0.388   0.322   3.669
  249SOL    HW2 1206   0.229   0.290   3.691
  250SOL     OW 1207   1.466   1.417   2.815
  250SOL    HW1 1208   1.407   1.423   2.895
  250SOL    HW2 1209   1.451   1.329   2.769
  251SOL     OW 1210   1.667   1.714   2.434
  251SOL    HW1 1211   1.626   1.691   2.346
  251SOL    HW2 1212   1.649   1.640   2.499
  252SOL     OW 1213   0.598   0.729   2.132
  252SOL    HW1 1214   0.622   0.798   2.064
  252SOL    HW2 1215   0.520   0.762   2.186
  253SOL     OW 1216   1.281   0.345   2.806
  253SOL    HW1 1217   1.195   0.295   2.793
  253SOL    HW2 1218   1.343   0.291   2.862
  254SOL     OW 1219   1.576   1.662   2.169
  254SOL    HW1 1220   1.665   1.708   2.172
  254SOL    HW2 1221   1.555   1.638   2.074
  255SOL     OW 1222   0.807   0.605   3.327
  255SOL    HW1 1223   0.760   0.602   3.416
  255SOL    HW2 1224   0.756   0.550   3.261
  256SOL     OW 1225   1.394   0.469   3.536
  256SOL    HW1 1226   1.374   0.512   3.624
  256SOL    HW2 1227   1.472   0.407   3.545
  257SOL     OW 1228   0.973   0.890   3.434
  257SOL    HW1 1229   1.019   0.806   3.405
  257SOL    HW2 1230   0.917   0.924   3.359
  258SOL     OW 1231   0.991   0.410   3.104
  258SOL    HW1 1232   0.914   0.444   3.158
  258SOL    HW2 1233   0.957   0.359   3.025
  259SOL     OW 1234   1.041   0.701   2.291
  259SOL    HW1 1235   1.067   0.697   2.387
  259SOL    HW2 1236   0.956   0.650   2.277
  260SOL     OW 1237   0.076   0.811   2.651
  260SOL    HW1 1238   0.175   0.799   2.660
  260SOL    HW2 1239   0.052   0.906   2.672
  261SOL     OW 1240   0.130   1.821   3.433
  261SOL    HW1 1241   0.120   1.806   3.532
  261SOL    HW2 1242   0.044   1.857   3.397
  262SOL     OW 1243   0.865   0.348   2.057
  262SOL    HW1 1244   0.924   0.411   2.008
  262SOL    HW2 1245   0.884   0.254   2.028
  263SOL     OW 1246   1.719   0.585   3.693
  263SOL    HW1 1247   1.693   0.674   3.657
  263SOL    HW2 1248   1.717   0.517   3.620
  264SOL     OW 1249   1.362   1.144   2.407
  264SOL    HW1 1250   1.445   1.115   2.359
  264SOL    HW2 1251   1.313   1.211   2.351
  265SOL     OW 1252   0.550   0.196   2.747
  265SOL    HW1 1253   0.545   0.191   2.847
  265SOL    HW2 1254   0.552   0.292   2.718
  266SOL     OW 1255   1.008   1.456   2.339
  266SOL    HW1 1256   0.962   1.528   2.287
  266SOL    HW2 1257   1.004   1.476   2.437
  267SOL     OW 1258   0.351   1.801   2.715
  267SOL    HW1 1259   0.401   1.715   2.721
  267SOL    HW2 1260   0.416   1.878   2.712
  268SOL     OW 1261   1.795   1.066   2.735
  268SOL    HW1 1262   1.733   1.051   2.659
  268SOL    HW2 1263   1.743   1.077   2.820
  269SOL     OW 1264   1.227   1.550   3.368
  269SOL    HW1 1265   1.233   1.473   3.432
  269SOL    HW2 1266   1.175   1.524   3.288
  270SOL     OW 1267   0.321   0.943   2.104
  270SOL    HW1 1268   0.403   0.982   2.062
  270SOL    HW2 1269   0.294   0.861   2.055
  271SOL     OW 1270   1.458   0.735   2.590
  271SOL    HW1 1271   1.453   0.670   2.665
  271SOL    HW2 1272   1.538   0.794   2.603
  272SOL     OW 1273   0.461   1.266   3.589
  272SOL    HW1 1274   0.411   1.267   3.503
  272SOL    HW2 1275   0.398   1.248   3.665
  273SOL     OW 1276   1.111   1.776   2.099
  273SOL    HW1 1277   1.051   1.714   2.149
  273SOL    HW2 1278   1.142   1.732   2.014
  274SOL     OW 1279   0.202   0.285   3.360
  274SOL    HW1 1280   0.122   0.345   3.347
  274SOL    HW2 1281   0.192   0.236   3.446
  275SOL     OW 1282   1.632   1.377   1.943
  275SOL    HW1 1283   1.600   1.471   1.933
  275SOL    HW2 1284   1.556   1.314   1.931
  276SOL     OW 1285   0.464   1.743   2.185
  276SOL    HW1 1286   0.497   1.782   2.271
  276SOL    HW2 1287   0.540   1.736   2.120
  277SOL     OW 1288   1.400   0.107   2.288
  277SOL    HW1 1289   1.376   0.070   2.198
  277SOL    HW2 1290   1.499   0.123   2.292
  278SOL     OW 1291   0.249   1.785   3.103
  278SOL    HW1 1292   0.306   1.720   3.153
  278SOL    HW2 1293   0.233   1.752   3.010
  279SOL     OW 1294   0.940   1.698   2.766
  279SOL    HW1 1295   1.020   1.641   2.787
  279SOL    HW2 1296   0.891   1.658   2.689
  280SOL     OW 1297   0.382   0.700   2.342
  280SOL    HW1 1298   0.427   0.610   2.339
  280SOL    HW2 1299   0.288   0.689   2.375
  281SOL     OW 1300   1.547   0.222   3.591
  281SOL    HW1 1301   1.542   0.259   3.683
  281SOL    HW2 1302   1.475   0.153   3.579
  282SOL     OW 1303   0.614   0.122   1.979
  282SOL    HW1 1304   0.712   0.100   1.986
  282SOL    HW2 1305   0.583   0.105   1.886
  283SOL     OW 1306   0.781   0.264   3.611
  283SOL    HW1 1307   0.848   0.203   3.654
  283SOL    HW2 1308   0.708   0.283   3.676
  284SOL     OW 1309   0.888   1.514   3.057
  284SOL    HW1 1310   0.865   1.489   2.963
  284SOL    HW2 1311   0.949   1.445   3.096
  285SOL     OW 1312   1.351   0.590   3.295
  285SOL    HW1 1313   1.379   0.547   3.380
  285SOL    HW2 1314   1.376   0.686   3.296
  286SOL     OW 1315   0.803   1.402   2.786
  286SOL    HW1 1316   0.893   1.416   2.744
  286SOL    HW2 1317   0.732   1.404   2.715
  287SOL     OW 1318   0.922   0.503   2.761
  287SOL    HW1 1319   0.897   0.494   2.665
  287SOL    HW2 1320   0.970   0.421   2.792
  288SOL     OW 1321   0.539   0.064   2.374
  288SOL    HW1 1322   0.458   0.065   2.432
  288SOL    HW2 1323   0.542   0.147   2.319
  289SOL     OW 1324   1.434   1.188   1.903
  289SOL    HW1 1325   1.466   1.112   1.960
  289SOL    HW2 1326   1.342   1.215   1.933
  290SOL     OW 1327   0.297   0.035   2.033
  290SOL    HW1 1328   0.346   0.119   2.012
  290SOL    HW2 1329   0.359  -0.030   2.078
  291SOL     OW 1330   0.935   0.236   2.342
  291SOL    HW1 1331   0.887   0.277   2.264
  291SOL    HW2 1332   1.034   0.234   2.323
  292SOL     OW 1333   1.076   0.683   3.326
  292SOL    HW1 1334   0.996   0.622   3.329
  292SOL    HW2 1335   1.157   0.630   3.302
  293SOL     OW 1336   1.227   1.570   2.655
  293SOL    HW1 1337   1.248   1.644   2.590
  293SOL    HW2 1338   1.295   1.570   2.728
  294SOL     OW 1339   0.459   1.152   2.603
  294SOL    HW1 1340   0.388   1.125   2.668
  294SOL    HW2 1341   0.433   1.124   2.510
  295SOL     OW 1342   1.271   1.797   2.453
  295SOL    HW1 1343   1.315   1.861   2.389
  295SOL    HW2 1344   1.221   1.849   2.523
  296SOL     OW 1345   1.032   0.549   1.878
  296SOL    HW1 1346   0.991   0.631   1.839
  296SOL    HW2 1347   1.096   0.575   1.951
  297SOL     OW 1348   0.078   0.556   3.248
  297SOL    HW1 1349   0.170   0.555   3.207
  297SOL    HW2 1350   0.072   0.630   3.315
  298SOL     OW 1351   0.561   0.222   3.009
  298SOL    HW1 1352   0.599   0.138   3.046
  298SOL    HW2 1353   0.473   0.241   3.053
  299SOL     OW 1354   0.866   0.454   2.504
  299SOL    HW1 1355   0.834   0.526   2.442
  299SOL    HW2 1356   0.890   0.373   2.451
  300SOL     OW 1357   1.017   0.039   2.615
  300SOL    HW1 1358   0.945   0.044   2.546
  300SOL    HW2 1359   0.993  -0.030   2.684
  301SOL     OW 1360   1.429   1.173   2.729
  301SOL    HW1 1361   1.374   1.089   2.722
  301SOL    HW2 1362   1.455   1.202   2.637
  302SOL     OW 1363   1.466   0.590   2.854
  302SOL    HW1 1364   1.436   0.495   2.861
  302SOL    HW2 1365   1.539   0.606   2.920
  303SOL     OW 1366   1.857   0.833   2.239
  303SOL    HW1 1367   1.899   0.769   2.303
  303SOL    HW2 1368   1.819   0.782   2.161
  304SOL     OW 1369   0.488   1.385   2.036
  304SOL    HW1 1370   0.401   1.370   2.083
  304SOL    HW2 1371   0.471   1.411   1.941
  305SOL     OW 1372   1.664   1.280   2.519
  305SOL    HW1 1373   1.763   1.288   2.533
  305SOL    HW2 1374   1.619   1.364   2.550
  306SOL     OW 1375   1.390   0.575   1.940
  306SOL    HW1 1376   1.336   0.554   2.021
  306SOL    HW2 1377   1.481   0.534   1.949
  307SOL     OW 1378   0.527   0.256   2.190
  307SOL    HW1 1379   0.554   0.197   2.115
  307SOL    HW2 1380   0.527   0.351   2.159
  308SOL     OW 1381   1.754   1.223   3.450
  308SOL    HW1 1382   1.845   1.184   3.437
  308SOL    HW2 1383   1.762   1.319   3.474
  309SOL     OW 1384   1.064   1.347   3.202
  309SOL    HW1 1385   0.984   1.324   3.257
  309SOL    HW2 1386   1.147   1.321   3.251
  310SOL     OW 1387   1.592   1.629   3.487
  310SOL    HW1 1388   1.619   1.663   3.397
  310SOL    HW2 1389   1.671   1.591   3.533
  311SOL     OW 1390   1.111   1.195   2.962
  311SOL    HW1 1391   1.071   1.239   3.043
  311SOL    HW2 1392   1.070   1.232   2.879
  312SOL     OW 1393   1.638   1.099   2.941
  312SOL    HW1 1394   1.643   1.180   3.000
  312SOL    HW2 1395   1.552   1.101   2.890
  313SOL     OW 1396   0.915   0.089   3.264
  313SOL    HW1 1397   0.940   0.069   3.169
  313SOL    HW2 1398   0.987   0.145   3.306
  314SOL     OW 1399   0.980   1.116   3.581
  314SOL    HW1 1400   0.881   1.122   3.591
  314SOL    HW2 1401   1.003   1.036   3.525
  315SOL     OW 1402   0.705   1.050   2.230
  315SOL    HW1 1403   0.691   1.057   2.329
  315SOL    HW2 1404   0.789   0.999   2.212
  316SOL     OW 1405   0.410   0.813   3.113
  316SOL    HW1 1406   0.496   0.825   3.163
  316SOL    HW2 1407   0.368   0.726   3.140
  317SOL     OW 1408   1.274   0.386   3.124
  317SOL    HW1 1409   1.295   0.460   3.188
  317SOL    HW2 1410   1.185   0.403   3.081
  318SOL     OW 1411   0.064   1.564   3.193
  318SOL    HW1 1412   0.018   1.646   3.159
  318SOL    HW2 1413   0.162   1.583   3.202
  319SOL     OW 1414   0.367   1.100   2.363
  319SOL    HW1 1415   0.360   1.183   2.307
  319SOL    HW2 1416   0.371   1.020   2.303
  320SOL     OW 1417   0.566   0.537   2.727
  320SOL    HW1 1418   0.578   0.603   2.653
  320SOL    HW2 1419   0.612   0.571   2.810
  321SOL     OW 1420   1.252   1.348   2.250
  321SOL    HW1 1421   1.302   1.425   2.290
  321SOL    HW2 1422   1.157   1.350   2.282
  322SOL     OW 1423   1.272   1.445   3.004
  322SOL    HW1 1424   1.319   1.458   3.091
  322SOL    HW2 1425   1.206   1.371   3.013
  323SOL     OW 1426   1.582   0.639   2.334
  323SOL    HW1 1427   1.551   0.700   2.407
  323SOL    HW2 1428   1.632   0.691   2.265
  324SOL     OW 1429   0.354   1.510   3.191
  324SOL    HW1 1430   0.333   1.466   3.104
  324SOL    HW2 1431   0.451   1.536   3.194
  325SOL     OW 1432   0.402   0.751   3.460
  325SOL    HW1 1433   0.470   0.806   3.413
  325SOL    HW2 1434   0.442   0.663   3.487
  326SOL     OW 1435   1.587   0.779   3.532
  326SOL    HW1 1436   1.495   0.817   3.527
  326SOL    HW2 1437   1.647   0.826   3.467
  327SOL     OW 1438   1.013   0.105   3.632
  327SOL    HW1 1439   1.019   0.190   3.580
  327SOL    HW2 1440   1.045   0.029   3.575
  328SOL     OW 1441   0.504   0.050   3.602
  328SOL    HW1 1442   0.462  -0.007   3.532
  328SOL    HW2 1443   0.438   0.119   3.634
  329SOL     OW 1444   0.573   0.870   2.891
  329SOL    HW1 1445   0.617   0.959   2.882
  329SOL    HW2 1446   0.510   0.870   2.968
  330SOL     OW 1447   1.360   0.862   2.907
  330SOL    HW1 1448   1.285   0.862   2.841
  330SOL    HW2 1449   1.397   0.770   2.916
  331SOL     OW 1450   1.209   0.525   2.137
  331SOL    HW1 1451   1.222   0.441   2.191
  331SOL    HW2 1452   1.180   0.599   2.197
  332SOL     OW 1453   0.307   0.213   3.093
  332SOL    HW1 1454   0.284   0.250   3.183
  332SOL    HW2 1455   0.277   0.118   3.087
  333SOL     OW 1456   0.037   1.310   3.144
  333SOL    HW1 1457   0.090   1.261   3.212
  333SOL    HW2 1458   0.059   1.408   3.149
  334SOL     OW 1459   0.732   0.634   2.926
  334SOL    HW1 1460   0.791   0.608   2.850
  334SOL    HW2 1461   0.704   0.730   2.915
  335SOL     OW 1462   1.728   0.935   3.716
  335SOL    HW1 1463   1.682   0.928   3.627
  335SOL    HW2 1464   1.666   0.979   3.782
  336SOL     OW 1465   0.307   0.063   2.480
  336SOL    HW1 1466   0.296   0.157   2.513
  336SOL    HW2 1467   0.302   0.000   2.557
  337SOL     OW 1468   1.622   0.367   2.236
  337SOL    HW1 1469   1.624   0.291   2.300
  337SOL    HW2 1470   1.574   0.444   2.276
  338SOL     OW 1471   1.023   0.766   2.828
  338SOL    HW1 1472   1.038   0.787   2.924
  338SOL    HW2 1473   0.993   0.671   2.819
  339SOL     OW 1474   0.980   1.573   3.562
  339SOL    HW1 1475   0.960   1.617   3.474
  339SOL    HW2 1476   1.019   1.482   3.546
  340SOL     OW 1477   1.859   1.518   3.467
  340SOL    HW1 1478   1.873   1.545   3.372
  340SOL    HW2 1479   1.942   1.540   3.520
  341SOL     OW 1480   0.350   0.898   3.666
  341SOL    HW1 1481   0.426   0.942   3.714
  341SOL    HW2 1482   0.385   0.851   3.584
  342SOL     OW 1483   1.540   0.274   1.987
  342SOL    HW1 1484   1.479   0.199   2.010
  342SOL    HW2 1485   1.562   0.326   2.070
  343SOL     OW 1486   1.303   0.838   1.904
  343SOL    HW1 1487   1.337   0.745   1.919
  343SOL    HW2 1488   1.321   0.865   1.809
  344SOL     OW 1489   1.068   1.333   2.711
  344SOL    HW1 1490   1.075   1.249   2.656
  344SOL    HW2 1491   1.130   1.402   2.675
  345SOL     OW 1492   0.319   0.810   2.811
  345SOL    HW1 1493   0.412   0.846   2.816
  345SOL    HW2 1494   0.313   0.725   2.863
  346SOL     OW 1495   0.339   0.509   2.868
  346SOL    HW1 1496   0.287   0.426   2.851
  346SOL    HW2 1497   0.416   0.514   2.804
  347SOL     OW 1498   1.138   0.380   3.540
  347SOL    HW1 1499   1.093   0.443   3.604
  347SOL    HW2 1500   1.231   0.411   3.523
  348SOL     OW 1501   1.160   0.207   3.339
  348SOL    HW1 1502   1.160   0.271   3.416
  348SOL    HW2 1503   1.188   0.255   3.256
  349SOL     OW 1504   0.008   1.326   2.062
  349SOL    HW1 1505  -0.085   1.347   2.031
  349SOL    HW2 1506   0.018   1.227   2.075
  350SOL     OW 1507   0.088   1.801   2.789
  350SOL    HW1 1508   0.046   1.715   2.762
  350SOL    HW2 1509   0.182   1.804   2.755
  351SOL     OW 1510   0.504   1.568   2.772
  351SOL    HW1 1511   0.570   1.642   2.781
  351SOL    HW2 1512   0.548   1.489   2.730
  352SOL     OW 1513   1.002   0.796   3.100
  352SOL    HW1 1514   1.043   0.764   3.186
  352SOL    HW2 1515   0.906   0.769   3.097
  353SOL     OW 1516   0.040   0.544   2.976
  353SOL    HW1 1517   0.125   0.511   2.935
  353SOL    HW2 1518   0.053   0.559   3.074
  354SOL     OW 1519   0.189   0.520   3.584
  354SOL    HW1 1520   0.248   0.480   3.514
  354SOL    HW2 1521   0.131   0.591   3.543
  355SOL     OW 1522   1.369   0.950   3.522
  355SOL    HW1 1523   1.408   1.039   3.542
  355SOL    HW2 1524   1.379   0.930   3.425
  356SOL     OW 1525   0.815   0.572   2.187
  356SOL    HW1 1526   0.822   0.483   2.141
  356SOL    HW2 1527   0.721   0.606   2.179
  357SOL     OW 1528   1.657   0.604   3.068
  357SOL    HW1 1529   1.619   0.535   3.130
  357SOL    HW2 1530   1.739   0.568   3.024
  358SOL     OW 1531   0.252   1.564   3.606
  358SOL    HW1 1532   0.222   1.621   3.682
  358SOL    HW2 1533   0.245   1.467   3.632
  359SOL     OW 1534   0.671   0.464   3.131
  359SOL    HW1 1535   0.637   0.375   3.101
  359SOL    HW2 1536   0.697   0.518   3.051
  360SOL     OW 1537   0.930   1.678   3.327
  360SOL    HW1 1538   0.906   1.660   3.232
  360SOL    HW2 1539   0.960   1.772   3.337
  361SOL     OW 1540   0.473   0.500   2.053
  361SOL    HW1 1541   0.534   0.580   2.057
  361SOL    HW2 1542   0.378   0.531   2.060
  362SOL     OW 1543   0.159   1.137   3.328
  362SOL    HW1 1544   0.181   1.076   3.404
  362SOL    HW2 1545   0.169   1.088   3.242
  363SOL     OW 1546   1.347   1.059   3.096
  363SOL    HW1 1547   1.371   0.996   3.022
  363SOL    HW2 1548   1.257   1.099   3.078
  364SOL     OW 1549   1.302   0.855   2.171
  364SOL    HW1 1550   1.216   0.824   2.213
  364SOL    HW2 1551   1.298   0.841   2.072
  365SOL     OW 1552   1.759   1.747   3.016
  365SOL    HW1 1553   1.820   1.777   2.943
  365SOL    HW2 1554   1.721   1.658   2.994
  366SOL     OW 1555   1.252   1.731   2.990
  366SOL    HW1 1556   1.336   1.736   2.936
  366SOL    HW2 1557   1.229   1.635   3.008
  367SOL     OW 1558   0.083   1.258   2.884
  367SOL    HW1 1559   0.078   1.257   2.984
  367SOL    HW2 1560   0.000   1.217   2.846
  368SOL     OW 1561   0.688   1.662   3.578
  368SOL    HW1 1562   0.632   1.743   3.587
  368SOL    HW2 1563   0.740   1.666   3.492
  369SOL     OW 1564   1.726   0.135   2.385
  369SOL    HW1 1565   1.799   0.118   2.318
  369SOL    HW2 1566   1.695   0.048   2.423
  370SOL     OW 1567   1.388   1.573   2.339
  370SOL    HW1 1568   1.455   1.585   2.265
  370SOL    HW2 1569   1.348   1.662   2.362
  371SOL     OW 1570   0.130   1.794   3.713
  371SOL    HW1 1571   0.089   1.720   3.766
  371SOL    HW2 1572   0.194   1.845   3.771
  372SOL     OW 1573   1.280   0.927   2.534
  372SOL    HW1 1574   1.340   0.846   2.536
  372SOL    HW2 1575   1.320   0.996   2.474
  373SOL     OW 1576   0.830   1.273   3.284
  373SOL    HW1 1577   0.825   1.306   3.379
  373SOL    HW2 1578   0.744   1.292   3.238
  374SOL     OW 1579   0.672   1.616   2.016
  374SOL    HW1 1580   0.681   1.626   1.917
  374SOL    HW2 1581   0.632   1.527   2.037
  375SOL     OW 1582   1.650   1.720   3.256
  375SOL    HW1 1583   1.703   1.730   3.172
  375SOL    HW2 1584   1.623   1.810   3.290
  376SOL     OW 1585   1.841   0.175   2.825
  376SOL    HW1 1586   1.880   0.090   2.789
  376SOL    HW2 1587   1.743   0.177   2.806
  377SOL     OW 1588   0.263   0.326   2.582
  377SOL    HW1 1589   0.184   0.377   2.548
  377SOL    HW2 1590   0.254   0.311   2.680
  378SOL     OW 1591   1.194   1.612   1.893
  378SOL    HW1 1592   1.200   1.519   1.930
  378SOL    HW2 1593   1.135   1.612   1.813
  379SOL     OW 1594   0.822   1.002   3.234
  379SOL    HW1 1595   0.862   1.001   3.142
  379SOL    HW2 1596   0.832   1.094   3.274
  380SOL     OW 1597   0.916   0.910   2.153
  380SOL    HW1 1598   0.979   0.948   2.085
  380SOL    HW2 1599   0.956   0.827   2.192
  381SOL     OW 1600   1.504   1.607   1.906
  381SOL    HW1 1601   1.412   1.644   1.913
  381SOL    HW2 1602   1.542   1.627   1.816
  382SOL     OW 1603   0.372   1.288   3.352
  382SOL    HW1 1604   0.359   1.381   3.318
  382SOL    HW2 1605   0.288   1.236   3.339
  383SOL     OW 1606   1.614   1.292   3.151
  383SOL    HW1 1607   1.674   1.295   3.231
  383SOL    HW2 1608   1.539   1.356   3.164
  384SOL     OW 1609   1.039   1.098   2.558
  384SOL    HW1 1610   0.969   1.051   2.612
  384SOL    HW2 1611   1.098   1.030   2.515
  385SOL     OW 1612   1.014   0.236   2.833
  385SOL    HW1 1613   1.006   0.200   2.740
  385SOL    HW2 1614   1.012   0.160   2.898
  386SOL     OW 1615   0.590   1.487   2.353
  386SOL    HW1 1616   0.632   1.429   2.283
  386SOL    HW2 1617   0.546   1.566   2.309
  387SOL     OW 1618   1.709   0.385   3.243
  387SOL    HW1 1619   1.782   0.454   3.247
  387SOL    HW2 1620   1.737   0.310   3.184
  388SOL     OW 1621   0.255   1.348   2.152
  388SOL    HW1 1622   0.159   1.349   2.125
  388SOL    HW2 1623   0.267   1.401   2.236
  389SOL     OW 1624   0.105   1.013   3.588
  389SOL    HW1 1625   0.028   0.980   3.642
  389SOL    HW2 1626   0.190   0.983   3.630
  390SOL     OW 1627   0.672   0.203   3.351
  390SOL    HW1 1628   0.762   0.187   3.311
  390SOL    HW2 1629   0.680   0.208   3.450
  391SOL     OW 1630   0.075   0.345   1.895
  391SOL    HW1 1631  -0.017   0.317   1.866
  391SOL    HW2 1632   0.106   0.422   1.839
  392SOL     OW 1633   1.440   0.856   3.260
  392SOL    HW1 1634   1.383   0.908   3.197
  392SOL    HW2 1635   1.536   0.868   3.236
  393SOL     OW 1636   0.072   0.166   2.180
  393SOL    HW1 1637   0.055   0.249   2.126
  393SOL    HW2 1638   0.162   0.129   2.158
  394SOL     OW 1639   1.183   1.335   1.981
  394SOL    HW1 1640   1.084   1.324   1.983
  394SOL    HW2 1641   1.217   1.350   2.074
  395SOL     OW 1642   0.613   0.842   3.293
  395SOL    HW1 1643   0.669   0.923   3.276
  395SOL    HW2 1644   0.672   0.762   3.296
  396SOL     OW 1645   1.493   1.767   2.821
  396SOL    HW1 1646   1.526   1.831   2.752
  396SOL    HW2 1647   1.559   1.761   2.896
  397SOL     OW 1648   0.716   0.565   3.570
  397SOL    HW1 1649   0.735   0.630   3.644
  397SOL    HW2 1650   0.776   0.485   3.579
  398SOL     OW 1651   1.450   1.220   3.495
  398SOL    HW1 1652   1.441   1.210   3.594
  398SOL    HW2 1653   1.546   1.213   3.469
  399SOL     OW 1654   0.390   1.741   3.422
  399SOL    HW1 1655   0.299   1.782   3.420
  399SOL    HW2 1656   0.383   1.647   3.454
  400SOL     OW 1657   1.674   0.883   3.116
  400SOL    HW1 1658   1.647   0.794   3.079
  400SOL    HW2 1659   1.675   0.951   3.043
  401SOL     OW 1660   1.225   0.325   2.311
  401SOL    HW1 1661   1.290   0.251   2.300
  401SOL    HW2 1662   1.245   0.375   2.395
  402SOL     OW 1663   0.594   0.745   2.514
  402SOL    HW1 1664   0.644   0.830   2.495
  402SOL    HW2 1665   0.506   0.747   2.466
  403SOL     OW 1666   1.777   0.342   3.504
  403SOL    HW1 1667   1.760   0.373   3.410
  403SOL    HW2 1668   1.693   0.305   3.542
  404SOL     OW 1669   1.730   0.934   3.379
  404SOL    HW1 1670   1.768   1.025   3.394
  404SOL    HW2 1671   1.722   0.917   3.280
  405SOL     OW 1672   0.859   1.374   1.878
  405SOL    HW1 1673   0.813   1.389   1.966
  405SOL    HW2 1674   0.903   1.459   1.848
  406SOL     OW 1675   0.661   1.790   2.815
  406SOL    HW1 1676   0.615   1.878   2.802
  406SOL    HW2 1677   0.760   1.802   2.808
  407SOL     OW 1678   0.859   0.956   2.723
  407SOL    HW1 1679   0.913   0.887   2.771
  407SOL    HW2 1680   0.827   1.025   2.789
  408SOL     OW 1681   1.083   0.984   1.949
  408SOL    HW1 1682   1.060   1.037   1.867
  408SOL    HW2 1683   1.164   0.928   1.930
  409SOL     OW 1684   1.861   1.569   2.713
  409SOL    HW1 1685   1.790   1.557   2.643
  409SOL    HW2 1686   1.862   1.490   2.773
  410SOL     OW 1687   0.221   1.314   3.706
  410SOL    HW1 1688   0.156   1.241   3.685
  410SOL    HW2 1689   0.225   1.328   3.804
  411SOL     OW 1690   0.079   1.240   2.515
  411SOL    HW1 1691   0.078   1.193   2.603
  411SOL    HW2 1692   0.161   1.212   2.464
  412SOL     OW 1693   0.672   1.391   3.486
  412SOL    HW1 1694   0.594   1.341   3.524
  412SOL    HW2 1695   0.669   1.486   3.517
  413SOL     OW 1696   1.824   0.192   3.089
  413SOL    HW1 1697   1.820   0.102   3.133
  413SOL    HW2 1698   1.827   0.181   2.990
  414SOL     OW 1699   0.428   0.424   2.382
  414SOL    HW1 1700   0.458   0.352   2.320
  414SOL    HW2 1701   0.389   0.384   2.465
  415SOL     OW 1702   1.705   1.487   2.966
  415SOL    HW1 1703   1.612   1.462   2.939
  415SOL    HW2 1704   1.731   1.437   3.048
  416SOL     OW 1705   0.317   0.547   3.142
  416SOL    HW1 1706   0.355   0.488   3.214
  416SOL    HW2 1707   0.357   0.521   3.054
  417SOL     OW 1708   0.812   1.586   2.549
  417SOL    HW1 1709   0.844   1.596   2.455
  417SOL    HW2 1710   0.733   1.524   2.551
  418SOL     OW 1711   1.424   0.214   2.974
  418SOL    HW1 1712   1.476   0.149   3.029
  418SOL    HW2 1713   1.375   0.277   3.035
  419SOL     OW 1714   1.001   0.034   3.016
  419SOL    HW1 1715   0.938  -0.038   2.985
  419SOL    HW2 1716   1.094  -0.002   3.016
  420SOL     OW 1717   0.770   1.330   2.163
  420SOL    HW1 1718   0.724   1.243   2.180
  420SOL    HW2 1719   0.861   1.327   2.204
  421SOL     OW 1720   0.618   1.567   3.146
  421SOL    HW1 1721   0.613   1.649   3.203
  421SOL    HW2 1722   0.707   1.564   3.101
  422SOL     OW 1723   1.352   0.052   2.030
  422SOL    HW1 1724   1.387   0.011   1.946
  422SOL    HW2 1725   1.262   0.014   2.050
  423SOL     OW 1726   1.300   0.453   2.553
  423SOL    HW1 1727   1.241   0.533   2.557
  423SOL    HW2 1728   1.315   0.418   2.646
  424SOL     OW 1729   1.593   0.221   2.744
  424SOL    HW1 1730   1.509   0.220   2.798
  424SOL    HW2 1731   1.595   0.304   2.688
  425SOL     OW 1732   0.039   1.077   2.162
  425SOL    HW1 1733   0.138   1.066   2.153
  425SOL    HW2 1734  -0.001   0.991   2.194
  426SOL     OW 1735   0.875   1.646   2.199
  426SOL    HW1 1736   0.798   1.611   2.145
  426SOL    HW2 1737   0.843   1.717   2.261
  427SOL     OW 1738   0.230   0.628   3.837
  427SOL    HW1 1739   0.137   0.626   3.874
  427SOL    HW2 1740   0.231   0.589   3.745
  428SOL     OW 1741   0.225   0.275   4.720
  428SOL    HW1 1742   0.260   0.258   4.812
  428SOL    HW2 1743   0.137   0.230   4.708
  429SOL     OW 1744   0.019   0.368   4.371
  429SOL    HW1 1745  -0.063   0.411   4.410
  429SOL    HW2 1746  -0.009   0.295   4.308
  430SOL     OW 1747   0.569   1.275   4.889
  430SOL    HW1 1748   0.476   1.268   4.852
  430SOL    HW2 1749   0.580   1.364   4.933
  431SOL     OW 1750   1.555   1.511   4.427
  431SOL    HW1 1751   1.498   1.495   4.508
  431SOL    HW2 1752   1.496   1.521   4.347
  432SOL     OW 1753   1.135   0.703   4.441
  432SOL    HW1 1754   1.192   0.781   4.416
  432SOL    HW2 1755   1.075   0.729   4.517
  433SOL     OW 1756   1.755   0.607   3.955
  433SOL    HW1 1757   1.743   0.594   3.856
  433SOL    HW2 1758   1.725   0.526   4.004
  434SOL     OW 1759   0.768   1.144   4.747
  434SOL    HW1 1760   0.690   1.161   4.807
  434SOL    HW2 1761   0.802   1.231   4.711
  435SOL     OW 1762   0.850   0.798   5.547
  435SOL    HW1 1763   0.846   0.874   5.612
  435SOL    HW2 1764   0.872   0.834   5.456
  436SOL     OW 1765   0.685   1.012   4.389
  436SOL    HW1 1766   0.754   0.996   4.459
  436SOL    HW2 1767   0.612   1.069   4.427
  437SOL     OW 1768   0.686   1.161   5.527
  437SOL    HW1 1769   0.746   1.240   5.541
  437SOL    HW2 1770   0.600   1.192   5.486
  438SOL     OW 1771   0.335   1.435   4.785
  438SOL    HW1 1772   0.257   1.404   4.732
  438SOL    HW2 1773   0.393   1.493   4.728
  439SOL     OW 1774   1.460   1.505   5.063
  439SOL    HW1 1775   1.484   1.599   5.089
  439SOL    HW2 1776   1.444   1.451   5.145
  440SOL     OW 1777   0.438   0.392   5.223
  440SOL    HW1 1778   0.520   0.336   5.232
  440SOL    HW2 1779   0.357   0.334   5.227
  441SOL     OW 1780   1.603   0.447   4.461
  441SOL    HW1 1781   1.529   0.493   4.411
  441SOL    HW2 1782   1.654   0.515   4.514
  442SOL     OW 1783   0.231   1.713   4.207
  442SOL    HW1 1784   0.265   1.790   4.261
  442SOL    HW2 1785   0.275   1.713   4.117
  443SOL     OW 1786   1.127   1.341   5.414
  443SOL    HW1 1787   1.174   1.341   5.502
  443SOL    HW2 1788   1.079   1.254   5.403
  444SOL     OW 1789   0.230   1.434   4.262
  444SOL    HW1 1790   0.204   1.530   4.262
  444SOL    HW2 1791   0.159   1.380   4.307
  445SOL     OW 1792   0.240   1.091   4.610
  445SOL    HW1 1793   0.254   1.007   4.662
  445SOL    HW2 1794   0.185   1.155   4.665
  446SOL     OW 1795   0.620   1.786   5.163
  446SOL    HW1 1796   0.528   1.769   5.198
  446SOL    HW2 1797   0.648   1.878   5.189
  447SOL     OW 1798   0.606   0.964   3.847
  447SOL    HW1 1799   0.613   1.048   3.793
  447SOL    HW2 1800   0.652   0.977   3.935
  448SOL     OW 1801   1.594   0.114   5.204
  448SOL    HW1 1802   1.576   0.181   5.132
  448SOL    HW2 1803   1.591   0.160   5.293
  449SOL     OW 1804   0.122   0.643   4.287
  449SOL    HW1 1805   0.077   0.555   4.304
  449SOL    HW2 1806   0.121   0.697   4.371
  450SOL     OW 1807   1.842   1.767   4.083
  450SOL    HW1 1808   1.896   1.738   4.163
  450SOL    HW2 1809   1.872   1.857   4.054
  451SOL     OW 1810   0.027   1.596   3.841
  451SOL    HW1 1811   0.008   1.500   3.862
  451SOL    HW2 1812  -0.006   1.654   3.916
  452SOL     OW 1813   1.689   0.922   4.336
  452SOL    HW1 1814   1.784   0.893   4.344
  452SOL    HW2 1815   1.681   0.987   4.261
  453SOL     OW 1816   1.641   1.108   4.156
  453SOL    HW1 1817   1.727   1.110   4.104
  453SOL    HW2 1818   1.655   1.155   4.244
  454SOL     OW 1819   0.113   0.737   5.321
  454SOL    HW1 1820   0.201   0.724   5.366
  454SOL    HW2 1821   0.100   0.834   5.299
  455SOL     OW 1822   0.613   1.365   4.450
  455SOL    HW1 1823   0.564   1.278   4.459
  455SOL    HW2 1824   0.590   1.408   4.363
  456SOL     OW 1825   1.293   1.228   5.147
  456SOL    HW1 1826   1.330   1.155   5.089
  456SOL    HW2 1827   1.345   1.233   5.232
  457SOL     OW 1828   0.809   0.004   4.226
  457SOL    HW1 1829   0.849   0.095   4.217
  457SOL    HW2 1830   0.709   0.012   4.232
  458SOL     OW 1831   0.197   0.976   4.988
  458SOL    HW1 1832   0.286   0.931   4.974
  458SOL    HW2 1833   0.124   0.911   4.969
  459SOL     OW 1834   1.525   0.999   3.914
  459SOL    HW1 1835   1.462   0.923   3.927
  459SOL    HW2 1836   1.573   1.017   4.000
  460SOL     OW 1837   1.187   1.792   5.340
  460SOL    HW1 1838   1.211   1.852   5.264
  460SOL    HW2 1839   1.194   1.697   5.310
  461SOL     OW 1840   0.317   0.251   5.525
  461SOL    HW1 1841   0.388   0.322   5.531
  461SOL    HW2 1842   0.229   0.290   5.553
  462SOL     OW 1843   1.466   1.417   4.677
  462SOL    HW1 1844   1.407   1.423   4.757
  462SOL    HW2 1845   1.451   1.329   4.631
  463SOL     OW 1846   1.667   1.714   4.296
  463SOL    HW1 1847   1.626   1.691   4.208
  463SOL    HW2 1848   1.649   1.640   4.361
  464SOL     OW 1849   0.598   0.729   3.994
  464SOL    HW1 1850   0.622   0.798   3.926
  464SOL    HW2 1851   0.520   0.762   4.048
  465SOL     OW 1852   1.281   0.345   4.668
  465SOL    HW1 1853   1.195   0.295   4.655
  465SOL    HW2 1854   1.343   0.291   4.724
  466SOL     OW 1855   1.576   1.662   4.031
  466SOL    HW1 1856   1.665   1.708   4.034
  466SOL    HW2 1857   1.555   1.638   3.936
  467SOL     OW 1858   0.807   0.605   5.189
  467SOL    HW1 1859   0.760   0.602   5.278
  467SOL    HW2 1860   0.756   0.550   5.123
  468SOL     OW 1861   1.394   0.469   5.398
  468SOL    HW1 1862   1.374   0.512   5.486
  468SOL    HW2 1863   1.472   0.407   5.407
  469SOL     OW 1864   0.973   0.890   5.296
  469SOL    HW1 1865   1.019   0.806   5.267
  469SOL    HW2 1866   0.917   0.924   5.221
  470SOL     OW 1867   0.991   0.410   4.966
  470SOL    HW1 1868   0.914   0.444   5.020
  470SOL    HW2 1869   0.957   0.359   4.887
  471SOL     OW 1870   1.041   0.701   4.153
  471SOL    HW1 1871   1.067   0.697   4.249
  471SOL    HW2 1872   0.956   0.650   4.139
  472SOL     OW 1873   0.076   0.811   4.513
  472SOL    HW1 1874   0.175   0.799   4.522
  472SOL    HW2 1875   0.052   0.906   4.534
  473SOL     OW 1876   0.130   1.821   5.295
  473SOL    HW1 1877   0.120   1.806   5.394
  473SOL    HW2 1878   0.044   1.857   5.259
  474SOL     OW 1879   0.865   0.348   3.919
  474SOL    HW1 1880   0.924   0.411   3.870
  474SOL    HW2 1881   0.884   0.254   3.890
  475SOL     OW 1882   1.719   0.585   5.555
  475SOL    HW1 1883   1.693   0.674   5.519
  475SOL    HW2 1884   1.717   0.517   5.482
  476SOL     OW 1885   1.362   1.144   4.269
  476SOL    HW1 1886   1.445   1.115   4.221
  476SOL    HW2 1887   1.313   1.211   4.213
  477SOL     OW 1888   0.550   0.196   4.609
  477SOL    HW1 1889   0.545   0.191   4.709
  477SOL    HW2 1890   0.552   0.292   4.580
  478SOL     OW 1891   1.008   1.456   4.201
  478SOL    HW1 1892   0.962   1.528   4.149
  478SOL    HW2 1893   1.004   1.476   4.299
  479SOL     OW 1894   0.351   1.801   4.577
  479SOL    HW1 1895   0.401   1.715   4.583
  479SOL    HW2 1896   0.416   1.878   4.574
  480SOL     OW 1897   1.795   1.066   4.597
  480SOL    HW1 1898   1.733   1.051   4.521
  480SOL    HW2 1899   1.743   1.077   4.682
  481SOL     OW 1900   1.227   1.550   5.230
  481SOL    HW1 1901   1.233   1.473   5.294
  481SOL    HW2 1902   1.175   1.524   5.150
  482SOL     OW 1903   0.321   0.943   3.966
  482SOL    HW1 1904   0.403   0.982   3.924
  482SOL    HW2 1905   0.294   0.861   3.917
  483SOL     OW 1906   1.458   0.735   4.452
  483SOL    HW1 1907   1.453   0.670   4.527
  483SOL    HW2 1908   1.538   0.794   4.465
  484SOL     OW 1909   0.461   1.266   5.451
  484SOL    HW1 1910   0.411   1.267   5.365
  484SOL    HW2 1911   0.398   1.248   5.527
  485SOL     OW 1912   1.111   1.776   3.961
  485SOL    HW1 1913   1.051   1.714   4.011
  485SOL    HW2 1914   1.142   1.732   3.876
  486SOL     OW 1915   0.202   0.285   5.222
  486SOL    HW1 1916   0.122   0.345   5.209
  486SOL    HW2 1917   0.192   0.236   5.308
  487SOL     OW 1918   1.632   1.377   3.805
  487SOL    HW1 1919   1.600   1.471   3.795
  487SOL    HW2 1920   1.556   1.314   3.793
  488SOL     OW 1921   0.464   1.743   4.047
  488SOL    HW1 1922   0.497   1.782   4.133
  488SOL    HW2 1923   0.540   1.736   3.982
  489SOL     OW 1924   1.400   0.107   4.150
  489SOL    HW1 1925   1.376   0.070   4.060
  489SOL    HW2 1926   1.499   0.123   4.154
  490SOL     OW 1927   0.249   1.785   4.965
  490SOL    HW1 1928   0.306   1.720   5.015
  490SOL    HW2 1929   0.233   1.752   4.872
  491SOL     OW 1930   0.940   1.698   4.628
  491SOL    HW1 1931   1.020   1.641   4.649
  491SOL    HW2 1932   0.891   1.658   4.551
  492SOL     OW 1933   0.382   0.700   4.204
  492SOL    HW1 1934   0.427   0.610   4.201
  492SOL    HW2 1935   0.288   0.689   4.237
  493SOL     OW 1936   1.547   0.222   5.453
  493SOL    HW1 1937   1.542   0.259   5.545
  493SOL    HW2 1938   1.475   0.153   5.441
  494SOL     OW 1939   0.614   0.122   3.841
  494SOL    HW1 1940   0.712   0.100   3.848
  494SOL    HW2 1941   0.583   0.105   3.748
  495SOL     OW 1942   0.781   0.264   5.473
  495SOL    HW1 1943   0.848   0.203   5.516
  495SOL    HW2 1944   0.708   0.283   5.538
  496SOL     OW 1945   0.888   1.514   4.919
  496SOL    HW1 1946   0.865   1.489   4.825
  496SOL    HW2 1947   0.949   1.445   4.958
  497SOL     OW 1948   1.351   0.590   5.157
  497SOL    HW1 1949   1.379   0.547   5.242
  497SOL    HW2 1950   1.376   0.686   5.158
  498SOL     OW 1951   0.803   1.402   4.648
  498SOL    HW1 1952   0.893   1.416   4.606
  498SOL    HW2 1953   0.732   1.404   4.577
  499SOL     OW 1954   0.922   0.503   4.623
  499SOL    HW1 1955   0.897   0.494   4.527
  499SOL    HW2 1956   0.970   0.421   4.654
  500SOL     OW 1957   0.539   0.064   4.236
  500SOL    HW1 1958   0.458   0.065   4.294
  500SOL    HW2 1959   0.542   0.147   4.181
  501SOL     OW 1960   1.434   1.188   3.765
  501SOL    HW1 1961   1.466   1.112   3.822
  501SOL    HW2 1962   1.342   1.215   3.795
  502SOL     OW 1963   0.297   0.035   3.895
  502SOL    HW1 1964   0.346   0.119   3.874
  502SOL    HW2 1965   0.359  -0.030   3.940
  503SOL     OW 1966   0.935   0.236   4.204
  503SOL    HW1 1967   0.887   0.277   4.126
  503SOL    HW2 1968   1.034   0.234   4.185
  504SOL     OW 1969   1.076   0.683   5.188
  504SOL    HW1 1970   0.996   0.622   5.191
  504SOL    HW2 1971   1.157   0.630   5.164
  505SOL     OW 1972   1.227   1.570   4.517
  505SOL    HW1 1973   1.248   1.644   4.452
  505SOL    HW2 1974   1.295   1.570   4.590
  506SOL     OW 1975   0.459   1.152   4.465
  506SOL    HW1 1976   0.388   1.125   4.530
  506SOL    HW2 1977   0.433   1.124   4.372
  507SOL     OW 1978   1.271   1.797   4.315
  507SOL    HW1 1979   1.315   1.861   4.251
  507SOL    HW2 1980   1.221   1.849   4.385
  508SOL     OW 1981   1.032   0.549   3.740
  508SOL    HW1 1982   0.991   0.631   3.701
  508SOL    HW2 1983   1.096   0.575   3.813
  509SOL     OW 1984   0.078   0.556   5.110
  509SOL    HW1 1985   0.170   0.555   5.069
  509SOL    HW2 1986   0.072   0.630   5.177
  510SOL     OW 1987   0.561   0.222   4.871
  510SOL    HW1 1988   0.599   0.138   4.908
  510SOL    HW2 1989   0.473   0.241   4.915
  511SOL     OW 1990   0.866   0.454   4.366
  511SOL    HW1 1991   0.834   0.526   4.304
  511SOL    HW2 1992   0.890   0.373   4.313
  512SOL     OW 1993   1.017   0.039   4.477
  512SOL    HW1 1994   0.945   0.044   4.408
  512SOL    HW2 1995   0.993  -0.030   4.546
  513SOL     OW 1996   1.429   1.173   4.591
  513SOL    HW1 1997   1.374   1.089   4.584
  513SOL    HW2 1998   1.455   1.202   4.499
  514SOL     OW 1999   1.466   0.590   4.716
  514SOL    HW1 2000   1.436   0.495   4.723
  514SOL    HW2 2001   1.539   0.606   4.782
  515SOL     OW 2002   1.857   0.833   4.101
  515SOL    HW1 2003   1.899   0.769   4.165
  515SOL    HW2 2004   1.819   0.782   4.023
  516SOL     OW 2005   0.488   1.385   3.898
  516SOL    HW1 2006   0.401   1.370   3.945
  516SOL    HW2 2007   0.471   1.411   3.803
  517SOL     OW 2008   1.664   1.280   4.381
  517SOL    HW1 2009   1.763   1.288   4.395
  517SOL    HW2 2010   1.619   1.364   4.412
  518SOL     OW 2011   1.390   0.575   3.802
  518SOL    HW1 2012   1.336   0.554   3.883
  518SOL    HW2 2013   1.481   0.534   3.811
  519SOL     OW 2014   0.527   0.256   4.052
  519SOL    HW1 2015   0.554   0.197   3.977
  519SOL    HW2 2016   0.527   0.351   4.021
  520SOL     OW 2017   1.754   1.223   5.312
  520SOL    HW1 2018   1.845   1.184   5.299
  520SOL    HW2 2019   1.762   1.319   5.336
  521SOL     OW 2020   1.064   1.347   5.064
  521SOL    HW1 2021   0.984   1.324   5.119
  521SOL    HW2 2022   1.147   1.321   5.113
  522SOL     OW 2023   1.592   1.629   5.349
  522SOL    HW1 2024   1.619   1.663   5.259
  522SOL    HW2 2025   1.671   1.591   5.395
  523SOL     OW 2026   1.111   1.195   4.824
  523SOL    HW1 2027   1.071   1.239   4.905
  523SOL    HW2 2028   1.070   1.232   4.741
  524SOL     OW 2029   1.638   1.099   4.803
  524SOL    HW1 2030   1.643   1.180   4.862
  524SOL    HW2 2031   1.552   1.101   4.752
  525SOL     OW 2032   0.915   0.089   5.126
  525SOL    HW1 2033   0.940   0.069   5.031
  525SOL    HW2 2034   0.987   0.145   5.168
  526SOL     OW 2035   0.980   1.116   5.443
  526SOL    HW1 2036   0.881   1.122   5.453
  526SOL    HW2 2037   1.003   1.036   5.387
  527SOL     OW 2038   0.705   1.050   4.092
  527SOL    HW1 2039   0.691   1.057   4.191
  527SOL    HW2 2040   0.789   0.999   4.074
  528SOL     OW 2041   0.410   0.813   4.975
  528SOL    HW1 2042   0.496   0.825   5.025
  528SOL    HW2 2043   0.368   0.726   5.002
  529SOL     OW 2044   1.274   0.386   4.986
  529SOL    HW1 2045   1.295   0.460   5.050
  529SOL    HW2 2046   1.185   0.403   4.943
  530SOL     OW 2047   0.064   1.564   5.055
  530SOL    HW1 2048   0.018   1.646   5.021
  530SOL    HW2 2049   0.162   1.583   5.064
  531SOL     OW 2050   0.367   1.100   4.225
  531SOL    HW1 2051   0.360   1.183   4.169
  531SOL    HW2 2052   0.371   1.020   4.165
  532SOL     OW 2053   0.566   0.537   4.589
  532SOL    HW1 2054   0.578   0.603   4.515
  532SOL    HW2 2055   0.612   0.571   4.672
  533SOL     OW 2056   1.252   1.348   4.112
  533SOL    HW1 2057   1.302   1.425   4.152
  533SOL    HW2 2058   1.157   1.350   4.144
  534SOL     OW 2059   1.272   1.445   4.866
  534SOL    HW1 2060   1.319   1.458   4.953
  534SOL    HW2 2061   1.206   1.371   4.875
  535SOL     OW 2062   1.582   0.639   4.196
  535SOL    HW1 2063   1.551   0.700   4.269
  535SOL    HW2 2064   1.632   0.691   4.127
  536SOL     OW 2065   0.354   1.510   5.053
  536SOL    HW1 2066   0.333   1.466   4.966
  536SOL    HW2 2067   0.451   1.536   5.056
  537SOL     OW 2068   0.402   0.751   5.322
  537SOL    HW1 2069   0.470   0.806   5.275
  537SOL    HW2 2070   0.442   0.663   5.349
  538SOL     OW 2071   1.587   0.779   5.394
  538SOL    HW1 2072   1.495   0.817   5.389
  538SOL    HW2 2073   1.647   0.826   5.329
  539SOL     OW 2074   1.013   0.105   5.494
  539SOL    HW1 2075   1.019   0.190   5.442
  539SOL    HW2 2076   1.045   0.029   5.437
  540SOL     OW 2077   0.504   0.050   5.464
  540SOL    HW1 2078   0.462  -0.007   5.394
  540SOL    HW2 2079   0.438   0.119   5.496
  541SOL     OW 2080   0.573   0.870   4.753
  541SOL    HW1 2081   0.617   0.959   4.744
  541SOL    HW2 2082   0.510   0.870   4.830
  542SOL     OW 2083   1.360   0.862   4.769
  542SOL    HW1 2084   1.285   0.862   4.703
  542SOL    HW2 2085   1.397   0.770   4.778
  543SOL     OW 2086   1.209   0.525   3.999
  543SOL    HW1 2087   1.222   0.441   4.053
  543SOL    HW2 2088   1.180   0.599   4.059
  544SOL     OW 2089   0.307   0.213   4.955
  544SOL    HW1 2090   0.284   0.250   5.045
  544SOL    HW2 2091   0.277   0.118   4.949
  545SOL     OW 2092   0.037   1.310   5.006
  545SOL    HW1 2093   0.090   1.261   5.074
  545SOL    HW2 2094   0.059   1.408   5.011
  546SOL     OW 2095   0.732   0.634   4.788
  546SOL    HW1 2096   0.791   0.608   4.712
  546SOL    HW2 2097   0.704   0.730   4.777
  547SOL     OW 2098   1.728   0.935   5.578
  547SOL    HW1 2099   1.682   0.928   5.489
  547SOL    HW2 2100   1.666   0.979   5.644
  548SOL     OW 2101   0.307   0.063   4.342
  548SOL    HW1 2102   0.296   0.157   4.375
  548SOL    HW2 2103   0.302   0.000   4.419
  549SOL     OW 2104   1.622   0.367   4.098
  549SOL    HW1 2105   1.624   0.291   4.162
  549SOL    HW2 2106   1.574   0.444   4.138
  550SOL     OW 2107   1.023   0.766   4.690
  550SOL    HW1 2108   1.038   0.787   4.786
  550SOL    HW2 2109   0.993   0.671   4.681
  551SOL     OW 2110   0.980   1.573   5.424
  551SOL    HW1 2111   0.960   1.617   5.336
  551SOL    HW2 2112   1.019   1.482   5.408
  552SOL     OW 2113   1.859   1.518   5.329
  552SOL    HW1 2114   1.873   1.545   5.234
  552SOL    HW2 2115   1.942   1.540   5.382
  553SOL     OW 2116   0.350   0.898   5.528
  553SOL    HW1 2117   0.426   0.942   5.576
  553SOL    HW2 2118   0.385   0.851   5.446
  554SOL     OW 2119   1.540   0.274   3.849
  554SOL    HW1 2120   1.479   0.199   3.872
  554SOL    HW2 2121   1.562   0.326   3.932
  555SOL     OW 2122   1.303   0.838   3.766
  555SOL    HW1 2123   1.337   0.745   3.781
  555SOL    HW2 2124   1.321   0.865   3.671
  556SOL     OW 2125   1.068   1.333   4.573
  556SOL    HW1 2126   1.075   1.249   4.518
  556SOL    HW2 2127   1.130   1.402   4.537
  557SOL     OW 2128   0.319   0.810   4.673
  557SOL    HW1 2129   0.412   0.846   4.678
  557SOL    HW2 2130   0.313   0.725   4.725
  558SOL     OW 2131   0.339   0.509   4.730
  558SOL    HW1 2132   0.287   0.426   4.713
  558SOL    HW2 2133   0.416   0.514   4.666
  559SOL     OW 2134   1.138   0.380   5.402
  559SOL    HW1 2135   1.093   0.443   5.466
  559SOL    HW2 2136   1.231   0.411   5.385
  560SOL     OW 2137   1.160   0.207   5.201
  560SOL    HW1 2138   1.160   0.271   5.278
  560SOL    HW2 2139   1.188   0.255   5.118
  561SOL     OW 2140   0.008   1.326   3.924
  561SOL    HW1 2141  -0.085   1.347   3.893
  561SOL    HW2 2142   0.018   1.227   3.937
  562SOL     OW 2143   0.088   1.801   4.651
  562SOL    HW1 2144   0.046   1.715   4.624
  562SOL    HW2 2145   0.182   1.804   4.617
  563SOL     OW 2146   0.504   1.568   4.634
  563SOL    HW1 2147   0.570   1.642   4.643
  563SOL    HW2 2148   0.548   1.489   4.592
  564SOL     OW 2149   1.002   0.796   4.962
  564SOL    HW1 2150   1.043   0.764   5.048
  564SOL    HW2 2151   0.906   0.769   4.959
  565SOL     OW 2152   0.040   0.544   4.838
  565SOL    HW1 2153   0.125   0.511   4.797
  565SOL    HW2 2154   0.053   0.559   4.936
  566SOL     OW 2155   0.189   0.520   5.446
  566SOL    HW1 2156   0.248   0.480   5.376
  566SOL    HW2 2157   0.131   0.591   5.405
  567SOL     OW 2158   1.369   0.950   5.384
  567SOL    HW1 2159   1.408   1.039   5.404
  567SOL    HW2 2160   1.379   0.930   5.287
  568SOL     OW 2161   0.815   0.572   4.049
  568SOL    HW1 2162   0.822   0.483   4.003
  568SOL    HW2 2163   0.721   0.606   4.041
  569SOL     OW 2164   1.657   0.604   4.930
  569SOL    HW1 2165   1.619   0.535   4.992
  569SOL    HW2 2166   1.739   0.568   4.886
  570SOL     OW 2167   0.252   1.564   5.468
  570SOL    HW1 2168   0.222   1.621   5.544
  570SOL    HW2 2169   0.245   1.467   5.494
  571SOL     OW 2170   0.671   0.464   4.993
  571SOL    HW1 2171   0.637   0.375   4.963
  571SOL    HW2 2172   0.697   0.518   4.913
  572SOL     OW 2173   0.930   1.678   5.189
  572SOL    HW1 2174   0.906   1.660   5.094
  572SOL    HW2 2175   0.960   1.772   5.199
  573SOL     OW 2176   0.473   0.500   3.915
  573SOL    HW1 2177   0.534   0.580   3.919
  573SOL    HW2 2178   0.378   0.531   3.922
  574SOL     OW 2179   0.159   1.137   5.190
  574SOL    HW1 2180   0.181   1.076   5.266
  574SOL    HW2 2181   0.169   1.088   5.104
  575SOL     OW 2182   1.347   1.059   4.958
  575SOL    HW1 2183   1.371   0.996   4.884
  575SOL    HW2 2184   1.257   1.099   4.940
  576SOL     OW 2185   1.302   0.855   4.033
  576SOL    HW1 2186   1.216   0.824   4.075
  576SOL    HW2 2187   1.298   0.841   3.934
  577SOL     OW 2188   1.252   1.731   4.852
  577SOL    HW1 2189   1.336   1.736   4.798
  577SOL    HW2 2190   1.229   1.635   4.870
  578SOL     OW 2191   0.083   1.258   4.746
  578SOL    HW1 2192   0.078   1.257   4.846
  578SOL    HW2 2193   0.000   1.217   4.708
  579SOL     OW 2194   0.688   1.662   5.440
  579SOL    HW1 2195   0.632   1.743   5.449
  579SOL    HW2 2196   0.740   1.666   5.354
  580SOL     OW 2197   1.726   0.135   4.247
  580SOL    HW1 2198   1.799   0.118   4.180
  580SOL    HW2 2199   1.695   0.048   4.285
  581SOL     OW 2200   1.388   1.573   4.201
  581SOL    HW1 2201   1.455   1.585   4.127
  581SOL    HW2 2202   1.348   1.662   4.224
  582SOL     OW 2203   0.130   1.794   5.575
  582SOL    HW1 2204   0.089   1.720   5.628
  582SOL    HW2 2205   0.194   1.845   5.633
  583SOL     OW 2206   1.280   0.927   4.396
  583SOL    HW1 2207   1.340   0.846   4.398
  583SOL    HW2 2208   1.320   0.996   4.336
  584SOL     OW 2209   0.830   1.273   5.146
  584SOL    HW1 2210   0.825   1.306   5.241
  584SOL    HW2 2211   0.744   1.292   5.100
  585SOL     OW 2212   0.672   1.616   3.878
  585SOL    HW1 2213   0.681   1.626   3.779
  585SOL    HW2 2214   0.632   1.527   3.899
  586SOL     OW 2215   1.650   1.720   5.118
  586SOL    HW1 2216   1.703   1.730   5.034
  586SOL    HW2 2217   1.623   1.810   5.152
  587SOL     OW 2218   1.841   0.175   4.687
  587SOL    HW1 2219   1.880   0.090   4.651
  587SOL    HW2 2220   1.743   0.177   4.668
  588SOL     OW 2221   0.263   0.326   4.444
  588SOL    HW1 2222   0.184   0.377   4.410
  588SOL    HW2 2223   0.254   0.311   4.542
  589SOL     OW 2224   1.194   1.612   3.755
  589SOL    HW1 2225   1.200   1.519   3.792
  589SOL    HW2 2226   1.135   1.612   3.675
  590SOL     OW 2227   0.822   1.002   5.096
  590SOL    HW1 2228   0.862   1.001   5.004
  590SOL    HW2 2229   0.832   1.094   5.136
  591SOL     OW 2230   0.916   0.910   4.015
  591SOL    HW1 2231   0.979   0.948   3.947
  591SOL    HW2 2232   0.956   0.827   4.054
  592SOL     OW 2233   1.504   1.607   3.768
  592SOL    HW1 2234   1.412   1.644   3.775
  592SOL    HW2 2235   1.542   1.627   3.678
  593SOL     OW 2236   0.372   1.288   5.214
  593SOL    HW1 2237   0.359   1.381   5.180
  593SOL    HW2 2238   0.288   1.236   5.201
  594SOL     OW 2239   1.614   1.292   5.013
  594SOL    HW1 2240   1.674   1.295   5.093
  594SOL    HW2 2241   1.539   1.356   5.026
  595SOL     OW 2242   1.039   1.098   4.420
  595SOL    HW1 2243   0.969   1.051   4.474
  595SOL    HW2 2244   1.098   1.030   4.377
  596SOL     OW 2245   1.014   0.236   4.695
  596SOL    HW1 2246   1.006   0.200   4.602
  596SOL    HW2 2247   1.012   0.160   4.760
  597SOL     OW 2248   0.590   1.487   4.215
  597SOL    HW1 2249   0.632   1.429   4.145
  597SOL    HW2 2250   0.546   1.566   4.171
  598SOL     OW 2251   1.709   0.385   5.105
  598SOL    HW1 2252   1.782   0.454   5.109
  598SOL    HW2 2253   1.737   0.310   5.046
  599SOL     OW 2254   0.255   1.348   4.014
  599SOL    HW1 2255   0.159   1.349   3.987
  599SOL    HW2 2256   0.267   1.401   4.098
  600SOL     OW 2257   0.105   1.013   5.450
  600SOL    HW1 2258   0.028   0.980   5.504
  600SOL    HW2 2259   0.190   0.983   5.492
  601SOL     OW 2260   0.672   0.203   5.213
  601SOL    HW1 2261   0.762   0.187   5.173
  601SOL    HW2 2262   0.680   0.208   5.312
  602SOL     OW 2263   0.075   0.345   3.757
  602SOL    HW1 2264  -0.017   0.317   3.728
  602SOL    HW2 2265   0.106   0.422   3.701
  603SOL     OW 2266   1.440   0.856   5.122
  603SOL    HW1 2267   1.383   0.908   5.059
  603SOL    HW2 2268   1.536   0.868   5.098
  604SOL     OW 2269   0.072   0.166   4.042
  604SOL    HW1 2270   0.055   0.249   3.988
  604SOL    HW2 2271   0.162   0.129   4.020
  605SOL     OW 2272   1.183   1.335   3.843
  605SOL    HW1 2273   1.084   1.324   3.845
  605SOL    HW2 2274   1.217   1.350   3.936
  606SOL     OW 2275   0.613   0.842   5.155
  606SOL    HW1 2276   0.669   0.923   5.138
  606SOL    HW2 2277   0.672   0.762   5.158
  607SOL     OW 2278   1.493   1.767   4.683
  607SOL    HW1 2279   1.526   1.831   4.614
  607SOL    HW2 2280   1.559   1.761   4.758
  608SOL     OW 2281   0.716   0.565   5.432
  608SOL    HW1 2282   0.735   0.630   5.506
  608SOL    HW2 2283   0.776   0.485   5.441
  609SOL     OW 2284   1.450   1.220   5.357
  609SOL    HW1 2285   1.441   1.210   5.456
  609SOL    HW2 2286   1.546   1.213   5.331
  610SOL     OW 2287   0.390   1.741   5.284
  610SOL    HW1 2288   0.299   1.782   5.282
  610SOL    HW2 2289   0.383   1.647   5.316
  611SOL     OW 2290   1.674   0.883   4.978
  611SOL    HW1 2291   1.647   0.794   4.941
  611SOL    HW2 2292   1.675   0.951   4.905
  612SOL     OW 2293   1.225   0.325   4.173
  612SOL    HW1 2294   1.290   0.251   4.162
  612SOL    HW2 2295   1.245   0.375   4.257
  613SOL     OW 2296   0.594   0.745   4.376
  613SOL    HW1 2297   0.644   0.830   4.357
  613SOL    HW2 2298   0.506   0.747   4.328
  614SOL     OW 2299   1.777   0.342   5.366
  614SOL    HW1 2300   1.760   0.373   5.272
  614SOL    HW2 2301   1.693   0.305   5.404
  615SOL     OW 2302   1.730   0.934   5.241
  615SOL    HW1 2303   1.768   1.025   5.256
  615SOL    HW2 2304   1.722   0.917   5.142
  616SOL     OW 2305   0.859   1.374   3.740
  616SOL    HW1 2306   0.813   1.389   3.828
  616SOL    HW2 2307   0.903   1.459   3.710
  617SOL     OW 2308   0.661   1.790   4.677
  617SOL    HW1 2309   0.615   1.878   4.664
  617SOL    HW2 2310   0.760   1.802   4.670
  618SOL     OW 2311   0.859   0.956   4.585
  618SOL    HW1 2312   0.913   0.887   4.633
  618SOL    HW2 2313   0.827   1.025   4.651
  619SOL     OW 2314   1.083   0.984   3.811
  619SOL    HW1 2315   1.060   1.037   3.729
  619SOL    HW2 2316   1.164   0.928   3.792
  620SOL     OW 2317   1.861   1.569   4.575
  620SOL    HW1 2318   1.790   1.557   4.505
  620SOL    HW2 2319   1.862   1.490   4.635
  621SOL     OW 2320   0.221   1.314   5.568
  621SOL    HW1 2321   0.156   1.241   5.547
  621SOL    HW2 2322   0.225   1.328   5.666
  622SOL     OW 2323   0.079   1.240   4.377
  622SOL    HW1 2324   0.078   1.193   4.465
  622SOL    HW2 2325   0.161   1.212   4.326
  623SOL     OW 2326   0.672   1.391   5.348
  623SOL    HW1 2327   0.594   1.341   5.386
  623SOL    HW2 2328   0.669   1.486   5.379
  624SOL     OW 2329   1.824   0.192   4.951
  624SOL    HW1 2330   1.820   0.102   4.995
  624SOL    HW2 2331   1.827   0.181   4.852
  625SOL     OW 2332   0.428   0.424   4.244
  625SOL    HW1 2333   0.458   0.352   4.182
  625SOL    HW2 2334   0.389   0.384   4.327
  626SOL     OW 2335   1.705   1.487   4.828
  626SOL    HW1 2336   1.612   1.462   4.801
  626SOL    HW2 2337   1.731   1.437   4.910
  627SOL     OW 2338   0.317   0.547   5.004
  627SOL    HW1 2339   0.355   0.488   5.076
  627SOL    HW2 2340   0.357   0.521   4.916
  628SOL     OW 2341   0.812   1.586   4.411
  628SOL    HW1 2342   0.844   1.596   4.317
  628SOL    HW2 2343   0.733   1.524   4.413
  629SOL     OW 2344   1.424   0.214   4.836
  629SOL    HW1 2345   1.476   0.149   4.891
  629SOL    HW2 2346   1.375   0.277   4.897
  630SOL     OW 2347   1.001   0.034   4.878
  630SOL    HW1 2348   0.938  -0.038   4.847
  630SOL    HW2 2349   1.094  -0.002   4.878
  631SOL     OW 2350   0.770   1.330   4.025
  631SOL    HW1 2351   0.724   1.243   4.042
  631SOL    HW2 2352   0.861   1.327   4.066
  632SOL     OW 2353   0.618   1.567   5.008
  632SOL    HW1 2354   0.613   1.649   5.065
  632SOL    HW2 2355   0.707   1.564   4.963
  633SOL     OW 2356   1.352   0.052   3.892
  633SOL    HW1 2357   1.387   0.011   3.808
  633SOL    HW2 2358   1.262   0.014   3.912
  634SOL     OW 2359   1.300   0.453   4.415
  634SOL    HW1 2360   1.241   0.533   4.419
  634SOL    HW2 2361   1.315   0.418   4.508
  635SOL     OW 2362   1.593   0.221   4.606
  635SOL    HW1 2363   1.509   0.220   4.660
  635SOL    HW2 2364   1.595   0.304   4.550
  636SOL     OW 2365   0.039   1.077   4.024
  636SOL    HW1 2366   0.138   1.066   4.015
  636SOL    HW2 2367  -0.001   0.991   4.056
  637SOL     OW 2368   0.875   1.646   4.061
  637SOL    HW1 2369   0.798   1.611   4.007
  637SOL    HW2 2370   0.843   1.717   4.123
  638SOL     OW 2371   0.230   0.628   5.699
  638SOL    HW1 2372   0.137   0.626   5.736
  638SOL    HW2 2373   0.231   0.589   5.607
  639SOL     OW 2374   0.225   0.275   6.582
  639SOL    HW1 2375   0.260   0.258   6.674
  639SOL    HW2 2376   0.137   0.230   6.570
  640SOL     OW 2377   0.019   0.368   6.233
  640SOL    HW1 2378  -0.063   0.411   6.272
  640SOL    HW2 2379  -0.009   0.295   6.170
  641SOL     OW 2380   0.569   1.275   6.751
  641SOL    HW1 2381   0.476   1.268   6.714
  641SOL    HW2 2382   0.580   1.364   6.795
  642SOL     OW 2383   1.555   1.511   6.289
  642SOL    HW1 2384   1.498   1.495   6.370
  642SOL    HW2 2385   1.496   1.521   6.209
  643SOL     OW 2386   1.135   0.703   6.303
  643SOL    HW1 2387   1.192   0.781   6.278
  643SOL    HW2 2388   1.075   0.729   6.379
  644SOL     OW 2389   1.755   0.607   5.817
  644SOL    HW1 2390   1.743   0.594   5.718
  644SOL    HW2 2391   1.725   0.526   5.866
  645SOL     OW 2392   0.768   1.144   6.609
  645SOL    HW1 2393   0.690   1.161   6.669
  645SOL    HW2 2394   0.802   1.231   6.573
  646SOL     OW 2395   0.850   0.798   7.409
  646SOL    HW1 2396   0.846   0.874   7.474
  646SOL    HW2 2397   0.872   0.834   7.318
  647SOL     OW 2398   0.685   1.012   6.251
  647SOL    HW1 2399   0.754   0.996   6.321
  647SOL    HW2 2400   0.612   1.069   6.289
  648SOL     OW 2401   0.686   1.161   7.389
  648SOL    HW1 2402   0.746   1.240   7.403
  648SOL    HW2 2403   0.600   1.192   7.348
  649SOL     OW 2404   0.335   1.435   6.647
  649SOL    HW1 2405   0.257   1.404   6.594
  649SOL    HW2 2406   0.393   1.493   6.590
  650SOL     OW 2407   1.460   1.505   6.925
  650SOL    HW1 2408   1.484   1.599   6.951
  650SOL    HW2 2409   1.444   1.451   7.007
  651SOL     OW 2410   0.438   0.392   7.085
  651SOL    HW1 2411   0.520   0.336   7.094
  651SOL    HW2 2412   0.357   0.334   7.089
  652SOL     OW 2413   1.603   0.447   6.323
  652SOL    HW1 2414   1.529   0.493   6.273
  652SOL    HW2 2415   1.654   0.515   6.376
  653SOL     OW 2416   0.231   1.713   6.069
  653SOL    HW1 2417   0.265   1.790   6.123
  653SOL    HW2 2418   0.275   1.713   5.979
  654SOL     OW 2419   1.127   1.341   7.276
  654SOL    HW1 2420   1.174   1.341   7.364
  654SOL    HW2 2421   1.079   1.254   7.265
  655SOL     OW 2422   0.230   1.434   6.124
  655SOL    HW1 2423   0.204   1.530   6.124
  655SOL    HW2 2424   0.159   1.380   6.169
  656SOL     OW 2425   0.240   1.091   6.472
  656SOL    HW1 2426   0.254   1.007   6.524
  656SOL    HW2 2427   0.185   1.155   6.527
  657SOL     OW 2428   0.620   1.786   7.025
  657SOL    HW1 2429   0.528   1.769   7.060
  657SOL    HW2 2430   0.648   1.878   7.051
  658SOL     OW 2431   0.606   0.964   5.709
  658SOL    HW1 2432   0.613   1.048   5.655
  658SOL    HW2 2433   0.652   0.977   5.797
  659SOL     OW 2434   1.594   0.114   7.066
  659SOL    HW1 2435   1.576   0.181   6.994
  659SOL    HW2 2436   1.591   0.160   7.155
  660SOL     OW 2437   0.122   0.643   6.149
  660SOL    HW1 2438   0.077   0.555   6.166
  660SOL    HW2 2439   0.121   0.697   6.233
  661SOL     OW 2440   0.027   1.596   5.703
  661SOL    HW1 2441   0.008   1.500   5.724
  661SOL    HW2 2442  -0.006   1.654   5.778
  662SOL     OW 2443   1.689   0.922   6.198
  662SOL    HW1 2444   1.784   0.893   6.206
  662SOL    HW2 2445   1.681   0.987   6.123
  663SOL     OW 2446   1.641   1.108   6.018
  663SOL    HW1 2447   1.727   1.110   5.966
  663SOL    HW2 2448   1.655   1.155   6.106
  664SOL     OW 2449   0.113   0.737   7.183
  664SOL    HW1 2450   0.201   0.724   7.228
  664SOL    HW2 2451   0.100   0.834   7.161
  665SOL     OW 2452   0.613   1.365   6.312
  665SOL    HW1 2453   0.564   1.278   6.321
  665SOL    HW2 2454   0.590   1.408   6.225
  666SOL     OW 2455   1.293   1.228   7.009
  666SOL    HW1 2456   1.330   1.155   6.951
  666SOL    HW2 2457   1.345   1.233   7.094
  667SOL     OW 2458   0.809   0.004   6.088
  667SOL    HW1 2459   0.849   0.095   6.079
  667SOL    HW2 2460   0.709   0.012   6.094
  668SOL     OW 2461   0.197   0.976   6.850
  668SOL    HW1 2462   0.286   0.931   6.836
  668SOL    HW2 2463   0.124   0.911   6.831
  669SOL     OW 2464   1.525   0.999   5.776
  669SOL    HW1 2465   1.462   0.923   5.789
  669SOL    HW2 2466   1.573   1.017   5.862
  670SOL     OW 2467   1.187   1.792   7.202
  670SOL    HW1 2468   1.211   1.852   7.126
  670SOL    HW2 2469   1.194   1.697   7.172
  671SOL     OW 2470   0.317   0.251   7.387
  671SOL    HW1 2471   0.388   0.322   7.393
  671SOL    HW2 2472   0.229   0.290   7.415
  672SOL     OW 2473   1.466   1.417   6.539
  672SOL    HW1 2474   1.407   1.423   6.619
  672SOL    HW2 2475   1.451   1.329   6.493
  673SOL     OW 2476   1.667   1.714   6.158
  673SOL    HW1 2477   1.626   1.691   6.070
  673SOL    HW2 2478   1.649   1.640   6.223
  674SOL     OW 2479   0.598   0.729   5.856
  674SOL    HW1 2480   0.622   0.798   5.788
  674SOL    HW2 2481   0.520   0.762   5.910
  675SOL     OW 2482   1.281   0.345   6.530
  675SOL    HW1 2483   1.195   0.295   6.517
  675SOL    HW2 2484   1.343   0.291   6.586
  676SOL     OW 2485   1.576   1.662   5.893
  676SOL    HW1 2486   1.665   1.708   5.896
  676SOL    HW2 2487   1.555   1.638   5.798
  677SOL     OW 2488   0.807   0.605   7.051
  677SOL    HW1 2489   0.760   0.602   7.140
  677SOL    HW2 2490   0.756   0.550   6.985
  678SOL     OW 2491   1.394   0.469   7.260
  678SOL    HW1 2492   1.374   0.512   7.348
  678SOL    HW2 2493   1.472   0.407   7.269
  679SOL     OW 2494   0.973   0.890   7.158
  679SOL    HW1 2495   1.019   0.806   7.129
  679SOL    HW2 2496   0.917   0.924   7.083
  680SOL     OW 2497   0.991   0.410   6.828
  680SOL    HW1 2498   0.914   0.444   6.882
  680SOL    HW2 2499   0.957   0.359   6.749
  681SOL     OW 2500   1.041   0.701   6.015
  681SOL    HW1 2501   1.067   0.697   6.111
  681SOL    HW2 2502   0.956   0.650   6.001
  682SOL     OW 2503   0.076   0.811   6.375
  682SOL    HW1 2504   0.175   0.799   6.384
  682SOL    HW2 2505   0.052   0.906   6.396
  683SOL     OW 2506   0.130   1.821   7.157
  683SOL    HW1 2507   0.120   1.806   7.256
  683SOL    HW2 2508   0.044   1.857   7.121
  684SOL     OW 2509   0.865   0.348   5.781
  684SOL    HW1 2510   0.924   0.411   5.732
  684SOL    HW2 2511   0.884   0.254   5.752
  685SOL     OW 2512   1.719   0.585   7.417
  685SOL    HW1 2513   1.693   0.674   7.381
  685SOL    HW2 2514   1.717   0.517   7.344
  686SOL     OW 2515   1.362   1.144   6.131
  686SOL    HW1 2516   1.445   1.115   6.083
  686SOL    HW2 2517   1.313   1.211   6.075
  687SOL     OW 2518   0.550   0.196   6.471
  687SOL    HW1 2519   0.545   0.191   6.571
  687SOL    HW2 2520   0.552   0.292   6.442
  688SOL     OW 2521   1.008   1.456   6.063
  688SOL    HW1 2522   0.962   1.528   6.011
  688SOL    HW2 2523   1.004   1.476   6.161
  689SOL     OW 2524   0.351   1.801   6.439
  689SOL    HW1 2525   0.401   1.715   6.445
  689SOL    HW2 2526   0.416   1.878   6.436
  690SOL     OW 2527   1.795   1.066   6.459
  690SOL    HW1 2528   1.733   1.051   6.383
  690SOL    HW2 2529   1.743   1.077   6.544
  691SOL     OW 2530   1.227   1.550   7.092
  691SOL    HW1 2531   1.233   1.473   7.156
  691SOL    HW2 2532   1.175   1.524   7.012
  692SOL     OW 2533   0.321   0.943   5.828
  692SOL    HW1 2534   0.403   0.982   5.786
  692SOL    HW2 2535   0.294   0.861   5.779
  693SOL     OW 2536   1.458   0.735   6.314
  693SOL    HW1 2537   1.453   0.670   6.389
  693SOL    HW2 2538   1.538   0.794   6.327
  694SOL     OW 2539   0.461   1.266   7.313
  694SOL    HW1 2540   0.411   1.267   7.227
  694SOL    HW2 2541   0.398   1.248   7.389
  695SOL     OW 2542   1.111   1.776   5.823
  695SOL    HW1 2543   1.051   1.714   5.873
  695SOL    HW2 2544   1.142   1.732   5.738
  696SOL     OW 2545   0.202   0.285   7.084
  696SOL    HW1 2546   0.122   0.345   7.071
  696SOL    HW2 2547   0.192   0.236   7.170
  697SOL     OW 2548   1.632   1.377   5.667
  697SOL    HW1 2549   1.600   1.471   5.657
  697SOL    HW2 2550   1.556   1.314   5.655
  698SOL     OW 2551   0.464   1.743   5.909
  698SOL    HW1 2552   0.497   1.782   5.995
  698SOL    HW2 2553   0.540   1.736   5.844
  699SOL     OW 2554   1.400   0.107   6.012
  699SOL    HW1 2555   1.376   0.070   5.922
  699SOL    HW2 2556   1.499   0.123   6.016
  700SOL     OW 2557   0.249   1.785   6.827
  700SOL    HW1 2558   0.306   1.720   6.877
  700SOL    HW2 2559   0.233   1.752   6.734
  701SOL     OW 2560   0.940   1.698   6.490
  701SOL    HW1 2561   1.020   1.641   6.511
  701SOL    HW2 2562   0.891   1.658   6.413
  702SOL     OW 2563   0.382   0.700   6.066
  702SOL    HW1 2564   0.427   0.610   6.063
  702SOL    HW2 2565   0.288   0.689   6.099
  703SOL     OW 2566   1.547   0.222   7.315
  703SOL    HW1 2567   1.542   0.259   7.407
  703SOL    HW2 2568   1.475   0.153   7.303
  704SOL     OW 2569   0.614   0.122   5.703
  704SOL    HW1 2570   0.712   0.100   5.710
  704SOL    HW2 2571   0.583   0.105   5.610
  705SOL     OW 2572   0.781   0.264   7.335
  705SOL    HW1 2573   0.848   0.203   7.378
  705SOL    HW2 2574   0.708   0.283   7.400
  706SOL     OW 2575   0.888   1.514   6.781
  706SOL    HW1 2576   0.865   1.489   6.687
  706SOL    HW2 2577   0.949   1.445   6.820
  707SOL     OW 2578   1.351   0.590   7.019
  707SOL    HW1 2579   1.379   0.547   7.104
  707SOL    HW2 2580   1.376   0.686   7.020
  708SOL     OW 2581   0.803   1.402   6.510
  708SOL    HW1 2582   0.893   1.416   6.468
  708SOL    HW2 2583   0.732   1.404   6.439
  709SOL     OW 2584   0.922   0.503   6.485
  709SOL    HW1 2585   0.897   0.494   6.389
  709SOL    HW2 2586   0.970   0.421   6.516
  710SOL     OW 2587   0.539   0.064   6.098
  710SOL    HW1 2588   0.458   0.065   6.156
  710SOL    HW2 2589   0.542   0.147   6.043
  711SOL     OW 2590   1.434   1.188   5.627
  711SOL    HW1 2591   1.466   1.112   5.684
  711SOL    HW2 2592   1.342   1.215   5.657
  712SOL     OW 2593   0.297   0.035   5.757
  712SOL    HW1 2594   0.346   0.119   5.736
  712SOL    HW2 2595   0.359  -0.030   5.802
  713SOL     OW 2596   0.935   0.236   6.066
  713SOL    HW1 2597   0.887   0.277   5.988
  713SOL    HW2 2598   1.034   0.234   6.047
  714SOL     OW 2599   1.076   0.683   7.050
  714SOL    HW1 2600   0.996   0.622   7.053
  714SOL    HW2 2601   1.157   0.630   7.026
  715SOL     OW 2602   1.227   1.570   6.379
  715SOL    HW1 2603   1.248   1.644   6.314
  715SOL    HW2 2604   1.295   1.570   6.452
  716SOL     OW 2605   0.459   1.152   6.327
  716SOL    HW1 2606   0.388   1.125   6.392
  716SOL    HW2 2607   0.433   1.124   6.234
  717SOL     OW 2608   1.271   1.797   6.177
  717SOL    HW1 2609   1.315   1.861   6.113
  717SOL    HW2 2610   1.221   1.849   6.247
  718SOL     OW 2611   1.032   0.549   5.602
  718SOL    HW1 2612   0.991   0.631   5.563
  718SOL    HW2 2613   1.096   0.575   5.675
  719SOL     OW 2614   0.078   0.556   6.972
  719SOL    HW1 2615   0.170   0.555   6.931
  719SOL    HW2 2616   0.072   0.630   7.039
  720SOL     OW 2617   0.561   0.222   6.733
  720SOL    HW1 2618   0.599   0.138   6.770
  720SOL    HW2 2619   0.473   0.241   6.777
  721SOL     OW 2620   0.866   0.454   6.228
  721SOL    HW1 2621   0.834   0.526   6.166
  721SOL    HW2 2622   0.890   0.373   6.175
  722SOL     OW 2623   1.017   0.039   6.339
  722SOL    HW1 2624   0.945   0.044   6.270
  722SOL    HW2 2625   0.993  -0.030   6.408
  723SOL     OW 2626   1.429   1.173   6.453
  723SOL    HW1 2627   1.374   1.089   6.446
  723SOL    HW2 2628   1.455   1.202   6.361
  724SOL     OW 2629   1.466   0.590   6.578
  724SOL    HW1 2630   1.436   0.495   6.585
  724SOL    HW2 2631   1.539   0.606   6.644
  725SOL     OW 2632   1.857   0.833   5.963
  725SOL    HW1 2633   1.899   0.769   6.027
  725SOL    HW2 2634   1.819   0.782   5.885
  726SOL     OW 2635   0.488   1.385   5.760
  726SOL    HW1 2636   0.401   1.370   5.807
  726SOL    HW2 2637   0.471   1.411   5.665
  727SOL     OW 2638   1.664   1.280   6.243
  727SOL    HW1 2639   1.763   1.288   6.257
  727SOL    HW2 2640   1.619   1.364   6.274
  728SOL     OW 2641   1.390   0.575   5.664
  728SOL    HW1 2642   1.336   0.554   5.745
  728SOL    HW2 2643   1.481   0.534   5.673
  729SOL     OW 2644   0.527   0.256   5.914
  729SOL    HW1 2645   0.554   0.197   5.839
  729SOL    HW2 2646   0.527   0.351   5.883
  730SOL     OW 2647   1.754   1.223   7.174
  730SOL    HW1 2648   1.845   1.184   7.161
  730SOL    HW2 2649   1.762   1.319   7.198
  731SOL     OW 2650   1.064   1.347   6.926
  731SOL    HW1 2651   0.984   1.324   6.981
  731SOL    HW2 2652   1.147   1.321   6.975
  732SOL     OW 2653   1.592   1.629   7.211
  732SOL    HW1 2654   1.619   1.663   7.121
  732SOL    HW2 2655   1.671   1.591   7.257
  733SOL     OW 2656   1.111   1.195   6.686
  733SOL    HW1 2657   1.071   1.239   6.767
  733SOL    HW2 2658   1.070   1.232   6.603
  734SOL     OW 2659   1.638   1.099   6.665
  734SOL    HW1 2660   1.643   1.180   6.724
  734SOL    HW2 2661   1.552   1.101   6.614
  735SOL     OW 2662   0.915   0.089   6.988
  735SOL    HW1 2663   0.940   0.069   6.893
  735SOL    HW2 2664   0.987   0.145   7.030
  736SOL     OW 2665   0.980   1.116   7.305
  736SOL    HW1 2666   0.881   1.122   7.315
  736SOL    HW2 2667   1.003   1.036   7.249
  737SOL     OW 2668   0.705   1.050   5.954
  737SOL    HW1 2669   0.691   1.057   6.053
  737SOL    HW2 2670   0.789   0.999   5.936
  738SOL     OW 2671   0.410   0.813   6.837
  738SOL    HW1 2672   0.496   0.825   6.887
  738SOL    HW2 2673   0.368   0.726   6.864
  739SOL     OW 2674   1.274   0.386   6.848
  739SOL    HW1 2675   1.295   0.460   6.912
  739SOL    HW2 2676   1.185   0.403   6.805
  740SOL     OW 2677   0.064   1.564   6.917
  740SOL    HW1 2678   0.018   1.646   6.883
  740SOL    HW2 2679   0.162   1.583   6.926
  741SOL     OW 2680   0.367   1.100   6.087
  741SOL    HW1 2681   0.360   1.183   6.031
  741SOL    HW2 2682   0.371   1.020   6.027
  742SOL     OW 2683   0.566   0.537   6.451
  742SOL    HW1 2684   0.578   0.603   6.377
  742SOL    HW2 2685   0.612   0.571   6.534
  743SOL     OW 2686   1.252   1.348   5.974
  743SOL    HW1 2687   1.302   1.425   6.014
  743SOL    HW2 2688   1.157   1.350   6.006
  744SOL     OW 2689   1.272   1.445   6.728
  744SOL    HW1 2690   1.319   1.458   6.815
  744SOL    HW2 2691   1.206   1.371   6.737
  745SOL     OW 2692   1.582   0.639   6.058
  745SOL    HW1 2693   1.551   0.700   6.131
  745SOL    HW2 2694   1.632   0.691   5.989
  746SOL     OW 2695   0.354   1.510   6.915
  746SOL    HW1 2696   0.333   1.466   6.828
  746SOL    HW2 2697   0.451   1.536   6.918
  747SOL     OW 2698   0.402   0.751   7.184
  747SOL    HW1 2699   0.470   0.806   7.137
  747SOL    HW2 2700   0.442   0.663   7.211
  748SOL     OW 2701   1.587   0.779   7.256
  748SOL    HW1 2702   1.495   0.817   7.251
  748SOL    HW2 2703   1.647   0.826   7.191
  749SOL     OW 2704   1.013   0.105   7.356
  749SOL    HW1 2705   1.019   0.190   7.304
  749SOL    HW2 2706   1.045   0.029   7.299
  750SOL     OW 2707   0.504   0.050   7.326
  750SOL    HW1 2708   0.462  -0.007   7.256
  750SOL    HW2 2709   0.438   0.119   7.358
  751SOL     OW 2710   0.573   0.870   6.615
  751SOL    HW1 2711   0.617   0.959   6.606
  751SOL    HW2 2712   0.510   0.870   6.692
  752SOL     OW 2713   1.360   0.862   6.631
  752SOL    HW1 2714   1.285   0.862   6.565
  752SOL    HW2 2715   1.397   0.770   6.640
  753SOL     OW 2716   1.209   0.525   5.861
  753SOL    HW1 2717   1.222   0.441   5.915
  753SOL    HW2 2718   1.180   0.599   5.921
  754SOL     OW 2719   0.307   0.213   6.817
  754SOL    HW1 2720   0.284   0.250   6.907
  754SOL    HW2 2721   0.277   0.118   6.811
  755SOL     OW 2722   0.037   1.310   6.868
  755SOL    HW1 2723   0.090   1.261   6.936
  755SOL    HW2 2724   0.059   1.408   6.873
  756SOL     OW 2725   0.732   0.634   6.650
  756SOL    HW1 2726   0.791   0.608   6.574
  756SOL    HW2 2727   0.704   0.730   6.639
  757SOL     OW 2728   1.728   0.935   7.440
  757SOL    HW1 2729   1.682   0.928   7.351
  757SOL    HW2 2730   1.666   0.979   7.506
  758SOL     OW 2731   0.307   0.063   6.204
  758SOL    HW1 2732   0.296   0.157   6.237
  758SOL    HW2 2733   0.302   0.000   6.281
  759SOL     OW 2734   1.622   0.367   5.960
  759SOL    HW1 2735   1.624   0.291   6.024
  759SOL    HW2 2736   1.574   0.444   6.000
  760SOL     OW 2737   1.023   0.766   6.552
  760SOL    HW1 2738   1.038   0.787   6.648
  760SOL    HW2 2739   0.993   0.671   6.543
  761SOL     OW 2740   0.980   1.573   7.286
  761SOL    HW1 2741   0.960   1.617   7.198
  761SOL    HW2 2742   1.019   1.482   7.270
  762SOL     OW 2743   1.859   1.518   7.191
  762SOL    HW1 2744   1.873   1.545   7.096
  762SOL    HW2 2745   1.942   1.540   7.244
  763SOL     OW 2746   0.350   0.898   7.390
  763SOL    HW1 2747   0.426   0.942   7.438
  763SOL    HW2 2748   0.385   0.851   7.308
  764SOL     OW 2749   1.540   0.274   5.711
  764SOL    HW1 2750   1.479   0.199   5.734
  764SOL    HW2 2751   1.562   0.326   5.794
  765SOL     OW 2752   1.303   0.838   5.628
  765SOL    HW1 2753   1.337   0.745   5.643
  765SOL    HW2 2754   1.321   0.865   5.533
  766SOL     OW 2755   1.068   1.333   6.435
  766SOL    HW1 2756   1.075   1.249   6.380
  766SOL    HW2 2757   1.130   1.402   6.399
  767SOL     OW 2758   0.319   0.810   6.535
  767SOL    HW1 2759   0.412   0.846   6.540
  767SOL    HW2 2760   0.313   0.725   6.587
  768SOL     OW 2761   0.339   0.509   6.592
  768SOL    HW1 2762   0.287   0.426   6.575
  768SOL    HW2 2763   0.416   0.514   6.528
  769SOL     OW 2764   1.138   0.380   7.264
  769SOL    HW1 2765   1.093   0.443   7.328
  769SOL    HW2 2766   1.231   0.411   7.247
  770SOL     OW 2767   1.160   0.207   7.063
  770SOL    HW1 2768   1.160   0.271   7.140
  770SOL    HW2 2769   1.188   0.255   6.980
  771SOL     OW 2770   0.008   1.326   5.786
  771SOL    HW1 2771  -0.085   1.347   5.755
  771SOL    HW2 2772   0.018   1.227   5.799
  772SOL     OW 2773   0.088   1.801   6.513
  772SOL    HW1 2774   0.046   1.715   6.486
  772SOL    HW2 2775   0.182   1.804   6.479
  773SOL     OW 2776   0.504   1.568   6.496
  773SOL    HW1 2777   0.570   1.642   6.505
  773SOL    HW2 2778   0.548   1.489   6.454
  774SOL     OW 2779   1.002   0.796   6.824
  774SOL    HW1 2780   1.043   0.764   6.910
  774SOL    HW2 2781   0.906   0.769   6.821
  775SOL     OW 2782   0.040   0.544   6.700
  775SOL    HW1 2783   0.125   0.511   6.659
  775SOL    HW2 2784   0.053   0.559   6.798
  776SOL     OW 2785   0.189   0.520   7.308
  776SOL    HW1 2786   0.248   0.480   7.238
  776SOL    HW2 2787   0.131   0.591   7.267
  777SOL     OW 2788   1.369   0.950   7.246
  777SOL    HW1 2789   1.408   1.039   7.266
  777SOL    HW2 2790   1.379   0.930   7.149
  778SOL     OW 2791   0.815   0.572   5.911
  778SOL    HW1 2792   0.822   0.483   5.865
  778SOL    HW2 2793   0.721   0.606   5.903
  779SOL     OW 2794   1.657   0.604   6.792
  779SOL    HW1 2795   1.619   0.535   6.854
  779SOL    HW2 2796   1.739   0.568   6.748
  780SOL     OW 2797   0.252   1.564   7.330
  780SOL    HW1 2798   0.222   1.621   7.406
  780SOL    HW2 2799   0.245   1.467   7.356
  781SOL     OW 2800   0.671   0.464   6.855
  781SOL    HW1 2801   0.637   0.375   6.825
  781SOL    HW2 2802   0.697   0.518   6.775
  782SOL     OW 2803   0.930   1.678   7.051
  782SOL    HW1 2804   0.906   1.660   6.956
  782SOL    HW2 2805   0.960   1.772   7.061
  783SOL     OW 2806   0.473   0.500   5.777
  783SOL    HW1 2807   0.534   0.580   5.781
  783SOL    HW2 2808   0.378   0.531   5.784
  784SOL     OW 2809   0.159   1.137   7.052
  784SOL    HW1 2810   0.181   1.076   7.128
  784SOL    HW2 2811   0.169   1.088   6.966
  785SOL     OW 2812   1.347   1.059   6.820
  785SOL    HW1 2813   1.371   0.996   6.746
  785SOL    HW2 2814   1.257   1.099   6.802
  786SOL     OW 2815   1.302   0.855   5.895
  786SOL    HW1 2816   1.216   0.824   5.937
  786SOL    HW2 2817   1.298   0.841   5.796
  787SOL     OW 2818   1.759   1.747   6.740
  787SOL    HW1 2819   1.820   1.777   6.667
  787SOL    HW2 2820   1.721   1.658   6.718
  788SOL     OW 2821   1.252   1.731   6.714
  788SOL    HW1 2822   1.336   1.736   6.660
  788SOL    HW2 2823   1.229   1.635   6.732
  789SOL     OW 2824   0.083   1.258   6.608
  789SOL    HW1 2825   0.078   1.257   6.708
  789SOL    HW2 2826   0.000   1.217   6.570
  790SOL     OW 2827   0.688   1.662   7.302
  790SOL    HW1 2828   0.632   1.743   7.311
  790SOL    HW2 2829   0.740   1.666   7.216
  791SOL     OW 2830   1.726   0.135   6.109
  791SOL    HW1 2831   1.799   0.118   6.042
  791SOL    HW2 2832   1.695   0.048   6.147
  792SOL     OW 2833   1.388   1.573   6.063
  792SOL    HW1 2834   1.455   1.585   5.989
  792SOL    HW2 2835   1.348   1.662   6.086
  793SOL     OW 2836   0.130   1.794   7.437
  793SOL    HW1 2837   0.089   1.720   7.490
  793SOL    HW2 2838   0.194   1.845   7.495
  794SOL     OW 2839   1.280   0.927   6.258
  794SOL    HW1 2840   1.340   0.846   6.260
  794SOL    HW2 2841   1.320   0.996   6.198
  795SOL     OW 2842   0.830   1.273   7.008
  795SOL    HW1 2843   0.825   1.306   7.103
  795SOL    HW2 2844   0.744   1.292   6.962
  796SOL     OW 2845   0.672   1.616   5.740
  796SOL    HW1 2846   0.681   1.626   5.641
  796SOL    HW2 2847   0.632   1.527   5.761
  797SOL     OW 2848   1.650   1.720   6.980
  797SOL    HW1 2849   1.703   1.730   6.896
  797SOL    HW2 2850   1.623   1.810   7.014
  798SOL     OW 2851   1.841   0.175   6.549
  798SOL    HW1 2852   1.880   0.090   6.513
  798SOL    HW2 2853   1.743   0.177   6.530
  799SOL     OW 2854   0.263   0.326   6.306
  799SOL    HW1 2855   0.184   0.377   6.272
  799SOL    HW2 2856   0.254   0.311   6.404
  800SOL     OW 2857   1.194   1.612   5.617
  800SOL    HW1 2858   1.200   1.519   5.654
  800SOL    HW2 2859   1.135   1.612   5.537
  801SOL     OW 2860   0.822   1.002   6.958
  801SOL    HW1 2861   0.862   1.001   6.866
  801SOL    HW2 2862   0.832   1.094   6.998
  802SOL     OW 2863   0.916   0.910   5.877
  802SOL    HW1 2864   0.979   0.948   5.809
  802SOL    HW2 2865   0.956   0.827   5.916
  803SOL     OW 2866   1.504   1.607   5.630
  803SOL    HW1 2867   1.412   1.644   5.637
  803SOL    HW2 2868   1.542   1.627   5.540
  804SOL     OW 2869   0.372   1.288   7.076
  804SOL    HW1 2870   0.359   1.381   7.042
  804SOL    HW2 2871   0.288   1.236   7.063
  805SOL     OW 2872   1.614   1.292   6.875
  805SOL    HW1 2873   1.674   1.295   6.955
  805SOL    HW2 2874   1.539   1.356   6.888
  806SOL     OW 2875   1.039   1.098   6.282
  806SOL    HW1 2876   0.969   1.051   6.336
  806SOL    HW2 2877   1.098   1.030   6.239
  807SOL     OW 2878   1.014   0.236   6.557
  807SOL    HW1 2879   1.006   0.200   6.464
  807SOL    HW2 2880   1.012   0.160   6.622
  808SOL     OW 2881   0.590   1.487   6.077
  808SOL    HW1 2882   0.632   1.429   6.007
  808SOL    HW2 2883   0.546   1.566   6.033
  809SOL     OW 2884   1.709   0.385   6.967
  809SOL    HW1 2885   1.782   0.454   6.971
  809SOL    HW2 2886   1.737   0.310   6.908
  810SOL     OW 2887   0.255   1.348   5.876
  810SOL    HW1 2888   0.159   1.349   5.849
  810SOL    HW2 2889   0.267   1.401   5.960
  811SOL     OW 2890   0.105   1.013   7.312
  811SOL    HW1 2891   0.028   0.980   7.366
  811SOL    HW2 2892   0.190   0.983   7.354
  812SOL     OW 2893   0.672   0.203   7.075
  812SOL    HW1 2894   0.762   0.187   7.035
  812SOL    HW2 2895   0.680   0.208   7.174
  813SOL     OW 2896   0.075   0.345   5.619
  813SOL    HW1 2897  -0.017   0.317   5.590
  813SOL    HW2 2898   0.106   0.422   5.563
  814SOL     OW 2899   1.440   0.856   6.984
  814SOL    HW1 2900   1.383   0.908   6.921
  814SOL    HW2 2901   1.536   0.868   6.960
  815SOL     OW 2902   0.072   0.166   5.904
  815SOL    HW1 2903   0.055   0.249   5.850
  815SOL    HW2 2904   0.162   0.129   5.882
  816SOL     OW 2905   1.183   1.335   5.705
  816SOL    HW1 2906   1.084   1.324   5.707
  816SOL    HW2 2907   1.217   1.350   5.798
  817SOL     OW 2908   0.613   0.842   7.017
  817SOL    HW1 2909   0.669   0.923   7.000
  817SOL    HW2 2910   0.672   0.762   7.020
  818SOL     OW 2911   1.493   1.767   6.545
  818SOL    HW1 2912   1.526   1.831   6.476
  818SOL    HW2 2913   1.559   1.761   6.620
  819SOL     OW 2914   0.716   0.565   7.294
  819SOL    HW1 2915   0.735   0.630   7.368
  819SOL    HW2 2916   0.776   0.485   7.303
  820SOL     OW 2917   1.450   1.220   7.219
  820SOL    HW1 2918   1.441   1.210   7.318
  820SOL    HW2 2919   1.546   1.213   7.193
  821SOL     OW 2920   0.390   1.741   7.146
  821SOL    HW1 2921   0.299   1.782   7.144
  821SOL    HW2 2922   0.383   1.647   7.178
  822SOL     OW 2923   1.674   0.883   6.840
  822SOL    HW1 2924   1.647   0.794   6.803
  822SOL    HW2 2925   1.675   0.951   6.767
  823SOL     OW 2926   1.225   0.325   6.035
  823SOL    HW1 2927   1.290   0.251   6.024
  823SOL    HW2 2928   1.245   0.375   6.119
  824SOL     OW 2929   0.594   0.745   6.238
  824SOL    HW1 2930   0.644   0.830   6.219
  824SOL    HW2 2931   0.506   0.747   6.190
  825SOL     OW 2932   1.777   0.342   7.228
  825SOL    HW1 2933   1.760   0.373   7.134
  825SOL    HW2 2934   1.693   0.305   7.266
  826SOL     OW 2935   1.730   0.934   7.103
  826SOL    HW1 2936   1.768   1.025   7.118
  826SOL    HW2 2937   1.722   0.917   7.004
  827SOL     OW 2938   0.859   1.374   5.602
  827SOL    HW1 2939   0.813   1.389   5.690
  827SOL    HW2 2940   0.903   1.459   5.572
  828SOL     OW 2941   0.661   1.790   6.539
  828SOL    HW1 2942   0.615   1.878   6.526
  828SOL    HW2 2943   0.760   1.802   6.532
  829SOL     OW 2944   0.859   0.956   6.447
  829SOL    HW1 2945   0.913   0.887   6.495
  829SOL    HW2 2946   0.827   1.025   6.513
  830SOL     OW 2947   1.083   0.984   5.673
  830SOL    HW1 2948   1.060   1.037   5.591
  830SOL    HW2 2949   1.164   0.928   5.654
  831SOL     OW 2950   1.861   1.569   6.437
  831SOL    HW1 2951   1.790   1.557   6.367
  831SOL    HW2 2952   1.862   1.490   6.497
  832SOL     OW 2953   0.221   1.314   7.430
  832SOL    HW1 2954   0.156   1.241   7.409
  832SOL    HW2 2955   0.225   1.328   7.528
  833SOL     OW 2956   0.079   1.240   6.239
  833SOL    HW1 2957   0.078   1.193   6.327
  833SOL    HW2 2958   0.161   1.212   6.188
  834SOL     OW 2959   0.672   1.391   7.210
  834SOL    HW1 2960   0.594   1.341   7.248
  834SOL    HW2 2961   0.669   1.486   7.241
  835SOL     OW 2962   1.824   0.192   6.813
  835SOL    HW1 2963   1.820   0.102   6.857
  835SOL    HW2 2964   1.827   0.181   6.714
  836SOL     OW 2965   0.428   0.424   6.106
  836SOL    HW1 2966   0.458   0.352   6.044
  836SOL    HW2 2967   0.389   0.384   6.189
  837SOL     OW 2968   1.705   1.487   6.690
  837SOL    HW1 2969   1.612   1.462   6.663
  837SOL    HW2 2970   1.731   1.437   6.772
  838SOL     OW 2971   0.317   0.547   6.866
  838SOL    HW1 2972   0.355   0.488   6.938
  838SOL    HW2 2973   0.357   0.521   6.778
  839SOL     OW 2974   0.812   1.586   6.273
  839SOL    HW1 2975   0.844   1.596   6.179
  839SOL    HW2 2976   0.733   1.524   6.275
  840SOL     OW 2977   1.424   0.214   6.698
  840SOL    HW1 2978   1.476   0.149   6.753
  840SOL    HW2 2979   1.375   0.277   6.759
  841SOL     OW 2980   1.001   0.034   6.740
  841SOL    HW1 2981   0.938  -0.038   6.709
  841SOL    HW2 2982   1.094  -0.002   6.740
  842SOL     OW 2983   0.770   1.330   5.887
  842SOL    HW1 2984   0.724   1.243   5.904
  842SOL    HW2 2985   0.861   1.327   5.928
  843SOL     OW 2986   0.618   1.567   6.870
  843SOL    HW1 2987   0.613   1.649   6.927
  843SOL    HW2 2988   0.707   1.564   6.825
  844SOL     OW 2989   1.352   0.052   5.754
  844SOL    HW1 2990   1.387   0.011   5.670
  844SOL    HW2 2991   1.262   0.014   5.774
  845SOL     OW 2992   1.300   0.453   6.277
  845SOL    HW1 2993   1.241   0.533   6.281
  845SOL    HW2 2994   1.315   0.418   6.370
  846SOL     OW 2995   1.593   0.221   6.468
  846SOL    HW1 2996   1.509   0.220   6.522
  846SOL    HW2 2997   1.595   0.304   6.412
  847SOL     OW 2998   0.039   1.077   5.886
  847SOL    HW1 2999   0.138   1.066   5.877
  847SOL    HW2 3000  -0.001   0.991   5.918
  848SOL     OW 3001   0.875   1.646   5.923
  848SOL    HW1 3002   0.798   1.611   5.869
  848SOL    HW2 3003   0.843   1.717   5.985
  849SOL     OW 3004   0.230   0.628   7.561
  849SOL    HW1 3005   0.137   0.626   7.598
  849SOL    HW2 3006   0.231   0.589   7.469
  850SOL     OW 3007   0.225   0.275   8.444
  850SOL    HW1 3008   0.260   0.258   8.536
  850SOL    HW2 3009   0.137   0.230   8.432
  851SOL     OW 3010   0.019   0.368   8.095
  851SOL    HW1 3011  -0.063   0.411   8.134
  851SOL    HW2 3012  -0.009   0.295   8.032
  852SOL     OW 3013   0.569   1.275   8.613
  852SOL    HW1 3014   0.476   1.268   8.576
  852SOL    HW2 3015   0.580   1.364   8.657
  853SOL     OW 3016   1.555   1.511   8.151
  853SOL    HW1 3017   1.498   1.495   8.232
  853SOL    HW2 3018   1.496   1.521   8.071
  854SOL     OW 3019   1.135   0.703   8.165
  854SOL    HW1 3020   1.192   0.781   8.140
  854SOL    HW2 3021   1.075   0.729   8.241
  855SOL     OW 3022   1.755   0.607   7.679
  855SOL    HW1 3023   1.743   0.594   7.580
  855SOL    HW2 3024   1.725   0.526   7.728
  856SOL     OW 3025   0.768   1.144   8.471
  856SOL    HW1 3026   0.690   1.161   8.531
  856SOL    HW2 3027   0.802   1.231   8.435
  857SOL     OW 3028   0.850   0.798   9.271
  857SOL    HW1 3029   0.846   0.874   9.336
  857SOL    HW2 3030   0.872   0.834   9.180
  858SOL     OW 3031   0.685   1.012   8.113
  858SOL    HW1 3032   0.754   0.996   8.183
  858SOL    HW2 3033   0.612   1.069   8.151
  859SOL     OW 3034   0.686   1.161   9.251
  859SOL    HW1 3035   0.746   1.240   9.265
  859SOL    HW2 3036   0.600   1.192   9.210
  860SOL     OW 3037   0.335   1.435   8.509
  860SOL    HW1 3038   0.257   1.404   8.456
  860SOL    HW2 3039   0.393   1.493   8.452
  861SOL     OW 3040   1.460   1.505   8.787
  861SOL    HW1 3041   1.484   1.599   8.813
  861SOL    HW2 3042   1.444   1.451   8.869
  862SOL     OW 3043   0.438   0.392   8.947
  862SOL    HW1 3044   0.520   0.336   8.956
  862SOL    HW2 3045   0.357   0.334   8.951
  863SOL     OW 3046   1.603   0.447   8.185
  863SOL    HW1 3047   1.529   0.493   8.135
  863SOL    HW2 3048   1.654   0.515   8.238
  864SOL     OW 3049   0.231   1.713   7.931
  864SOL    HW1 3050   0.265   1.790   7.985
  864SOL    HW2 3051   0.275   1.713   7.841
  865SOL     OW 3052   1.127   1.341   9.138
  865SOL    HW1 3053   1.174   1.341   9.226
  865SOL    HW2 3054   1.079   1.254   9.127
  866SOL     OW 3055   0.230   1.434   7.986
  866SOL    HW1 3056   0.204   1.530   7.986
  866SOL    HW2 3057   0.159   1.380   8.031
  867SOL     OW 3058   0.240   1.091   8.334
  867SOL    HW1 3059   0.254   1.007   8.386
  867SOL    HW2 3060   0.185   1.155   8.389
  868SOL     OW 3061   0.620   1.786   8.887
  868SOL    HW1 3062   0.528   1.769   8.922
  868SOL    HW2 3063   0.648   1.878   8.913
  869SOL     OW 3064   0.606   0.964   7.571
  869SOL    HW1 3065   0.613   1.048   7.517
  869SOL    HW2 3066   0.652   0.977   7.659
  870SOL     OW 3067   1.594   0.114   8.928
  870SOL    HW1 3068   1.576   0.181   8.856
  870SOL    HW2 3069   1.591   0.160   9.017
  871SOL     OW 3070   0.122   0.643   8.011
  871SOL    HW1 3071   0.077   0.555   8.028
  871SOL    HW2 3072   0.121   0.697   8.095
  872SOL     OW 3073   1.842   1.767   7.807
  872SOL    HW1 3074   1.896   1.738   7.887
  872SOL    HW2 3075   1.872   1.857   7.778
  873SOL     OW 3076   0.027   1.596   7.565
  873SOL    HW1 3077   0.008   1.500   7.586
  873SOL    HW2 3078  -0.006   1.654   7.640
  874SOL     OW 3079   1.689   0.922   8.060
  874SOL    HW1 3080   1.784   0.893   8.068
  874SOL    HW2 3081   1.681   0.987   7.985
  875SOL     OW 3082   1.641   1.108   7.880
  875SOL    HW1 3083   1.727   1.110   7.828
  875SOL    HW2 3084   1.655   1.155   7.968
  876SOL     OW 3085   0.113   0.737   9.045
  876SOL    HW1 3086   0.201   0.724   9.090
  876SOL    HW2 3087   0.100   0.834   9.023
  877SOL     OW 3088   0.613   1.365   8.174
  877SOL    HW1 3089   0.564   1.278   8.183
  877SOL    HW2 3090   0.590   1.408   8.087
  878SOL     OW 3091   1.293   1.228   8.871
  878SOL    HW1 3092   1.330   1.155   8.813
  878SOL    HW2 3093   1.345   1.233   8.956
  879SOL     OW 3094   0.809   0.004   7.950
  879SOL    HW1 3095   0.849   0.095   7.941
  879SOL    HW2 3096   0.709   0.012   7.956
  880SOL     OW 3097   0.197   0.976   8.712
  880SOL    HW1 3098   0.286   0.931   8.698
  880SOL    HW2 3099   0.124   0.911   8.693
  881SOL     OW 3100   1.525   0.999   7.638
  881SOL    HW1 3101   1.462   0.923   7.651
  881SOL    HW2 3102   1.573   1.017   7.724
  882SOL     OW 3103   1.187   1.792   9.064
  882SOL    HW1 3104   1.211   1.852   8.988
  882SOL    HW2 3105   1.194   1.697   9.034
  883SOL     OW 3106   0.317   0.251   9.249
  883SOL    HW1 3107   0.388   0.322   9.255
  883SOL    HW2 3108   0.229   0.290   9.277
  884SOL     OW 3109   1.466   1.417   8.401
  884SOL    HW1 3110   1.407   1.423   8.481
  884SOL    HW2 3111   1.451   1.329   8.355
  885SOL     OW 3112   1.667   1.714   8.020
  885SOL    HW1 3113   1.626   1.691   7.932
  885SOL    HW2 3114   1.649   1.640   8.085
  886SOL     OW 3115   0.598   0.729   7.718
  886SOL    HW1 3116   0.622   0.798   7.650
  886SOL    HW2 3117   0.520   0.762   7.772
  887SOL     OW 3118   1.281   0.345   8.392
  887SOL    HW1 3119   1.195   0.295   8.379
  887SOL    HW2 3120   1.343   0.291   8.448
  888SOL     OW 3121   1.576   1.662   7.755
  888SOL    HW1 3122   1.665   1.708   7.758
  888SOL    HW2 3123   1.555   1.638   7.660
  889SOL     OW 3124   0.807   0.605   8.913
  889SOL    HW1 3125   0.760   0.602   9.002
  889SOL    HW2 3126   0.756   0.550   8.847
  890SOL     OW 3127   1.394   0.469   9.122
  890SOL    HW1 3128   1.374   0.512   9.210
  890SOL    HW2 3129   1.472   0.407   9.131
  891SOL     OW 3130   0.973   0.890   9.020
  891SOL    HW1 3131   1.019   0.806   8.991
  891SOL    HW2 3132   0.917   0.924   8.945
  892SOL     OW 3133   0.991   0.410   8.690
  892SOL    HW1 3134   0.914   0.444   8.744
  892SOL    HW2 3135   0.957   0.359   8.611
  893SOL     OW 3136   1.041   0.701   7.877
  893SOL    HW1 3137   1.067   0.697   7.973
  893SOL    HW2 3138   0.956   0.650   7.863
  894SOL     OW 3139   0.076   0.811   8.237
  894SOL    HW1 3140   0.175   0.799   8.246
  894SOL    HW2 3141   0.052   0.906   8.258
  895SOL     OW 3142   0.130   1.821   9.019
  895SOL    HW1 3143   0.120   1.806   9.118
  895SOL    HW2 3144   0.044   1.857   8.983
  896SOL     OW 3145   0.865   0.348   7.643
  896SOL    HW1 3146   0.924   0.411   7.594
  896SOL    HW2 3147   0.884   0.254   7.614
  897SOL     OW 3148   1.719   0.585   9.279
  897SOL    HW1 3149   1.693   0.674   9.243
  897SOL    HW2 3150   1.717   0.517   9.206
  898SOL     OW 3151   1.362   1.144   7.993
  898SOL    HW1 3152   1.445   1.115   7.945
  898SOL    HW2 3153   1.313   1.211   7.937
  899SOL     OW 3154   0.550   0.196   8.333
  899SOL    HW1 3155   0.545   0.191   8.433
  899SOL    HW2 3156   0.552   0.292   8.304
  900SOL     OW 3157   1.008   1.456   7.925
  900SOL    HW1 3158   0.962   1.528   7.873
  900SOL    HW2 3159   1.004   1.476   8.023
  901SOL     OW 3160   0.351   1.801   8.301
  901SOL    HW1 3161   0.401   1.715   8.307
  901SOL    HW2 3162   0.416   1.878   8.298
  902SOL     OW 3163   1.795   1.066   8.321
  902SOL    HW1 3164   1.733   1.051   8.245
  902SOL    HW2 3165   1.743   1.077   8.406
  903SOL     OW 3166   1.227   1.550   8.954
  903SOL    HW1 3167   1.233   1.473   9.018
  903SOL    HW2 3168   1.175   1.524   8.874
  904SOL     OW 3169   0.321   0.943   7.690
  904SOL    HW1 3170   0.403   0.982   7.648
  904SOL    HW2 3171   0.294   0.861   7.641
  905SOL     OW 3172   1.458   0.735   8.176
  905SOL    HW1 3173   1.453   0.670   8.251
  905SOL    HW2 3174   1.538   0.794   8.189
  906SOL     OW 3175   0.461   1.266   9.175
  906SOL    HW1 3176   0.411   1.267   9.089
  906SOL    HW2 3177   0.398   1.248   9.251
  907SOL     OW 3178   1.111   1.776   7.685
  907SOL    HW1 3179   1.051   1.714   7.735
  907SOL    HW2 3180   1.142   1.732   7.600
  908SOL     OW 3181   0.202   0.285   8.946
  908SOL    HW1 3182   0.122   0.345   8.933
  908SOL    HW2 3183   0.192   0.236   9.032
  909SOL     OW 3184   1.632   1.377   7.529
  909SOL    HW1 3185   1.600   1.471   7.519
  909SOL    HW2 3186   1.556   1.314   7.517
  910SOL     OW 3187   0.464   1.743   7.771
  910SOL    HW1 3188   0.497   1.782   7.857
  910SOL    HW2 3189   0.540   1.736   7.706
  911SOL     OW 3190   1.400   0.107   7.874
  911SOL    HW1 3191   1.376   0.070   7.784
  911SOL    HW2 3192   1.499   0.123   7.878
  912SOL     OW 3193   0.249   1.785   8.689
  912SOL    HW1 3194   0.306   1.720   8.739
  912SOL    HW2 3195   0.233   1.752   8.596
  913SOL     OW 3196   0.940   1.698   8.352
  913SOL    HW1 3197   1.020   1.641   8.373
  913SOL    HW2 3198   0.891   1.658   8.275
  914SOL     OW 3199   0.382   0.700   7.928
  914SOL    HW1 3200   0.427   0.610   7.925
  914SOL    HW2 3201   0.288   0.689   7.961
  915SOL     OW 3202   1.547   0.222   9.177
  915SOL    HW1 3203   1.542   0.259   9.269
  915SOL    HW2 3204   1.475   0.153   9.165
  916SOL     OW 3205   0.614   0.122   7.565
  916SOL    HW1 3206   0.712   0.100   7.572
  916SOL    HW2 3207   0.583   0.105   7.472
  917SOL     OW 3208   0.781   0.264   9.197
  917SOL    HW1 3209   0.848   0.203   9.240
  917SOL    HW2 3210   0.708   0.283   9.262
  918SOL     OW 3211   0.888   1.514   8.643
  918SOL    HW1 3212   0.865   1.489   8.549
  918SOL    HW2 3213   0.949   1.445   8.682
  919SOL     OW 3214   1.351   0.590   8.881
  919SOL    HW1 3215   1.379   0.547   8.966
  919SOL    HW2 3216   1.376   0.686   8.882
  920SOL     OW 3217   0.803   1.402   8.372
  920SOL    HW1 3218   0.893   1.416   8.330
  920SOL    HW2 3219   0.732   1.404   8.301
  921SOL     OW 3220   0.922   0.503   8.347
  921SOL    HW1 3221   0.897   0.494   8.251
  921SOL    HW2 3222   0.970   0.421   8.378
  922SOL     OW 3223   0.539   0.064   7.960
  922SOL    HW1 3224   0.458   0.065   8.018
  922SOL    HW2 3225   0.542   0.147   7.905
  923SOL     OW 3226   1.434   1.188   7.489
  923SOL    HW1 3227   1.466   1.112   7.546
  923SOL    HW2 3228   1.342   1.215   7.519
  924SOL     OW 3229   0.297   0.035   7.619
  924SOL    HW1 3230   0.346   0.119   7.598
  924SOL    HW2 3231   0.359  -0.030   7.664
  925SOL     OW 3232   0.935   0.236   7.928
  925SOL    HW1 3233   0.887   0.277   7.850
  925SOL    HW2 3234   1.034   0.234   7.909
  926SOL     OW 3235   1.076   0.683   8.912
  926SOL    HW1 3236   0.996   0.622   8.915
  926SOL    HW2 3237   1.157   0.630   8.888
  927SOL     OW 3238   1.227   1.570   8.241
  927SOL    HW1 3239   1.248   1.644   8.176
  927SOL    HW2 3240   1.295   1.570   8.314
  928SOL     OW 3241   0.459   1.152   8.189
  928SOL    HW1 3242   0.388   1.125   8.254
  928SOL    HW2 3243   0.433   1.124   8.096
  929SOL     OW 3244   1.271   1.797   8.039
  929SOL    HW1 3245   1.315   1.861   7.975
  929SOL    HW2 3246   1.221   1.849   8.109
  930SOL     OW 3247   1.032   0.549   7.464
  930SOL    HW1 3248   0.991   0.631   7.425
  930SOL    HW2 3249   1.096   0.575   7.537
  931SOL     OW 3250   0.078   0.556   8.834
  931SOL    HW1 3251   0.170   0.555   8.793
  931SOL    HW2 3252   0.072   0.630   8.901
  932SOL     OW 3253   0.561   0.222   8.595
  932SOL    HW1 3254   0.599   0.138   8.632
  932SOL    HW2 3255   0.473   0.241   8.639
  933SOL     OW 3256   0.866   0.454   8.090
  933SOL    HW1 3257   0.834   0.526   8.028
  933SOL    HW2 3258   0.890   0.373   8.037
  934SOL     OW 3259   1.017   0.039   8.201
  934SOL    HW1 3260   0.945   0.044   8.132
  934SOL    HW2 3261   0.993  -0.030   8.270
  935SOL     OW 3262   1.429   1.173   8.315
  935SOL    HW1 3263   1.374   1.089   8.308
  935SOL    HW2 3264   1.455   1.202   8.223
  936SOL     OW 3265   1.466   0.590   8.440
  936SOL    HW1 3266   1.436   0.495   8.447
  936SOL    HW2 3267   1.539   0.606   8.506
  937SOL     OW 3268   1.857   0.833   7.825
  937SOL    HW1 3269   1.899   0.769   7.889
  937SOL    HW2 3270   1.819   0.782   7.747
  938SOL     OW 3271   0.488   1.385   7.622
  938SOL    HW1 3272   0.401   1.370   7.669
  938SOL    HW2 3273   0.471   1.411   7.527
  939SOL     OW 3274   1.664   1.280   8.105
  939SOL    HW1 3275   1.763   1.288   8.119
  939SOL    HW2 3276   1.619   1.364   8.136
  940SOL     OW 3277   1.390   0.575   7.526
  940SOL    HW1 3278   1.336   0.554   7.607
  940SOL    HW2 3279   1.481   0.534   7.535
  941SOL     OW 3280   0.527   0.256   7.776
  941SOL    HW1 3281   0.554   0.197   7.701
  941SOL    HW2 3282   0.527   0.351   7.745
  942SOL     OW 3283   1.754   1.223   9.036
  942SOL    HW1 3284   1.845   1.184   9.023
  942SOL    HW2 3285   1.762   1.319   9.060
  943SOL     OW 3286   1.064   1.347   8.788
  943SOL    HW1 3287   0.984   1.324   8.843
  943SOL    HW2 3288   1.147   1.321   8.837
  944SOL     OW 3289   1.592   1.629   9.073
  944SOL    HW1 3290   1.619   1.663   8.983
  944SOL    HW2 3291   1.671   1.591   9.119
  945SOL     OW 3292   1.111   1.195   8.548
  945SOL    HW1 3293   1.071   1.239   8.629
  945SOL    HW2 3294   1.070   1.232   8.465
  946SOL     OW 3295   1.638   1.099   8.527
  946SOL    HW1 3296   1.643   1.180   8.586
  946SOL    HW2 3297   1.552   1.101   8.476
  947SOL     OW 3298   0.915   0.089   8.850
  947SOL    HW1 3299   0.940   0.069   8.755
  947SOL    HW2 3300   0.987   0.145   8.892
  948SOL     OW 3301   0.980   1.116   9.167
  948SOL    HW1 3302   0.881   1.122   9.177
  948SOL    HW2 3303   1.003   1.036   9.111
  949SOL     OW 3304   0.705   1.050   7.816
  949SOL    HW1 3305   0.691   1.057   7.915
  949SOL    HW2 3306   0.789   0.999   7.798
  950SOL     OW 3307   0.410   0.813   8.699
  950SOL    HW1 3308   0.496   0.825   8.749
  950SOL    HW2 3309   0.368   0.726   8.726
  951SOL     OW 3310   1.274   0.386   8.710
  951SOL    HW1 3311   1.295   0.460   8.774
  951SOL    HW2 3312   1.185   0.403   8.667
  952SOL     OW 3313   0.064   1.564   8.779
  952SOL    HW1 3314   0.018   1.646   8.745
  952SOL    HW2 3315   0.162   1.583   8.788
  953SOL     OW 3316   0.367   1.100   7.949
  953SOL    HW1 3317   0.360   1.183   7.893
  953SOL    HW2 3318   0.371   1.020   7.889
  954SOL     OW 3319   0.566   0.537   8.313
  954SOL    HW1 3320   0.578   0.603   8.239
  954SOL    HW2 3321   0.612   0.571   8.396
  955SOL     OW 3322   1.252   1.348   7.836
  955SOL    HW1 3323   1.302   1.425   7.876
  955SOL    HW2 3324   1.157   1.350   7.868
  956SOL     OW 3325   1.272   1.445   8.590
  956SOL    HW1 3326   1.319   1.458   8.677
  956SOL    HW2 3327   1.206   1.371   8.599
  957SOL     OW 3328   1.582   0.639   7.920
  957SOL    HW1 3329   1.551   0.700   7.993
  957SOL    HW2 3330   1.632   0.691   7.851
  958SOL     OW 3331   0.354   1.510   8.777
  958SOL    HW1 3332   0.333   1.466   8.690
  958SOL    HW2 3333   0.451   1.536   8.780
  959SOL     OW 3334   0.402   0.751   9.046
  959SOL    HW1 3335   0.470   0.806   8.999
  959SOL    HW2 3336   0.442   0.663   9.073
  960SOL     OW 3337   1.587   0.779   9.118
  960SOL    HW1 3338   1.495   0.817   9.113
  960SOL    HW2 3339   1.647   0.826   9.053
  961SOL     OW 3340   1.013   0.105   9.218
  961SOL    HW1 3341   1.019   0.190   9.166
  961SOL    HW2 3342   1.045   0.029   9.161
  962SOL     OW 3343   0.504   0.050   9.188
  962SOL    HW1 3344   0.462  -0.007   9.118
  962SOL    HW2 3345   0.438   0.119   9.220
  963SOL     OW 3346   0.573   0.870   8.477
  963SOL    HW1 3347   0.617   0.959   8.468
  963SOL    HW2 3348   0.510   0.870   8.554
  964SOL     OW 3349   1.360   0.862   8.493
  964SOL    HW1 3350   1.285   0.862   8.427
  964SOL    HW2 3351   1.397   0.770   8.502
  965SOL     OW 3352   1.209   0.525   7.723
  965SOL    HW1 3353   1.222   0.441   7.777
  965SOL    HW2 3354   1.180   0.599   7.783
  966SOL     OW 3355   0.307   0.213   8.679
  966SOL    HW1 3356   0.284   0.250   8.769
  966SOL    HW2 3357   0.277   0.118   8.673
  967SOL     OW 3358   0.037   1.310   8.730
  967SOL    HW1 3359   0.090   1.261   8.798
  967SOL    HW2 3360   0.059   1.408   8.735
  968SOL     OW 3361   0.732   0.634   8.512
  968SOL    HW1 3362   0.791   0.608   8.436
  968SOL    HW2 3363   0.704   0.730   8.501
  969SOL     OW 3364   1.728   0.935   9.302
  969SOL    HW1 3365   1.682   0.928   9.213
  969SOL    HW2 3366   1.666   0.979   9.368
  970SOL     OW 3367   0.307   0.063   8.066
  970SOL    HW1 3368   0.296   0.157   8.099
  970SOL    HW2 3369   0.302   0.000   8.143
  971SOL     OW 3370   1.622   0.367   7.822
  971SOL    HW1 3371   1.624   0.291   7.886
  971SOL    HW2 3372   1.574   0.444   7.862
  972SOL     OW 3373   1.023   0.766   8.414
  972SOL    HW1 3374   1.038   0.787   8.510
  972SOL    HW2 3375   0.993   0.671   8.405
  973SOL     OW 3376   0.980   1.573   9.148
  973SOL    HW1 3377   0.960   1.617   9.060
  973SOL    HW2 3378   1.019   1.482   9.132
  974SOL     OW 3379   1.859   1.518   9.053
  974SOL    HW1 3380   1.873   1.545   8.958
  974SOL    HW2 3381   1.942   1.540   9.106
  975SOL     OW 3382   0.350   0.898   9.252
  975SOL    HW1 3383   0.426   0.942   9.300
  975SOL    HW2 3384   0.385   0.851   9.170
  976SOL     OW 3385   1.540   0.274   7.573
  976SOL    HW1 3386   1.479   0.199   7.596
  976SOL    HW2 3387   1.562   0.326   7.656
  977SOL     OW 3388   1.303   0.838   7.490
  977SOL    HW1 3389   1.337   0.745   7.505
  977SOL    HW2 3390   1.321   0.865   7.395
  978SOL     OW 3391   1.068   1.333   8.297
  978SOL    HW1 3392   1.075   1.249   8.242
  978SOL    HW2 3393   1.130   1.402   8.261
  979SOL     OW 3394   0.319   0.810   8.397
  979SOL    HW1 3395   0.412   0.846   8.402
  979SOL    HW2 3396   0.313   0.725   8.449
  980SOL     OW 3397   0.339   0.509   8.454
  980SOL    HW1 3398   0.287   0.426   8.437
  980SOL    HW2 3399   0.416   0.514   8.390
  981SOL     OW 3400   1.138   0.380   9.126
  981SOL    HW1 3401   1.093   0.443   9.190
  981SOL    HW2 3402   1.231   0.411   9.109
  982SOL     OW 3403   1.160   0.207   8.925
  982SOL    HW1 3404   1.160   0.271   9.002
  982SOL    HW2 3405   1.188   0.255   8.842
  983SOL     OW 3406   0.008   1.326   7.648
  983SOL    HW1 3407  -0.085   1.347   7.617
  983SOL    HW2 3408   0.018   1.227   7.661
  984SOL     OW 3409   0.088   1.801   8.375
  984SOL    HW1 3410   0.046   1.715   8.348
  984SOL    HW2 3411   0.182   1.804   8.341
  985SOL     OW 3412   0.504   1.568   8.358
  985SOL    HW1 3413   0.570   1.642   8.367
  985SOL    HW2 3414   0.548   1.489   8.316
  986SOL     OW 3415   1.002   0.796   8.686
  986SOL    HW1 3416   1.043   0.764   8.772
  986SOL    HW2 3417   0.906   0.769   8.683
  987SOL     OW 3418   0.040   0.544   8.562
  987SOL    HW1 3419   0.125   0.511   8.521
  987SOL    HW2 3420   0.053   0.559   8.660
  988SOL     OW 3421   0.189   0.520   9.170
  988SOL    HW1 3422   0.248   0.480   9.100
  988SOL    HW2 3423   0.131   0.591   9.129
  989SOL     OW 3424   1.369   0.950   9.108
  989SOL    HW1 3425   1.408   1.039   9.128
  989SOL    HW2 3426   1.379   0.930   9.011
  990SOL     OW 3427   0.815   0.572   7.773
  990SOL    HW1 3428   0.822   0.483   7.727
  990SOL    HW2 3429   0.721   0.606   7.765
  991SOL     OW 3430   1.657   0.604   8.654
  991SOL    HW1 3431   1.619   0.535   8.716
  991SOL    HW2 3432   1.739   0.568   8.610
  992SOL     OW 3433   0.252   1.564   9.192
  992SOL    HW1 3434   0.222   1.621   9.268
  992SOL    HW2 3435   0.245   1.467   9.218
  993SOL     OW 3436   0.671   0.464   8.717
  993SOL    HW1 3437   0.637   0.375   8.687
  993SOL    HW2 3438   0.697   0.518   8.637
  994SOL     OW 3439   0.930   1.678   8.913
  994SOL    HW1 3440   0.906   1.660   8.818
  994SOL    HW2 3441   0.960   1.772   8.923
  995SOL     OW 3442   0.473   0.500   7.639
  995SOL    HW1 3443   0.534   0.580   7.643
  995SOL    HW2 3444   0.378   0.531   7.646
  996SOL     OW 3445   0.159   1.137   8.914
  996SOL    HW1 3446   0.181   1.076   8.990
  996SOL    HW2 3447   0.169   1.088   8.828
  997SOL     OW 3448   1.347   1.059   8.682
  997SOL    HW1 3449   1.371   0.996   8.608
  997SOL    HW2 3450   1.257   1.099   8.664
  998SOL     OW 3451   1.302   0.855   7.757
  998SOL    HW1 3452   1.216   0.824   7.799
  998SOL    HW2 3453   1.298   0.841   7.658
  999SOL     OW 3454   1.759   1.747   8.602
  999SOL    HW1 3455   1.820   1.777   8.529
  999SOL    HW2 3456   1.721   1.658   8.580
 1000SOL     OW 3457   1.252   1.731   8.576
 1000SOL    HW1 3458   1.336   1.736   8.522
 1000SOL    HW2 3459   1.229   1.635   8.594
 1001SOL     OW 3460   0.083   1.258   8.470
 1001SOL    HW1 3461   0.078   1.257   8.570
 1001SOL    HW2 3462   0.000   1.217   8.432
 1002SOL     OW 3463   0.688   1.662   9.164
 1002SOL    HW1 3464   0.632   1.743   9.173
 1002SOL    HW2 3465   0.740   1.666   9.078
 1003SOL     OW 3466   1.726   0.135   7.971
 1003SOL    HW1 3467   1.799   0.118   7.904
 1003SOL    HW2 3468   1.695   0.048   8.009
 1004SOL     OW 3469   1.388   1.573   7.925
 1004SOL    HW1 3470   1.455   1.585   7.851
 1004SOL    HW2 3471   1.348   1.662   7.948
 1005SOL     OW 3472   0.130   1.794   9.299
 1005SOL    HW1 3473   0.089   1.720   9.352
 1005SOL    HW2 3474   0.194   1.845   9.357
 1006SOL     OW 3475   1.280   0.927   8.120
 1006SOL    HW1 3476   1.340   0.846   8.122
 1006SOL    HW2 3477   1.320   0.996   8.060
 1007SOL     OW 3478   0.830   1.273   8.870
 1007SOL    HW1 3479   0.825   1.306   8.965
 1007SOL    HW2 3480   0.744   1.292   8.824
 1008SOL     OW 3481   0.672   1.616   7.602
 1008SOL    HW1 3482   0.681   1.626   7.503
 1008SOL    HW2 3483   0.632   1.527   7.623
 1009SOL     OW 3484   1.650   1.720   8.842
 1009SOL    HW1 3485   1.703   1.730   8.758
 1009SOL    HW2 3486   1.623   1.810   8.876
 1010SOL     OW 3487   1.841   0.175   8.411
 1010SOL    HW1 3488   1.880   0.090   8.375
 1010SOL    HW2 3489   1.743   0.177   8.392
 1011SOL     OW 3490   0.263   0.326   8.168
 1011SOL    HW1 3491   0.184   0.377   8.134
 1011SOL    HW2 3492   0.254   0.311   8.266
 1012SOL     OW 3493   1.194   1.612   7.479
 1012SOL    HW1 3494   1.200   1.519   7.516
 1012SOL    HW2 3495   1.135   1.612   7.399
 1013SOL     OW 3496   0.822   1.002   8.820
 1013SOL    HW1 3497   0.862   1.001   8.728
 1013SOL    HW2 3498   0.832   1.094   8.860
 1014SOL     OW 3499   0.916   0.910   7.739
 1014SOL    HW1 3500   0.979   0.948   7.671
 1014SOL    HW2 3501   0.956   0.827   7.778
 1015SOL     OW 3502   1.504   1.607   7.492
 1015SOL    HW1 3503   1.412   1.644   7.499
 1015SOL    HW2 3504   1.542   1.627   7.402
 1016SOL     OW 3505   0.372   1.288   8.938
 1016SOL    HW1 3506   0.359   1.381   8.904
 1016SOL    HW2 3507   0.288   1.236   8.925
 1017SOL     OW 3508   1.614   1.292   8.737
 1017SOL    HW1 3509   1.674   1.295   8.817
 1017SOL    HW2 3510   1.539   1.356   8.750
 1018SOL     OW 3511   1.039   1.098   8.144
 1018SOL    HW1 3512   0.969   1.051   8.198
 1018SOL    HW2 3513   1.098   1.030   8.101
 1019SOL     OW 3514   1.014   0.236   8.419
 1019SOL    HW1 3515   1.006   0.200   8.326
 1019SOL    HW2 3516   1.012   0.160   8.484
 1020SOL     OW 3517   0.590   1.487   7.939
 1020SOL    HW1 3518   0.632   1.429   7.869
 1020SOL    HW2 3519   0.546   1.566   7.895
 1021SOL     OW 3520   1.709   0.385   8.829
 1021SOL    HW1 3521   1.782   0.454   8.833
 1021SOL    HW2 3522   1.737   0.310   8.770
 1022SOL     OW 3523   0.255   1.348   7.738
 1022SOL    HW1 3524   0.159   1.349   7.711
 1022SOL    HW2 3525   0.267   1.401   7.822
 1023SOL     OW 3526   0.105   1.013   9.174
 1023SOL    HW1 3527   0.028   0.980   9.228
 1023SOL    HW2 3528   0.190   0.983   9.216
 1024SOL     OW 3529   0.672   0.203   8.937
 1024SOL    HW1 3530   0.762   0.187   8.897
 1024SOL    HW2 3531   0.680   0.208   9.036
 1025SOL     OW 3532   0.075   0.345   7.481
 1025SOL    HW1 3533  -0.017   0.317   7.452
 1025SOL    HW2 3534   0.106   0.422   7.425
 1026SOL     OW 3535   1.440   0.856   8.846
 1026SOL    HW1 3536   1.383   0.908   8.783
 1026SOL    HW2 3537   1.536   0.868   8.822
 1027SOL     OW 3538   0.072   0.166   7.766
 1027SOL    HW1 3539   0.055   0.249   7.712
 1027SOL    HW2 3540   0.162   0.129   7.744
 1028SOL     OW 3541   1.183   1.335   7.567
 1028SOL    HW1 3542   1.084   1.324   7.569
 1028SOL    HW2 3543   1.217   1.350   7.660
 1029SOL     OW 3544   0.613   0.842   8.879
 1029SOL    HW1 3545   0.669   0.923   8.862
 1029SOL    HW2 3546   0.672   0.762   8.882
 1030SOL     OW 3547   1.493   1.767   8.407
 1030SOL    HW1 3548   1.526   1.831   8.338
 1030SOL    HW2 3549   1.559   1.761   8.482
 1031SOL     OW 3550   0.716   0.565   9.156
 1031SOL    HW1 3551   0.735   0.630   9.230
 1031SOL    HW2 3552   0.776   0.485   9.165
 1032SOL     OW 3553   1.450   1.220   9.081
 1032SOL    HW1 3554   1.441   1.210   9.180
 1032SOL    HW2 3555   1.546   1.213   9.055
 1033SOL     OW 3556   0.390   1.741   9.008
 1033SOL    HW1 3557   0.299   1.782   9.006
 1033SOL    HW2 3558   0.383   1.647   9.040
 1034SOL     OW 3559   1.674   0.883   8.702
 1034SOL    HW1 3560   1.647   0.794   8.665
 1034SOL    HW2 3561   1.675   0.951   8.629
 1035SOL     OW 3562   1.225   0.325   7.897
 1035SOL    HW1 3563   1.290   0.251   7.886
 1035SOL    HW2 3564   1.245   0.375   7.981
 1036SOL     OW 3565   0.594   0.745   8.100
 1036SOL    HW1 3566   0.644   0.830   8.081
 1036SOL    HW2 3567   0.506   0.747   8.052
 1037SOL     OW 3568   1.777   0.342   9.090
 1037SOL    HW1 3569   1.760   0.373   8.996
 1037SOL    HW2 3570   1.693   0.305   9.128
 1038SOL     OW 3571   1.730   0.934   8.965
 1038SOL    HW1 3572   1.768   1.025   8.980
 1038SOL    HW2 3573   1.722   0.917   8.866
 1039SOL     OW 3574   0.859   1.374   7.464
 1039SOL    HW1 3575   0.813   1.389   7.552
 1039SOL    HW2 3576   0.903   1.459   7.434
 1040SOL     OW 3577   0.661   1.790   8.401
 1040SOL    HW1 3578   0.615   1.878   8.388
 1040SOL    HW2 3579   0.760   1.802   8.394
 1041SOL     OW 3580   0.859   0.956   8.309
 1041SOL    HW1 3581   0.913   0.887   8.357
 1041SOL    HW2 3582   0.827   1.025   8.375
 1042SOL     OW 3583   1.083   0.984   7.535
 1042SOL    HW1 3584   1.060   1.037   7.453
 1042SOL    HW2 3585   1.164   0.928   7.516
 1043SOL     OW 3586   1.861   1.569   8.299
 1043SOL    HW1 3587   1.790   1.557   8.229
 1043SOL    HW2 3588   1.862   1.490   8.359
 1044SOL     OW 3589   0.221   1.314   9.292
 1044SOL    HW1 3590   0.156   1.241   9.271
 1044SOL    HW2 3591   0.225   1.328   9.390
 1045SOL     OW 3592   0.079   1.240   8.101
 1045SOL    HW1 3593   0.078   1.193   8.189
 1045SOL    HW2 3594   0.161   1.212   8.050
 1046SOL     OW 3595   0.672   1.391   9.072
 1046SOL    HW1 3596   0.594   1.341   9.110
 1046SOL    HW2 3597   0.669   1.486   9.103
 1047SOL     OW 3598   1.824   0.192   8.675
 1047SOL    HW1 3599   1.820   0.102   8.719
 1047SOL    HW2 3600   1.827   0.181   8.576
 1048SOL     OW 3601   0.428   0.424   7.968
 1048SOL    HW1 3602   0.458   0.352   7.906
 1048SOL    HW2 3603   0.389   0.384   8.051
 1049SOL     OW 3604   1.705   1.487   8.552
 1049SOL    HW1 3605   1.612   1.462   8.525
 1049SOL    HW2 3606   1.731   1.437   8.634
 1050SOL     OW 3607   0.317   0.547   8.728
 1050SOL    HW1 3608   0.355   0.488   8.800
 1050SOL    HW2 3609   0.357   0.521   8.640
 1051SOL     OW 3610   0.812   1.586   8.135
 1051SOL    HW1 3611   0.844   1.596   8.041
 1051SOL    HW2 3612   0.733   1.524   8.137
 1052SOL     OW 3613   1.424   0.214   8.560
 1052SOL    HW1 3614   1.476   0.149   8.615
 1052SOL    HW2 3615   1.375   0.277   8.621
 1053SOL     OW 3616   1.001   0.034   8.602
 1053SOL    HW1 3617   0.938  -0.038   8.571
 1053SOL    HW2 3618   1.094  -0.002   8.602
 1054SOL     OW 3619   0.770   1.330   7.749
 1054SOL    HW1 3620   0.724   1.243   7.766
 1054SOL    HW2 3621   0.861   1.327   7.790
 1055SOL     OW 3622   0.618   1.567   8.732
 1055SOL    HW1 3623   0.613   1.649   8.789
 1055SOL    HW2 3624   0.707   1.564   8.687
 1056SOL     OW 3625   1.352   0.052   7.616
 1056SOL    HW1 3626   1.387   0.011   7.532
 1056SOL    HW2 3627   1.262   0.014   7.636
 1057SOL     OW 3628   1.300   0.453   8.139
 1057SOL    HW1 3629   1.241   0.533   8.143
 1057SOL    HW2 3630   1.315   0.418   8.232
 1058SOL     OW 3631   1.593   0.221   8.330
 1058SOL    HW1 3632   1.509   0.220   8.384
 1058SOL    HW2 3633   1.595   0.304   8.274
 1059SOL     OW 3634   0.039   1.077   7.748
 1059SOL    HW1 3635   0.138   1.066   7.739
 1059SOL    HW2 3636  -0.001   0.991   7.780
 1060SOL     OW 3637   0.875   1.646   7.785
 1060SOL    HW1 3638   0.798   1.611   7.731
 1060SOL    HW2 3639   0.843   1.717   7.847
 1061SOL     OW 3640   0.230   0.628   9.423
 1061SOL    HW1 3641   0.137   0.626   9.460
 1061SOL    HW2 3642   0.231   0.589   9.331
 1062SOL     OW 3643   0.225   0.275  10.306
 1062SOL    HW1 3644   0.260   0.258  10.398
 1062SOL    HW2 3645   0.137   0.230  10.294
 1063SOL     OW 3646   0.019   0.368   9.957
 1063SOL    HW1 3647  -0.063   0.411   9.996
 1063SOL    HW2 3648  -0.009   0.295   9.894
 1064SOL     OW 3649   0.569   1.275  10.475
 1064SOL    HW1 3650   0.476   1.268  10.438
 1064SOL    HW2 3651   0.580   1.364  10.519
 1065SOL     OW 3652   1.555   1.511  10.013
 1065SOL    HW1 3653   1.498   1.495  10.094
 1065SOL    HW2 3654   1.496   1.521   9.933
 1066SOL     OW 3655   1.135   0.703  10.027
 1066SOL    HW1 3656   1.192   0.781  10.002
 1066SOL    HW2 3657   1.075   0.729  10.103
 1067SOL     OW 3658   1.755   0.607   9.541
 1067SOL    HW1 3659   1.743   0.594   9.442
 1067SOL    HW2 3660   1.725   0.526   9.590
 1068SOL     OW 3661   0.768   1.144  10.333
 1068SOL    HW1 3662   0.690   1.161  10.393
 1068SOL    HW2 3663   0.802   1.231  10.297
 1069SOL     OW 3664   0.850   0.798  11.133
 1069SOL    HW1 3665   0.846   0.874  11.198
 1069SOL    HW2 3666   0.872   0.834  11.042
 1070SOL     OW 3667   0.685   1.012   9.975
 1070SOL    HW1 3668   0.754   0.996  10.045
 1070SOL    HW2 3669   0.612   1.069  10.013
 1071SOL     OW 3670   0.335   1.435  10.371
 1071SOL    HW1 3671   0.257   1.404  10.318
 1071SOL    HW2 3672   0.393   1.493  10.314
 1072SOL     OW 3673   1.460   1.505  10.649
 1072SOL    HW1 3674   1.484   1.599  10.675
 1072SOL    HW2 3675   1.444   1.451  10.731
 1073SOL     OW 3676   0.438   0.392  10.809
 1073SOL    HW1 3677   0.520   0.336  10.818
 1073SOL    HW2 3678   0.357   0.334  10.813
 1074SOL     OW 3679   1.603   0.447  10.047
 1074SOL    HW1 3680   1.529   0.493   9.997
 1074SOL    HW2 3681   1.654   0.515  10.100
 1075SOL     OW 3682   0.231   1.713   9.793
 1075SOL    HW1 3683   0.265   1.790   9.847
 1075SOL    HW2 3684   0.275   1.713   9.703
 1076SOL     OW 3685   0.230   1.434   9.848
 1076SOL    HW1 3686   0.204   1.530   9.848
 1076SOL    HW2 3687   0.159   1.380   9.893
 1077SOL     OW 3688   0.240   1.091  10.196
 1077SOL    HW1 3689   0.254   1.007  10.248
 1077SOL    HW2 3690   0.185   1.155  10.251
 1078SOL     OW 3691   0.620   1.786  10.749
 1078SOL    HW1 3692   0.528   1.769  10.784
 1078SOL    HW2 3693   0.648   1.878  10.775
 1079SOL     OW 3694   0.606   0.964   9.433
 1079SOL    HW1 3695   0.613   1.048   9.379
 1079SOL    HW2 3696   0.652   0.977   9.521
 1080SOL     OW 3697   1.594   0.114  10.790
 1080SOL    HW1 3698   1.576   0.181  10.718
 1080SOL    HW2 3699   1.591   0.160  10.879
 1081SOL     OW 3700   0.122   0.643   9.873
 1081SOL    HW1 3701   0.077   0.555   9.890
 1081SOL    HW2 3702   0.121   0.697   9.957
 1082SOL     OW 3703   1.842   1.767   9.669
 1082SOL    HW1 3704   1.896   1.738   9.749
 1082SOL    HW2 3705   1.872   1.857   9.640
 1083SOL     OW 3706   0.027   1.596   9.427
 1083SOL    HW1 3707   0.008   1.500   9.448
 1083SOL    HW2 3708  -0.006   1.654   9.502
 1084SOL     OW 3709   1.689   0.922   9.922
 1084SOL    HW1 3710   1.784   0.893   9.930
 1084SOL    HW2 3711   1.681   0.987   9.847
 1085SOL     OW 3712   1.641   1.108   9.742
 1085SOL    HW1 3713   1.727   1.110   9.690
 1085SOL    HW2 3714   1.655   1.155   9.830
 1086SOL     OW 3715   0.113   0.737  10.907
 1086SOL    HW1 3716   0.201   0.724  10.952
 1086SOL    HW2 3717   0.100   0.834  10.885
 1087SOL     OW 3718   0.613   1.365  10.036
 1087SOL    HW1 3719   0.564   1.278  10.045
 1087SOL    HW2 3720   0.590   1.408   9.949
 1088SOL     OW 3721   1.293   1.228  10.733
 1088SOL    HW1 3722   1.330   1.155  10.675
 1088SOL    HW2 3723   1.345   1.233  10.818
 1089SOL     OW 3724   0.809   0.004   9.812
 1089SOL    HW1 3725   0.849   0.095   9.803
 1089SOL    HW2 3726   0.709   0.012   9.818
 1090SOL     OW 3727   0.197   0.976  10.574
 1090SOL    HW1 3728   0.286   0.931  10.560
 1090SOL    HW2 3729   0.124   0.911  10.555
 1091SOL     OW 3730   1.525   0.999   9.500
 1091SOL    HW1 3731   1.462   0.923   9.513
 1091SOL    HW2 3732   1.573   1.017   9.586
 1092SOL     OW 3733   1.187   1.792  10.926
 1092SOL    HW1 3734   1.211   1.852  10.850
 1092SOL    HW2 3735   1.194   1.697  10.896
 1093SOL     OW 3736   0.317   0.251  11.111
 1093SOL    HW1 3737   0.388   0.322  11.117
 1093SOL    HW2 3738   0.229   0.290  11.139
 1094SOL     OW 3739   1.466   1.417  10.263
 1094SOL    HW1 3740   1.407   1.423  10.343
 1094SOL    HW2 3741   1.451   1.329  10.217
 1095SOL     OW 3742   1.667   1.714   9.882
 1095SOL    HW1 3743   1.626   1.691   9.794
 1095SOL    HW2 3744   1.649   1.640   9.947
 1096SOL     OW 3745   0.598   0.729   9.580
 1096SOL    HW1 3746   0.622   0.798   9.512
 1096SOL    HW2 3747   0.520   0.762   9.634
 1097SOL     OW 3748   1.281   0.345  10.254
 1097SOL    HW1 3749   1.195   0.295  10.241
 1097SOL    HW2 3750   1.343   0.291  10.310
 1098SOL     OW 3751   1.576   1.662   9.617
 1098SOL    HW1 3752   1.665   1.708   9.620
 1098SOL    HW2 3753   1.555   1.638   9.522
 1099SOL     OW 3754   0.807   0.605  10.775
 1099SOL    HW1 3755   0.760   0.602  10.864
 1099SOL    HW2 3756   0.756   0.550  10.709
 1100SOL     OW 3757   0.973   0.890  10.882
 1100SOL    HW1 3758   1.019   0.806  10.853
 1100SOL    HW2 3759   0.917   0.924  10.807
 1101SOL     OW 3760   0.991   0.410  10.552
 1101SOL    HW1 3761   0.914   0.444  10.606
 1101SOL    HW2 3762   0.957   0.359  10.473
 1102SOL     OW 3763   1.041   0.701   9.739
 1102SOL    HW1 3764   1.067   0.697   9.835
 1102SOL    HW2 3765   0.956   0.650   9.725
 1103SOL     OW 3766   0.076   0.811  10.099
 1103SOL    HW1 3767   0.175   0.799  10.108
 1103SOL    HW2 3768   0.052   0.906  10.120
 1104SOL     OW 3769   0.130   1.821  10.881
 1104SOL    HW1 3770   0.120   1.806  10.980
 1104SOL    HW2 3771   0.044   1.857  10.845
 1105SOL     OW 3772   0.865   0.348   9.505
 1105SOL    HW1 3773   0.924   0.411   9.456
 1105SOL    HW2 3774   0.884   0.254   9.476
 1106SOL     OW 3775   1.362   1.144   9.855
 1106SOL    HW1 3776   1.445   1.115   9.807
 1106SOL    HW2 3777   1.313   1.211   9.799
 1107SOL     OW 3778   0.550   0.196  10.195
 1107SOL    HW1 3779   0.545   0.191  10.295
 1107SOL    HW2 3780   0.552   0.292  10.166
 1108SOL     OW 3781   1.008   1.456   9.787
 1108SOL    HW1 3782   0.962   1.528   9.735
 1108SOL    HW2 3783   1.004   1.476   9.885
 1109SOL     OW 3784   0.351   1.801  10.163
 1109SOL    HW1 3785   0.401   1.715  10.169
 1109SOL    HW2 3786   0.416   1.878  10.160
 1110SOL     OW 3787   1.795   1.066  10.183
 1110SOL    HW1 3788   1.733   1.051  10.107
 1110SOL    HW2 3789   1.743   1.077  10.268
 1111SOL     OW 3790   1.227   1.550  10.816
 1111SOL    HW1 3791   1.233   1.473  10.880
 1111SOL    HW2 3792   1.175   1.524  10.736
 1112SOL     OW 3793   0.321   0.943   9.552
 1112SOL    HW1 3794   0.403   0.982   9.510
 1112SOL    HW2 3795   0.294   0.861   9.503
 1113SOL     OW 3796   1.458   0.735  10.038
 1113SOL    HW1 3797   1.453   0.670  10.113
 1113SOL    HW2 3798   1.538   0.794  10.051
 1114SOL     OW 3799   0.461   1.266  11.037
 1114SOL    HW1 3800   0.411   1.267  10.951
 1114SOL    HW2 3801   0.398   1.248  11.113
 1115SOL     OW 3802   1.111   1.776   9.547
 1115SOL    HW1 3803   1.051   1.714   9.597
 1115SOL    HW2 3804   1.142   1.732   9.462
 1116SOL     OW 3805   0.202   0.285  10.808
 1116SOL    HW1 3806   0.122   0.345  10.795
 1116SOL    HW2 3807   0.192   0.236  10.894
 1117SOL     OW 3808   1.632   1.377   9.391
 1117SOL    HW1 3809   1.600   1.471   9.381
 1117SOL    HW2 3810   1.556   1.314   9.379
 1118SOL     OW 3811   0.464   1.743   9.633
 1118SOL    HW1 3812   0.497   1.782   9.719
 1118SOL    HW2 3813   0.540   1.736   9.568
 1119SOL     OW 3814   1.400   0.107   9.736
 1119SOL    HW1 3815   1.376   0.070   9.646
 1119SOL    HW2 3816   1.499   0.123   9.740
 1120SOL     OW 3817   0.249   1.785  10.551
 1120SOL    HW1 3818   0.306   1.720  10.601
 1120SOL    HW2 3819   0.233   1.752  10.458
 1121SOL     OW 3820   0.940   1.698  10.214
 1121SOL    HW1 3821   1.020   1.641  10.235
 1121SOL    HW2 3822   0.891   1.658  10.137
 1122SOL     OW 3823   0.382   0.700   9.790
 1122SOL    HW1 3824   0.427   0.610   9.787
 1122SOL    HW2 3825   0.288   0.689   9.823
 1123SOL     OW 3826   0.614   0.122   9.427
 1123SOL    HW1 3827   0.712   0.100   9.434
 1123SOL    HW2 3828   0.583   0.105   9.334
 1124SOL     OW 3829   0.781   0.264  11.059
 1124SOL    HW1 3830   0.848   0.203  11.102
 1124SOL    HW2 3831   0.708   0.283  11.124
 1125SOL     OW 3832   0.888   1.514  10.505
 1125SOL    HW1 3833   0.865   1.489  10.411
 1125SOL    HW2 3834   0.949   1.445  10.544
 1126SOL     OW 3835   1.351   0.590  10.743
 1126SOL    HW1 3836   1.379   0.547  10.828
 1126SOL    HW2 3837   1.376   0.686  10.744
 1127SOL     OW 3838   0.803   1.402  10.234
 1127SOL    HW1 3839   0.893   1.416  10.192
 1127SOL    HW2 3840   0.732   1.404  10.163
 1128SOL     OW 3841   0.922   0.503  10.209
 1128SOL    HW1 3842   0.897   0.494  10.113
 1128SOL    HW2 3843   0.970   0.421  10.240
 1129SOL     OW 3844   0.539   0.064   9.822
 1129SOL    HW1 3845   0.458   0.065   9.880
 1129SOL    HW2 3846   0.542   0.147   9.767
 1130SOL     OW 3847   1.434   1.188   9.351
 1130SOL    HW1 3848   1.466   1.112   9.408
 1130SOL    HW2 3849   1.342   1.215   9.381
 1131SOL     OW 3850   0.297   0.035   9.481
 1131SOL    HW1 3851   0.346   0.119   9.460
 1131SOL    HW2 3852   0.359  -0.030   9.526
 1132SOL     OW 3853   0.935   0.236   9.790
 1132SOL    HW1 3854   0.887   0.277   9.712
 1132SOL    HW2 3855   1.034   0.234   9.771
 1133SOL     OW 3856   1.076   0.683  10.774
 1133SOL    HW1 3857   0.996   0.622  10.777
 1133SOL    HW2 3858   1.157   0.630  10.750
 1134SOL     OW 3859   1.227   1.570  10.103
 1134SOL    HW1 3860   1.248   1.644  10.038
 1134SOL    HW2 3861   1.295   1.570  10.176
 1135SOL     OW 3862   0.459   1.152  10.051
 1135SOL    HW1 3863   0.388   1.125  10.116
 1135SOL    HW2 3864   0.433   1.124   9.958
 1136SOL     OW 3865   1.271   1.797   9.901
 1136SOL    HW1 3866   1.315   1.861   9.837
 1136SOL    HW2 3867   1.221   1.849   9.971
 1137SOL     OW 3868   1.032   0.549   9.326
 1137SOL    HW1 3869   0.991   0.631   9.287
 1137SOL    HW2 3870   1.096   0.575   9.399
 1138SOL     OW 3871   0.078   0.556  10.696
 1138SOL    HW1 3872   0.170   0.555  10.655
 1138SOL    HW2 3873   0.072   0.630  10.763
 1139SOL     OW 3874   0.561   0.222  10.457
 1139SOL    HW1 3875   0.599   0.138  10.494
 1139SOL    HW2 3876   0.473   0.241  10.501
 1140SOL     OW 3877   0.866   0.454   9.952
 1140SOL    HW1 3878   0.834   0.526   9.890
 1140SOL    HW2 3879   0.890   0.373   9.899
 1141SOL     OW 3880   1.017   0.039  10.063
 1141SOL    HW1 3881   0.945   0.044   9.994
 1141SOL    HW2 3882   0.993  -0.030  10.132
 1142SOL     OW 3883   1.429   1.173  10.177
 1142SOL    HW1 3884   1.374   1.089  10.170
 1142SOL    HW2 3885   1.455   1.202  10.085
 1143SOL     OW 3886   1.466   0.590  10.302
 1143SOL    HW1 3887   1.436   0.495  10.309
 1143SOL    HW2 3888   1.539   0.606  10.368
 1144SOL     OW 3889   1.857   0.833   9.687
 1144SOL    HW1 3890   1.899   0.769   9.751
 1144SOL    HW2 3891   1.819   0.782   9.609
 1145SOL     OW 3892   0.488   1.385   9.484
 1145SOL    HW1 3893   0.401   1.370   9.531
 1145SOL    HW2 3894   0.471   1.411   9.389
 1146SOL     OW 3895   1.664   1.280   9.967
 1146SOL    HW1 3896   1.763   1.288   9.981
 1146SOL    HW2 3897   1.619   1.364   9.998
 1147SOL     OW 3898   1.390   0.575   9.388
 1147SOL    HW1 3899   1.336   0.554   9.469
 1147SOL    HW2 3900   1.481   0.534   9.397
 1148SOL     OW 3901   0.527   0.256   9.638
 1148SOL    HW1 3902   0.554   0.197   9.563
 1148SOL    HW2 3903   0.527   0.351   9.607
 1149SOL     OW 3904   1.754   1.223  10.898
 1149SOL    HW1 3905   1.845   1.184  10.885
 1149SOL    HW2 3906   1.762   1.319  10.922
 1150SOL     OW 3907   1.064   1.347  10.650
 1150SOL    HW1 3908   0.984   1.324  10.705
 1150SOL    HW2 3909   1.147   1.321  10.699
 1151SOL     OW 3910   1.111   1.195  10.410
 1151SOL    HW1 3911   1.071   1.239  10.491
 1151SOL    HW2 3912   1.070   1.232  10.327
 1152SOL     OW 3913   1.638   1.099  10.389
 1152SOL    HW1 3914   1.643   1.180  10.448
 1152SOL    HW2 3915   1.552   1.101  10.338
 1153SOL     OW 3916   0.915   0.089  10.712
 1153SOL    HW1 3917   0.940   0.069  10.617
 1153SOL    HW2 3918   0.987   0.145  10.754
 1154SOL     OW 3919   0.705   1.050   9.678
 1154SOL    HW1 3920   0.691   1.057   9.777
 1154SOL    HW2 3921   0.789   0.999   9.660
 1155SOL     OW 3922   0.410   0.813  10.561
 1155SOL    HW1 3923   0.496   0.825  10.611
 1155SOL    HW2 3924   0.368   0.726  10.588
 1156SOL     OW 3925   1.274   0.386  10.572
 1156SOL    HW1 3926   1.295   0.460  10.636
 1156SOL    HW2 3927   1.185   0.403  10.529
 1157SOL     OW 3928   0.064   1.564  10.641
 1157SOL    HW1 3929   0.018   1.646  10.607
 1157SOL    HW2 3930   0.162   1.583  10.650
 1158SOL     OW 3931   0.367   1.100   9.811
 1158SOL    HW1 3932   0.360   1.183   9.755
 1158SOL    HW2 3933   0.371   1.020   9.751
 1159SOL     OW 3934   0.566   0.537  10.175
 1159SOL    HW1 3935   0.578   0.603  10.101
 1159SOL    HW2 3936   0.612   0.571  10.258
 1160SOL     OW 3937   1.252   1.348   9.698
 1160SOL    HW1 3938   1.302   1.425   9.738
 1160SOL    HW2 3939   1.157   1.350   9.730
 1161SOL     OW 3940   1.272   1.445  10.452
 1161SOL    HW1 3941   1.319   1.458  10.539
 1161SOL    HW2 3942   1.206   1.371  10.461
 1162SOL     OW 3943   1.582   0.639   9.782
 1162SOL    HW1 3944   1.551   0.700   9.855
 1162SOL    HW2 3945   1.632   0.691   9.713
 1163SOL     OW 3946   0.354   1.510  10.639
 1163SOL    HW1 3947   0.333   1.466  10.552
 1163SOL    HW2 3948   0.451   1.536  10.642
 1164SOL     OW 3949   0.402   0.751  10.908
 1164SOL    HW1 3950   0.470   0.806  10.861
 1164SOL    HW2 3951   0.442   0.663  10.935
 1165SOL     OW 3952   1.587   0.779  10.980
 1165SOL    HW1 3953   1.495   0.817  10.975
 1165SOL    HW2 3954   1.647   0.826  10.915
 1166SOL     OW 3955   0.573   0.870  10.339
 1166SOL    HW1 3956   0.617   0.959  10.330
 1166SOL    HW2 3957   0.510   0.870  10.416
 1167SOL     OW 3958   1.360   0.862  10.355
 1167SOL    HW1 3959   1.285   0.862  10.289
 1167SOL    HW2 3960   1.397   0.770  10.364
 1168SOL     OW 3961   1.209   0.525   9.585
 1168SOL    HW1 3962   1.222   0.441   9.639
 1168SOL    HW2 3963   1.180   0.599   9.645
 1169SOL     OW 3964   0.307   0.213  10.541
 1169SOL    HW1 3965   0.284   0.250  10.631
 1169SOL    HW2 3966   0.277   0.118  10.535
 1170SOL     OW 3967   0.037   1.310  10.592
 1170SOL    HW1 3968   0.090   1.261  10.660
 1170SOL    HW2 3969   0.059   1.408  10.597
 1171SOL     OW 3970   0.732   0.634  10.374
 1171SOL    HW1 3971   0.791   0.608  10.298
 1171SOL    HW2 3972   0.704   0.730  10.363
 1172SOL     OW 3973   0.307   0.063   9.928
 1172SOL    HW1 3974   0.296   0.157   9.961
 1172SOL    HW2 3975   0.302   0.000  10.005
 1173SOL     OW 3976   1.622   0.367   9.684
 1173SOL    HW1 3977   1.624   0.291   9.748
 1173SOL    HW2 3978   1.574   0.444   9.724
 1174SOL     OW 3979   1.023   0.766  10.276
 1174SOL    HW1 3980   1.038   0.787  10.372
 1174SOL    HW2 3981   0.993   0.671  10.267
 1175SOL     OW 3982   0.980   1.573  11.010
 1175SOL    HW1 3983   0.960   1.617  10.922
 1175SOL    HW2 3984   1.019   1.482  10.994
 1176SOL     OW 3985   1.859   1.518  10.915
 1176SOL    HW1 3986   1.873   1.545  10.820
 1176SOL    HW2 3987   1.942   1.540  10.968
 1177SOL     OW 3988   0.350   0.898  11.114
 1177SOL    HW1 3989   0.426   0.942  11.162
 1177SOL    HW2 3990   0.385   0.851  11.032
 1178SOL     OW 3991   1.540   0.274   9.435
 1178SOL    HW1 3992   1.479   0.199   9.458
 1178SOL    HW2 3993   1.562   0.326   9.518
 1179SOL     OW 3994   1.303   0.838   9.352
 1179SOL    HW1 3995   1.337   0.745   9.367
 1179SOL    HW2 3996   1.321   0.865   9.257
 1180SOL     OW 3997   1.068   1.333  10.159
 1180SOL    HW1 3998   1.075   1.249  10.104
 1180SOL    HW2 3999   1.130   1.402  10.123
 1181SOL     OW 4000   0.319   0.810  10.259
 1181SOL    HW1 4001   0.412   0.846  10.264
 1181SOL    HW2 4002   0.313   0.725  10.311
 1182SOL     OW 4003   0.339   0.509  10.316
 1182SOL    HW1 4004   0.287   0.426  10.299
 1182SOL    HW2 4005   0.416   0.514  10.252
 1183SOL     OW 4006   1.160   0.207  10.787
 1183SOL    HW1 4007   1.160   0.271  10.864
 1183SOL    HW2 4008   1.188   0.255  10.704
 1184SOL     OW 4009   0.008   1.326   9.510
 1184SOL    HW1 4010  -0.085   1.347   9.479
 1184SOL    HW2 4011   0.018   1.227   9.523
 1185SOL     OW 4012   0.088   1.801  10.237
 1185SOL    HW1 4013   0.046   1.715  10.210
 1185SOL    HW2 4014   0.182   1.804  10.203
 1186SOL     OW 4015   0.504   1.568  10.220
 1186SOL    HW1 4016   0.570   1.642  10.229
 1186SOL    HW2 4017   0.548   1.489  10.178
 1187SOL     OW 4018   1.002   0.796  10.548
 1187SOL    HW1 4019   1.043   0.764  10.634
 1187SOL    HW2 4020   0.906   0.769  10.545
 1188SOL     OW 4021   0.040   0.544  10.424
 1188SOL    HW1 4022   0.125   0.511  10.383
 1188SOL    HW2 4023   0.053   0.559  10.522
 1189SOL     OW 4024   0.815   0.572   9.635
 1189SOL    HW1 4025   0.822   0.483   9.589
 1189SOL    HW2 4026   0.721   0.606   9.627
 1190SOL     OW 4027   1.657   0.604  10.516
 1190SOL    HW1 4028   1.619   0.535  10.578
 1190SOL    HW2 4029   1.739   0.568  10.472
 1191SOL     OW 4030   0.252   1.564  11.054
 1191SOL    HW1 4031   0.222   1.621  11.130
 1191SOL    HW2 4032   0.245   1.467  11.080
 1192SOL     OW 4033   0.671   0.464  10.579
 1192SOL    HW1 4034   0.637   0.375  10.549
 1192SOL    HW2 4035   0.697   0.518  10.499
 1193SOL     OW 4036   0.930   1.678  10.775
 1193SOL    HW1 4037   0.906   1.660  10.680
 1193SOL    HW2 4038   0.960   1.772  10.785
 1194SOL     OW 4039   0.473   0.500   9.501
 1194SOL    HW1 4040   0.534   0.580   9.505
 1194SOL    HW2 4041   0.378   0.531   9.508
 1195SOL     OW 4042   0.159   1.137  10.776
 1195SOL    HW1 4043   0.181   1.076  10.852
 1195SOL    HW2 4044   0.169   1.088  10.690
 1196SOL     OW 4045   1.347   1.059  10.544
 1196SOL    HW1 4046   1.371   0.996  10.470
 1196SOL    HW2 4047   1.257   1.099  10.526
 1197SOL     OW 4048   1.302   0.855   9.619
 1197SOL    HW1 4049   1.216   0.824   9.661
 1197SOL    HW2 4050   1.298   0.841   9.520
 1198SOL     OW 4051   1.759   1.747  10.464
 1198SOL    HW1 4052   1.820   1.777  10.391
 1198SOL    HW2 4053   1.721   1.658  10.442
 1199SOL     OW 4054   1.252   1.731  10.438
 1199SOL    HW1 4055   1.336   1.736  10.384
 1199SOL    HW2 4056   1.229   1.635  10.456
 1200SOL     OW 4057   0.083   1.258  10.332
 1200SOL    HW1 4058   0.078   1.257  10.432
 1200SOL    HW2 4059   0.000   1.217  10.294
 1201SOL     OW 4060   1.726   0.135   9.833
 1201SOL    HW1 4061   1.799   0.118   9.766
 1201SOL    HW2 4062   1.695   0.048   9.871
 1202SOL     OW 4063   1.388   1.573   9.787
 1202SOL    HW1 4064   1.455   1.585   9.713
 1202SOL    HW2 4065   1.348   1.662   9.810
 1203SOL     OW 4066   1.280   0.927   9.982
 1203SOL    HW1 4067   1.340   0.846   9.984
 1203SOL    HW2 4068   1.320   0.996   9.922
 1204SOL     OW 4069   0.830   1.273  10.732
 1204SOL    HW1 4070   0.825   1.306  10.827
 1204SOL    HW2 4071   0.744   1.292  10.686
 1205SOL     OW 4072   0.672   1.616   9.464
 1205SOL    HW1 4073   0.681   1.626   9.365
 1205SOL    HW2 4074   0.632   1.527   9.485
 1206SOL     OW 4075   1.650   1.720  10.704
 1206SOL    HW1 4076   1.703   1.730  10.620
 1206SOL    HW2 4077   1.623   1.810  10.738
 1207SOL     OW 4078   1.841   0.175  10.273
 1207SOL    HW1 4079   1.880   0.090  10.237
 1207SOL    HW2 4080   1.743   0.177  10.254
 1208SOL     OW 4081   0.263   0.326  10.030
 1208SOL    HW1 4082   0.184   0.377   9.996
 1208SOL    HW2 4083   0.254   0.311  10.128
 1209SOL     OW 4084   1.194   1.612   9.341
 1209SOL    HW1 4085   1.200   1.519   9.378
 1209SOL    HW2 4086   1.135   1.612   9.261
 1210SOL     OW 4087   0.822   1.002  10.682
 1210SOL    HW1 4088   0.862   1.001  10.590
 1210SOL    HW2 4089   0.832   1.094  10.722
 1211SOL     OW 4090   0.916   0.910   9.601
 1211SOL    HW1 4091   0.979   0.948   9.533
 1211SOL    HW2 4092   0.956   0.827   9.640
 1212SOL     OW 4093   1.504   1.607   9.354
 1212SOL    HW1 4094   1.412   1.644   9.361
 1212SOL    HW2 4095   1.542   1.627   9.264
 1213SOL     OW 4096   0.372   1.288  10.800
 1213SOL    HW1 4097   0.359   1.381  10.766
 1213SOL    HW2 4098   0.288   1.236  10.787
 1214SOL     OW 4099   1.614   1.292  10.599
 1214SOL    HW1 4100   1.674   1.295  10.679
 1214SOL    HW2 4101   1.539   1.356  10.612
 1215SOL     OW 4102   1.039   1.098  10.006
 1215SOL    HW1 4103   0.969   1.051  10.060
 1215SOL    HW2 4104   1.098   1.030   9.963
 1216SOL     OW 4105   1.014   0.236  10.281
 1216SOL    HW1 4106   1.006   0.200  10.188
 1216SOL    HW2 4107   1.012   0.160  10.346
 1217SOL     OW 4108   0.590   1.487   9.801
 1217SOL    HW1 4109   0.632   1.429   9.731
 1217SOL    HW2 4110   0.546   1.566   9.757
 1218SOL     OW 4111   1.709   0.385  10.691
 1218SOL    HW1 4112   1.782   0.454  10.695
 1218SOL    HW2 4113   1.737   0.310  10.632
 1219SOL     OW 4114   0.255   1.348   9.600
 1219SOL    HW1 4115   0.159   1.349   9.573
 1219SOL    HW2 4116   0.267   1.401   9.684
 1220SOL     OW 4117   0.105   1.013  11.036
 1220SOL    HW1 4118   0.028   0.980  11.090
 1220SOL    HW2 4119   0.190   0.983  11.078
 1221SOL     OW 4120   0.672   0.203  10.799
 1221SOL    HW1 4121   0.762   0.187  10.759
 1221SOL    HW2 4122   0.680   0.208  10.898
 1222SOL     OW 4123   0.075   0.345   9.343
 1222SOL    HW1 4124  -0.017   0.317   9.314
 1222SOL    HW2 4125   0.106   0.422   9.287
 1223SOL     OW 4126   1.440   0.856  10.708
 1223SOL    HW1 4127   1.383   0.908  10.645
 1223SOL    HW2 4128   1.536   0.868  10.684
 1224SOL     OW 4129   0.072   0.166   9.628
 1224SOL    HW1 4130   0.055   0.249   9.574
 1224SOL    HW2 4131   0.162   0.129   9.606
 1225SOL     OW 4132   1.183   1.335   9.429
 1225SOL    HW1 4133   1.084   1.324   9.431
 1225SOL    HW2 4134   1.217   1.350   9.522
 1226SOL     OW 4135   0.613   0.842  10.741
 1226SOL    HW1 4136   0.669   0.923  10.724
 1226SOL    HW2 4137   0.672   0.762  10.744
 1227SOL     OW 4138   1.493   1.767  10.269
 1227SOL    HW1 4139   1.526   1.831  10.200
 1227SOL    HW2 4140   1.559   1.761  10.344
 1228SOL     OW 4141   0.716   0.565  11.018
 1228SOL    HW1 4142   0.735   0.630  11.092
 1228SOL    HW2 4143   0.776   0.485  11.027
 1229SOL     OW 4144   0.390   1.741  10.870
 1229SOL    HW1 4145   0.299   1.782  10.868
 1229SOL    HW2 4146   0.383   1.647  10.902
 1230SOL     OW 4147   1.674   0.883  10.564
 1230SOL    HW1 4148   1.647   0.794  10.527
 1230SOL    HW2 4149   1.675   0.951  10.491
 1231SOL     OW 4150   1.225   0.325   9.759
 1231SOL    HW1 4151   1.290   0.251   9.748
 1231SOL    HW2 4152   1.245   0.375   9.843
 1232SOL     OW 4153   0.594   0.745   9.962
 1232SOL    HW1 4154   0.644   0.830   9.943
 1232SOL    HW2 4155   0.506   0.747   9.914
 1233SOL     OW 4156   1.777   0.342  10.952
 1233SOL    HW1 4157   1.760   0.373  10.858
 1233SOL    HW2 4158   1.693   0.305  10.990
 1234SOL     OW 4159   1.730   0.934  10.827
 1234SOL    HW1 4160   1.768   1.025  10.842
 1234SOL    HW2 4161   1.722   0.917  10.728
 1235SOL     OW 4162   0.859   1.374   9.326
 1235SOL    HW1 4163   0.813   1.389   9.414
 1235SOL    HW2 4164   0.903   1.459   9.296
 1236SOL     OW 4165   0.661   1.790  10.263
 1236SOL    HW1 4166   0.615   1.878  10.250
 1236SOL    HW2 4167   0.760   1.802  10.256
 1237SOL     OW 4168   0.859   0.956  10.171
 1237SOL    HW1 4169   0.913   0.887  10.219
 1237SOL    HW2 4170   0.827   1.025  10.237
 1238SOL     OW 4171   1.083   0.984   9.397
 1238SOL    HW1 4172   1.060   1.037   9.315
 1238SOL    HW2 4173   1.164   0.928   9.378
 1239SOL     OW 4174   1.861   1.569  10.161
 1239SOL    HW1 4175   1.790   1.557  10.091
 1239SOL    HW2 4176   1.862   1.490  10.221
 1240SOL     OW 4177   0.079   1.240   9.963
 1240SOL    HW1 4178   0.078   1.193  10.051
 1240SOL    HW2 4179   0.161   1.212   9.912
 1241SOL     OW 4180   0.672   1.391  10.934
 1241SOL    HW1 4181   0.594   1.341  10.972
 1241SOL    HW2 4182   0.669   1.486  10.965
 1242SOL     OW 4183   1.824   0.192  10.537
 1242SOL    HW1 4184   1.820   0.102  10.581
 1242SOL    HW2 4185   1.827   0.181  10.438
 1243SOL     OW 4186   0.428   0.424   9.830
 1243SOL    HW1 4187   0.458   0.352   9.768
 1243SOL    HW2 4188   0.389   0.384   9.913
 1244SOL     OW 4189   1.705   1.487  10.414
 1244SOL    HW1 4190   1.612   1.462  10.387
 1244SOL    HW2 4191   1.731   1.437  10.496
 1245SOL     OW 4192   0.317   0.547  10.590
 1245SOL    HW1 4193   0.355   0.488  10.662
 1245SOL    HW2 4194   0.357   0.521  10.502
 1246SOL     OW 4195   0.812   1.586   9.997
 1246SOL    HW1 4196   0.844   1.596   9.903
 1246SOL    HW2 4197   0.733   1.524   9.999
 1247SOL     OW 4198   1.424   0.214  10.422
 1247SOL    HW1 4199   1.476   0.149  10.477
 1247SOL    HW2 4200   1.375   0.277  10.483
 1248SOL     OW 4201   1.001   0.034  10.464
 1248SOL    HW1 4202   0.938  -0.038  10.433
 1248SOL    HW2 4203   1.094  -0.002  10.464
 1249SOL     OW 4204   0.770   1.330   9.611
 1249SOL    HW1 4205   0.724   1.243   9.628
 1249SOL    HW2 4206   0.861   1.327   9.652
 1250SOL     OW 4207   0.618   1.567  10.594
 1250SOL    HW1 4208   0.613   1.649  10.651
 1250SOL    HW2 4209   0.707   1.564  10.549
 1251SOL     OW 4210   1.352   0.052   9.478
 1251SOL    HW1 4211   1.387   0.011   9.394
 1251SOL    HW2 4212   1.262   0.014   9.498
 1252SOL     OW 4213   1.300   0.453  10.001
 1252SOL    HW1 4214   1.241   0.533  10.005
 1252SOL    HW2 4215   1.315   0.418  10.094
 1253SOL     OW 4216   1.593   0.221  10.192
 1253SOL    HW1 4217   1.509   0.220  10.246
 1253SOL    HW2 4218   1.595   0.304  10.136
 1254SOL     OW 4219   0.039   1.077   9.610
 1254SOL    HW1 4220   0.138   1.066   9.601
 1254SOL    HW2 4221  -0.001   0.991   9.642
 1255SOL     OW 4222   0.875   1.646   9.647
 1255SOL    HW1 4223   0.798   1.611   9.593
 1255SOL    HW2 4224   0.843   1.717   9.709
 1256SOL     OW 4225   0.230   2.490   0.113
 1256SOL    HW1 4226   0.137   2.488   0.150
 1256SOL    HW2 4227   0.231   2.451   0.021
 1257SOL     OW 4228   0.225   2.137   0.996
 1257SOL    HW1 4229   0.260   2.120   1.088
 1257SOL    HW2 4230   0.137   2.092   0.984
 1258SOL     OW 4231   0.019   2.230   0.647
 1258SOL    HW1 4232  -0.063   2.273   0.686
 1258SOL    HW2 4233  -0.009   2.157   0.584
 1259SOL     OW 4234   0.569   3.137   1.165
 1259SOL    HW1 4235   0.476   3.130   1.128
 1259SOL    HW2 4236   0.580   3.226   1.209
 1260SOL     OW 4237   1.555   3.373   0.703
 1260SOL    HW1 4238   1.498   3.357   0.784
 1260SOL    HW2 4239   1.496   3.383   0.623
 1261SOL     OW 4240   1.135   2.565   0.717
 1261SOL    HW1 4241   1.192   2.643   0.692
 1261SOL    HW2 4242   1.075   2.591   0.793
 1262SOL     OW 4243   1.755   2.469   0.231
 1262SOL    HW1 4244   1.743   2.456   0.132
 1262SOL    HW2 4245   1.725   2.388   0.280
 1263SOL     OW 4246   0.768   3.006   1.023
 1263SOL    HW1 4247   0.690   3.023   1.083
 1263SOL    HW2 4248   0.802   3.093   0.987
 1264SOL     OW 4249   0.850   2.660   1.823
 1264SOL    HW1 4250   0.846   2.736   1.888
 1264SOL    HW2 4251   0.872   2.696   1.732
 1265SOL     OW 4252   0.685   2.874   0.665
 1265SOL    HW1 4253   0.754   2.858   0.735
 1265SOL    HW2 4254   0.612   2.931   0.703
 1266SOL     OW 4255   0.686   3.023   1.803
 1266SOL    HW1 4256   0.746   3.102   1.817
 1266SOL    HW2 4257   0.600   3.054   1.762
 1267SOL     OW 4258   0.335   3.297   1.061
 1267SOL    HW1 4259   0.257   3.266   1.008
 1267SOL    HW2 4260   0.393   3.355   1.004
 1268SOL     OW 4261   1.460   3.367   1.339
 1268SOL    HW1 4262   1.484   3.461   1.365
 1268SOL    HW2 4263   1.444   3.313   1.421
 1269SOL     OW 4264   0.438   2.254   1.499
 1269SOL    HW1 4265   0.520   2.198   1.508
 1269SOL    HW2 4266   0.357   2.196   1.503
 1270SOL     OW 4267   1.603   2.309   0.737
 1270SOL    HW1 4268   1.529   2.355   0.687
 1270SOL    HW2 4269   1.654   2.377   0.790
 1271SOL     OW 4270   0.231   3.575   0.483
 1271SOL    HW1 4271   0.265   3.652   0.537
 1271SOL    HW2 4272   0.275   3.575   0.393
 1272SOL     OW 4273   1.127   3.203   1.690
 1272SOL    HW1 4274   1.174   3.203   1.778
 1272SOL    HW2 4275   1.079   3.116   1.679
 1273SOL     OW 4276   0.230   3.296   0.538
 1273SOL    HW1 4277   0.204   3.392   0.538
 1273SOL    HW2 4278   0.159   3.242   0.583
 1274SOL     OW 4279   0.240   2.953   0.886
 1274SOL    HW1 4280   0.254   2.869   0.938
 1274SOL    HW2 4281   0.185   3.017   0.941
 1275SOL     OW 4282   0.620   3.648   1.439
 1275SOL    HW1 4283   0.528   3.631   1.474
 1275SOL    HW2 4284   0.648   3.740   1.465
 1276SOL     OW 4285   0.606   2.826   0.123
 1276SOL    HW1 4286   0.613   2.910   0.069
 1276SOL    HW2 4287   0.652   2.839   0.211
 1277SOL     OW 4288   1.594   1.976   1.480
 1277SOL    HW1 4289   1.576   2.043   1.408
 1277SOL    HW2 4290   1.591   2.022   1.569
 1278SOL     OW 4291   0.122   2.505   0.563
 1278SOL    HW1 4292   0.077   2.417   0.580
 1278SOL    HW2 4293   0.121   2.559   0.647
 1279SOL     OW 4294   1.842   3.629   0.359
 1279SOL    HW1 4295   1.896   3.600   0.439
 1279SOL    HW2 4296   1.872   3.719   0.330
 1280SOL     OW 4297   0.027   3.458   0.117
 1280SOL    HW1 4298   0.008   3.362   0.138
 1280SOL    HW2 4299  -0.006   3.516   0.192
 1281SOL     OW 4300   1.689   2.784   0.612
 1281SOL    HW1 4301   1.784   2.755   0.620
 1281SOL    HW2 4302   1.681   2.849   0.537
 1282SOL     OW 4303   1.641   2.970   0.432
 1282SOL    HW1 4304   1.727   2.972   0.380
 1282SOL    HW2 4305   1.655   3.017   0.520
 1283SOL     OW 4306   0.113   2.599   1.597
 1283SOL    HW1 4307   0.201   2.586   1.642
 1283SOL    HW2 4308   0.100   2.696   1.575
 1284SOL     OW 4309   0.613   3.227   0.726
 1284SOL    HW1 4310   0.564   3.140   0.735
 1284SOL    HW2 4311   0.590   3.270   0.639
 1285SOL     OW 4312   1.293   3.090   1.423
 1285SOL    HW1 4313   1.330   3.017   1.365
 1285SOL    HW2 4314   1.345   3.095   1.508
 1286SOL     OW 4315   0.809   1.866   0.502
 1286SOL    HW1 4316   0.849   1.957   0.493
 1286SOL    HW2 4317   0.709   1.874   0.508
 1287SOL     OW 4318   0.197   2.838   1.264
 1287SOL    HW1 4319   0.286   2.793   1.250
 1287SOL    HW2 4320   0.124   2.773   1.245
 1288SOL     OW 4321   1.525   2.861   0.190
 1288SOL    HW1 4322   1.462   2.785   0.203
 1288SOL    HW2 4323   1.573   2.879   0.276
 1289SOL     OW 4324   1.187   3.654   1.616
 1289SOL    HW1 4325   1.211   3.714   1.540
 1289SOL    HW2 4326   1.194   3.559   1.586
 1290SOL     OW 4327   0.317   2.113   1.801
 1290SOL    HW1 4328   0.388   2.184   1.807
 1290SOL    HW2 4329   0.229   2.152   1.829
 1291SOL     OW 4330   1.466   3.279   0.953
 1291SOL    HW1 4331   1.407   3.285   1.033
 1291SOL    HW2 4332   1.451   3.191   0.907
 1292SOL     OW 4333   1.667   3.576   0.572
 1292SOL    HW1 4334   1.626   3.553   0.484
 1292SOL    HW2 4335   1.649   3.502   0.637
 1293SOL     OW 4336   0.598   2.591   0.270
 1293SOL    HW1 4337   0.622   2.660   0.202
 1293SOL    HW2 4338   0.520   2.624   0.324
 1294SOL     OW 4339   1.281   2.207   0.944
 1294SOL    HW1 4340   1.195   2.157   0.931
 1294SOL    HW2 4341   1.343   2.153   1.000
 1295SOL     OW 4342   1.576   3.524   0.307
 1295SOL    HW1 4343   1.665   3.570   0.310
 1295SOL    HW2 4344   1.555   3.500   0.212
 1296SOL     OW 4345   0.807   2.467   1.465
 1296SOL    HW1 4346   0.760   2.464   1.554
 1296SOL    HW2 4347   0.756   2.412   1.399
 1297SOL     OW 4348   1.394   2.331   1.674
 1297SOL    HW1 4349   1.374   2.374   1.762
 1297SOL    HW2 4350   1.472   2.269   1.683
 1298SOL     OW 4351   0.973   2.752   1.572
 1298SOL    HW1 4352   1.019   2.668   1.543
 1298SOL    HW2 4353   0.917   2.786   1.497
 1299SOL     OW 4354   0.991   2.272   1.242
 1299SOL    HW1 4355   0.914   2.306   1.296
 1299SOL    HW2 4356   0.957   2.221   1.163
 1300SOL     OW 4357   1.041   2.563   0.429
 1300SOL    HW1 4358   1.067   2.559   0.525
 1300SOL    HW2 4359   0.956   2.512   0.415
 1301SOL     OW 4360   0.076   2.673   0.789
 1301SOL    HW1 4361   0.175   2.661   0.798
 1301SOL    HW2 4362   0.052   2.768   0.810
 1302SOL     OW 4363   0.130   3.683   1.571
 1302SOL    HW1 4364   0.120   3.668   1.670
 1302SOL    HW2 4365   0.044   3.719   1.535
 1303SOL     OW 4366   0.865   2.210   0.195
 1303SOL    HW1 4367   0.924   2.273   0.146
 1303SOL    HW2 4368   0.884   2.116   0.166
 1304SOL     OW 4369   1.719   2.447   1.831
 1304SOL    HW1 4370   1.693   2.536   1.795
 1304SOL    HW2 4371   1.717   2.379   1.758
 1305SOL     OW 4372   1.362   3.006   0.545
 1305SOL    HW1 4373   1.445   2.977   0.497
 1305SOL    HW2 4374   1.313   3.073   0.489
 1306SOL     OW 4375   0.550   2.058   0.885
 1306SOL    HW1 4376   0.545   2.053   0.985
 1306SOL    HW2 4377   0.552   2.154   0.856
 1307SOL     OW 4378   1.008   3.318   0.477
 1307SOL    HW1 4379   0.962   3.390   0.425
 1307SOL    HW2 4380   1.004   3.338   0.575
 1308SOL     OW 4381   0.351   3.663   0.853
 1308SOL    HW1 4382   0.401   3.577   0.859
 1308SOL    HW2 4383   0.416   3.740   0.850
 1309SOL     OW 4384   1.795   2.928   0.873
 1309SOL    HW1 4385   1.733   2.913   0.797
 1309SOL    HW2 4386   1.743   2.939   0.958
 1310SOL     OW 4387   1.227   3.412   1.506
 1310SOL    HW1 4388   1.233   3.335   1.570
 1310SOL    HW2 4389   1.175   3.386   1.426
 1311SOL     OW 4390   0.321   2.805   0.242
 1311SOL    HW1 4391   0.403   2.844   0.200
 1311SOL    HW2 4392   0.294   2.723   0.193
 1312SOL     OW 4393   1.458   2.597   0.728
 1312SOL    HW1 4394   1.453   2.532   0.803
 1312SOL    HW2 4395   1.538   2.656   0.741
 1313SOL     OW 4396   0.461   3.128   1.727
 1313SOL    HW1 4397   0.411   3.129   1.641
 1313SOL    HW2 4398   0.398   3.110   1.803
 1314SOL     OW 4399   1.111   3.638   0.237
 1314SOL    HW1 4400   1.051   3.576   0.287
 1314SOL    HW2 4401   1.142   3.594   0.152
 1315SOL     OW 4402   0.202   2.147   1.498
 1315SOL    HW1 4403   0.122   2.207   1.485
 1315SOL    HW2 4404   0.192   2.098   1.584
 1316SOL     OW 4405   1.632   3.239   0.081
 1316SOL    HW1 4406   1.600   3.333   0.071
 1316SOL    HW2 4407   1.556   3.176   0.069
 1317SOL     OW 4408   0.464   3.605   0.323
 1317SOL    HW1 4409   0.497   3.644   0.409
 1317SOL    HW2 4410   0.540   3.598   0.258
 1318SOL     OW 4411   1.400   1.969   0.426
 1318SOL    HW1 4412   1.376   1.932   0.336
 1318SOL    HW2 4413   1.499   1.985   0.430
 1319SOL     OW 4414   0.249   3.647   1.241
 1319SOL    HW1 4415   0.306   3.582   1.291
 1319SOL    HW2 4416   0.233   3.614   1.148
 1320SOL     OW 4417   0.940   3.560   0.904
 1320SOL    HW1 4418   1.020   3.503   0.925
 1320SOL    HW2 4419   0.891   3.520   0.827
 1321SOL     OW 4420   0.382   2.562   0.480
 1321SOL    HW1 4421   0.427   2.472   0.477
 1321SOL    HW2 4422   0.288   2.551   0.513
 1322SOL     OW 4423   1.547   2.084   1.729
 1322SOL    HW1 4424   1.542   2.121   1.821
 1322SOL    HW2 4425   1.475   2.015   1.717
 1323SOL     OW 4426   0.614   1.984   0.117
 1323SOL    HW1 4427   0.712   1.962   0.124
 1323SOL    HW2 4428   0.583   1.967   0.024
 1324SOL     OW 4429   0.781   2.126   1.749
 1324SOL    HW1 4430   0.848   2.065   1.792
 1324SOL    HW2 4431   0.708   2.145   1.814
 1325SOL     OW 4432   0.888   3.376   1.195
 1325SOL    HW1 4433   0.865   3.351   1.101
 1325SOL    HW2 4434   0.949   3.307   1.234
 1326SOL     OW 4435   1.351   2.452   1.433
 1326SOL    HW1 4436   1.379   2.409   1.518
 1326SOL    HW2 4437   1.376   2.548   1.434
 1327SOL     OW 4438   0.803   3.264   0.924
 1327SOL    HW1 4439   0.893   3.278   0.882
 1327SOL    HW2 4440   0.732   3.266   0.853
 1328SOL     OW 4441   0.922   2.365   0.899
 1328SOL    HW1 4442   0.897   2.356   0.803
 1328SOL    HW2 4443   0.970   2.283   0.930
 1329SOL     OW 4444   0.539   1.926   0.512
 1329SOL    HW1 4445   0.458   1.927   0.570
 1329SOL    HW2 4446   0.542   2.009   0.457
 1330SOL     OW 4447   1.434   3.050   0.041
 1330SOL    HW1 4448   1.466   2.974   0.098
 1330SOL    HW2 4449   1.342   3.077   0.071
 1331SOL     OW 4450   0.297   1.897   0.171
 1331SOL    HW1 4451   0.346   1.981   0.150
 1331SOL    HW2 4452   0.359   1.832   0.216
 1332SOL     OW 4453   0.935   2.098   0.480
 1332SOL    HW1 4454   0.887   2.139   0.402
 1332SOL    HW2 4455   1.034   2.096   0.461
 1333SOL     OW 4456   1.076   2.545   1.464
 1333SOL    HW1 4457   0.996   2.484   1.467
 1333SOL    HW2 4458   1.157   2.492   1.440
 1334SOL     OW 4459   1.227   3.432   0.793
 1334SOL    HW1 4460   1.248   3.506   0.728
 1334SOL    HW2 4461   1.295   3.432   0.866
 1335SOL     OW 4462   0.459   3.014   0.741
 1335SOL    HW1 4463   0.388   2.987   0.806
 1335SOL    HW2 4464   0.433   2.986   0.648
 1336SOL     OW 4465   1.271   3.659   0.591
 1336SOL    HW1 4466   1.315   3.723   0.527
 1336SOL    HW2 4467   1.221   3.711   0.661
 1337SOL     OW 4468   1.032   2.411   0.016
 1337SOL    HW1 4469   0.991   2.493  -0.023
 1337SOL    HW2 4470   1.096   2.437   0.089
 1338SOL     OW 4471   0.078   2.418   1.386
 1338SOL    HW1 4472   0.170   2.417   1.345
 1338SOL    HW2 4473   0.072   2.492   1.453
 1339SOL     OW 4474   0.561   2.084   1.147
 1339SOL    HW1 4475   0.599   2.000   1.184
 1339SOL    HW2 4476   0.473   2.103   1.191
 1340SOL     OW 4477   0.866   2.316   0.642
 1340SOL    HW1 4478   0.834   2.388   0.580
 1340SOL    HW2 4479   0.890   2.235   0.589
 1341SOL     OW 4480   1.017   1.901   0.753
 1341SOL    HW1 4481   0.945   1.906   0.684
 1341SOL    HW2 4482   0.993   1.832   0.822
 1342SOL     OW 4483   1.429   3.035   0.867
 1342SOL    HW1 4484   1.374   2.951   0.860
 1342SOL    HW2 4485   1.455   3.064   0.775
 1343SOL     OW 4486   1.466   2.452   0.992
 1343SOL    HW1 4487   1.436   2.357   0.999
 1343SOL    HW2 4488   1.539   2.468   1.058
 1344SOL     OW 4489   1.857   2.695   0.377
 1344SOL    HW1 4490   1.899   2.631   0.441
 1344SOL    HW2 4491   1.819   2.644   0.299
 1345SOL     OW 4492   0.488   3.247   0.174
 1345SOL    HW1 4493   0.401   3.232   0.221
 1345SOL    HW2 4494   0.471   3.273   0.079
 1346SOL     OW 4495   1.664   3.142   0.657
 1346SOL    HW1 4496   1.763   3.150   0.671
 1346SOL    HW2 4497   1.619   3.226   0.688
 1347SOL     OW 4498   1.390   2.437   0.078
 1347SOL    HW1 4499   1.336   2.416   0.159
 1347SOL    HW2 4500   1.481   2.396   0.087
 1348SOL     OW 4501   0.527   2.118   0.328
 1348SOL    HW1 4502   0.554   2.059   0.253
 1348SOL    HW2 4503   0.527   2.213   0.297
 1349SOL     OW 4504   1.754   3.085   1.588
 1349SOL    HW1 4505   1.845   3.046   1.575
 1349SOL    HW2 4506   1.762   3.181   1.612
 1350SOL     OW 4507   1.064   3.209   1.340
 1350SOL    HW1 4508   0.984   3.186   1.395
 1350SOL    HW2 4509   1.147   3.183   1.389
 1351SOL     OW 4510   1.592   3.491   1.625
 1351SOL    HW1 4511   1.619   3.525   1.535
 1351SOL    HW2 4512   1.671   3.453   1.671
 1352SOL     OW 4513   1.111   3.057   1.100
 1352SOL    HW1 4514   1.071   3.101   1.181
 1352SOL    HW2 4515   1.070   3.094   1.017
 1353SOL     OW 4516   1.638   2.961   1.079
 1353SOL    HW1 4517   1.643   3.042   1.138
 1353SOL    HW2 4518   1.552   2.963   1.028
 1354SOL     OW 4519   0.915   1.951   1.402
 1354SOL    HW1 4520   0.940   1.931   1.307
 1354SOL    HW2 4521   0.987   2.007   1.444
 1355SOL     OW 4522   0.980   2.978   1.719
 1355SOL    HW1 4523   0.881   2.984   1.729
 1355SOL    HW2 4524   1.003   2.898   1.663
 1356SOL     OW 4525   0.705   2.912   0.368
 1356SOL    HW1 4526   0.691   2.919   0.467
 1356SOL    HW2 4527   0.789   2.861   0.350
 1357SOL     OW 4528   0.410   2.675   1.251
 1357SOL    HW1 4529   0.496   2.687   1.301
 1357SOL    HW2 4530   0.368   2.588   1.278
 1358SOL     OW 4531   1.274   2.248   1.262
 1358SOL    HW1 4532   1.295   2.322   1.326
 1358SOL    HW2 4533   1.185   2.265   1.219
 1359SOL     OW 4534   0.064   3.426   1.331
 1359SOL    HW1 4535   0.018   3.508   1.297
 1359SOL    HW2 4536   0.162   3.445   1.340
 1360SOL     OW 4537   0.367   2.962   0.501
 1360SOL    HW1 4538   0.360   3.045   0.445
 1360SOL    HW2 4539   0.371   2.882   0.441
 1361SOL     OW 4540   0.566   2.399   0.865
 1361SOL    HW1 4541   0.578   2.465   0.791
 1361SOL    HW2 4542   0.612   2.433   0.948
 1362SOL     OW 4543   1.252   3.210   0.388
 1362SOL    HW1 4544   1.302   3.287   0.428
 1362SOL    HW2 4545   1.157   3.212   0.420
 1363SOL     OW 4546   1.272   3.307   1.142
 1363SOL    HW1 4547   1.319   3.320   1.229
 1363SOL    HW2 4548   1.206   3.233   1.151
 1364SOL     OW 4549   1.582   2.501   0.472
 1364SOL    HW1 4550   1.551   2.562   0.545
 1364SOL    HW2 4551   1.632   2.553   0.403
 1365SOL     OW 4552   0.354   3.372   1.329
 1365SOL    HW1 4553   0.333   3.328   1.242
 1365SOL    HW2 4554   0.451   3.398   1.332
 1366SOL     OW 4555   0.402   2.613   1.598
 1366SOL    HW1 4556   0.470   2.668   1.551
 1366SOL    HW2 4557   0.442   2.525   1.625
 1367SOL     OW 4558   1.587   2.641   1.670
 1367SOL    HW1 4559   1.495   2.679   1.665
 1367SOL    HW2 4560   1.647   2.688   1.605
 1368SOL     OW 4561   1.013   1.967   1.770
 1368SOL    HW1 4562   1.019   2.052   1.718
 1368SOL    HW2 4563   1.045   1.891   1.713
 1369SOL     OW 4564   0.504   1.912   1.740
 1369SOL    HW1 4565   0.462   1.855   1.670
 1369SOL    HW2 4566   0.438   1.981   1.772
 1370SOL     OW 4567   0.573   2.732   1.029
 1370SOL    HW1 4568   0.617   2.821   1.020
 1370SOL    HW2 4569   0.510   2.732   1.106
 1371SOL     OW 4570   1.360   2.724   1.045
 1371SOL    HW1 4571   1.285   2.724   0.979
 1371SOL    HW2 4572   1.397   2.632   1.054
 1372SOL     OW 4573   1.209   2.387   0.275
 1372SOL    HW1 4574   1.222   2.303   0.329
 1372SOL    HW2 4575   1.180   2.461   0.335
 1373SOL     OW 4576   0.307   2.075   1.231
 1373SOL    HW1 4577   0.284   2.112   1.321
 1373SOL    HW2 4578   0.277   1.980   1.225
 1374SOL     OW 4579   0.037   3.172   1.282
 1374SOL    HW1 4580   0.090   3.123   1.350
 1374SOL    HW2 4581   0.059   3.270   1.287
 1375SOL     OW 4582   0.732   2.496   1.064
 1375SOL    HW1 4583   0.791   2.470   0.988
 1375SOL    HW2 4584   0.704   2.592   1.053
 1376SOL     OW 4585   1.728   2.797   1.854
 1376SOL    HW1 4586   1.682   2.790   1.765
 1376SOL    HW2 4587   1.666   2.841   1.920
 1377SOL     OW 4588   0.307   1.925   0.618
 1377SOL    HW1 4589   0.296   2.019   0.651
 1377SOL    HW2 4590   0.302   1.862   0.695
 1378SOL     OW 4591   1.622   2.229   0.374
 1378SOL    HW1 4592   1.624   2.153   0.438
 1378SOL    HW2 4593   1.574   2.306   0.414
 1379SOL     OW 4594   1.023   2.628   0.966
 1379SOL    HW1 4595   1.038   2.649   1.062
 1379SOL    HW2 4596   0.993   2.533   0.957
 1380SOL     OW 4597   0.980   3.435   1.700
 1380SOL    HW1 4598   0.960   3.479   1.612
 1380SOL    HW2 4599   1.019   3.344   1.684
 1381SOL     OW 4600   1.859   3.380   1.605
 1381SOL    HW1 4601   1.873   3.407   1.510
 1381SOL    HW2 4602   1.942   3.402   1.658
 1382SOL     OW 4603   0.350   2.760   1.804
 1382SOL    HW1 4604   0.426   2.804   1.852
 1382SOL    HW2 4605   0.385   2.713   1.722
 1383SOL     OW 4606   1.540   2.136   0.125
 1383SOL    HW1 4607   1.479   2.061   0.148
 1383SOL    HW2 4608   1.562   2.188   0.208
 1384SOL     OW 4609   1.303   2.700   0.042
 1384SOL    HW1 4610   1.337   2.607   0.057
 1384SOL    HW2 4611   1.321   2.727  -0.053
 1385SOL     OW 4612   1.068   3.195   0.849
 1385SOL    HW1 4613   1.075   3.111   0.794
 1385SOL    HW2 4614   1.130   3.264   0.813
 1386SOL     OW 4615   0.319   2.672   0.949
 1386SOL    HW1 4616   0.412   2.708   0.954
 1386SOL    HW2 4617   0.313   2.587   1.001
 1387SOL     OW 4618   0.339   2.371   1.006
 1387SOL    HW1 4619   0.287   2.288   0.989
 1387SOL    HW2 4620   0.416   2.376   0.942
 1388SOL     OW 4621   1.138   2.242   1.678
 1388SOL    HW1 4622   1.093   2.305   1.742
 1388SOL    HW2 4623   1.231   2.273   1.661
 1389SOL     OW 4624   1.160   2.069   1.477
 1389SOL    HW1 4625   1.160   2.133   1.554
 1389SOL    HW2 4626   1.188   2.117   1.394
 1390SOL     OW 4627   0.008   3.188   0.200
 1390SOL    HW1 4628  -0.085   3.209   0.169
 1390SOL    HW2 4629   0.018   3.089   0.213
 1391SOL     OW 4630   0.088   3.663   0.927
 1391SOL    HW1 4631   0.046   3.577   0.900
 1391SOL    HW2 4632   0.182   3.666   0.893
 1392SOL     OW 4633   0.504   3.430   0.910
 1392SOL    HW1 4634   0.570   3.504   0.919
 1392SOL    HW2 4635   0.548   3.351   0.868
 1393SOL     OW 4636   1.002   2.658   1.238
 1393SOL    HW1 4637   1.043   2.626   1.324
 1393SOL    HW2 4638   0.906   2.631   1.235
 1394SOL     OW 4639   0.040   2.406   1.114
 1394SOL    HW1 4640   0.125   2.373   1.073
 1394SOL    HW2 4641   0.053   2.421   1.212
 1395SOL     OW 4642   0.189   2.382   1.722
 1395SOL    HW1 4643   0.248   2.342   1.652
 1395SOL    HW2 4644   0.131   2.453   1.681
 1396SOL     OW 4645   1.369   2.812   1.660
 1396SOL    HW1 4646   1.408   2.901   1.680
 1396SOL    HW2 4647   1.379   2.792   1.563
 1397SOL     OW 4648   0.815   2.434   0.325
 1397SOL    HW1 4649   0.822   2.345   0.279
 1397SOL    HW2 4650   0.721   2.468   0.317
 1398SOL     OW 4651   1.657   2.466   1.206
 1398SOL    HW1 4652   1.619   2.397   1.268
 1398SOL    HW2 4653   1.739   2.430   1.162
 1399SOL     OW 4654   0.252   3.426   1.744
 1399SOL    HW1 4655   0.222   3.483   1.820
 1399SOL    HW2 4656   0.245   3.329   1.770
 1400SOL     OW 4657   0.671   2.326   1.269
 1400SOL    HW1 4658   0.637   2.237   1.239
 1400SOL    HW2 4659   0.697   2.380   1.189
 1401SOL     OW 4660   0.930   3.540   1.465
 1401SOL    HW1 4661   0.906   3.522   1.370
 1401SOL    HW2 4662   0.960   3.634   1.475
 1402SOL     OW 4663   0.473   2.362   0.191
 1402SOL    HW1 4664   0.534   2.442   0.195
 1402SOL    HW2 4665   0.378   2.393   0.198
 1403SOL     OW 4666   0.159   2.999   1.466
 1403SOL    HW1 4667   0.181   2.938   1.542
 1403SOL    HW2 4668   0.169   2.950   1.380
 1404SOL     OW 4669   1.347   2.921   1.234
 1404SOL    HW1 4670   1.371   2.858   1.160
 1404SOL    HW2 4671   1.257   2.961   1.216
 1405SOL     OW 4672   1.302   2.717   0.309
 1405SOL    HW1 4673   1.216   2.686   0.351
 1405SOL    HW2 4674   1.298   2.703   0.210
 1406SOL     OW 4675   1.759   3.609   1.154
 1406SOL    HW1 4676   1.820   3.639   1.081
 1406SOL    HW2 4677   1.721   3.520   1.132
 1407SOL     OW 4678   1.252   3.593   1.128
 1407SOL    HW1 4679   1.336   3.598   1.074
 1407SOL    HW2 4680   1.229   3.497   1.146
 1408SOL     OW 4681   0.083   3.120   1.022
 1408SOL    HW1 4682   0.078   3.119   1.122
 1408SOL    HW2 4683   0.000   3.079   0.984
 1409SOL     OW 4684   0.688   3.524   1.716
 1409SOL    HW1 4685   0.632   3.605   1.725
 1409SOL    HW2 4686   0.740   3.528   1.630
 1410SOL     OW 4687   0.903   1.948   0.133
 1410SOL    HW1 4688   0.954   1.949   0.047
 1410SOL    HW2 4689   0.959   1.906   0.204
 1411SOL     OW 4690   1.726   1.997   0.523
 1411SOL    HW1 4691   1.799   1.980   0.456
 1411SOL    HW2 4692   1.695   1.910   0.561
 1412SOL     OW 4693   1.388   3.435   0.477
 1412SOL    HW1 4694   1.455   3.447   0.403
 1412SOL    HW2 4695   1.348   3.524   0.500
 1413SOL     OW 4696   0.130   3.656   1.851
 1413SOL    HW1 4697   0.089   3.582   1.904
 1413SOL    HW2 4698   0.194   3.707   1.909
 1414SOL     OW 4699   1.280   2.789   0.672
 1414SOL    HW1 4700   1.340   2.708   0.674
 1414SOL    HW2 4701   1.320   2.858   0.612
 1415SOL     OW 4702   0.830   3.135   1.422
 1415SOL    HW1 4703   0.825   3.168   1.517
 1415SOL    HW2 4704   0.744   3.154   1.376
 1416SOL     OW 4705   0.672   3.478   0.154
 1416SOL    HW1 4706   0.681   3.488   0.055
 1416SOL    HW2 4707   0.632   3.389   0.175
 1417SOL     OW 4708   1.650   3.582   1.394
 1417SOL    HW1 4709   1.703   3.592   1.310
 1417SOL    HW2 4710   1.623   3.672   1.428
 1418SOL     OW 4711   1.841   2.037   0.963
 1418SOL    HW1 4712   1.880   1.952   0.927
 1418SOL    HW2 4713   1.743   2.039   0.944
 1419SOL     OW 4714   0.263   2.188   0.720
 1419SOL    HW1 4715   0.184   2.239   0.686
 1419SOL    HW2 4716   0.254   2.173   0.818
 1420SOL     OW 4717   1.194   3.474   0.031
 1420SOL    HW1 4718   1.200   3.381   0.068
 1420SOL    HW2 4719   1.135   3.474  -0.049
 1421SOL     OW 4720   0.822   2.864   1.372
 1421SOL    HW1 4721   0.862   2.863   1.280
 1421SOL    HW2 4722   0.832   2.956   1.412
 1422SOL     OW 4723   0.916   2.772   0.291
 1422SOL    HW1 4724   0.979   2.810   0.223
 1422SOL    HW2 4725   0.956   2.689   0.330
 1423SOL     OW 4726   1.504   3.469   0.044
 1423SOL    HW1 4727   1.412   3.506   0.051
 1423SOL    HW2 4728   1.542   3.489  -0.046
 1424SOL     OW 4729   0.372   3.150   1.490
 1424SOL    HW1 4730   0.359   3.243   1.456
 1424SOL    HW2 4731   0.288   3.098   1.477
 1425SOL     OW 4732   1.614   3.154   1.289
 1425SOL    HW1 4733   1.674   3.157   1.369
 1425SOL    HW2 4734   1.539   3.218   1.302
 1426SOL     OW 4735   1.039   2.960   0.696
 1426SOL    HW1 4736   0.969   2.913   0.750
 1426SOL    HW2 4737   1.098   2.892   0.653
 1427SOL     OW 4738   1.014   2.098   0.971
 1427SOL    HW1 4739   1.006   2.062   0.878
 1427SOL    HW2 4740   1.012   2.022   1.036
 1428SOL     OW 4741   0.590   3.349   0.491
 1428SOL    HW1 4742   0.632   3.291   0.421
 1428SOL    HW2 4743   0.546   3.428   0.447
 1429SOL     OW 4744   1.709   2.247   1.381
 1429SOL    HW1 4745   1.782   2.316   1.385
 1429SOL    HW2 4746   1.737   2.172   1.322
 1430SOL     OW 4747   0.255   3.210   0.290
 1430SOL    HW1 4748   0.159   3.211   0.263
 1430SOL    HW2 4749   0.267   3.263   0.374
 1431SOL     OW 4750   0.105   2.875   1.726
 1431SOL    HW1 4751   0.028   2.842   1.780
 1431SOL    HW2 4752   0.190   2.845   1.768
 1432SOL     OW 4753   0.672   2.065   1.489
 1432SOL    HW1 4754   0.762   2.049   1.449
 1432SOL    HW2 4755   0.680   2.070   1.588
 1433SOL     OW 4756   0.075   2.207   0.033
 1433SOL    HW1 4757  -0.017   2.179   0.004
 1433SOL    HW2 4758   0.106   2.284  -0.023
 1434SOL     OW 4759   1.440   2.718   1.398
 1434SOL    HW1 4760   1.383   2.770   1.335
 1434SOL    HW2 4761   1.536   2.730   1.374
 1435SOL     OW 4762   0.072   2.028   0.318
 1435SOL    HW1 4763   0.055   2.111   0.264
 1435SOL    HW2 4764   0.162   1.991   0.296
 1436SOL     OW 4765   1.183   3.197   0.119
 1436SOL    HW1 4766   1.084   3.186   0.121
 1436SOL    HW2 4767   1.217   3.212   0.212
 1437SOL     OW 4768   0.613   2.704   1.431
 1437SOL    HW1 4769   0.669   2.785   1.414
 1437SOL    HW2 4770   0.672   2.624   1.434
 1438SOL     OW 4771   1.493   3.629   0.959
 1438SOL    HW1 4772   1.526   3.693   0.890
 1438SOL    HW2 4773   1.559   3.623   1.034
 1439SOL     OW 4774   0.716   2.427   1.708
 1439SOL    HW1 4775   0.735   2.492   1.782
 1439SOL    HW2 4776   0.776   2.347   1.717
 1440SOL     OW 4777   1.450   3.082   1.633
 1440SOL    HW1 4778   1.441   3.072   1.732
 1440SOL    HW2 4779   1.546   3.075   1.607
 1441SOL     OW 4780   0.390   3.603   1.560
 1441SOL    HW1 4781   0.299   3.644   1.558
 1441SOL    HW2 4782   0.383   3.509   1.592
 1442SOL     OW 4783   1.674   2.745   1.254
 1442SOL    HW1 4784   1.647   2.656   1.217
 1442SOL    HW2 4785   1.675   2.813   1.181
 1443SOL     OW 4786   1.225   2.187   0.449
 1443SOL    HW1 4787   1.290   2.113   0.438
 1443SOL    HW2 4788   1.245   2.237   0.533
 1444SOL     OW 4789   0.594   2.607   0.652
 1444SOL    HW1 4790   0.644   2.692   0.633
 1444SOL    HW2 4791   0.506   2.609   0.604
 1445SOL     OW 4792   1.777   2.204   1.642
 1445SOL    HW1 4793   1.760   2.235   1.548
 1445SOL    HW2 4794   1.693   2.167   1.680
 1446SOL     OW 4795   1.730   2.796   1.517
 1446SOL    HW1 4796   1.768   2.887   1.532
 1446SOL    HW2 4797   1.722   2.779   1.418
 1447SOL     OW 4798   0.859   3.236   0.016
 1447SOL    HW1 4799   0.813   3.251   0.104
 1447SOL    HW2 4800   0.903   3.321  -0.014
 1448SOL     OW 4801   0.661   3.652   0.953
 1448SOL    HW1 4802   0.615   3.740   0.940
 1448SOL    HW2 4803   0.760   3.664   0.946
 1449SOL     OW 4804   0.859   2.818   0.861
 1449SOL    HW1 4805   0.913   2.749   0.909
 1449SOL    HW2 4806   0.827   2.887   0.927
 1450SOL     OW 4807   1.083   2.846   0.087
 1450SOL    HW1 4808   1.060   2.899   0.005
 1450SOL    HW2 4809   1.164   2.790   0.068
 1451SOL     OW 4810   1.861   3.431   0.851
 1451SOL    HW1 4811   1.790   3.419   0.781
 1451SOL    HW2 4812   1.862   3.352   0.911
 1452SOL     OW 4813   0.221   3.176   1.844
 1452SOL    HW1 4814   0.156   3.103   1.823
 1452SOL    HW2 4815   0.225   3.190   1.942
 1453SOL     OW 4816   0.079   3.102   0.653
 1453SOL    HW1 4817   0.078   3.055   0.741
 1453SOL    HW2 4818   0.161   3.074   0.602
 1454SOL     OW 4819   0.672   3.253   1.624
 1454SOL    HW1 4820   0.594   3.203   1.662
 1454SOL    HW2 4821   0.669   3.348   1.655
 1455SOL     OW 4822   1.824   2.054   1.227
 1455SOL    HW1 4823   1.820   1.964   1.271
 1455SOL    HW2 4824   1.827   2.043   1.128
 1456SOL     OW 4825   0.428   2.286   0.520
 1456SOL    HW1 4826   0.458   2.214   0.458
 1456SOL    HW2 4827   0.389   2.246   0.603
 1457SOL     OW 4828   1.705   3.349   1.104
 1457SOL    HW1 4829   1.612   3.324   1.077
 1457SOL    HW2 4830   1.731   3.299   1.186
 1458SOL     OW 4831   0.317   2.409   1.280
 1458SOL    HW1 4832   0.355   2.350   1.352
 1458SOL    HW2 4833   0.357   2.383   1.192
 1459SOL     OW 4834   0.812   3.448   0.687
 1459SOL    HW1 4835   0.844   3.458   0.593
 1459SOL    HW2 4836   0.733   3.386   0.689
 1460SOL     OW 4837   1.424   2.076   1.112
 1460SOL    HW1 4838   1.476   2.011   1.167
 1460SOL    HW2 4839   1.375   2.139   1.173
 1461SOL     OW 4840   1.001   1.896   1.154
 1461SOL    HW1 4841   0.938   1.824   1.123
 1461SOL    HW2 4842   1.094   1.860   1.154
 1462SOL     OW 4843   0.770   3.192   0.301
 1462SOL    HW1 4844   0.724   3.105   0.318
 1462SOL    HW2 4845   0.861   3.189   0.342
 1463SOL     OW 4846   0.618   3.429   1.284
 1463SOL    HW1 4847   0.613   3.511   1.341
 1463SOL    HW2 4848   0.707   3.426   1.239
 1464SOL     OW 4849   1.352   1.914   0.168
 1464SOL    HW1 4850   1.387   1.873   0.084
 1464SOL    HW2 4851   1.262   1.876   0.188
 1465SOL     OW 4852   1.300   2.315   0.691
 1465SOL    HW1 4853   1.241   2.395   0.695
 1465SOL    HW2 4854   1.315   2.280   0.784
 1466SOL     OW 4855   1.593   2.083   0.882
 1466SOL    HW1 4856   1.509   2.082   0.936
 1466SOL    HW2 4857   1.595   2.166   0.826
 1467SOL     OW 4858   0.039   2.939   0.300
 1467SOL    HW1 4859   0.138   2.928   0.291
 1467SOL    HW2 4860  -0.001   2.853   0.332
 1468SOL     OW 4861   0.875   3.508   0.337
 1468SOL    HW1 4862   0.798   3.473   0.283
 1468SOL    HW2 4863   0.843   3.579   0.399
 1469SOL     OW 4864   0.230   2.490   1.975
 1469SOL    HW1 4865   0.137   2.488   2.012
 1469SOL    HW2 4866   0.231   2.451   1.883
 1470SOL     OW 4867   0.225   2.137   2.858
 1470SOL    HW1 4868   0.260   2.120   2.950
 1470SOL    HW2 4869   0.137   2.092   2.846
 1471SOL     OW 4870   0.019   2.230   2.509
 1471SOL    HW1 4871  -0.063   2.273   2.548
 1471SOL    HW2 4872  -0.009   2.157   2.446
 1472SOL     OW 4873   0.569   3.137   3.027
 1472SOL    HW1 4874   0.476   3.130   2.990
 1472SOL    HW2 4875   0.580   3.226   3.071
 1473SOL     OW 4876   1.555   3.373   2.565
 1473SOL    HW1 4877   1.498   3.357   2.646
 1473SOL    HW2 4878   1.496   3.383   2.485
 1474SOL     OW 4879   1.135   2.565   2.579
 1474SOL    HW1 4880   1.192   2.643   2.554
 1474SOL    HW2 4881   1.075   2.591   2.655
 1475SOL     OW 4882   1.755   2.469   2.093
 1475SOL    HW1 4883   1.743   2.456   1.994
 1475SOL    HW2 4884   1.725   2.388   2.142
 1476SOL     OW 4885   0.768   3.006   2.885
 1476SOL    HW1 4886   0.690   3.023   2.945
 1476SOL    HW2 4887   0.802   3.093   2.849
 1477SOL     OW 4888   0.850   2.660   3.685
 1477SOL    HW1 4889   0.846   2.736   3.750
 1477SOL    HW2 4890   0.872   2.696   3.594
 1478SOL     OW 4891   0.685   2.874   2.527
 1478SOL    HW1 4892   0.754   2.858   2.597
 1478SOL    HW2 4893   0.612   2.931   2.565
 1479SOL     OW 4894   0.686   3.023   3.665
 1479SOL    HW1 4895   0.746   3.102   3.679
 1479SOL    HW2 4896   0.600   3.054   3.624
 1480SOL     OW 4897   0.335   3.297   2.923
 1480SOL    HW1 4898   0.257   3.266   2.870
 1480SOL    HW2 4899   0.393   3.355   2.866
 1481SOL     OW 4900   1.460   3.367   3.201
 1481SOL    HW1 4901   1.484   3.461   3.227
 1481SOL    HW2 4902   1.444   3.313   3.283
 1482SOL     OW 4903   0.438   2.254   3.361
 1482SOL    HW1 4904   0.520   2.198   3.370
 1482SOL    HW2 4905   0.357   2.196   3.365
 1483SOL     OW 4906   1.603   2.309   2.599
 1483SOL    HW1 4907   1.529   2.355   2.549
 1483SOL    HW2 4908   1.654   2.377   2.652
 1484SOL     OW 4909   0.231   3.575   2.345
 1484SOL    HW1 4910   0.265   3.652   2.399
 1484SOL    HW2 4911   0.275   3.575   2.255
 1485SOL     OW 4912   1.127   3.203   3.552
 1485SOL    HW1 4913   1.174   3.203   3.640
 1485SOL    HW2 4914   1.079   3.116   3.541
 1486SOL     OW 4915   0.230   3.296   2.400
 1486SOL    HW1 4916   0.204   3.392   2.400
 1486SOL    HW2 4917   0.159   3.242   2.445
 1487SOL     OW 4918   0.240   2.953   2.748
 1487SOL    HW1 4919   0.254   2.869   2.800
 1487SOL    HW2 4920   0.185   3.017   2.803
 1488SOL     OW 4921   0.620   3.648   3.301
 1488SOL    HW1 4922   0.528   3.631   3.336
 1488SOL    HW2 4923   0.648   3.740   3.327
 1489SOL     OW 4924   0.606   2.826   1.985
 1489SOL    HW1 4925   0.613   2.910   1.931
 1489SOL    HW2 4926   0.652   2.839   2.073
 1490SOL     OW 4927   1.594   1.976   3.342
 1490SOL    HW1 4928   1.576   2.043   3.270
 1490SOL    HW2 4929   1.591   2.022   3.431
 1491SOL     OW 4930   0.122   2.505   2.425
 1491SOL    HW1 4931   0.077   2.417   2.442
 1491SOL    HW2 4932   0.121   2.559   2.509
 1492SOL     OW 4933   1.842   3.629   2.221
 1492SOL    HW1 4934   1.896   3.600   2.301
 1492SOL    HW2 4935   1.872   3.719   2.192
 1493SOL     OW 4936   0.027   3.458   1.979
 1493SOL    HW1 4937   0.008   3.362   2.000
 1493SOL    HW2 4938  -0.006   3.516   2.054
 1494SOL     OW 4939   1.689   2.784   2.474
 1494SOL    HW1 4940   1.784   2.755   2.482
 1494SOL    HW2 4941   1.681   2.849   2.399
 1495SOL     OW 4942   1.641   2.970   2.294
 1495SOL    HW1 4943   1.727   2.972   2.242
 1495SOL    HW2 4944   1.655   3.017   2.382
 1496SOL     OW 4945   0.113   2.599   3.459
 1496SOL    HW1 4946   0.201   2.586   3.504
 1496SOL    HW2 4947   0.100   2.696   3.437
 1497SOL     OW 4948   0.613   3.227   2.588
 1497SOL    HW1 4949   0.564   3.140   2.597
 1497SOL    HW2 4950   0.590   3.270   2.501
 1498SOL     OW 4951   1.293   3.090   3.285
 1498SOL    HW1 4952   1.330   3.017   3.227
 1498SOL    HW2 4953   1.345   3.095   3.370
 1499SOL     OW 4954   0.809   1.866   2.364
 1499SOL    HW1 4955   0.849   1.957   2.355
 1499SOL    HW2 4956   0.709   1.874   2.370
 1500SOL     OW 4957   0.197   2.838   3.126
 1500SOL    HW1 4958   0.286   2.793   3.112
 1500SOL    HW2 4959   0.124   2.773   3.107
 1501SOL     OW 4960   1.525   2.861   2.052
 1501SOL    HW1 4961   1.462   2.785   2.065
 1501SOL    HW2 4962   1.573   2.879   2.138
 1502SOL     OW 4963   1.187   3.654   3.478
 1502SOL    HW1 4964   1.211   3.714   3.402
 1502SOL    HW2 4965   1.194   3.559   3.448
 1503SOL     OW 4966   0.317   2.113   3.663
 1503SOL    HW1 4967   0.388   2.184   3.669
 1503SOL    HW2 4968   0.229   2.152   3.691
 1504SOL     OW 4969   1.466   3.279   2.815
 1504SOL    HW1 4970   1.407   3.285   2.895
 1504SOL    HW2 4971   1.451   3.191   2.769
 1505SOL     OW 4972   1.667   3.576   2.434
 1505SOL    HW1 4973   1.626   3.553   2.346
 1505SOL    HW2 4974   1.649   3.502   2.499
 1506SOL     OW 4975   0.598   2.591   2.132
 1506SOL    HW1 4976   0.622   2.660   2.064
 1506SOL    HW2 4977   0.520   2.624   2.186
 1507SOL     OW 4978   1.281   2.207   2.806
 1507SOL    HW1 4979   1.195   2.157   2.793
 1507SOL    HW2 4980   1.343   2.153   2.862
 1508SOL     OW 4981   1.576   3.524   2.169
 1508SOL    HW1 4982   1.665   3.570   2.172
 1508SOL    HW2 4983   1.555   3.500   2.074
 1509SOL     OW 4984   0.807   2.467   3.327
 1509SOL    HW1 4985   0.760   2.464   3.416
 1509SOL    HW2 4986   0.756   2.412   3.261
 1510SOL     OW 4987   1.394   2.331   3.536
 1510SOL    HW1 4988   1.374   2.374   3.624
 1510SOL    HW2 4989   1.472   2.269   3.545
 1511SOL     OW 4990   0.973   2.752   3.434
 1511SOL    HW1 4991   1.019   2.668   3.405
 1511SOL    HW2 4992   0.917   2.786   3.359
 1512SOL     OW 4993   0.991   2.272   3.104
 1512SOL    HW1 4994   0.914   2.306   3.158
 1512SOL    HW2 4995   0.957   2.221   3.025
 1513SOL     OW 4996   1.041   2.563   2.291
 1513SOL    HW1 4997   1.067   2.559   2.387
 1513SOL    HW2 4998   0.956   2.512   2.277
 1514SOL     OW 4999   0.076   2.673   2.651
 1514SOL    HW1 5000   0.175   2.661   2.660
 1514SOL    HW2 5001   0.052   2.768   2.672
 1515SOL     OW 5002   0.130   3.683   3.433
 1515SOL    HW1 5003   0.120   3.668   3.532
 1515SOL    HW2 5004   0.044   3.719   3.397
 1516SOL     OW 5005   0.865   2.210   2.057
 1516SOL    HW1 5006   0.924   2.273   2.008
 1516SOL    HW2 5007   0.884   2.116   2.028
 1517SOL     OW 5008   1.719   2.447   3.693
 1517SOL    HW1 5009   1.693   2.536   3.657
 1517SOL    HW2 5010   1.717   2.379   3.620
 1518SOL     OW 5011   1.362   3.006   2.407
 1518SOL    HW1 5012   1.445   2.977   2.359
 1518SOL    HW2 5013   1.313   3.073   2.351
 1519SOL     OW 5014   0.550   2.058   2.747
 1519SOL    HW1 5015   0.545   2.053   2.847
 1519SOL    HW2 5016   0.552   2.154   2.718
 1520SOL     OW 5017   1.008   3.318   2.339
 1520SOL    HW1 5018   0.962   3.390   2.287
 1520SOL    HW2 5019   1.004   3.338   2.437
 1521SOL     OW 5020   0.351   3.663   2.715
 1521SOL    HW1 5021   0.401   3.577   2.721
 1521SOL    HW2 5022   0.416   3.740   2.712
 1522SOL     OW 5023   1.795   2.928   2.735
 1522SOL    HW1 5024   1.733   2.913   2.659
 1522SOL    HW2 5025   1.743   2.939   2.820
 1523SOL     OW 5026   1.227   3.412   3.368
 1523SOL    HW1 5027   1.233   3.335   3.432
 1523SOL    HW2 5028   1.175   3.386   3.288
 1524SOL     OW 5029   0.321   2.805   2.104
 1524SOL    HW1 5030   0.403   2.844   2.062
 1524SOL    HW2 5031   0.294   2.723   2.055
 1525SOL     OW 5032   1.458   2.597   2.590
 1525SOL    HW1 5033   1.453   2.532   2.665
 1525SOL    HW2 5034   1.538   2.656   2.603
 1526SOL     OW 5035   0.461   3.128   3.589
 1526SOL    HW1 5036   0.411   3.129   3.503
 1526SOL    HW2 5037   0.398   3.110   3.665
 1527SOL     OW 5038   1.111   3.638   2.099
 1527SOL    HW1 5039   1.051   3.576   2.149
 1527SOL    HW2 5040   1.142   3.594   2.014
 1528SOL     OW 5041   0.202   2.147   3.360
 1528SOL    HW1 5042   0.122   2.207   3.347
 1528SOL    HW2 5043   0.192   2.098   3.446
 1529SOL     OW 5044   1.632   3.239   1.943
 1529SOL    HW1 5045   1.600   3.333   1.933
 1529SOL    HW2 5046   1.556   3.176   1.931
 1530SOL     OW 5047   0.464   3.605   2.185
 1530SOL    HW1 5048   0.497   3.644   2.271
 1530SOL    HW2 5049   0.540   3.598   2.120
 1531SOL     OW 5050   1.400   1.969   2.288
 1531SOL    HW1 5051   1.376   1.932   2.198
 1531SOL    HW2 5052   1.499   1.985   2.292
 1532SOL     OW 5053   0.249   3.647   3.103
 1532SOL    HW1 5054   0.306   3.582   3.153
 1532SOL    HW2 5055   0.233   3.614   3.010
 1533SOL     OW 5056   0.940   3.560   2.766
 1533SOL    HW1 5057   1.020   3.503   2.787
 1533SOL    HW2 5058   0.891   3.520   2.689
 1534SOL     OW 5059   0.382   2.562   2.342
 1534SOL    HW1 5060   0.427   2.472   2.339
 1534SOL    HW2 5061   0.288   2.551   2.375
 1535SOL     OW 5062   1.547   2.084   3.591
 1535SOL    HW1 5063   1.542   2.121   3.683
 1535SOL    HW2 5064   1.475   2.015   3.579
 1536SOL     OW 5065   0.614   1.984   1.979
 1536SOL    HW1 5066   0.712   1.962   1.986
 1536SOL    HW2 5067   0.583   1.967   1.886
 1537SOL     OW 5068   0.781   2.126   3.611
 1537SOL    HW1 5069   0.848   2.065   3.654
 1537SOL    HW2 5070   0.708   2.145   3.676
 1538SOL     OW 5071   0.888   3.376   3.057
 1538SOL    HW1 5072   0.865   3.351   2.963
 1538SOL    HW2 5073   0.949   3.307   3.096
 1539SOL     OW 5074   1.351   2.452   3.295
 1539SOL    HW1 5075   1.379   2.409   3.380
 1539SOL    HW2 5076   1.376   2.548   3.296
 1540SOL     OW 5077   0.803   3.264   2.786
 1540SOL    HW1 5078   0.893   3.278   2.744
 1540SOL    HW2 5079   0.732   3.266   2.715
 1541SOL     OW 5080   0.922   2.365   2.761
 1541SOL    HW1 5081   0.897   2.356   2.665
 1541SOL    HW2 5082   0.970   2.283   2.792
 1542SOL     OW 5083   0.539   1.926   2.374
 1542SOL    HW1 5084   0.458   1.927   2.432
 1542SOL    HW2 5085   0.542   2.009   2.319
 1543SOL     OW 5086   1.434   3.050   1.903
 1543SOL    HW1 5087   1.466   2.974   1.960
 1543SOL    HW2 5088   1.342   3.077   1.933
 1544SOL     OW 5089   0.297   1.897   2.033
 1544SOL    HW1 5090   0.346   1.981   2.012
 1544SOL    HW2 5091   0.359   1.832   2.078
 1545SOL     OW 5092   0.935   2.098   2.342
 1545SOL    HW1 5093   0.887   2.139   2.264
 1545SOL    HW2 5094   1.034   2.096   2.323
 1546SOL     OW 5095   1.076   2.545   3.326
 1546SOL    HW1 5096   0.996   2.484   3.329
 1546SOL    HW2 5097   1.157   2.492   3.302
 1547SOL     OW 5098   1.227   3.432   2.655
 1547SOL    HW1 5099   1.248   3.506   2.590
 1547SOL    HW2 5100   1.295   3.432   2.728
 1548SOL     OW 5101   0.459   3.014   2.603
 1548SOL    HW1 5102   0.388   2.987   2.668
 1548SOL    HW2 5103   0.433   2.986   2.510
 1549SOL     OW 5104   1.271   3.659   2.453
 1549SOL    HW1 5105   1.315   3.723   2.389
 1549SOL    HW2 5106   1.221   3.711   2.523
 1550SOL     OW 5107   1.032   2.411   1.878
 1550SOL    HW1 5108   0.991   2.493   1.839
 1550SOL    HW2 5109   1.096   2.437   1.951
 1551SOL     OW 5110   0.078   2.418   3.248
 1551SOL    HW1 5111   0.170   2.417   3.207
 1551SOL    HW2 5112   0.072   2.492   3.315
 1552SOL     OW 5113   0.561   2.084   3.009
 1552SOL    HW1 5114   0.599   2.000   3.046
 1552SOL    HW2 5115   0.473   2.103   3.053
 1553SOL     OW 5116   0.866   2.316   2.504
 1553SOL    HW1 5117   0.834   2.388   2.442
 1553SOL    HW2 5118   0.890   2.235   2.451
 1554SOL     OW 5119   1.017   1.901   2.615
 1554SOL    HW1 5120   0.945   1.906   2.546
 1554SOL    HW2 5121   0.993   1.832   2.684
 1555SOL     OW 5122   1.429   3.035   2.729
 1555SOL    HW1 5123   1.374   2.951   2.722
 1555SOL    HW2 5124   1.455   3.064   2.637
 1556SOL     OW 5125   1.466   2.452   2.854
 1556SOL    HW1 5126   1.436   2.357   2.861
 1556SOL    HW2 5127   1.539   2.468   2.920
 1557SOL     OW 5128   1.857   2.695   2.239
 1557SOL    HW1 5129   1.899   2.631   2.303
 1557SOL    HW2 5130   1.819   2.644   2.161
 1558SOL     OW 5131   0.488   3.247   2.036
 1558SOL    HW1 5132   0.401   3.232   2.083
 1558SOL    HW2 5133   0.471   3.273   1.941
 1559SOL     OW 5134   1.664   3.142   2.519
 1559SOL    HW1 5135   1.763   3.150   2.533
 1559SOL    HW2 5136   1.619   3.226   2.550
 1560SOL     OW 5137   1.390   2.437   1.940
 1560SOL    HW1 5138   1.336   2.416   2.021
 1560SOL    HW2 5139   1.481   2.396   1.949
 1561SOL     OW 5140   0.527   2.118   2.190
 1561SOL    HW1 5141   0.554   2.059   2.115
 1561SOL    HW2 5142   0.527   2.213   2.159
 1562SOL     OW 5143   1.754   3.085   3.450
 1562SOL    HW1 5144   1.845   3.046   3.437
 1562SOL    HW2 5145   1.762   3.181   3.474
 1563SOL     OW 5146   1.064   3.209   3.202
 1563SOL    HW1 5147   0.984   3.186   3.257
 1563SOL    HW2 5148   1.147   3.183   3.251
 1564SOL     OW 5149   1.592   3.491   3.487
 1564SOL    HW1 5150   1.619   3.525   3.397
 1564SOL    HW2 5151   1.671   3.453   3.533
 1565SOL     OW 5152   1.111   3.057   2.962
 1565SOL    HW1 5153   1.071   3.101   3.043
 1565SOL    HW2 5154   1.070   3.094   2.879
 1566SOL     OW 5155   1.638   2.961   2.941
 1566SOL    HW1 5156   1.643   3.042   3.000
 1566SOL    HW2 5157   1.552   2.963   2.890
 1567SOL     OW 5158   0.915   1.951   3.264
 1567SOL    HW1 5159   0.940   1.931   3.169
 1567SOL    HW2 5160   0.987   2.007   3.306
 1568SOL     OW 5161   0.980   2.978   3.581
 1568SOL    HW1 5162   0.881   2.984   3.591
 1568SOL    HW2 5163   1.003   2.898   3.525
 1569SOL     OW 5164   0.705   2.912   2.230
 1569SOL    HW1 5165   0.691   2.919   2.329
 1569SOL    HW2 5166   0.789   2.861   2.212
 1570SOL     OW 5167   0.410   2.675   3.113
 1570SOL    HW1 5168   0.496   2.687   3.163
 1570SOL    HW2 5169   0.368   2.588   3.140
 1571SOL     OW 5170   1.274   2.248   3.124
 1571SOL    HW1 5171   1.295   2.322   3.188
 1571SOL    HW2 5172   1.185   2.265   3.081
 1572SOL     OW 5173   0.064   3.426   3.193
 1572SOL    HW1 5174   0.018   3.508   3.159
 1572SOL    HW2 5175   0.162   3.445   3.202
 1573SOL     OW 5176   0.367   2.962   2.363
 1573SOL    HW1 5177   0.360   3.045   2.307
 1573SOL    HW2 5178   0.371   2.882   2.303
 1574SOL     OW 5179   0.566   2.399   2.727
 1574SOL    HW1 5180   0.578   2.465   2.653
 1574SOL    HW2 5181   0.612   2.433   2.810
 1575SOL     OW 5182   1.252   3.210   2.250
 1575SOL    HW1 5183   1.302   3.287   2.290
 1575SOL    HW2 5184   1.157   3.212   2.282
 1576SOL     OW 5185   1.272   3.307   3.004
 1576SOL    HW1 5186   1.319   3.320   3.091
 1576SOL    HW2 5187   1.206   3.233   3.013
 1577SOL     OW 5188   1.582   2.501   2.334
 1577SOL    HW1 5189   1.551   2.562   2.407
 1577SOL    HW2 5190   1.632   2.553   2.265
 1578SOL     OW 5191   0.354   3.372   3.191
 1578SOL    HW1 5192   0.333   3.328   3.104
 1578SOL    HW2 5193   0.451   3.398   3.194
 1579SOL     OW 5194   0.402   2.613   3.460
 1579SOL    HW1 5195   0.470   2.668   3.413
 1579SOL    HW2 5196   0.442   2.525   3.487
 1580SOL     OW 5197   1.587   2.641   3.532
 1580SOL    HW1 5198   1.495   2.679   3.527
 1580SOL    HW2 5199   1.647   2.688   3.467
 1581SOL     OW 5200   1.013   1.967   3.632
 1581SOL    HW1 5201   1.019   2.052   3.580
 1581SOL    HW2 5202   1.045   1.891   3.575
 1582SOL     OW 5203   0.504   1.912   3.602
 1582SOL    HW1 5204   0.462   1.855   3.532
 1582SOL    HW2 5205   0.438   1.981   3.634
 1583SOL     OW 5206   0.573   2.732   2.891
 1583SOL    HW1 5207   0.617   2.821   2.882
 1583SOL    HW2 5208   0.510   2.732   2.968
 1584SOL     OW 5209   1.360   2.724   2.907
 1584SOL    HW1 5210   1.285   2.724   2.841
 1584SOL    HW2 5211   1.397   2.632   2.916
 1585SOL     OW 5212   1.209   2.387   2.137
 1585SOL    HW1 5213   1.222   2.303   2.191
 1585SOL    HW2 5214   1.180   2.461   2.197
 1586SOL     OW 5215   0.307   2.075   3.093
 1586SOL    HW1 5216   0.284   2.112   3.183
 1586SOL    HW2 5217   0.277   1.980   3.087
 1587SOL     OW 5218   0.037   3.172   3.144
 1587SOL    HW1 5219   0.090   3.123   3.212
 1587SOL    HW2 5220   0.059   3.270   3.149
 1588SOL     OW 5221   0.732   2.496   2.926
 1588SOL    HW1 5222   0.791   2.470   2.850
 1588SOL    HW2 5223   0.704   2.592   2.915
 1589SOL     OW 5224   1.728   2.797   3.716
 1589SOL    HW1 5225   1.682   2.790   3.627
 1589SOL    HW2 5226   1.666   2.841   3.782
 1590SOL     OW 5227   0.307   1.925   2.480
 1590SOL    HW1 5228   0.296   2.019   2.513
 1590SOL    HW2 5229   0.302   1.862   2.557
 1591SOL     OW 5230   1.622   2.229   2.236
 1591SOL    HW1 5231   1.624   2.153   2.300
 1591SOL    HW2 5232   1.574   2.306   2.276
 1592SOL     OW 5233   1.023   2.628   2.828
 1592SOL    HW1 5234   1.038   2.649   2.924
 1592SOL    HW2 5235   0.993   2.533   2.819
 1593SOL     OW 5236   0.980   3.435   3.562
 1593SOL    HW1 5237   0.960   3.479   3.474
 1593SOL    HW2 5238   1.019   3.344   3.546
 1594SOL     OW 5239   1.859   3.380   3.467
 1594SOL    HW1 5240   1.873   3.407   3.372
 1594SOL    HW2 5241   1.942   3.402   3.520
 1595SOL     OW 5242   0.350   2.760   3.666
 1595SOL    HW1 5243   0.426   2.804   3.714
 1595SOL    HW2 5244   0.385   2.713   3.584
 1596SOL     OW 5245   1.540   2.136   1.987
 1596SOL    HW1 5246   1.479   2.061   2.010
 1596SOL    HW2 5247   1.562   2.188   2.070
 1597SOL     OW 5248   1.303   2.700   1.904
 1597SOL    HW1 5249   1.337   2.607   1.919
 1597SOL    HW2 5250   1.321   2.727   1.809
 1598SOL     OW 5251   1.068   3.195   2.711
 1598SOL    HW1 5252   1.075   3.111   2.656
 1598SOL    HW2 5253   1.130   3.264   2.675
 1599SOL     OW 5254   0.319   2.672   2.811
 1599SOL    HW1 5255   0.412   2.708   2.816
 1599SOL    HW2 5256   0.313   2.587   2.863
 1600SOL     OW 5257   0.339   2.371   2.868
 1600SOL    HW1 5258   0.287   2.288   2.851
 1600SOL    HW2 5259   0.416   2.376   2.804
 1601SOL     OW 5260   1.138   2.242   3.540
 1601SOL    HW1 5261   1.093   2.305   3.604
 1601SOL    HW2 5262   1.231   2.273   3.523
 1602SOL     OW 5263   1.160   2.069   3.339
 1602SOL    HW1 5264   1.160   2.133   3.416
 1602SOL    HW2 5265   1.188   2.117   3.256
 1603SOL     OW 5266   0.008   3.188   2.062
 1603SOL    HW1 5267  -0.085   3.209   2.031
 1603SOL    HW2 5268   0.018   3.089   2.075
 1604SOL     OW 5269   0.088   3.663   2.789
 1604SOL    HW1 5270   0.046   3.577   2.762
 1604SOL    HW2 5271   0.182   3.666   2.755
 1605SOL     OW 5272   0.504   3.430   2.772
 1605SOL    HW1 5273   0.570   3.504   2.781
 1605SOL    HW2 5274   0.548   3.351   2.730
 1606SOL     OW 5275   1.002   2.658   3.100
 1606SOL    HW1 5276   1.043   2.626   3.186
 1606SOL    HW2 5277   0.906   2.631   3.097
 1607SOL     OW 5278   0.040   2.406   2.976
 1607SOL    HW1 5279   0.125   2.373   2.935
 1607SOL    HW2 5280   0.053   2.421   3.074
 1608SOL     OW 5281   0.189   2.382   3.584
 1608SOL    HW1 5282   0.248   2.342   3.514
 1608SOL    HW2 5283   0.131   2.453   3.543
 1609SOL     OW 5284   1.369   2.812   3.522
 1609SOL    HW1 5285   1.408   2.901   3.542
 1609SOL    HW2 5286   1.379   2.792   3.425
 1610SOL     OW 5287   0.815   2.434   2.187
 1610SOL    HW1 5288   0.822   2.345   2.141
 1610SOL    HW2 5289   0.721   2.468   2.179
 1611SOL     OW 5290   1.657   2.466   3.068
 1611SOL    HW1 5291   1.619   2.397   3.130
 1611SOL    HW2 5292   1.739   2.430   3.024
 1612SOL     OW 5293   0.252   3.426   3.606
 1612SOL    HW1 5294   0.222   3.483   3.682
 1612SOL    HW2 5295   0.245   3.329   3.632
 1613SOL     OW 5296   0.671   2.326   3.131
 1613SOL    HW1 5297   0.637   2.237   3.101
 1613SOL    HW2 5298   0.697   2.380   3.051
 1614SOL     OW 5299   0.930   3.540   3.327
 1614SOL    HW1 5300   0.906   3.522   3.232
 1614SOL    HW2 5301   0.960   3.634   3.337
 1615SOL     OW 5302   0.473   2.362   2.053
 1615SOL    HW1 5303   0.534   2.442   2.057
 1615SOL    HW2 5304   0.378   2.393   2.060
 1616SOL     OW 5305   0.159   2.999   3.328
 1616SOL    HW1 5306   0.181   2.938   3.404
 1616SOL    HW2 5307   0.169   2.950   3.242
 1617SOL     OW 5308   1.347   2.921   3.096
 1617SOL    HW1 5309   1.371   2.858   3.022
 1617SOL    HW2 5310   1.257   2.961   3.078
 1618SOL     OW 5311   1.302   2.717   2.171
 1618SOL    HW1 5312   1.216   2.686   2.213
 1618SOL    HW2 5313   1.298   2.703   2.072
 1619SOL     OW 5314   1.759   3.609   3.016
 1619SOL    HW1 5315   1.820   3.639   2.943
 1619SOL    HW2 5316   1.721   3.520   2.994
 1620SOL     OW 5317   1.252   3.593   2.990
 1620SOL    HW1 5318   1.336   3.598   2.936
 1620SOL    HW2 5319   1.229   3.497   3.008
 1621SOL     OW 5320   0.083   3.120   2.884
 1621SOL    HW1 5321   0.078   3.119   2.984
 1621SOL    HW2 5322   0.000   3.079   2.846
 1622SOL     OW 5323   0.688   3.524   3.578
 1622SOL    HW1 5324   0.632   3.605   3.587
 1622SOL    HW2 5325   0.740   3.528   3.492
 1623SOL     OW 5326   1.726   1.997   2.385
 1623SOL    HW1 5327   1.799   1.980   2.318
 1623SOL    HW2 5328   1.695   1.910   2.423
 1624SOL     OW 5329   1.388   3.435   2.339
 1624SOL    HW1 5330   1.455   3.447   2.265
 1624SOL    HW2 5331   1.348   3.524   2.362
 1625SOL     OW 5332   0.130   3.656   3.713
 1625SOL    HW1 5333   0.089   3.582   3.766
 1625SOL    HW2 5334   0.194   3.707   3.771
 1626SOL     OW 5335   1.280   2.789   2.534
 1626SOL    HW1 5336   1.340   2.708   2.536
 1626SOL    HW2 5337   1.320   2.858   2.474
 1627SOL     OW 5338   0.830   3.135   3.284
 1627SOL    HW1 5339   0.825   3.168   3.379
 1627SOL    HW2 5340   0.744   3.154   3.238
 1628SOL     OW 5341   0.672   3.478   2.016
 1628SOL    HW1 5342   0.681   3.488   1.917
 1628SOL    HW2 5343   0.632   3.389   2.037
 1629SOL     OW 5344   1.650   3.582   3.256
 1629SOL    HW1 5345   1.703   3.592   3.172
 1629SOL    HW2 5346   1.623   3.672   3.290
 1630SOL     OW 5347   1.841   2.037   2.825
 1630SOL    HW1 5348   1.880   1.952   2.789
 1630SOL    HW2 5349   1.743   2.039   2.806
 1631SOL     OW 5350   0.263   2.188   2.582
 1631SOL    HW1 5351   0.184   2.239   2.548
 1631SOL    HW2 5352   0.254   2.173   2.680
 1632SOL     OW 5353   1.194   3.474   1.893
 1632SOL    HW1 5354   1.200   3.381   1.930
 1632SOL    HW2 5355   1.135   3.474   1.813
 1633SOL     OW 5356   0.822   2.864   3.234
 1633SOL    HW1 5357   0.862   2.863   3.142
 1633SOL    HW2 5358   0.832   2.956   3.274
 1634SOL     OW 5359   0.916   2.772   2.153
 1634SOL    HW1 5360   0.979   2.810   2.085
 1634SOL    HW2 5361   0.956   2.689   2.192
 1635SOL     OW 5362   1.504   3.469   1.906
 1635SOL    HW1 5363   1.412   3.506   1.913
 1635SOL    HW2 5364   1.542   3.489   1.816
 1636SOL     OW 5365   0.372   3.150   3.352
 1636SOL    HW1 5366   0.359   3.243   3.318
 1636SOL    HW2 5367   0.288   3.098   3.339
 1637SOL     OW 5368   1.614   3.154   3.151
 1637SOL    HW1 5369   1.674   3.157   3.231
 1637SOL    HW2 5370   1.539   3.218   3.164
 1638SOL     OW 5371   1.039   2.960   2.558
 1638SOL    HW1 5372   0.969   2.913   2.612
 1638SOL    HW2 5373   1.098   2.892   2.515
 1639SOL     OW 5374   1.014   2.098   2.833
 1639SOL    HW1 5375   1.006   2.062   2.740
 1639SOL    HW2 5376   1.012   2.022   2.898
 1640SOL     OW 5377   0.590   3.349   2.353
 1640SOL    HW1 5378   0.632   3.291   2.283
 1640SOL    HW2 5379   0.546   3.428   2.309
 1641SOL     OW 5380   1.709   2.247   3.243
 1641SOL    HW1 5381   1.782   2.316   3.247
 1641SOL    HW2 5382   1.737   2.172   3.184
 1642SOL     OW 5383   0.255   3.210   2.152
 1642SOL    HW1 5384   0.159   3.211   2.125
 1642SOL    HW2 5385   0.267   3.263   2.236
 1643SOL     OW 5386   0.105   2.875   3.588
 1643SOL    HW1 5387   0.028   2.842   3.642
 1643SOL    HW2 5388   0.190   2.845   3.630
 1644SOL     OW 5389   0.672   2.065   3.351
 1644SOL    HW1 5390   0.762   2.049   3.311
 1644SOL    HW2 5391   0.680   2.070   3.450
 1645SOL     OW 5392   0.075   2.207   1.895
 1645SOL    HW1 5393  -0.017   2.179   1.866
 1645SOL    HW2 5394   0.106   2.284   1.839
 1646SOL     OW 5395   1.440   2.718   3.260
 1646SOL    HW1 5396   1.383   2.770   3.197
 1646SOL    HW2 5397   1.536   2.730   3.236
 1647SOL     OW 5398   0.072   2.028   2.180
 1647SOL    HW1 5399   0.055   2.111   2.126
 1647SOL    HW2 5400   0.162   1.991   2.158
 1648SOL     OW 5401   1.183   3.197   1.981
 1648SOL    HW1 5402   1.084   3.186   1.983
 1648SOL    HW2 5403   1.217   3.212   2.074
 1649SOL     OW 5404   0.613   2.704   3.293
 1649SOL    HW1 5405   0.669   2.785   3.276
 1649SOL    HW2 5406   0.672   2.624   3.296
 1650SOL     OW 5407   1.493   3.629   2.821
 1650SOL    HW1 5408   1.526   3.693   2.752
 1650SOL    HW2 5409   1.559   3.623   2.896
 1651SOL     OW 5410   0.716   2.427   3.570
 1651SOL    HW1 5411   0.735   2.492   3.644
 1651SOL    HW2 5412   0.776   2.347   3.579
 1652SOL     OW 5413   1.450   3.082   3.495
 1652SOL    HW1 5414   1.441   3.072   3.594
 1652SOL    HW2 5415   1.546   3.075   3.469
 1653SOL     OW 5416   0.390   3.603   3.422
 1653SOL    HW1 5417   0.299   3.644   3.420
 1653SOL    HW2 5418   0.383   3.509   3.454
 1654SOL     OW 5419   1.674   2.745   3.116
 1654SOL    HW1 5420   1.647   2.656   3.079
 1654SOL    HW2 5421   1.675   2.813   3.043
 1655SOL     OW 5422   1.225   2.187   2.311
 1655SOL    HW1 5423   1.290   2.113   2.300
 1655SOL    HW2 5424   1.245   2.237   2.395
 1656SOL     OW 5425   0.594   2.607   2.514
 1656SOL    HW1 5426   0.644   2.692   2.495
 1656SOL    HW2 5427   0.506   2.609   2.466
 1657SOL     OW 5428   1.777   2.204   3.504
 1657SOL    HW1 5429   1.760   2.235   3.410
 1657SOL    HW2 5430   1.693   2.167   3.542
 1658SOL     OW 5431   1.730   2.796   3.379
 1658SOL    HW1 5432   1.768   2.887   3.394
 1658SOL    HW2 5433   1.722   2.779   3.280
 1659SOL     OW 5434   0.859   3.236   1.878
 1659SOL    HW1 5435   0.813   3.251   1.966
 1659SOL    HW2 5436   0.903   3.321   1.848
 1660SOL     OW 5437   0.661   3.652   2.815
 1660SOL    HW1 5438   0.615   3.740   2.802
 1660SOL    HW2 5439   0.760   3.664   2.808
 1661SOL     OW 5440   0.859   2.818   2.723
 1661SOL    HW1 5441   0.913   2.749   2.771
 1661SOL    HW2 5442   0.827   2.887   2.789
 1662SOL     OW 5443   1.083   2.846   1.949
 1662SOL    HW1 5444   1.060   2.899   1.867
 1662SOL    HW2 5445   1.164   2.790   1.930
 1663SOL     OW 5446   1.861   3.431   2.713
 1663SOL    HW1 5447   1.790   3.419   2.643
 1663SOL    HW2 5448   1.862   3.352   2.773
 1664SOL     OW 5449   0.221   3.176   3.706
 1664SOL    HW1 5450   0.156   3.103   3.685
 1664SOL    HW2 5451   0.225   3.190   3.804
 1665SOL     OW 5452   0.079   3.102   2.515
 1665SOL    HW1 5453   0.078   3.055   2.603
 1665SOL    HW2 5454   0.161   3.074   2.464
 1666SOL     OW 5455   0.672   3.253   3.486
 1666SOL    HW1 5456   0.594   3.203   3.524
 1666SOL    HW2 5457   0.669   3.348   3.517
 1667SOL     OW 5458   1.824   2.054   3.089
 1667SOL    HW1 5459   1.820   1.964   3.133
 1667SOL    HW2 5460   1.827   2.043   2.990
 1668SOL     OW 5461   0.428   2.286   2.382
 1668SOL    HW1 5462   0.458   2.214   2.320
 1668SOL    HW2 5463   0.389   2.246   2.465
 1669SOL     OW 5464   1.705   3.349   2.966
 1669SOL    HW1 5465   1.612   3.324   2.939
 1669SOL    HW2 5466   1.731   3.299   3.048
 1670SOL     OW 5467   0.317   2.409   3.142
 1670SOL    HW1 5468   0.355   2.350   3.214
 1670SOL    HW2 5469   0.357   2.383   3.054
 1671SOL     OW 5470   0.812   3.448   2.549
 1671SOL    HW1 5471   0.844   3.458   2.455
 1671SOL    HW2 5472   0.733   3.386   2.551
 1672SOL     OW 5473   1.424   2.076   2.974
 1672SOL    HW1 5474   1.476   2.011   3.029
 1672SOL    HW2 5475   1.375   2.139   3.035
 1673SOL     OW 5476   1.001   1.896   3.016
 1673SOL    HW1 5477   0.938   1.824   2.985
 1673SOL    HW2 5478   1.094   1.860   3.016
 1674SOL     OW 5479   0.770   3.192   2.163
 1674SOL    HW1 5480   0.724   3.105   2.180
 1674SOL    HW2 5481   0.861   3.189   2.204
 1675SOL     OW 5482   0.618   3.429   3.146
 1675SOL    HW1 5483   0.613   3.511   3.203
 1675SOL    HW2 5484   0.707   3.426   3.101
 1676SOL     OW 5485   1.352   1.914   2.030
 1676SOL    HW1 5486   1.387   1.873   1.946
 1676SOL    HW2 5487   1.262   1.876   2.050
 1677SOL     OW 5488   1.300   2.315   2.553
 1677SOL    HW1 5489   1.241   2.395   2.557
 1677SOL    HW2 5490   1.315   2.280   2.646
 1678SOL     OW 5491   1.593   2.083   2.744
 1678SOL    HW1 5492   1.509   2.082   2.798
 1678SOL    HW2 5493   1.595   2.166   2.688
 1679SOL     OW 5494   0.039   2.939   2.162
 1679SOL    HW1 5495   0.138   2.928   2.153
 1679SOL    HW2 5496  -0.001   2.853   2.194
 1680SOL     OW 5497   0.875   3.508   2.199
 1680SOL    HW1 5498   0.798   3.473   2.145
 1680SOL    HW2 5499   0.843   3.579   2.261
 1681SOL     OW 5500   0.230   2.490   3.837
 1681SOL    HW1 5501   0.137   2.488   3.874
 1681SOL    HW2 5502   0.231   2.451   3.745
 1682SOL     OW 5503   0.225   2.137   4.720
 1682SOL    HW1 5504   0.260   2.120   4.812
 1682SOL    HW2 5505   0.137   2.092   4.708
 1683SOL     OW 5506   0.019   2.230   4.371
 1683SOL    HW1 5507  -0.063   2.273   4.410
 1683SOL    HW2 5508  -0.009   2.157   4.308
 1684SOL     OW 5509   0.569   3.137   4.889
 1684SOL    HW1 5510   0.476   3.130   4.852
 1684SOL    HW2 5511   0.580   3.226   4.933
 1685SOL     OW 5512   1.555   3.373   4.427
 1685SOL    HW1 5513   1.498   3.357   4.508
 1685SOL    HW2 5514   1.496   3.383   4.347
 1686SOL     OW 5515   1.135   2.565   4.441
 1686SOL    HW1 5516   1.192   2.643   4.416
 1686SOL    HW2 5517   1.075   2.591   4.517
 1687SOL     OW 5518   1.755   2.469   3.955
 1687SOL    HW1 5519   1.743   2.456   3.856
 1687SOL    HW2 5520   1.725   2.388   4.004
 1688SOL     OW 5521   0.768   3.006   4.747
 1688SOL    HW1 5522   0.690   3.023   4.807
 1688SOL    HW2 5523   0.802   3.093   4.711
 1689SOL     OW 5524   0.850   2.660   5.547
 1689SOL    HW1 5525   0.846   2.736   5.612
 1689SOL    HW2 5526   0.872   2.696   5.456
 1690SOL     OW 5527   0.685   2.874   4.389
 1690SOL    HW1 5528   0.754   2.858   4.459
 1690SOL    HW2 5529   0.612   2.931   4.427
 1691SOL     OW 5530   0.686   3.023   5.527
 1691SOL    HW1 5531   0.746   3.102   5.541
 1691SOL    HW2 5532   0.600   3.054   5.486
 1692SOL     OW 5533   0.335   3.297   4.785
 1692SOL    HW1 5534   0.257   3.266   4.732
 1692SOL    HW2 5535   0.393   3.355   4.728
 1693SOL     OW 5536   1.460   3.367   5.063
 1693SOL    HW1 5537   1.484   3.461   5.089
 1693SOL    HW2 5538   1.444   3.313   5.145
 1694SOL     OW 5539   0.438   2.254   5.223
 1694SOL    HW1 5540   0.520   2.198   5.232
 1694SOL    HW2 5541   0.357   2.196   5.227
 1695SOL     OW 5542   1.603   2.309   4.461
 1695SOL    HW1 5543   1.529   2.355   4.411
 1695SOL    HW2 5544   1.654   2.377   4.514
 1696SOL     OW 5545   0.231   3.575   4.207
 1696SOL    HW1 5546   0.265   3.652   4.261
 1696SOL    HW2 5547   0.275   3.575   4.117
 1697SOL     OW 5548   1.127   3.203   5.414
 1697SOL    HW1 5549   1.174   3.203   5.502
 1697SOL    HW2 5550   1.079   3.116   5.403
 1698SOL     OW 5551   0.230   3.296   4.262
 1698SOL    HW1 5552   0.204   3.392   4.262
 1698SOL    HW2 5553   0.159   3.242   4.307
 1699SOL     OW 5554   0.240   2.953   4.610
 1699SOL    HW1 5555   0.254   2.869   4.662
 1699SOL    HW2 5556   0.185   3.017   4.665
 1700SOL     OW 5557   0.620   3.648   5.163
 1700SOL    HW1 5558   0.528   3.631   5.198
 1700SOL    HW2 5559   0.648   3.740   5.189
 1701SOL     OW 5560   0.606   2.826   3.847
 1701SOL    HW1 5561   0.613   2.910   3.793
 1701SOL    HW2 5562   0.652   2.839   3.935
 1702SOL     OW 5563   0.122   2.505   4.287
 1702SOL    HW1 5564   0.077   2.417   4.304
 1702SOL    HW2 5565   0.121   2.559   4.371
 1703SOL     OW 5566   1.842   3.629   4.083
 1703SOL    HW1 5567   1.896   3.600   4.163
 1703SOL    HW2 5568   1.872   3.719   4.054
 1704SOL     OW 5569   0.027   3.458   3.841
 1704SOL    HW1 5570   0.008   3.362   3.862
 1704SOL    HW2 5571  -0.006   3.516   3.916
 1705SOL     OW 5572   1.689   2.784   4.336
 1705SOL    HW1 5573   1.784   2.755   4.344
 1705SOL    HW2 5574   1.681   2.849   4.261
 1706SOL     OW 5575   1.641   2.970   4.156
 1706SOL    HW1 5576   1.727   2.972   4.104
 1706SOL    HW2 5577   1.655   3.017   4.244
 1707SOL     OW 5578   0.113   2.599   5.321
 1707SOL    HW1 5579   0.201   2.586   5.366
 1707SOL    HW2 5580   0.100   2.696   5.299
 1708SOL     OW 5581   0.613   3.227   4.450
 1708SOL    HW1 5582   0.564   3.140   4.459
 1708SOL    HW2 5583   0.590   3.270   4.363
 1709SOL     OW 5584   1.293   3.090   5.147
 1709SOL    HW1 5585   1.330   3.017   5.089
 1709SOL    HW2 5586   1.345   3.095   5.232
 1710SOL     OW 5587   0.809   1.866   4.226
 1710SOL    HW1 5588   0.849   1.957   4.217
 1710SOL    HW2 5589   0.709   1.874   4.232
 1711SOL     OW 5590   0.197   2.838   4.988
 1711SOL    HW1 5591   0.286   2.793   4.974
 1711SOL    HW2 5592   0.124   2.773   4.969
 1712SOL     OW 5593   1.525   2.861   3.914
 1712SOL    HW1 5594   1.462   2.785   3.927
 1712SOL    HW2 5595   1.573   2.879   4.000
 1713SOL     OW 5596   1.187   3.654   5.340
 1713SOL    HW1 5597   1.211   3.714   5.264
 1713SOL    HW2 5598   1.194   3.559   5.310
 1714SOL     OW 5599   0.317   2.113   5.525
 1714SOL    HW1 5600   0.388   2.184   5.531
 1714SOL    HW2 5601   0.229   2.152   5.553
 1715SOL     OW 5602   1.466   3.279   4.677
 1715SOL    HW1 5603   1.407   3.285   4.757
 1715SOL    HW2 5604   1.451   3.191   4.631
 1716SOL     OW 5605   1.667   3.576   4.296
 1716SOL    HW1 5606   1.626   3.553   4.208
 1716SOL    HW2 5607   1.649   3.502   4.361
 1717SOL     OW 5608   0.598   2.591   3.994
 1717SOL    HW1 5609   0.622   2.660   3.926
 1717SOL    HW2 5610   0.520   2.624   4.048
 1718SOL     OW 5611   1.281   2.207   4.668
 1718SOL    HW1 5612   1.195   2.157   4.655
 1718SOL    HW2 5613   1.343   2.153   4.724
 1719SOL     OW 5614   1.576   3.524   4.031
 1719SOL    HW1 5615   1.665   3.570   4.034
 1719SOL    HW2 5616   1.555   3.500   3.936
 1720SOL     OW 5617   0.807   2.467   5.189
 1720SOL    HW1 5618   0.760   2.464   5.278
 1720SOL    HW2 5619   0.756   2.412   5.123
 1721SOL     OW 5620   1.394   2.331   5.398
 1721SOL    HW1 5621   1.374   2.374   5.486
 1721SOL    HW2 5622   1.472   2.269   5.407
 1722SOL     OW 5623   0.973   2.752   5.296
 1722SOL    HW1 5624   1.019   2.668   5.267
 1722SOL    HW2 5625   0.917   2.786   5.221
 1723SOL     OW 5626   0.991   2.272   4.966
 1723SOL    HW1 5627   0.914   2.306   5.020
 1723SOL    HW2 5628   0.957   2.221   4.887
 1724SOL     OW 5629   1.041   2.563   4.153
 1724SOL    HW1 5630   1.067   2.559   4.249
 1724SOL    HW2 5631   0.956   2.512   4.139
 1725SOL     OW 5632   0.076   2.673   4.513
 1725SOL    HW1 5633   0.175   2.661   4.522
 1725SOL    HW2 5634   0.052   2.768   4.534
 1726SOL     OW 5635   0.130   3.683   5.295
 1726SOL    HW1 5636   0.120   3.668   5.394
 1726SOL    HW2 5637   0.044   3.719   5.259
 1727SOL     OW 5638   0.865   2.210   3.919
 1727SOL    HW1 5639   0.924   2.273   3.870
 1727SOL    HW2 5640   0.884   2.116   3.890
 1728SOL     OW 5641   1.719   2.447   5.555
 1728SOL    HW1 5642   1.693   2.536   5.519
 1728SOL    HW2 5643   1.717   2.379   5.482
 1729SOL     OW 5644   1.362   3.006   4.269
 1729SOL    HW1 5645   1.445   2.977   4.221
 1729SOL    HW2 5646   1.313   3.073   4.213
 1730SOL     OW 5647   0.550   2.058   4.609
 1730SOL    HW1 5648   0.545   2.053   4.709
 1730SOL    HW2 5649   0.552   2.154   4.580
 1731SOL     OW 5650   1.008   3.318   4.201
 1731SOL    HW1 5651   0.962   3.390   4.149
 1731SOL    HW2 5652   1.004   3.338   4.299
 1732SOL     OW 5653   0.351   3.663   4.577
 1732SOL    HW1 5654   0.401   3.577   4.583
 1732SOL    HW2 5655   0.416   3.740   4.574
 1733SOL     OW 5656   1.795   2.928   4.597
 1733SOL    HW1 5657   1.733   2.913   4.521
 1733SOL    HW2 5658   1.743   2.939   4.682
 1734SOL     OW 5659   1.227   3.412   5.230
 1734SOL    HW1 5660   1.233   3.335   5.294
 1734SOL    HW2 5661   1.175   3.386   5.150
 1735SOL     OW 5662   0.321   2.805   3.966
 1735SOL    HW1 5663   0.403   2.844   3.924
 1735SOL    HW2 5664   0.294   2.723   3.917
 1736SOL     OW 5665   1.458   2.597   4.452
 1736SOL    HW1 5666   1.453   2.532   4.527
 1736SOL    HW2 5667   1.538   2.656   4.465
 1737SOL     OW 5668   0.461   3.128   5.451
 1737SOL    HW1 5669   0.411   3.129   5.365
 1737SOL    HW2 5670   0.398   3.110   5.527
 1738SOL     OW 5671   1.111   3.638   3.961
 1738SOL    HW1 5672   1.051   3.576   4.011
 1738SOL    HW2 5673   1.142   3.594   3.876
 1739SOL     OW 5674   0.202   2.147   5.222
 1739SOL    HW1 5675   0.122   2.207   5.209
 1739SOL    HW2 5676   0.192   2.098   5.308
 1740SOL     OW 5677   1.632   3.239   3.805
 1740SOL    HW1 5678   1.600   3.333   3.795
 1740SOL    HW2 5679   1.556   3.176   3.793
 1741SOL     OW 5680   0.464   3.605   4.047
 1741SOL    HW1 5681   0.497   3.644   4.133
 1741SOL    HW2 5682   0.540   3.598   3.982
 1742SOL     OW 5683   1.400   1.969   4.150
 1742SOL    HW1 5684   1.376   1.932   4.060
 1742SOL    HW2 5685   1.499   1.985   4.154
 1743SOL     OW 5686   0.249   3.647   4.965
 1743SOL    HW1 5687   0.306   3.582   5.015
 1743SOL    HW2 5688   0.233   3.614   4.872
 1744SOL     OW 5689   0.940   3.560   4.628
 1744SOL    HW1 5690   1.020   3.503   4.649
 1744SOL    HW2 5691   0.891   3.520   4.551
 1745SOL     OW 5692   0.382   2.562   4.204
 1745SOL    HW1 5693   0.427   2.472   4.201
 1745SOL    HW2 5694   0.288   2.551   4.237
 1746SOL     OW 5695   1.547   2.084   5.453
 1746SOL    HW1 5696   1.542   2.121   5.545
 1746SOL    HW2 5697   1.475   2.015   5.441
 1747SOL     OW 5698   0.614   1.984   3.841
 1747SOL    HW1 5699   0.712   1.962   3.848
 1747SOL    HW2 5700   0.583   1.967   3.748
 1748SOL     OW 5701   0.781   2.126   5.473
 1748SOL    HW1 5702   0.848   2.065   5.516
 1748SOL    HW2 5703   0.708   2.145   5.538
 1749SOL     OW 5704   0.888   3.376   4.919
 1749SOL    HW1 5705   0.865   3.351   4.825
 1749SOL    HW2 5706   0.949   3.307   4.958
 1750SOL     OW 5707   1.351   2.452   5.157
 1750SOL    HW1 5708   1.379   2.409   5.242
 1750SOL    HW2 5709   1.376   2.548   5.158
 1751SOL     OW 5710   0.803   3.264   4.648
 1751SOL    HW1 5711   0.893   3.278   4.606
 1751SOL    HW2 5712   0.732   3.266   4.577
 1752SOL     OW 5713   0.922   2.365   4.623
 1752SOL    HW1 5714   0.897   2.356   4.527
 1752SOL    HW2 5715   0.970   2.283   4.654
 1753SOL     OW 5716   0.539   1.926   4.236
 1753SOL    HW1 5717   0.458   1.927   4.294
 1753SOL    HW2 5718   0.542   2.009   4.181
 1754SOL     OW 5719   1.434   3.050   3.765
 1754SOL    HW1 5720   1.466   2.974   3.822
 1754SOL    HW2 5721   1.342   3.077   3.795
 1755SOL     OW 5722   0.297   1.897   3.895
 1755SOL    HW1 5723   0.346   1.981   3.874
 1755SOL    HW2 5724   0.359   1.832   3.940
 1756SOL     OW 5725   0.935   2.098   4.204
 1756SOL    HW1 5726   0.887   2.139   4.126
 1756SOL    HW2 5727   1.034   2.096   4.185
 1757SOL     OW 5728   1.076   2.545   5.188
 1757SOL    HW1 5729   0.996   2.484   5.191
 1757SOL    HW2 5730   1.157   2.492   5.164
 1758SOL     OW 5731   1.227   3.432   4.517
 1758SOL    HW1 5732   1.248   3.506   4.452
 1758SOL    HW2 5733   1.295   3.432   4.590
 1759SOL     OW 5734   0.459   3.014   4.465
 1759SOL    HW1 5735   0.388   2.987   4.530
 1759SOL    HW2 5736   0.433   2.986   4.372
 1760SOL     OW 5737   1.271   3.659   4.315
 1760SOL    HW1 5738   1.315   3.723   4.251
 1760SOL    HW2 5739   1.221   3.711   4.385
 1761SOL     OW 5740   1.032   2.411   3.740
 1761SOL    HW1 5741   0.991   2.493   3.701
 1761SOL    HW2 5742   1.096   2.437   3.813
 1762SOL     OW 5743   0.078   2.418   5.110
 1762SOL    HW1 5744   0.170   2.417   5.069
 1762SOL    HW2 5745   0.072   2.492   5.177
 1763SOL     OW 5746   0.561   2.084   4.871
 1763SOL    HW1 5747   0.599   2.000   4.908
 1763SOL    HW2 5748   0.473   2.103   4.915
 1764SOL     OW 5749   0.866   2.316   4.366
 1764SOL    HW1 5750   0.834   2.388   4.304
 1764SOL    HW2 5751   0.890   2.235   4.313
 1765SOL     OW 5752   1.017   1.901   4.477
 1765SOL    HW1 5753   0.945   1.906   4.408
 1765SOL    HW2 5754   0.993   1.832   4.546
 1766SOL     OW 5755   1.429   3.035   4.591
 1766SOL    HW1 5756   1.374   2.951   4.584
 1766SOL    HW2 5757   1.455   3.064   4.499
 1767SOL     OW 5758   1.466   2.452   4.716
 1767SOL    HW1 5759   1.436   2.357   4.723
 1767SOL    HW2 5760   1.539   2.468   4.782
 1768SOL     OW 5761   1.857   2.695   4.101
 1768SOL    HW1 5762   1.899   2.631   4.165
 1768SOL    HW2 5763   1.819   2.644   4.023
 1769SOL     OW 5764   0.488   3.247   3.898
 1769SOL    HW1 5765   0.401   3.232   3.945
 1769SOL    HW2 5766   0.471   3.273   3.803
 1770SOL     OW 5767   1.664   3.142   4.381
 1770SOL    HW1 5768   1.763   3.150   4.395
 1770SOL    HW2 5769   1.619   3.226   4.412
 1771SOL     OW 5770   1.390   2.437   3.802
 1771SOL    HW1 5771   1.336   2.416   3.883
 1771SOL    HW2 5772   1.481   2.396   3.811
 1772SOL     OW 5773   0.527   2.118   4.052
 1772SOL    HW1 5774   0.554   2.059   3.977
 1772SOL    HW2 5775   0.527   2.213   4.021
 1773SOL     OW 5776   1.754   3.085   5.312
 1773SOL    HW1 5777   1.845   3.046   5.299
 1773SOL    HW2 5778   1.762   3.181   5.336
 1774SOL     OW 5779   1.064   3.209   5.064
 1774SOL    HW1 5780   0.984   3.186   5.119
 1774SOL    HW2 5781   1.147   3.183   5.113
 1775SOL     OW 5782   1.592   3.491   5.349
 1775SOL    HW1 5783   1.619   3.525   5.259
 1775SOL    HW2 5784   1.671   3.453   5.395
 1776SOL     OW 5785   1.111   3.057   4.824
 1776SOL    HW1 5786   1.071   3.101   4.905
 1776SOL    HW2 5787   1.070   3.094   4.741
 1777SOL     OW 5788   1.638   2.961   4.803
 1777SOL    HW1 5789   1.643   3.042   4.862
 1777SOL    HW2 5790   1.552   2.963   4.752
 1778SOL     OW 5791   0.915   1.951   5.126
 1778SOL    HW1 5792   0.940   1.931   5.031
 1778SOL    HW2 5793   0.987   2.007   5.168
 1779SOL     OW 5794   0.980   2.978   5.443
 1779SOL    HW1 5795   0.881   2.984   5.453
 1779SOL    HW2 5796   1.003   2.898   5.387
 1780SOL     OW 5797   0.705   2.912   4.092
 1780SOL    HW1 5798   0.691   2.919   4.191
 1780SOL    HW2 5799   0.789   2.861   4.074
 1781SOL     OW 5800   0.410   2.675   4.975
 1781SOL    HW1 5801   0.496   2.687   5.025
 1781SOL    HW2 5802   0.368   2.588   5.002
 1782SOL     OW 5803   1.274   2.248   4.986
 1782SOL    HW1 5804   1.295   2.322   5.050
 1782SOL    HW2 5805   1.185   2.265   4.943
 1783SOL     OW 5806   0.064   3.426   5.055
 1783SOL    HW1 5807   0.018   3.508   5.021
 1783SOL    HW2 5808   0.162   3.445   5.064
 1784SOL     OW 5809   0.367   2.962   4.225
 1784SOL    HW1 5810   0.360   3.045   4.169
 1784SOL    HW2 5811   0.371   2.882   4.165
 1785SOL     OW 5812   0.566   2.399   4.589
 1785SOL    HW1 5813   0.578   2.465   4.515
 1785SOL    HW2 5814   0.612   2.433   4.672
 1786SOL     OW 5815   1.252   3.210   4.112
 1786SOL    HW1 5816   1.302   3.287   4.152
 1786SOL    HW2 5817   1.157   3.212   4.144
 1787SOL     OW 5818   1.272   3.307   4.866
 1787SOL    HW1 5819   1.319   3.320   4.953
 1787SOL    HW2 5820   1.206   3.233   4.875
 1788SOL     OW 5821   1.582   2.501   4.196
 1788SOL    HW1 5822   1.551   2.562   4.269
 1788SOL    HW2 5823   1.632   2.553   4.127
 1789SOL     OW 5824   0.354   3.372   5.053
 1789SOL    HW1 5825   0.333   3.328   4.966
 1789SOL    HW2 5826   0.451   3.398   5.056
 1790SOL     OW 5827   0.402   2.613   5.322
 1790SOL    HW1 5828   0.470   2.668   5.275
 1790SOL    HW2 5829   0.442   2.525   5.349
 1791SOL     OW 5830   1.013   1.967   5.494
 1791SOL    HW1 5831   1.019   2.052   5.442
 1791SOL    HW2 5832   1.045   1.891   5.437
 1792SOL     OW 5833   0.504   1.912   5.464
 1792SOL    HW1 5834   0.462   1.855   5.394
 1792SOL    HW2 5835   0.438   1.981   5.496
 1793SOL     OW 5836   0.573   2.732   4.753
 1793SOL    HW1 5837   0.617   2.821   4.744
 1793SOL    HW2 5838   0.510   2.732   4.830
 1794SOL     OW 5839   1.360   2.724   4.769
 1794SOL    HW1 5840   1.285   2.724   4.703
 1794SOL    HW2 5841   1.397   2.632   4.778
 1795SOL     OW 5842   1.209   2.387   3.999
 1795SOL    HW1 5843   1.222   2.303   4.053
 1795SOL    HW2 5844   1.180   2.461   4.059
 1796SOL     OW 5845   0.307   2.075   4.955
 1796SOL    HW1 5846   0.284   2.112   5.045
 1796SOL    HW2 5847   0.277   1.980   4.949
 1797SOL     OW 5848   0.037   3.172   5.006
 1797SOL    HW1 5849   0.090   3.123   5.074
 1797SOL    HW2 5850   0.059   3.270   5.011
 1798SOL     OW 5851   0.732   2.496   4.788
 1798SOL    HW1 5852   0.791   2.470   4.712
 1798SOL    HW2 5853   0.704   2.592   4.777
 1799SOL     OW 5854   1.728   2.797   5.578
 1799SOL    HW1 5855   1.682   2.790   5.489
 1799SOL    HW2 5856   1.666   2.841   5.644
 1800SOL     OW 5857   0.307   1.925   4.342
 1800SOL    HW1 5858   0.296   2.019   4.375
 1800SOL    HW2 5859   0.302   1.862   4.419
 1801SOL     OW 5860   1.622   2.229   4.098
 1801SOL    HW1 5861   1.624   2.153   4.162
 1801SOL    HW2 5862   1.574   2.306   4.138
 1802SOL     OW 5863   1.023   2.628   4.690
 1802SOL    HW1 5864   1.038   2.649   4.786
 1802SOL    HW2 5865   0.993   2.533   4.681
 1803SOL     OW 5866   0.980   3.435   5.424
 1803SOL    HW1 5867   0.960   3.479   5.336
 1803SOL    HW2 5868   1.019   3.344   5.408
 1804SOL     OW 5869   1.859   3.380   5.329
 1804SOL    HW1 5870   1.873   3.407   5.234
 1804SOL    HW2 5871   1.942   3.402   5.382
 1805SOL     OW 5872   0.350   2.760   5.528
 1805SOL    HW1 5873   0.426   2.804   5.576
 1805SOL    HW2 5874   0.385   2.713   5.446
 1806SOL     OW 5875   1.540   2.136   3.849
 1806SOL    HW1 5876   1.479   2.061   3.872
 1806SOL    HW2 5877   1.562   2.188   3.932
 1807SOL     OW 5878   1.303   2.700   3.766
 1807SOL    HW1 5879   1.337   2.607   3.781
 1807SOL    HW2 5880   1.321   2.727   3.671
 1808SOL     OW 5881   1.068   3.195   4.573
 1808SOL    HW1 5882   1.075   3.111   4.518
 1808SOL    HW2 5883   1.130   3.264   4.537
 1809SOL     OW 5884   0.319   2.672   4.673
 1809SOL    HW1 5885   0.412   2.708   4.678
 1809SOL    HW2 5886   0.313   2.587   4.725
 1810SOL     OW 5887   0.339   2.371   4.730
 1810SOL    HW1 5888   0.287   2.288   4.713
 1810SOL    HW2 5889   0.416   2.376   4.666
 1811SOL     OW 5890   1.138   2.242   5.402
 1811SOL    HW1 5891   1.093   2.305   5.466
 1811SOL    HW2 5892   1.231   2.273   5.385
 1812SOL     OW 5893   1.160   2.069   5.201
 1812SOL    HW1 5894   1.160   2.133   5.278
 1812SOL    HW2 5895   1.188   2.117   5.118
 1813SOL     OW 5896   0.008   3.188   3.924
 1813SOL    HW1 5897  -0.085   3.209   3.893
 1813SOL    HW2 5898   0.018   3.089   3.937
 1814SOL     OW 5899   0.088   3.663   4.651
 1814SOL    HW1 5900   0.046   3.577   4.624
 1814SOL    HW2 5901   0.182   3.666   4.617
 1815SOL     OW 5902   0.504   3.430   4.634
 1815SOL    HW1 5903   0.570   3.504   4.643
 1815SOL    HW2 5904   0.548   3.351   4.592
 1816SOL     OW 5905   1.002   2.658   4.962
 1816SOL    HW1 5906   1.043   2.626   5.048
 1816SOL    HW2 5907   0.906   2.631   4.959
 1817SOL     OW 5908   0.040   2.406   4.838
 1817SOL    HW1 5909   0.125   2.373   4.797
 1817SOL    HW2 5910   0.053   2.421   4.936
 1818SOL     OW 5911   0.189   2.382   5.446
 1818SOL    HW1 5912   0.248   2.342   5.376
 1818SOL    HW2 5913   0.131   2.453   5.405
 1819SOL     OW 5914   1.369   2.812   5.384
 1819SOL    HW1 5915   1.408   2.901   5.404
 1819SOL    HW2 5916   1.379   2.792   5.287
 1820SOL     OW 5917   0.815   2.434   4.049
 1820SOL    HW1 5918   0.822   2.345   4.003
 1820SOL    HW2 5919   0.721   2.468   4.041
 1821SOL     OW 5920   0.252   3.426   5.468
 1821SOL    HW1 5921   0.222   3.483   5.544
 1821SOL    HW2 5922   0.245   3.329   5.494
 1822SOL     OW 5923   0.671   2.326   4.993
 1822SOL    HW1 5924   0.637   2.237   4.963
 1822SOL    HW2 5925   0.697   2.380   4.913
 1823SOL     OW 5926   0.930   3.540   5.189
 1823SOL    HW1 5927   0.906   3.522   5.094
 1823SOL    HW2 5928   0.960   3.634   5.199
 1824SOL     OW 5929   0.473   2.362   3.915
 1824SOL    HW1 5930   0.534   2.442   3.919
 1824SOL    HW2 5931   0.378   2.393   3.922
 1825SOL     OW 5932   0.159   2.999   5.190
 1825SOL    HW1 5933   0.181   2.938   5.266
 1825SOL    HW2 5934   0.169   2.950   5.104
 1826SOL     OW 5935   1.347   2.921   4.958
 1826SOL    HW1 5936   1.371   2.858   4.884
 1826SOL    HW2 5937   1.257   2.961   4.940
 1827SOL     OW 5938   1.302   2.717   4.033
 1827SOL    HW1 5939   1.216   2.686   4.075
 1827SOL    HW2 5940   1.298   2.703   3.934
 1828SOL     OW 5941   1.759   3.609   4.878
 1828SOL    HW1 5942   1.820   3.639   4.805
 1828SOL    HW2 5943   1.721   3.520   4.856
 1829SOL     OW 5944   1.252   3.593   4.852
 1829SOL    HW1 5945   1.336   3.598   4.798
 1829SOL    HW2 5946   1.229   3.497   4.870
 1830SOL     OW 5947   0.083   3.120   4.746
 1830SOL    HW1 5948   0.078   3.119   4.846
 1830SOL    HW2 5949   0.000   3.079   4.708
 1831SOL     OW 5950   0.688   3.524   5.440
 1831SOL    HW1 5951   0.632   3.605   5.449
 1831SOL    HW2 5952   0.740   3.528   5.354
 1832SOL     OW 5953   1.726   1.997   4.247
 1832SOL    HW1 5954   1.799   1.980   4.180
 1832SOL    HW2 5955   1.695   1.910   4.285
 1833SOL     OW 5956   1.388   3.435   4.201
 1833SOL    HW1 5957   1.455   3.447   4.127
 1833SOL    HW2 5958   1.348   3.524   4.224
 1834SOL     OW 5959   0.130   3.656   5.575
 1834SOL    HW1 5960   0.089   3.582   5.628
 1834SOL    HW2 5961   0.194   3.707   5.633
 1835SOL     OW 5962   1.280   2.789   4.396
 1835SOL    HW1 5963   1.340   2.708   4.398
 1835SOL    HW2 5964   1.320   2.858   4.336
 1836SOL     OW 5965   0.830   3.135   5.146
 1836SOL    HW1 5966   0.825   3.168   5.241
 1836SOL    HW2 5967   0.744   3.154   5.100
 1837SOL     OW 5968   0.672   3.478   3.878
 1837SOL    HW1 5969   0.681   3.488   3.779
 1837SOL    HW2 5970   0.632   3.389   3.899
 1838SOL     OW 5971   1.650   3.582   5.118
 1838SOL    HW1 5972   1.703   3.592   5.034
 1838SOL    HW2 5973   1.623   3.672   5.152
 1839SOL     OW 5974   0.263   2.188   4.444
 1839SOL    HW1 5975   0.184   2.239   4.410
 1839SOL    HW2 5976   0.254   2.173   4.542
 1840SOL     OW 5977   1.194   3.474   3.755
 1840SOL    HW1 5978   1.200   3.381   3.792
 1840SOL    HW2 5979   1.135   3.474   3.675
 1841SOL     OW 5980   0.822   2.864   5.096
 1841SOL    HW1 5981   0.862   2.863   5.004
 1841SOL    HW2 5982   0.832   2.956   5.136
 1842SOL     OW 5983   0.916   2.772   4.015
 1842SOL    HW1 5984   0.979   2.810   3.947
 1842SOL    HW2 5985   0.956   2.689   4.054
 1843SOL     OW 5986   1.504   3.469   3.768
 1843SOL    HW1 5987   1.412   3.506   3.775
 1843SOL    HW2 5988   1.542   3.489   3.678
 1844SOL     OW 5989   0.372   3.150   5.214
 1844SOL    HW1 5990   0.359   3.243   5.180
 1844SOL    HW2 5991   0.288   3.098   5.201
 1845SOL     OW 5992   1.614   3.154   5.013
 1845SOL    HW1 5993   1.674   3.157   5.093
 1845SOL    HW2 5994   1.539   3.218   5.026
 1846SOL     OW 5995   1.039   2.960   4.420
 1846SOL    HW1 5996   0.969   2.913   4.474
 1846SOL    HW2 5997   1.098   2.892   4.377
 1847SOL     OW 5998   1.014   2.098   4.695
 1847SOL    HW1 5999   1.006   2.062   4.602
 1847SOL    HW2 6000   1.012   2.022   4.760
 1848SOL     OW 6001   0.590   3.349   4.215
 1848SOL    HW1 6002   0.632   3.291   4.145
 1848SOL    HW2 6003   0.546   3.428   4.171
 1849SOL     OW 6004   0.255   3.210   4.014
 1849SOL    HW1 6005   0.159   3.211   3.987
 1849SOL    HW2 6006   0.267   3.263   4.098
 1850SOL     OW 6007   0.105   2.875   5.450
 1850SOL    HW1 6008   0.028   2.842   5.504
 1850SOL    HW2 6009   0.190   2.845   5.492
 1851SOL     OW 6010   0.672   2.065   5.213
 1851SOL    HW1 6011   0.762   2.049   5.173
 1851SOL    HW2 6012   0.680   2.070   5.312
 1852SOL     OW 6013   0.075   2.207   3.757
 1852SOL    HW1 6014  -0.017   2.179   3.728
 1852SOL    HW2 6015   0.106   2.284   3.701
 1853SOL     OW 6016   1.440   2.718   5.122
 1853SOL    HW1 6017   1.383   2.770   5.059
 1853SOL    HW2 6018   1.536   2.730   5.098
 1854SOL     OW 6019   0.072   2.028   4.042
 1854SOL    HW1 6020   0.055   2.111   3.988
 1854SOL    HW2 6021   0.162   1.991   4.020
 1855SOL     OW 6022   1.183   3.197   3.843
 1855SOL    HW1 6023   1.084   3.186   3.845
 1855SOL    HW2 6024   1.217   3.212   3.936
 1856SOL     OW 6025   0.613   2.704   5.155
 1856SOL    HW1 6026   0.669   2.785   5.138
 1856SOL    HW2 6027   0.672   2.624   5.158
 1857SOL     OW 6028   1.493   3.629   4.683
 1857SOL    HW1 6029   1.526   3.693   4.614
 1857SOL    HW2 6030   1.559   3.623   4.758
 1858SOL     OW 6031   0.716   2.427   5.432
 1858SOL    HW1 6032   0.735   2.492   5.506
 1858SOL    HW2 6033   0.776   2.347   5.441
 1859SOL     OW 6034   1.450   3.082   5.357
 1859SOL    HW1 6035   1.441   3.072   5.456
 1859SOL    HW2 6036   1.546   3.075   5.331
 1860SOL     OW 6037   0.390   3.603   5.284
 1860SOL    HW1 6038   0.299   3.644   5.282
 1860SOL    HW2 6039   0.383   3.509   5.316
 1861SOL     OW 6040   1.674   2.745   4.978
 1861SOL    HW1 6041   1.647   2.656   4.941
 1861SOL    HW2 6042   1.675   2.813   4.905
 1862SOL     OW 6043   1.225   2.187   4.173
 1862SOL    HW1 6044   1.290   2.113   4.162
 1862SOL    HW2 6045   1.245   2.237   4.257
 1863SOL     OW 6046   0.594   2.607   4.376
 1863SOL    HW1 6047   0.644   2.692   4.357
 1863SOL    HW2 6048   0.506   2.609   4.328
 1864SOL     OW 6049   1.730   2.796   5.241
 1864SOL    HW1 6050   1.768   2.887   5.256
 1864SOL    HW2 6051   1.722   2.779   5.142
 1865SOL     OW 6052   0.859   3.236   3.740
 1865SOL    HW1 6053   0.813   3.251   3.828
 1865SOL    HW2 6054   0.903   3.321   3.710
 1866SOL     OW 6055   0.661   3.652   4.677
 1866SOL    HW1 6056   0.615   3.740   4.664
 1866SOL    HW2 6057   0.760   3.664   4.670
 1867SOL     OW 6058   0.859   2.818   4.585
 1867SOL    HW1 6059   0.913   2.749   4.633
 1867SOL    HW2 6060   0.827   2.887   4.651
 1868SOL     OW 6061   1.083   2.846   3.811
 1868SOL    HW1 6062   1.060   2.899   3.729
 1868SOL    HW2 6063   1.164   2.790   3.792
 1869SOL     OW 6064   1.861   3.431   4.575
 1869SOL    HW1 6065   1.790   3.419   4.505
 1869SOL    HW2 6066   1.862   3.352   4.635
 1870SOL     OW 6067   0.221   3.176   5.568
 1870SOL    HW1 6068   0.156   3.103   5.547
 1870SOL    HW2 6069   0.225   3.190   5.666
 1871SOL     OW 6070   0.079   3.102   4.377
 1871SOL    HW1 6071   0.078   3.055   4.465
 1871SOL    HW2 6072   0.161   3.074   4.326
 1872SOL     OW 6073   0.672   3.253   5.348
 1872SOL    HW1 6074   0.594   3.203   5.386
 1872SOL    HW2 6075   0.669   3.348   5.379
 1873SOL     OW 6076   0.428   2.286   4.244
 1873SOL    HW1 6077   0.458   2.214   4.182
 1873SOL    HW2 6078   0.389   2.246   4.327
 1874SOL     OW 6079   1.705   3.349   4.828
 1874SOL    HW1 6080   1.612   3.324   4.801
 1874SOL    HW2 6081   1.731   3.299   4.910
 1875SOL     OW 6082   0.317   2.409   5.004
 1875SOL    HW1 6083   0.355   2.350   5.076
 1875SOL    HW2 6084   0.357   2.383   4.916
 1876SOL     OW 6085   0.812   3.448   4.411
 1876SOL    HW1 6086   0.844   3.458   4.317
 1876SOL    HW2 6087   0.733   3.386   4.413
 1877SOL     OW 6088   1.424   2.076   4.836
 1877SOL    HW1 6089   1.476   2.011   4.891
 1877SOL    HW2 6090   1.375   2.139   4.897
 1878SOL     OW 6091   1.001   1.896   4.878
 1878SOL    HW1 6092   0.938   1.824   4.847
 1878SOL    HW2 6093   1.094   1.860   4.878
 1879SOL     OW 6094   0.770   3.192   4.025
 1879SOL    HW1 6095   0.724   3.105   4.042
 1879SOL    HW2 6096   0.861   3.189   4.066
 1880SOL     OW 6097   0.618   3.429   5.008
 1880SOL    HW1 6098   0.613   3.511   5.065
 1880SOL    HW2 6099   0.707   3.426   4.963
 1881SOL     OW 6100   1.352   1.914   3.892
 1881SOL    HW1 6101   1.387   1.873   3.808
 1881SOL    HW2 6102   1.262   1.876   3.912
 1882SOL     OW 6103   1.300   2.315   4.415
 1882SOL    HW1 6104   1.241   2.395   4.419
 1882SOL    HW2 6105   1.315   2.280   4.508
 1883SOL     OW 6106   1.593   2.083   4.606
 1883SOL    HW1 6107   1.509   2.082   4.660
 1883SOL    HW2 6108   1.595   2.166   4.550
 1884SOL     OW 6109   0.039   2.939   4.024
 1884SOL    HW1 6110   0.138   2.928   4.015
 1884SOL    HW2 6111  -0.001   2.853   4.056
 1885SOL     OW 6112   0.875   3.508   4.061
 1885SOL    HW1 6113   0.798   3.473   4.007
 1885SOL    HW2 6114   0.843   3.579   4.123
 1886SOL     OW 6115   0.230   2.490   5.699
 1886SOL    HW1 6116   0.137   2.488   5.736
 1886SOL    HW2 6117   0.231   2.451   5.607
 1887SOL     OW 6118   0.225   2.137   6.582
 1887SOL    HW1 6119   0.260   2.120   6.674
 1887SOL    HW2 6120   0.137   2.092   6.570
 1888SOL     OW 6121   0.019   2.230   6.233
 1888SOL    HW1 6122  -0.063   2.273   6.272
 1888SOL    HW2 6123  -0.009   2.157   6.170
 1889SOL     OW 6124   0.569   3.137   6.751
 1889SOL    HW1 6125   0.476   3.130   6.714
 1889SOL    HW2 6126   0.580   3.226   6.795
 1890SOL     OW 6127   1.555   3.373   6.289
 1890SOL    HW1 6128   1.498   3.357   6.370
 1890SOL    HW2 6129   1.496   3.383   6.209
 1891SOL     OW 6130   1.135   2.565   6.303
 1891SOL    HW1 6131   1.192   2.643   6.278
 1891SOL    HW2 6132   1.075   2.591   6.379
 1892SOL     OW 6133   0.768   3.006   6.609
 1892SOL    HW1 6134   0.690   3.023   6.669
 1892SOL    HW2 6135   0.802   3.093   6.573
 1893SOL     OW 6136   0.850   2.660   7.409
 1893SOL    HW1 6137   0.846   2.736   7.474
 1893SOL    HW2 6138   0.872   2.696   7.318
 1894SOL     OW 6139   0.685   2.874   6.251
 1894SOL    HW1 6140   0.754   2.858   6.321
 1894SOL    HW2 6141   0.612   2.931   6.289
 1895SOL     OW 6142   0.686   3.023   7.389
 1895SOL    HW1 6143   0.746   3.102   7.403
 1895SOL    HW2 6144   0.600   3.054   7.348
 1896SOL     OW 6145   0.335   3.297   6.647
 1896SOL    HW1 6146   0.257   3.266   6.594
 1896SOL    HW2 6147   0.393   3.355   6.590
 1897SOL     OW 6148   1.460   3.367   6.925
 1897SOL    HW1 6149   1.484   3.461   6.951
 1897SOL    HW2 6150   1.444   3.313   7.007
 1898SOL     OW 6151   0.438   2.254   7.085
 1898SOL    HW1 6152   0.520   2.198   7.094
 1898SOL    HW2 6153   0.357   2.196   7.089
 1899SOL     OW 6154   0.231   3.575   6.069
 1899SOL    HW1 6155   0.265   3.652   6.123
 1899SOL    HW2 6156   0.275   3.575   5.979
 1900SOL     OW 6157   1.127   3.203   7.276
 1900SOL    HW1 6158   1.174   3.203   7.364
 1900SOL    HW2 6159   1.079   3.116   7.265
 1901SOL     OW 6160   0.230   3.296   6.124
 1901SOL    HW1 6161   0.204   3.392   6.124
 1901SOL    HW2 6162   0.159   3.242   6.169
 1902SOL     OW 6163   0.240   2.953   6.472
 1902SOL    HW1 6164   0.254   2.869   6.524
 1902SOL    HW2 6165   0.185   3.017   6.527
 1903SOL     OW 6166   0.620   3.648   7.025
 1903SOL    HW1 6167   0.528   3.631   7.060
 1903SOL    HW2 6168   0.648   3.740   7.051
 1904SOL     OW 6169   0.606   2.826   5.709
 1904SOL    HW1 6170   0.613   2.910   5.655
 1904SOL    HW2 6171   0.652   2.839   5.797
 1905SOL     OW 6172   1.594   1.976   7.066
 1905SOL    HW1 6173   1.576   2.043   6.994
 1905SOL    HW2 6174   1.591   2.022   7.155
 1906SOL     OW 6175   0.122   2.505   6.149
 1906SOL    HW1 6176   0.077   2.417   6.166
 1906SOL    HW2 6177   0.121   2.559   6.233
 1907SOL     OW 6178   1.842   3.629   5.945
 1907SOL    HW1 6179   1.896   3.600   6.025
 1907SOL    HW2 6180   1.872   3.719   5.916
 1908SOL     OW 6181   0.027   3.458   5.703
 1908SOL    HW1 6182   0.008   3.362   5.724
 1908SOL    HW2 6183  -0.006   3.516   5.778
 1909SOL     OW 6184   1.641   2.970   6.018
 1909SOL    HW1 6185   1.727   2.972   5.966
 1909SOL    HW2 6186   1.655   3.017   6.106
 1910SOL     OW 6187   0.113   2.599   7.183
 1910SOL    HW1 6188   0.201   2.586   7.228
 1910SOL    HW2 6189   0.100   2.696   7.161
 1911SOL     OW 6190   0.613   3.227   6.312
 1911SOL    HW1 6191   0.564   3.140   6.321
 1911SOL    HW2 6192   0.590   3.270   6.225
 1912SOL     OW 6193   1.293   3.090   7.009
 1912SOL    HW1 6194   1.330   3.017   6.951
 1912SOL    HW2 6195   1.345   3.095   7.094
 1913SOL     OW 6196   0.809   1.866   6.088
 1913SOL    HW1 6197   0.849   1.957   6.079
 1913SOL    HW2 6198   0.709   1.874   6.094
 1914SOL     OW 6199   0.197   2.838   6.850
 1914SOL    HW1 6200   0.286   2.793   6.836
 1914SOL    HW2 6201   0.124   2.773   6.831
 1915SOL     OW 6202   1.525   2.861   5.776
 1915SOL    HW1 6203   1.462   2.785   5.789
 1915SOL    HW2 6204   1.573   2.879   5.862
 1916SOL     OW 6205   1.187   3.654   7.202
 1916SOL    HW1 6206   1.211   3.714   7.126
 1916SOL    HW2 6207   1.194   3.559   7.172
 1917SOL     OW 6208   0.317   2.113   7.387
 1917SOL    HW1 6209   0.388   2.184   7.393
 1917SOL    HW2 6210   0.229   2.152   7.415
 1918SOL     OW 6211   1.466   3.279   6.539
 1918SOL    HW1 6212   1.407   3.285   6.619
 1918SOL    HW2 6213   1.451   3.191   6.493
 1919SOL     OW 6214   1.667   3.576   6.158
 1919SOL    HW1 6215   1.626   3.553   6.070
 1919SOL    HW2 6216   1.649   3.502   6.223
 1920SOL     OW 6217   0.598   2.591   5.856
 1920SOL    HW1 6218   0.622   2.660   5.788
 1920SOL    HW2 6219   0.520   2.624   5.910
 1921SOL     OW 6220   1.281   2.207   6.530
 1921SOL    HW1 6221   1.195   2.157   6.517
 1921SOL    HW2 6222   1.343   2.153   6.586
 1922SOL     OW 6223   1.576   3.524   5.893
 1922SOL    HW1 6224   1.665   3.570   5.896
 1922SOL    HW2 6225   1.555   3.500   5.798
 1923SOL     OW 6226   0.807   2.467   7.051
 1923SOL    HW1 6227   0.760   2.464   7.140
 1923SOL    HW2 6228   0.756   2.412   6.985
 1924SOL     OW 6229   1.394   2.331   7.260
 1924SOL    HW1 6230   1.374   2.374   7.348
 1924SOL    HW2 6231   1.472   2.269   7.269
 1925SOL     OW 6232   0.973   2.752   7.158
 1925SOL    HW1 6233   1.019   2.668   7.129
 1925SOL    HW2 6234   0.917   2.786   7.083
 1926SOL     OW 6235   0.991   2.272   6.828
 1926SOL    HW1 6236   0.914   2.306   6.882
 1926SOL    HW2 6237   0.957   2.221   6.749
 1927SOL     OW 6238   1.041   2.563   6.015
 1927SOL    HW1 6239   1.067   2.559   6.111
 1927SOL    HW2 6240   0.956   2.512   6.001
 1928SOL     OW 6241   0.076   2.673   6.375
 1928SOL    HW1 6242   0.175   2.661   6.384
 1928SOL    HW2 6243   0.052   2.768   6.396
 1929SOL     OW 6244   0.130   3.683   7.157
 1929SOL    HW1 6245   0.120   3.668   7.256
 1929SOL    HW2 6246   0.044   3.719   7.121
 1930SOL     OW 6247   0.865   2.210   5.781
 1930SOL    HW1 6248   0.924   2.273   5.732
 1930SOL    HW2 6249   0.884   2.116   5.752
 1931SOL     OW 6250   1.719   2.447   7.417
 1931SOL    HW1 6251   1.693   2.536   7.381
 1931SOL    HW2 6252   1.717   2.379   7.344
 1932SOL     OW 6253   1.362   3.006   6.131
 1932SOL    HW1 6254   1.445   2.977   6.083
 1932SOL    HW2 6255   1.313   3.073   6.075
 1933SOL     OW 6256   0.550   2.058   6.471
 1933SOL    HW1 6257   0.545   2.053   6.571
 1933SOL    HW2 6258   0.552   2.154   6.442
 1934SOL     OW 6259   1.008   3.318   6.063
 1934SOL    HW1 6260   0.962   3.390   6.011
 1934SOL    HW2 6261   1.004   3.338   6.161
 1935SOL     OW 6262   0.351   3.663   6.439
 1935SOL    HW1 6263   0.401   3.577   6.445
 1935SOL    HW2 6264   0.416   3.740   6.436
 1936SOL     OW 6265   1.795   2.928   6.459
 1936SOL    HW1 6266   1.733   2.913   6.383
 1936SOL    HW2 6267   1.743   2.939   6.544
 1937SOL     OW 6268   1.227   3.412   7.092
 1937SOL    HW1 6269   1.233   3.335   7.156
 1937SOL    HW2 6270   1.175   3.386   7.012
 1938SOL     OW 6271   0.321   2.805   5.828
 1938SOL    HW1 6272   0.403   2.844   5.786
 1938SOL    HW2 6273   0.294   2.723   5.779
 1939SOL     OW 6274   1.458   2.597   6.314
 1939SOL    HW1 6275   1.453   2.532   6.389
 1939SOL    HW2 6276   1.538   2.656   6.327
 1940SOL     OW 6277   0.461   3.128   7.313
 1940SOL    HW1 6278   0.411   3.129   7.227
 1940SOL    HW2 6279   0.398   3.110   7.389
 1941SOL     OW 6280   1.111   3.638   5.823
 1941SOL    HW1 6281   1.051   3.576   5.873
 1941SOL    HW2 6282   1.142   3.594   5.738
 1942SOL     OW 6283   0.202   2.147   7.084
 1942SOL    HW1 6284   0.122   2.207   7.071
 1942SOL    HW2 6285   0.192   2.098   7.170
 1943SOL     OW 6286   1.632   3.239   5.667
 1943SOL    HW1 6287   1.600   3.333   5.657
 1943SOL    HW2 6288   1.556   3.176   5.655
 1944SOL     OW 6289   0.464   3.605   5.909
 1944SOL    HW1 6290   0.497   3.644   5.995
 1944SOL    HW2 6291   0.540   3.598   5.844
 1945SOL     OW 6292   1.400   1.969   6.012
 1945SOL    HW1 6293   1.376   1.932   5.922
 1945SOL    HW2 6294   1.499   1.985   6.016
 1946SOL     OW 6295   0.249   3.647   6.827
 1946SOL    HW1 6296   0.306   3.582   6.877
 1946SOL    HW2 6297   0.233   3.614   6.734
 1947SOL     OW 6298   0.940   3.560   6.490
 1947SOL    HW1 6299   1.020   3.503   6.511
 1947SOL    HW2 6300   0.891   3.520   6.413
 1948SOL     OW 6301   0.382   2.562   6.066
 1948SOL    HW1 6302   0.427   2.472   6.063
 1948SOL    HW2 6303   0.288   2.551   6.099
 1949SOL     OW 6304   1.547   2.084   7.315
 1949SOL    HW1 6305   1.542   2.121   7.407
 1949SOL    HW2 6306   1.475   2.015   7.303
 1950SOL     OW 6307   0.614   1.984   5.703
 1950SOL    HW1 6308   0.712   1.962   5.710
 1950SOL    HW2 6309   0.583   1.967   5.610
 1951SOL     OW 6310   0.781   2.126   7.335
 1951SOL    HW1 6311   0.848   2.065   7.378
 1951SOL    HW2 6312   0.708   2.145   7.400
 1952SOL     OW 6313   0.888   3.376   6.781
 1952SOL    HW1 6314   0.865   3.351   6.687
 1952SOL    HW2 6315   0.949   3.307   6.820
 1953SOL     OW 6316   1.351   2.452   7.019
 1953SOL    HW1 6317   1.379   2.409   7.104
 1953SOL    HW2 6318   1.376   2.548   7.020
 1954SOL     OW 6319   0.803   3.264   6.510
 1954SOL    HW1 6320   0.893   3.278   6.468
 1954SOL    HW2 6321   0.732   3.266   6.439
 1955SOL     OW 6322   0.922   2.365   6.485
 1955SOL    HW1 6323   0.897   2.356   6.389
 1955SOL    HW2 6324   0.970   2.283   6.516
 1956SOL     OW 6325   0.539   1.926   6.098
 1956SOL    HW1 6326   0.458   1.927   6.156
 1956SOL    HW2 6327   0.542   2.009   6.043
 1957SOL     OW 6328   1.434   3.050   5.627
 1957SOL    HW1 6329   1.466   2.974   5.684
 1957SOL    HW2 6330   1.342   3.077   5.657
 1958SOL     OW 6331   0.297   1.897   5.757
 1958SOL    HW1 6332   0.346   1.981   5.736
 1958SOL    HW2 6333   0.359   1.832   5.802
 1959SOL     OW 6334   0.935   2.098   6.066
 1959SOL    HW1 6335   0.887   2.139   5.988
 1959SOL    HW2 6336   1.034   2.096   6.047
 1960SOL     OW 6337   1.076   2.545   7.050
 1960SOL    HW1 6338   0.996   2.484   7.053
 1960SOL    HW2 6339   1.157   2.492   7.026
 1961SOL     OW 6340   1.227   3.432   6.379
 1961SOL    HW1 6341   1.248   3.506   6.314
 1961SOL    HW2 6342   1.295   3.432   6.452
 1962SOL     OW 6343   0.459   3.014   6.327
 1962SOL    HW1 6344   0.388   2.987   6.392
 1962SOL    HW2 6345   0.433   2.986   6.234
 1963SOL     OW 6346   1.271   3.659   6.177
 1963SOL    HW1 6347   1.315   3.723   6.113
 1963SOL    HW2 6348   1.221   3.711   6.247
 1964SOL     OW 6349   1.032   2.411   5.602
 1964SOL    HW1 6350   0.991   2.493   5.563
 1964SOL    HW2 6351   1.096   2.437   5.675
 1965SOL     OW 6352   0.078   2.418   6.972
 1965SOL    HW1 6353   0.170   2.417   6.931
 1965SOL    HW2 6354   0.072   2.492   7.039
 1966SOL     OW 6355   0.561   2.084   6.733
 1966SOL    HW1 6356   0.599   2.000   6.770
 1966SOL    HW2 6357   0.473   2.103   6.777
 1967SOL     OW 6358   0.866   2.316   6.228
 1967SOL    HW1 6359   0.834   2.388   6.166
 1967SOL    HW2 6360   0.890   2.235   6.175
 1968SOL     OW 6361   1.017   1.901   6.339
 1968SOL    HW1 6362   0.945   1.906   6.270
 1968SOL    HW2 6363   0.993   1.832   6.408
 1969SOL     OW 6364   1.429   3.035   6.453
 1969SOL    HW1 6365   1.374   2.951   6.446
 1969SOL    HW2 6366   1.455   3.064   6.361
 1970SOL     OW 6367   1.466   2.452   6.578
 1970SOL    HW1 6368   1.436   2.357   6.585
 1970SOL    HW2 6369   1.539   2.468   6.644
 1971SOL     OW 6370   0.488   3.247   5.760
 1971SOL    HW1 6371   0.401   3.232   5.807
 1971SOL    HW2 6372   0.471   3.273   5.665
 1972SOL     OW 6373   1.664   3.142   6.243
 1972SOL    HW1 6374   1.763   3.150   6.257
 1972SOL    HW2 6375   1.619   3.226   6.274
 1973SOL     OW 6376   1.390   2.437   5.664
 1973SOL    HW1 6377   1.336   2.416   5.745
 1973SOL    HW2 6378   1.481   2.396   5.673
 1974SOL     OW 6379   0.527   2.118   5.914
 1974SOL    HW1 6380   0.554   2.059   5.839
 1974SOL    HW2 6381   0.527   2.213   5.883
 1975SOL     OW 6382   1.754   3.085   7.174
 1975SOL    HW1 6383   1.845   3.046   7.161
 1975SOL    HW2 6384   1.762   3.181   7.198
 1976SOL     OW 6385   1.064   3.209   6.926
 1976SOL    HW1 6386   0.984   3.186   6.981
 1976SOL    HW2 6387   1.147   3.183   6.975
 1977SOL     OW 6388   1.592   3.491   7.211
 1977SOL    HW1 6389   1.619   3.525   7.121
 1977SOL    HW2 6390   1.671   3.453   7.257
 1978SOL     OW 6391   1.111   3.057   6.686
 1978SOL    HW1 6392   1.071   3.101   6.767
 1978SOL    HW2 6393   1.070   3.094   6.603
 1979SOL     OW 6394   1.638   2.961   6.665
 1979SOL    HW1 6395   1.643   3.042   6.724
 1979SOL    HW2 6396   1.552   2.963   6.614
 1980SOL     OW 6397   0.915   1.951   6.988
 1980SOL    HW1 6398   0.940   1.931   6.893
 1980SOL    HW2 6399   0.987   2.007   7.030
 1981SOL     OW 6400   0.980   2.978   7.305
 1981SOL    HW1 6401   0.881   2.984   7.315
 1981SOL    HW2 6402   1.003   2.898   7.249
 1982SOL     OW 6403   0.705   2.912   5.954
 1982SOL    HW1 6404   0.691   2.919   6.053
 1982SOL    HW2 6405   0.789   2.861   5.936
 1983SOL     OW 6406   0.410   2.675   6.837
 1983SOL    HW1 6407   0.496   2.687   6.887
 1983SOL    HW2 6408   0.368   2.588   6.864
 1984SOL     OW 6409   1.274   2.248   6.848
 1984SOL    HW1 6410   1.295   2.322   6.912
 1984SOL    HW2 6411   1.185   2.265   6.805
 1985SOL     OW 6412   0.064   3.426   6.917
 1985SOL    HW1 6413   0.018   3.508   6.883
 1985SOL    HW2 6414   0.162   3.445   6.926
 1986SOL     OW 6415   0.367   2.962   6.087
 1986SOL    HW1 6416   0.360   3.045   6.031
 1986SOL    HW2 6417   0.371   2.882   6.027
 1987SOL     OW 6418   0.566   2.399   6.451
 1987SOL    HW1 6419   0.578   2.465   6.377
 1987SOL    HW2 6420   0.612   2.433   6.534
 1988SOL     OW 6421   1.252   3.210   5.974
 1988SOL    HW1 6422   1.302   3.287   6.014
 1988SOL    HW2 6423   1.157   3.212   6.006
 1989SOL     OW 6424   1.272   3.307   6.728
 1989SOL    HW1 6425   1.319   3.320   6.815
 1989SOL    HW2 6426   1.206   3.233   6.737
 1990SOL     OW 6427   0.354   3.372   6.915
 1990SOL    HW1 6428   0.333   3.328   6.828
 1990SOL    HW2 6429   0.451   3.398   6.918
 1991SOL     OW 6430   0.402   2.613   7.184
 1991SOL    HW1 6431   0.470   2.668   7.137
 1991SOL    HW2 6432   0.442   2.525   7.211
 1992SOL     OW 6433   1.587   2.641   7.256
 1992SOL    HW1 6434   1.495   2.679   7.251
 1992SOL    HW2 6435   1.647   2.688   7.191
 1993SOL     OW 6436   1.013   1.967   7.356
 1993SOL    HW1 6437   1.019   2.052   7.304
 1993SOL    HW2 6438   1.045   1.891   7.299
 1994SOL     OW 6439   0.504   1.912   7.326
 1994SOL    HW1 6440   0.462   1.855   7.256
 1994SOL    HW2 6441   0.438   1.981   7.358
 1995SOL     OW 6442   0.573   2.732   6.615
 1995SOL    HW1 6443   0.617   2.821   6.606
 1995SOL    HW2 6444   0.510   2.732   6.692
 1996SOL     OW 6445   1.360   2.724   6.631
 1996SOL    HW1 6446   1.285   2.724   6.565
 1996SOL    HW2 6447   1.397   2.632   6.640
 1997SOL     OW 6448   1.209   2.387   5.861
 1997SOL    HW1 6449   1.222   2.303   5.915
 1997SOL    HW2 6450   1.180   2.461   5.921
 1998SOL     OW 6451   0.307   2.075   6.817
 1998SOL    HW1 6452   0.284   2.112   6.907
 1998SOL    HW2 6453   0.277   1.980   6.811
 1999SOL     OW 6454   0.037   3.172   6.868
 1999SOL    HW1 6455   0.090   3.123   6.936
 1999SOL    HW2 6456   0.059   3.270   6.873
 2000SOL     OW 6457   0.732   2.496   6.650
 2000SOL    HW1 6458   0.791   2.470   6.574
 2000SOL    HW2 6459   0.704   2.592   6.639
 2001SOL     OW 6460   1.728   2.797   7.440
 2001SOL    HW1 6461   1.682   2.790   7.351
 2001SOL    HW2 6462   1.666   2.841   7.506
 2002SOL     OW 6463   0.307   1.925   6.204
 2002SOL    HW1 6464   0.296   2.019   6.237
 2002SOL    HW2 6465   0.302   1.862   6.281
 2003SOL     OW 6466   1.023   2.628   6.552
 2003SOL    HW1 6467   1.038   2.649   6.648
 2003SOL    HW2 6468   0.993   2.533   6.543
 2004SOL     OW 6469   0.980   3.435   7.286
 2004SOL    HW1 6470   0.960   3.479   7.198
 2004SOL    HW2 6471   1.019   3.344   7.270
 2005SOL     OW 6472   1.859   3.380   7.191
 2005SOL    HW1 6473   1.873   3.407   7.096
 2005SOL    HW2 6474   1.942   3.402   7.244
 2006SOL     OW 6475   0.350   2.760   7.390
 2006SOL    HW1 6476   0.426   2.804   7.438
 2006SOL    HW2 6477   0.385   2.713   7.308
 2007SOL     OW 6478   1.540   2.136   5.711
 2007SOL    HW1 6479   1.479   2.061   5.734
 2007SOL    HW2 6480   1.562   2.188   5.794
 2008SOL     OW 6481   1.303   2.700   5.628
 2008SOL    HW1 6482   1.337   2.607   5.643
 2008SOL    HW2 6483   1.321   2.727   5.533
 2009SOL     OW 6484   1.068   3.195   6.435
 2009SOL    HW1 6485   1.075   3.111   6.380
 2009SOL    HW2 6486   1.130   3.264   6.399
 2010SOL     OW 6487   0.319   2.672   6.535
 2010SOL    HW1 6488   0.412   2.708   6.540
 2010SOL    HW2 6489   0.313   2.587   6.587
 2011SOL     OW 6490   0.339   2.371   6.592
 2011SOL    HW1 6491   0.287   2.288   6.575
 2011SOL    HW2 6492   0.416   2.376   6.528
 2012SOL     OW 6493   1.138   2.242   7.264
 2012SOL    HW1 6494   1.093   2.305   7.328
 2012SOL    HW2 6495   1.231   2.273   7.247
 2013SOL     OW 6496   1.160   2.069   7.063
 2013SOL    HW1 6497   1.160   2.133   7.140
 2013SOL    HW2 6498   1.188   2.117   6.980
 2014SOL     OW 6499   0.008   3.188   5.786
 2014SOL    HW1 6500  -0.085   3.209   5.755
 2014SOL    HW2 6501   0.018   3.089   5.799
 2015SOL     OW 6502   0.088   3.663   6.513
 2015SOL    HW1 6503   0.046   3.577   6.486
 2015SOL    HW2 6504   0.182   3.666   6.479
 2016SOL     OW 6505   0.504   3.430   6.496
 2016SOL    HW1 6506   0.570   3.504   6.505
 2016SOL    HW2 6507   0.548   3.351   6.454
 2017SOL     OW 6508   1.002   2.658   6.824
 2017SOL    HW1 6509   1.043   2.626   6.910
 2017SOL    HW2 6510   0.906   2.631   6.821
 2018SOL     OW 6511   0.040   2.406   6.700
 2018SOL    HW1 6512   0.125   2.373   6.659
 2018SOL    HW2 6513   0.053   2.421   6.798
 2019SOL     OW 6514   0.189   2.382   7.308
 2019SOL    HW1 6515   0.248   2.342   7.238
 2019SOL    HW2 6516   0.131   2.453   7.267
 2020SOL     OW 6517   1.369   2.812   7.246
 2020SOL    HW1 6518   1.408   2.901   7.266
 2020SOL    HW2 6519   1.379   2.792   7.149
 2021SOL     OW 6520   0.815   2.434   5.911
 2021SOL    HW1 6521   0.822   2.345   5.865
 2021SOL    HW2 6522   0.721   2.468   5.903
 2022SOL     OW 6523   1.657   2.466   6.792
 2022SOL    HW1 6524   1.619   2.397   6.854
 2022SOL    HW2 6525   1.739   2.430   6.748
 2023SOL     OW 6526   0.252   3.426   7.330
 2023SOL    HW1 6527   0.222   3.483   7.406
 2023SOL    HW2 6528   0.245   3.329   7.356
 2024SOL     OW 6529   0.671   2.326   6.855
 2024SOL    HW1 6530   0.637   2.237   6.825
 2024SOL    HW2 6531   0.697   2.380   6.775
 2025SOL     OW 6532   0.930   3.540   7.051
 2025SOL    HW1 6533   0.906   3.522   6.956
 2025SOL    HW2 6534   0.960   3.634   7.061
 2026SOL     OW 6535   0.473   2.362   5.777
 2026SOL    HW1 6536   0.534   2.442   5.781
 2026SOL    HW2 6537   0.378   2.393   5.784
 2027SOL     OW 6538   0.159   2.999   7.052
 2027SOL    HW1 6539   0.181   2.938   7.128
 2027SOL    HW2 6540   0.169   2.950   6.966
 2028SOL     OW 6541   1.347   2.921   6.820
 2028SOL    HW1 6542   1.371   2.858   6.746
 2028SOL    HW2 6543   1.257   2.961   6.802
 2029SOL     OW 6544   1.302   2.717   5.895
 2029SOL    HW1 6545   1.216   2.686   5.937
 2029SOL    HW2 6546   1.298   2.703   5.796
 2030SOL     OW 6547   1.759   3.609   6.740
 2030SOL    HW1 6548   1.820   3.639   6.667
 2030SOL    HW2 6549   1.721   3.520   6.718
 2031SOL     OW 6550   1.252   3.593   6.714
 2031SOL    HW1 6551   1.336   3.598   6.660
 2031SOL    HW2 6552   1.229   3.497   6.732
 2032SOL     OW 6553   0.083   3.120   6.608
 2032SOL    HW1 6554   0.078   3.119   6.708
 2032SOL    HW2 6555   0.000   3.079   6.570
 2033SOL     OW 6556   0.688   3.524   7.302
 2033SOL    HW1 6557   0.632   3.605   7.311
 2033SOL    HW2 6558   0.740   3.528   7.216
 2034SOL     OW 6559   1.388   3.435   6.063
 2034SOL    HW1 6560   1.455   3.447   5.989
 2034SOL    HW2 6561   1.348   3.524   6.086
 2035SOL     OW 6562   0.130   3.656   7.437
 2035SOL    HW1 6563   0.089   3.582   7.490
 2035SOL    HW2 6564   0.194   3.707   7.495
 2036SOL     OW 6565   1.280   2.789   6.258
 2036SOL    HW1 6566   1.340   2.708   6.260
 2036SOL    HW2 6567   1.320   2.858   6.198
 2037SOL     OW 6568   0.830   3.135   7.008
 2037SOL    HW1 6569   0.825   3.168   7.103
 2037SOL    HW2 6570   0.744   3.154   6.962
 2038SOL     OW 6571   0.672   3.478   5.740
 2038SOL    HW1 6572   0.681   3.488   5.641
 2038SOL    HW2 6573   0.632   3.389   5.761
 2039SOL     OW 6574   1.650   3.582   6.980
 2039SOL    HW1 6575   1.703   3.592   6.896
 2039SOL    HW2 6576   1.623   3.672   7.014
 2040SOL     OW 6577   1.841   2.037   6.549
 2040SOL    HW1 6578   1.880   1.952   6.513
 2040SOL    HW2 6579   1.743   2.039   6.530
 2041SOL     OW 6580   0.263   2.188   6.306
 2041SOL    HW1 6581   0.184   2.239   6.272
 2041SOL    HW2 6582   0.254   2.173   6.404
 2042SOL     OW 6583   1.194   3.474   5.617
 2042SOL    HW1 6584   1.200   3.381   5.654
 2042SOL    HW2 6585   1.135   3.474   5.537
 2043SOL     OW 6586   0.822   2.864   6.958
 2043SOL    HW1 6587   0.862   2.863   6.866
 2043SOL    HW2 6588   0.832   2.956   6.998
 2044SOL     OW 6589   0.916   2.772   5.877
 2044SOL    HW1 6590   0.979   2.810   5.809
 2044SOL    HW2 6591   0.956   2.689   5.916
 2045SOL     OW 6592   1.504   3.469   5.630
 2045SOL    HW1 6593   1.412   3.506   5.637
 2045SOL    HW2 6594   1.542   3.489   5.540
 2046SOL     OW 6595   0.372   3.150   7.076
 2046SOL    HW1 6596   0.359   3.243   7.042
 2046SOL    HW2 6597   0.288   3.098   7.063
 2047SOL     OW 6598   1.614   3.154   6.875
 2047SOL    HW1 6599   1.674   3.157   6.955
 2047SOL    HW2 6600   1.539   3.218   6.888
 2048SOL     OW 6601   1.039   2.960   6.282
 2048SOL    HW1 6602   0.969   2.913   6.336
 2048SOL    HW2 6603   1.098   2.892   6.239
 2049SOL     OW 6604   1.014   2.098   6.557
 2049SOL    HW1 6605   1.006   2.062   6.464
 2049SOL    HW2 6606   1.012   2.022   6.622
 2050SOL     OW 6607   0.590   3.349   6.077
 2050SOL    HW1 6608   0.632   3.291   6.007
 2050SOL    HW2 6609   0.546   3.428   6.033
 2051SOL     OW 6610   1.709   2.247   6.967
 2051SOL    HW1 6611   1.782   2.316   6.971
 2051SOL    HW2 6612   1.737   2.172   6.908
 2052SOL     OW 6613   0.255   3.210   5.876
 2052SOL    HW1 6614   0.159   3.211   5.849
 2052SOL    HW2 6615   0.267   3.263   5.960
 2053SOL     OW 6616   0.105   2.875   7.312
 2053SOL    HW1 6617   0.028   2.842   7.366
 2053SOL    HW2 6618   0.190   2.845   7.354
 2054SOL     OW 6619   0.672   2.065   7.075
 2054SOL    HW1 6620   0.762   2.049   7.035
 2054SOL    HW2 6621   0.680   2.070   7.174
 2055SOL     OW 6622   0.075   2.207   5.619
 2055SOL    HW1 6623  -0.017   2.179   5.590
 2055SOL    HW2 6624   0.106   2.284   5.563
 2056SOL     OW 6625   1.440   2.718   6.984
 2056SOL    HW1 6626   1.383   2.770   6.921
 2056SOL    HW2 6627   1.536   2.730   6.960
 2057SOL     OW 6628   0.072   2.028   5.904
 2057SOL    HW1 6629   0.055   2.111   5.850
 2057SOL    HW2 6630   0.162   1.991   5.882
 2058SOL     OW 6631   1.183   3.197   5.705
 2058SOL    HW1 6632   1.084   3.186   5.707
 2058SOL    HW2 6633   1.217   3.212   5.798
 2059SOL     OW 6634   0.613   2.704   7.017
 2059SOL    HW1 6635   0.669   2.785   7.000
 2059SOL    HW2 6636   0.672   2.624   7.020
 2060SOL     OW 6637   1.493   3.629   6.545
 2060SOL    HW1 6638   1.526   3.693   6.476
 2060SOL    HW2 6639   1.559   3.623   6.620
 2061SOL     OW 6640   0.716   2.427   7.294
 2061SOL    HW1 6641   0.735   2.492   7.368
 2061SOL    HW2 6642   0.776   2.347   7.303
 2062SOL     OW 6643   1.450   3.082   7.219
 2062SOL    HW1 6644   1.441   3.072   7.318
 2062SOL    HW2 6645   1.546   3.075   7.193
 2063SOL     OW 6646   0.390   3.603   7.146
 2063SOL    HW1 6647   0.299   3.644   7.144
 2063SOL    HW2 6648   0.383   3.509   7.178
 2064SOL     OW 6649   1.674   2.745   6.840
 2064SOL    HW1 6650   1.647   2.656   6.803
 2064SOL    HW2 6651   1.675   2.813   6.767
 2065SOL     OW 6652   1.225   2.187   6.035
 2065SOL    HW1 6653   1.290   2.113   6.024
 2065SOL    HW2 6654   1.245   2.237   6.119
 2066SOL     OW 6655   0.594   2.607   6.238
 2066SOL    HW1 6656   0.644   2.692   6.219
 2066SOL    HW2 6657   0.506   2.609   6.190
 2067SOL     OW 6658   1.777   2.204   7.228
 2067SOL    HW1 6659   1.760   2.235   7.134
 2067SOL    HW2 6660   1.693   2.167   7.266
 2068SOL     OW 6661   1.730   2.796   7.103
 2068SOL    HW1 6662   1.768   2.887   7.118
 2068SOL    HW2 6663   1.722   2.779   7.004
 2069SOL     OW 6664   0.859   3.236   5.602
 2069SOL    HW1 6665   0.813   3.251   5.690
 2069SOL    HW2 6666   0.903   3.321   5.572
 2070SOL     OW 6667   0.661   3.652   6.539
 2070SOL    HW1 6668   0.615   3.740   6.526
 2070SOL    HW2 6669   0.760   3.664   6.532
 2071SOL     OW 6670   0.859   2.818   6.447
 2071SOL    HW1 6671   0.913   2.749   6.495
 2071SOL    HW2 6672   0.827   2.887   6.513
 2072SOL     OW 6673   1.083   2.846   5.673
 2072SOL    HW1 6674   1.060   2.899   5.591
 2072SOL    HW2 6675   1.164   2.790   5.654
 2073SOL     OW 6676   1.861   3.431   6.437
 2073SOL    HW1 6677   1.790   3.419   6.367
 2073SOL    HW2 6678   1.862   3.352   6.497
 2074SOL     OW 6679   0.221   3.176   7.430
 2074SOL    HW1 6680   0.156   3.103   7.409
 2074SOL    HW2 6681   0.225   3.190   7.528
 2075SOL     OW 6682   0.079   3.102   6.239
 2075SOL    HW1 6683   0.078   3.055   6.327
 2075SOL    HW2 6684   0.161   3.074   6.188
 2076SOL     OW 6685   0.672   3.253   7.210
 2076SOL    HW1 6686   0.594   3.203   7.248
 2076SOL    HW2 6687   0.669   3.348   7.241
 2077SOL     OW 6688   1.824   2.054   6.813
 2077SOL    HW1 6689   1.820   1.964   6.857
 2077SOL    HW2 6690   1.827   2.043   6.714
 2078SOL     OW 6691   0.428   2.286   6.106
 2078SOL    HW1 6692   0.458   2.214   6.044
 2078SOL    HW2 6693   0.389   2.246   6.189
 2079SOL     OW 6694   1.705   3.349   6.690
 2079SOL    HW1 6695   1.612   3.324   6.663
 2079SOL    HW2 6696   1.731   3.299   6.772
 2080SOL     OW 6697   0.317   2.409   6.866
 2080SOL    HW1 6698   0.355   2.350   6.938
 2080SOL    HW2 6699   0.357   2.383   6.778
 2081SOL     OW 6700   0.812   3.448   6.273
 2081SOL    HW1 6701   0.844   3.458   6.179
 2081SOL    HW2 6702   0.733   3.386   6.275
 2082SOL     OW 6703   1.424   2.076   6.698
 2082SOL    HW1 6704   1.476   2.011   6.753
 2082SOL    HW2 6705   1.375   2.139   6.759
 2083SOL     OW 6706   1.001   1.896   6.740
 2083SOL    HW1 6707   0.938   1.824   6.709
 2083SOL    HW2 6708   1.094   1.860   6.740
 2084SOL     OW 6709   0.770   3.192   5.887
 2084SOL    HW1 6710   0.724   3.105   5.904
 2084SOL    HW2 6711   0.861   3.189   5.928
 2085SOL     OW 6712   0.618   3.429   6.870
 2085SOL    HW1 6713   0.613   3.511   6.927
 2085SOL    HW2 6714   0.707   3.426   6.825
 2086SOL     OW 6715   1.352   1.914   5.754
 2086SOL    HW1 6716   1.387   1.873   5.670
 2086SOL    HW2 6717   1.262   1.876   5.774
 2087SOL     OW 6718   1.300   2.315   6.277
 2087SOL    HW1 6719   1.241   2.395   6.281
 2087SOL    HW2 6720   1.315   2.280   6.370
 2088SOL     OW 6721   0.039   2.939   5.886
 2088SOL    HW1 6722   0.138   2.928   5.877
 2088SOL    HW2 6723  -0.001   2.853   5.918
 2089SOL     OW 6724   0.875   3.508   5.923
 2089SOL    HW1 6725   0.798   3.473   5.869
 2089SOL    HW2 6726   0.843   3.579   5.985
 2090SOL     OW 6727   0.230   2.490   7.561
 2090SOL    HW1 6728   0.137   2.488   7.598
 2090SOL    HW2 6729   0.231   2.451   7.469
 2091SOL     OW 6730   0.225   2.137   8.444
 2091SOL    HW1 6731   0.260   2.120   8.536
 2091SOL    HW2 6732   0.137   2.092   8.432
 2092SOL     OW 6733   0.019   2.230   8.095
 2092SOL    HW1 6734  -0.063   2.273   8.134
 2092SOL    HW2 6735  -0.009   2.157   8.032
 2093SOL     OW 6736   0.569   3.137   8.613
 2093SOL    HW1 6737   0.476   3.130   8.576
 2093SOL    HW2 6738   0.580   3.226   8.657
 2094SOL     OW 6739   1.555   3.373   8.151
 2094SOL    HW1 6740   1.498   3.357   8.232
 2094SOL    HW2 6741   1.496   3.383   8.071
 2095SOL     OW 6742   1.135   2.565   8.165
 2095SOL    HW1 6743   1.192   2.643   8.140
 2095SOL    HW2 6744   1.075   2.591   8.241
 2096SOL     OW 6745   1.755   2.469   7.679
 2096SOL    HW1 6746   1.743   2.456   7.580
 2096SOL    HW2 6747   1.725   2.388   7.728
 2097SOL     OW 6748   0.768   3.006   8.471
 2097SOL    HW1 6749   0.690   3.023   8.531
 2097SOL    HW2 6750   0.802   3.093   8.435
 2098SOL     OW 6751   0.850   2.660   9.271
 2098SOL    HW1 6752   0.846   2.736   9.336
 2098SOL    HW2 6753   0.872   2.696   9.180
 2099SOL     OW 6754   0.685   2.874   8.113
 2099SOL    HW1 6755   0.754   2.858   8.183
 2099SOL    HW2 6756   0.612   2.931   8.151
 2100SOL     OW 6757   0.686   3.023   9.251
 2100SOL    HW1 6758   0.746   3.102   9.265
 2100SOL    HW2 6759   0.600   3.054   9.210
 2101SOL     OW 6760   0.335   3.297   8.509
 2101SOL    HW1 6761   0.257   3.266   8.456
 2101SOL    HW2 6762   0.393   3.355   8.452
 2102SOL     OW 6763   1.460   3.367   8.787
 2102SOL    HW1 6764   1.484   3.461   8.813
 2102SOL    HW2 6765   1.444   3.313   8.869
 2103SOL     OW 6766   0.438   2.254   8.947
 2103SOL    HW1 6767   0.520   2.198   8.956
 2103SOL    HW2 6768   0.357   2.196   8.951
 2104SOL     OW 6769   1.603   2.309   8.185
 2104SOL    HW1 6770   1.529   2.355   8.135
 2104SOL    HW2 6771   1.654   2.377   8.238
 2105SOL     OW 6772   0.231   3.575   7.931
 2105SOL    HW1 6773   0.265   3.652   7.985
 2105SOL    HW2 6774   0.275   3.575   7.841
 2106SOL     OW 6775   1.127   3.203   9.138
 2106SOL    HW1 6776   1.174   3.203   9.226
 2106SOL    HW2 6777   1.079   3.116   9.127
 2107SOL     OW 6778   0.230   3.296   7.986
 2107SOL    HW1 6779   0.204   3.392   7.986
 2107SOL    HW2 6780   0.159   3.242   8.031
 2108SOL     OW 6781   0.240   2.953   8.334
 2108SOL    HW1 6782   0.254   2.869   8.386
 2108SOL    HW2 6783   0.185   3.017   8.389
 2109SOL     OW 6784   0.620   3.648   8.887
 2109SOL    HW1 6785   0.528   3.631   8.922
 2109SOL    HW2 6786   0.648   3.740   8.913
 2110SOL     OW 6787   0.606   2.826   7.571
 2110SOL    HW1 6788   0.613   2.910   7.517
 2110SOL    HW2 6789   0.652   2.839   7.659
 2111SOL     OW 6790   1.594   1.976   8.928
 2111SOL    HW1 6791   1.576   2.043   8.856
 2111SOL    HW2 6792   1.591   2.022   9.017
 2112SOL     OW 6793   0.122   2.505   8.011
 2112SOL    HW1 6794   0.077   2.417   8.028
 2112SOL    HW2 6795   0.121   2.559   8.095
 2113SOL     OW 6796   1.842   3.629   7.807
 2113SOL    HW1 6797   1.896   3.600   7.887
 2113SOL    HW2 6798   1.872   3.719   7.778
 2114SOL     OW 6799   0.027   3.458   7.565
 2114SOL    HW1 6800   0.008   3.362   7.586
 2114SOL    HW2 6801  -0.006   3.516   7.640
 2115SOL     OW 6802   1.689   2.784   8.060
 2115SOL    HW1 6803   1.784   2.755   8.068
 2115SOL    HW2 6804   1.681   2.849   7.985
 2116SOL     OW 6805   1.641   2.970   7.880
 2116SOL    HW1 6806   1.727   2.972   7.828
 2116SOL    HW2 6807   1.655   3.017   7.968
 2117SOL     OW 6808   0.113   2.599   9.045
 2117SOL    HW1 6809   0.201   2.586   9.090
 2117SOL    HW2 6810   0.100   2.696   9.023
 2118SOL     OW 6811   0.613   3.227   8.174
 2118SOL    HW1 6812   0.564   3.140   8.183
 2118SOL    HW2 6813   0.590   3.270   8.087
 2119SOL     OW 6814   1.293   3.090   8.871
 2119SOL    HW1 6815   1.330   3.017   8.813
 2119SOL    HW2 6816   1.345   3.095   8.956
 2120SOL     OW 6817   0.809   1.866   7.950
 2120SOL    HW1 6818   0.849   1.957   7.941
 2120SOL    HW2 6819   0.709   1.874   7.956
 2121SOL     OW 6820   0.197   2.838   8.712
 2121SOL    HW1 6821   0.286   2.793   8.698
 2121SOL    HW2 6822   0.124   2.773   8.693
 2122SOL     OW 6823   1.525   2.861   7.638
 2122SOL    HW1 6824   1.462   2.785   7.651
 2122SOL    HW2 6825   1.573   2.879   7.724
 2123SOL     OW 6826   1.187   3.654   9.064
 2123SOL    HW1 6827   1.211   3.714   8.988
 2123SOL    HW2 6828   1.194   3.559   9.034
 2124SOL     OW 6829   0.317   2.113   9.249
 2124SOL    HW1 6830   0.388   2.184   9.255
 2124SOL    HW2 6831   0.229   2.152   9.277
 2125SOL     OW 6832   1.466   3.279   8.401
 2125SOL    HW1 6833   1.407   3.285   8.481
 2125SOL    HW2 6834   1.451   3.191   8.355
 2126SOL     OW 6835   1.667   3.576   8.020
 2126SOL    HW1 6836   1.626   3.553   7.932
 2126SOL    HW2 6837   1.649   3.502   8.085
 2127SOL     OW 6838   0.598   2.591   7.718
 2127SOL    HW1 6839   0.622   2.660   7.650
 2127SOL    HW2 6840   0.520   2.624   7.772
 2128SOL     OW 6841   1.281   2.207   8.392
 2128SOL    HW1 6842   1.195   2.157   8.379
 2128SOL    HW2 6843   1.343   2.153   8.448
 2129SOL     OW 6844   1.576   3.524   7.755
 2129SOL    HW1 6845   1.665   3.570   7.758
 2129SOL    HW2 6846   1.555   3.500   7.660
 2130SOL     OW 6847   0.807   2.467   8.913
 2130SOL    HW1 6848   0.760   2.464   9.002
 2130SOL    HW2 6849   0.756   2.412   8.847
 2131SOL     OW 6850   1.394   2.331   9.122
 2131SOL    HW1 6851   1.374   2.374   9.210
 2131SOL    HW2 6852   1.472   2.269   9.131
 2132SOL     OW 6853   0.973   2.752   9.020
 2132SOL    HW1 6854   1.019   2.668   8.991
 2132SOL    HW2 6855   0.917   2.786   8.945
 2133SOL     OW 6856   0.991   2.272   8.690
 2133SOL    HW1 6857   0.914   2.306   8.744
 2133SOL    HW2 6858   0.957   2.221   8.611
 2134SOL     OW 6859   1.041   2.563   7.877
 2134SOL    HW1 6860   1.067   2.559   7.973
 2134SOL    HW2 6861   0.956   2.512   7.863
 2135SOL     OW 6862   0.076   2.673   8.237
 2135SOL    HW1 6863   0.175   2.661   8.246
 2135SOL    HW2 6864   0.052   2.768   8.258
 2136SOL     OW 6865   0.130   3.683   9.019
 2136SOL    HW1 6866   0.120   3.668   9.118
 2136SOL    HW2 6867   0.044   3.719   8.983
 2137SOL     OW 6868   0.865   2.210   7.643
 2137SOL    HW1 6869   0.924   2.273   7.594
 2137SOL    HW2 6870   0.884   2.116   7.614
 2138SOL     OW 6871   1.719   2.447   9.279
 2138SOL    HW1 6872   1.693   2.536   9.243
 2138SOL    HW2 6873   1.717   2.379   9.206
 2139SOL     OW 6874   1.362   3.006   7.993
 2139SOL    HW1 6875   1.445   2.977   7.945
 2139SOL    HW2 6876   1.313   3.073   7.937
 2140SOL     OW 6877   0.550   2.058   8.333
 2140SOL    HW1 6878   0.545   2.053   8.433
 2140SOL    HW2 6879   0.552   2.154   8.304
 2141SOL     OW 6880   1.008   3.318   7.925
 2141SOL    HW1 6881   0.962   3.390   7.873
 2141SOL    HW2 6882   1.004   3.338   8.023
 2142SOL     OW 6883   0.351   3.663   8.301
 2142SOL    HW1 6884   0.401   3.577   8.307
 2142SOL    HW2 6885   0.416   3.740   8.298
 2143SOL     OW 6886   1.795   2.928   8.321
 2143SOL    HW1 6887   1.733   2.913   8.245
 2143SOL    HW2 6888   1.743   2.939   8.406
 2144SOL     OW 6889   1.227   3.412   8.954
 2144SOL    HW1 6890   1.233   3.335   9.018
 2144SOL    HW2 6891   1.175   3.386   8.874
 2145SOL     OW 6892   0.321   2.805   7.690
 2145SOL    HW1 6893   0.403   2.844   7.648
 2145SOL    HW2 6894   0.294   2.723   7.641
 2146SOL     OW 6895   1.458   2.597   8.176
 2146SOL    HW1 6896   1.453   2.532   8.251
 2146SOL    HW2 6897   1.538   2.656   8.189
 2147SOL     OW 6898   0.461   3.128   9.175
 2147SOL    HW1 6899   0.411   3.129   9.089
 2147SOL    HW2 6900   0.398   3.110   9.251
 2148SOL     OW 6901   1.111   3.638   7.685
 2148SOL    HW1 6902   1.051   3.576   7.735
 2148SOL    HW2 6903   1.142   3.594   7.600
 2149SOL     OW 6904   0.202   2.147   8.946
 2149SOL    HW1 6905   0.122   2.207   8.933
 2149SOL    HW2 6906   0.192   2.098   9.032
 2150SOL     OW 6907   1.632   3.239   7.529
 2150SOL    HW1 6908   1.600   3.333   7.519
 2150SOL    HW2 6909   1.556   3.176   7.517
 2151SOL     OW 6910   0.464   3.605   7.771
 2151SOL    HW1 6911   0.497   3.644   7.857
 2151SOL    HW2 6912   0.540   3.598   7.706
 2152SOL     OW 6913   1.400   1.969   7.874
 2152SOL    HW1 6914   1.376   1.932   7.784
 2152SOL    HW2 6915   1.499   1.985   7.878
 2153SOL     OW 6916   0.249   3.647   8.689
 2153SOL    HW1 6917   0.306   3.582   8.739
 2153SOL    HW2 6918   0.233   3.614   8.596
 2154SOL     OW 6919   0.940   3.560   8.352
 2154SOL    HW1 6920   1.020   3.503   8.373
 2154SOL    HW2 6921   0.891   3.520   8.275
 2155SOL     OW 6922   0.382   2.562   7.928
 2155SOL    HW1 6923   0.427   2.472   7.925
 2155SOL    HW2 6924   0.288   2.551   7.961
 2156SOL     OW 6925   1.547   2.084   9.177
 2156SOL    HW1 6926   1.542   2.121   9.269
 2156SOL    HW2 6927   1.475   2.015   9.165
 2157SOL     OW 6928   0.614   1.984   7.565
 2157SOL    HW1 6929   0.712   1.962   7.572
 2157SOL    HW2 6930   0.583   1.967   7.472
 2158SOL     OW 6931   0.781   2.126   9.197
 2158SOL    HW1 6932   0.848   2.065   9.240
 2158SOL    HW2 6933   0.708   2.145   9.262
 2159SOL     OW 6934   0.888   3.376   8.643
 2159SOL    HW1 6935   0.865   3.351   8.549
 2159SOL    HW2 6936   0.949   3.307   8.682
 2160SOL     OW 6937   1.351   2.452   8.881
 2160SOL    HW1 6938   1.379   2.409   8.966
 2160SOL    HW2 6939   1.376   2.548   8.882
 2161SOL     OW 6940   0.803   3.264   8.372
 2161SOL    HW1 6941   0.893   3.278   8.330
 2161SOL    HW2 6942   0.732   3.266   8.301
 2162SOL     OW 6943   0.922   2.365   8.347
 2162SOL    HW1 6944   0.897   2.356   8.251
 2162SOL    HW2 6945   0.970   2.283   8.378
 2163SOL     OW 6946   0.539   1.926   7.960
 2163SOL    HW1 6947   0.458   1.927   8.018
 2163SOL    HW2 6948   0.542   2.009   7.905
 2164SOL     OW 6949   1.434   3.050   7.489
 2164SOL    HW1 6950   1.466   2.974   7.546
 2164SOL    HW2 6951   1.342   3.077   7.519
 2165SOL     OW 6952   0.297   1.897   7.619
 2165SOL    HW1 6953   0.346   1.981   7.598
 2165SOL    HW2 6954   0.359   1.832   7.664
 2166SOL     OW 6955   0.935   2.098   7.928
 2166SOL    HW1 6956   0.887   2.139   7.850
 2166SOL    HW2 6957   1.034   2.096   7.909
 2167SOL     OW 6958   1.076   2.545   8.912
 2167SOL    HW1 6959   0.996   2.484   8.915
 2167SOL    HW2 6960   1.157   2.492   8.888
 2168SOL     OW 6961   1.227   3.432   8.241
 2168SOL    HW1 6962   1.248   3.506   8.176
 2168SOL    HW2 6963   1.295   3.432   8.314
 2169SOL     OW 6964   0.459   3.014   8.189
 2169SOL    HW1 6965   0.388   2.987   8.254
 2169SOL    HW2 6966   0.433   2.986   8.096
 2170SOL     OW 6967   1.271   3.659   8.039
 2170SOL    HW1 6968   1.315   3.723   7.975
 2170SOL    HW2 6969   1.221   3.711   8.109
 2171SOL     OW 6970   1.032   2.411   7.464
 2171SOL    HW1 6971   0.991   2.493   7.425
 2171SOL    HW2 6972   1.096   2.437   7.537
 2172SOL     OW 6973   0.078   2.418   8.834
 2172SOL    HW1 6974   0.170   2.417   8.793
 2172SOL    HW2 6975   0.072   2.492   8.901
 2173SOL     OW 6976   0.561   2.084   8.595
 2173SOL    HW1 6977   0.599   2.000   8.632
 2173SOL    HW2 6978   0.473   2.103   8.639
 2174SOL     OW 6979   0.866   2.316   8.090
 2174SOL    HW1 6980   0.834   2.388   8.028
 2174SOL    HW2 6981   0.890   2.235   8.037
 2175SOL     OW 6982   1.017   1.901   8.201
 2175SOL    HW1 6983   0.945   1.906   8.132
 2175SOL    HW2 6984   0.993   1.832   8.270
 2176SOL     OW 6985   1.429   3.035   8.315
 2176SOL    HW1 6986   1.374   2.951   8.308
 2176SOL    HW2 6987   1.455   3.064   8.223
 2177SOL     OW 6988   1.466   2.452   8.440
 2177SOL    HW1 6989   1.436   2.357   8.447
 2177SOL    HW2 6990   1.539   2.468   8.506
 2178SOL     OW 6991   1.857   2.695   7.825
 2178SOL    HW1 6992   1.899   2.631   7.889
 2178SOL    HW2 6993   1.819   2.644   7.747
 2179SOL     OW 6994   0.488   3.247   7.622
 2179SOL    HW1 6995   0.401   3.232   7.669
 2179SOL    HW2 6996   0.471   3.273   7.527
 2180SOL     OW 6997   1.664   3.142   8.105
 2180SOL    HW1 6998   1.763   3.150   8.119
 2180SOL    HW2 6999   1.619   3.226   8.136
 2181SOL     OW 7000   1.390   2.437   7.526
 2181SOL    HW1 7001   1.336   2.416   7.607
 2181SOL    HW2 7002   1.481   2.396   7.535
 2182SOL     OW 7003   0.527   2.118   7.776
 2182SOL    HW1 7004   0.554   2.059   7.701
 2182SOL    HW2 7005   0.527   2.213   7.745
 2183SOL     OW 7006   1.754   3.085   9.036
 2183SOL    HW1 7007   1.845   3.046   9.023
 2183SOL    HW2 7008   1.762   3.181   9.060
 2184SOL     OW 7009   1.064   3.209   8.788
 2184SOL    HW1 7010   0.984   3.186   8.843
 2184SOL    HW2 7011   1.147   3.183   8.837
 2185SOL     OW 7012   1.592   3.491   9.073
 2185SOL    HW1 7013   1.619   3.525   8.983
 2185SOL    HW2 7014   1.671   3.453   9.119
 2186SOL     OW 7015   1.111   3.057   8.548
 2186SOL    HW1 7016   1.071   3.101   8.629
 2186SOL    HW2 7017   1.070   3.094   8.465
 2187SOL     OW 7018   1.638   2.961   8.527
 2187SOL    HW1 7019   1.643   3.042   8.586
 2187SOL    HW2 7020   1.552   2.963   8.476
 2188SOL     OW 7021   0.915   1.951   8.850
 2188SOL    HW1 7022   0.940   1.931   8.755
 2188SOL    HW2 7023   0.987   2.007   8.892
 2189SOL     OW 7024   0.980   2.978   9.167
 2189SOL    HW1 7025   0.881   2.984   9.177
 2189SOL    HW2 7026   1.003   2.898   9.111
 2190SOL     OW 7027   0.705   2.912   7.816
 2190SOL    HW1 7028   0.691   2.919   7.915
 2190SOL    HW2 7029   0.789   2.861   7.798
 2191SOL     OW 7030   0.410   2.675   8.699
 2191SOL    HW1 7031   0.496   2.687   8.749
 2191SOL    HW2 7032   0.368   2.588   8.726
 2192SOL     OW 7033   1.274   2.248   8.710
 2192SOL    HW1 7034   1.295   2.322   8.774
 2192SOL    HW2 7035   1.185   2.265   8.667
 2193SOL     OW 7036   0.064   3.426   8.779
 2193SOL    HW1 7037   0.018   3.508   8.745
 2193SOL    HW2 7038   0.162   3.445   8.788
 2194SOL     OW 7039   0.367   2.962   7.949
 2194SOL    HW1 7040   0.360   3.045   7.893
 2194SOL    HW2 7041   0.371   2.882   7.889
 2195SOL     OW 7042   0.566   2.399   8.313
 2195SOL    HW1 7043   0.578   2.465   8.239
 2195SOL    HW2 7044   0.612   2.433   8.396
 2196SOL     OW 7045   1.252   3.210   7.836
 2196SOL    HW1 7046   1.302   3.287   7.876
 2196SOL    HW2 7047   1.157   3.212   7.868
 2197SOL     OW 7048   1.272   3.307   8.590
 2197SOL    HW1 7049   1.319   3.320   8.677
 2197SOL    HW2 7050   1.206   3.233   8.599
 2198SOL     OW 7051   1.582   2.501   7.920
 2198SOL    HW1 7052   1.551   2.562   7.993
 2198SOL    HW2 7053   1.632   2.553   7.851
 2199SOL     OW 7054   0.354   3.372   8.777
 2199SOL    HW1 7055   0.333   3.328   8.690
 2199SOL    HW2 7056   0.451   3.398   8.780
 2200SOL     OW 7057   0.402   2.613   9.046
 2200SOL    HW1 7058   0.470   2.668   8.999
 2200SOL    HW2 7059   0.442   2.525   9.073
 2201SOL     OW 7060   1.587   2.641   9.118
 2201SOL    HW1 7061   1.495   2.679   9.113
 2201SOL    HW2 7062   1.647   2.688   9.053
 2202SOL     OW 7063   1.013   1.967   9.218
 2202SOL    HW1 7064   1.019   2.052   9.166
 2202SOL    HW2 7065   1.045   1.891   9.161
 2203SOL     OW 7066   0.504   1.912   9.188
 2203SOL    HW1 7067   0.462   1.855   9.118
 2203SOL    HW2 7068   0.438   1.981   9.220
 2204SOL     OW 7069   0.573   2.732   8.477
 2204SOL    HW1 7070   0.617   2.821   8.468
 2204SOL    HW2 7071   0.510   2.732   8.554
 2205SOL     OW 7072   1.360   2.724   8.493
 2205SOL    HW1 7073   1.285   2.724   8.427
 2205SOL    HW2 7074   1.397   2.632   8.502
 2206SOL     OW 7075   1.209   2.387   7.723
 2206SOL    HW1 7076   1.222   2.303   7.777
 2206SOL    HW2 7077   1.180   2.461   7.783
 2207SOL     OW 7078   0.307   2.075   8.679
 2207SOL    HW1 7079   0.284   2.112   8.769
 2207SOL    HW2 7080   0.277   1.980   8.673
 2208SOL     OW 7081   0.037   3.172   8.730
 2208SOL    HW1 7082   0.090   3.123   8.798
 2208SOL    HW2 7083   0.059   3.270   8.735
 2209SOL     OW 7084   0.732   2.496   8.512
 2209SOL    HW1 7085   0.791   2.470   8.436
 2209SOL    HW2 7086   0.704   2.592   8.501
 2210SOL     OW 7087   1.728   2.797   9.302
 2210SOL    HW1 7088   1.682   2.790   9.213
 2210SOL    HW2 7089   1.666   2.841   9.368
 2211SOL     OW 7090   0.307   1.925   8.066
 2211SOL    HW1 7091   0.296   2.019   8.099
 2211SOL    HW2 7092   0.302   1.862   8.143
 2212SOL     OW 7093   1.622   2.229   7.822
 2212SOL    HW1 7094   1.624   2.153   7.886
 2212SOL    HW2 7095   1.574   2.306   7.862
 2213SOL     OW 7096   1.023   2.628   8.414
 2213SOL    HW1 7097   1.038   2.649   8.510
 2213SOL    HW2 7098   0.993   2.533   8.405
 2214SOL     OW 7099   0.980   3.435   9.148
 2214SOL    HW1 7100   0.960   3.479   9.060
 2214SOL    HW2 7101   1.019   3.344   9.132
 2215SOL     OW 7102   1.859   3.380   9.053
 2215SOL    HW1 7103   1.873   3.407   8.958
 2215SOL    HW2 7104   1.942   3.402   9.106
 2216SOL     OW 7105   0.350   2.760   9.252
 2216SOL    HW1 7106   0.426   2.804   9.300
 2216SOL    HW2 7107   0.385   2.713   9.170
 2217SOL     OW 7108   1.540   2.136   7.573
 2217SOL    HW1 7109   1.479   2.061   7.596
 2217SOL    HW2 7110   1.562   2.188   7.656
 2218SOL     OW 7111   1.303   2.700   7.490
 2218SOL    HW1 7112   1.337   2.607   7.505
 2218SOL    HW2 7113   1.321   2.727   7.395
 2219SOL     OW 7114   1.068   3.195   8.297
 2219SOL    HW1 7115   1.075   3.111   8.242
 2219SOL    HW2 7116   1.130   3.264   8.261
 2220SOL     OW 7117   0.319   2.672   8.397
 2220SOL    HW1 7118   0.412   2.708   8.402
 2220SOL    HW2 7119   0.313   2.587   8.449
 2221SOL     OW 7120   0.339   2.371   8.454
 2221SOL    HW1 7121   0.287   2.288   8.437
 2221SOL    HW2 7122   0.416   2.376   8.390
 2222SOL     OW 7123   1.138   2.242   9.126
 2222SOL    HW1 7124   1.093   2.305   9.190
 2222SOL    HW2 7125   1.231   2.273   9.109
 2223SOL     OW 7126   1.160   2.069   8.925
 2223SOL    HW1 7127   1.160   2.133   9.002
 2223SOL    HW2 7128   1.188   2.117   8.842
 2224SOL     OW 7129   0.008   3.188   7.648
 2224SOL    HW1 7130  -0.085   3.209   7.617
 2224SOL    HW2 7131   0.018   3.089   7.661
 2225SOL     OW 7132   0.088   3.663   8.375
 2225SOL    HW1 7133   0.046   3.577   8.348
 2225SOL    HW2 7134   0.182   3.666   8.341
 2226SOL     OW 7135   0.504   3.430   8.358
 2226SOL    HW1 7136   0.570   3.504   8.367
 2226SOL    HW2 7137   0.548   3.351   8.316
 2227SOL     OW 7138   1.002   2.658   8.686
 2227SOL    HW1 7139   1.043   2.626   8.772
 2227SOL    HW2 7140   0.906   2.631   8.683
 2228SOL     OW 7141   0.040   2.406   8.562
 2228SOL    HW1 7142   0.125   2.373   8.521
 2228SOL    HW2 7143   0.053   2.421   8.660
 2229SOL     OW 7144   0.189   2.382   9.170
 2229SOL    HW1 7145   0.248   2.342   9.100
 2229SOL    HW2 7146   0.131   2.453   9.129
 2230SOL     OW 7147   1.369   2.812   9.108
 2230SOL    HW1 7148   1.408   2.901   9.128
 2230SOL    HW2 7149   1.379   2.792   9.011
 2231SOL     OW 7150   0.815   2.434   7.773
 2231SOL    HW1 7151   0.822   2.345   7.727
 2231SOL    HW2 7152   0.721   2.468   7.765
 2232SOL     OW 7153   1.657   2.466   8.654
 2232SOL    HW1 7154   1.619   2.397   8.716
 2232SOL    HW2 7155   1.739   2.430   8.610
 2233SOL     OW 7156   0.252   3.426   9.192
 2233SOL    HW1 7157   0.222   3.483   9.268
 2233SOL    HW2 7158   0.245   3.329   9.218
 2234SOL     OW 7159   0.671   2.326   8.717
 2234SOL    HW1 7160   0.637   2.237   8.687
 2234SOL    HW2 7161   0.697   2.380   8.637
 2235SOL     OW 7162   0.930   3.540   8.913
 2235SOL    HW1 7163   0.906   3.522   8.818
 2235SOL    HW2 7164   0.960   3.634   8.923
 2236SOL     OW 7165   0.473   2.362   7.639
 2236SOL    HW1 7166   0.534   2.442   7.643
 2236SOL    HW2 7167   0.378   2.393   7.646
 2237SOL     OW 7168   0.159   2.999   8.914
 2237SOL    HW1 7169   0.181   2.938   8.990
 2237SOL    HW2 7170   0.169   2.950   8.828
 2238SOL     OW 7171   1.347   2.921   8.682
 2238SOL    HW1 7172   1.371   2.858   8.608
 2238SOL    HW2 7173   1.257   2.961   8.664
 2239SOL     OW 7174   1.302   2.717   7.757
 2239SOL    HW1 7175   1.216   2.686   7.799
 2239SOL    HW2 7176   1.298   2.703   7.658
 2240SOL     OW 7177   1.759   3.609   8.602
 2240SOL    HW1 7178   1.820   3.639   8.529
 2240SOL    HW2 7179   1.721   3.520   8.580
 2241SOL     OW 7180   1.252   3.593   8.576
 2241SOL    HW1 7181   1.336   3.598   8.522
 2241SOL    HW2 7182   1.229   3.497   8.594
 2242SOL     OW 7183   0.083   3.120   8.470
 2242SOL    HW1 7184   0.078   3.119   8.570
 2242SOL    HW2 7185   0.000   3.079   8.432
 2243SOL     OW 7186   0.688   3.524   9.164
 2243SOL    HW1 7187   0.632   3.605   9.173
 2243SOL    HW2 7188   0.740   3.528   9.078
 2244SOL     OW 7189   1.726   1.997   7.971
 2244SOL    HW1 7190   1.799   1.980   7.904
 2244SOL    HW2 7191   1.695   1.910   8.009
 2245SOL     OW 7192   1.388   3.435   7.925
 2245SOL    HW1 7193   1.455   3.447   7.851
 2245SOL    HW2 7194   1.348   3.524   7.948
 2246SOL     OW 7195   0.130   3.656   9.299
 2246SOL    HW1 7196   0.089   3.582   9.352
 2246SOL    HW2 7197   0.194   3.707   9.357
 2247SOL     OW 7198   1.280   2.789   8.120
 2247SOL    HW1 7199   1.340   2.708   8.122
 2247SOL    HW2 7200   1.320   2.858   8.060
 2248SOL     OW 7201   0.830   3.135   8.870
 2248SOL    HW1 7202   0.825   3.168   8.965
 2248SOL    HW2 7203   0.744   3.154   8.824
 2249SOL     OW 7204   0.672   3.478   7.602
 2249SOL    HW1 7205   0.681   3.488   7.503
 2249SOL    HW2 7206   0.632   3.389   7.623
 2250SOL     OW 7207   1.650   3.582   8.842
 2250SOL    HW1 7208   1.703   3.592   8.758
 2250SOL    HW2 7209   1.623   3.672   8.876
 2251SOL     OW 7210   1.841   2.037   8.411
 2251SOL    HW1 7211   1.880   1.952   8.375
 2251SOL    HW2 7212   1.743   2.039   8.392
 2252SOL     OW 7213   0.263   2.188   8.168
 2252SOL    HW1 7214   0.184   2.239   8.134
 2252SOL    HW2 7215   0.254   2.173   8.266
 2253SOL     OW 7216   1.194   3.474   7.479
 2253SOL    HW1 7217   1.200   3.381   7.516
 2253SOL    HW2 7218   1.135   3.474   7.399
 2254SOL     OW 7219   0.822   2.864   8.820
 2254SOL    HW1 7220   0.862   2.863   8.728
 2254SOL    HW2 7221   0.832   2.956   8.860
 2255SOL     OW 7222   0.916   2.772   7.739
 2255SOL    HW1 7223   0.979   2.810   7.671
 2255SOL    HW2 7224   0.956   2.689   7.778
 2256SOL     OW 7225   1.504   3.469   7.492
 2256SOL    HW1 7226   1.412   3.506   7.499
 2256SOL    HW2 7227   1.542   3.489   7.402
 2257SOL     OW 7228   0.372   3.150   8.938
 2257SOL    HW1 7229   0.359   3.243   8.904
 2257SOL    HW2 7230   0.288   3.098   8.925
 2258SOL     OW 7231   1.614   3.154   8.737
 2258SOL    HW1 7232   1.674   3.157   8.817
 2258SOL    HW2 7233   1.539   3.218   8.750
 2259SOL     OW 7234   1.039   2.960   8.144
 2259SOL    HW1 7235   0.969   2.913   8.198
 2259SOL    HW2 7236   1.098   2.892   8.101
 2260SOL     OW 7237   1.014   2.098   8.419
 2260SOL    HW1 7238   1.006   2.062   8.326
 2260SOL    HW2 7239   1.012   2.022   8.484
 2261SOL     OW 7240   0.590   3.349   7.939
 2261SOL    HW1 7241   0.632   3.291   7.869
 2261SOL    HW2 7242   0.546   3.428   7.895
 2262SOL     OW 7243   1.709   2.247   8.829
 2262SOL    HW1 7244   1.782   2.316   8.833
 2262SOL    HW2 7245   1.737   2.172   8.770
 2263SOL     OW 7246   0.255   3.210   7.738
 2263SOL    HW1 7247   0.159   3.211   7.711
 2263SOL    HW2 7248   0.267   3.263   7.822
 2264SOL     OW 7249   0.105   2.875   9.174
 2264SOL    HW1 7250   0.028   2.842   9.228
 2264SOL    HW2 7251   0.190   2.845   9.216
 2265SOL     OW 7252   0.672   2.065   8.937
 2265SOL    HW1 7253   0.762   2.049   8.897
 2265SOL    HW2 7254   0.680   2.070   9.036
 2266SOL     OW 7255   0.075   2.207   7.481
 2266SOL    HW1 7256  -0.017   2.179   7.452
 2266SOL    HW2 7257   0.106   2.284   7.425
 2267SOL     OW 7258   1.440   2.718   8.846
 2267SOL    HW1 7259   1.383   2.770   8.783
 2267SOL    HW2 7260   1.536   2.730   8.822
 2268SOL     OW 7261   0.072   2.028   7.766
 2268SOL    HW1 7262   0.055   2.111   7.712
 2268SOL    HW2 7263   0.162   1.991   7.744
 2269SOL     OW 7264   1.183   3.197   7.567
 2269SOL    HW1 7265   1.084   3.186   7.569
 2269SOL    HW2 7266   1.217   3.212   7.660
 2270SOL     OW 7267   0.613   2.704   8.879
 2270SOL    HW1 7268   0.669   2.785   8.862
 2270SOL    HW2 7269   0.672   2.624   8.882
 2271SOL     OW 7270   1.493   3.629   8.407
 2271SOL    HW1 7271   1.526   3.693   8.338
 2271SOL    HW2 7272   1.559   3.623   8.482
 2272SOL     OW 7273   0.716   2.427   9.156
 2272SOL    HW1 7274   0.735   2.492   9.230
 2272SOL    HW2 7275   0.776   2.347   9.165
 2273SOL     OW 7276   1.450   3.082   9.081
 2273SOL    HW1 7277   1.441   3.072   9.180
 2273SOL    HW2 7278   1.546   3.075   9.055
 2274SOL     OW 7279   0.390   3.603   9.008
 2274SOL    HW1 7280   0.299   3.644   9.006
 2274SOL    HW2 7281   0.383   3.509   9.040
 2275SOL     OW 7282   1.674   2.745   8.702
 2275SOL    HW1 7283   1.647   2.656   8.665
 2275SOL    HW2 7284   1.675   2.813   8.629
 2276SOL     OW 7285   1.225   2.187   7.897
 2276SOL    HW1 7286   1.290   2.113   7.886
 2276SOL    HW2 7287   1.245   2.237   7.981
 2277SOL     OW 7288   0.594   2.607   8.100
 2277SOL    HW1 7289   0.644   2.692   8.081
 2277SOL    HW2 7290   0.506   2.609   8.052
 2278SOL     OW 7291   1.777   2.204   9.090
 2278SOL    HW1 7292   1.760   2.235   8.996
 2278SOL    HW2 7293   1.693   2.167   9.128
 2279SOL     OW 7294   1.730   2.796   8.965
 2279SOL    HW1 7295   1.768   2.887   8.980
 2279SOL    HW2 7296   1.722   2.779   8.866
 2280SOL     OW 7297   0.859   3.236   7.464
 2280SOL    HW1 7298   0.813   3.251   7.552
 2280SOL    HW2 7299   0.903   3.321   7.434
 2281SOL     OW 7300   0.661   3.652   8.401
 2281SOL    HW1 7301   0.615   3.740   8.388
 2281SOL    HW2 7302   0.760   3.664   8.394
 2282SOL     OW 7303   0.859   2.818   8.309
 2282SOL    HW1 7304   0.913   2.749   8.357
 2282SOL    HW2 7305   0.827   2.887   8.375
 2283SOL     OW 7306   1.083   2.846   7.535
 2283SOL    HW1 7307   1.060   2.899   7.453
 2283SOL    HW2 7308   1.164   2.790   7.516
 2284SOL     OW 7309   1.861   3.431   8.299
 2284SOL    HW1 7310   1.790   3.419   8.229
 2284SOL    HW2 7311   1.862   3.352   8.359
 2285SOL     OW 7312   0.221   3.176   9.292
 2285SOL    HW1 7313   0.156   3.103   9.271
 2285SOL    HW2 7314   0.225   3.190   9.390
 2286SOL     OW 7315   0.079   3.102   8.101
 2286SOL    HW1 7316   0.078   3.055   8.189
 2286SOL    HW2 7317   0.161   3.074   8.050
 2287SOL     OW 7318   0.672   3.253   9.072
 2287SOL    HW1 7319   0.594   3.203   9.110
 2287SOL    HW2 7320   0.669   3.348   9.103
 2288SOL     OW 7321   1.824   2.054   8.675
 2288SOL    HW1 7322   1.820   1.964   8.719
 2288SOL    HW2 7323   1.827   2.043   8.576
 2289SOL     OW 7324   0.428   2.286   7.968
 2289SOL    HW1 7325   0.458   2.214   7.906
 2289SOL    HW2 7326   0.389   2.246   8.051
 2290SOL     OW 7327   1.705   3.349   8.552
 2290SOL    HW1 7328   1.612   3.324   8.525
 2290SOL    HW2 7329   1.731   3.299   8.634
 2291SOL     OW 7330   0.317   2.409   8.728
 2291SOL    HW1 7331   0.355   2.350   8.800
 2291SOL    HW2 7332   0.357   2.383   8.640
 2292SOL     OW 7333   0.812   3.448   8.135
 2292SOL    HW1 7334   0.844   3.458   8.041
 2292SOL    HW2 7335   0.733   3.386   8.137
 2293SOL     OW 7336   1.424   2.076   8.560
 2293SOL    HW1 7337   1.476   2.011   8.615
 2293SOL    HW2 7338   1.375   2.139   8.621
 2294SOL     OW 7339   1.001   1.896   8.602
 2294SOL    HW1 7340   0.938   1.824   8.571
 2294SOL    HW2 7341   1.094   1.860   8.602
 2295SOL     OW 7342   0.770   3.192   7.749
 2295SOL    HW1 7343   0.724   3.105   7.766
 2295SOL    HW2 7344   0.861   3.189   7.790
 2296SOL     OW 7345   0.618   3.429   8.732
 2296SOL    HW1 7346   0.613   3.511   8.789
 2296SOL    HW2 7347   0.707   3.426   8.687
 2297SOL     OW 7348   1.352   1.914   7.616
 2297SOL    HW1 7349   1.387   1.873   7.532
 2297SOL    HW2 7350   1.262   1.876   7.636
 2298SOL     OW 7351   1.300   2.315   8.139
 2298SOL    HW1 7352   1.241   2.395   8.143
 2298SOL    HW2 7353   1.315   2.280   8.232
 2299SOL     OW 7354   1.593   2.083   8.330
 2299SOL    HW1 7355   1.509   2.082   8.384
 2299SOL    HW2 7356   1.595   2.166   8.274
 2300SOL     OW 7357   0.039   2.939   7.748
 2300SOL    HW1 7358   0.138   2.928   7.739
 2300SOL    HW2 7359  -0.001   2.853   7.780
 2301SOL     OW 7360   0.875   3.508   7.785
 2301SOL    HW1 7361   0.798   3.473   7.731
 2301SOL    HW2 7362   0.843   3.579   7.847
 2302SOL     OW 7363   0.230   2.490   9.423
 2302SOL    HW1 7364   0.137   2.488   9.460
 2302SOL    HW2 7365   0.231   2.451   9.331
 2303SOL     OW 7366   0.225   2.137  10.306
 2303SOL    HW1 7367   0.260   2.120  10.398
 2303SOL    HW2 7368   0.137   2.092  10.294
 2304SOL     OW 7369   0.019   2.230   9.957
 2304SOL    HW1 7370  -0.063   2.273   9.996
 2304SOL    HW2 7371  -0.009   2.157   9.894
 2305SOL     OW 7372   0.569   3.137  10.475
 2305SOL    HW1 7373   0.476   3.130  10.438
 2305SOL    HW2 7374   0.580   3.226  10.519
 2306SOL     OW 7375   1.555   3.373  10.013
 2306SOL    HW1 7376   1.498   3.357  10.094
 2306SOL    HW2 7377   1.496   3.383   9.933
 2307SOL     OW 7378   1.135   2.565  10.027
 2307SOL    HW1 7379   1.192   2.643  10.002
 2307SOL    HW2 7380   1.075   2.591  10.103
 2308SOL     OW 7381   1.755   2.469   9.541
 2308SOL    HW1 7382   1.743   2.456   9.442
 2308SOL    HW2 7383   1.725   2.388   9.590
 2309SOL     OW 7384   0.768   3.006  10.333
 2309SOL    HW1 7385   0.690   3.023  10.393
 2309SOL    HW2 7386   0.802   3.093  10.297
 2310SOL     OW 7387   0.850   2.660  11.133
 2310SOL    HW1 7388   0.846   2.736  11.198
 2310SOL    HW2 7389   0.872   2.696  11.042
 2311SOL     OW 7390   0.685   2.874   9.975
 2311SOL    HW1 7391   0.754   2.858  10.045
 2311SOL    HW2 7392   0.612   2.931  10.013
 2312SOL     OW 7393   0.335   3.297  10.371
 2312SOL    HW1 7394   0.257   3.266  10.318
 2312SOL    HW2 7395   0.393   3.355  10.314
 2313SOL     OW 7396   1.460   3.367  10.649
 2313SOL    HW1 7397   1.484   3.461  10.675
 2313SOL    HW2 7398   1.444   3.313  10.731
 2314SOL     OW 7399   0.438   2.254  10.809
 2314SOL    HW1 7400   0.520   2.198  10.818
 2314SOL    HW2 7401   0.357   2.196  10.813
 2315SOL     OW 7402   1.603   2.309  10.047
 2315SOL    HW1 7403   1.529   2.355   9.997
 2315SOL    HW2 7404   1.654   2.377  10.100
 2316SOL     OW 7405   0.231   3.575   9.793
 2316SOL    HW1 7406   0.265   3.652   9.847
 2316SOL    HW2 7407   0.275   3.575   9.703
 2317SOL     OW 7408   0.230   3.296   9.848
 2317SOL    HW1 7409   0.204   3.392   9.848
 2317SOL    HW2 7410   0.159   3.242   9.893
 2318SOL     OW 7411   0.240   2.953  10.196
 2318SOL    HW1 7412   0.254   2.869  10.248
 2318SOL    HW2 7413   0.185   3.017  10.251
 2319SOL     OW 7414   0.620   3.648  10.749
 2319SOL    HW1 7415   0.528   3.631  10.784
 2319SOL    HW2 7416   0.648   3.740  10.775
 2320SOL     OW 7417   0.606   2.826   9.433
 2320SOL    HW1 7418   0.613   2.910   9.379
 2320SOL    HW2 7419   0.652   2.839   9.521
 2321SOL     OW 7420   1.594   1.976  10.790
 2321SOL    HW1 7421   1.576   2.043  10.718
 2321SOL    HW2 7422   1.591   2.022  10.879
 2322SOL     OW 7423   0.122   2.505   9.873
 2322SOL    HW1 7424   0.077   2.417   9.890
 2322SOL    HW2 7425   0.121   2.559   9.957
 2323SOL     OW 7426   1.842   3.629   9.669
 2323SOL    HW1 7427   1.896   3.600   9.749
 2323SOL    HW2 7428   1.872   3.719   9.640
 2324SOL     OW 7429   0.027   3.458   9.427
 2324SOL    HW1 7430   0.008   3.362   9.448
 2324SOL    HW2 7431  -0.006   3.516   9.502
 2325SOL     OW 7432   1.689   2.784   9.922
 2325SOL    HW1 7433   1.784   2.755   9.930
 2325SOL    HW2 7434   1.681   2.849   9.847
 2326SOL     OW 7435   1.641   2.970   9.742
 2326SOL    HW1 7436   1.727   2.972   9.690
 2326SOL    HW2 7437   1.655   3.017   9.830
 2327SOL     OW 7438   0.113   2.599  10.907
 2327SOL    HW1 7439   0.201   2.586  10.952
 2327SOL    HW2 7440   0.100   2.696  10.885
 2328SOL     OW 7441   0.613   3.227  10.036
 2328SOL    HW1 7442   0.564   3.140  10.045
 2328SOL    HW2 7443   0.590   3.270   9.949
 2329SOL     OW 7444   1.293   3.090  10.733
 2329SOL    HW1 7445   1.330   3.017  10.675
 2329SOL    HW2 7446   1.345   3.095  10.818
 2330SOL     OW 7447   0.809   1.866   9.812
 2330SOL    HW1 7448   0.849   1.957   9.803
 2330SOL    HW2 7449   0.709   1.874   9.818
 2331SOL     OW 7450   0.197   2.838  10.574
 2331SOL    HW1 7451   0.286   2.793  10.560
 2331SOL    HW2 7452   0.124   2.773  10.555
 2332SOL     OW 7453   1.525   2.861   9.500
 2332SOL    HW1 7454   1.462   2.785   9.513
 2332SOL    HW2 7455   1.573   2.879   9.586
 2333SOL     OW 7456   1.187   3.654  10.926
 2333SOL    HW1 7457   1.211   3.714  10.850
 2333SOL    HW2 7458   1.194   3.559  10.896
 2334SOL     OW 7459   0.317   2.113  11.111
 2334SOL    HW1 7460   0.388   2.184  11.117
 2334SOL    HW2 7461   0.229   2.152  11.139
 2335SOL     OW 7462   1.466   3.279  10.263
 2335SOL    HW1 7463   1.407   3.285  10.343
 2335SOL    HW2 7464   1.451   3.191  10.217
 2336SOL     OW 7465   1.667   3.576   9.882
 2336SOL    HW1 7466   1.626   3.553   9.794
 2336SOL    HW2 7467   1.649   3.502   9.947
 2337SOL     OW 7468   0.598   2.591   9.580
 2337SOL    HW1 7469   0.622   2.660   9.512
 2337SOL    HW2 7470   0.520   2.624   9.634
 2338SOL     OW 7471   1.281   2.207  10.254
 2338SOL    HW1 7472   1.195   2.157  10.241
 2338SOL    HW2 7473   1.343   2.153  10.310
 2339SOL     OW 7474   1.576   3.524   9.617
 2339SOL    HW1 7475   1.665   3.570   9.620
 2339SOL    HW2 7476   1.555   3.500   9.522
 2340SOL     OW 7477   0.807   2.467  10.775
 2340SOL    HW1 7478   0.760   2.464  10.864
 2340SOL    HW2 7479   0.756   2.412  10.709
 2341SOL     OW 7480   0.973   2.752  10.882
 2341SOL    HW1 7481   1.019   2.668  10.853
 2341SOL    HW2 7482   0.917   2.786  10.807
 2342SOL     OW 7483   0.991   2.272  10.552
 2342SOL    HW1 7484   0.914   2.306  10.606
 2342SOL    HW2 7485   0.957   2.221  10.473
 2343SOL     OW 7486   1.041   2.563   9.739
 2343SOL    HW1 7487   1.067   2.559   9.835
 2343SOL    HW2 7488   0.956   2.512   9.725
 2344SOL     OW 7489   0.076   2.673  10.099
 2344SOL    HW1 7490   0.175   2.661  10.108
 2344SOL    HW2 7491   0.052   2.768  10.120
 2345SOL     OW 7492   0.130   3.683  10.881
 2345SOL    HW1 7493   0.120   3.668  10.980
 2345SOL    HW2 7494   0.044   3.719  10.845
 2346SOL     OW 7495   0.865   2.210   9.505
 2346SOL    HW1 7496   0.924   2.273   9.456
 2346SOL    HW2 7497   0.884   2.116   9.476
 2347SOL     OW 7498   1.362   3.006   9.855
 2347SOL    HW1 7499   1.445   2.977   9.807
 2347SOL    HW2 7500   1.313   3.073   9.799
 2348SOL     OW 7501   0.550   2.058  10.195
 2348SOL    HW1 7502   0.545   2.053  10.295
 2348SOL    HW2 7503   0.552   2.154  10.166
 2349SOL     OW 7504   1.008   3.318   9.787
 2349SOL    HW1 7505   0.962   3.390   9.735
 2349SOL    HW2 7506   1.004   3.338   9.885
 2350SOL     OW 7507   0.351   3.663  10.163
 2350SOL    HW1 7508   0.401   3.577  10.169
 2350SOL    HW2 7509   0.416   3.740  10.160
 2351SOL     OW 7510   1.795   2.928  10.183
 2351SOL    HW1 7511   1.733   2.913  10.107
 2351SOL    HW2 7512   1.743   2.939  10.268
 2352SOL     OW 7513   1.227   3.412  10.816
 2352SOL    HW1 7514   1.233   3.335  10.880
 2352SOL    HW2 7515   1.175   3.386  10.736
 2353SOL     OW 7516   0.321   2.805   9.552
 2353SOL    HW1 7517   0.403   2.844   9.510
 2353SOL    HW2 7518   0.294   2.723   9.503
 2354SOL     OW 7519   1.458   2.597  10.038
 2354SOL    HW1 7520   1.453   2.532  10.113
 2354SOL    HW2 7521   1.538   2.656  10.051
 2355SOL     OW 7522   0.461   3.128  11.037
 2355SOL    HW1 7523   0.411   3.129  10.951
 2355SOL    HW2 7524   0.398   3.110  11.113
 2356SOL     OW 7525   1.111   3.638   9.547
 2356SOL    HW1 7526   1.051   3.576   9.597
 2356SOL    HW2 7527   1.142   3.594   9.462
 2357SOL     OW 7528   0.202   2.147  10.808
 2357SOL    HW1 7529   0.122   2.207  10.795
 2357SOL    HW2 7530   0.192   2.098  10.894
 2358SOL     OW 7531   1.632   3.239   9.391
 2358SOL    HW1 7532   1.600   3.333   9.381
 2358SOL    HW2 7533   1.556   3.176   9.379
 2359SOL     OW 7534   0.464   3.605   9.633
 2359SOL    HW1 7535   0.497   3.644   9.719
 2359SOL    HW2 7536   0.540   3.598   9.568
 2360SOL     OW 7537   1.400   1.969   9.736
 2360SOL    HW1 7538   1.376   1.932   9.646
 2360SOL    HW2 7539   1.499   1.985   9.740
 2361SOL     OW 7540   0.249   3.647  10.551
 2361SOL    HW1 7541   0.306   3.582  10.601
 2361SOL    HW2 7542   0.233   3.614  10.458
 2362SOL     OW 7543   0.940   3.560  10.214
 2362SOL    HW1 7544   1.020   3.503  10.235
 2362SOL    HW2 7545   0.891   3.520  10.137
 2363SOL     OW 7546   0.382   2.562   9.790
 2363SOL    HW1 7547   0.427   2.472   9.787
 2363SOL    HW2 7548   0.288   2.551   9.823
 2364SOL     OW 7549   0.614   1.984   9.427
 2364SOL    HW1 7550   0.712   1.962   9.434
 2364SOL    HW2 7551   0.583   1.967   9.334
 2365SOL     OW 7552   0.781   2.126  11.059
 2365SOL    HW1 7553   0.848   2.065  11.102
 2365SOL    HW2 7554   0.708   2.145  11.124
 2366SOL     OW 7555   0.888   3.376  10.505
 2366SOL    HW1 7556   0.865   3.351  10.411
 2366SOL    HW2 7557   0.949   3.307  10.544
 2367SOL     OW 7558   1.351   2.452  10.743
 2367SOL    HW1 7559   1.379   2.409  10.828
 2367SOL    HW2 7560   1.376   2.548  10.744
 2368SOL     OW 7561   0.803   3.264  10.234
 2368SOL    HW1 7562   0.893   3.278  10.192
 2368SOL    HW2 7563   0.732   3.266  10.163
 2369SOL     OW 7564   0.922   2.365  10.209
 2369SOL    HW1 7565   0.897   2.356  10.113
 2369SOL    HW2 7566   0.970   2.283  10.240
 2370SOL     OW 7567   0.539   1.926   9.822
 2370SOL    HW1 7568   0.458   1.927   9.880
 2370SOL    HW2 7569   0.542   2.009   9.767
 2371SOL     OW 7570   1.434   3.050   9.351
 2371SOL    HW1 7571   1.466   2.974   9.408
 2371SOL    HW2 7572   1.342   3.077   9.381
 2372SOL     OW 7573   0.297   1.897   9.481
 2372SOL    HW1 7574   0.346   1.981   9.460
 2372SOL    HW2 7575   0.359   1.832   9.526
 2373SOL     OW 7576   0.935   2.098   9.790
 2373SOL    HW1 7577   0.887   2.139   9.712
 2373SOL    HW2 7578   1.034   2.096   9.771
 2374SOL     OW 7579   1.076   2.545  10.774
 2374SOL    HW1 7580   0.996   2.484  10.777
 2374SOL    HW2 7581   1.157   2.492  10.750
 2375SOL     OW 7582   1.227   3.432  10.103
 2375SOL    HW1 7583   1.248   3.506  10.038
 2375SOL    HW2 7584   1.295   3.432  10.176
 2376SOL     OW 7585   0.459   3.014  10.051
 2376SOL    HW1 7586   0.388   2.987  10.116
 2376SOL    HW2 7587   0.433   2.986   9.958
 2377SOL     OW 7588   1.271   3.659   9.901
 2377SOL    HW1 7589   1.315   3.723   9.837
 2377SOL    HW2 7590   1.221   3.711   9.971
 2378SOL     OW 7591   1.032   2.411   9.326
 2378SOL    HW1 7592   0.991   2.493   9.287
 2378SOL    HW2 7593   1.096   2.437   9.399
 2379SOL     OW 7594   0.078   2.418  10.696
 2379SOL    HW1 7595   0.170   2.417  10.655
 2379SOL    HW2 7596   0.072   2.492  10.763
 2380SOL     OW 7597   0.561   2.084  10.457
 2380SOL    HW1 7598   0.599   2.000  10.494
 2380SOL    HW2 7599   0.473   2.103  10.501
 2381SOL     OW 7600   0.866   2.316   9.952
 2381SOL    HW1 7601   0.834   2.388   9.890
 2381SOL    HW2 7602   0.890   2.235   9.899
 2382SOL     OW 7603   1.017   1.901  10.063
 2382SOL    HW1 7604   0.945   1.906   9.994
 2382SOL    HW2 7605   0.993   1.832  10.132
 2383SOL     OW 7606   1.429   3.035  10.177
 2383SOL    HW1 7607   1.374   2.951  10.170
 2383SOL    HW2 7608   1.455   3.064  10.085
 2384SOL     OW 7609   1.466   2.452  10.302
 2384SOL    HW1 7610   1.436   2.357  10.309
 2384SOL    HW2 7611   1.539   2.468  10.368
 2385SOL     OW 7612   1.857   2.695   9.687
 2385SOL    HW1 7613   1.899   2.631   9.751
 2385SOL    HW2 7614   1.819   2.644   9.609
 2386SOL     OW 7615   0.488   3.247   9.484
 2386SOL    HW1 7616   0.401   3.232   9.531
 2386SOL    HW2 7617   0.471   3.273   9.389
 2387SOL     OW 7618   1.664   3.142   9.967
 2387SOL    HW1 7619   1.763   3.150   9.981
 2387SOL    HW2 7620   1.619   3.226   9.998
 2388SOL     OW 7621   1.390   2.437   9.388
 2388SOL    HW1 7622   1.336   2.416   9.469
 2388SOL    HW2 7623   1.481   2.396   9.397
 2389SOL     OW 7624   0.527   2.118   9.638
 2389SOL    HW1 7625   0.554   2.059   9.563
 2389SOL    HW2 7626   0.527   2.213   9.607
 2390SOL     OW 7627   1.754   3.085  10.898
 2390SOL    HW1 7628   1.845   3.046  10.885
 2390SOL    HW2 7629   1.762   3.181  10.922
 2391SOL     OW 7630   1.064   3.209  10.650
 2391SOL    HW1 7631   0.984   3.186  10.705
 2391SOL    HW2 7632   1.147   3.183  10.699
 2392SOL     OW 7633   1.111   3.057  10.410
 2392SOL    HW1 7634   1.071   3.101  10.491
 2392SOL    HW2 7635   1.070   3.094  10.327
 2393SOL     OW 7636   1.638   2.961  10.389
 2393SOL    HW1 7637   1.643   3.042  10.448
 2393SOL    HW2 7638   1.552   2.963  10.338
 2394SOL     OW 7639   0.915   1.951  10.712
 2394SOL    HW1 7640   0.940   1.931  10.617
 2394SOL    HW2 7641   0.987   2.007  10.754
 2395SOL     OW 7642   0.705   2.912   9.678
 2395SOL    HW1 7643   0.691   2.919   9.777
 2395SOL    HW2 7644   0.789   2.861   9.660
 2396SOL     OW 7645   0.410   2.675  10.561
 2396SOL    HW1 7646   0.496   2.687  10.611
 2396SOL    HW2 7647   0.368   2.588  10.588
 2397SOL     OW 7648   1.274   2.248  10.572
 2397SOL    HW1 7649   1.295   2.322  10.636
 2397SOL    HW2 7650   1.185   2.265  10.529
 2398SOL     OW 7651   0.064   3.426  10.641
 2398SOL    HW1 7652   0.018   3.508  10.607
 2398SOL    HW2 7653   0.162   3.445  10.650
 2399SOL     OW 7654   0.367   2.962   9.811
 2399SOL    HW1 7655   0.360   3.045   9.755
 2399SOL    HW2 7656   0.371   2.882   9.751
 2400SOL     OW 7657   0.566   2.399  10.175
 2400SOL    HW1 7658   0.578   2.465  10.101
 2400SOL    HW2 7659   0.612   2.433  10.258
 2401SOL     OW 7660   1.252   3.210   9.698
 2401SOL    HW1 7661   1.302   3.287   9.738
 2401SOL    HW2 7662   1.157   3.212   9.730
 2402SOL     OW 7663   1.272   3.307  10.452
 2402SOL    HW1 7664   1.319   3.320  10.539
 2402SOL    HW2 7665   1.206   3.233  10.461
 2403SOL     OW 7666   1.582   2.501   9.782
 2403SOL    HW1 7667   1.551   2.562   9.855
 2403SOL    HW2 7668   1.632   2.553   9.713
 2404SOL     OW 7669   0.354   3.372  10.639
 2404SOL    HW1 7670   0.333   3.328  10.552
 2404SOL    HW2 7671   0.451   3.398  10.642
 2405SOL     OW 7672   0.402   2.613  10.908
 2405SOL    HW1 7673   0.470   2.668  10.861
 2405SOL    HW2 7674   0.442   2.525  10.935
 2406SOL     OW 7675   1.587   2.641  10.980
 2406SOL    HW1 7676   1.495   2.679  10.975
 2406SOL    HW2 7677   1.647   2.688  10.915
 2407SOL     OW 7678   0.573   2.732  10.339
 2407SOL    HW1 7679   0.617   2.821  10.330
 2407SOL    HW2 7680   0.510   2.732  10.416
 2408SOL     OW 7681   1.360   2.724  10.355
 2408SOL    HW1 7682   1.285   2.724  10.289
 2408SOL    HW2 7683   1.397   2.632  10.364
 2409SOL     OW 7684   1.209   2.387   9.585
 2409SOL    HW1 7685   1.222   2.303   9.639
 2409SOL    HW2 7686   1.180   2.461   9.645
 2410SOL     OW 7687   0.307   2.075  10.541
 2410SOL    HW1 7688   0.284   2.112  10.631
 2410SOL    HW2 7689   0.277   1.980  10.535
 2411SOL     OW 7690   0.037   3.172  10.592
 2411SOL    HW1 7691   0.090   3.123  10.660
 2411SOL    HW2 7692   0.059   3.270  10.597
 2412SOL     OW 7693   0.732   2.496  10.374
 2412SOL    HW1 7694   0.791   2.470  10.298
 2412SOL    HW2 7695   0.704   2.592  10.363
 2413SOL     OW 7696   0.307   1.925   9.928
 2413SOL    HW1 7697   0.296   2.019   9.961
 2413SOL    HW2 7698   0.302   1.862  10.005
 2414SOL     OW 7699   1.622   2.229   9.684
 2414SOL    HW1 7700   1.624   2.153   9.748
 2414SOL    HW2 7701   1.574   2.306   9.724
 2415SOL     OW 7702   1.023   2.628  10.276
 2415SOL    HW1 7703   1.038   2.649  10.372
 2415SOL    HW2 7704   0.993   2.533  10.267
 2416SOL     OW 7705   0.980   3.435  11.010
 2416SOL    HW1 7706   0.960   3.479  10.922
 2416SOL    HW2 7707   1.019   3.344  10.994
 2417SOL     OW 7708   1.859   3.380  10.915
 2417SOL    HW1 7709   1.873   3.407  10.820
 2417SOL    HW2 7710   1.942   3.402  10.968
 2418SOL     OW 7711   0.350   2.760  11.114
 2418SOL    HW1 7712   0.426   2.804  11.162
 2418SOL    HW2 7713   0.385   2.713  11.032
 2419SOL     OW 7714   1.540   2.136   9.435
 2419SOL    HW1 7715   1.479   2.061   9.458
 2419SOL    HW2 7716   1.562   2.188   9.518
 2420SOL     OW 7717   1.303   2.700   9.352
 2420SOL    HW1 7718   1.337   2.607   9.367
 2420SOL    HW2 7719   1.321   2.727   9.257
 2421SOL     OW 7720   1.068   3.195  10.159
 2421SOL    HW1 7721   1.075   3.111  10.104
 2421SOL    HW2 7722   1.130   3.264  10.123
 2422SOL     OW 7723   0.319   2.672  10.259
 2422SOL    HW1 7724   0.412   2.708  10.264
 2422SOL    HW2 7725   0.313   2.587  10.311
 2423SOL     OW 7726   0.339   2.371  10.316
 2423SOL    HW1 7727   0.287   2.288  10.299
 2423SOL    HW2 7728   0.416   2.376  10.252
 2424SOL     OW 7729   1.160   2.069  10.787
 2424SOL    HW1 7730   1.160   2.133  10.864
 2424SOL    HW2 7731   1.188   2.117  10.704
 2425SOL     OW 7732   0.008   3.188   9.510
 2425SOL    HW1 7733  -0.085   3.209   9.479
 2425SOL    HW2 7734   0.018   3.089   9.523
 2426SOL     OW 7735   0.088   3.663  10.237
 2426SOL    HW1 7736   0.046   3.577  10.210
 2426SOL    HW2 7737   0.182   3.666  10.203
 2427SOL     OW 7738   0.504   3.430  10.220
 2427SOL    HW1 7739   0.570   3.504  10.229
 2427SOL    HW2 7740   0.548   3.351  10.178
 2428SOL     OW 7741   1.002   2.658  10.548
 2428SOL    HW1 7742   1.043   2.626  10.634
 2428SOL    HW2 7743   0.906   2.631  10.545
 2429SOL     OW 7744   0.040   2.406  10.424
 2429SOL    HW1 7745   0.125   2.373  10.383
 2429SOL    HW2 7746   0.053   2.421  10.522
 2430SOL     OW 7747   0.815   2.434   9.635
 2430SOL    HW1 7748   0.822   2.345   9.589
 2430SOL    HW2 7749   0.721   2.468   9.627
 2431SOL     OW 7750   1.657   2.466  10.516
 2431SOL    HW1 7751   1.619   2.397  10.578
 2431SOL    HW2 7752   1.739   2.430  10.472
 2432SOL     OW 7753   0.252   3.426  11.054
 2432SOL    HW1 7754   0.222   3.483  11.130
 2432SOL    HW2 7755   0.245   3.329  11.080
 2433SOL     OW 7756   0.671   2.326  10.579
 2433SOL    HW1 7757   0.637   2.237  10.549
 2433SOL    HW2 7758   0.697   2.380  10.499
 2434SOL     OW 7759   0.930   3.540  10.775
 2434SOL    HW1 7760   0.906   3.522  10.680
 2434SOL    HW2 7761   0.960   3.634  10.785
 2435SOL     OW 7762   0.473   2.362   9.501
 2435SOL    HW1 7763   0.534   2.442   9.505
 2435SOL    HW2 7764   0.378   2.393   9.508
 2436SOL     OW 7765   0.159   2.999  10.776
 2436SOL    HW1 7766   0.181   2.938  10.852
 2436SOL    HW2 7767   0.169   2.950  10.690
 2437SOL     OW 7768   1.347   2.921  10.544
 2437SOL    HW1 7769   1.371   2.858  10.470
 2437SOL    HW2 7770   1.257   2.961  10.526
 2438SOL     OW 7771   1.302   2.717   9.619
 2438SOL    HW1 7772   1.216   2.686   9.661
 2438SOL    HW2 7773   1.298   2.703   9.520
 2439SOL     OW 7774   1.759   3.609  10.464
 2439SOL    HW1 7775   1.820   3.639  10.391
 2439SOL    HW2 7776   1.721   3.520  10.442
 2440SOL     OW 7777   1.252   3.593  10.438
 2440SOL    HW1 7778   1.336   3.598  10.384
 2440SOL    HW2 7779   1.229   3.497  10.456
 2441SOL     OW 7780   0.083   3.120  10.332
 2441SOL    HW1 7781   0.078   3.119  10.432
 2441SOL    HW2 7782   0.000   3.079  10.294
 2442SOL     OW 7783   1.726   1.997   9.833
 2442SOL    HW1 7784   1.799   1.980   9.766
 2442SOL    HW2 7785   1.695   1.910   9.871
 2443SOL     OW 7786   1.388   3.435   9.787
 2443SOL    HW1 7787   1.455   3.447   9.713
 2443SOL    HW2 7788   1.348   3.524   9.810
 2444SOL     OW 7789   1.280   2.789   9.982
 2444SOL    HW1 7790   1.340   2.708   9.984
 2444SOL    HW2 7791   1.320   2.858   9.922
 2445SOL     OW 7792   0.830   3.135  10.732
 2445SOL    HW1 7793   0.825   3.168  10.827
 2445SOL    HW2 7794   0.744   3.154  10.686
 2446SOL     OW 7795   0.672   3.478   9.464
 2446SOL    HW1 7796   0.681   3.488   9.365
 2446SOL    HW2 7797   0.632   3.389   9.485
 2447SOL     OW 7798   1.650   3.582  10.704
 2447SOL    HW1 7799   1.703   3.592  10.620
 2447SOL    HW2 7800   1.623   3.672  10.738
 2448SOL     OW 7801   1.841   2.037  10.273
 2448SOL    HW1 7802   1.880   1.952  10.237
 2448SOL    HW2 7803   1.743   2.039  10.254
 2449SOL     OW 7804   0.263   2.188  10.030
 2449SOL    HW1 7805   0.184   2.239   9.996
 2449SOL    HW2 7806   0.254   2.173  10.128
 2450SOL     OW 7807   1.194   3.474   9.341
 2450SOL    HW1 7808   1.200   3.381   9.378
 2450SOL    HW2 7809   1.135   3.474   9.261
 2451SOL     OW 7810   0.822   2.864  10.682
 2451SOL    HW1 7811   0.862   2.863  10.590
 2451SOL    HW2 7812   0.832   2.956  10.722
 2452SOL     OW 7813   0.916   2.772   9.601
 2452SOL    HW1 7814   0.979   2.810   9.533
 2452SOL    HW2 7815   0.956   2.689   9.640
 2453SOL     OW 7816   1.504   3.469   9.354
 2453SOL    HW1 7817   1.412   3.506   9.361
 2453SOL    HW2 7818   1.542   3.489   9.264
 2454SOL     OW 7819   0.372   3.150  10.800
 2454SOL    HW1 7820   0.359   3.243  10.766
 2454SOL    HW2 7821   0.288   3.098  10.787
 2455SOL     OW 7822   1.614   3.154  10.599
 2455SOL    HW1 7823   1.674   3.157  10.679
 2455SOL    HW2 7824   1.539   3.218  10.612
 2456SOL     OW 7825   1.039   2.960  10.006
 2456SOL    HW1 7826   0.969   2.913  10.060
 2456SOL    HW2 7827   1.098   2.892   9.963
 2457SOL     OW 7828   1.014   2.098  10.281
 2457SOL    HW1 7829   1.006   2.062  10.188
 2457SOL    HW2 7830   1.012   2.022  10.346
 2458SOL     OW 7831   0.590   3.349   9.801
 2458SOL    HW1 7832   0.632   3.291   9.731
 2458SOL    HW2 7833   0.546   3.428   9.757
 2459SOL     OW 7834   1.709   2.247  10.691
 2459SOL    HW1 7835   1.782   2.316  10.695
 2459SOL    HW2 7836   1.737   2.172  10.632
 2460SOL     OW 7837   0.255   3.210   9.600
 2460SOL    HW1 7838   0.159   3.211   9.573
 2460SOL    HW2 7839   0.267   3.263   9.684
 2461SOL     OW 7840   0.105   2.875  11.036
 2461SOL    HW1 7841   0.028   2.842  11.090
 2461SOL    HW2 7842   0.190   2.845  11.078
 2462SOL     OW 7843   0.672   2.065  10.799
 2462SOL    HW1 7844   0.762   2.049  10.759
 2462SOL    HW2 7845   0.680   2.070  10.898
 2463SOL     OW 7846   0.075   2.207   9.343
 2463SOL    HW1 7847  -0.017   2.179   9.314
 2463SOL    HW2 7848   0.106   2.284   9.287
 2464SOL     OW 7849   1.440   2.718  10.708
 2464SOL    HW1 7850   1.383   2.770  10.645
 2464SOL    HW2 7851   1.536   2.730  10.684
 2465SOL     OW 7852   0.072   2.028   9.628
 2465SOL    HW1 7853   0.055   2.111   9.574
 2465SOL    HW2 7854   0.162   1.991   9.606
 2466SOL     OW 7855   1.183   3.197   9.429
 2466SOL    HW1 7856   1.084   3.186   9.431
 2466SOL    HW2 7857   1.217   3.212   9.522
 2467SOL     OW 7858   0.613   2.704  10.741
 2467SOL    HW1 7859   0.669   2.785  10.724
 2467SOL    HW2 7860   0.672   2.624  10.744
 2468SOL     OW 7861   1.493   3.629  10.269
 2468SOL    HW1 7862   1.526   3.693  10.200
 2468SOL    HW2 7863   1.559   3.623  10.344
 2469SOL     OW 7864   0.716   2.427  11.018
 2469SOL    HW1 7865   0.735   2.492  11.092
 2469SOL    HW2 7866   0.776   2.347  11.027
 2470SOL     OW 7867   0.390   3.603  10.870
 2470SOL    HW1 7868   0.299   3.644  10.868
 2470SOL    HW2 7869   0.383   3.509  10.902
 2471SOL     OW 7870   1.674   2.745  10.564
 2471SOL    HW1 7871   1.647   2.656  10.527
 2471SOL    HW2 7872   1.675   2.813  10.491
 2472SOL     OW 7873   1.225   2.187   9.759
 2472SOL    HW1 7874   1.290   2.113   9.748
 2472SOL    HW2 7875   1.245   2.237   9.843
 2473SOL     OW 7876   0.594   2.607   9.962
 2473SOL    HW1 7877   0.644   2.692   9.943
 2473SOL    HW2 7878   0.506   2.609   9.914
 2474SOL     OW 7879   1.777   2.204  10.952
 2474SOL    HW1 7880   1.760   2.235  10.858
 2474SOL    HW2 7881   1.693   2.167  10.990
 2475SOL     OW 7882   1.730   2.796  10.827
 2475SOL    HW1 7883   1.768   2.887  10.842
 2475SOL    HW2 7884   1.722   2.779  10.728
 2476SOL     OW 7885   0.859   3.236   9.326
 2476SOL    HW1 7886   0.813   3.251   9.414
 2476SOL    HW2 7887   0.903   3.321   9.296
 2477SOL     OW 7888   0.661   3.652  10.263
 2477SOL    HW1 7889   0.615   3.740  10.250
 2477SOL    HW2 7890   0.760   3.664  10.256
 2478SOL     OW 7891   0.859   2.818  10.171
 2478SOL    HW1 7892   0.913   2.749  10.219
 2478SOL    HW2 7893   0.827   2.887  10.237
 2479SOL     OW 7894   1.083   2.846   9.397
 2479SOL    HW1 7895   1.060   2.899   9.315
 2479SOL    HW2 7896   1.164   2.790   9.378
 2480SOL     OW 7897   1.861   3.431  10.161
 2480SOL    HW1 7898   1.790   3.419  10.091
 2480SOL    HW2 7899   1.862   3.352  10.221
 2481SOL     OW 7900   0.079   3.102   9.963
 2481SOL    HW1 7901   0.078   3.055  10.051
 2481SOL    HW2 7902   0.161   3.074   9.912
 2482SOL     OW 7903   0.672   3.253  10.934
 2482SOL    HW1 7904   0.594   3.203  10.972
 2482SOL    HW2 7905   0.669   3.348  10.965
 2483SOL     OW 7906   1.824   2.054  10.537
 2483SOL    HW1 7907   1.820   1.964  10.581
 2483SOL    HW2 7908   1.827   2.043  10.438
 2484SOL     OW 7909   0.428   2.286   9.830
 2484SOL    HW1 7910   0.458   2.214   9.768
 2484SOL    HW2 7911   0.389   2.246   9.913
 2485SOL     OW 7912   1.705   3.349  10.414
 2485SOL    HW1 7913   1.612   3.324  10.387
 2485SOL    HW2 7914   1.731   3.299  10.496
 2486SOL     OW 7915   0.317   2.409  10.590
 2486SOL    HW1 7916   0.355   2.350  10.662
 2486SOL    HW2 7917   0.357   2.383  10.502
 2487SOL     OW 7918   0.812   3.448   9.997
 2487SOL    HW1 7919   0.844   3.458   9.903
 2487SOL    HW2 7920   0.733   3.386   9.999
 2488SOL     OW 7921   1.424   2.076  10.422
 2488SOL    HW1 7922   1.476   2.011  10.477
 2488SOL    HW2 7923   1.375   2.139  10.483
 2489SOL     OW 7924   1.001   1.896  10.464
 2489SOL    HW1 7925   0.938   1.824  10.433
 2489SOL    HW2 7926   1.094   1.860  10.464
 2490SOL     OW 7927   0.770   3.192   9.611
 2490SOL    HW1 7928   0.724   3.105   9.628
 2490SOL    HW2 7929   0.861   3.189   9.652
 2491SOL     OW 7930   0.618   3.429  10.594
 2491SOL    HW1 7931   0.613   3.511  10.651
 2491SOL    HW2 7932   0.707   3.426  10.549
 2492SOL     OW 7933   1.352   1.914   9.478
 2492SOL    HW1 7934   1.387   1.873   9.394
 2492SOL    HW2 7935   1.262   1.876   9.498
 2493SOL     OW 7936   1.300   2.315  10.001
 2493SOL    HW1 7937   1.241   2.395  10.005
 2493SOL    HW2 7938   1.315   2.280  10.094
 2494SOL     OW 7939   1.593   2.083  10.192
 2494SOL    HW1 7940   1.509   2.082  10.246
 2494SOL    HW2 7941   1.595   2.166  10.136
 2495SOL     OW 7942   0.039   2.939   9.610
 2495SOL    HW1 7943   0.138   2.928   9.601
 2495SOL    HW2 7944  -0.001   2.853   9.642
 2496SOL     OW 7945   0.875   3.508   9.647
 2496SOL    HW1 7946   0.798   3.473   9.593
 2496SOL    HW2 7947   0.843   3.579   9.709
 2497SOL     OW 7948   0.230   4.352   0.113
 2497SOL    HW1 7949   0.137   4.350   0.150
 2497SOL    HW2 7950   0.231   4.313   0.021
 2498SOL     OW 7951   0.225   3.999   0.996
 2498SOL    HW1 7952   0.260   3.982   1.088
 2498SOL    HW2 7953   0.137   3.954   0.984
 2499SOL     OW 7954   0.019   4.092   0.647
 2499SOL    HW1 7955  -0.063   4.135   0.686
 2499SOL    HW2 7956  -0.009   4.019   0.584
 2500SOL     OW 7957   1.755   4.331   0.231
 2500SOL    HW1 7958   1.743   4.318   0.132
 2500SOL    HW2 7959   1.725   4.250   0.280
 2501SOL     OW 7960   0.685   4.736   0.665
 2501SOL    HW1 7961   0.754   4.720   0.735
 2501SOL    HW2 7962   0.612   4.793   0.703
 2502SOL     OW 7963   0.438   4.116   1.499
 2502SOL    HW1 7964   0.520   4.060   1.508
 2502SOL    HW2 7965   0.357   4.058   1.503
 2503SOL     OW 7966   1.603   4.171   0.737
 2503SOL    HW1 7967   1.529   4.217   0.687
 2503SOL    HW2 7968   1.654   4.239   0.790
 2504SOL     OW 7969   1.594   3.838   1.480
 2504SOL    HW1 7970   1.576   3.905   1.408
 2504SOL    HW2 7971   1.591   3.884   1.569
 2505SOL     OW 7972   0.122   4.367   0.563
 2505SOL    HW1 7973   0.077   4.279   0.580
 2505SOL    HW2 7974   0.121   4.421   0.647
 2506SOL     OW 7975   0.113   4.461   1.597
 2506SOL    HW1 7976   0.201   4.448   1.642
 2506SOL    HW2 7977   0.100   4.558   1.575
 2507SOL     OW 7978   0.809   3.728   0.502
 2507SOL    HW1 7979   0.849   3.819   0.493
 2507SOL    HW2 7980   0.709   3.736   0.508
 2508SOL     OW 7981   0.317   3.975   1.801
 2508SOL    HW1 7982   0.388   4.046   1.807
 2508SOL    HW2 7983   0.229   4.014   1.829
 2509SOL     OW 7984   1.281   4.069   0.944
 2509SOL    HW1 7985   1.195   4.019   0.931
 2509SOL    HW2 7986   1.343   4.015   1.000
 2510SOL     OW 7987   0.807   4.329   1.465
 2510SOL    HW1 7988   0.760   4.326   1.554
 2510SOL    HW2 7989   0.756   4.274   1.399
 2511SOL     OW 7990   1.394   4.193   1.674
 2511SOL    HW1 7991   1.374   4.236   1.762
 2511SOL    HW2 7992   1.472   4.131   1.683
 2512SOL     OW 7993   0.991   4.134   1.242
 2512SOL    HW1 7994   0.914   4.168   1.296
 2512SOL    HW2 7995   0.957   4.083   1.163
 2513SOL     OW 7996   1.041   4.425   0.429
 2513SOL    HW1 7997   1.067   4.421   0.525
 2513SOL    HW2 7998   0.956   4.374   0.415
 2514SOL     OW 7999   0.076   4.535   0.789
 2514SOL    HW1 8000   0.175   4.523   0.798
 2514SOL    HW2 8001   0.052   4.630   0.810
 2515SOL     OW 8002   0.865   4.072   0.195
 2515SOL    HW1 8003   0.924   4.135   0.146
 2515SOL    HW2 8004   0.884   3.978   0.166
 2516SOL     OW 8005   1.719   4.309   1.831
 2516SOL    HW1 8006   1.693   4.398   1.795
 2516SOL    HW2 8007   1.717   4.241   1.758
 2517SOL     OW 8008   0.550   3.920   0.885
 2517SOL    HW1 8009   0.545   3.915   0.985
 2517SOL    HW2 8010   0.552   4.016   0.856
 2518SOL     OW 8011   1.458   4.459   0.728
 2518SOL    HW1 8012   1.453   4.394   0.803
 2518SOL    HW2 8013   1.538   4.518   0.741
 2519SOL     OW 8014   0.202   4.009   1.498
 2519SOL    HW1 8015   0.122   4.069   1.485
 2519SOL    HW2 8016   0.192   3.960   1.584
 2520SOL     OW 8017   1.400   3.831   0.426
 2520SOL    HW1 8018   1.376   3.794   0.336
 2520SOL    HW2 8019   1.499   3.847   0.430
 2521SOL     OW 8020   0.382   4.424   0.480
 2521SOL    HW1 8021   0.427   4.334   0.477
 2521SOL    HW2 8022   0.288   4.413   0.513
 2522SOL     OW 8023   1.547   3.946   1.729
 2522SOL    HW1 8024   1.542   3.983   1.821
 2522SOL    HW2 8025   1.475   3.877   1.717
 2523SOL     OW 8026   0.614   3.846   0.117
 2523SOL    HW1 8027   0.712   3.824   0.124
 2523SOL    HW2 8028   0.583   3.829   0.024
 2524SOL     OW 8029   0.781   3.988   1.749
 2524SOL    HW1 8030   0.848   3.927   1.792
 2524SOL    HW2 8031   0.708   4.007   1.814
 2525SOL     OW 8032   1.351   4.314   1.433
 2525SOL    HW1 8033   1.379   4.271   1.518
 2525SOL    HW2 8034   1.376   4.410   1.434
 2526SOL     OW 8035   0.922   4.227   0.899
 2526SOL    HW1 8036   0.897   4.218   0.803
 2526SOL    HW2 8037   0.970   4.145   0.930
 2527SOL     OW 8038   0.539   3.788   0.512
 2527SOL    HW1 8039   0.458   3.789   0.570
 2527SOL    HW2 8040   0.542   3.871   0.457
 2528SOL     OW 8041   0.297   3.759   0.171
 2528SOL    HW1 8042   0.346   3.843   0.150
 2528SOL    HW2 8043   0.359   3.694   0.216
 2529SOL     OW 8044   0.935   3.960   0.480
 2529SOL    HW1 8045   0.887   4.001   0.402
 2529SOL    HW2 8046   1.034   3.958   0.461
 2530SOL     OW 8047   1.076   4.407   1.464
 2530SOL    HW1 8048   0.996   4.346   1.467
 2530SOL    HW2 8049   1.157   4.354   1.440
 2531SOL     OW 8050   1.032   4.273   0.016
 2531SOL    HW1 8051   0.991   4.355  -0.023
 2531SOL    HW2 8052   1.096   4.299   0.089
 2532SOL     OW 8053   0.078   4.280   1.386
 2532SOL    HW1 8054   0.170   4.279   1.345
 2532SOL    HW2 8055   0.072   4.354   1.453
 2533SOL     OW 8056   0.561   3.946   1.147
 2533SOL    HW1 8057   0.599   3.862   1.184
 2533SOL    HW2 8058   0.473   3.965   1.191
 2534SOL     OW 8059   0.866   4.178   0.642
 2534SOL    HW1 8060   0.834   4.250   0.580
 2534SOL    HW2 8061   0.890   4.097   0.589
 2535SOL     OW 8062   1.017   3.763   0.753
 2535SOL    HW1 8063   0.945   3.768   0.684
 2535SOL    HW2 8064   0.993   3.694   0.822
 2536SOL     OW 8065   1.466   4.314   0.992
 2536SOL    HW1 8066   1.436   4.219   0.999
 2536SOL    HW2 8067   1.539   4.330   1.058
 2537SOL     OW 8068   1.390   4.299   0.078
 2537SOL    HW1 8069   1.336   4.278   0.159
 2537SOL    HW2 8070   1.481   4.258   0.087
 2538SOL     OW 8071   0.527   3.980   0.328
 2538SOL    HW1 8072   0.554   3.921   0.253
 2538SOL    HW2 8073   0.527   4.075   0.297
 2539SOL     OW 8074   0.915   3.813   1.402
 2539SOL    HW1 8075   0.940   3.793   1.307
 2539SOL    HW2 8076   0.987   3.869   1.444
 2540SOL     OW 8077   0.410   4.537   1.251
 2540SOL    HW1 8078   0.496   4.549   1.301
 2540SOL    HW2 8079   0.368   4.450   1.278
 2541SOL     OW 8080   1.274   4.110   1.262
 2541SOL    HW1 8081   1.295   4.184   1.326
 2541SOL    HW2 8082   1.185   4.127   1.219
 2542SOL     OW 8083   0.566   4.261   0.865
 2542SOL    HW1 8084   0.578   4.327   0.791
 2542SOL    HW2 8085   0.612   4.295   0.948
 2543SOL     OW 8086   1.582   4.363   0.472
 2543SOL    HW1 8087   1.551   4.424   0.545
 2543SOL    HW2 8088   1.632   4.415   0.403
 2544SOL     OW 8089   1.013   3.829   1.770
 2544SOL    HW1 8090   1.019   3.914   1.718
 2544SOL    HW2 8091   1.045   3.753   1.713
 2545SOL     OW 8092   0.504   3.774   1.740
 2545SOL    HW1 8093   0.462   3.717   1.670
 2545SOL    HW2 8094   0.438   3.843   1.772
 2546SOL     OW 8095   1.209   4.249   0.275
 2546SOL    HW1 8096   1.222   4.165   0.329
 2546SOL    HW2 8097   1.180   4.323   0.335
 2547SOL     OW 8098   0.307   3.937   1.231
 2547SOL    HW1 8099   0.284   3.974   1.321
 2547SOL    HW2 8100   0.277   3.842   1.225
 2548SOL     OW 8101   0.732   4.358   1.064
 2548SOL    HW1 8102   0.791   4.332   0.988
 2548SOL    HW2 8103   0.704   4.454   1.053
 2549SOL     OW 8104   1.728   4.659   1.854
 2549SOL    HW1 8105   1.682   4.652   1.765
 2549SOL    HW2 8106   1.666   4.703   1.920
 2550SOL     OW 8107   0.307   3.787   0.618
 2550SOL    HW1 8108   0.296   3.881   0.651
 2550SOL    HW2 8109   0.302   3.724   0.695
 2551SOL     OW 8110   1.622   4.091   0.374
 2551SOL    HW1 8111   1.624   4.015   0.438
 2551SOL    HW2 8112   1.574   4.168   0.414
 2552SOL     OW 8113   1.540   3.998   0.125
 2552SOL    HW1 8114   1.479   3.923   0.148
 2552SOL    HW2 8115   1.562   4.050   0.208
 2553SOL     OW 8116   0.319   4.534   0.949
 2553SOL    HW1 8117   0.412   4.570   0.954
 2553SOL    HW2 8118   0.313   4.449   1.001
 2554SOL     OW 8119   0.339   4.233   1.006
 2554SOL    HW1 8120   0.287   4.150   0.989
 2554SOL    HW2 8121   0.416   4.238   0.942
 2555SOL     OW 8122   1.138   4.104   1.678
 2555SOL    HW1 8123   1.093   4.167   1.742
 2555SOL    HW2 8124   1.231   4.135   1.661
 2556SOL     OW 8125   1.160   3.931   1.477
 2556SOL    HW1 8126   1.160   3.995   1.554
 2556SOL    HW2 8127   1.188   3.979   1.394
 2557SOL     OW 8128   0.040   4.268   1.114
 2557SOL    HW1 8129   0.125   4.235   1.073
 2557SOL    HW2 8130   0.053   4.283   1.212
 2558SOL     OW 8131   0.189   4.244   1.722
 2558SOL    HW1 8132   0.248   4.204   1.652
 2558SOL    HW2 8133   0.131   4.315   1.681
 2559SOL     OW 8134   0.815   4.296   0.325
 2559SOL    HW1 8135   0.822   4.207   0.279
 2559SOL    HW2 8136   0.721   4.330   0.317
 2560SOL     OW 8137   1.657   4.328   1.206
 2560SOL    HW1 8138   1.619   4.259   1.268
 2560SOL    HW2 8139   1.739   4.292   1.162
 2561SOL     OW 8140   0.671   4.188   1.269
 2561SOL    HW1 8141   0.637   4.099   1.239
 2561SOL    HW2 8142   0.697   4.242   1.189
 2562SOL     OW 8143   0.473   4.224   0.191
 2562SOL    HW1 8144   0.534   4.304   0.195
 2562SOL    HW2 8145   0.378   4.255   0.198
 2563SOL     OW 8146   0.903   3.810   0.133
 2563SOL    HW1 8147   0.954   3.811   0.047
 2563SOL    HW2 8148   0.959   3.768   0.204
 2564SOL     OW 8149   1.726   3.859   0.523
 2564SOL    HW1 8150   1.799   3.842   0.456
 2564SOL    HW2 8151   1.695   3.772   0.561
 2565SOL     OW 8152   1.280   4.651   0.672
 2565SOL    HW1 8153   1.340   4.570   0.674
 2565SOL    HW2 8154   1.320   4.720   0.612
 2566SOL     OW 8155   1.841   3.899   0.963
 2566SOL    HW1 8156   1.880   3.814   0.927
 2566SOL    HW2 8157   1.743   3.901   0.944
 2567SOL     OW 8158   0.263   4.050   0.720
 2567SOL    HW1 8159   0.184   4.101   0.686
 2567SOL    HW2 8160   0.254   4.035   0.818
 2568SOL     OW 8161   1.039   4.822   0.696
 2568SOL    HW1 8162   0.969   4.775   0.750
 2568SOL    HW2 8163   1.098   4.754   0.653
 2569SOL     OW 8164   1.014   3.960   0.971
 2569SOL    HW1 8165   1.006   3.924   0.878
 2569SOL    HW2 8166   1.012   3.884   1.036
 2570SOL     OW 8167   1.709   4.109   1.381
 2570SOL    HW1 8168   1.782   4.178   1.385
 2570SOL    HW2 8169   1.737   4.034   1.322
 2571SOL     OW 8170   0.672   3.927   1.489
 2571SOL    HW1 8171   0.762   3.911   1.449
 2571SOL    HW2 8172   0.680   3.932   1.588
 2572SOL     OW 8173   0.075   4.069   0.033
 2572SOL    HW1 8174  -0.017   4.041   0.004
 2572SOL    HW2 8175   0.106   4.146  -0.023
 2573SOL     OW 8176   0.072   3.890   0.318
 2573SOL    HW1 8177   0.055   3.973   0.264
 2573SOL    HW2 8178   0.162   3.853   0.296
 2574SOL     OW 8179   0.716   4.289   1.708
 2574SOL    HW1 8180   0.735   4.354   1.782
 2574SOL    HW2 8181   0.776   4.209   1.717
 2575SOL     OW 8182   1.225   4.049   0.449
 2575SOL    HW1 8183   1.290   3.975   0.438
 2575SOL    HW2 8184   1.245   4.099   0.533
 2576SOL     OW 8185   1.777   4.066   1.642
 2576SOL    HW1 8186   1.760   4.097   1.548
 2576SOL    HW2 8187   1.693   4.029   1.680
 2577SOL     OW 8188   1.083   4.708   0.087
 2577SOL    HW1 8189   1.060   4.761   0.005
 2577SOL    HW2 8190   1.164   4.652   0.068
 2578SOL     OW 8191   1.824   3.916   1.227
 2578SOL    HW1 8192   1.820   3.826   1.271
 2578SOL    HW2 8193   1.827   3.905   1.128
 2579SOL     OW 8194   0.428   4.148   0.520
 2579SOL    HW1 8195   0.458   4.076   0.458
 2579SOL    HW2 8196   0.389   4.108   0.603
 2580SOL     OW 8197   0.317   4.271   1.280
 2580SOL    HW1 8198   0.355   4.212   1.352
 2580SOL    HW2 8199   0.357   4.245   1.192
 2581SOL     OW 8200   1.424   3.938   1.112
 2581SOL    HW1 8201   1.476   3.873   1.167
 2581SOL    HW2 8202   1.375   4.001   1.173
 2582SOL     OW 8203   1.001   3.758   1.154
 2582SOL    HW1 8204   0.938   3.686   1.123
 2582SOL    HW2 8205   1.094   3.722   1.154
 2583SOL     OW 8206   1.352   3.776   0.168
 2583SOL    HW1 8207   1.387   3.735   0.084
 2583SOL    HW2 8208   1.262   3.738   0.188
 2584SOL     OW 8209   1.300   4.177   0.691
 2584SOL    HW1 8210   1.241   4.257   0.695
 2584SOL    HW2 8211   1.315   4.142   0.784
 2585SOL     OW 8212   1.593   3.945   0.882
 2585SOL    HW1 8213   1.509   3.944   0.936
 2585SOL    HW2 8214   1.595   4.028   0.826
 2586SOL     OW 8215   0.230   4.352   1.975
 2586SOL    HW1 8216   0.137   4.350   2.012
 2586SOL    HW2 8217   0.231   4.313   1.883
 2587SOL     OW 8218   0.225   3.999   2.858
 2587SOL    HW1 8219   0.260   3.982   2.950
 2587SOL    HW2 8220   0.137   3.954   2.846
 2588SOL     OW 8221   0.019   4.092   2.509
 2588SOL    HW1 8222  -0.063   4.135   2.548
 2588SOL    HW2 8223  -0.009   4.019   2.446
 2589SOL     OW 8224   1.755   4.331   2.093
 2589SOL    HW1 8225   1.743   4.318   1.994
 2589SOL    HW2 8226   1.725   4.250   2.142
 2590SOL     OW 8227   0.685   4.736   2.527
 2590SOL    HW1 8228   0.754   4.720   2.597
 2590SOL    HW2 8229   0.612   4.793   2.565
 2591SOL     OW 8230   0.438   4.116   3.361
 2591SOL    HW1 8231   0.520   4.060   3.370
 2591SOL    HW2 8232   0.357   4.058   3.365
 2592SOL     OW 8233   1.603   4.171   2.599
 2592SOL    HW1 8234   1.529   4.217   2.549
 2592SOL    HW2 8235   1.654   4.239   2.652
 2593SOL     OW 8236   1.594   3.838   3.342
 2593SOL    HW1 8237   1.576   3.905   3.270
 2593SOL    HW2 8238   1.591   3.884   3.431
 2594SOL     OW 8239   0.122   4.367   2.425
 2594SOL    HW1 8240   0.077   4.279   2.442
 2594SOL    HW2 8241   0.121   4.421   2.509
 2595SOL     OW 8242   0.113   4.461   3.459
 2595SOL    HW1 8243   0.201   4.448   3.504
 2595SOL    HW2 8244   0.100   4.558   3.437
 2596SOL     OW 8245   0.809   3.728   2.364
 2596SOL    HW1 8246   0.849   3.819   2.355
 2596SOL    HW2 8247   0.709   3.736   2.370
 2597SOL     OW 8248   0.317   3.975   3.663
 2597SOL    HW1 8249   0.388   4.046   3.669
 2597SOL    HW2 8250   0.229   4.014   3.691
 2598SOL     OW 8251   1.281   4.069   2.806
 2598SOL    HW1 8252   1.195   4.019   2.793
 2598SOL    HW2 8253   1.343   4.015   2.862
 2599SOL     OW 8254   0.807   4.329   3.327
 2599SOL    HW1 8255   0.760   4.326   3.416
 2599SOL    HW2 8256   0.756   4.274   3.261
 2600SOL     OW 8257   1.394   4.193   3.536
 2600SOL    HW1 8258   1.374   4.236   3.624
 2600SOL    HW2 8259   1.472   4.131   3.545
 2601SOL     OW 8260   0.991   4.134   3.104
 2601SOL    HW1 8261   0.914   4.168   3.158
 2601SOL    HW2 8262   0.957   4.083   3.025
 2602SOL     OW 8263   1.041   4.425   2.291
 2602SOL    HW1 8264   1.067   4.421   2.387
 2602SOL    HW2 8265   0.956   4.374   2.277
 2603SOL     OW 8266   0.076   4.535   2.651
 2603SOL    HW1 8267   0.175   4.523   2.660
 2603SOL    HW2 8268   0.052   4.630   2.672
 2604SOL     OW 8269   0.865   4.072   2.057
 2604SOL    HW1 8270   0.924   4.135   2.008
 2604SOL    HW2 8271   0.884   3.978   2.028
 2605SOL     OW 8272   1.719   4.309   3.693
 2605SOL    HW1 8273   1.693   4.398   3.657
 2605SOL    HW2 8274   1.717   4.241   3.620
 2606SOL     OW 8275   0.550   3.920   2.747
 2606SOL    HW1 8276   0.545   3.915   2.847
 2606SOL    HW2 8277   0.552   4.016   2.718
 2607SOL     OW 8278   1.458   4.459   2.590
 2607SOL    HW1 8279   1.453   4.394   2.665
 2607SOL    HW2 8280   1.538   4.518   2.603
 2608SOL     OW 8281   0.202   4.009   3.360
 2608SOL    HW1 8282   0.122   4.069   3.347
 2608SOL    HW2 8283   0.192   3.960   3.446
 2609SOL     OW 8284   1.400   3.831   2.288
 2609SOL    HW1 8285   1.376   3.794   2.198
 2609SOL    HW2 8286   1.499   3.847   2.292
 2610SOL     OW 8287   0.382   4.424   2.342
 2610SOL    HW1 8288   0.427   4.334   2.339
 2610SOL    HW2 8289   0.288   4.413   2.375
 2611SOL     OW 8290   1.547   3.946   3.591
 2611SOL    HW1 8291   1.542   3.983   3.683
 2611SOL    HW2 8292   1.475   3.877   3.579
 2612SOL     OW 8293   0.614   3.846   1.979
 2612SOL    HW1 8294   0.712   3.824   1.986
 2612SOL    HW2 8295   0.583   3.829   1.886
 2613SOL     OW 8296   0.781   3.988   3.611
 2613SOL    HW1 8297   0.848   3.927   3.654
 2613SOL    HW2 8298   0.708   4.007   3.676
 2614SOL     OW 8299   1.351   4.314   3.295
 2614SOL    HW1 8300   1.379   4.271   3.380
 2614SOL    HW2 8301   1.376   4.410   3.296
 2615SOL     OW 8302   0.922   4.227   2.761
 2615SOL    HW1 8303   0.897   4.218   2.665
 2615SOL    HW2 8304   0.970   4.145   2.792
 2616SOL     OW 8305   0.539   3.788   2.374
 2616SOL    HW1 8306   0.458   3.789   2.432
 2616SOL    HW2 8307   0.542   3.871   2.319
 2617SOL     OW 8308   0.297   3.759   2.033
 2617SOL    HW1 8309   0.346   3.843   2.012
 2617SOL    HW2 8310   0.359   3.694   2.078
 2618SOL     OW 8311   0.935   3.960   2.342
 2618SOL    HW1 8312   0.887   4.001   2.264
 2618SOL    HW2 8313   1.034   3.958   2.323
 2619SOL     OW 8314   1.076   4.407   3.326
 2619SOL    HW1 8315   0.996   4.346   3.329
 2619SOL    HW2 8316   1.157   4.354   3.302
 2620SOL     OW 8317   1.032   4.273   1.878
 2620SOL    HW1 8318   0.991   4.355   1.839
 2620SOL    HW2 8319   1.096   4.299   1.951
 2621SOL     OW 8320   0.078   4.280   3.248
 2621SOL    HW1 8321   0.170   4.279   3.207
 2621SOL    HW2 8322   0.072   4.354   3.315
 2622SOL     OW 8323   0.561   3.946   3.009
 2622SOL    HW1 8324   0.599   3.862   3.046
 2622SOL    HW2 8325   0.473   3.965   3.053
 2623SOL     OW 8326   0.866   4.178   2.504
 2623SOL    HW1 8327   0.834   4.250   2.442
 2623SOL    HW2 8328   0.890   4.097   2.451
 2624SOL     OW 8329   1.017   3.763   2.615
 2624SOL    HW1 8330   0.945   3.768   2.546
 2624SOL    HW2 8331   0.993   3.694   2.684
 2625SOL     OW 8332   1.466   4.314   2.854
 2625SOL    HW1 8333   1.436   4.219   2.861
 2625SOL    HW2 8334   1.539   4.330   2.920
 2626SOL     OW 8335   1.390   4.299   1.940
 2626SOL    HW1 8336   1.336   4.278   2.021
 2626SOL    HW2 8337   1.481   4.258   1.949
 2627SOL     OW 8338   0.527   3.980   2.190
 2627SOL    HW1 8339   0.554   3.921   2.115
 2627SOL    HW2 8340   0.527   4.075   2.159
 2628SOL     OW 8341   0.915   3.813   3.264
 2628SOL    HW1 8342   0.940   3.793   3.169
 2628SOL    HW2 8343   0.987   3.869   3.306
 2629SOL     OW 8344   0.410   4.537   3.113
 2629SOL    HW1 8345   0.496   4.549   3.163
 2629SOL    HW2 8346   0.368   4.450   3.140
 2630SOL     OW 8347   1.274   4.110   3.124
 2630SOL    HW1 8348   1.295   4.184   3.188
 2630SOL    HW2 8349   1.185   4.127   3.081
 2631SOL     OW 8350   0.566   4.261   2.727
 2631SOL    HW1 8351   0.578   4.327   2.653
 2631SOL    HW2 8352   0.612   4.295   2.810
 2632SOL     OW 8353   1.582   4.363   2.334
 2632SOL    HW1 8354   1.551   4.424   2.407
 2632SOL    HW2 8355   1.632   4.415   2.265
 2633SOL     OW 8356   1.013   3.829   3.632
 2633SOL    HW1 8357   1.019   3.914   3.580
 2633SOL    HW2 8358   1.045   3.753   3.575
 2634SOL     OW 8359   0.504   3.774   3.602
 2634SOL    HW1 8360   0.462   3.717   3.532
 2634SOL    HW2 8361   0.438   3.843   3.634
 2635SOL     OW 8362   1.209   4.249   2.137
 2635SOL    HW1 8363   1.222   4.165   2.191
 2635SOL    HW2 8364   1.180   4.323   2.197
 2636SOL     OW 8365   0.307   3.937   3.093
 2636SOL    HW1 8366   0.284   3.974   3.183
 2636SOL    HW2 8367   0.277   3.842   3.087
 2637SOL     OW 8368   0.732   4.358   2.926
 2637SOL    HW1 8369   0.791   4.332   2.850
 2637SOL    HW2 8370   0.704   4.454   2.915
 2638SOL     OW 8371   1.728   4.659   3.716
 2638SOL    HW1 8372   1.682   4.652   3.627
 2638SOL    HW2 8373   1.666   4.703   3.782
 2639SOL     OW 8374   0.307   3.787   2.480
 2639SOL    HW1 8375   0.296   3.881   2.513
 2639SOL    HW2 8376   0.302   3.724   2.557
 2640SOL     OW 8377   1.622   4.091   2.236
 2640SOL    HW1 8378   1.624   4.015   2.300
 2640SOL    HW2 8379   1.574   4.168   2.276
 2641SOL     OW 8380   1.540   3.998   1.987
 2641SOL    HW1 8381   1.479   3.923   2.010
 2641SOL    HW2 8382   1.562   4.050   2.070
 2642SOL     OW 8383   0.319   4.534   2.811
 2642SOL    HW1 8384   0.412   4.570   2.816
 2642SOL    HW2 8385   0.313   4.449   2.863
 2643SOL     OW 8386   0.339   4.233   2.868
 2643SOL    HW1 8387   0.287   4.150   2.851
 2643SOL    HW2 8388   0.416   4.238   2.804
 2644SOL     OW 8389   1.138   4.104   3.540
 2644SOL    HW1 8390   1.093   4.167   3.604
 2644SOL    HW2 8391   1.231   4.135   3.523
 2645SOL     OW 8392   1.160   3.931   3.339
 2645SOL    HW1 8393   1.160   3.995   3.416
 2645SOL    HW2 8394   1.188   3.979   3.256
 2646SOL     OW 8395   0.040   4.268   2.976
 2646SOL    HW1 8396   0.125   4.235   2.935
 2646SOL    HW2 8397   0.053   4.283   3.074
 2647SOL     OW 8398   0.189   4.244   3.584
 2647SOL    HW1 8399   0.248   4.204   3.514
 2647SOL    HW2 8400   0.131   4.315   3.543
 2648SOL     OW 8401   0.815   4.296   2.187
 2648SOL    HW1 8402   0.822   4.207   2.141
 2648SOL    HW2 8403   0.721   4.330   2.179
 2649SOL     OW 8404   1.657   4.328   3.068
 2649SOL    HW1 8405   1.619   4.259   3.130
 2649SOL    HW2 8406   1.739   4.292   3.024
 2650SOL     OW 8407   0.671   4.188   3.131
 2650SOL    HW1 8408   0.637   4.099   3.101
 2650SOL    HW2 8409   0.697   4.242   3.051
 2651SOL     OW 8410   0.473   4.224   2.053
 2651SOL    HW1 8411   0.534   4.304   2.057
 2651SOL    HW2 8412   0.378   4.255   2.060
 2652SOL     OW 8413   1.726   3.859   2.385
 2652SOL    HW1 8414   1.799   3.842   2.318
 2652SOL    HW2 8415   1.695   3.772   2.423
 2653SOL     OW 8416   1.280   4.651   2.534
 2653SOL    HW1 8417   1.340   4.570   2.536
 2653SOL    HW2 8418   1.320   4.720   2.474
 2654SOL     OW 8419   1.841   3.899   2.825
 2654SOL    HW1 8420   1.880   3.814   2.789
 2654SOL    HW2 8421   1.743   3.901   2.806
 2655SOL     OW 8422   0.263   4.050   2.582
 2655SOL    HW1 8423   0.184   4.101   2.548
 2655SOL    HW2 8424   0.254   4.035   2.680
 2656SOL     OW 8425   0.916   4.634   2.153
 2656SOL    HW1 8426   0.979   4.672   2.085
 2656SOL    HW2 8427   0.956   4.551   2.192
 2657SOL     OW 8428   1.039   4.822   2.558
 2657SOL    HW1 8429   0.969   4.775   2.612
 2657SOL    HW2 8430   1.098   4.754   2.515
 2658SOL     OW 8431   1.014   3.960   2.833
 2658SOL    HW1 8432   1.006   3.924   2.740
 2658SOL    HW2 8433   1.012   3.884   2.898
 2659SOL     OW 8434   1.709   4.109   3.243
 2659SOL    HW1 8435   1.782   4.178   3.247
 2659SOL    HW2 8436   1.737   4.034   3.184
 2660SOL     OW 8437   0.672   3.927   3.351
 2660SOL    HW1 8438   0.762   3.911   3.311
 2660SOL    HW2 8439   0.680   3.932   3.450
 2661SOL     OW 8440   0.075   4.069   1.895
 2661SOL    HW1 8441  -0.017   4.041   1.866
 2661SOL    HW2 8442   0.106   4.146   1.839
 2662SOL     OW 8443   0.072   3.890   2.180
 2662SOL    HW1 8444   0.055   3.973   2.126
 2662SOL    HW2 8445   0.162   3.853   2.158
 2663SOL     OW 8446   0.716   4.289   3.570
 2663SOL    HW1 8447   0.735   4.354   3.644
 2663SOL    HW2 8448   0.776   4.209   3.579
 2664SOL     OW 8449   1.225   4.049   2.311
 2664SOL    HW1 8450   1.290   3.975   2.300
 2664SOL    HW2 8451   1.245   4.099   2.395
 2665SOL     OW 8452   1.777   4.066   3.504
 2665SOL    HW1 8453   1.760   4.097   3.410
 2665SOL    HW2 8454   1.693   4.029   3.542
 2666SOL     OW 8455   1.083   4.708   1.949
 2666SOL    HW1 8456   1.060   4.761   1.867
 2666SOL    HW2 8457   1.164   4.652   1.930
 2667SOL     OW 8458   1.824   3.916   3.089
 2667SOL    HW1 8459   1.820   3.826   3.133
 2667SOL    HW2 8460   1.827   3.905   2.990
 2668SOL     OW 8461   0.428   4.148   2.382
 2668SOL    HW1 8462   0.458   4.076   2.320
 2668SOL    HW2 8463   0.389   4.108   2.465
 2669SOL     OW 8464   0.317   4.271   3.142
 2669SOL    HW1 8465   0.355   4.212   3.214
 2669SOL    HW2 8466   0.357   4.245   3.054
 2670SOL     OW 8467   1.424   3.938   2.974
 2670SOL    HW1 8468   1.476   3.873   3.029
 2670SOL    HW2 8469   1.375   4.001   3.035
 2671SOL     OW 8470   1.001   3.758   3.016
 2671SOL    HW1 8471   0.938   3.686   2.985
 2671SOL    HW2 8472   1.094   3.722   3.016
 2672SOL     OW 8473   1.352   3.776   2.030
 2672SOL    HW1 8474   1.387   3.735   1.946
 2672SOL    HW2 8475   1.262   3.738   2.050
 2673SOL     OW 8476   1.300   4.177   2.553
 2673SOL    HW1 8477   1.241   4.257   2.557
 2673SOL    HW2 8478   1.315   4.142   2.646
 2674SOL     OW 8479   1.593   3.945   2.744
 2674SOL    HW1 8480   1.509   3.944   2.798
 2674SOL    HW2 8481   1.595   4.028   2.688
 2675SOL     OW 8482   0.230   4.352   3.837
 2675SOL    HW1 8483   0.137   4.350   3.874
 2675SOL    HW2 8484   0.231   4.313   3.745
 2676SOL     OW 8485   0.225   3.999   4.720
 2676SOL    HW1 8486   0.260   3.982   4.812
 2676SOL    HW2 8487   0.137   3.954   4.708
 2677SOL     OW 8488   0.019   4.092   4.371
 2677SOL    HW1 8489  -0.063   4.135   4.410
 2677SOL    HW2 8490  -0.009   4.019   4.308
 2678SOL     OW 8491   1.755   4.331   3.955
 2678SOL    HW1 8492   1.743   4.318   3.856
 2678SOL    HW2 8493   1.725   4.250   4.004
 2679SOL     OW 8494   0.685   4.736   4.389
 2679SOL    HW1 8495   0.754   4.720   4.459
 2679SOL    HW2 8496   0.612   4.793   4.427
 2680SOL     OW 8497   0.438   4.116   5.223
 2680SOL    HW1 8498   0.520   4.060   5.232
 2680SOL    HW2 8499   0.357   4.058   5.227
 2681SOL     OW 8500   1.603   4.171   4.461
 2681SOL    HW1 8501   1.529   4.217   4.411
 2681SOL    HW2 8502   1.654   4.239   4.514
 2682SOL     OW 8503   1.594   3.838   5.204
 2682SOL    HW1 8504   1.576   3.905   5.132
 2682SOL    HW2 8505   1.591   3.884   5.293
 2683SOL     OW 8506   0.122   4.367   4.287
 2683SOL    HW1 8507   0.077   4.279   4.304
 2683SOL    HW2 8508   0.121   4.421   4.371
 2684SOL     OW 8509   0.113   4.461   5.321
 2684SOL    HW1 8510   0.201   4.448   5.366
 2684SOL    HW2 8511   0.100   4.558   5.299
 2685SOL     OW 8512   0.809   3.728   4.226
 2685SOL    HW1 8513   0.849   3.819   4.217
 2685SOL    HW2 8514   0.709   3.736   4.232
 2686SOL     OW 8515   0.317   3.975   5.525
 2686SOL    HW1 8516   0.388   4.046   5.531
 2686SOL    HW2 8517   0.229   4.014   5.553
 2687SOL     OW 8518   1.281   4.069   4.668
 2687SOL    HW1 8519   1.195   4.019   4.655
 2687SOL    HW2 8520   1.343   4.015   4.724
 2688SOL     OW 8521   0.807   4.329   5.189
 2688SOL    HW1 8522   0.760   4.326   5.278
 2688SOL    HW2 8523   0.756   4.274   5.123
 2689SOL     OW 8524   1.394   4.193   5.398
 2689SOL    HW1 8525   1.374   4.236   5.486
 2689SOL    HW2 8526   1.472   4.131   5.407
 2690SOL     OW 8527   0.991   4.134   4.966
 2690SOL    HW1 8528   0.914   4.168   5.020
 2690SOL    HW2 8529   0.957   4.083   4.887
 2691SOL     OW 8530   1.041   4.425   4.153
 2691SOL    HW1 8531   1.067   4.421   4.249
 2691SOL    HW2 8532   0.956   4.374   4.139
 2692SOL     OW 8533   0.076   4.535   4.513
 2692SOL    HW1 8534   0.175   4.523   4.522
 2692SOL    HW2 8535   0.052   4.630   4.534
 2693SOL     OW 8536   0.865   4.072   3.919
 2693SOL    HW1 8537   0.924   4.135   3.870
 2693SOL    HW2 8538   0.884   3.978   3.890
 2694SOL     OW 8539   1.719   4.309   5.555
 2694SOL    HW1 8540   1.693   4.398   5.519
 2694SOL    HW2 8541   1.717   4.241   5.482
 2695SOL     OW 8542   0.550   3.920   4.609
 2695SOL    HW1 8543   0.545   3.915   4.709
 2695SOL    HW2 8544   0.552   4.016   4.580
 2696SOL     OW 8545   1.458   4.459   4.452
 2696SOL    HW1 8546   1.453   4.394   4.527
 2696SOL    HW2 8547   1.538   4.518   4.465
 2697SOL     OW 8548   0.202   4.009   5.222
 2697SOL    HW1 8549   0.122   4.069   5.209
 2697SOL    HW2 8550   0.192   3.960   5.308
 2698SOL     OW 8551   1.400   3.831   4.150
 2698SOL    HW1 8552   1.376   3.794   4.060
 2698SOL    HW2 8553   1.499   3.847   4.154
 2699SOL     OW 8554   0.382   4.424   4.204
 2699SOL    HW1 8555   0.427   4.334   4.201
 2699SOL    HW2 8556   0.288   4.413   4.237
 2700SOL     OW 8557   1.547   3.946   5.453
 2700SOL    HW1 8558   1.542   3.983   5.545
 2700SOL    HW2 8559   1.475   3.877   5.441
 2701SOL     OW 8560   0.614   3.846   3.841
 2701SOL    HW1 8561   0.712   3.824   3.848
 2701SOL    HW2 8562   0.583   3.829   3.748
 2702SOL     OW 8563   0.781   3.988   5.473
 2702SOL    HW1 8564   0.848   3.927   5.516
 2702SOL    HW2 8565   0.708   4.007   5.538
 2703SOL     OW 8566   1.351   4.314   5.157
 2703SOL    HW1 8567   1.379   4.271   5.242
 2703SOL    HW2 8568   1.376   4.410   5.158
 2704SOL     OW 8569   0.922   4.227   4.623
 2704SOL    HW1 8570   0.897   4.218   4.527
 2704SOL    HW2 8571   0.970   4.145   4.654
 2705SOL     OW 8572   0.539   3.788   4.236
 2705SOL    HW1 8573   0.458   3.789   4.294
 2705SOL    HW2 8574   0.542   3.871   4.181
 2706SOL     OW 8575   0.297   3.759   3.895
 2706SOL    HW1 8576   0.346   3.843   3.874
 2706SOL    HW2 8577   0.359   3.694   3.940
 2707SOL     OW 8578   0.935   3.960   4.204
 2707SOL    HW1 8579   0.887   4.001   4.126
 2707SOL    HW2 8580   1.034   3.958   4.185
 2708SOL     OW 8581   1.076   4.407   5.188
 2708SOL    HW1 8582   0.996   4.346   5.191
 2708SOL    HW2 8583   1.157   4.354   5.164
 2709SOL     OW 8584   1.032   4.273   3.740
 2709SOL    HW1 8585   0.991   4.355   3.701
 2709SOL    HW2 8586   1.096   4.299   3.813
 2710SOL     OW 8587   0.078   4.280   5.110
 2710SOL    HW1 8588   0.170   4.279   5.069
 2710SOL    HW2 8589   0.072   4.354   5.177
 2711SOL     OW 8590   0.561   3.946   4.871
 2711SOL    HW1 8591   0.599   3.862   4.908
 2711SOL    HW2 8592   0.473   3.965   4.915
 2712SOL     OW 8593   0.866   4.178   4.366
 2712SOL    HW1 8594   0.834   4.250   4.304
 2712SOL    HW2 8595   0.890   4.097   4.313
 2713SOL     OW 8596   1.017   3.763   4.477
 2713SOL    HW1 8597   0.945   3.768   4.408
 2713SOL    HW2 8598   0.993   3.694   4.546
 2714SOL     OW 8599   1.466   4.314   4.716
 2714SOL    HW1 8600   1.436   4.219   4.723
 2714SOL    HW2 8601   1.539   4.330   4.782
 2715SOL     OW 8602   1.390   4.299   3.802
 2715SOL    HW1 8603   1.336   4.278   3.883
 2715SOL    HW2 8604   1.481   4.258   3.811
 2716SOL     OW 8605   0.527   3.980   4.052
 2716SOL    HW1 8606   0.554   3.921   3.977
 2716SOL    HW2 8607   0.527   4.075   4.021
 2717SOL     OW 8608   0.915   3.813   5.126
 2717SOL    HW1 8609   0.940   3.793   5.031
 2717SOL    HW2 8610   0.987   3.869   5.168
 2718SOL     OW 8611   0.410   4.537   4.975
 2718SOL    HW1 8612   0.496   4.549   5.025
 2718SOL    HW2 8613   0.368   4.450   5.002
 2719SOL     OW 8614   1.274   4.110   4.986
 2719SOL    HW1 8615   1.295   4.184   5.050
 2719SOL    HW2 8616   1.185   4.127   4.943
 2720SOL     OW 8617   0.566   4.261   4.589
 2720SOL    HW1 8618   0.578   4.327   4.515
 2720SOL    HW2 8619   0.612   4.295   4.672
 2721SOL     OW 8620   1.582   4.363   4.196
 2721SOL    HW1 8621   1.551   4.424   4.269
 2721SOL    HW2 8622   1.632   4.415   4.127
 2722SOL     OW 8623   1.013   3.829   5.494
 2722SOL    HW1 8624   1.019   3.914   5.442
 2722SOL    HW2 8625   1.045   3.753   5.437
 2723SOL     OW 8626   0.504   3.774   5.464
 2723SOL    HW1 8627   0.462   3.717   5.394
 2723SOL    HW2 8628   0.438   3.843   5.496
 2724SOL     OW 8629   1.209   4.249   3.999
 2724SOL    HW1 8630   1.222   4.165   4.053
 2724SOL    HW2 8631   1.180   4.323   4.059
 2725SOL     OW 8632   0.307   3.937   4.955
 2725SOL    HW1 8633   0.284   3.974   5.045
 2725SOL    HW2 8634   0.277   3.842   4.949
 2726SOL     OW 8635   0.732   4.358   4.788
 2726SOL    HW1 8636   0.791   4.332   4.712
 2726SOL    HW2 8637   0.704   4.454   4.777
 2727SOL     OW 8638   1.728   4.659   5.578
 2727SOL    HW1 8639   1.682   4.652   5.489
 2727SOL    HW2 8640   1.666   4.703   5.644
 2728SOL     OW 8641   0.307   3.787   4.342
 2728SOL    HW1 8642   0.296   3.881   4.375
 2728SOL    HW2 8643   0.302   3.724   4.419
 2729SOL     OW 8644   1.622   4.091   4.098
 2729SOL    HW1 8645   1.624   4.015   4.162
 2729SOL    HW2 8646   1.574   4.168   4.138
 2730SOL     OW 8647   1.540   3.998   3.849
 2730SOL    HW1 8648   1.479   3.923   3.872
 2730SOL    HW2 8649   1.562   4.050   3.932
 2731SOL     OW 8650   0.319   4.534   4.673
 2731SOL    HW1 8651   0.412   4.570   4.678
 2731SOL    HW2 8652   0.313   4.449   4.725
 2732SOL     OW 8653   0.339   4.233   4.730
 2732SOL    HW1 8654   0.287   4.150   4.713
 2732SOL    HW2 8655   0.416   4.238   4.666
 2733SOL     OW 8656   1.138   4.104   5.402
 2733SOL    HW1 8657   1.093   4.167   5.466
 2733SOL    HW2 8658   1.231   4.135   5.385
 2734SOL     OW 8659   1.160   3.931   5.201
 2734SOL    HW1 8660   1.160   3.995   5.278
 2734SOL    HW2 8661   1.188   3.979   5.118
 2735SOL     OW 8662   0.040   4.268   4.838
 2735SOL    HW1 8663   0.125   4.235   4.797
 2735SOL    HW2 8664   0.053   4.283   4.936
 2736SOL     OW 8665   0.189   4.244   5.446
 2736SOL    HW1 8666   0.248   4.204   5.376
 2736SOL    HW2 8667   0.131   4.315   5.405
 2737SOL     OW 8668   0.815   4.296   4.049
 2737SOL    HW1 8669   0.822   4.207   4.003
 2737SOL    HW2 8670   0.721   4.330   4.041
 2738SOL     OW 8671   1.657   4.328   4.930
 2738SOL    HW1 8672   1.619   4.259   4.992
 2738SOL    HW2 8673   1.739   4.292   4.886
 2739SOL     OW 8674   0.671   4.188   4.993
 2739SOL    HW1 8675   0.637   4.099   4.963
 2739SOL    HW2 8676   0.697   4.242   4.913
 2740SOL     OW 8677   0.473   4.224   3.915
 2740SOL    HW1 8678   0.534   4.304   3.919
 2740SOL    HW2 8679   0.378   4.255   3.922
 2741SOL     OW 8680   1.726   3.859   4.247
 2741SOL    HW1 8681   1.799   3.842   4.180
 2741SOL    HW2 8682   1.695   3.772   4.285
 2742SOL     OW 8683   1.280   4.651   4.396
 2742SOL    HW1 8684   1.340   4.570   4.398
 2742SOL    HW2 8685   1.320   4.720   4.336
 2743SOL     OW 8686   1.841   3.899   4.687
 2743SOL    HW1 8687   1.880   3.814   4.651
 2743SOL    HW2 8688   1.743   3.901   4.668
 2744SOL     OW 8689   0.263   4.050   4.444
 2744SOL    HW1 8690   0.184   4.101   4.410
 2744SOL    HW2 8691   0.254   4.035   4.542
 2745SOL     OW 8692   0.916   4.634   4.015
 2745SOL    HW1 8693   0.979   4.672   3.947
 2745SOL    HW2 8694   0.956   4.551   4.054
 2746SOL     OW 8695   1.039   4.822   4.420
 2746SOL    HW1 8696   0.969   4.775   4.474
 2746SOL    HW2 8697   1.098   4.754   4.377
 2747SOL     OW 8698   1.014   3.960   4.695
 2747SOL    HW1 8699   1.006   3.924   4.602
 2747SOL    HW2 8700   1.012   3.884   4.760
 2748SOL     OW 8701   1.709   4.109   5.105
 2748SOL    HW1 8702   1.782   4.178   5.109
 2748SOL    HW2 8703   1.737   4.034   5.046
 2749SOL     OW 8704   0.672   3.927   5.213
 2749SOL    HW1 8705   0.762   3.911   5.173
 2749SOL    HW2 8706   0.680   3.932   5.312
 2750SOL     OW 8707   0.075   4.069   3.757
 2750SOL    HW1 8708  -0.017   4.041   3.728
 2750SOL    HW2 8709   0.106   4.146   3.701
 2751SOL     OW 8710   0.072   3.890   4.042
 2751SOL    HW1 8711   0.055   3.973   3.988
 2751SOL    HW2 8712   0.162   3.853   4.020
 2752SOL     OW 8713   0.716   4.289   5.432
 2752SOL    HW1 8714   0.735   4.354   5.506
 2752SOL    HW2 8715   0.776   4.209   5.441
 2753SOL     OW 8716   1.225   4.049   4.173
 2753SOL    HW1 8717   1.290   3.975   4.162
 2753SOL    HW2 8718   1.245   4.099   4.257
 2754SOL     OW 8719   1.777   4.066   5.366
 2754SOL    HW1 8720   1.760   4.097   5.272
 2754SOL    HW2 8721   1.693   4.029   5.404
 2755SOL     OW 8722   1.083   4.708   3.811
 2755SOL    HW1 8723   1.060   4.761   3.729
 2755SOL    HW2 8724   1.164   4.652   3.792
 2756SOL     OW 8725   1.824   3.916   4.951
 2756SOL    HW1 8726   1.820   3.826   4.995
 2756SOL    HW2 8727   1.827   3.905   4.852
 2757SOL     OW 8728   0.428   4.148   4.244
 2757SOL    HW1 8729   0.458   4.076   4.182
 2757SOL    HW2 8730   0.389   4.108   4.327
 2758SOL     OW 8731   0.317   4.271   5.004
 2758SOL    HW1 8732   0.355   4.212   5.076
 2758SOL    HW2 8733   0.357   4.245   4.916
 2759SOL     OW 8734   1.424   3.938   4.836
 2759SOL    HW1 8735   1.476   3.873   4.891
 2759SOL    HW2 8736   1.375   4.001   4.897
 2760SOL     OW 8737   1.001   3.758   4.878
 2760SOL    HW1 8738   0.938   3.686   4.847
 2760SOL    HW2 8739   1.094   3.722   4.878
 2761SOL     OW 8740   1.352   3.776   3.892
 2761SOL    HW1 8741   1.387   3.735   3.808
 2761SOL    HW2 8742   1.262   3.738   3.912
 2762SOL     OW 8743   1.300   4.177   4.415
 2762SOL    HW1 8744   1.241   4.257   4.419
 2762SOL    HW2 8745   1.315   4.142   4.508
 2763SOL     OW 8746   1.593   3.945   4.606
 2763SOL    HW1 8747   1.509   3.944   4.660
 2763SOL    HW2 8748   1.595   4.028   4.550
 2764SOL     OW 8749   0.230   4.352   5.699
 2764SOL    HW1 8750   0.137   4.350   5.736
 2764SOL    HW2 8751   0.231   4.313   5.607
 2765SOL     OW 8752   0.225   3.999   6.582
 2765SOL    HW1 8753   0.260   3.982   6.674
 2765SOL    HW2 8754   0.137   3.954   6.570
 2766SOL     OW 8755   0.019   4.092   6.233
 2766SOL    HW1 8756  -0.063   4.135   6.272
 2766SOL    HW2 8757  -0.009   4.019   6.170
 2767SOL     OW 8758   1.755   4.331   5.817
 2767SOL    HW1 8759   1.743   4.318   5.718
 2767SOL    HW2 8760   1.725   4.250   5.866
 2768SOL     OW 8761   0.685   4.736   6.251
 2768SOL    HW1 8762   0.754   4.720   6.321
 2768SOL    HW2 8763   0.612   4.793   6.289
 2769SOL     OW 8764   0.438   4.116   7.085
 2769SOL    HW1 8765   0.520   4.060   7.094
 2769SOL    HW2 8766   0.357   4.058   7.089
 2770SOL     OW 8767   1.603   4.171   6.323
 2770SOL    HW1 8768   1.529   4.217   6.273
 2770SOL    HW2 8769   1.654   4.239   6.376
 2771SOL     OW 8770   1.594   3.838   7.066
 2771SOL    HW1 8771   1.576   3.905   6.994
 2771SOL    HW2 8772   1.591   3.884   7.155
 2772SOL     OW 8773   0.122   4.367   6.149
 2772SOL    HW1 8774   0.077   4.279   6.166
 2772SOL    HW2 8775   0.121   4.421   6.233
 2773SOL     OW 8776   0.113   4.461   7.183
 2773SOL    HW1 8777   0.201   4.448   7.228
 2773SOL    HW2 8778   0.100   4.558   7.161
 2774SOL     OW 8779   0.809   3.728   6.088
 2774SOL    HW1 8780   0.849   3.819   6.079
 2774SOL    HW2 8781   0.709   3.736   6.094
 2775SOL     OW 8782   0.317   3.975   7.387
 2775SOL    HW1 8783   0.388   4.046   7.393
 2775SOL    HW2 8784   0.229   4.014   7.415
 2776SOL     OW 8785   1.281   4.069   6.530
 2776SOL    HW1 8786   1.195   4.019   6.517
 2776SOL    HW2 8787   1.343   4.015   6.586
 2777SOL     OW 8788   0.807   4.329   7.051
 2777SOL    HW1 8789   0.760   4.326   7.140
 2777SOL    HW2 8790   0.756   4.274   6.985
 2778SOL     OW 8791   1.394   4.193   7.260
 2778SOL    HW1 8792   1.374   4.236   7.348
 2778SOL    HW2 8793   1.472   4.131   7.269
 2779SOL     OW 8794   0.991   4.134   6.828
 2779SOL    HW1 8795   0.914   4.168   6.882
 2779SOL    HW2 8796   0.957   4.083   6.749
 2780SOL     OW 8797   1.041   4.425   6.015
 2780SOL    HW1 8798   1.067   4.421   6.111
 2780SOL    HW2 8799   0.956   4.374   6.001
 2781SOL     OW 8800   0.076   4.535   6.375
 2781SOL    HW1 8801   0.175   4.523   6.384
 2781SOL    HW2 8802   0.052   4.630   6.396
 2782SOL     OW 8803   0.865   4.072   5.781
 2782SOL    HW1 8804   0.924   4.135   5.732
 2782SOL    HW2 8805   0.884   3.978   5.752
 2783SOL     OW 8806   1.719   4.309   7.417
 2783SOL    HW1 8807   1.693   4.398   7.381
 2783SOL    HW2 8808   1.717   4.241   7.344
 2784SOL     OW 8809   0.550   3.920   6.471
 2784SOL    HW1 8810   0.545   3.915   6.571
 2784SOL    HW2 8811   0.552   4.016   6.442
 2785SOL     OW 8812   1.458   4.459   6.314
 2785SOL    HW1 8813   1.453   4.394   6.389
 2785SOL    HW2 8814   1.538   4.518   6.327
 2786SOL     OW 8815   0.202   4.009   7.084
 2786SOL    HW1 8816   0.122   4.069   7.071
 2786SOL    HW2 8817   0.192   3.960   7.170
 2787SOL     OW 8818   1.400   3.831   6.012
 2787SOL    HW1 8819   1.376   3.794   5.922
 2787SOL    HW2 8820   1.499   3.847   6.016
 2788SOL     OW 8821   0.382   4.424   6.066
 2788SOL    HW1 8822   0.427   4.334   6.063
 2788SOL    HW2 8823   0.288   4.413   6.099
 2789SOL     OW 8824   1.547   3.946   7.315
 2789SOL    HW1 8825   1.542   3.983   7.407
 2789SOL    HW2 8826   1.475   3.877   7.303
 2790SOL     OW 8827   0.614   3.846   5.703
 2790SOL    HW1 8828   0.712   3.824   5.710
 2790SOL    HW2 8829   0.583   3.829   5.610
 2791SOL     OW 8830   0.781   3.988   7.335
 2791SOL    HW1 8831   0.848   3.927   7.378
 2791SOL    HW2 8832   0.708   4.007   7.400
 2792SOL     OW 8833   1.351   4.314   7.019
 2792SOL    HW1 8834   1.379   4.271   7.104
 2792SOL    HW2 8835   1.376   4.410   7.020
 2793SOL     OW 8836   0.922   4.227   6.485
 2793SOL    HW1 8837   0.897   4.218   6.389
 2793SOL    HW2 8838   0.970   4.145   6.516
 2794SOL     OW 8839   0.539   3.788   6.098
 2794SOL    HW1 8840   0.458   3.789   6.156
 2794SOL    HW2 8841   0.542   3.871   6.043
 2795SOL     OW 8842   0.297   3.759   5.757
 2795SOL    HW1 8843   0.346   3.843   5.736
 2795SOL    HW2 8844   0.359   3.694   5.802
 2796SOL     OW 8845   0.935   3.960   6.066
 2796SOL    HW1 8846   0.887   4.001   5.988
 2796SOL    HW2 8847   1.034   3.958   6.047
 2797SOL     OW 8848   1.076   4.407   7.050
 2797SOL    HW1 8849   0.996   4.346   7.053
 2797SOL    HW2 8850   1.157   4.354   7.026
 2798SOL     OW 8851   1.032   4.273   5.602
 2798SOL    HW1 8852   0.991   4.355   5.563
 2798SOL    HW2 8853   1.096   4.299   5.675
 2799SOL     OW 8854   0.078   4.280   6.972
 2799SOL    HW1 8855   0.170   4.279   6.931
 2799SOL    HW2 8856   0.072   4.354   7.039
 2800SOL     OW 8857   0.561   3.946   6.733
 2800SOL    HW1 8858   0.599   3.862   6.770
 2800SOL    HW2 8859   0.473   3.965   6.777
 2801SOL     OW 8860   0.866   4.178   6.228
 2801SOL    HW1 8861   0.834   4.250   6.166
 2801SOL    HW2 8862   0.890   4.097   6.175
 2802SOL     OW 8863   1.017   3.763   6.339
 2802SOL    HW1 8864   0.945   3.768   6.270
 2802SOL    HW2 8865   0.993   3.694   6.408
 2803SOL     OW 8866   1.466   4.314   6.578
 2803SOL    HW1 8867   1.436   4.219   6.585
 2803SOL    HW2 8868   1.539   4.330   6.644
 2804SOL     OW 8869   1.390   4.299   5.664
 2804SOL    HW1 8870   1.336   4.278   5.745
 2804SOL    HW2 8871   1.481   4.258   5.673
 2805SOL     OW 8872   0.527   3.980   5.914
 2805SOL    HW1 8873   0.554   3.921   5.839
 2805SOL    HW2 8874   0.527   4.075   5.883
 2806SOL     OW 8875   0.915   3.813   6.988
 2806SOL    HW1 8876   0.940   3.793   6.893
 2806SOL    HW2 8877   0.987   3.869   7.030
 2807SOL     OW 8878   0.410   4.537   6.837
 2807SOL    HW1 8879   0.496   4.549   6.887
 2807SOL    HW2 8880   0.368   4.450   6.864
 2808SOL     OW 8881   1.274   4.110   6.848
 2808SOL    HW1 8882   1.295   4.184   6.912
 2808SOL    HW2 8883   1.185   4.127   6.805
 2809SOL     OW 8884   0.566   4.261   6.451
 2809SOL    HW1 8885   0.578   4.327   6.377
 2809SOL    HW2 8886   0.612   4.295   6.534
 2810SOL     OW 8887   1.582   4.363   6.058
 2810SOL    HW1 8888   1.551   4.424   6.131
 2810SOL    HW2 8889   1.632   4.415   5.989
 2811SOL     OW 8890   1.013   3.829   7.356
 2811SOL    HW1 8891   1.019   3.914   7.304
 2811SOL    HW2 8892   1.045   3.753   7.299
 2812SOL     OW 8893   0.504   3.774   7.326
 2812SOL    HW1 8894   0.462   3.717   7.256
 2812SOL    HW2 8895   0.438   3.843   7.358
 2813SOL     OW 8896   1.209   4.249   5.861
 2813SOL    HW1 8897   1.222   4.165   5.915
 2813SOL    HW2 8898   1.180   4.323   5.921
 2814SOL     OW 8899   0.307   3.937   6.817
 2814SOL    HW1 8900   0.284   3.974   6.907
 2814SOL    HW2 8901   0.277   3.842   6.811
 2815SOL     OW 8902   0.732   4.358   6.650
 2815SOL    HW1 8903   0.791   4.332   6.574
 2815SOL    HW2 8904   0.704   4.454   6.639
 2816SOL     OW 8905   1.728   4.659   7.440
 2816SOL    HW1 8906   1.682   4.652   7.351
 2816SOL    HW2 8907   1.666   4.703   7.506
 2817SOL     OW 8908   0.307   3.787   6.204
 2817SOL    HW1 8909   0.296   3.881   6.237
 2817SOL    HW2 8910   0.302   3.724   6.281
 2818SOL     OW 8911   1.622   4.091   5.960
 2818SOL    HW1 8912   1.624   4.015   6.024
 2818SOL    HW2 8913   1.574   4.168   6.000
 2819SOL     OW 8914   1.540   3.998   5.711
 2819SOL    HW1 8915   1.479   3.923   5.734
 2819SOL    HW2 8916   1.562   4.050   5.794
 2820SOL     OW 8917   0.319   4.534   6.535
 2820SOL    HW1 8918   0.412   4.570   6.540
 2820SOL    HW2 8919   0.313   4.449   6.587
 2821SOL     OW 8920   0.339   4.233   6.592
 2821SOL    HW1 8921   0.287   4.150   6.575
 2821SOL    HW2 8922   0.416   4.238   6.528
 2822SOL     OW 8923   1.138   4.104   7.264
 2822SOL    HW1 8924   1.093   4.167   7.328
 2822SOL    HW2 8925   1.231   4.135   7.247
 2823SOL     OW 8926   1.160   3.931   7.063
 2823SOL    HW1 8927   1.160   3.995   7.140
 2823SOL    HW2 8928   1.188   3.979   6.980
 2824SOL     OW 8929   0.040   4.268   6.700
 2824SOL    HW1 8930   0.125   4.235   6.659
 2824SOL    HW2 8931   0.053   4.283   6.798
 2825SOL     OW 8932   0.189   4.244   7.308
 2825SOL    HW1 8933   0.248   4.204   7.238
 2825SOL    HW2 8934   0.131   4.315   7.267
 2826SOL     OW 8935   0.815   4.296   5.911
 2826SOL    HW1 8936   0.822   4.207   5.865
 2826SOL    HW2 8937   0.721   4.330   5.903
 2827SOL     OW 8938   1.657   4.328   6.792
 2827SOL    HW1 8939   1.619   4.259   6.854
 2827SOL    HW2 8940   1.739   4.292   6.748
 2828SOL     OW 8941   0.671   4.188   6.855
 2828SOL    HW1 8942   0.637   4.099   6.825
 2828SOL    HW2 8943   0.697   4.242   6.775
 2829SOL     OW 8944   0.473   4.224   5.777
 2829SOL    HW1 8945   0.534   4.304   5.781
 2829SOL    HW2 8946   0.378   4.255   5.784
 2830SOL     OW 8947   1.726   3.859   6.109
 2830SOL    HW1 8948   1.799   3.842   6.042
 2830SOL    HW2 8949   1.695   3.772   6.147
 2831SOL     OW 8950   1.280   4.651   6.258
 2831SOL    HW1 8951   1.340   4.570   6.260
 2831SOL    HW2 8952   1.320   4.720   6.198
 2832SOL     OW 8953   1.841   3.899   6.549
 2832SOL    HW1 8954   1.880   3.814   6.513
 2832SOL    HW2 8955   1.743   3.901   6.530
 2833SOL     OW 8956   0.263   4.050   6.306
 2833SOL    HW1 8957   0.184   4.101   6.272
 2833SOL    HW2 8958   0.254   4.035   6.404
 2834SOL     OW 8959   0.916   4.634   5.877
 2834SOL    HW1 8960   0.979   4.672   5.809
 2834SOL    HW2 8961   0.956   4.551   5.916
 2835SOL     OW 8962   1.039   4.822   6.282
 2835SOL    HW1 8963   0.969   4.775   6.336
 2835SOL    HW2 8964   1.098   4.754   6.239
 2836SOL     OW 8965   1.014   3.960   6.557
 2836SOL    HW1 8966   1.006   3.924   6.464
 2836SOL    HW2 8967   1.012   3.884   6.622
 2837SOL     OW 8968   1.709   4.109   6.967
 2837SOL    HW1 8969   1.782   4.178   6.971
 2837SOL    HW2 8970   1.737   4.034   6.908
 2838SOL     OW 8971   0.672   3.927   7.075
 2838SOL    HW1 8972   0.762   3.911   7.035
 2838SOL    HW2 8973   0.680   3.932   7.174
 2839SOL     OW 8974   0.075   4.069   5.619
 2839SOL    HW1 8975  -0.017   4.041   5.590
 2839SOL    HW2 8976   0.106   4.146   5.563
 2840SOL     OW 8977   0.072   3.890   5.904
 2840SOL    HW1 8978   0.055   3.973   5.850
 2840SOL    HW2 8979   0.162   3.853   5.882
 2841SOL     OW 8980   0.716   4.289   7.294
 2841SOL    HW1 8981   0.735   4.354   7.368
 2841SOL    HW2 8982   0.776   4.209   7.303
 2842SOL     OW 8983   1.225   4.049   6.035
 2842SOL    HW1 8984   1.290   3.975   6.024
 2842SOL    HW2 8985   1.245   4.099   6.119
 2843SOL     OW 8986   1.777   4.066   7.228
 2843SOL    HW1 8987   1.760   4.097   7.134
 2843SOL    HW2 8988   1.693   4.029   7.266
 2844SOL     OW 8989   1.083   4.708   5.673
 2844SOL    HW1 8990   1.060   4.761   5.591
 2844SOL    HW2 8991   1.164   4.652   5.654
 2845SOL     OW 8992   1.824   3.916   6.813
 2845SOL    HW1 8993   1.820   3.826   6.857
 2845SOL    HW2 8994   1.827   3.905   6.714
 2846SOL     OW 8995   0.428   4.148   6.106
 2846SOL    HW1 8996   0.458   4.076   6.044
 2846SOL    HW2 8997   0.389   4.108   6.189
 2847SOL     OW 8998   0.317   4.271   6.866
 2847SOL    HW1 8999   0.355   4.212   6.938
 2847SOL    HW2 9000   0.357   4.245   6.778
 2848SOL     OW 9001   1.424   3.938   6.698
 2848SOL    HW1 9002   1.476   3.873   6.753
 2848SOL    HW2 9003   1.375   4.001   6.759
 2849SOL     OW 9004   1.001   3.758   6.740
 2849SOL    HW1 9005   0.938   3.686   6.709
 2849SOL    HW2 9006   1.094   3.722   6.740
 2850SOL     OW 9007   1.352   3.776   5.754
 2850SOL    HW1 9008   1.387   3.735   5.670
 2850SOL    HW2 9009   1.262   3.738   5.774
 2851SOL     OW 9010   1.300   4.177   6.277
 2851SOL    HW1 9011   1.241   4.257   6.281
 2851SOL    HW2 9012   1.315   4.142   6.370
 2852SOL     OW 9013   1.593   3.945   6.468
 2852SOL    HW1 9014   1.509   3.944   6.522
 2852SOL    HW2 9015   1.595   4.028   6.412
 2853SOL     OW 9016   0.230   4.352   7.561
 2853SOL    HW1 9017   0.137   4.350   7.598
 2853SOL    HW2 9018   0.231   4.313   7.469
 2854SOL     OW 9019   0.225   3.999   8.444
 2854SOL    HW1 9020   0.260   3.982   8.536
 2854SOL    HW2 9021   0.137   3.954   8.432
 2855SOL     OW 9022   0.019   4.092   8.095
 2855SOL    HW1 9023  -0.063   4.135   8.134
 2855SOL    HW2 9024  -0.009   4.019   8.032
 2856SOL     OW 9025   1.755   4.331   7.679
 2856SOL    HW1 9026   1.743   4.318   7.580
 2856SOL    HW2 9027   1.725   4.250   7.728
 2857SOL     OW 9028   0.685   4.736   8.113
 2857SOL    HW1 9029   0.754   4.720   8.183
 2857SOL    HW2 9030   0.612   4.793   8.151
 2858SOL     OW 9031   0.438   4.116   8.947
 2858SOL    HW1 9032   0.520   4.060   8.956
 2858SOL    HW2 9033   0.357   4.058   8.951
 2859SOL     OW 9034   1.603   4.171   8.185
 2859SOL    HW1 9035   1.529   4.217   8.135
 2859SOL    HW2 9036   1.654   4.239   8.238
 2860SOL     OW 9037   1.594   3.838   8.928
 2860SOL    HW1 9038   1.576   3.905   8.856
 2860SOL    HW2 9039   1.591   3.884   9.017
 2861SOL     OW 9040   0.122   4.367   8.011
 2861SOL    HW1 9041   0.077   4.279   8.028
 2861SOL    HW2 9042   0.121   4.421   8.095
 2862SOL     OW 9043   0.113   4.461   9.045
 2862SOL    HW1 9044   0.201   4.448   9.090
 2862SOL    HW2 9045   0.100   4.558   9.023
 2863SOL     OW 9046   0.809   3.728   7.950
 2863SOL    HW1 9047   0.849   3.819   7.941
 2863SOL    HW2 9048   0.709   3.736   7.956
 2864SOL     OW 9049   0.317   3.975   9.249
 2864SOL    HW1 9050   0.388   4.046   9.255
 2864SOL    HW2 9051   0.229   4.014   9.277
 2865SOL     OW 9052   1.281   4.069   8.392
 2865SOL    HW1 9053   1.195   4.019   8.379
 2865SOL    HW2 9054   1.343   4.015   8.448
 2866SOL     OW 9055   0.807   4.329   8.913
 2866SOL    HW1 9056   0.760   4.326   9.002
 2866SOL    HW2 9057   0.756   4.274   8.847
 2867SOL     OW 9058   1.394   4.193   9.122
 2867SOL    HW1 9059   1.374   4.236   9.210
 2867SOL    HW2 9060   1.472   4.131   9.131
 2868SOL     OW 9061   0.991   4.134   8.690
 2868SOL    HW1 9062   0.914   4.168   8.744
 2868SOL    HW2 9063   0.957   4.083   8.611
 2869SOL     OW 9064   1.041   4.425   7.877
 2869SOL    HW1 9065   1.067   4.421   7.973
 2869SOL    HW2 9066   0.956   4.374   7.863
 2870SOL     OW 9067   0.076   4.535   8.237
 2870SOL    HW1 9068   0.175   4.523   8.246
 2870SOL    HW2 9069   0.052   4.630   8.258
 2871SOL     OW 9070   0.865   4.072   7.643
 2871SOL    HW1 9071   0.924   4.135   7.594
 2871SOL    HW2 9072   0.884   3.978   7.614
 2872SOL     OW 9073   1.719   4.309   9.279
 2872SOL    HW1 9074   1.693   4.398   9.243
 2872SOL    HW2 9075   1.717   4.241   9.206
 2873SOL     OW 9076   0.550   3.920   8.333
 2873SOL    HW1 9077   0.545   3.915   8.433
 2873SOL    HW2 9078   0.552   4.016   8.304
 2874SOL     OW 9079   1.458   4.459   8.176
 2874SOL    HW1 9080   1.453   4.394   8.251
 2874SOL    HW2 9081   1.538   4.518   8.189
 2875SOL     OW 9082   0.202   4.009   8.946
 2875SOL    HW1 9083   0.122   4.069   8.933
 2875SOL    HW2 9084   0.192   3.960   9.032
 2876SOL     OW 9085   1.400   3.831   7.874
 2876SOL    HW1 9086   1.376   3.794   7.784
 2876SOL    HW2 9087   1.499   3.847   7.878
 2877SOL     OW 9088   0.382   4.424   7.928
 2877SOL    HW1 9089   0.427   4.334   7.925
 2877SOL    HW2 9090   0.288   4.413   7.961
 2878SOL     OW 9091   1.547   3.946   9.177
 2878SOL    HW1 9092   1.542   3.983   9.269
 2878SOL    HW2 9093   1.475   3.877   9.165
 2879SOL     OW 9094   0.614   3.846   7.565
 2879SOL    HW1 9095   0.712   3.824   7.572
 2879SOL    HW2 9096   0.583   3.829   7.472
 2880SOL     OW 9097   0.781   3.988   9.197
 2880SOL    HW1 9098   0.848   3.927   9.240
 2880SOL    HW2 9099   0.708   4.007   9.262
 2881SOL     OW 9100   1.351   4.314   8.881
 2881SOL    HW1 9101   1.379   4.271   8.966
 2881SOL    HW2 9102   1.376   4.410   8.882
 2882SOL     OW 9103   0.922   4.227   8.347
 2882SOL    HW1 9104   0.897   4.218   8.251
 2882SOL    HW2 9105   0.970   4.145   8.378
 2883SOL     OW 9106   0.539   3.788   7.960
 2883SOL    HW1 9107   0.458   3.789   8.018
 2883SOL    HW2 9108   0.542   3.871   7.905
 2884SOL     OW 9109   0.297   3.759   7.619
 2884SOL    HW1 9110   0.346   3.843   7.598
 2884SOL    HW2 9111   0.359   3.694   7.664
 2885SOL     OW 9112   0.935   3.960   7.928
 2885SOL    HW1 9113   0.887   4.001   7.850
 2885SOL    HW2 9114   1.034   3.958   7.909
 2886SOL     OW 9115   1.076   4.407   8.912
 2886SOL    HW1 9116   0.996   4.346   8.915
 2886SOL    HW2 9117   1.157   4.354   8.888
 2887SOL     OW 9118   1.032   4.273   7.464
 2887SOL    HW1 9119   0.991   4.355   7.425
 2887SOL    HW2 9120   1.096   4.299   7.537
 2888SOL     OW 9121   0.078   4.280   8.834
 2888SOL    HW1 9122   0.170   4.279   8.793
 2888SOL    HW2 9123   0.072   4.354   8.901
 2889SOL     OW 9124   0.561   3.946   8.595
 2889SOL    HW1 9125   0.599   3.862   8.632
 2889SOL    HW2 9126   0.473   3.965   8.639
 2890SOL     OW 9127   0.866   4.178   8.090
 2890SOL    HW1 9128   0.834   4.250   8.028
 2890SOL    HW2 9129   0.890   4.097   8.037
 2891SOL     OW 9130   1.017   3.763   8.201
 2891SOL    HW1 9131   0.945   3.768   8.132
 2891SOL    HW2 9132   0.993   3.694   8.270
 2892SOL     OW 9133   1.466   4.314   8.440
 2892SOL    HW1 9134   1.436   4.219   8.447
 2892SOL    HW2 9135   1.539   4.330   8.506
 2893SOL     OW 9136   1.390   4.299   7.526
 2893SOL    HW1 9137   1.336   4.278   7.607
 2893SOL    HW2 9138   1.481   4.258   7.535
 2894SOL     OW 9139   0.527   3.980   7.776
 2894SOL    HW1 9140   0.554   3.921   7.701
 2894SOL    HW2 9141   0.527   4.075   7.745
 2895SOL     OW 9142   0.915   3.813   8.850
 2895SOL    HW1 9143   0.940   3.793   8.755
 2895SOL    HW2 9144   0.987   3.869   8.892
 2896SOL     OW 9145   0.410   4.537   8.699
 2896SOL    HW1 9146   0.496   4.549   8.749
 2896SOL    HW2 9147   0.368   4.450   8.726
 2897SOL     OW 9148   1.274   4.110   8.710
 2897SOL    HW1 9149   1.295   4.184   8.774
 2897SOL    HW2 9150   1.185   4.127   8.667
 2898SOL     OW 9151   0.566   4.261   8.313
 2898SOL    HW1 9152   0.578   4.327   8.239
 2898SOL    HW2 9153   0.612   4.295   8.396
 2899SOL     OW 9154   1.582   4.363   7.920
 2899SOL    HW1 9155   1.551   4.424   7.993
 2899SOL    HW2 9156   1.632   4.415   7.851
 2900SOL     OW 9157   1.013   3.829   9.218
 2900SOL    HW1 9158   1.019   3.914   9.166
 2900SOL    HW2 9159   1.045   3.753   9.161
 2901SOL     OW 9160   0.504   3.774   9.188
 2901SOL    HW1 9161   0.462   3.717   9.118
 2901SOL    HW2 9162   0.438   3.843   9.220
 2902SOL     OW 9163   1.209   4.249   7.723
 2902SOL    HW1 9164   1.222   4.165   7.777
 2902SOL    HW2 9165   1.180   4.323   7.783
 2903SOL     OW 9166   0.307   3.937   8.679
 2903SOL    HW1 9167   0.284   3.974   8.769
 2903SOL    HW2 9168   0.277   3.842   8.673
 2904SOL     OW 9169   0.732   4.358   8.512
 2904SOL    HW1 9170   0.791   4.332   8.436
 2904SOL    HW2 9171   0.704   4.454   8.501
 2905SOL     OW 9172   1.728   4.659   9.302
 2905SOL    HW1 9173   1.682   4.652   9.213
 2905SOL    HW2 9174   1.666   4.703   9.368
 2906SOL     OW 9175   0.307   3.787   8.066
 2906SOL    HW1 9176   0.296   3.881   8.099
 2906SOL    HW2 9177   0.302   3.724   8.143
 2907SOL     OW 9178   1.622   4.091   7.822
 2907SOL    HW1 9179   1.624   4.015   7.886
 2907SOL    HW2 9180   1.574   4.168   7.862
 2908SOL     OW 9181   1.540   3.998   7.573
 2908SOL    HW1 9182   1.479   3.923   7.596
 2908SOL    HW2 9183   1.562   4.050   7.656
 2909SOL     OW 9184   0.319   4.534   8.397
 2909SOL    HW1 9185   0.412   4.570   8.402
 2909SOL    HW2 9186   0.313   4.449   8.449
 2910SOL     OW 9187   0.339   4.233   8.454
 2910SOL    HW1 9188   0.287   4.150   8.437
 2910SOL    HW2 9189   0.416   4.238   8.390
 2911SOL     OW 9190   1.138   4.104   9.126
 2911SOL    HW1 9191   1.093   4.167   9.190
 2911SOL    HW2 9192   1.231   4.135   9.109
 2912SOL     OW 9193   1.160   3.931   8.925
 2912SOL    HW1 9194   1.160   3.995   9.002
 2912SOL    HW2 9195   1.188   3.979   8.842
 2913SOL     OW 9196   0.040   4.268   8.562
 2913SOL    HW1 9197   0.125   4.235   8.521
 2913SOL    HW2 9198   0.053   4.283   8.660
 2914SOL     OW 9199   0.189   4.244   9.170
 2914SOL    HW1 9200   0.248   4.204   9.100
 2914SOL    HW2 9201   0.131   4.315   9.129
 2915SOL     OW 9202   0.815   4.296   7.773
 2915SOL    HW1 9203   0.822   4.207   7.727
 2915SOL    HW2 9204   0.721   4.330   7.765
 2916SOL     OW 9205   1.657   4.328   8.654
 2916SOL    HW1 9206   1.619   4.259   8.716
 2916SOL    HW2 9207   1.739   4.292   8.610
 2917SOL     OW 9208   0.671   4.188   8.717
 2917SOL    HW1 9209   0.637   4.099   8.687
 2917SOL    HW2 9210   0.697   4.242   8.637
 2918SOL     OW 9211   0.473   4.224   7.639
 2918SOL    HW1 9212   0.534   4.304   7.643
 2918SOL    HW2 9213   0.378   4.255   7.646
 2919SOL     OW 9214   1.726   3.859   7.971
 2919SOL    HW1 9215   1.799   3.842   7.904
 2919SOL    HW2 9216   1.695   3.772   8.009
 2920SOL     OW 9217   1.280   4.651   8.120
 2920SOL    HW1 9218   1.340   4.570   8.122
 2920SOL    HW2 9219   1.320   4.720   8.060
 2921SOL     OW 9220   1.841   3.899   8.411
 2921SOL    HW1 9221   1.880   3.814   8.375
 2921SOL    HW2 9222   1.743   3.901   8.392
 2922SOL     OW 9223   0.263   4.050   8.168
 2922SOL    HW1 9224   0.184   4.101   8.134
 2922SOL    HW2 9225   0.254   4.035   8.266
 2923SOL     OW 9226   0.916   4.634   7.739
 2923SOL    HW1 9227   0.979   4.672   7.671
 2923SOL    HW2 9228   0.956   4.551   7.778
 2924SOL     OW 9229   1.039   4.822   8.144
 2924SOL    HW1 9230   0.969   4.775   8.198
 2924SOL    HW2 9231   1.098   4.754   8.101
 2925SOL     OW 9232   1.014   3.960   8.419
 2925SOL    HW1 9233   1.006   3.924   8.326
 2925SOL    HW2 9234   1.012   3.884   8.484
 2926SOL     OW 9235   1.709   4.109   8.829
 2926SOL    HW1 9236   1.782   4.178   8.833
 2926SOL    HW2 9237   1.737   4.034   8.770
 2927SOL     OW 9238   0.672   3.927   8.937
 2927SOL    HW1 9239   0.762   3.911   8.897
 2927SOL    HW2 9240   0.680   3.932   9.036
 2928SOL     OW 9241   0.075   4.069   7.481
 2928SOL    HW1 9242  -0.017   4.041   7.452
 2928SOL    HW2 9243   0.106   4.146   7.425
 2929SOL     OW 9244   0.072   3.890   7.766
 2929SOL    HW1 9245   0.055   3.973   7.712
 2929SOL    HW2 9246   0.162   3.853   7.744
 2930SOL     OW 9247   0.716   4.289   9.156
 2930SOL    HW1 9248   0.735   4.354   9.230
 2930SOL    HW2 9249   0.776   4.209   9.165
 2931SOL     OW 9250   1.225   4.049   7.897
 2931SOL    HW1 9251   1.290   3.975   7.886
 2931SOL    HW2 9252   1.245   4.099   7.981
 2932SOL     OW 9253   1.777   4.066   9.090
 2932SOL    HW1 9254   1.760   4.097   8.996
 2932SOL    HW2 9255   1.693   4.029   9.128
 2933SOL     OW 9256   1.083   4.708   7.535
 2933SOL    HW1 9257   1.060   4.761   7.453
 2933SOL    HW2 9258   1.164   4.652   7.516
 2934SOL     OW 9259   1.824   3.916   8.675
 2934SOL    HW1 9260   1.820   3.826   8.719
 2934SOL    HW2 9261   1.827   3.905   8.576
 2935SOL     OW 9262   0.428   4.148   7.968
 2935SOL    HW1 9263   0.458   4.076   7.906
 2935SOL    HW2 9264   0.389   4.108   8.051
 2936SOL     OW 9265   0.317   4.271   8.728
 2936SOL    HW1 9266   0.355   4.212   8.800
 2936SOL    HW2 9267   0.357   4.245   8.640
 2937SOL     OW 9268   1.424   3.938   8.560
 2937SOL    HW1 9269   1.476   3.873   8.615
 2937SOL    HW2 9270   1.375   4.001   8.621
 2938SOL     OW 9271   1.001   3.758   8.602
 2938SOL    HW1 9272   0.938   3.686   8.571
 2938SOL    HW2 9273   1.094   3.722   8.602
 2939SOL     OW 9274   1.352   3.776   7.616
 2939SOL    HW1 9275   1.387   3.735   7.532
 2939SOL    HW2 9276   1.262   3.738   7.636
 2940SOL     OW 9277   1.300   4.177   8.139
 2940SOL    HW1 9278   1.241   4.257   8.143
 2940SOL    HW2 9279   1.315   4.142   8.232
 2941SOL     OW 9280   1.593   3.945   8.330
 2941SOL    HW1 9281   1.509   3.944   8.384
 2941SOL    HW2 9282   1.595   4.028   8.274
 2942SOL     OW 9283   0.230   4.352   9.423
 2942SOL    HW1 9284   0.137   4.350   9.460
 2942SOL    HW2 9285   0.231   4.313   9.331
 2943SOL     OW 9286   0.225   3.999  10.306
 2943SOL    HW1 9287   0.260   3.982  10.398
 2943SOL    HW2 9288   0.137   3.954  10.294
 2944SOL     OW 9289   0.019   4.092   9.957
 2944SOL    HW1 9290  -0.063   4.135   9.996
 2944SOL    HW2 9291  -0.009   4.019   9.894
 2945SOL     OW 9292   1.755   4.331   9.541
 2945SOL    HW1 9293   1.743   4.318   9.442
 2945SOL    HW2 9294   1.725   4.250   9.590
 2946SOL     OW 9295   0.685   4.736   9.975
 2946SOL    HW1 9296   0.754   4.720  10.045
 2946SOL    HW2 9297   0.612   4.793  10.013
 2947SOL     OW 9298   0.438   4.116  10.809
 2947SOL    HW1 9299   0.520   4.060  10.818
 2947SOL    HW2 9300   0.357   4.058  10.813
 2948SOL     OW 9301   1.603   4.171  10.047
 2948SOL    HW1 9302   1.529   4.217   9.997
 2948SOL    HW2 9303   1.654   4.239  10.100
 2949SOL     OW 9304   1.594   3.838  10.790
 2949SOL    HW1 9305   1.576   3.905  10.718
 2949SOL    HW2 9306   1.591   3.884  10.879
 2950SOL     OW 9307   0.122   4.367   9.873
 2950SOL    HW1 9308   0.077   4.279   9.890
 2950SOL    HW2 9309   0.121   4.421   9.957
 2951SOL     OW 9310   0.113   4.461  10.907
 2951SOL    HW1 9311   0.201   4.448  10.952
 2951SOL    HW2 9312   0.100   4.558  10.885
 2952SOL     OW 9313   0.809   3.728   9.812
 2952SOL    HW1 9314   0.849   3.819   9.803
 2952SOL    HW2 9315   0.709   3.736   9.818
 2953SOL     OW 9316   0.317   3.975  11.111
 2953SOL    HW1 9317   0.388   4.046  11.117
 2953SOL    HW2 9318   0.229   4.014  11.139
 2954SOL     OW 9319   1.281   4.069  10.254
 2954SOL    HW1 9320   1.195   4.019  10.241
 2954SOL    HW2 9321   1.343   4.015  10.310
 2955SOL     OW 9322   0.807   4.329  10.775
 2955SOL    HW1 9323   0.760   4.326  10.864
 2955SOL    HW2 9324   0.756   4.274  10.709
 2956SOL     OW 9325   0.991   4.134  10.552
 2956SOL    HW1 9326   0.914   4.168  10.606
 2956SOL    HW2 9327   0.957   4.083  10.473
 2957SOL     OW 9328   1.041   4.425   9.739
 2957SOL    HW1 9329   1.067   4.421   9.835
 2957SOL    HW2 9330   0.956   4.374   9.725
 2958SOL     OW 9331   0.076   4.535  10.099
 2958SOL    HW1 9332   0.175   4.523  10.108
 2958SOL    HW2 9333   0.052   4.630  10.120
 2959SOL     OW 9334   0.865   4.072   9.505
 2959SOL    HW1 9335   0.924   4.135   9.456
 2959SOL    HW2 9336   0.884   3.978   9.476
 2960SOL     OW 9337   0.550   3.920  10.195
 2960SOL    HW1 9338   0.545   3.915  10.295
 2960SOL    HW2 9339   0.552   4.016  10.166
 2961SOL     OW 9340   1.458   4.459  10.038
 2961SOL    HW1 9341   1.453   4.394  10.113
 2961SOL    HW2 9342   1.538   4.518  10.051
 2962SOL     OW 9343   0.202   4.009  10.808
 2962SOL    HW1 9344   0.122   4.069  10.795
 2962SOL    HW2 9345   0.192   3.960  10.894
 2963SOL     OW 9346   1.400   3.831   9.736
 2963SOL    HW1 9347   1.376   3.794   9.646
 2963SOL    HW2 9348   1.499   3.847   9.740
 2964SOL     OW 9349   0.382   4.424   9.790
 2964SOL    HW1 9350   0.427   4.334   9.787
 2964SOL    HW2 9351   0.288   4.413   9.823
 2965SOL     OW 9352   0.614   3.846   9.427
 2965SOL    HW1 9353   0.712   3.824   9.434
 2965SOL    HW2 9354   0.583   3.829   9.334
 2966SOL     OW 9355   0.781   3.988  11.059
 2966SOL    HW1 9356   0.848   3.927  11.102
 2966SOL    HW2 9357   0.708   4.007  11.124
 2967SOL     OW 9358   1.351   4.314  10.743
 2967SOL    HW1 9359   1.379   4.271  10.828
 2967SOL    HW2 9360   1.376   4.410  10.744
 2968SOL     OW 9361   0.922   4.227  10.209
 2968SOL    HW1 9362   0.897   4.218  10.113
 2968SOL    HW2 9363   0.970   4.145  10.240
 2969SOL     OW 9364   0.539   3.788   9.822
 2969SOL    HW1 9365   0.458   3.789   9.880
 2969SOL    HW2 9366   0.542   3.871   9.767
 2970SOL     OW 9367   0.297   3.759   9.481
 2970SOL    HW1 9368   0.346   3.843   9.460
 2970SOL    HW2 9369   0.359   3.694   9.526
 2971SOL     OW 9370   0.935   3.960   9.790
 2971SOL    HW1 9371   0.887   4.001   9.712
 2971SOL    HW2 9372   1.034   3.958   9.771
 2972SOL     OW 9373   1.076   4.407  10.774
 2972SOL    HW1 9374   0.996   4.346  10.777
 2972SOL    HW2 9375   1.157   4.354  10.750
 2973SOL     OW 9376   1.032   4.273   9.326
 2973SOL    HW1 9377   0.991   4.355   9.287
 2973SOL    HW2 9378   1.096   4.299   9.399
 2974SOL     OW 9379   0.078   4.280  10.696
 2974SOL    HW1 9380   0.170   4.279  10.655
 2974SOL    HW2 9381   0.072   4.354  10.763
 2975SOL     OW 9382   0.561   3.946  10.457
 2975SOL    HW1 9383   0.599   3.862  10.494
 2975SOL    HW2 9384   0.473   3.965  10.501
 2976SOL     OW 9385   0.866   4.178   9.952
 2976SOL    HW1 9386   0.834   4.250   9.890
 2976SOL    HW2 9387   0.890   4.097   9.899
 2977SOL     OW 9388   1.017   3.763  10.063
 2977SOL    HW1 9389   0.945   3.768   9.994
 2977SOL    HW2 9390   0.993   3.694  10.132
 2978SOL     OW 9391   1.466   4.314  10.302
 2978SOL    HW1 9392   1.436   4.219  10.309
 2978SOL    HW2 9393   1.539   4.330  10.368
 2979SOL     OW 9394   1.390   4.299   9.388
 2979SOL    HW1 9395   1.336   4.278   9.469
 2979SOL    HW2 9396   1.481   4.258   9.397
 2980SOL     OW 9397   0.527   3.980   9.638
 2980SOL    HW1 9398   0.554   3.921   9.563
 2980SOL    HW2 9399   0.527   4.075   9.607
 2981SOL     OW 9400   0.915   3.813  10.712
 2981SOL    HW1 9401   0.940   3.793  10.617
 2981SOL    HW2 9402   0.987   3.869  10.754
 2982SOL     OW 9403   0.410   4.537  10.561
 2982SOL    HW1 9404   0.496   4.549  10.611
 2982SOL    HW2 9405   0.368   4.450  10.588
 2983SOL     OW 9406   1.274   4.110  10.572
 2983SOL    HW1 9407   1.295   4.184  10.636
 2983SOL    HW2 9408   1.185   4.127  10.529
 2984SOL     OW 9409   0.566   4.261  10.175
 2984SOL    HW1 9410   0.578   4.327  10.101
 2984SOL    HW2 9411   0.612   4.295  10.258
 2985SOL     OW 9412   1.582   4.363   9.782
 2985SOL    HW1 9413   1.551   4.424   9.855
 2985SOL    HW2 9414   1.632   4.415   9.713
 2986SOL     OW 9415   0.402   4.475  10.908
 2986SOL    HW1 9416   0.470   4.530  10.861
 2986SOL    HW2 9417   0.442   4.387  10.935
 2987SOL     OW 9418   1.209   4.249   9.585
 2987SOL    HW1 9419   1.222   4.165   9.639
 2987SOL    HW2 9420   1.180   4.323   9.645
 2988SOL     OW 9421   0.307   3.937  10.541
 2988SOL    HW1 9422   0.284   3.974  10.631
 2988SOL    HW2 9423   0.277   3.842  10.535
 2989SOL     OW 9424   0.732   4.358  10.374
 2989SOL    HW1 9425   0.791   4.332  10.298
 2989SOL    HW2 9426   0.704   4.454  10.363
 2990SOL     OW 9427   0.307   3.787   9.928
 2990SOL    HW1 9428   0.296   3.881   9.961
 2990SOL    HW2 9429   0.302   3.724  10.005
 2991SOL     OW 9430   1.622   4.091   9.684
 2991SOL    HW1 9431   1.624   4.015   9.748
 2991SOL    HW2 9432   1.574   4.168   9.724
 2992SOL     OW 9433   1.540   3.998   9.435
 2992SOL    HW1 9434   1.479   3.923   9.458
 2992SOL    HW2 9435   1.562   4.050   9.518
 2993SOL     OW 9436   0.319   4.534  10.259
 2993SOL    HW1 9437   0.412   4.570  10.264
 2993SOL    HW2 9438   0.313   4.449  10.311
 2994SOL     OW 9439   0.339   4.233  10.316
 2994SOL    HW1 9440   0.287   4.150  10.299
 2994SOL    HW2 9441   0.416   4.238  10.252
 2995SOL     OW 9442   1.160   3.931  10.787
 2995SOL    HW1 9443   1.160   3.995  10.864
 2995SOL    HW2 9444   1.188   3.979  10.704
 2996SOL     OW 9445   0.040   4.268  10.424
 2996SOL    HW1 9446   0.125   4.235  10.383
 2996SOL    HW2 9447   0.053   4.283  10.522
 2997SOL     OW 9448   1.369   4.674  10.970
 2997SOL    HW1 9449   1.408   4.763  10.990
 2997SOL    HW2 9450   1.379   4.654  10.873
 2998SOL     OW 9451   0.815   4.296   9.635
 2998SOL    HW1 9452   0.822   4.207   9.589
 2998SOL    HW2 9453   0.721   4.330   9.627
 2999SOL     OW 9454   1.657   4.328  10.516
 2999SOL    HW1 9455   1.619   4.259  10.578
 2999SOL    HW2 9456   1.739   4.292  10.472
 3000SOL     OW 9457   0.671   4.188  10.579
 3000SOL    HW1 9458   0.637   4.099  10.549
 3000SOL    HW2 9459   0.697   4.242  10.499
 3001SOL     OW 9460   0.473   4.224   9.501
 3001SOL    HW1 9461   0.534   4.304   9.505
 3001SOL    HW2 9462   0.378   4.255   9.508
 3002SOL     OW 9463   1.726   3.859   9.833
 3002SOL    HW1 9464   1.799   3.842   9.766
 3002SOL    HW2 9465   1.695   3.772   9.871
 3003SOL     OW 9466   1.280   4.651   9.982
 3003SOL    HW1 9467   1.340   4.570   9.984
 3003SOL    HW2 9468   1.320   4.720   9.922
 3004SOL     OW 9469   1.841   3.899  10.273
 3004SOL    HW1 9470   1.880   3.814  10.237
 3004SOL    HW2 9471   1.743   3.901  10.254
 3005SOL     OW 9472   0.263   4.050  10.030
 3005SOL    HW1 9473   0.184   4.101   9.996
 3005SOL    HW2 9474   0.254   4.035  10.128
 3006SOL     OW 9475   0.916   4.634   9.601
 3006SOL    HW1 9476   0.979   4.672   9.533
 3006SOL    HW2 9477   0.956   4.551   9.640
 3007SOL     OW 9478   1.039   4.822  10.006
 3007SOL    HW1 9479   0.969   4.775  10.060
 3007SOL    HW2 9480   1.098   4.754   9.963
 3008SOL     OW 9481   1.014   3.960  10.281
 3008SOL    HW1 9482   1.006   3.924  10.188
 3008SOL    HW2 9483   1.012   3.884  10.346
 3009SOL     OW 9484   1.709   4.109  10.691
 3009SOL    HW1 9485   1.782   4.178  10.695
 3009SOL    HW2 9486   1.737   4.034  10.632
 3010SOL     OW 9487   0.672   3.927  10.799
 3010SOL    HW1 9488   0.762   3.911  10.759
 3010SOL    HW2 9489   0.680   3.932  10.898
 3011SOL     OW 9490   0.075   4.069   9.343
 3011SOL    HW1 9491  -0.017   4.041   9.314
 3011SOL    HW2 9492   0.106   4.146   9.287
 3012SOL     OW 9493   0.072   3.890   9.628
 3012SOL    HW1 9494   0.055   3.973   9.574
 3012SOL    HW2 9495   0.162   3.853   9.606
 3013SOL     OW 9496   0.716   4.289  11.018
 3013SOL    HW1 9497   0.735   4.354  11.092
 3013SOL    HW2 9498   0.776   4.209  11.027
 3014SOL     OW 9499   1.225   4.049   9.759
 3014SOL    HW1 9500   1.290   3.975   9.748
 3014SOL    HW2 9501   1.245   4.099   9.843
 3015SOL     OW 9502   1.777   4.066  10.952
 3015SOL    HW1 9503   1.760   4.097  10.858
 3015SOL    HW2 9504   1.693   4.029  10.990
 3016SOL     OW 9505   1.083   4.708   9.397
 3016SOL    HW1 9506   1.060   4.761   9.315
 3016SOL    HW2 9507   1.164   4.652   9.378
 3017SOL     OW 9508   1.824   3.916  10.537
 3017SOL    HW1 9509   1.820   3.826  10.581
 3017SOL    HW2 9510   1.827   3.905  10.438
 3018SOL     OW 9511   0.428   4.148   9.830
 3018SOL    HW1 9512   0.458   4.076   9.768
 3018SOL    HW2 9513   0.389   4.108   9.913
 3019SOL     OW 9514   0.317   4.271  10.590
 3019SOL    HW1 9515   0.355   4.212  10.662
 3019SOL    HW2 9516   0.357   4.245  10.502
 3020SOL     OW 9517   1.424   3.938  10.422
 3020SOL    HW1 9518   1.476   3.873  10.477
 3020SOL    HW2 9519   1.375   4.001  10.483
 3021SOL     OW 9520   1.001   3.758  10.464
 3021SOL    HW1 9521   0.938   3.686  10.433
 3021SOL    HW2 9522   1.094   3.722  10.464
 3022SOL     OW 9523   1.352   3.776   9.478
 3022SOL    HW1 9524   1.387   3.735   9.394
 3022SOL    HW2 9525   1.262   3.738   9.498
 3023SOL     OW 9526   1.300   4.177  10.001
 3023SOL    HW1 9527   1.241   4.257  10.005
 3023SOL    HW2 9528   1.315   4.142  10.094
 3024SOL     OW 9529   1.593   3.945  10.192
 3024SOL    HW1 9530   1.509   3.944  10.246
 3024SOL    HW2 9531   1.595   4.028  10.136
 3025SOL     OW 9532   2.092   0.628   0.113
 3025SOL    HW1 9533   1.999   0.626   0.150
 3025SOL    HW2 9534   2.093   0.589   0.021
 3026SOL     OW 9535   2.087   0.275   0.996
 3026SOL    HW1 9536   2.122   0.258   1.088
 3026SOL    HW2 9537   1.999   0.230   0.984
 3027SOL     OW 9538   1.881   0.368   0.647
 3027SOL    HW1 9539   1.799   0.411   0.686
 3027SOL    HW2 9540   1.853   0.295   0.584
 3028SOL     OW 9541   2.431   1.275   1.165
 3028SOL    HW1 9542   2.338   1.268   1.128
 3028SOL    HW2 9543   2.442   1.364   1.209
 3029SOL     OW 9544   3.417   1.511   0.703
 3029SOL    HW1 9545   3.360   1.495   0.784
 3029SOL    HW2 9546   3.358   1.521   0.623
 3030SOL     OW 9547   2.997   0.703   0.717
 3030SOL    HW1 9548   3.054   0.781   0.692
 3030SOL    HW2 9549   2.937   0.729   0.793
 3031SOL     OW 9550   3.617   0.607   0.231
 3031SOL    HW1 9551   3.605   0.594   0.132
 3031SOL    HW2 9552   3.587   0.526   0.280
 3032SOL     OW 9553   2.630   1.144   1.023
 3032SOL    HW1 9554   2.552   1.161   1.083
 3032SOL    HW2 9555   2.664   1.231   0.987
 3033SOL     OW 9556   2.712   0.798   1.823
 3033SOL    HW1 9557   2.708   0.874   1.888
 3033SOL    HW2 9558   2.734   0.834   1.732
 3034SOL     OW 9559   2.547   1.012   0.665
 3034SOL    HW1 9560   2.616   0.996   0.735
 3034SOL    HW2 9561   2.474   1.069   0.703
 3035SOL     OW 9562   2.548   1.161   1.803
 3035SOL    HW1 9563   2.608   1.240   1.817
 3035SOL    HW2 9564   2.462   1.192   1.762
 3036SOL     OW 9565   2.197   1.435   1.061
 3036SOL    HW1 9566   2.119   1.404   1.008
 3036SOL    HW2 9567   2.255   1.493   1.004
 3037SOL     OW 9568   3.322   1.505   1.339
 3037SOL    HW1 9569   3.346   1.599   1.365
 3037SOL    HW2 9570   3.306   1.451   1.421
 3038SOL     OW 9571   2.300   0.392   1.499
 3038SOL    HW1 9572   2.382   0.336   1.508
 3038SOL    HW2 9573   2.219   0.334   1.503
 3039SOL     OW 9574   3.465   0.447   0.737
 3039SOL    HW1 9575   3.391   0.493   0.687
 3039SOL    HW2 9576   3.516   0.515   0.790
 3040SOL     OW 9577   2.093   1.713   0.483
 3040SOL    HW1 9578   2.127   1.790   0.537
 3040SOL    HW2 9579   2.137   1.713   0.393
 3041SOL     OW 9580   2.989   1.341   1.690
 3041SOL    HW1 9581   3.036   1.341   1.778
 3041SOL    HW2 9582   2.941   1.254   1.679
 3042SOL     OW 9583   2.092   1.434   0.538
 3042SOL    HW1 9584   2.066   1.530   0.538
 3042SOL    HW2 9585   2.021   1.380   0.583
 3043SOL     OW 9586   2.102   1.091   0.886
 3043SOL    HW1 9587   2.116   1.007   0.938
 3043SOL    HW2 9588   2.047   1.155   0.941
 3044SOL     OW 9589   2.482   1.786   1.439
 3044SOL    HW1 9590   2.390   1.769   1.474
 3044SOL    HW2 9591   2.510   1.878   1.465
 3045SOL     OW 9592   2.468   0.964   0.123
 3045SOL    HW1 9593   2.475   1.048   0.069
 3045SOL    HW2 9594   2.514   0.977   0.211
 3046SOL     OW 9595   3.456   0.114   1.480
 3046SOL    HW1 9596   3.438   0.181   1.408
 3046SOL    HW2 9597   3.453   0.160   1.569
 3047SOL     OW 9598   1.984   0.643   0.563
 3047SOL    HW1 9599   1.939   0.555   0.580
 3047SOL    HW2 9600   1.983   0.697   0.647
 3048SOL     OW 9601   3.704   1.767   0.359
 3048SOL    HW1 9602   3.758   1.738   0.439
 3048SOL    HW2 9603   3.734   1.857   0.330
 3049SOL     OW 9604   1.889   1.596   0.117
 3049SOL    HW1 9605   1.870   1.500   0.138
 3049SOL    HW2 9606   1.856   1.654   0.192
 3050SOL     OW 9607   3.551   0.922   0.612
 3050SOL    HW1 9608   3.646   0.893   0.620
 3050SOL    HW2 9609   3.543   0.987   0.537
 3051SOL     OW 9610   3.503   1.108   0.432
 3051SOL    HW1 9611   3.589   1.110   0.380
 3051SOL    HW2 9612   3.517   1.155   0.520
 3052SOL     OW 9613   1.975   0.737   1.597
 3052SOL    HW1 9614   2.063   0.724   1.642
 3052SOL    HW2 9615   1.962   0.834   1.575
 3053SOL     OW 9616   2.475   1.365   0.726
 3053SOL    HW1 9617   2.426   1.278   0.735
 3053SOL    HW2 9618   2.452   1.408   0.639
 3054SOL     OW 9619   3.155   1.228   1.423
 3054SOL    HW1 9620   3.192   1.155   1.365
 3054SOL    HW2 9621   3.207   1.233   1.508
 3055SOL     OW 9622   2.671   0.004   0.502
 3055SOL    HW1 9623   2.711   0.095   0.493
 3055SOL    HW2 9624   2.571   0.012   0.508
 3056SOL     OW 9625   2.059   0.976   1.264
 3056SOL    HW1 9626   2.148   0.931   1.250
 3056SOL    HW2 9627   1.986   0.911   1.245
 3057SOL     OW 9628   3.387   0.999   0.190
 3057SOL    HW1 9629   3.324   0.923   0.203
 3057SOL    HW2 9630   3.435   1.017   0.276
 3058SOL     OW 9631   3.049   1.792   1.616
 3058SOL    HW1 9632   3.073   1.852   1.540
 3058SOL    HW2 9633   3.056   1.697   1.586
 3059SOL     OW 9634   2.179   0.251   1.801
 3059SOL    HW1 9635   2.250   0.322   1.807
 3059SOL    HW2 9636   2.091   0.290   1.829
 3060SOL     OW 9637   3.328   1.417   0.953
 3060SOL    HW1 9638   3.269   1.423   1.033
 3060SOL    HW2 9639   3.313   1.329   0.907
 3061SOL     OW 9640   3.529   1.714   0.572
 3061SOL    HW1 9641   3.488   1.691   0.484
 3061SOL    HW2 9642   3.511   1.640   0.637
 3062SOL     OW 9643   2.460   0.729   0.270
 3062SOL    HW1 9644   2.484   0.798   0.202
 3062SOL    HW2 9645   2.382   0.762   0.324
 3063SOL     OW 9646   3.143   0.345   0.944
 3063SOL    HW1 9647   3.057   0.295   0.931
 3063SOL    HW2 9648   3.205   0.291   1.000
 3064SOL     OW 9649   3.438   1.662   0.307
 3064SOL    HW1 9650   3.527   1.708   0.310
 3064SOL    HW2 9651   3.417   1.638   0.212
 3065SOL     OW 9652   2.669   0.605   1.465
 3065SOL    HW1 9653   2.622   0.602   1.554
 3065SOL    HW2 9654   2.618   0.550   1.399
 3066SOL     OW 9655   3.256   0.469   1.674
 3066SOL    HW1 9656   3.236   0.512   1.762
 3066SOL    HW2 9657   3.334   0.407   1.683
 3067SOL     OW 9658   2.835   0.890   1.572
 3067SOL    HW1 9659   2.881   0.806   1.543
 3067SOL    HW2 9660   2.779   0.924   1.497
 3068SOL     OW 9661   2.853   0.410   1.242
 3068SOL    HW1 9662   2.776   0.444   1.296
 3068SOL    HW2 9663   2.819   0.359   1.163
 3069SOL     OW 9664   2.903   0.701   0.429
 3069SOL    HW1 9665   2.929   0.697   0.525
 3069SOL    HW2 9666   2.818   0.650   0.415
 3070SOL     OW 9667   1.938   0.811   0.789
 3070SOL    HW1 9668   2.037   0.799   0.798
 3070SOL    HW2 9669   1.914   0.906   0.810
 3071SOL     OW 9670   1.992   1.821   1.571
 3071SOL    HW1 9671   1.982   1.806   1.670
 3071SOL    HW2 9672   1.906   1.857   1.535
 3072SOL     OW 9673   2.727   0.348   0.195
 3072SOL    HW1 9674   2.786   0.411   0.146
 3072SOL    HW2 9675   2.746   0.254   0.166
 3073SOL     OW 9676   3.581   0.585   1.831
 3073SOL    HW1 9677   3.555   0.674   1.795
 3073SOL    HW2 9678   3.579   0.517   1.758
 3074SOL     OW 9679   3.224   1.144   0.545
 3074SOL    HW1 9680   3.307   1.115   0.497
 3074SOL    HW2 9681   3.175   1.211   0.489
 3075SOL     OW 9682   2.412   0.196   0.885
 3075SOL    HW1 9683   2.407   0.191   0.985
 3075SOL    HW2 9684   2.414   0.292   0.856
 3076SOL     OW 9685   2.870   1.456   0.477
 3076SOL    HW1 9686   2.824   1.528   0.425
 3076SOL    HW2 9687   2.866   1.476   0.575
 3077SOL     OW 9688   2.213   1.801   0.853
 3077SOL    HW1 9689   2.263   1.715   0.859
 3077SOL    HW2 9690   2.278   1.878   0.850
 3078SOL     OW 9691   3.657   1.066   0.873
 3078SOL    HW1 9692   3.595   1.051   0.797
 3078SOL    HW2 9693   3.605   1.077   0.958
 3079SOL     OW 9694   3.089   1.550   1.506
 3079SOL    HW1 9695   3.095   1.473   1.570
 3079SOL    HW2 9696   3.037   1.524   1.426
 3080SOL     OW 9697   2.183   0.943   0.242
 3080SOL    HW1 9698   2.265   0.982   0.200
 3080SOL    HW2 9699   2.156   0.861   0.193
 3081SOL     OW 9700   3.320   0.735   0.728
 3081SOL    HW1 9701   3.315   0.670   0.803
 3081SOL    HW2 9702   3.400   0.794   0.741
 3082SOL     OW 9703   2.323   1.266   1.727
 3082SOL    HW1 9704   2.273   1.267   1.641
 3082SOL    HW2 9705   2.260   1.248   1.803
 3083SOL     OW 9706   2.973   1.776   0.237
 3083SOL    HW1 9707   2.913   1.714   0.287
 3083SOL    HW2 9708   3.004   1.732   0.152
 3084SOL     OW 9709   2.064   0.285   1.498
 3084SOL    HW1 9710   1.984   0.345   1.485
 3084SOL    HW2 9711   2.054   0.236   1.584
 3085SOL     OW 9712   3.494   1.377   0.081
 3085SOL    HW1 9713   3.462   1.471   0.071
 3085SOL    HW2 9714   3.418   1.314   0.069
 3086SOL     OW 9715   2.326   1.743   0.323
 3086SOL    HW1 9716   2.359   1.782   0.409
 3086SOL    HW2 9717   2.402   1.736   0.258
 3087SOL     OW 9718   3.262   0.107   0.426
 3087SOL    HW1 9719   3.238   0.070   0.336
 3087SOL    HW2 9720   3.361   0.123   0.430
 3088SOL     OW 9721   2.111   1.785   1.241
 3088SOL    HW1 9722   2.168   1.720   1.291
 3088SOL    HW2 9723   2.095   1.752   1.148
 3089SOL     OW 9724   2.802   1.698   0.904
 3089SOL    HW1 9725   2.882   1.641   0.925
 3089SOL    HW2 9726   2.753   1.658   0.827
 3090SOL     OW 9727   2.244   0.700   0.480
 3090SOL    HW1 9728   2.289   0.610   0.477
 3090SOL    HW2 9729   2.150   0.689   0.513
 3091SOL     OW 9730   3.409   0.222   1.729
 3091SOL    HW1 9731   3.404   0.259   1.821
 3091SOL    HW2 9732   3.337   0.153   1.717
 3092SOL     OW 9733   2.476   0.122   0.117
 3092SOL    HW1 9734   2.574   0.100   0.124
 3092SOL    HW2 9735   2.445   0.105   0.024
 3093SOL     OW 9736   2.643   0.264   1.749
 3093SOL    HW1 9737   2.710   0.203   1.792
 3093SOL    HW2 9738   2.570   0.283   1.814
 3094SOL     OW 9739   2.750   1.514   1.195
 3094SOL    HW1 9740   2.727   1.489   1.101
 3094SOL    HW2 9741   2.811   1.445   1.234
 3095SOL     OW 9742   3.213   0.590   1.433
 3095SOL    HW1 9743   3.241   0.547   1.518
 3095SOL    HW2 9744   3.238   0.686   1.434
 3096SOL     OW 9745   2.665   1.402   0.924
 3096SOL    HW1 9746   2.755   1.416   0.882
 3096SOL    HW2 9747   2.594   1.404   0.853
 3097SOL     OW 9748   2.784   0.503   0.899
 3097SOL    HW1 9749   2.759   0.494   0.803
 3097SOL    HW2 9750   2.832   0.421   0.930
 3098SOL     OW 9751   2.401   0.064   0.512
 3098SOL    HW1 9752   2.320   0.065   0.570
 3098SOL    HW2 9753   2.404   0.147   0.457
 3099SOL     OW 9754   3.296   1.188   0.041
 3099SOL    HW1 9755   3.328   1.112   0.098
 3099SOL    HW2 9756   3.204   1.215   0.071
 3100SOL     OW 9757   2.159   0.035   0.171
 3100SOL    HW1 9758   2.208   0.119   0.150
 3100SOL    HW2 9759   2.221  -0.030   0.216
 3101SOL     OW 9760   2.797   0.236   0.480
 3101SOL    HW1 9761   2.749   0.277   0.402
 3101SOL    HW2 9762   2.896   0.234   0.461
 3102SOL     OW 9763   2.938   0.683   1.464
 3102SOL    HW1 9764   2.858   0.622   1.467
 3102SOL    HW2 9765   3.019   0.630   1.440
 3103SOL     OW 9766   3.089   1.570   0.793
 3103SOL    HW1 9767   3.110   1.644   0.728
 3103SOL    HW2 9768   3.157   1.570   0.866
 3104SOL     OW 9769   2.321   1.152   0.741
 3104SOL    HW1 9770   2.250   1.125   0.806
 3104SOL    HW2 9771   2.295   1.124   0.648
 3105SOL     OW 9772   3.133   1.797   0.591
 3105SOL    HW1 9773   3.177   1.861   0.527
 3105SOL    HW2 9774   3.083   1.849   0.661
 3106SOL     OW 9775   2.894   0.549   0.016
 3106SOL    HW1 9776   2.853   0.631  -0.023
 3106SOL    HW2 9777   2.958   0.575   0.089
 3107SOL     OW 9778   1.940   0.556   1.386
 3107SOL    HW1 9779   2.032   0.555   1.345
 3107SOL    HW2 9780   1.934   0.630   1.453
 3108SOL     OW 9781   2.423   0.222   1.147
 3108SOL    HW1 9782   2.461   0.138   1.184
 3108SOL    HW2 9783   2.335   0.241   1.191
 3109SOL     OW 9784   2.728   0.454   0.642
 3109SOL    HW1 9785   2.696   0.526   0.580
 3109SOL    HW2 9786   2.752   0.373   0.589
 3110SOL     OW 9787   2.879   0.039   0.753
 3110SOL    HW1 9788   2.807   0.044   0.684
 3110SOL    HW2 9789   2.855  -0.030   0.822
 3111SOL     OW 9790   3.291   1.173   0.867
 3111SOL    HW1 9791   3.236   1.089   0.860
 3111SOL    HW2 9792   3.317   1.202   0.775
 3112SOL     OW 9793   3.328   0.590   0.992
 3112SOL    HW1 9794   3.298   0.495   0.999
 3112SOL    HW2 9795   3.401   0.606   1.058
 3113SOL     OW 9796   3.719   0.833   0.377
 3113SOL    HW1 9797   3.761   0.769   0.441
 3113SOL    HW2 9798   3.681   0.782   0.299
 3114SOL     OW 9799   2.350   1.385   0.174
 3114SOL    HW1 9800   2.263   1.370   0.221
 3114SOL    HW2 9801   2.333   1.411   0.079
 3115SOL     OW 9802   3.526   1.280   0.657
 3115SOL    HW1 9803   3.625   1.288   0.671
 3115SOL    HW2 9804   3.481   1.364   0.688
 3116SOL     OW 9805   3.252   0.575   0.078
 3116SOL    HW1 9806   3.198   0.554   0.159
 3116SOL    HW2 9807   3.343   0.534   0.087
 3117SOL     OW 9808   2.389   0.256   0.328
 3117SOL    HW1 9809   2.416   0.197   0.253
 3117SOL    HW2 9810   2.389   0.351   0.297
 3118SOL     OW 9811   3.616   1.223   1.588
 3118SOL    HW1 9812   3.707   1.184   1.575
 3118SOL    HW2 9813   3.624   1.319   1.612
 3119SOL     OW 9814   2.926   1.347   1.340
 3119SOL    HW1 9815   2.846   1.324   1.395
 3119SOL    HW2 9816   3.009   1.321   1.389
 3120SOL     OW 9817   3.454   1.629   1.625
 3120SOL    HW1 9818   3.481   1.663   1.535
 3120SOL    HW2 9819   3.533   1.591   1.671
 3121SOL     OW 9820   2.973   1.195   1.100
 3121SOL    HW1 9821   2.933   1.239   1.181
 3121SOL    HW2 9822   2.932   1.232   1.017
 3122SOL     OW 9823   3.500   1.099   1.079
 3122SOL    HW1 9824   3.505   1.180   1.138
 3122SOL    HW2 9825   3.414   1.101   1.028
 3123SOL     OW 9826   2.777   0.089   1.402
 3123SOL    HW1 9827   2.802   0.069   1.307
 3123SOL    HW2 9828   2.849   0.145   1.444
 3124SOL     OW 9829   2.842   1.116   1.719
 3124SOL    HW1 9830   2.743   1.122   1.729
 3124SOL    HW2 9831   2.865   1.036   1.663
 3125SOL     OW 9832   2.567   1.050   0.368
 3125SOL    HW1 9833   2.553   1.057   0.467
 3125SOL    HW2 9834   2.651   0.999   0.350
 3126SOL     OW 9835   2.272   0.813   1.251
 3126SOL    HW1 9836   2.358   0.825   1.301
 3126SOL    HW2 9837   2.230   0.726   1.278
 3127SOL     OW 9838   3.136   0.386   1.262
 3127SOL    HW1 9839   3.157   0.460   1.326
 3127SOL    HW2 9840   3.047   0.403   1.219
 3128SOL     OW 9841   1.926   1.564   1.331
 3128SOL    HW1 9842   1.880   1.646   1.297
 3128SOL    HW2 9843   2.024   1.583   1.340
 3129SOL     OW 9844   2.229   1.100   0.501
 3129SOL    HW1 9845   2.222   1.183   0.445
 3129SOL    HW2 9846   2.233   1.020   0.441
 3130SOL     OW 9847   2.428   0.537   0.865
 3130SOL    HW1 9848   2.440   0.603   0.791
 3130SOL    HW2 9849   2.474   0.571   0.948
 3131SOL     OW 9850   3.114   1.348   0.388
 3131SOL    HW1 9851   3.164   1.425   0.428
 3131SOL    HW2 9852   3.019   1.350   0.420
 3132SOL     OW 9853   3.134   1.445   1.142
 3132SOL    HW1 9854   3.181   1.458   1.229
 3132SOL    HW2 9855   3.068   1.371   1.151
 3133SOL     OW 9856   3.444   0.639   0.472
 3133SOL    HW1 9857   3.413   0.700   0.545
 3133SOL    HW2 9858   3.494   0.691   0.403
 3134SOL     OW 9859   2.216   1.510   1.329
 3134SOL    HW1 9860   2.195   1.466   1.242
 3134SOL    HW2 9861   2.313   1.536   1.332
 3135SOL     OW 9862   2.264   0.751   1.598
 3135SOL    HW1 9863   2.332   0.806   1.551
 3135SOL    HW2 9864   2.304   0.663   1.625
 3136SOL     OW 9865   3.449   0.779   1.670
 3136SOL    HW1 9866   3.357   0.817   1.665
 3136SOL    HW2 9867   3.509   0.826   1.605
 3137SOL     OW 9868   2.875   0.105   1.770
 3137SOL    HW1 9869   2.881   0.190   1.718
 3137SOL    HW2 9870   2.907   0.029   1.713
 3138SOL     OW 9871   2.366   0.050   1.740
 3138SOL    HW1 9872   2.324  -0.007   1.670
 3138SOL    HW2 9873   2.300   0.119   1.772
 3139SOL     OW 9874   2.435   0.870   1.029
 3139SOL    HW1 9875   2.479   0.959   1.020
 3139SOL    HW2 9876   2.372   0.870   1.106
 3140SOL     OW 9877   3.222   0.862   1.045
 3140SOL    HW1 9878   3.147   0.862   0.979
 3140SOL    HW2 9879   3.259   0.770   1.054
 3141SOL     OW 9880   3.071   0.525   0.275
 3141SOL    HW1 9881   3.084   0.441   0.329
 3141SOL    HW2 9882   3.042   0.599   0.335
 3142SOL     OW 9883   2.169   0.213   1.231
 3142SOL    HW1 9884   2.146   0.250   1.321
 3142SOL    HW2 9885   2.139   0.118   1.225
 3143SOL     OW 9886   1.899   1.310   1.282
 3143SOL    HW1 9887   1.952   1.261   1.350
 3143SOL    HW2 9888   1.921   1.408   1.287
 3144SOL     OW 9889   2.594   0.634   1.064
 3144SOL    HW1 9890   2.653   0.608   0.988
 3144SOL    HW2 9891   2.566   0.730   1.053
 3145SOL     OW 9892   3.590   0.935   1.854
 3145SOL    HW1 9893   3.544   0.928   1.765
 3145SOL    HW2 9894   3.528   0.979   1.920
 3146SOL     OW 9895   2.169   0.063   0.618
 3146SOL    HW1 9896   2.158   0.157   0.651
 3146SOL    HW2 9897   2.164   0.000   0.695
 3147SOL     OW 9898   3.484   0.367   0.374
 3147SOL    HW1 9899   3.486   0.291   0.438
 3147SOL    HW2 9900   3.436   0.444   0.414
 3148SOL     OW 9901   2.885   0.766   0.966
 3148SOL    HW1 9902   2.900   0.787   1.062
 3148SOL    HW2 9903   2.855   0.671   0.957
 3149SOL     OW 9904   2.842   1.573   1.700
 3149SOL    HW1 9905   2.822   1.617   1.612
 3149SOL    HW2 9906   2.881   1.482   1.684
 3150SOL     OW 9907   3.721   1.518   1.605
 3150SOL    HW1 9908   3.735   1.545   1.510
 3150SOL    HW2 9909   3.804   1.540   1.658
 3151SOL     OW 9910   2.212   0.898   1.804
 3151SOL    HW1 9911   2.288   0.942   1.852
 3151SOL    HW2 9912   2.247   0.851   1.722
 3152SOL     OW 9913   3.402   0.274   0.125
 3152SOL    HW1 9914   3.341   0.199   0.148
 3152SOL    HW2 9915   3.424   0.326   0.208
 3153SOL     OW 9916   3.165   0.838   0.042
 3153SOL    HW1 9917   3.199   0.745   0.057
 3153SOL    HW2 9918   3.183   0.865  -0.053
 3154SOL     OW 9919   2.930   1.333   0.849
 3154SOL    HW1 9920   2.937   1.249   0.794
 3154SOL    HW2 9921   2.992   1.402   0.813
 3155SOL     OW 9922   2.181   0.810   0.949
 3155SOL    HW1 9923   2.274   0.846   0.954
 3155SOL    HW2 9924   2.175   0.725   1.001
 3156SOL     OW 9925   2.201   0.509   1.006
 3156SOL    HW1 9926   2.149   0.426   0.989
 3156SOL    HW2 9927   2.278   0.514   0.942
 3157SOL     OW 9928   3.000   0.380   1.678
 3157SOL    HW1 9929   2.955   0.443   1.742
 3157SOL    HW2 9930   3.093   0.411   1.661
 3158SOL     OW 9931   3.022   0.207   1.477
 3158SOL    HW1 9932   3.022   0.271   1.554
 3158SOL    HW2 9933   3.050   0.255   1.394
 3159SOL     OW 9934   1.870   1.326   0.200
 3159SOL    HW1 9935   1.777   1.347   0.169
 3159SOL    HW2 9936   1.880   1.227   0.213
 3160SOL     OW 9937   1.950   1.801   0.927
 3160SOL    HW1 9938   1.908   1.715   0.900
 3160SOL    HW2 9939   2.044   1.804   0.893
 3161SOL     OW 9940   2.366   1.568   0.910
 3161SOL    HW1 9941   2.432   1.642   0.919
 3161SOL    HW2 9942   2.410   1.489   0.868
 3162SOL     OW 9943   2.864   0.796   1.238
 3162SOL    HW1 9944   2.905   0.764   1.324
 3162SOL    HW2 9945   2.768   0.769   1.235
 3163SOL     OW 9946   1.902   0.544   1.114
 3163SOL    HW1 9947   1.987   0.511   1.073
 3163SOL    HW2 9948   1.915   0.559   1.212
 3164SOL     OW 9949   2.051   0.520   1.722
 3164SOL    HW1 9950   2.110   0.480   1.652
 3164SOL    HW2 9951   1.993   0.591   1.681
 3165SOL     OW 9952   3.231   0.950   1.660
 3165SOL    HW1 9953   3.270   1.039   1.680
 3165SOL    HW2 9954   3.241   0.930   1.563
 3166SOL     OW 9955   2.677   0.572   0.325
 3166SOL    HW1 9956   2.684   0.483   0.279
 3166SOL    HW2 9957   2.583   0.606   0.317
 3167SOL     OW 9958   3.519   0.604   1.206
 3167SOL    HW1 9959   3.481   0.535   1.268
 3167SOL    HW2 9960   3.601   0.568   1.162
 3168SOL     OW 9961   2.114   1.564   1.744
 3168SOL    HW1 9962   2.084   1.621   1.820
 3168SOL    HW2 9963   2.107   1.467   1.770
 3169SOL     OW 9964   2.533   0.464   1.269
 3169SOL    HW1 9965   2.499   0.375   1.239
 3169SOL    HW2 9966   2.559   0.518   1.189
 3170SOL     OW 9967   2.792   1.678   1.465
 3170SOL    HW1 9968   2.768   1.660   1.370
 3170SOL    HW2 9969   2.822   1.772   1.475
 3171SOL     OW 9970   2.335   0.500   0.191
 3171SOL    HW1 9971   2.396   0.580   0.195
 3171SOL    HW2 9972   2.240   0.531   0.198
 3172SOL     OW 9973   2.021   1.137   1.466
 3172SOL    HW1 9974   2.043   1.076   1.542
 3172SOL    HW2 9975   2.031   1.088   1.380
 3173SOL     OW 9976   3.209   1.059   1.234
 3173SOL    HW1 9977   3.233   0.996   1.160
 3173SOL    HW2 9978   3.119   1.099   1.216
 3174SOL     OW 9979   3.164   0.855   0.309
 3174SOL    HW1 9980   3.078   0.824   0.351
 3174SOL    HW2 9981   3.160   0.841   0.210
 3175SOL     OW 9982   3.621   1.747   1.154
 3175SOL    HW1 9983   3.682   1.777   1.081
 3175SOL    HW2 9984   3.583   1.658   1.132
 3176SOL     OW 9985   3.114   1.731   1.128
 3176SOL    HW1 9986   3.198   1.736   1.074
 3176SOL    HW2 9987   3.091   1.635   1.146
 3177SOL     OW 9988   1.945   1.258   1.022
 3177SOL    HW1 9989   1.940   1.257   1.122
 3177SOL    HW2 9990   1.862   1.217   0.984
 3178SOL     OW 9991   2.550   1.662   1.716
 3178SOL    HW1 9992   2.494   1.743   1.725
 3178SOL    HW2 9993   2.602   1.666   1.630
 3179SOL     OW 9994   2.765   0.086   0.133
 3179SOL    HW1 9995   2.816   0.087   0.047
 3179SOL    HW2 9996   2.821   0.044   0.204
 3180SOL     OW 9997   3.588   0.135   0.523
 3180SOL    HW1 9998   3.661   0.118   0.456
 3180SOL    HW2 9999   3.557   0.048   0.561
 3181SOL     OW10000   3.250   1.573   0.477
 3181SOL    HW110001   3.317   1.585   0.403
 3181SOL    HW210002   3.210   1.662   0.500
 3182SOL     OW10003   1.992   1.794   1.851
 3182SOL    HW110004   1.951   1.720   1.904
 3182SOL    HW210005   2.056   1.845   1.909
 3183SOL     OW10006   3.142   0.927   0.672
 3183SOL    HW110007   3.202   0.846   0.674
 3183SOL    HW210008   3.182   0.996   0.612
 3184SOL     OW10009   2.692   1.273   1.422
 3184SOL    HW110010   2.687   1.306   1.517
 3184SOL    HW210011   2.606   1.292   1.376
 3185SOL     OW10012   2.534   1.616   0.154
 3185SOL    HW110013   2.543   1.626   0.055
 3185SOL    HW210014   2.494   1.527   0.175
 3186SOL     OW10015   3.512   1.720   1.394
 3186SOL    HW110016   3.565   1.730   1.310
 3186SOL    HW210017   3.485   1.810   1.428
 3187SOL     OW10018   3.703   0.175   0.963
 3187SOL    HW110019   3.742   0.090   0.927
 3187SOL    HW210020   3.605   0.177   0.944
 3188SOL     OW10021   2.125   0.326   0.720
 3188SOL    HW110022   2.046   0.377   0.686
 3188SOL    HW210023   2.116   0.311   0.818
 3189SOL     OW10024   3.056   1.612   0.031
 3189SOL    HW110025   3.062   1.519   0.068
 3189SOL    HW210026   2.997   1.612  -0.049
 3190SOL     OW10027   2.684   1.002   1.372
 3190SOL    HW110028   2.724   1.001   1.280
 3190SOL    HW210029   2.694   1.094   1.412
 3191SOL     OW10030   2.778   0.910   0.291
 3191SOL    HW110031   2.841   0.948   0.223
 3191SOL    HW210032   2.818   0.827   0.330
 3192SOL     OW10033   3.366   1.607   0.044
 3192SOL    HW110034   3.274   1.644   0.051
 3192SOL    HW210035   3.404   1.627  -0.046
 3193SOL     OW10036   2.234   1.288   1.490
 3193SOL    HW110037   2.221   1.381   1.456
 3193SOL    HW210038   2.150   1.236   1.477
 3194SOL     OW10039   3.476   1.292   1.289
 3194SOL    HW110040   3.536   1.295   1.369
 3194SOL    HW210041   3.401   1.356   1.302
 3195SOL     OW10042   2.901   1.098   0.696
 3195SOL    HW110043   2.831   1.051   0.750
 3195SOL    HW210044   2.960   1.030   0.653
 3196SOL     OW10045   2.876   0.236   0.971
 3196SOL    HW110046   2.868   0.200   0.878
 3196SOL    HW210047   2.874   0.160   1.036
 3197SOL     OW10048   2.452   1.487   0.491
 3197SOL    HW110049   2.494   1.429   0.421
 3197SOL    HW210050   2.408   1.566   0.447
 3198SOL     OW10051   3.571   0.385   1.381
 3198SOL    HW110052   3.644   0.454   1.385
 3198SOL    HW210053   3.599   0.310   1.322
 3199SOL     OW10054   2.117   1.348   0.290
 3199SOL    HW110055   2.021   1.349   0.263
 3199SOL    HW210056   2.129   1.401   0.374
 3200SOL     OW10057   1.967   1.013   1.726
 3200SOL    HW110058   1.890   0.980   1.780
 3200SOL    HW210059   2.052   0.983   1.768
 3201SOL     OW10060   2.534   0.203   1.489
 3201SOL    HW110061   2.624   0.187   1.449
 3201SOL    HW210062   2.542   0.208   1.588
 3202SOL     OW10063   1.937   0.345   0.033
 3202SOL    HW110064   1.845   0.317   0.004
 3202SOL    HW210065   1.968   0.422  -0.023
 3203SOL     OW10066   3.302   0.856   1.398
 3203SOL    HW110067   3.245   0.908   1.335
 3203SOL    HW210068   3.398   0.868   1.374
 3204SOL     OW10069   1.934   0.166   0.318
 3204SOL    HW110070   1.917   0.249   0.264
 3204SOL    HW210071   2.024   0.129   0.296
 3205SOL     OW10072   3.045   1.335   0.119
 3205SOL    HW110073   2.946   1.324   0.121
 3205SOL    HW210074   3.079   1.350   0.212
 3206SOL     OW10075   2.475   0.842   1.431
 3206SOL    HW110076   2.531   0.923   1.414
 3206SOL    HW210077   2.534   0.762   1.434
 3207SOL     OW10078   3.355   1.767   0.959
 3207SOL    HW110079   3.388   1.831   0.890
 3207SOL    HW210080   3.421   1.761   1.034
 3208SOL     OW10081   2.578   0.565   1.708
 3208SOL    HW110082   2.597   0.630   1.782
 3208SOL    HW210083   2.638   0.485   1.717
 3209SOL     OW10084   3.312   1.220   1.633
 3209SOL    HW110085   3.303   1.210   1.732
 3209SOL    HW210086   3.408   1.213   1.607
 3210SOL     OW10087   2.252   1.741   1.560
 3210SOL    HW110088   2.161   1.782   1.558
 3210SOL    HW210089   2.245   1.647   1.592
 3211SOL     OW10090   3.536   0.883   1.254
 3211SOL    HW110091   3.509   0.794   1.217
 3211SOL    HW210092   3.537   0.951   1.181
 3212SOL     OW10093   3.087   0.325   0.449
 3212SOL    HW110094   3.152   0.251   0.438
 3212SOL    HW210095   3.107   0.375   0.533
 3213SOL     OW10096   2.456   0.745   0.652
 3213SOL    HW110097   2.506   0.830   0.633
 3213SOL    HW210098   2.368   0.747   0.604
 3214SOL     OW10099   3.639   0.342   1.642
 3214SOL    HW110100   3.622   0.373   1.548
 3214SOL    HW210101   3.555   0.305   1.680
 3215SOL     OW10102   3.592   0.934   1.517
 3215SOL    HW110103   3.630   1.025   1.532
 3215SOL    HW210104   3.584   0.917   1.418
 3216SOL     OW10105   2.721   1.374   0.016
 3216SOL    HW110106   2.675   1.389   0.104
 3216SOL    HW210107   2.765   1.459  -0.014
 3217SOL     OW10108   2.523   1.790   0.953
 3217SOL    HW110109   2.477   1.878   0.940
 3217SOL    HW210110   2.622   1.802   0.946
 3218SOL     OW10111   2.721   0.956   0.861
 3218SOL    HW110112   2.775   0.887   0.909
 3218SOL    HW210113   2.689   1.025   0.927
 3219SOL     OW10114   2.945   0.984   0.087
 3219SOL    HW110115   2.922   1.037   0.005
 3219SOL    HW210116   3.026   0.928   0.068
 3220SOL     OW10117   3.723   1.569   0.851
 3220SOL    HW110118   3.652   1.557   0.781
 3220SOL    HW210119   3.724   1.490   0.911
 3221SOL     OW10120   2.083   1.314   1.844
 3221SOL    HW110121   2.018   1.241   1.823
 3221SOL    HW210122   2.087   1.328   1.942
 3222SOL     OW10123   1.941   1.240   0.653
 3222SOL    HW110124   1.940   1.193   0.741
 3222SOL    HW210125   2.023   1.212   0.602
 3223SOL     OW10126   2.534   1.391   1.624
 3223SOL    HW110127   2.456   1.341   1.662
 3223SOL    HW210128   2.531   1.486   1.655
 3224SOL     OW10129   3.686   0.192   1.227
 3224SOL    HW110130   3.682   0.102   1.271
 3224SOL    HW210131   3.689   0.181   1.128
 3225SOL     OW10132   2.290   0.424   0.520
 3225SOL    HW110133   2.320   0.352   0.458
 3225SOL    HW210134   2.251   0.384   0.603
 3226SOL     OW10135   3.567   1.487   1.104
 3226SOL    HW110136   3.474   1.462   1.077
 3226SOL    HW210137   3.593   1.437   1.186
 3227SOL     OW10138   2.179   0.547   1.280
 3227SOL    HW110139   2.217   0.488   1.352
 3227SOL    HW210140   2.219   0.521   1.192
 3228SOL     OW10141   2.674   1.586   0.687
 3228SOL    HW110142   2.706   1.596   0.593
 3228SOL    HW210143   2.595   1.524   0.689
 3229SOL     OW10144   3.286   0.214   1.112
 3229SOL    HW110145   3.338   0.149   1.167
 3229SOL    HW210146   3.237   0.277   1.173
 3230SOL     OW10147   2.863   0.034   1.154
 3230SOL    HW110148   2.800  -0.038   1.123
 3230SOL    HW210149   2.956  -0.002   1.154
 3231SOL     OW10150   2.632   1.330   0.301
 3231SOL    HW110151   2.586   1.243   0.318
 3231SOL    HW210152   2.723   1.327   0.342
 3232SOL     OW10153   2.480   1.567   1.284
 3232SOL    HW110154   2.475   1.649   1.341
 3232SOL    HW210155   2.569   1.564   1.239
 3233SOL     OW10156   3.214   0.052   0.168
 3233SOL    HW110157   3.249   0.011   0.084
 3233SOL    HW210158   3.124   0.014   0.188
 3234SOL     OW10159   3.162   0.453   0.691
 3234SOL    HW110160   3.103   0.533   0.695
 3234SOL    HW210161   3.177   0.418   0.784
 3235SOL     OW10162   3.455   0.221   0.882
 3235SOL    HW110163   3.371   0.220   0.936
 3235SOL    HW210164   3.457   0.304   0.826
 3236SOL     OW10165   1.901   1.077   0.300
 3236SOL    HW110166   2.000   1.066   0.291
 3236SOL    HW210167   1.861   0.991   0.332
 3237SOL     OW10168   2.737   1.646   0.337
 3237SOL    HW110169   2.660   1.611   0.283
 3237SOL    HW210170   2.705   1.717   0.399
 3238SOL     OW10171   2.092   0.628   1.975
 3238SOL    HW110172   1.999   0.626   2.012
 3238SOL    HW210173   2.093   0.589   1.883
 3239SOL     OW10174   2.087   0.275   2.858
 3239SOL    HW110175   2.122   0.258   2.950
 3239SOL    HW210176   1.999   0.230   2.846
 3240SOL     OW10177   1.881   0.368   2.509
 3240SOL    HW110178   1.799   0.411   2.548
 3240SOL    HW210179   1.853   0.295   2.446
 3241SOL     OW10180   2.431   1.275   3.027
 3241SOL    HW110181   2.338   1.268   2.990
 3241SOL    HW210182   2.442   1.364   3.071
 3242SOL     OW10183   3.417   1.511   2.565
 3242SOL    HW110184   3.360   1.495   2.646
 3242SOL    HW210185   3.358   1.521   2.485
 3243SOL     OW10186   2.997   0.703   2.579
 3243SOL    HW110187   3.054   0.781   2.554
 3243SOL    HW210188   2.937   0.729   2.655
 3244SOL     OW10189   3.617   0.607   2.093
 3244SOL    HW110190   3.605   0.594   1.994
 3244SOL    HW210191   3.587   0.526   2.142
 3245SOL     OW10192   2.630   1.144   2.885
 3245SOL    HW110193   2.552   1.161   2.945
 3245SOL    HW210194   2.664   1.231   2.849
 3246SOL     OW10195   2.712   0.798   3.685
 3246SOL    HW110196   2.708   0.874   3.750
 3246SOL    HW210197   2.734   0.834   3.594
 3247SOL     OW10198   2.547   1.012   2.527
 3247SOL    HW110199   2.616   0.996   2.597
 3247SOL    HW210200   2.474   1.069   2.565
 3248SOL     OW10201   2.548   1.161   3.665
 3248SOL    HW110202   2.608   1.240   3.679
 3248SOL    HW210203   2.462   1.192   3.624
 3249SOL     OW10204   2.197   1.435   2.923
 3249SOL    HW110205   2.119   1.404   2.870
 3249SOL    HW210206   2.255   1.493   2.866
 3250SOL     OW10207   3.322   1.505   3.201
 3250SOL    HW110208   3.346   1.599   3.227
 3250SOL    HW210209   3.306   1.451   3.283
 3251SOL     OW10210   2.300   0.392   3.361
 3251SOL    HW110211   2.382   0.336   3.370
 3251SOL    HW210212   2.219   0.334   3.365
 3252SOL     OW10213   3.465   0.447   2.599
 3252SOL    HW110214   3.391   0.493   2.549
 3252SOL    HW210215   3.516   0.515   2.652
 3253SOL     OW10216   2.093   1.713   2.345
 3253SOL    HW110217   2.127   1.790   2.399
 3253SOL    HW210218   2.137   1.713   2.255
 3254SOL     OW10219   2.989   1.341   3.552
 3254SOL    HW110220   3.036   1.341   3.640
 3254SOL    HW210221   2.941   1.254   3.541
 3255SOL     OW10222   2.092   1.434   2.400
 3255SOL    HW110223   2.066   1.530   2.400
 3255SOL    HW210224   2.021   1.380   2.445
 3256SOL     OW10225   2.102   1.091   2.748
 3256SOL    HW110226   2.116   1.007   2.800
 3256SOL    HW210227   2.047   1.155   2.803
 3257SOL     OW10228   2.482   1.786   3.301
 3257SOL    HW110229   2.390   1.769   3.336
 3257SOL    HW210230   2.510   1.878   3.327
 3258SOL     OW10231   2.468   0.964   1.985
 3258SOL    HW110232   2.475   1.048   1.931
 3258SOL    HW210233   2.514   0.977   2.073
 3259SOL     OW10234   3.456   0.114   3.342
 3259SOL    HW110235   3.438   0.181   3.270
 3259SOL    HW210236   3.453   0.160   3.431
 3260SOL     OW10237   1.984   0.643   2.425
 3260SOL    HW110238   1.939   0.555   2.442
 3260SOL    HW210239   1.983   0.697   2.509
 3261SOL     OW10240   3.704   1.767   2.221
 3261SOL    HW110241   3.758   1.738   2.301
 3261SOL    HW210242   3.734   1.857   2.192
 3262SOL     OW10243   1.889   1.596   1.979
 3262SOL    HW110244   1.870   1.500   2.000
 3262SOL    HW210245   1.856   1.654   2.054
 3263SOL     OW10246   3.551   0.922   2.474
 3263SOL    HW110247   3.646   0.893   2.482
 3263SOL    HW210248   3.543   0.987   2.399
 3264SOL     OW10249   3.503   1.108   2.294
 3264SOL    HW110250   3.589   1.110   2.242
 3264SOL    HW210251   3.517   1.155   2.382
 3265SOL     OW10252   1.975   0.737   3.459
 3265SOL    HW110253   2.063   0.724   3.504
 3265SOL    HW210254   1.962   0.834   3.437
 3266SOL     OW10255   2.475   1.365   2.588
 3266SOL    HW110256   2.426   1.278   2.597
 3266SOL    HW210257   2.452   1.408   2.501
 3267SOL     OW10258   3.155   1.228   3.285
 3267SOL    HW110259   3.192   1.155   3.227
 3267SOL    HW210260   3.207   1.233   3.370
 3268SOL     OW10261   2.671   0.004   2.364
 3268SOL    HW110262   2.711   0.095   2.355
 3268SOL    HW210263   2.571   0.012   2.370
 3269SOL     OW10264   2.059   0.976   3.126
 3269SOL    HW110265   2.148   0.931   3.112
 3269SOL    HW210266   1.986   0.911   3.107
 3270SOL     OW10267   3.387   0.999   2.052
 3270SOL    HW110268   3.324   0.923   2.065
 3270SOL    HW210269   3.435   1.017   2.138
 3271SOL     OW10270   3.049   1.792   3.478
 3271SOL    HW110271   3.073   1.852   3.402
 3271SOL    HW210272   3.056   1.697   3.448
 3272SOL     OW10273   2.179   0.251   3.663
 3272SOL    HW110274   2.250   0.322   3.669
 3272SOL    HW210275   2.091   0.290   3.691
 3273SOL     OW10276   3.328   1.417   2.815
 3273SOL    HW110277   3.269   1.423   2.895
 3273SOL    HW210278   3.313   1.329   2.769
 3274SOL     OW10279   3.529   1.714   2.434
 3274SOL    HW110280   3.488   1.691   2.346
 3274SOL    HW210281   3.511   1.640   2.499
 3275SOL     OW10282   2.460   0.729   2.132
 3275SOL    HW110283   2.484   0.798   2.064
 3275SOL    HW210284   2.382   0.762   2.186
 3276SOL     OW10285   3.143   0.345   2.806
 3276SOL    HW110286   3.057   0.295   2.793
 3276SOL    HW210287   3.205   0.291   2.862
 3277SOL     OW10288   3.438   1.662   2.169
 3277SOL    HW110289   3.527   1.708   2.172
 3277SOL    HW210290   3.417   1.638   2.074
 3278SOL     OW10291   2.669   0.605   3.327
 3278SOL    HW110292   2.622   0.602   3.416
 3278SOL    HW210293   2.618   0.550   3.261
 3279SOL     OW10294   3.256   0.469   3.536
 3279SOL    HW110295   3.236   0.512   3.624
 3279SOL    HW210296   3.334   0.407   3.545
 3280SOL     OW10297   2.835   0.890   3.434
 3280SOL    HW110298   2.881   0.806   3.405
 3280SOL    HW210299   2.779   0.924   3.359
 3281SOL     OW10300   2.853   0.410   3.104
 3281SOL    HW110301   2.776   0.444   3.158
 3281SOL    HW210302   2.819   0.359   3.025
 3282SOL     OW10303   2.903   0.701   2.291
 3282SOL    HW110304   2.929   0.697   2.387
 3282SOL    HW210305   2.818   0.650   2.277
 3283SOL     OW10306   1.938   0.811   2.651
 3283SOL    HW110307   2.037   0.799   2.660
 3283SOL    HW210308   1.914   0.906   2.672
 3284SOL     OW10309   1.992   1.821   3.433
 3284SOL    HW110310   1.982   1.806   3.532
 3284SOL    HW210311   1.906   1.857   3.397
 3285SOL     OW10312   2.727   0.348   2.057
 3285SOL    HW110313   2.786   0.411   2.008
 3285SOL    HW210314   2.746   0.254   2.028
 3286SOL     OW10315   3.581   0.585   3.693
 3286SOL    HW110316   3.555   0.674   3.657
 3286SOL    HW210317   3.579   0.517   3.620
 3287SOL     OW10318   3.224   1.144   2.407
 3287SOL    HW110319   3.307   1.115   2.359
 3287SOL    HW210320   3.175   1.211   2.351
 3288SOL     OW10321   2.412   0.196   2.747
 3288SOL    HW110322   2.407   0.191   2.847
 3288SOL    HW210323   2.414   0.292   2.718
 3289SOL     OW10324   2.870   1.456   2.339
 3289SOL    HW110325   2.824   1.528   2.287
 3289SOL    HW210326   2.866   1.476   2.437
 3290SOL     OW10327   2.213   1.801   2.715
 3290SOL    HW110328   2.263   1.715   2.721
 3290SOL    HW210329   2.278   1.878   2.712
 3291SOL     OW10330   3.657   1.066   2.735
 3291SOL    HW110331   3.595   1.051   2.659
 3291SOL    HW210332   3.605   1.077   2.820
 3292SOL     OW10333   3.089   1.550   3.368
 3292SOL    HW110334   3.095   1.473   3.432
 3292SOL    HW210335   3.037   1.524   3.288
 3293SOL     OW10336   2.183   0.943   2.104
 3293SOL    HW110337   2.265   0.982   2.062
 3293SOL    HW210338   2.156   0.861   2.055
 3294SOL     OW10339   3.320   0.735   2.590
 3294SOL    HW110340   3.315   0.670   2.665
 3294SOL    HW210341   3.400   0.794   2.603
 3295SOL     OW10342   2.323   1.266   3.589
 3295SOL    HW110343   2.273   1.267   3.503
 3295SOL    HW210344   2.260   1.248   3.665
 3296SOL     OW10345   2.973   1.776   2.099
 3296SOL    HW110346   2.913   1.714   2.149
 3296SOL    HW210347   3.004   1.732   2.014
 3297SOL     OW10348   2.064   0.285   3.360
 3297SOL    HW110349   1.984   0.345   3.347
 3297SOL    HW210350   2.054   0.236   3.446
 3298SOL     OW10351   3.494   1.377   1.943
 3298SOL    HW110352   3.462   1.471   1.933
 3298SOL    HW210353   3.418   1.314   1.931
 3299SOL     OW10354   2.326   1.743   2.185
 3299SOL    HW110355   2.359   1.782   2.271
 3299SOL    HW210356   2.402   1.736   2.120
 3300SOL     OW10357   3.262   0.107   2.288
 3300SOL    HW110358   3.238   0.070   2.198
 3300SOL    HW210359   3.361   0.123   2.292
 3301SOL     OW10360   2.111   1.785   3.103
 3301SOL    HW110361   2.168   1.720   3.153
 3301SOL    HW210362   2.095   1.752   3.010
 3302SOL     OW10363   2.802   1.698   2.766
 3302SOL    HW110364   2.882   1.641   2.787
 3302SOL    HW210365   2.753   1.658   2.689
 3303SOL     OW10366   2.244   0.700   2.342
 3303SOL    HW110367   2.289   0.610   2.339
 3303SOL    HW210368   2.150   0.689   2.375
 3304SOL     OW10369   3.409   0.222   3.591
 3304SOL    HW110370   3.404   0.259   3.683
 3304SOL    HW210371   3.337   0.153   3.579
 3305SOL     OW10372   2.476   0.122   1.979
 3305SOL    HW110373   2.574   0.100   1.986
 3305SOL    HW210374   2.445   0.105   1.886
 3306SOL     OW10375   2.643   0.264   3.611
 3306SOL    HW110376   2.710   0.203   3.654
 3306SOL    HW210377   2.570   0.283   3.676
 3307SOL     OW10378   2.750   1.514   3.057
 3307SOL    HW110379   2.727   1.489   2.963
 3307SOL    HW210380   2.811   1.445   3.096
 3308SOL     OW10381   3.213   0.590   3.295
 3308SOL    HW110382   3.241   0.547   3.380
 3308SOL    HW210383   3.238   0.686   3.296
 3309SOL     OW10384   2.665   1.402   2.786
 3309SOL    HW110385   2.755   1.416   2.744
 3309SOL    HW210386   2.594   1.404   2.715
 3310SOL     OW10387   2.784   0.503   2.761
 3310SOL    HW110388   2.759   0.494   2.665
 3310SOL    HW210389   2.832   0.421   2.792
 3311SOL     OW10390   2.401   0.064   2.374
 3311SOL    HW110391   2.320   0.065   2.432
 3311SOL    HW210392   2.404   0.147   2.319
 3312SOL     OW10393   3.296   1.188   1.903
 3312SOL    HW110394   3.328   1.112   1.960
 3312SOL    HW210395   3.204   1.215   1.933
 3313SOL     OW10396   2.159   0.035   2.033
 3313SOL    HW110397   2.208   0.119   2.012
 3313SOL    HW210398   2.221  -0.030   2.078
 3314SOL     OW10399   2.797   0.236   2.342
 3314SOL    HW110400   2.749   0.277   2.264
 3314SOL    HW210401   2.896   0.234   2.323
 3315SOL     OW10402   2.938   0.683   3.326
 3315SOL    HW110403   2.858   0.622   3.329
 3315SOL    HW210404   3.019   0.630   3.302
 3316SOL     OW10405   3.089   1.570   2.655
 3316SOL    HW110406   3.110   1.644   2.590
 3316SOL    HW210407   3.157   1.570   2.728
 3317SOL     OW10408   2.321   1.152   2.603
 3317SOL    HW110409   2.250   1.125   2.668
 3317SOL    HW210410   2.295   1.124   2.510
 3318SOL     OW10411   3.133   1.797   2.453
 3318SOL    HW110412   3.177   1.861   2.389
 3318SOL    HW210413   3.083   1.849   2.523
 3319SOL     OW10414   2.894   0.549   1.878
 3319SOL    HW110415   2.853   0.631   1.839
 3319SOL    HW210416   2.958   0.575   1.951
 3320SOL     OW10417   1.940   0.556   3.248
 3320SOL    HW110418   2.032   0.555   3.207
 3320SOL    HW210419   1.934   0.630   3.315
 3321SOL     OW10420   2.423   0.222   3.009
 3321SOL    HW110421   2.461   0.138   3.046
 3321SOL    HW210422   2.335   0.241   3.053
 3322SOL     OW10423   2.728   0.454   2.504
 3322SOL    HW110424   2.696   0.526   2.442
 3322SOL    HW210425   2.752   0.373   2.451
 3323SOL     OW10426   2.879   0.039   2.615
 3323SOL    HW110427   2.807   0.044   2.546
 3323SOL    HW210428   2.855  -0.030   2.684
 3324SOL     OW10429   3.291   1.173   2.729
 3324SOL    HW110430   3.236   1.089   2.722
 3324SOL    HW210431   3.317   1.202   2.637
 3325SOL     OW10432   3.328   0.590   2.854
 3325SOL    HW110433   3.298   0.495   2.861
 3325SOL    HW210434   3.401   0.606   2.920
 3326SOL     OW10435   3.719   0.833   2.239
 3326SOL    HW110436   3.761   0.769   2.303
 3326SOL    HW210437   3.681   0.782   2.161
 3327SOL     OW10438   2.350   1.385   2.036
 3327SOL    HW110439   2.263   1.370   2.083
 3327SOL    HW210440   2.333   1.411   1.941
 3328SOL     OW10441   3.526   1.280   2.519
 3328SOL    HW110442   3.625   1.288   2.533
 3328SOL    HW210443   3.481   1.364   2.550
 3329SOL     OW10444   3.252   0.575   1.940
 3329SOL    HW110445   3.198   0.554   2.021
 3329SOL    HW210446   3.343   0.534   1.949
 3330SOL     OW10447   2.389   0.256   2.190
 3330SOL    HW110448   2.416   0.197   2.115
 3330SOL    HW210449   2.389   0.351   2.159
 3331SOL     OW10450   3.616   1.223   3.450
 3331SOL    HW110451   3.707   1.184   3.437
 3331SOL    HW210452   3.624   1.319   3.474
 3332SOL     OW10453   2.926   1.347   3.202
 3332SOL    HW110454   2.846   1.324   3.257
 3332SOL    HW210455   3.009   1.321   3.251
 3333SOL     OW10456   3.454   1.629   3.487
 3333SOL    HW110457   3.481   1.663   3.397
 3333SOL    HW210458   3.533   1.591   3.533
 3334SOL     OW10459   2.973   1.195   2.962
 3334SOL    HW110460   2.933   1.239   3.043
 3334SOL    HW210461   2.932   1.232   2.879
 3335SOL     OW10462   3.500   1.099   2.941
 3335SOL    HW110463   3.505   1.180   3.000
 3335SOL    HW210464   3.414   1.101   2.890
 3336SOL     OW10465   2.777   0.089   3.264
 3336SOL    HW110466   2.802   0.069   3.169
 3336SOL    HW210467   2.849   0.145   3.306
 3337SOL     OW10468   2.842   1.116   3.581
 3337SOL    HW110469   2.743   1.122   3.591
 3337SOL    HW210470   2.865   1.036   3.525
 3338SOL     OW10471   2.567   1.050   2.230
 3338SOL    HW110472   2.553   1.057   2.329
 3338SOL    HW210473   2.651   0.999   2.212
 3339SOL     OW10474   2.272   0.813   3.113
 3339SOL    HW110475   2.358   0.825   3.163
 3339SOL    HW210476   2.230   0.726   3.140
 3340SOL     OW10477   3.136   0.386   3.124
 3340SOL    HW110478   3.157   0.460   3.188
 3340SOL    HW210479   3.047   0.403   3.081
 3341SOL     OW10480   1.926   1.564   3.193
 3341SOL    HW110481   1.880   1.646   3.159
 3341SOL    HW210482   2.024   1.583   3.202
 3342SOL     OW10483   2.229   1.100   2.363
 3342SOL    HW110484   2.222   1.183   2.307
 3342SOL    HW210485   2.233   1.020   2.303
 3343SOL     OW10486   2.428   0.537   2.727
 3343SOL    HW110487   2.440   0.603   2.653
 3343SOL    HW210488   2.474   0.571   2.810
 3344SOL     OW10489   3.114   1.348   2.250
 3344SOL    HW110490   3.164   1.425   2.290
 3344SOL    HW210491   3.019   1.350   2.282
 3345SOL     OW10492   3.134   1.445   3.004
 3345SOL    HW110493   3.181   1.458   3.091
 3345SOL    HW210494   3.068   1.371   3.013
 3346SOL     OW10495   3.444   0.639   2.334
 3346SOL    HW110496   3.413   0.700   2.407
 3346SOL    HW210497   3.494   0.691   2.265
 3347SOL     OW10498   2.216   1.510   3.191
 3347SOL    HW110499   2.195   1.466   3.104
 3347SOL    HW210500   2.313   1.536   3.194
 3348SOL     OW10501   2.264   0.751   3.460
 3348SOL    HW110502   2.332   0.806   3.413
 3348SOL    HW210503   2.304   0.663   3.487
 3349SOL     OW10504   3.449   0.779   3.532
 3349SOL    HW110505   3.357   0.817   3.527
 3349SOL    HW210506   3.509   0.826   3.467
 3350SOL     OW10507   2.875   0.105   3.632
 3350SOL    HW110508   2.881   0.190   3.580
 3350SOL    HW210509   2.907   0.029   3.575
 3351SOL     OW10510   2.366   0.050   3.602
 3351SOL    HW110511   2.324  -0.007   3.532
 3351SOL    HW210512   2.300   0.119   3.634
 3352SOL     OW10513   2.435   0.870   2.891
 3352SOL    HW110514   2.479   0.959   2.882
 3352SOL    HW210515   2.372   0.870   2.968
 3353SOL     OW10516   3.222   0.862   2.907
 3353SOL    HW110517   3.147   0.862   2.841
 3353SOL    HW210518   3.259   0.770   2.916
 3354SOL     OW10519   3.071   0.525   2.137
 3354SOL    HW110520   3.084   0.441   2.191
 3354SOL    HW210521   3.042   0.599   2.197
 3355SOL     OW10522   2.169   0.213   3.093
 3355SOL    HW110523   2.146   0.250   3.183
 3355SOL    HW210524   2.139   0.118   3.087
 3356SOL     OW10525   1.899   1.310   3.144
 3356SOL    HW110526   1.952   1.261   3.212
 3356SOL    HW210527   1.921   1.408   3.149
 3357SOL     OW10528   2.594   0.634   2.926
 3357SOL    HW110529   2.653   0.608   2.850
 3357SOL    HW210530   2.566   0.730   2.915
 3358SOL     OW10531   3.590   0.935   3.716
 3358SOL    HW110532   3.544   0.928   3.627
 3358SOL    HW210533   3.528   0.979   3.782
 3359SOL     OW10534   2.169   0.063   2.480
 3359SOL    HW110535   2.158   0.157   2.513
 3359SOL    HW210536   2.164   0.000   2.557
 3360SOL     OW10537   3.484   0.367   2.236
 3360SOL    HW110538   3.486   0.291   2.300
 3360SOL    HW210539   3.436   0.444   2.276
 3361SOL     OW10540   2.885   0.766   2.828
 3361SOL    HW110541   2.900   0.787   2.924
 3361SOL    HW210542   2.855   0.671   2.819
 3362SOL     OW10543   2.842   1.573   3.562
 3362SOL    HW110544   2.822   1.617   3.474
 3362SOL    HW210545   2.881   1.482   3.546
 3363SOL     OW10546   3.721   1.518   3.467
 3363SOL    HW110547   3.735   1.545   3.372
 3363SOL    HW210548   3.804   1.540   3.520
 3364SOL     OW10549   2.212   0.898   3.666
 3364SOL    HW110550   2.288   0.942   3.714
 3364SOL    HW210551   2.247   0.851   3.584
 3365SOL     OW10552   3.402   0.274   1.987
 3365SOL    HW110553   3.341   0.199   2.010
 3365SOL    HW210554   3.424   0.326   2.070
 3366SOL     OW10555   3.165   0.838   1.904
 3366SOL    HW110556   3.199   0.745   1.919
 3366SOL    HW210557   3.183   0.865   1.809
 3367SOL     OW10558   2.930   1.333   2.711
 3367SOL    HW110559   2.937   1.249   2.656
 3367SOL    HW210560   2.992   1.402   2.675
 3368SOL     OW10561   2.181   0.810   2.811
 3368SOL    HW110562   2.274   0.846   2.816
 3368SOL    HW210563   2.175   0.725   2.863
 3369SOL     OW10564   2.201   0.509   2.868
 3369SOL    HW110565   2.149   0.426   2.851
 3369SOL    HW210566   2.278   0.514   2.804
 3370SOL     OW10567   3.000   0.380   3.540
 3370SOL    HW110568   2.955   0.443   3.604
 3370SOL    HW210569   3.093   0.411   3.523
 3371SOL     OW10570   3.022   0.207   3.339
 3371SOL    HW110571   3.022   0.271   3.416
 3371SOL    HW210572   3.050   0.255   3.256
 3372SOL     OW10573   1.870   1.326   2.062
 3372SOL    HW110574   1.777   1.347   2.031
 3372SOL    HW210575   1.880   1.227   2.075
 3373SOL     OW10576   1.950   1.801   2.789
 3373SOL    HW110577   1.908   1.715   2.762
 3373SOL    HW210578   2.044   1.804   2.755
 3374SOL     OW10579   2.366   1.568   2.772
 3374SOL    HW110580   2.432   1.642   2.781
 3374SOL    HW210581   2.410   1.489   2.730
 3375SOL     OW10582   2.864   0.796   3.100
 3375SOL    HW110583   2.905   0.764   3.186
 3375SOL    HW210584   2.768   0.769   3.097
 3376SOL     OW10585   1.902   0.544   2.976
 3376SOL    HW110586   1.987   0.511   2.935
 3376SOL    HW210587   1.915   0.559   3.074
 3377SOL     OW10588   2.051   0.520   3.584
 3377SOL    HW110589   2.110   0.480   3.514
 3377SOL    HW210590   1.993   0.591   3.543
 3378SOL     OW10591   3.231   0.950   3.522
 3378SOL    HW110592   3.270   1.039   3.542
 3378SOL    HW210593   3.241   0.930   3.425
 3379SOL     OW10594   2.677   0.572   2.187
 3379SOL    HW110595   2.684   0.483   2.141
 3379SOL    HW210596   2.583   0.606   2.179
 3380SOL     OW10597   3.519   0.604   3.068
 3380SOL    HW110598   3.481   0.535   3.130
 3380SOL    HW210599   3.601   0.568   3.024
 3381SOL     OW10600   2.114   1.564   3.606
 3381SOL    HW110601   2.084   1.621   3.682
 3381SOL    HW210602   2.107   1.467   3.632
 3382SOL     OW10603   2.533   0.464   3.131
 3382SOL    HW110604   2.499   0.375   3.101
 3382SOL    HW210605   2.559   0.518   3.051
 3383SOL     OW10606   2.792   1.678   3.327
 3383SOL    HW110607   2.768   1.660   3.232
 3383SOL    HW210608   2.822   1.772   3.337
 3384SOL     OW10609   2.335   0.500   2.053
 3384SOL    HW110610   2.396   0.580   2.057
 3384SOL    HW210611   2.240   0.531   2.060
 3385SOL     OW10612   2.021   1.137   3.328
 3385SOL    HW110613   2.043   1.076   3.404
 3385SOL    HW210614   2.031   1.088   3.242
 3386SOL     OW10615   3.209   1.059   3.096
 3386SOL    HW110616   3.233   0.996   3.022
 3386SOL    HW210617   3.119   1.099   3.078
 3387SOL     OW10618   3.164   0.855   2.171
 3387SOL    HW110619   3.078   0.824   2.213
 3387SOL    HW210620   3.160   0.841   2.072
 3388SOL     OW10621   3.621   1.747   3.016
 3388SOL    HW110622   3.682   1.777   2.943
 3388SOL    HW210623   3.583   1.658   2.994
 3389SOL     OW10624   3.114   1.731   2.990
 3389SOL    HW110625   3.198   1.736   2.936
 3389SOL    HW210626   3.091   1.635   3.008
 3390SOL     OW10627   1.945   1.258   2.884
 3390SOL    HW110628   1.940   1.257   2.984
 3390SOL    HW210629   1.862   1.217   2.846
 3391SOL     OW10630   2.550   1.662   3.578
 3391SOL    HW110631   2.494   1.743   3.587
 3391SOL    HW210632   2.602   1.666   3.492
 3392SOL     OW10633   3.588   0.135   2.385
 3392SOL    HW110634   3.661   0.118   2.318
 3392SOL    HW210635   3.557   0.048   2.423
 3393SOL     OW10636   3.250   1.573   2.339
 3393SOL    HW110637   3.317   1.585   2.265
 3393SOL    HW210638   3.210   1.662   2.362
 3394SOL     OW10639   1.992   1.794   3.713
 3394SOL    HW110640   1.951   1.720   3.766
 3394SOL    HW210641   2.056   1.845   3.771
 3395SOL     OW10642   3.142   0.927   2.534
 3395SOL    HW110643   3.202   0.846   2.536
 3395SOL    HW210644   3.182   0.996   2.474
 3396SOL     OW10645   2.692   1.273   3.284
 3396SOL    HW110646   2.687   1.306   3.379
 3396SOL    HW210647   2.606   1.292   3.238
 3397SOL     OW10648   2.534   1.616   2.016
 3397SOL    HW110649   2.543   1.626   1.917
 3397SOL    HW210650   2.494   1.527   2.037
 3398SOL     OW10651   3.512   1.720   3.256
 3398SOL    HW110652   3.565   1.730   3.172
 3398SOL    HW210653   3.485   1.810   3.290
 3399SOL     OW10654   3.703   0.175   2.825
 3399SOL    HW110655   3.742   0.090   2.789
 3399SOL    HW210656   3.605   0.177   2.806
 3400SOL     OW10657   2.125   0.326   2.582
 3400SOL    HW110658   2.046   0.377   2.548
 3400SOL    HW210659   2.116   0.311   2.680
 3401SOL     OW10660   3.056   1.612   1.893
 3401SOL    HW110661   3.062   1.519   1.930
 3401SOL    HW210662   2.997   1.612   1.813
 3402SOL     OW10663   2.684   1.002   3.234
 3402SOL    HW110664   2.724   1.001   3.142
 3402SOL    HW210665   2.694   1.094   3.274
 3403SOL     OW10666   2.778   0.910   2.153
 3403SOL    HW110667   2.841   0.948   2.085
 3403SOL    HW210668   2.818   0.827   2.192
 3404SOL     OW10669   3.366   1.607   1.906
 3404SOL    HW110670   3.274   1.644   1.913
 3404SOL    HW210671   3.404   1.627   1.816
 3405SOL     OW10672   2.234   1.288   3.352
 3405SOL    HW110673   2.221   1.381   3.318
 3405SOL    HW210674   2.150   1.236   3.339
 3406SOL     OW10675   3.476   1.292   3.151
 3406SOL    HW110676   3.536   1.295   3.231
 3406SOL    HW210677   3.401   1.356   3.164
 3407SOL     OW10678   2.901   1.098   2.558
 3407SOL    HW110679   2.831   1.051   2.612
 3407SOL    HW210680   2.960   1.030   2.515
 3408SOL     OW10681   2.876   0.236   2.833
 3408SOL    HW110682   2.868   0.200   2.740
 3408SOL    HW210683   2.874   0.160   2.898
 3409SOL     OW10684   2.452   1.487   2.353
 3409SOL    HW110685   2.494   1.429   2.283
 3409SOL    HW210686   2.408   1.566   2.309
 3410SOL     OW10687   3.571   0.385   3.243
 3410SOL    HW110688   3.644   0.454   3.247
 3410SOL    HW210689   3.599   0.310   3.184
 3411SOL     OW10690   2.117   1.348   2.152
 3411SOL    HW110691   2.021   1.349   2.125
 3411SOL    HW210692   2.129   1.401   2.236
 3412SOL     OW10693   1.967   1.013   3.588
 3412SOL    HW110694   1.890   0.980   3.642
 3412SOL    HW210695   2.052   0.983   3.630
 3413SOL     OW10696   2.534   0.203   3.351
 3413SOL    HW110697   2.624   0.187   3.311
 3413SOL    HW210698   2.542   0.208   3.450
 3414SOL     OW10699   1.937   0.345   1.895
 3414SOL    HW110700   1.845   0.317   1.866
 3414SOL    HW210701   1.968   0.422   1.839
 3415SOL     OW10702   3.302   0.856   3.260
 3415SOL    HW110703   3.245   0.908   3.197
 3415SOL    HW210704   3.398   0.868   3.236
 3416SOL     OW10705   1.934   0.166   2.180
 3416SOL    HW110706   1.917   0.249   2.126
 3416SOL    HW210707   2.024   0.129   2.158
 3417SOL     OW10708   3.045   1.335   1.981
 3417SOL    HW110709   2.946   1.324   1.983
 3417SOL    HW210710   3.079   1.350   2.074
 3418SOL     OW10711   2.475   0.842   3.293
 3418SOL    HW110712   2.531   0.923   3.276
 3418SOL    HW210713   2.534   0.762   3.296
 3419SOL     OW10714   3.355   1.767   2.821
 3419SOL    HW110715   3.388   1.831   2.752
 3419SOL    HW210716   3.421   1.761   2.896
 3420SOL     OW10717   2.578   0.565   3.570
 3420SOL    HW110718   2.597   0.630   3.644
 3420SOL    HW210719   2.638   0.485   3.579
 3421SOL     OW10720   3.312   1.220   3.495
 3421SOL    HW110721   3.303   1.210   3.594
 3421SOL    HW210722   3.408   1.213   3.469
 3422SOL     OW10723   2.252   1.741   3.422
 3422SOL    HW110724   2.161   1.782   3.420
 3422SOL    HW210725   2.245   1.647   3.454
 3423SOL     OW10726   3.536   0.883   3.116
 3423SOL    HW110727   3.509   0.794   3.079
 3423SOL    HW210728   3.537   0.951   3.043
 3424SOL     OW10729   3.087   0.325   2.311
 3424SOL    HW110730   3.152   0.251   2.300
 3424SOL    HW210731   3.107   0.375   2.395
 3425SOL     OW10732   2.456   0.745   2.514
 3425SOL    HW110733   2.506   0.830   2.495
 3425SOL    HW210734   2.368   0.747   2.466
 3426SOL     OW10735   3.639   0.342   3.504
 3426SOL    HW110736   3.622   0.373   3.410
 3426SOL    HW210737   3.555   0.305   3.542
 3427SOL     OW10738   3.592   0.934   3.379
 3427SOL    HW110739   3.630   1.025   3.394
 3427SOL    HW210740   3.584   0.917   3.280
 3428SOL     OW10741   2.721   1.374   1.878
 3428SOL    HW110742   2.675   1.389   1.966
 3428SOL    HW210743   2.765   1.459   1.848
 3429SOL     OW10744   2.523   1.790   2.815
 3429SOL    HW110745   2.477   1.878   2.802
 3429SOL    HW210746   2.622   1.802   2.808
 3430SOL     OW10747   2.721   0.956   2.723
 3430SOL    HW110748   2.775   0.887   2.771
 3430SOL    HW210749   2.689   1.025   2.789
 3431SOL     OW10750   2.945   0.984   1.949
 3431SOL    HW110751   2.922   1.037   1.867
 3431SOL    HW210752   3.026   0.928   1.930
 3432SOL     OW10753   3.723   1.569   2.713
 3432SOL    HW110754   3.652   1.557   2.643
 3432SOL    HW210755   3.724   1.490   2.773
 3433SOL     OW10756   2.083   1.314   3.706
 3433SOL    HW110757   2.018   1.241   3.685
 3433SOL    HW210758   2.087   1.328   3.804
 3434SOL     OW10759   1.941   1.240   2.515
 3434SOL    HW110760   1.940   1.193   2.603
 3434SOL    HW210761   2.023   1.212   2.464
 3435SOL     OW10762   2.534   1.391   3.486
 3435SOL    HW110763   2.456   1.341   3.524
 3435SOL    HW210764   2.531   1.486   3.517
 3436SOL     OW10765   3.686   0.192   3.089
 3436SOL    HW110766   3.682   0.102   3.133
 3436SOL    HW210767   3.689   0.181   2.990
 3437SOL     OW10768   2.290   0.424   2.382
 3437SOL    HW110769   2.320   0.352   2.320
 3437SOL    HW210770   2.251   0.384   2.465
 3438SOL     OW10771   3.567   1.487   2.966
 3438SOL    HW110772   3.474   1.462   2.939
 3438SOL    HW210773   3.593   1.437   3.048
 3439SOL     OW10774   2.179   0.547   3.142
 3439SOL    HW110775   2.217   0.488   3.214
 3439SOL    HW210776   2.219   0.521   3.054
 3440SOL     OW10777   2.674   1.586   2.549
 3440SOL    HW110778   2.706   1.596   2.455
 3440SOL    HW210779   2.595   1.524   2.551
 3441SOL     OW10780   3.286   0.214   2.974
 3441SOL    HW110781   3.338   0.149   3.029
 3441SOL    HW210782   3.237   0.277   3.035
 3442SOL     OW10783   2.863   0.034   3.016
 3442SOL    HW110784   2.800  -0.038   2.985
 3442SOL    HW210785   2.956  -0.002   3.016
 3443SOL     OW10786   2.632   1.330   2.163
 3443SOL    HW110787   2.586   1.243   2.180
 3443SOL    HW210788   2.723   1.327   2.204
 3444SOL     OW10789   2.480   1.567   3.146
 3444SOL    HW110790   2.475   1.649   3.203
 3444SOL    HW210791   2.569   1.564   3.101
 3445SOL     OW10792   3.214   0.052   2.030
 3445SOL    HW110793   3.249   0.011   1.946
 3445SOL    HW210794   3.124   0.014   2.050
 3446SOL     OW10795   3.162   0.453   2.553
 3446SOL    HW110796   3.103   0.533   2.557
 3446SOL    HW210797   3.177   0.418   2.646
 3447SOL     OW10798   3.455   0.221   2.744
 3447SOL    HW110799   3.371   0.220   2.798
 3447SOL    HW210800   3.457   0.304   2.688
 3448SOL     OW10801   1.901   1.077   2.162
 3448SOL    HW110802   2.000   1.066   2.153
 3448SOL    HW210803   1.861   0.991   2.194
 3449SOL     OW10804   2.737   1.646   2.199
 3449SOL    HW110805   2.660   1.611   2.145
 3449SOL    HW210806   2.705   1.717   2.261
 3450SOL     OW10807   2.092   0.628   3.837
 3450SOL    HW110808   1.999   0.626   3.874
 3450SOL    HW210809   2.093   0.589   3.745
 3451SOL     OW10810   2.087   0.275   4.720
 3451SOL    HW110811   2.122   0.258   4.812
 3451SOL    HW210812   1.999   0.230   4.708
 3452SOL     OW10813   1.881   0.368   4.371
 3452SOL    HW110814   1.799   0.411   4.410
 3452SOL    HW210815   1.853   0.295   4.308
 3453SOL     OW10816   2.431   1.275   4.889
 3453SOL    HW110817   2.338   1.268   4.852
 3453SOL    HW210818   2.442   1.364   4.933
 3454SOL     OW10819   3.417   1.511   4.427
 3454SOL    HW110820   3.360   1.495   4.508
 3454SOL    HW210821   3.358   1.521   4.347
 3455SOL     OW10822   2.997   0.703   4.441
 3455SOL    HW110823   3.054   0.781   4.416
 3455SOL    HW210824   2.937   0.729   4.517
 3456SOL     OW10825   3.617   0.607   3.955
 3456SOL    HW110826   3.605   0.594   3.856
 3456SOL    HW210827   3.587   0.526   4.004
 3457SOL     OW10828   2.630   1.144   4.747
 3457SOL    HW110829   2.552   1.161   4.807
 3457SOL    HW210830   2.664   1.231   4.711
 3458SOL     OW10831   2.712   0.798   5.547
 3458SOL    HW110832   2.708   0.874   5.612
 3458SOL    HW210833   2.734   0.834   5.456
 3459SOL     OW10834   2.547   1.012   4.389
 3459SOL    HW110835   2.616   0.996   4.459
 3459SOL    HW210836   2.474   1.069   4.427
 3460SOL     OW10837   2.548   1.161   5.527
 3460SOL    HW110838   2.608   1.240   5.541
 3460SOL    HW210839   2.462   1.192   5.486
 3461SOL     OW10840   2.197   1.435   4.785
 3461SOL    HW110841   2.119   1.404   4.732
 3461SOL    HW210842   2.255   1.493   4.728
 3462SOL     OW10843   3.322   1.505   5.063
 3462SOL    HW110844   3.346   1.599   5.089
 3462SOL    HW210845   3.306   1.451   5.145
 3463SOL     OW10846   2.300   0.392   5.223
 3463SOL    HW110847   2.382   0.336   5.232
 3463SOL    HW210848   2.219   0.334   5.227
 3464SOL     OW10849   3.465   0.447   4.461
 3464SOL    HW110850   3.391   0.493   4.411
 3464SOL    HW210851   3.516   0.515   4.514
 3465SOL     OW10852   2.093   1.713   4.207
 3465SOL    HW110853   2.127   1.790   4.261
 3465SOL    HW210854   2.137   1.713   4.117
 3466SOL     OW10855   2.989   1.341   5.414
 3466SOL    HW110856   3.036   1.341   5.502
 3466SOL    HW210857   2.941   1.254   5.403
 3467SOL     OW10858   2.092   1.434   4.262
 3467SOL    HW110859   2.066   1.530   4.262
 3467SOL    HW210860   2.021   1.380   4.307
 3468SOL     OW10861   2.102   1.091   4.610
 3468SOL    HW110862   2.116   1.007   4.662
 3468SOL    HW210863   2.047   1.155   4.665
 3469SOL     OW10864   2.468   0.964   3.847
 3469SOL    HW110865   2.475   1.048   3.793
 3469SOL    HW210866   2.514   0.977   3.935
 3470SOL     OW10867   3.456   0.114   5.204
 3470SOL    HW110868   3.438   0.181   5.132
 3470SOL    HW210869   3.453   0.160   5.293
 3471SOL     OW10870   1.984   0.643   4.287
 3471SOL    HW110871   1.939   0.555   4.304
 3471SOL    HW210872   1.983   0.697   4.371
 3472SOL     OW10873   3.704   1.767   4.083
 3472SOL    HW110874   3.758   1.738   4.163
 3472SOL    HW210875   3.734   1.857   4.054
 3473SOL     OW10876   1.889   1.596   3.841
 3473SOL    HW110877   1.870   1.500   3.862
 3473SOL    HW210878   1.856   1.654   3.916
 3474SOL     OW10879   3.551   0.922   4.336
 3474SOL    HW110880   3.646   0.893   4.344
 3474SOL    HW210881   3.543   0.987   4.261
 3475SOL     OW10882   3.503   1.108   4.156
 3475SOL    HW110883   3.589   1.110   4.104
 3475SOL    HW210884   3.517   1.155   4.244
 3476SOL     OW10885   1.975   0.737   5.321
 3476SOL    HW110886   2.063   0.724   5.366
 3476SOL    HW210887   1.962   0.834   5.299
 3477SOL     OW10888   2.475   1.365   4.450
 3477SOL    HW110889   2.426   1.278   4.459
 3477SOL    HW210890   2.452   1.408   4.363
 3478SOL     OW10891   3.155   1.228   5.147
 3478SOL    HW110892   3.192   1.155   5.089
 3478SOL    HW210893   3.207   1.233   5.232
 3479SOL     OW10894   2.671   0.004   4.226
 3479SOL    HW110895   2.711   0.095   4.217
 3479SOL    HW210896   2.571   0.012   4.232
 3480SOL     OW10897   2.059   0.976   4.988
 3480SOL    HW110898   2.148   0.931   4.974
 3480SOL    HW210899   1.986   0.911   4.969
 3481SOL     OW10900   3.387   0.999   3.914
 3481SOL    HW110901   3.324   0.923   3.927
 3481SOL    HW210902   3.435   1.017   4.000
 3482SOL     OW10903   3.049   1.792   5.340
 3482SOL    HW110904   3.073   1.852   5.264
 3482SOL    HW210905   3.056   1.697   5.310
 3483SOL     OW10906   2.179   0.251   5.525
 3483SOL    HW110907   2.250   0.322   5.531
 3483SOL    HW210908   2.091   0.290   5.553
 3484SOL     OW10909   3.328   1.417   4.677
 3484SOL    HW110910   3.269   1.423   4.757
 3484SOL    HW210911   3.313   1.329   4.631
 3485SOL     OW10912   3.529   1.714   4.296
 3485SOL    HW110913   3.488   1.691   4.208
 3485SOL    HW210914   3.511   1.640   4.361
 3486SOL     OW10915   2.460   0.729   3.994
 3486SOL    HW110916   2.484   0.798   3.926
 3486SOL    HW210917   2.382   0.762   4.048
 3487SOL     OW10918   3.143   0.345   4.668
 3487SOL    HW110919   3.057   0.295   4.655
 3487SOL    HW210920   3.205   0.291   4.724
 3488SOL     OW10921   3.438   1.662   4.031
 3488SOL    HW110922   3.527   1.708   4.034
 3488SOL    HW210923   3.417   1.638   3.936
 3489SOL     OW10924   2.669   0.605   5.189
 3489SOL    HW110925   2.622   0.602   5.278
 3489SOL    HW210926   2.618   0.550   5.123
 3490SOL     OW10927   3.256   0.469   5.398
 3490SOL    HW110928   3.236   0.512   5.486
 3490SOL    HW210929   3.334   0.407   5.407
 3491SOL     OW10930   2.835   0.890   5.296
 3491SOL    HW110931   2.881   0.806   5.267
 3491SOL    HW210932   2.779   0.924   5.221
 3492SOL     OW10933   2.853   0.410   4.966
 3492SOL    HW110934   2.776   0.444   5.020
 3492SOL    HW210935   2.819   0.359   4.887
 3493SOL     OW10936   2.903   0.701   4.153
 3493SOL    HW110937   2.929   0.697   4.249
 3493SOL    HW210938   2.818   0.650   4.139
 3494SOL     OW10939   1.938   0.811   4.513
 3494SOL    HW110940   2.037   0.799   4.522
 3494SOL    HW210941   1.914   0.906   4.534
 3495SOL     OW10942   2.727   0.348   3.919
 3495SOL    HW110943   2.786   0.411   3.870
 3495SOL    HW210944   2.746   0.254   3.890
 3496SOL     OW10945   3.581   0.585   5.555
 3496SOL    HW110946   3.555   0.674   5.519
 3496SOL    HW210947   3.579   0.517   5.482
 3497SOL     OW10948   3.224   1.144   4.269
 3497SOL    HW110949   3.307   1.115   4.221
 3497SOL    HW210950   3.175   1.211   4.213
 3498SOL     OW10951   2.412   0.196   4.609
 3498SOL    HW110952   2.407   0.191   4.709
 3498SOL    HW210953   2.414   0.292   4.580
 3499SOL     OW10954   2.870   1.456   4.201
 3499SOL    HW110955   2.824   1.528   4.149
 3499SOL    HW210956   2.866   1.476   4.299
 3500SOL     OW10957   2.213   1.801   4.577
 3500SOL    HW110958   2.263   1.715   4.583
 3500SOL    HW210959   2.278   1.878   4.574
 3501SOL     OW10960   3.657   1.066   4.597
 3501SOL    HW110961   3.595   1.051   4.521
 3501SOL    HW210962   3.605   1.077   4.682
 3502SOL     OW10963   3.089   1.550   5.230
 3502SOL    HW110964   3.095   1.473   5.294
 3502SOL    HW210965   3.037   1.524   5.150
 3503SOL     OW10966   2.183   0.943   3.966
 3503SOL    HW110967   2.265   0.982   3.924
 3503SOL    HW210968   2.156   0.861   3.917
 3504SOL     OW10969   3.320   0.735   4.452
 3504SOL    HW110970   3.315   0.670   4.527
 3504SOL    HW210971   3.400   0.794   4.465
 3505SOL     OW10972   2.323   1.266   5.451
 3505SOL    HW110973   2.273   1.267   5.365
 3505SOL    HW210974   2.260   1.248   5.527
 3506SOL     OW10975   2.973   1.776   3.961
 3506SOL    HW110976   2.913   1.714   4.011
 3506SOL    HW210977   3.004   1.732   3.876
 3507SOL     OW10978   2.064   0.285   5.222
 3507SOL    HW110979   1.984   0.345   5.209
 3507SOL    HW210980   2.054   0.236   5.308
 3508SOL     OW10981   3.494   1.377   3.805
 3508SOL    HW110982   3.462   1.471   3.795
 3508SOL    HW210983   3.418   1.314   3.793
 3509SOL     OW10984   2.326   1.743   4.047
 3509SOL    HW110985   2.359   1.782   4.133
 3509SOL    HW210986   2.402   1.736   3.982
 3510SOL     OW10987   3.262   0.107   4.150
 3510SOL    HW110988   3.238   0.070   4.060
 3510SOL    HW210989   3.361   0.123   4.154
 3511SOL     OW10990   2.802   1.698   4.628
 3511SOL    HW110991   2.882   1.641   4.649
 3511SOL    HW210992   2.753   1.658   4.551
 3512SOL     OW10993   2.244   0.700   4.204
 3512SOL    HW110994   2.289   0.610   4.201
 3512SOL    HW210995   2.150   0.689   4.237
 3513SOL     OW10996   3.409   0.222   5.453
 3513SOL    HW110997   3.404   0.259   5.545
 3513SOL    HW210998   3.337   0.153   5.441
 3514SOL     OW10999   2.476   0.122   3.841
 3514SOL    HW111000   2.574   0.100   3.848
 3514SOL    HW211001   2.445   0.105   3.748
 3515SOL     OW11002   2.643   0.264   5.473
 3515SOL    HW111003   2.710   0.203   5.516
 3515SOL    HW211004   2.570   0.283   5.538
 3516SOL     OW11005   2.750   1.514   4.919
 3516SOL    HW111006   2.727   1.489   4.825
 3516SOL    HW211007   2.811   1.445   4.958
 3517SOL     OW11008   3.213   0.590   5.157
 3517SOL    HW111009   3.241   0.547   5.242
 3517SOL    HW211010   3.238   0.686   5.158
 3518SOL     OW11011   2.665   1.402   4.648
 3518SOL    HW111012   2.755   1.416   4.606
 3518SOL    HW211013   2.594   1.404   4.577
 3519SOL     OW11014   2.784   0.503   4.623
 3519SOL    HW111015   2.759   0.494   4.527
 3519SOL    HW211016   2.832   0.421   4.654
 3520SOL     OW11017   2.401   0.064   4.236
 3520SOL    HW111018   2.320   0.065   4.294
 3520SOL    HW211019   2.404   0.147   4.181
 3521SOL     OW11020   3.296   1.188   3.765
 3521SOL    HW111021   3.328   1.112   3.822
 3521SOL    HW211022   3.204   1.215   3.795
 3522SOL     OW11023   2.159   0.035   3.895
 3522SOL    HW111024   2.208   0.119   3.874
 3522SOL    HW211025   2.221  -0.030   3.940
 3523SOL     OW11026   2.797   0.236   4.204
 3523SOL    HW111027   2.749   0.277   4.126
 3523SOL    HW211028   2.896   0.234   4.185
 3524SOL     OW11029   2.938   0.683   5.188
 3524SOL    HW111030   2.858   0.622   5.191
 3524SOL    HW211031   3.019   0.630   5.164
 3525SOL     OW11032   3.089   1.570   4.517
 3525SOL    HW111033   3.110   1.644   4.452
 3525SOL    HW211034   3.157   1.570   4.590
 3526SOL     OW11035   2.321   1.152   4.465
 3526SOL    HW111036   2.250   1.125   4.530
 3526SOL    HW211037   2.295   1.124   4.372
 3527SOL     OW11038   3.133   1.797   4.315
 3527SOL    HW111039   3.177   1.861   4.251
 3527SOL    HW211040   3.083   1.849   4.385
 3528SOL     OW11041   2.894   0.549   3.740
 3528SOL    HW111042   2.853   0.631   3.701
 3528SOL    HW211043   2.958   0.575   3.813
 3529SOL     OW11044   1.940   0.556   5.110
 3529SOL    HW111045   2.032   0.555   5.069
 3529SOL    HW211046   1.934   0.630   5.177
 3530SOL     OW11047   2.423   0.222   4.871
 3530SOL    HW111048   2.461   0.138   4.908
 3530SOL    HW211049   2.335   0.241   4.915
 3531SOL     OW11050   2.728   0.454   4.366
 3531SOL    HW111051   2.696   0.526   4.304
 3531SOL    HW211052   2.752   0.373   4.313
 3532SOL     OW11053   2.879   0.039   4.477
 3532SOL    HW111054   2.807   0.044   4.408
 3532SOL    HW211055   2.855  -0.030   4.546
 3533SOL     OW11056   3.291   1.173   4.591
 3533SOL    HW111057   3.236   1.089   4.584
 3533SOL    HW211058   3.317   1.202   4.499
 3534SOL     OW11059   3.328   0.590   4.716
 3534SOL    HW111060   3.298   0.495   4.723
 3534SOL    HW211061   3.401   0.606   4.782
 3535SOL     OW11062   3.719   0.833   4.101
 3535SOL    HW111063   3.761   0.769   4.165
 3535SOL    HW211064   3.681   0.782   4.023
 3536SOL     OW11065   2.350   1.385   3.898
 3536SOL    HW111066   2.263   1.370   3.945
 3536SOL    HW211067   2.333   1.411   3.803
 3537SOL     OW11068   3.526   1.280   4.381
 3537SOL    HW111069   3.625   1.288   4.395
 3537SOL    HW211070   3.481   1.364   4.412
 3538SOL     OW11071   3.252   0.575   3.802
 3538SOL    HW111072   3.198   0.554   3.883
 3538SOL    HW211073   3.343   0.534   3.811
 3539SOL     OW11074   2.389   0.256   4.052
 3539SOL    HW111075   2.416   0.197   3.977
 3539SOL    HW211076   2.389   0.351   4.021
 3540SOL     OW11077   3.616   1.223   5.312
 3540SOL    HW111078   3.707   1.184   5.299
 3540SOL    HW211079   3.624   1.319   5.336
 3541SOL     OW11080   2.926   1.347   5.064
 3541SOL    HW111081   2.846   1.324   5.119
 3541SOL    HW211082   3.009   1.321   5.113
 3542SOL     OW11083   3.454   1.629   5.349
 3542SOL    HW111084   3.481   1.663   5.259
 3542SOL    HW211085   3.533   1.591   5.395
 3543SOL     OW11086   2.973   1.195   4.824
 3543SOL    HW111087   2.933   1.239   4.905
 3543SOL    HW211088   2.932   1.232   4.741
 3544SOL     OW11089   3.500   1.099   4.803
 3544SOL    HW111090   3.505   1.180   4.862
 3544SOL    HW211091   3.414   1.101   4.752
 3545SOL     OW11092   2.777   0.089   5.126
 3545SOL    HW111093   2.802   0.069   5.031
 3545SOL    HW211094   2.849   0.145   5.168
 3546SOL     OW11095   2.842   1.116   5.443
 3546SOL    HW111096   2.743   1.122   5.453
 3546SOL    HW211097   2.865   1.036   5.387
 3547SOL     OW11098   2.567   1.050   4.092
 3547SOL    HW111099   2.553   1.057   4.191
 3547SOL    HW211100   2.651   0.999   4.074
 3548SOL     OW11101   2.272   0.813   4.975
 3548SOL    HW111102   2.358   0.825   5.025
 3548SOL    HW211103   2.230   0.726   5.002
 3549SOL     OW11104   3.136   0.386   4.986
 3549SOL    HW111105   3.157   0.460   5.050
 3549SOL    HW211106   3.047   0.403   4.943
 3550SOL     OW11107   2.229   1.100   4.225
 3550SOL    HW111108   2.222   1.183   4.169
 3550SOL    HW211109   2.233   1.020   4.165
 3551SOL     OW11110   2.428   0.537   4.589
 3551SOL    HW111111   2.440   0.603   4.515
 3551SOL    HW211112   2.474   0.571   4.672
 3552SOL     OW11113   3.114   1.348   4.112
 3552SOL    HW111114   3.164   1.425   4.152
 3552SOL    HW211115   3.019   1.350   4.144
 3553SOL     OW11116   3.134   1.445   4.866
 3553SOL    HW111117   3.181   1.458   4.953
 3553SOL    HW211118   3.068   1.371   4.875
 3554SOL     OW11119   3.444   0.639   4.196
 3554SOL    HW111120   3.413   0.700   4.269
 3554SOL    HW211121   3.494   0.691   4.127
 3555SOL     OW11122   2.216   1.510   5.053
 3555SOL    HW111123   2.195   1.466   4.966
 3555SOL    HW211124   2.313   1.536   5.056
 3556SOL     OW11125   2.264   0.751   5.322
 3556SOL    HW111126   2.332   0.806   5.275
 3556SOL    HW211127   2.304   0.663   5.349
 3557SOL     OW11128   3.449   0.779   5.394
 3557SOL    HW111129   3.357   0.817   5.389
 3557SOL    HW211130   3.509   0.826   5.329
 3558SOL     OW11131   2.875   0.105   5.494
 3558SOL    HW111132   2.881   0.190   5.442
 3558SOL    HW211133   2.907   0.029   5.437
 3559SOL     OW11134   2.366   0.050   5.464
 3559SOL    HW111135   2.324  -0.007   5.394
 3559SOL    HW211136   2.300   0.119   5.496
 3560SOL     OW11137   2.435   0.870   4.753
 3560SOL    HW111138   2.479   0.959   4.744
 3560SOL    HW211139   2.372   0.870   4.830
 3561SOL     OW11140   3.222   0.862   4.769
 3561SOL    HW111141   3.147   0.862   4.703
 3561SOL    HW211142   3.259   0.770   4.778
 3562SOL     OW11143   3.071   0.525   3.999
 3562SOL    HW111144   3.084   0.441   4.053
 3562SOL    HW211145   3.042   0.599   4.059
 3563SOL     OW11146   2.169   0.213   4.955
 3563SOL    HW111147   2.146   0.250   5.045
 3563SOL    HW211148   2.139   0.118   4.949
 3564SOL     OW11149   1.899   1.310   5.006
 3564SOL    HW111150   1.952   1.261   5.074
 3564SOL    HW211151   1.921   1.408   5.011
 3565SOL     OW11152   2.594   0.634   4.788
 3565SOL    HW111153   2.653   0.608   4.712
 3565SOL    HW211154   2.566   0.730   4.777
 3566SOL     OW11155   3.590   0.935   5.578
 3566SOL    HW111156   3.544   0.928   5.489
 3566SOL    HW211157   3.528   0.979   5.644
 3567SOL     OW11158   2.169   0.063   4.342
 3567SOL    HW111159   2.158   0.157   4.375
 3567SOL    HW211160   2.164   0.000   4.419
 3568SOL     OW11161   3.484   0.367   4.098
 3568SOL    HW111162   3.486   0.291   4.162
 3568SOL    HW211163   3.436   0.444   4.138
 3569SOL     OW11164   2.885   0.766   4.690
 3569SOL    HW111165   2.900   0.787   4.786
 3569SOL    HW211166   2.855   0.671   4.681
 3570SOL     OW11167   2.842   1.573   5.424
 3570SOL    HW111168   2.822   1.617   5.336
 3570SOL    HW211169   2.881   1.482   5.408
 3571SOL     OW11170   3.721   1.518   5.329
 3571SOL    HW111171   3.735   1.545   5.234
 3571SOL    HW211172   3.804   1.540   5.382
 3572SOL     OW11173   2.212   0.898   5.528
 3572SOL    HW111174   2.288   0.942   5.576
 3572SOL    HW211175   2.247   0.851   5.446
 3573SOL     OW11176   3.402   0.274   3.849
 3573SOL    HW111177   3.341   0.199   3.872
 3573SOL    HW211178   3.424   0.326   3.932
 3574SOL     OW11179   3.165   0.838   3.766
 3574SOL    HW111180   3.199   0.745   3.781
 3574SOL    HW211181   3.183   0.865   3.671
 3575SOL     OW11182   2.930   1.333   4.573
 3575SOL    HW111183   2.937   1.249   4.518
 3575SOL    HW211184   2.992   1.402   4.537
 3576SOL     OW11185   2.181   0.810   4.673
 3576SOL    HW111186   2.274   0.846   4.678
 3576SOL    HW211187   2.175   0.725   4.725
 3577SOL     OW11188   2.201   0.509   4.730
 3577SOL    HW111189   2.149   0.426   4.713
 3577SOL    HW211190   2.278   0.514   4.666
 3578SOL     OW11191   3.000   0.380   5.402
 3578SOL    HW111192   2.955   0.443   5.466
 3578SOL    HW211193   3.093   0.411   5.385
 3579SOL     OW11194   3.022   0.207   5.201
 3579SOL    HW111195   3.022   0.271   5.278
 3579SOL    HW211196   3.050   0.255   5.118
 3580SOL     OW11197   1.870   1.326   3.924
 3580SOL    HW111198   1.777   1.347   3.893
 3580SOL    HW211199   1.880   1.227   3.937
 3581SOL     OW11200   2.366   1.568   4.634
 3581SOL    HW111201   2.432   1.642   4.643
 3581SOL    HW211202   2.410   1.489   4.592
 3582SOL     OW11203   2.864   0.796   4.962
 3582SOL    HW111204   2.905   0.764   5.048
 3582SOL    HW211205   2.768   0.769   4.959
 3583SOL     OW11206   1.902   0.544   4.838
 3583SOL    HW111207   1.987   0.511   4.797
 3583SOL    HW211208   1.915   0.559   4.936
 3584SOL     OW11209   2.051   0.520   5.446
 3584SOL    HW111210   2.110   0.480   5.376
 3584SOL    HW211211   1.993   0.591   5.405
 3585SOL     OW11212   3.231   0.950   5.384
 3585SOL    HW111213   3.270   1.039   5.404
 3585SOL    HW211214   3.241   0.930   5.287
 3586SOL     OW11215   2.677   0.572   4.049
 3586SOL    HW111216   2.684   0.483   4.003
 3586SOL    HW211217   2.583   0.606   4.041
 3587SOL     OW11218   3.519   0.604   4.930
 3587SOL    HW111219   3.481   0.535   4.992
 3587SOL    HW211220   3.601   0.568   4.886
 3588SOL     OW11221   2.114   1.564   5.468
 3588SOL    HW111222   2.084   1.621   5.544
 3588SOL    HW211223   2.107   1.467   5.494
 3589SOL     OW11224   2.533   0.464   4.993
 3589SOL    HW111225   2.499   0.375   4.963
 3589SOL    HW211226   2.559   0.518   4.913
 3590SOL     OW11227   2.792   1.678   5.189
 3590SOL    HW111228   2.768   1.660   5.094
 3590SOL    HW211229   2.822   1.772   5.199
 3591SOL     OW11230   2.335   0.500   3.915
 3591SOL    HW111231   2.396   0.580   3.919
 3591SOL    HW211232   2.240   0.531   3.922
 3592SOL     OW11233   2.021   1.137   5.190
 3592SOL    HW111234   2.043   1.076   5.266
 3592SOL    HW211235   2.031   1.088   5.104
 3593SOL     OW11236   3.209   1.059   4.958
 3593SOL    HW111237   3.233   0.996   4.884
 3593SOL    HW211238   3.119   1.099   4.940
 3594SOL     OW11239   3.164   0.855   4.033
 3594SOL    HW111240   3.078   0.824   4.075
 3594SOL    HW211241   3.160   0.841   3.934
 3595SOL     OW11242   3.621   1.747   4.878
 3595SOL    HW111243   3.682   1.777   4.805
 3595SOL    HW211244   3.583   1.658   4.856
 3596SOL     OW11245   3.114   1.731   4.852
 3596SOL    HW111246   3.198   1.736   4.798
 3596SOL    HW211247   3.091   1.635   4.870
 3597SOL     OW11248   1.945   1.258   4.746
 3597SOL    HW111249   1.940   1.257   4.846
 3597SOL    HW211250   1.862   1.217   4.708
 3598SOL     OW11251   2.550   1.662   5.440
 3598SOL    HW111252   2.494   1.743   5.449
 3598SOL    HW211253   2.602   1.666   5.354
 3599SOL     OW11254   3.588   0.135   4.247
 3599SOL    HW111255   3.661   0.118   4.180
 3599SOL    HW211256   3.557   0.048   4.285
 3600SOL     OW11257   3.250   1.573   4.201
 3600SOL    HW111258   3.317   1.585   4.127
 3600SOL    HW211259   3.210   1.662   4.224
 3601SOL     OW11260   1.992   1.794   5.575
 3601SOL    HW111261   1.951   1.720   5.628
 3601SOL    HW211262   2.056   1.845   5.633
 3602SOL     OW11263   3.142   0.927   4.396
 3602SOL    HW111264   3.202   0.846   4.398
 3602SOL    HW211265   3.182   0.996   4.336
 3603SOL     OW11266   2.692   1.273   5.146
 3603SOL    HW111267   2.687   1.306   5.241
 3603SOL    HW211268   2.606   1.292   5.100
 3604SOL     OW11269   2.534   1.616   3.878
 3604SOL    HW111270   2.543   1.626   3.779
 3604SOL    HW211271   2.494   1.527   3.899
 3605SOL     OW11272   3.512   1.720   5.118
 3605SOL    HW111273   3.565   1.730   5.034
 3605SOL    HW211274   3.485   1.810   5.152
 3606SOL     OW11275   3.703   0.175   4.687
 3606SOL    HW111276   3.742   0.090   4.651
 3606SOL    HW211277   3.605   0.177   4.668
 3607SOL     OW11278   2.125   0.326   4.444
 3607SOL    HW111279   2.046   0.377   4.410
 3607SOL    HW211280   2.116   0.311   4.542
 3608SOL     OW11281   3.056   1.612   3.755
 3608SOL    HW111282   3.062   1.519   3.792
 3608SOL    HW211283   2.997   1.612   3.675
 3609SOL     OW11284   2.684   1.002   5.096
 3609SOL    HW111285   2.724   1.001   5.004
 3609SOL    HW211286   2.694   1.094   5.136
 3610SOL     OW11287   2.778   0.910   4.015
 3610SOL    HW111288   2.841   0.948   3.947
 3610SOL    HW211289   2.818   0.827   4.054
 3611SOL     OW11290   3.366   1.607   3.768
 3611SOL    HW111291   3.274   1.644   3.775
 3611SOL    HW211292   3.404   1.627   3.678
 3612SOL     OW11293   2.234   1.288   5.214
 3612SOL    HW111294   2.221   1.381   5.180
 3612SOL    HW211295   2.150   1.236   5.201
 3613SOL     OW11296   3.476   1.292   5.013
 3613SOL    HW111297   3.536   1.295   5.093
 3613SOL    HW211298   3.401   1.356   5.026
 3614SOL     OW11299   2.901   1.098   4.420
 3614SOL    HW111300   2.831   1.051   4.474
 3614SOL    HW211301   2.960   1.030   4.377
 3615SOL     OW11302   2.876   0.236   4.695
 3615SOL    HW111303   2.868   0.200   4.602
 3615SOL    HW211304   2.874   0.160   4.760
 3616SOL     OW11305   2.452   1.487   4.215
 3616SOL    HW111306   2.494   1.429   4.145
 3616SOL    HW211307   2.408   1.566   4.171
 3617SOL     OW11308   3.571   0.385   5.105
 3617SOL    HW111309   3.644   0.454   5.109
 3617SOL    HW211310   3.599   0.310   5.046
 3618SOL     OW11311   2.117   1.348   4.014
 3618SOL    HW111312   2.021   1.349   3.987
 3618SOL    HW211313   2.129   1.401   4.098
 3619SOL     OW11314   1.967   1.013   5.450
 3619SOL    HW111315   1.890   0.980   5.504
 3619SOL    HW211316   2.052   0.983   5.492
 3620SOL     OW11317   2.534   0.203   5.213
 3620SOL    HW111318   2.624   0.187   5.173
 3620SOL    HW211319   2.542   0.208   5.312
 3621SOL     OW11320   1.937   0.345   3.757
 3621SOL    HW111321   1.845   0.317   3.728
 3621SOL    HW211322   1.968   0.422   3.701
 3622SOL     OW11323   3.302   0.856   5.122
 3622SOL    HW111324   3.245   0.908   5.059
 3622SOL    HW211325   3.398   0.868   5.098
 3623SOL     OW11326   1.934   0.166   4.042
 3623SOL    HW111327   1.917   0.249   3.988
 3623SOL    HW211328   2.024   0.129   4.020
 3624SOL     OW11329   3.045   1.335   3.843
 3624SOL    HW111330   2.946   1.324   3.845
 3624SOL    HW211331   3.079   1.350   3.936
 3625SOL     OW11332   2.475   0.842   5.155
 3625SOL    HW111333   2.531   0.923   5.138
 3625SOL    HW211334   2.534   0.762   5.158
 3626SOL     OW11335   3.355   1.767   4.683
 3626SOL    HW111336   3.388   1.831   4.614
 3626SOL    HW211337   3.421   1.761   4.758
 3627SOL     OW11338   2.578   0.565   5.432
 3627SOL    HW111339   2.597   0.630   5.506
 3627SOL    HW211340   2.638   0.485   5.441
 3628SOL     OW11341   3.312   1.220   5.357
 3628SOL    HW111342   3.303   1.210   5.456
 3628SOL    HW211343   3.408   1.213   5.331
 3629SOL     OW11344   3.536   0.883   4.978
 3629SOL    HW111345   3.509   0.794   4.941
 3629SOL    HW211346   3.537   0.951   4.905
 3630SOL     OW11347   3.087   0.325   4.173
 3630SOL    HW111348   3.152   0.251   4.162
 3630SOL    HW211349   3.107   0.375   4.257
 3631SOL     OW11350   2.456   0.745   4.376
 3631SOL    HW111351   2.506   0.830   4.357
 3631SOL    HW211352   2.368   0.747   4.328
 3632SOL     OW11353   3.639   0.342   5.366
 3632SOL    HW111354   3.622   0.373   5.272
 3632SOL    HW211355   3.555   0.305   5.404
 3633SOL     OW11356   3.592   0.934   5.241
 3633SOL    HW111357   3.630   1.025   5.256
 3633SOL    HW211358   3.584   0.917   5.142
 3634SOL     OW11359   2.721   1.374   3.740
 3634SOL    HW111360   2.675   1.389   3.828
 3634SOL    HW211361   2.765   1.459   3.710
 3635SOL     OW11362   2.721   0.956   4.585
 3635SOL    HW111363   2.775   0.887   4.633
 3635SOL    HW211364   2.689   1.025   4.651
 3636SOL     OW11365   2.945   0.984   3.811
 3636SOL    HW111366   2.922   1.037   3.729
 3636SOL    HW211367   3.026   0.928   3.792
 3637SOL     OW11368   3.723   1.569   4.575
 3637SOL    HW111369   3.652   1.557   4.505
 3637SOL    HW211370   3.724   1.490   4.635
 3638SOL     OW11371   2.083   1.314   5.568
 3638SOL    HW111372   2.018   1.241   5.547
 3638SOL    HW211373   2.087   1.328   5.666
 3639SOL     OW11374   1.941   1.240   4.377
 3639SOL    HW111375   1.940   1.193   4.465
 3639SOL    HW211376   2.023   1.212   4.326
 3640SOL     OW11377   2.534   1.391   5.348
 3640SOL    HW111378   2.456   1.341   5.386
 3640SOL    HW211379   2.531   1.486   5.379
 3641SOL     OW11380   3.686   0.192   4.951
 3641SOL    HW111381   3.682   0.102   4.995
 3641SOL    HW211382   3.689   0.181   4.852
 3642SOL     OW11383   2.290   0.424   4.244
 3642SOL    HW111384   2.320   0.352   4.182
 3642SOL    HW211385   2.251   0.384   4.327
 3643SOL     OW11386   3.567   1.487   4.828
 3643SOL    HW111387   3.474   1.462   4.801
 3643SOL    HW211388   3.593   1.437   4.910
 3644SOL     OW11389   2.179   0.547   5.004
 3644SOL    HW111390   2.217   0.488   5.076
 3644SOL    HW211391   2.219   0.521   4.916
 3645SOL     OW11392   2.674   1.586   4.411
 3645SOL    HW111393   2.706   1.596   4.317
 3645SOL    HW211394   2.595   1.524   4.413
 3646SOL     OW11395   3.286   0.214   4.836
 3646SOL    HW111396   3.338   0.149   4.891
 3646SOL    HW211397   3.237   0.277   4.897
 3647SOL     OW11398   2.863   0.034   4.878
 3647SOL    HW111399   2.800  -0.038   4.847
 3647SOL    HW211400   2.956  -0.002   4.878
 3648SOL     OW11401   2.632   1.330   4.025
 3648SOL    HW111402   2.586   1.243   4.042
 3648SOL    HW211403   2.723   1.327   4.066
 3649SOL     OW11404   3.214   0.052   3.892
 3649SOL    HW111405   3.249   0.011   3.808
 3649SOL    HW211406   3.124   0.014   3.912
 3650SOL     OW11407   3.162   0.453   4.415
 3650SOL    HW111408   3.103   0.533   4.419
 3650SOL    HW211409   3.177   0.418   4.508
 3651SOL     OW11410   3.455   0.221   4.606
 3651SOL    HW111411   3.371   0.220   4.660
 3651SOL    HW211412   3.457   0.304   4.550
 3652SOL     OW11413   1.901   1.077   4.024
 3652SOL    HW111414   2.000   1.066   4.015
 3652SOL    HW211415   1.861   0.991   4.056
 3653SOL     OW11416   2.737   1.646   4.061
 3653SOL    HW111417   2.660   1.611   4.007
 3653SOL    HW211418   2.705   1.717   4.123
 3654SOL     OW11419   2.092   0.628   5.699
 3654SOL    HW111420   1.999   0.626   5.736
 3654SOL    HW211421   2.093   0.589   5.607
 3655SOL     OW11422   2.087   0.275   6.582
 3655SOL    HW111423   2.122   0.258   6.674
 3655SOL    HW211424   1.999   0.230   6.570
 3656SOL     OW11425   1.881   0.368   6.233
 3656SOL    HW111426   1.799   0.411   6.272
 3656SOL    HW211427   1.853   0.295   6.170
 3657SOL     OW11428   2.431   1.275   6.751
 3657SOL    HW111429   2.338   1.268   6.714
 3657SOL    HW211430   2.442   1.364   6.795
 3658SOL     OW11431   3.417   1.511   6.289
 3658SOL    HW111432   3.360   1.495   6.370
 3658SOL    HW211433   3.358   1.521   6.209
 3659SOL     OW11434   2.997   0.703   6.303
 3659SOL    HW111435   3.054   0.781   6.278
 3659SOL    HW211436   2.937   0.729   6.379
 3660SOL     OW11437   3.617   0.607   5.817
 3660SOL    HW111438   3.605   0.594   5.718
 3660SOL    HW211439   3.587   0.526   5.866
 3661SOL     OW11440   2.630   1.144   6.609
 3661SOL    HW111441   2.552   1.161   6.669
 3661SOL    HW211442   2.664   1.231   6.573
 3662SOL     OW11443   2.712   0.798   7.409
 3662SOL    HW111444   2.708   0.874   7.474
 3662SOL    HW211445   2.734   0.834   7.318
 3663SOL     OW11446   2.547   1.012   6.251
 3663SOL    HW111447   2.616   0.996   6.321
 3663SOL    HW211448   2.474   1.069   6.289
 3664SOL     OW11449   2.548   1.161   7.389
 3664SOL    HW111450   2.608   1.240   7.403
 3664SOL    HW211451   2.462   1.192   7.348
 3665SOL     OW11452   2.197   1.435   6.647
 3665SOL    HW111453   2.119   1.404   6.594
 3665SOL    HW211454   2.255   1.493   6.590
 3666SOL     OW11455   3.322   1.505   6.925
 3666SOL    HW111456   3.346   1.599   6.951
 3666SOL    HW211457   3.306   1.451   7.007
 3667SOL     OW11458   2.300   0.392   7.085
 3667SOL    HW111459   2.382   0.336   7.094
 3667SOL    HW211460   2.219   0.334   7.089
 3668SOL     OW11461   3.465   0.447   6.323
 3668SOL    HW111462   3.391   0.493   6.273
 3668SOL    HW211463   3.516   0.515   6.376
 3669SOL     OW11464   2.989   1.341   7.276
 3669SOL    HW111465   3.036   1.341   7.364
 3669SOL    HW211466   2.941   1.254   7.265
 3670SOL     OW11467   2.102   1.091   6.472
 3670SOL    HW111468   2.116   1.007   6.524
 3670SOL    HW211469   2.047   1.155   6.527
 3671SOL     OW11470   2.482   1.786   7.025
 3671SOL    HW111471   2.390   1.769   7.060
 3671SOL    HW211472   2.510   1.878   7.051
 3672SOL     OW11473   2.468   0.964   5.709
 3672SOL    HW111474   2.475   1.048   5.655
 3672SOL    HW211475   2.514   0.977   5.797
 3673SOL     OW11476   3.456   0.114   7.066
 3673SOL    HW111477   3.438   0.181   6.994
 3673SOL    HW211478   3.453   0.160   7.155
 3674SOL     OW11479   1.984   0.643   6.149
 3674SOL    HW111480   1.939   0.555   6.166
 3674SOL    HW211481   1.983   0.697   6.233
 3675SOL     OW11482   3.704   1.767   5.945
 3675SOL    HW111483   3.758   1.738   6.025
 3675SOL    HW211484   3.734   1.857   5.916
 3676SOL     OW11485   1.889   1.596   5.703
 3676SOL    HW111486   1.870   1.500   5.724
 3676SOL    HW211487   1.856   1.654   5.778
 3677SOL     OW11488   3.551   0.922   6.198
 3677SOL    HW111489   3.646   0.893   6.206
 3677SOL    HW211490   3.543   0.987   6.123
 3678SOL     OW11491   3.503   1.108   6.018
 3678SOL    HW111492   3.589   1.110   5.966
 3678SOL    HW211493   3.517   1.155   6.106
 3679SOL     OW11494   1.975   0.737   7.183
 3679SOL    HW111495   2.063   0.724   7.228
 3679SOL    HW211496   1.962   0.834   7.161
 3680SOL     OW11497   2.475   1.365   6.312
 3680SOL    HW111498   2.426   1.278   6.321
 3680SOL    HW211499   2.452   1.408   6.225
 3681SOL     OW11500   3.155   1.228   7.009
 3681SOL    HW111501   3.192   1.155   6.951
 3681SOL    HW211502   3.207   1.233   7.094
 3682SOL     OW11503   2.671   0.004   6.088
 3682SOL    HW111504   2.711   0.095   6.079
 3682SOL    HW211505   2.571   0.012   6.094
 3683SOL     OW11506   2.059   0.976   6.850
 3683SOL    HW111507   2.148   0.931   6.836
 3683SOL    HW211508   1.986   0.911   6.831
 3684SOL     OW11509   3.387   0.999   5.776
 3684SOL    HW111510   3.324   0.923   5.789
 3684SOL    HW211511   3.435   1.017   5.862
 3685SOL     OW11512   3.049   1.792   7.202
 3685SOL    HW111513   3.073   1.852   7.126
 3685SOL    HW211514   3.056   1.697   7.172
 3686SOL     OW11515   2.179   0.251   7.387
 3686SOL    HW111516   2.250   0.322   7.393
 3686SOL    HW211517   2.091   0.290   7.415
 3687SOL     OW11518   3.328   1.417   6.539
 3687SOL    HW111519   3.269   1.423   6.619
 3687SOL    HW211520   3.313   1.329   6.493
 3688SOL     OW11521   3.529   1.714   6.158
 3688SOL    HW111522   3.488   1.691   6.070
 3688SOL    HW211523   3.511   1.640   6.223
 3689SOL     OW11524   2.460   0.729   5.856
 3689SOL    HW111525   2.484   0.798   5.788
 3689SOL    HW211526   2.382   0.762   5.910
 3690SOL     OW11527   3.143   0.345   6.530
 3690SOL    HW111528   3.057   0.295   6.517
 3690SOL    HW211529   3.205   0.291   6.586
 3691SOL     OW11530   3.438   1.662   5.893
 3691SOL    HW111531   3.527   1.708   5.896
 3691SOL    HW211532   3.417   1.638   5.798
 3692SOL     OW11533   2.669   0.605   7.051
 3692SOL    HW111534   2.622   0.602   7.140
 3692SOL    HW211535   2.618   0.550   6.985
 3693SOL     OW11536   3.256   0.469   7.260
 3693SOL    HW111537   3.236   0.512   7.348
 3693SOL    HW211538   3.334   0.407   7.269
 3694SOL     OW11539   2.835   0.890   7.158
 3694SOL    HW111540   2.881   0.806   7.129
 3694SOL    HW211541   2.779   0.924   7.083
 3695SOL     OW11542   2.853   0.410   6.828
 3695SOL    HW111543   2.776   0.444   6.882
 3695SOL    HW211544   2.819   0.359   6.749
 3696SOL     OW11545   2.903   0.701   6.015
 3696SOL    HW111546   2.929   0.697   6.111
 3696SOL    HW211547   2.818   0.650   6.001
 3697SOL     OW11548   1.938   0.811   6.375
 3697SOL    HW111549   2.037   0.799   6.384
 3697SOL    HW211550   1.914   0.906   6.396
 3698SOL     OW11551   1.992   1.821   7.157
 3698SOL    HW111552   1.982   1.806   7.256
 3698SOL    HW211553   1.906   1.857   7.121
 3699SOL     OW11554   2.727   0.348   5.781
 3699SOL    HW111555   2.786   0.411   5.732
 3699SOL    HW211556   2.746   0.254   5.752
 3700SOL     OW11557   3.581   0.585   7.417
 3700SOL    HW111558   3.555   0.674   7.381
 3700SOL    HW211559   3.579   0.517   7.344
 3701SOL     OW11560   3.224   1.144   6.131
 3701SOL    HW111561   3.307   1.115   6.083
 3701SOL    HW211562   3.175   1.211   6.075
 3702SOL     OW11563   2.412   0.196   6.471
 3702SOL    HW111564   2.407   0.191   6.571
 3702SOL    HW211565   2.414   0.292   6.442
 3703SOL     OW11566   2.870   1.456   6.063
 3703SOL    HW111567   2.824   1.528   6.011
 3703SOL    HW211568   2.866   1.476   6.161
 3704SOL     OW11569   3.657   1.066   6.459
 3704SOL    HW111570   3.595   1.051   6.383
 3704SOL    HW211571   3.605   1.077   6.544
 3705SOL     OW11572   3.089   1.550   7.092
 3705SOL    HW111573   3.095   1.473   7.156
 3705SOL    HW211574   3.037   1.524   7.012
 3706SOL     OW11575   2.183   0.943   5.828
 3706SOL    HW111576   2.265   0.982   5.786
 3706SOL    HW211577   2.156   0.861   5.779
 3707SOL     OW11578   3.320   0.735   6.314
 3707SOL    HW111579   3.315   0.670   6.389
 3707SOL    HW211580   3.400   0.794   6.327
 3708SOL     OW11581   2.323   1.266   7.313
 3708SOL    HW111582   2.273   1.267   7.227
 3708SOL    HW211583   2.260   1.248   7.389
 3709SOL     OW11584   2.973   1.776   5.823
 3709SOL    HW111585   2.913   1.714   5.873
 3709SOL    HW211586   3.004   1.732   5.738
 3710SOL     OW11587   2.064   0.285   7.084
 3710SOL    HW111588   1.984   0.345   7.071
 3710SOL    HW211589   2.054   0.236   7.170
 3711SOL     OW11590   3.494   1.377   5.667
 3711SOL    HW111591   3.462   1.471   5.657
 3711SOL    HW211592   3.418   1.314   5.655
 3712SOL     OW11593   3.262   0.107   6.012
 3712SOL    HW111594   3.238   0.070   5.922
 3712SOL    HW211595   3.361   0.123   6.016
 3713SOL     OW11596   2.111   1.785   6.827
 3713SOL    HW111597   2.168   1.720   6.877
 3713SOL    HW211598   2.095   1.752   6.734
 3714SOL     OW11599   2.802   1.698   6.490
 3714SOL    HW111600   2.882   1.641   6.511
 3714SOL    HW211601   2.753   1.658   6.413
 3715SOL     OW11602   2.244   0.700   6.066
 3715SOL    HW111603   2.289   0.610   6.063
 3715SOL    HW211604   2.150   0.689   6.099
 3716SOL     OW11605   3.409   0.222   7.315
 3716SOL    HW111606   3.404   0.259   7.407
 3716SOL    HW211607   3.337   0.153   7.303
 3717SOL     OW11608   2.476   0.122   5.703
 3717SOL    HW111609   2.574   0.100   5.710
 3717SOL    HW211610   2.445   0.105   5.610
 3718SOL     OW11611   2.643   0.264   7.335
 3718SOL    HW111612   2.710   0.203   7.378
 3718SOL    HW211613   2.570   0.283   7.400
 3719SOL     OW11614   2.750   1.514   6.781
 3719SOL    HW111615   2.727   1.489   6.687
 3719SOL    HW211616   2.811   1.445   6.820
 3720SOL     OW11617   3.213   0.590   7.019
 3720SOL    HW111618   3.241   0.547   7.104
 3720SOL    HW211619   3.238   0.686   7.020
 3721SOL     OW11620   2.665   1.402   6.510
 3721SOL    HW111621   2.755   1.416   6.468
 3721SOL    HW211622   2.594   1.404   6.439
 3722SOL     OW11623   2.784   0.503   6.485
 3722SOL    HW111624   2.759   0.494   6.389
 3722SOL    HW211625   2.832   0.421   6.516
 3723SOL     OW11626   2.401   0.064   6.098
 3723SOL    HW111627   2.320   0.065   6.156
 3723SOL    HW211628   2.404   0.147   6.043
 3724SOL     OW11629   3.296   1.188   5.627
 3724SOL    HW111630   3.328   1.112   5.684
 3724SOL    HW211631   3.204   1.215   5.657
 3725SOL     OW11632   2.159   0.035   5.757
 3725SOL    HW111633   2.208   0.119   5.736
 3725SOL    HW211634   2.221  -0.030   5.802
 3726SOL     OW11635   2.797   0.236   6.066
 3726SOL    HW111636   2.749   0.277   5.988
 3726SOL    HW211637   2.896   0.234   6.047
 3727SOL     OW11638   2.938   0.683   7.050
 3727SOL    HW111639   2.858   0.622   7.053
 3727SOL    HW211640   3.019   0.630   7.026
 3728SOL     OW11641   3.089   1.570   6.379
 3728SOL    HW111642   3.110   1.644   6.314
 3728SOL    HW211643   3.157   1.570   6.452
 3729SOL     OW11644   2.321   1.152   6.327
 3729SOL    HW111645   2.250   1.125   6.392
 3729SOL    HW211646   2.295   1.124   6.234
 3730SOL     OW11647   3.133   1.797   6.177
 3730SOL    HW111648   3.177   1.861   6.113
 3730SOL    HW211649   3.083   1.849   6.247
 3731SOL     OW11650   2.894   0.549   5.602
 3731SOL    HW111651   2.853   0.631   5.563
 3731SOL    HW211652   2.958   0.575   5.675
 3732SOL     OW11653   1.940   0.556   6.972
 3732SOL    HW111654   2.032   0.555   6.931
 3732SOL    HW211655   1.934   0.630   7.039
 3733SOL     OW11656   2.423   0.222   6.733
 3733SOL    HW111657   2.461   0.138   6.770
 3733SOL    HW211658   2.335   0.241   6.777
 3734SOL     OW11659   2.728   0.454   6.228
 3734SOL    HW111660   2.696   0.526   6.166
 3734SOL    HW211661   2.752   0.373   6.175
 3735SOL     OW11662   2.879   0.039   6.339
 3735SOL    HW111663   2.807   0.044   6.270
 3735SOL    HW211664   2.855  -0.030   6.408
 3736SOL     OW11665   3.291   1.173   6.453
 3736SOL    HW111666   3.236   1.089   6.446
 3736SOL    HW211667   3.317   1.202   6.361
 3737SOL     OW11668   3.328   0.590   6.578
 3737SOL    HW111669   3.298   0.495   6.585
 3737SOL    HW211670   3.401   0.606   6.644
 3738SOL     OW11671   3.719   0.833   5.963
 3738SOL    HW111672   3.761   0.769   6.027
 3738SOL    HW211673   3.681   0.782   5.885
 3739SOL     OW11674   2.350   1.385   5.760
 3739SOL    HW111675   2.263   1.370   5.807
 3739SOL    HW211676   2.333   1.411   5.665
 3740SOL     OW11677   3.526   1.280   6.243
 3740SOL    HW111678   3.625   1.288   6.257
 3740SOL    HW211679   3.481   1.364   6.274
 3741SOL     OW11680   3.252   0.575   5.664
 3741SOL    HW111681   3.198   0.554   5.745
 3741SOL    HW211682   3.343   0.534   5.673
 3742SOL     OW11683   2.389   0.256   5.914
 3742SOL    HW111684   2.416   0.197   5.839
 3742SOL    HW211685   2.389   0.351   5.883
 3743SOL     OW11686   3.616   1.223   7.174
 3743SOL    HW111687   3.707   1.184   7.161
 3743SOL    HW211688   3.624   1.319   7.198
 3744SOL     OW11689   2.926   1.347   6.926
 3744SOL    HW111690   2.846   1.324   6.981
 3744SOL    HW211691   3.009   1.321   6.975
 3745SOL     OW11692   3.454   1.629   7.211
 3745SOL    HW111693   3.481   1.663   7.121
 3745SOL    HW211694   3.533   1.591   7.257
 3746SOL     OW11695   2.973   1.195   6.686
 3746SOL    HW111696   2.933   1.239   6.767
 3746SOL    HW211697   2.932   1.232   6.603
 3747SOL     OW11698   3.500   1.099   6.665
 3747SOL    HW111699   3.505   1.180   6.724
 3747SOL    HW211700   3.414   1.101   6.614
 3748SOL     OW11701   2.777   0.089   6.988
 3748SOL    HW111702   2.802   0.069   6.893
 3748SOL    HW211703   2.849   0.145   7.030
 3749SOL     OW11704   2.842   1.116   7.305
 3749SOL    HW111705   2.743   1.122   7.315
 3749SOL    HW211706   2.865   1.036   7.249
 3750SOL     OW11707   2.567   1.050   5.954
 3750SOL    HW111708   2.553   1.057   6.053
 3750SOL    HW211709   2.651   0.999   5.936
 3751SOL     OW11710   2.272   0.813   6.837
 3751SOL    HW111711   2.358   0.825   6.887
 3751SOL    HW211712   2.230   0.726   6.864
 3752SOL     OW11713   3.136   0.386   6.848
 3752SOL    HW111714   3.157   0.460   6.912
 3752SOL    HW211715   3.047   0.403   6.805
 3753SOL     OW11716   1.926   1.564   6.917
 3753SOL    HW111717   1.880   1.646   6.883
 3753SOL    HW211718   2.024   1.583   6.926
 3754SOL     OW11719   2.229   1.100   6.087
 3754SOL    HW111720   2.222   1.183   6.031
 3754SOL    HW211721   2.233   1.020   6.027
 3755SOL     OW11722   2.428   0.537   6.451
 3755SOL    HW111723   2.440   0.603   6.377
 3755SOL    HW211724   2.474   0.571   6.534
 3756SOL     OW11725   3.114   1.348   5.974
 3756SOL    HW111726   3.164   1.425   6.014
 3756SOL    HW211727   3.019   1.350   6.006
 3757SOL     OW11728   3.134   1.445   6.728
 3757SOL    HW111729   3.181   1.458   6.815
 3757SOL    HW211730   3.068   1.371   6.737
 3758SOL     OW11731   3.444   0.639   6.058
 3758SOL    HW111732   3.413   0.700   6.131
 3758SOL    HW211733   3.494   0.691   5.989
 3759SOL     OW11734   2.216   1.510   6.915
 3759SOL    HW111735   2.195   1.466   6.828
 3759SOL    HW211736   2.313   1.536   6.918
 3760SOL     OW11737   2.264   0.751   7.184
 3760SOL    HW111738   2.332   0.806   7.137
 3760SOL    HW211739   2.304   0.663   7.211
 3761SOL     OW11740   3.449   0.779   7.256
 3761SOL    HW111741   3.357   0.817   7.251
 3761SOL    HW211742   3.509   0.826   7.191
 3762SOL     OW11743   2.875   0.105   7.356
 3762SOL    HW111744   2.881   0.190   7.304
 3762SOL    HW211745   2.907   0.029   7.299
 3763SOL     OW11746   2.366   0.050   7.326
 3763SOL    HW111747   2.324  -0.007   7.256
 3763SOL    HW211748   2.300   0.119   7.358
 3764SOL     OW11749   2.435   0.870   6.615
 3764SOL    HW111750   2.479   0.959   6.606
 3764SOL    HW211751   2.372   0.870   6.692
 3765SOL     OW11752   3.222   0.862   6.631
 3765SOL    HW111753   3.147   0.862   6.565
 3765SOL    HW211754   3.259   0.770   6.640
 3766SOL     OW11755   3.071   0.525   5.861
 3766SOL    HW111756   3.084   0.441   5.915
 3766SOL    HW211757   3.042   0.599   5.921
 3767SOL     OW11758   2.169   0.213   6.817
 3767SOL    HW111759   2.146   0.250   6.907
 3767SOL    HW211760   2.139   0.118   6.811
 3768SOL     OW11761   1.899   1.310   6.868
 3768SOL    HW111762   1.952   1.261   6.936
 3768SOL    HW211763   1.921   1.408   6.873
 3769SOL     OW11764   2.594   0.634   6.650
 3769SOL    HW111765   2.653   0.608   6.574
 3769SOL    HW211766   2.566   0.730   6.639
 3770SOL     OW11767   3.590   0.935   7.440
 3770SOL    HW111768   3.544   0.928   7.351
 3770SOL    HW211769   3.528   0.979   7.506
 3771SOL     OW11770   2.169   0.063   6.204
 3771SOL    HW111771   2.158   0.157   6.237
 3771SOL    HW211772   2.164   0.000   6.281
 3772SOL     OW11773   3.484   0.367   5.960
 3772SOL    HW111774   3.486   0.291   6.024
 3772SOL    HW211775   3.436   0.444   6.000
 3773SOL     OW11776   2.885   0.766   6.552
 3773SOL    HW111777   2.900   0.787   6.648
 3773SOL    HW211778   2.855   0.671   6.543
 3774SOL     OW11779   2.842   1.573   7.286
 3774SOL    HW111780   2.822   1.617   7.198
 3774SOL    HW211781   2.881   1.482   7.270
 3775SOL     OW11782   3.721   1.518   7.191
 3775SOL    HW111783   3.735   1.545   7.096
 3775SOL    HW211784   3.804   1.540   7.244
 3776SOL     OW11785   2.212   0.898   7.390
 3776SOL    HW111786   2.288   0.942   7.438
 3776SOL    HW211787   2.247   0.851   7.308
 3777SOL     OW11788   3.402   0.274   5.711
 3777SOL    HW111789   3.341   0.199   5.734
 3777SOL    HW211790   3.424   0.326   5.794
 3778SOL     OW11791   3.165   0.838   5.628
 3778SOL    HW111792   3.199   0.745   5.643
 3778SOL    HW211793   3.183   0.865   5.533
 3779SOL     OW11794   2.930   1.333   6.435
 3779SOL    HW111795   2.937   1.249   6.380
 3779SOL    HW211796   2.992   1.402   6.399
 3780SOL     OW11797   2.181   0.810   6.535
 3780SOL    HW111798   2.274   0.846   6.540
 3780SOL    HW211799   2.175   0.725   6.587
 3781SOL     OW11800   2.201   0.509   6.592
 3781SOL    HW111801   2.149   0.426   6.575
 3781SOL    HW211802   2.278   0.514   6.528
 3782SOL     OW11803   3.000   0.380   7.264
 3782SOL    HW111804   2.955   0.443   7.328
 3782SOL    HW211805   3.093   0.411   7.247
 3783SOL     OW11806   3.022   0.207   7.063
 3783SOL    HW111807   3.022   0.271   7.140
 3783SOL    HW211808   3.050   0.255   6.980
 3784SOL     OW11809   1.870   1.326   5.786
 3784SOL    HW111810   1.777   1.347   5.755
 3784SOL    HW211811   1.880   1.227   5.799
 3785SOL     OW11812   1.950   1.801   6.513
 3785SOL    HW111813   1.908   1.715   6.486
 3785SOL    HW211814   2.044   1.804   6.479
 3786SOL     OW11815   2.366   1.568   6.496
 3786SOL    HW111816   2.432   1.642   6.505
 3786SOL    HW211817   2.410   1.489   6.454
 3787SOL     OW11818   2.864   0.796   6.824
 3787SOL    HW111819   2.905   0.764   6.910
 3787SOL    HW211820   2.768   0.769   6.821
 3788SOL     OW11821   1.902   0.544   6.700
 3788SOL    HW111822   1.987   0.511   6.659
 3788SOL    HW211823   1.915   0.559   6.798
 3789SOL     OW11824   2.051   0.520   7.308
 3789SOL    HW111825   2.110   0.480   7.238
 3789SOL    HW211826   1.993   0.591   7.267
 3790SOL     OW11827   3.231   0.950   7.246
 3790SOL    HW111828   3.270   1.039   7.266
 3790SOL    HW211829   3.241   0.930   7.149
 3791SOL     OW11830   2.677   0.572   5.911
 3791SOL    HW111831   2.684   0.483   5.865
 3791SOL    HW211832   2.583   0.606   5.903
 3792SOL     OW11833   3.519   0.604   6.792
 3792SOL    HW111834   3.481   0.535   6.854
 3792SOL    HW211835   3.601   0.568   6.748
 3793SOL     OW11836   2.114   1.564   7.330
 3793SOL    HW111837   2.084   1.621   7.406
 3793SOL    HW211838   2.107   1.467   7.356
 3794SOL     OW11839   2.533   0.464   6.855
 3794SOL    HW111840   2.499   0.375   6.825
 3794SOL    HW211841   2.559   0.518   6.775
 3795SOL     OW11842   2.792   1.678   7.051
 3795SOL    HW111843   2.768   1.660   6.956
 3795SOL    HW211844   2.822   1.772   7.061
 3796SOL     OW11845   2.335   0.500   5.777
 3796SOL    HW111846   2.396   0.580   5.781
 3796SOL    HW211847   2.240   0.531   5.784
 3797SOL     OW11848   2.021   1.137   7.052
 3797SOL    HW111849   2.043   1.076   7.128
 3797SOL    HW211850   2.031   1.088   6.966
 3798SOL     OW11851   3.209   1.059   6.820
 3798SOL    HW111852   3.233   0.996   6.746
 3798SOL    HW211853   3.119   1.099   6.802
 3799SOL     OW11854   3.164   0.855   5.895
 3799SOL    HW111855   3.078   0.824   5.937
 3799SOL    HW211856   3.160   0.841   5.796
 3800SOL     OW11857   3.621   1.747   6.740
 3800SOL    HW111858   3.682   1.777   6.667
 3800SOL    HW211859   3.583   1.658   6.718
 3801SOL     OW11860   3.114   1.731   6.714
 3801SOL    HW111861   3.198   1.736   6.660
 3801SOL    HW211862   3.091   1.635   6.732
 3802SOL     OW11863   1.945   1.258   6.608
 3802SOL    HW111864   1.940   1.257   6.708
 3802SOL    HW211865   1.862   1.217   6.570
 3803SOL     OW11866   2.550   1.662   7.302
 3803SOL    HW111867   2.494   1.743   7.311
 3803SOL    HW211868   2.602   1.666   7.216
 3804SOL     OW11869   3.588   0.135   6.109
 3804SOL    HW111870   3.661   0.118   6.042
 3804SOL    HW211871   3.557   0.048   6.147
 3805SOL     OW11872   3.250   1.573   6.063
 3805SOL    HW111873   3.317   1.585   5.989
 3805SOL    HW211874   3.210   1.662   6.086
 3806SOL     OW11875   1.992   1.794   7.437
 3806SOL    HW111876   1.951   1.720   7.490
 3806SOL    HW211877   2.056   1.845   7.495
 3807SOL     OW11878   3.142   0.927   6.258
 3807SOL    HW111879   3.202   0.846   6.260
 3807SOL    HW211880   3.182   0.996   6.198
 3808SOL     OW11881   2.692   1.273   7.008
 3808SOL    HW111882   2.687   1.306   7.103
 3808SOL    HW211883   2.606   1.292   6.962
 3809SOL     OW11884   2.534   1.616   5.740
 3809SOL    HW111885   2.543   1.626   5.641
 3809SOL    HW211886   2.494   1.527   5.761
 3810SOL     OW11887   3.512   1.720   6.980
 3810SOL    HW111888   3.565   1.730   6.896
 3810SOL    HW211889   3.485   1.810   7.014
 3811SOL     OW11890   3.703   0.175   6.549
 3811SOL    HW111891   3.742   0.090   6.513
 3811SOL    HW211892   3.605   0.177   6.530
 3812SOL     OW11893   2.125   0.326   6.306
 3812SOL    HW111894   2.046   0.377   6.272
 3812SOL    HW211895   2.116   0.311   6.404
 3813SOL     OW11896   3.056   1.612   5.617
 3813SOL    HW111897   3.062   1.519   5.654
 3813SOL    HW211898   2.997   1.612   5.537
 3814SOL     OW11899   2.684   1.002   6.958
 3814SOL    HW111900   2.724   1.001   6.866
 3814SOL    HW211901   2.694   1.094   6.998
 3815SOL     OW11902   2.778   0.910   5.877
 3815SOL    HW111903   2.841   0.948   5.809
 3815SOL    HW211904   2.818   0.827   5.916
 3816SOL     OW11905   3.366   1.607   5.630
 3816SOL    HW111906   3.274   1.644   5.637
 3816SOL    HW211907   3.404   1.627   5.540
 3817SOL     OW11908   2.234   1.288   7.076
 3817SOL    HW111909   2.221   1.381   7.042
 3817SOL    HW211910   2.150   1.236   7.063
 3818SOL     OW11911   3.476   1.292   6.875
 3818SOL    HW111912   3.536   1.295   6.955
 3818SOL    HW211913   3.401   1.356   6.888
 3819SOL     OW11914   2.901   1.098   6.282
 3819SOL    HW111915   2.831   1.051   6.336
 3819SOL    HW211916   2.960   1.030   6.239
 3820SOL     OW11917   2.876   0.236   6.557
 3820SOL    HW111918   2.868   0.200   6.464
 3820SOL    HW211919   2.874   0.160   6.622
 3821SOL     OW11920   2.452   1.487   6.077
 3821SOL    HW111921   2.494   1.429   6.007
 3821SOL    HW211922   2.408   1.566   6.033
 3822SOL     OW11923   3.571   0.385   6.967
 3822SOL    HW111924   3.644   0.454   6.971
 3822SOL    HW211925   3.599   0.310   6.908
 3823SOL     OW11926   2.117   1.348   5.876
 3823SOL    HW111927   2.021   1.349   5.849
 3823SOL    HW211928   2.129   1.401   5.960
 3824SOL     OW11929   1.967   1.013   7.312
 3824SOL    HW111930   1.890   0.980   7.366
 3824SOL    HW211931   2.052   0.983   7.354
 3825SOL     OW11932   2.534   0.203   7.075
 3825SOL    HW111933   2.624   0.187   7.035
 3825SOL    HW211934   2.542   0.208   7.174
 3826SOL     OW11935   1.937   0.345   5.619
 3826SOL    HW111936   1.845   0.317   5.590
 3826SOL    HW211937   1.968   0.422   5.563
 3827SOL     OW11938   3.302   0.856   6.984
 3827SOL    HW111939   3.245   0.908   6.921
 3827SOL    HW211940   3.398   0.868   6.960
 3828SOL     OW11941   1.934   0.166   5.904
 3828SOL    HW111942   1.917   0.249   5.850
 3828SOL    HW211943   2.024   0.129   5.882
 3829SOL     OW11944   3.045   1.335   5.705
 3829SOL    HW111945   2.946   1.324   5.707
 3829SOL    HW211946   3.079   1.350   5.798
 3830SOL     OW11947   2.475   0.842   7.017
 3830SOL    HW111948   2.531   0.923   7.000
 3830SOL    HW211949   2.534   0.762   7.020
 3831SOL     OW11950   3.355   1.767   6.545
 3831SOL    HW111951   3.388   1.831   6.476
 3831SOL    HW211952   3.421   1.761   6.620
 3832SOL     OW11953   2.578   0.565   7.294
 3832SOL    HW111954   2.597   0.630   7.368
 3832SOL    HW211955   2.638   0.485   7.303
 3833SOL     OW11956   3.312   1.220   7.219
 3833SOL    HW111957   3.303   1.210   7.318
 3833SOL    HW211958   3.408   1.213   7.193
 3834SOL     OW11959   2.252   1.741   7.146
 3834SOL    HW111960   2.161   1.782   7.144
 3834SOL    HW211961   2.245   1.647   7.178
 3835SOL     OW11962   3.536   0.883   6.840
 3835SOL    HW111963   3.509   0.794   6.803
 3835SOL    HW211964   3.537   0.951   6.767
 3836SOL     OW11965   3.087   0.325   6.035
 3836SOL    HW111966   3.152   0.251   6.024
 3836SOL    HW211967   3.107   0.375   6.119
 3837SOL     OW11968   2.456   0.745   6.238
 3837SOL    HW111969   2.506   0.830   6.219
 3837SOL    HW211970   2.368   0.747   6.190
 3838SOL     OW11971   3.639   0.342   7.228
 3838SOL    HW111972   3.622   0.373   7.134
 3838SOL    HW211973   3.555   0.305   7.266
 3839SOL     OW11974   3.592   0.934   7.103
 3839SOL    HW111975   3.630   1.025   7.118
 3839SOL    HW211976   3.584   0.917   7.004
 3840SOL     OW11977   2.721   1.374   5.602
 3840SOL    HW111978   2.675   1.389   5.690
 3840SOL    HW211979   2.765   1.459   5.572
 3841SOL     OW11980   2.523   1.790   6.539
 3841SOL    HW111981   2.477   1.878   6.526
 3841SOL    HW211982   2.622   1.802   6.532
 3842SOL     OW11983   2.721   0.956   6.447
 3842SOL    HW111984   2.775   0.887   6.495
 3842SOL    HW211985   2.689   1.025   6.513
 3843SOL     OW11986   2.945   0.984   5.673
 3843SOL    HW111987   2.922   1.037   5.591
 3843SOL    HW211988   3.026   0.928   5.654
 3844SOL     OW11989   3.723   1.569   6.437
 3844SOL    HW111990   3.652   1.557   6.367
 3844SOL    HW211991   3.724   1.490   6.497
 3845SOL     OW11992   2.083   1.314   7.430
 3845SOL    HW111993   2.018   1.241   7.409
 3845SOL    HW211994   2.087   1.328   7.528
 3846SOL     OW11995   1.941   1.240   6.239
 3846SOL    HW111996   1.940   1.193   6.327
 3846SOL    HW211997   2.023   1.212   6.188
 3847SOL     OW11998   2.534   1.391   7.210
 3847SOL    HW111999   2.456   1.341   7.248
 3847SOL    HW212000   2.531   1.486   7.241
 3848SOL     OW12001   3.686   0.192   6.813
 3848SOL    HW112002   3.682   0.102   6.857
 3848SOL    HW212003   3.689   0.181   6.714
 3849SOL     OW12004   2.290   0.424   6.106
 3849SOL    HW112005   2.320   0.352   6.044
 3849SOL    HW212006   2.251   0.384   6.189
 3850SOL     OW12007   3.567   1.487   6.690
 3850SOL    HW112008   3.474   1.462   6.663
 3850SOL    HW212009   3.593   1.437   6.772
 3851SOL     OW12010   2.179   0.547   6.866
 3851SOL    HW112011   2.217   0.488   6.938
 3851SOL    HW212012   2.219   0.521   6.778
 3852SOL     OW12013   2.674   1.586   6.273
 3852SOL    HW112014   2.706   1.596   6.179
 3852SOL    HW212015   2.595   1.524   6.275
 3853SOL     OW12016   3.286   0.214   6.698
 3853SOL    HW112017   3.338   0.149   6.753
 3853SOL    HW212018   3.237   0.277   6.759
 3854SOL     OW12019   2.863   0.034   6.740
 3854SOL    HW112020   2.800  -0.038   6.709
 3854SOL    HW212021   2.956  -0.002   6.740
 3855SOL     OW12022   2.632   1.330   5.887
 3855SOL    HW112023   2.586   1.243   5.904
 3855SOL    HW212024   2.723   1.327   5.928
 3856SOL     OW12025   2.480   1.567   6.870
 3856SOL    HW112026   2.475   1.649   6.927
 3856SOL    HW212027   2.569   1.564   6.825
 3857SOL     OW12028   3.214   0.052   5.754
 3857SOL    HW112029   3.249   0.011   5.670
 3857SOL    HW212030   3.124   0.014   5.774
 3858SOL     OW12031   3.162   0.453   6.277
 3858SOL    HW112032   3.103   0.533   6.281
 3858SOL    HW212033   3.177   0.418   6.370
 3859SOL     OW12034   3.455   0.221   6.468
 3859SOL    HW112035   3.371   0.220   6.522
 3859SOL    HW212036   3.457   0.304   6.412
 3860SOL     OW12037   1.901   1.077   5.886
 3860SOL    HW112038   2.000   1.066   5.877
 3860SOL    HW212039   1.861   0.991   5.918
 3861SOL     OW12040   2.737   1.646   5.923
 3861SOL    HW112041   2.660   1.611   5.869
 3861SOL    HW212042   2.705   1.717   5.985
 3862SOL     OW12043   2.092   0.628   7.561
 3862SOL    HW112044   1.999   0.626   7.598
 3862SOL    HW212045   2.093   0.589   7.469
 3863SOL     OW12046   2.087   0.275   8.444
 3863SOL    HW112047   2.122   0.258   8.536
 3863SOL    HW212048   1.999   0.230   8.432
 3864SOL     OW12049   1.881   0.368   8.095
 3864SOL    HW112050   1.799   0.411   8.134
 3864SOL    HW212051   1.853   0.295   8.032
 3865SOL     OW12052   2.431   1.275   8.613
 3865SOL    HW112053   2.338   1.268   8.576
 3865SOL    HW212054   2.442   1.364   8.657
 3866SOL     OW12055   3.417   1.511   8.151
 3866SOL    HW112056   3.360   1.495   8.232
 3866SOL    HW212057   3.358   1.521   8.071
 3867SOL     OW12058   2.997   0.703   8.165
 3867SOL    HW112059   3.054   0.781   8.140
 3867SOL    HW212060   2.937   0.729   8.241
 3868SOL     OW12061   3.617   0.607   7.679
 3868SOL    HW112062   3.605   0.594   7.580
 3868SOL    HW212063   3.587   0.526   7.728
 3869SOL     OW12064   2.630   1.144   8.471
 3869SOL    HW112065   2.552   1.161   8.531
 3869SOL    HW212066   2.664   1.231   8.435
 3870SOL     OW12067   2.712   0.798   9.271
 3870SOL    HW112068   2.708   0.874   9.336
 3870SOL    HW212069   2.734   0.834   9.180
 3871SOL     OW12070   2.547   1.012   8.113
 3871SOL    HW112071   2.616   0.996   8.183
 3871SOL    HW212072   2.474   1.069   8.151
 3872SOL     OW12073   2.548   1.161   9.251
 3872SOL    HW112074   2.608   1.240   9.265
 3872SOL    HW212075   2.462   1.192   9.210
 3873SOL     OW12076   2.197   1.435   8.509
 3873SOL    HW112077   2.119   1.404   8.456
 3873SOL    HW212078   2.255   1.493   8.452
 3874SOL     OW12079   3.322   1.505   8.787
 3874SOL    HW112080   3.346   1.599   8.813
 3874SOL    HW212081   3.306   1.451   8.869
 3875SOL     OW12082   2.300   0.392   8.947
 3875SOL    HW112083   2.382   0.336   8.956
 3875SOL    HW212084   2.219   0.334   8.951
 3876SOL     OW12085   3.465   0.447   8.185
 3876SOL    HW112086   3.391   0.493   8.135
 3876SOL    HW212087   3.516   0.515   8.238
 3877SOL     OW12088   2.093   1.713   7.931
 3877SOL    HW112089   2.127   1.790   7.985
 3877SOL    HW212090   2.137   1.713   7.841
 3878SOL     OW12091   2.989   1.341   9.138
 3878SOL    HW112092   3.036   1.341   9.226
 3878SOL    HW212093   2.941   1.254   9.127
 3879SOL     OW12094   2.092   1.434   7.986
 3879SOL    HW112095   2.066   1.530   7.986
 3879SOL    HW212096   2.021   1.380   8.031
 3880SOL     OW12097   2.102   1.091   8.334
 3880SOL    HW112098   2.116   1.007   8.386
 3880SOL    HW212099   2.047   1.155   8.389
 3881SOL     OW12100   2.482   1.786   8.887
 3881SOL    HW112101   2.390   1.769   8.922
 3881SOL    HW212102   2.510   1.878   8.913
 3882SOL     OW12103   2.468   0.964   7.571
 3882SOL    HW112104   2.475   1.048   7.517
 3882SOL    HW212105   2.514   0.977   7.659
 3883SOL     OW12106   3.456   0.114   8.928
 3883SOL    HW112107   3.438   0.181   8.856
 3883SOL    HW212108   3.453   0.160   9.017
 3884SOL     OW12109   1.984   0.643   8.011
 3884SOL    HW112110   1.939   0.555   8.028
 3884SOL    HW212111   1.983   0.697   8.095
 3885SOL     OW12112   3.704   1.767   7.807
 3885SOL    HW112113   3.758   1.738   7.887
 3885SOL    HW212114   3.734   1.857   7.778
 3886SOL     OW12115   1.889   1.596   7.565
 3886SOL    HW112116   1.870   1.500   7.586
 3886SOL    HW212117   1.856   1.654   7.640
 3887SOL     OW12118   3.551   0.922   8.060
 3887SOL    HW112119   3.646   0.893   8.068
 3887SOL    HW212120   3.543   0.987   7.985
 3888SOL     OW12121   3.503   1.108   7.880
 3888SOL    HW112122   3.589   1.110   7.828
 3888SOL    HW212123   3.517   1.155   7.968
 3889SOL     OW12124   1.975   0.737   9.045
 3889SOL    HW112125   2.063   0.724   9.090
 3889SOL    HW212126   1.962   0.834   9.023
 3890SOL     OW12127   2.475   1.365   8.174
 3890SOL    HW112128   2.426   1.278   8.183
 3890SOL    HW212129   2.452   1.408   8.087
 3891SOL     OW12130   3.155   1.228   8.871
 3891SOL    HW112131   3.192   1.155   8.813
 3891SOL    HW212132   3.207   1.233   8.956
 3892SOL     OW12133   2.671   0.004   7.950
 3892SOL    HW112134   2.711   0.095   7.941
 3892SOL    HW212135   2.571   0.012   7.956
 3893SOL     OW12136   2.059   0.976   8.712
 3893SOL    HW112137   2.148   0.931   8.698
 3893SOL    HW212138   1.986   0.911   8.693
 3894SOL     OW12139   3.387   0.999   7.638
 3894SOL    HW112140   3.324   0.923   7.651
 3894SOL    HW212141   3.435   1.017   7.724
 3895SOL     OW12142   3.049   1.792   9.064
 3895SOL    HW112143   3.073   1.852   8.988
 3895SOL    HW212144   3.056   1.697   9.034
 3896SOL     OW12145   2.179   0.251   9.249
 3896SOL    HW112146   2.250   0.322   9.255
 3896SOL    HW212147   2.091   0.290   9.277
 3897SOL     OW12148   3.328   1.417   8.401
 3897SOL    HW112149   3.269   1.423   8.481
 3897SOL    HW212150   3.313   1.329   8.355
 3898SOL     OW12151   3.529   1.714   8.020
 3898SOL    HW112152   3.488   1.691   7.932
 3898SOL    HW212153   3.511   1.640   8.085
 3899SOL     OW12154   2.460   0.729   7.718
 3899SOL    HW112155   2.484   0.798   7.650
 3899SOL    HW212156   2.382   0.762   7.772
 3900SOL     OW12157   3.143   0.345   8.392
 3900SOL    HW112158   3.057   0.295   8.379
 3900SOL    HW212159   3.205   0.291   8.448
 3901SOL     OW12160   3.438   1.662   7.755
 3901SOL    HW112161   3.527   1.708   7.758
 3901SOL    HW212162   3.417   1.638   7.660
 3902SOL     OW12163   2.669   0.605   8.913
 3902SOL    HW112164   2.622   0.602   9.002
 3902SOL    HW212165   2.618   0.550   8.847
 3903SOL     OW12166   3.256   0.469   9.122
 3903SOL    HW112167   3.236   0.512   9.210
 3903SOL    HW212168   3.334   0.407   9.131
 3904SOL     OW12169   2.835   0.890   9.020
 3904SOL    HW112170   2.881   0.806   8.991
 3904SOL    HW212171   2.779   0.924   8.945
 3905SOL     OW12172   2.853   0.410   8.690
 3905SOL    HW112173   2.776   0.444   8.744
 3905SOL    HW212174   2.819   0.359   8.611
 3906SOL     OW12175   2.903   0.701   7.877
 3906SOL    HW112176   2.929   0.697   7.973
 3906SOL    HW212177   2.818   0.650   7.863
 3907SOL     OW12178   1.938   0.811   8.237
 3907SOL    HW112179   2.037   0.799   8.246
 3907SOL    HW212180   1.914   0.906   8.258
 3908SOL     OW12181   1.992   1.821   9.019
 3908SOL    HW112182   1.982   1.806   9.118
 3908SOL    HW212183   1.906   1.857   8.983
 3909SOL     OW12184   2.727   0.348   7.643
 3909SOL    HW112185   2.786   0.411   7.594
 3909SOL    HW212186   2.746   0.254   7.614
 3910SOL     OW12187   3.581   0.585   9.279
 3910SOL    HW112188   3.555   0.674   9.243
 3910SOL    HW212189   3.579   0.517   9.206
 3911SOL     OW12190   3.224   1.144   7.993
 3911SOL    HW112191   3.307   1.115   7.945
 3911SOL    HW212192   3.175   1.211   7.937
 3912SOL     OW12193   2.412   0.196   8.333
 3912SOL    HW112194   2.407   0.191   8.433
 3912SOL    HW212195   2.414   0.292   8.304
 3913SOL     OW12196   2.870   1.456   7.925
 3913SOL    HW112197   2.824   1.528   7.873
 3913SOL    HW212198   2.866   1.476   8.023
 3914SOL     OW12199   2.213   1.801   8.301
 3914SOL    HW112200   2.263   1.715   8.307
 3914SOL    HW212201   2.278   1.878   8.298
 3915SOL     OW12202   3.657   1.066   8.321
 3915SOL    HW112203   3.595   1.051   8.245
 3915SOL    HW212204   3.605   1.077   8.406
 3916SOL     OW12205   3.089   1.550   8.954
 3916SOL    HW112206   3.095   1.473   9.018
 3916SOL    HW212207   3.037   1.524   8.874
 3917SOL     OW12208   2.183   0.943   7.690
 3917SOL    HW112209   2.265   0.982   7.648
 3917SOL    HW212210   2.156   0.861   7.641
 3918SOL     OW12211   3.320   0.735   8.176
 3918SOL    HW112212   3.315   0.670   8.251
 3918SOL    HW212213   3.400   0.794   8.189
 3919SOL     OW12214   2.323   1.266   9.175
 3919SOL    HW112215   2.273   1.267   9.089
 3919SOL    HW212216   2.260   1.248   9.251
 3920SOL     OW12217   2.973   1.776   7.685
 3920SOL    HW112218   2.913   1.714   7.735
 3920SOL    HW212219   3.004   1.732   7.600
 3921SOL     OW12220   2.064   0.285   8.946
 3921SOL    HW112221   1.984   0.345   8.933
 3921SOL    HW212222   2.054   0.236   9.032
 3922SOL     OW12223   3.494   1.377   7.529
 3922SOL    HW112224   3.462   1.471   7.519
 3922SOL    HW212225   3.418   1.314   7.517
 3923SOL     OW12226   2.326   1.743   7.771
 3923SOL    HW112227   2.359   1.782   7.857
 3923SOL    HW212228   2.402   1.736   7.706
 3924SOL     OW12229   3.262   0.107   7.874
 3924SOL    HW112230   3.238   0.070   7.784
 3924SOL    HW212231   3.361   0.123   7.878
 3925SOL     OW12232   2.111   1.785   8.689
 3925SOL    HW112233   2.168   1.720   8.739
 3925SOL    HW212234   2.095   1.752   8.596
 3926SOL     OW12235   2.802   1.698   8.352
 3926SOL    HW112236   2.882   1.641   8.373
 3926SOL    HW212237   2.753   1.658   8.275
 3927SOL     OW12238   2.244   0.700   7.928
 3927SOL    HW112239   2.289   0.610   7.925
 3927SOL    HW212240   2.150   0.689   7.961
 3928SOL     OW12241   3.409   0.222   9.177
 3928SOL    HW112242   3.404   0.259   9.269
 3928SOL    HW212243   3.337   0.153   9.165
 3929SOL     OW12244   2.476   0.122   7.565
 3929SOL    HW112245   2.574   0.100   7.572
 3929SOL    HW212246   2.445   0.105   7.472
 3930SOL     OW12247   2.643   0.264   9.197
 3930SOL    HW112248   2.710   0.203   9.240
 3930SOL    HW212249   2.570   0.283   9.262
 3931SOL     OW12250   2.750   1.514   8.643
 3931SOL    HW112251   2.727   1.489   8.549
 3931SOL    HW212252   2.811   1.445   8.682
 3932SOL     OW12253   3.213   0.590   8.881
 3932SOL    HW112254   3.241   0.547   8.966
 3932SOL    HW212255   3.238   0.686   8.882
 3933SOL     OW12256   2.665   1.402   8.372
 3933SOL    HW112257   2.755   1.416   8.330
 3933SOL    HW212258   2.594   1.404   8.301
 3934SOL     OW12259   2.784   0.503   8.347
 3934SOL    HW112260   2.759   0.494   8.251
 3934SOL    HW212261   2.832   0.421   8.378
 3935SOL     OW12262   2.401   0.064   7.960
 3935SOL    HW112263   2.320   0.065   8.018
 3935SOL    HW212264   2.404   0.147   7.905
 3936SOL     OW12265   3.296   1.188   7.489
 3936SOL    HW112266   3.328   1.112   7.546
 3936SOL    HW212267   3.204   1.215   7.519
 3937SOL     OW12268   2.159   0.035   7.619
 3937SOL    HW112269   2.208   0.119   7.598
 3937SOL    HW212270   2.221  -0.030   7.664
 3938SOL     OW12271   2.797   0.236   7.928
 3938SOL    HW112272   2.749   0.277   7.850
 3938SOL    HW212273   2.896   0.234   7.909
 3939SOL     OW12274   2.938   0.683   8.912
 3939SOL    HW112275   2.858   0.622   8.915
 3939SOL    HW212276   3.019   0.630   8.888
 3940SOL     OW12277   3.089   1.570   8.241
 3940SOL    HW112278   3.110   1.644   8.176
 3940SOL    HW212279   3.157   1.570   8.314
 3941SOL     OW12280   2.321   1.152   8.189
 3941SOL    HW112281   2.250   1.125   8.254
 3941SOL    HW212282   2.295   1.124   8.096
 3942SOL     OW12283   3.133   1.797   8.039
 3942SOL    HW112284   3.177   1.861   7.975
 3942SOL    HW212285   3.083   1.849   8.109
 3943SOL     OW12286   2.894   0.549   7.464
 3943SOL    HW112287   2.853   0.631   7.425
 3943SOL    HW212288   2.958   0.575   7.537
 3944SOL     OW12289   1.940   0.556   8.834
 3944SOL    HW112290   2.032   0.555   8.793
 3944SOL    HW212291   1.934   0.630   8.901
 3945SOL     OW12292   2.423   0.222   8.595
 3945SOL    HW112293   2.461   0.138   8.632
 3945SOL    HW212294   2.335   0.241   8.639
 3946SOL     OW12295   2.728   0.454   8.090
 3946SOL    HW112296   2.696   0.526   8.028
 3946SOL    HW212297   2.752   0.373   8.037
 3947SOL     OW12298   2.879   0.039   8.201
 3947SOL    HW112299   2.807   0.044   8.132
 3947SOL    HW212300   2.855  -0.030   8.270
 3948SOL     OW12301   3.291   1.173   8.315
 3948SOL    HW112302   3.236   1.089   8.308
 3948SOL    HW212303   3.317   1.202   8.223
 3949SOL     OW12304   3.328   0.590   8.440
 3949SOL    HW112305   3.298   0.495   8.447
 3949SOL    HW212306   3.401   0.606   8.506
 3950SOL     OW12307   3.719   0.833   7.825
 3950SOL    HW112308   3.761   0.769   7.889
 3950SOL    HW212309   3.681   0.782   7.747
 3951SOL     OW12310   2.350   1.385   7.622
 3951SOL    HW112311   2.263   1.370   7.669
 3951SOL    HW212312   2.333   1.411   7.527
 3952SOL     OW12313   3.526   1.280   8.105
 3952SOL    HW112314   3.625   1.288   8.119
 3952SOL    HW212315   3.481   1.364   8.136
 3953SOL     OW12316   3.252   0.575   7.526
 3953SOL    HW112317   3.198   0.554   7.607
 3953SOL    HW212318   3.343   0.534   7.535
 3954SOL     OW12319   2.389   0.256   7.776
 3954SOL    HW112320   2.416   0.197   7.701
 3954SOL    HW212321   2.389   0.351   7.745
 3955SOL     OW12322   3.616   1.223   9.036
 3955SOL    HW112323   3.707   1.184   9.023
 3955SOL    HW212324   3.624   1.319   9.060
 3956SOL     OW12325   2.926   1.347   8.788
 3956SOL    HW112326   2.846   1.324   8.843
 3956SOL    HW212327   3.009   1.321   8.837
 3957SOL     OW12328   3.454   1.629   9.073
 3957SOL    HW112329   3.481   1.663   8.983
 3957SOL    HW212330   3.533   1.591   9.119
 3958SOL     OW12331   2.973   1.195   8.548
 3958SOL    HW112332   2.933   1.239   8.629
 3958SOL    HW212333   2.932   1.232   8.465
 3959SOL     OW12334   3.500   1.099   8.527
 3959SOL    HW112335   3.505   1.180   8.586
 3959SOL    HW212336   3.414   1.101   8.476
 3960SOL     OW12337   2.777   0.089   8.850
 3960SOL    HW112338   2.802   0.069   8.755
 3960SOL    HW212339   2.849   0.145   8.892
 3961SOL     OW12340   2.842   1.116   9.167
 3961SOL    HW112341   2.743   1.122   9.177
 3961SOL    HW212342   2.865   1.036   9.111
 3962SOL     OW12343   2.567   1.050   7.816
 3962SOL    HW112344   2.553   1.057   7.915
 3962SOL    HW212345   2.651   0.999   7.798
 3963SOL     OW12346   2.272   0.813   8.699
 3963SOL    HW112347   2.358   0.825   8.749
 3963SOL    HW212348   2.230   0.726   8.726
 3964SOL     OW12349   3.136   0.386   8.710
 3964SOL    HW112350   3.157   0.460   8.774
 3964SOL    HW212351   3.047   0.403   8.667
 3965SOL     OW12352   1.926   1.564   8.779
 3965SOL    HW112353   1.880   1.646   8.745
 3965SOL    HW212354   2.024   1.583   8.788
 3966SOL     OW12355   2.229   1.100   7.949
 3966SOL    HW112356   2.222   1.183   7.893
 3966SOL    HW212357   2.233   1.020   7.889
 3967SOL     OW12358   2.428   0.537   8.313
 3967SOL    HW112359   2.440   0.603   8.239
 3967SOL    HW212360   2.474   0.571   8.396
 3968SOL     OW12361   3.114   1.348   7.836
 3968SOL    HW112362   3.164   1.425   7.876
 3968SOL    HW212363   3.019   1.350   7.868
 3969SOL     OW12364   3.134   1.445   8.590
 3969SOL    HW112365   3.181   1.458   8.677
 3969SOL    HW212366   3.068   1.371   8.599
 3970SOL     OW12367   3.444   0.639   7.920
 3970SOL    HW112368   3.413   0.700   7.993
 3970SOL    HW212369   3.494   0.691   7.851
 3971SOL     OW12370   2.216   1.510   8.777
 3971SOL    HW112371   2.195   1.466   8.690
 3971SOL    HW212372   2.313   1.536   8.780
 3972SOL     OW12373   2.264   0.751   9.046
 3972SOL    HW112374   2.332   0.806   8.999
 3972SOL    HW212375   2.304   0.663   9.073
 3973SOL     OW12376   3.449   0.779   9.118
 3973SOL    HW112377   3.357   0.817   9.113
 3973SOL    HW212378   3.509   0.826   9.053
 3974SOL     OW12379   2.875   0.105   9.218
 3974SOL    HW112380   2.881   0.190   9.166
 3974SOL    HW212381   2.907   0.029   9.161
 3975SOL     OW12382   2.366   0.050   9.188
 3975SOL    HW112383   2.324  -0.007   9.118
 3975SOL    HW212384   2.300   0.119   9.220
 3976SOL     OW12385   2.435   0.870   8.477
 3976SOL    HW112386   2.479   0.959   8.468
 3976SOL    HW212387   2.372   0.870   8.554
 3977SOL     OW12388   3.222   0.862   8.493
 3977SOL    HW112389   3.147   0.862   8.427
 3977SOL    HW212390   3.259   0.770   8.502
 3978SOL     OW12391   3.071   0.525   7.723
 3978SOL    HW112392   3.084   0.441   7.777
 3978SOL    HW212393   3.042   0.599   7.783
 3979SOL     OW12394   2.169   0.213   8.679
 3979SOL    HW112395   2.146   0.250   8.769
 3979SOL    HW212396   2.139   0.118   8.673
 3980SOL     OW12397   1.899   1.310   8.730
 3980SOL    HW112398   1.952   1.261   8.798
 3980SOL    HW212399   1.921   1.408   8.735
 3981SOL     OW12400   2.594   0.634   8.512
 3981SOL    HW112401   2.653   0.608   8.436
 3981SOL    HW212402   2.566   0.730   8.501
 3982SOL     OW12403   3.590   0.935   9.302
 3982SOL    HW112404   3.544   0.928   9.213
 3982SOL    HW212405   3.528   0.979   9.368
 3983SOL     OW12406   2.169   0.063   8.066
 3983SOL    HW112407   2.158   0.157   8.099
 3983SOL    HW212408   2.164   0.000   8.143
 3984SOL     OW12409   3.484   0.367   7.822
 3984SOL    HW112410   3.486   0.291   7.886
 3984SOL    HW212411   3.436   0.444   7.862
 3985SOL     OW12412   2.885   0.766   8.414
 3985SOL    HW112413   2.900   0.787   8.510
 3985SOL    HW212414   2.855   0.671   8.405
 3986SOL     OW12415   2.842   1.573   9.148
 3986SOL    HW112416   2.822   1.617   9.060
 3986SOL    HW212417   2.881   1.482   9.132
 3987SOL     OW12418   3.721   1.518   9.053
 3987SOL    HW112419   3.735   1.545   8.958
 3987SOL    HW212420   3.804   1.540   9.106
 3988SOL     OW12421   2.212   0.898   9.252
 3988SOL    HW112422   2.288   0.942   9.300
 3988SOL    HW212423   2.247   0.851   9.170
 3989SOL     OW12424   3.402   0.274   7.573
 3989SOL    HW112425   3.341   0.199   7.596
 3989SOL    HW212426   3.424   0.326   7.656
 3990SOL     OW12427   3.165   0.838   7.490
 3990SOL    HW112428   3.199   0.745   7.505
 3990SOL    HW212429   3.183   0.865   7.395
 3991SOL     OW12430   2.930   1.333   8.297
 3991SOL    HW112431   2.937   1.249   8.242
 3991SOL    HW212432   2.992   1.402   8.261
 3992SOL     OW12433   2.181   0.810   8.397
 3992SOL    HW112434   2.274   0.846   8.402
 3992SOL    HW212435   2.175   0.725   8.449
 3993SOL     OW12436   2.201   0.509   8.454
 3993SOL    HW112437   2.149   0.426   8.437
 3993SOL    HW212438   2.278   0.514   8.390
 3994SOL     OW12439   3.000   0.380   9.126
 3994SOL    HW112440   2.955   0.443   9.190
 3994SOL    HW212441   3.093   0.411   9.109
 3995SOL     OW12442   3.022   0.207   8.925
 3995SOL    HW112443   3.022   0.271   9.002
 3995SOL    HW212444   3.050   0.255   8.842
 3996SOL     OW12445   1.870   1.326   7.648
 3996SOL    HW112446   1.777   1.347   7.617
 3996SOL    HW212447   1.880   1.227   7.661
 3997SOL     OW12448   1.950   1.801   8.375
 3997SOL    HW112449   1.908   1.715   8.348
 3997SOL    HW212450   2.044   1.804   8.341
 3998SOL     OW12451   2.366   1.568   8.358
 3998SOL    HW112452   2.432   1.642   8.367
 3998SOL    HW212453   2.410   1.489   8.316
 3999SOL     OW12454   2.864   0.796   8.686
 3999SOL    HW112455   2.905   0.764   8.772
 3999SOL    HW212456   2.768   0.769   8.683
 4000SOL     OW12457   1.902   0.544   8.562
 4000SOL    HW112458   1.987   0.511   8.521
 4000SOL    HW212459   1.915   0.559   8.660
 4001SOL     OW12460   2.051   0.520   9.170
 4001SOL    HW112461   2.110   0.480   9.100
 4001SOL    HW212462   1.993   0.591   9.129
 4002SOL     OW12463   3.231   0.950   9.108
 4002SOL    HW112464   3.270   1.039   9.128
 4002SOL    HW212465   3.241   0.930   9.011
 4003SOL     OW12466   2.677   0.572   7.773
 4003SOL    HW112467   2.684   0.483   7.727
 4003SOL    HW212468   2.583   0.606   7.765
 4004SOL     OW12469   3.519   0.604   8.654
 4004SOL    HW112470   3.481   0.535   8.716
 4004SOL    HW212471   3.601   0.568   8.610
 4005SOL     OW12472   2.114   1.564   9.192
 4005SOL    HW112473   2.084   1.621   9.268
 4005SOL    HW212474   2.107   1.467   9.218
 4006SOL     OW12475   2.533   0.464   8.717
 4006SOL    HW112476   2.499   0.375   8.687
 4006SOL    HW212477   2.559   0.518   8.637
 4007SOL     OW12478   2.792   1.678   8.913
 4007SOL    HW112479   2.768   1.660   8.818
 4007SOL    HW212480   2.822   1.772   8.923
 4008SOL     OW12481   2.335   0.500   7.639
 4008SOL    HW112482   2.396   0.580   7.643
 4008SOL    HW212483   2.240   0.531   7.646
 4009SOL     OW12484   2.021   1.137   8.914
 4009SOL    HW112485   2.043   1.076   8.990
 4009SOL    HW212486   2.031   1.088   8.828
 4010SOL     OW12487   3.209   1.059   8.682
 4010SOL    HW112488   3.233   0.996   8.608
 4010SOL    HW212489   3.119   1.099   8.664
 4011SOL     OW12490   3.164   0.855   7.757
 4011SOL    HW112491   3.078   0.824   7.799
 4011SOL    HW212492   3.160   0.841   7.658
 4012SOL     OW12493   3.621   1.747   8.602
 4012SOL    HW112494   3.682   1.777   8.529
 4012SOL    HW212495   3.583   1.658   8.580
 4013SOL     OW12496   3.114   1.731   8.576
 4013SOL    HW112497   3.198   1.736   8.522
 4013SOL    HW212498   3.091   1.635   8.594
 4014SOL     OW12499   1.945   1.258   8.470
 4014SOL    HW112500   1.940   1.257   8.570
 4014SOL    HW212501   1.862   1.217   8.432
 4015SOL     OW12502   2.550   1.662   9.164
 4015SOL    HW112503   2.494   1.743   9.173
 4015SOL    HW212504   2.602   1.666   9.078
 4016SOL     OW12505   3.588   0.135   7.971
 4016SOL    HW112506   3.661   0.118   7.904
 4016SOL    HW212507   3.557   0.048   8.009
 4017SOL     OW12508   3.250   1.573   7.925
 4017SOL    HW112509   3.317   1.585   7.851
 4017SOL    HW212510   3.210   1.662   7.948
 4018SOL     OW12511   1.992   1.794   9.299
 4018SOL    HW112512   1.951   1.720   9.352
 4018SOL    HW212513   2.056   1.845   9.357
 4019SOL     OW12514   3.142   0.927   8.120
 4019SOL    HW112515   3.202   0.846   8.122
 4019SOL    HW212516   3.182   0.996   8.060
 4020SOL     OW12517   2.692   1.273   8.870
 4020SOL    HW112518   2.687   1.306   8.965
 4020SOL    HW212519   2.606   1.292   8.824
 4021SOL     OW12520   2.534   1.616   7.602
 4021SOL    HW112521   2.543   1.626   7.503
 4021SOL    HW212522   2.494   1.527   7.623
 4022SOL     OW12523   3.512   1.720   8.842
 4022SOL    HW112524   3.565   1.730   8.758
 4022SOL    HW212525   3.485   1.810   8.876
 4023SOL     OW12526   3.703   0.175   8.411
 4023SOL    HW112527   3.742   0.090   8.375
 4023SOL    HW212528   3.605   0.177   8.392
 4024SOL     OW12529   2.125   0.326   8.168
 4024SOL    HW112530   2.046   0.377   8.134
 4024SOL    HW212531   2.116   0.311   8.266
 4025SOL     OW12532   3.056   1.612   7.479
 4025SOL    HW112533   3.062   1.519   7.516
 4025SOL    HW212534   2.997   1.612   7.399
 4026SOL     OW12535   2.684   1.002   8.820
 4026SOL    HW112536   2.724   1.001   8.728
 4026SOL    HW212537   2.694   1.094   8.860
 4027SOL     OW12538   2.778   0.910   7.739
 4027SOL    HW112539   2.841   0.948   7.671
 4027SOL    HW212540   2.818   0.827   7.778
 4028SOL     OW12541   3.366   1.607   7.492
 4028SOL    HW112542   3.274   1.644   7.499
 4028SOL    HW212543   3.404   1.627   7.402
 4029SOL     OW12544   2.234   1.288   8.938
 4029SOL    HW112545   2.221   1.381   8.904
 4029SOL    HW212546   2.150   1.236   8.925
 4030SOL     OW12547   3.476   1.292   8.737
 4030SOL    HW112548   3.536   1.295   8.817
 4030SOL    HW212549   3.401   1.356   8.750
 4031SOL     OW12550   2.901   1.098   8.144
 4031SOL    HW112551   2.831   1.051   8.198
 4031SOL    HW212552   2.960   1.030   8.101
 4032SOL     OW12553   2.876   0.236   8.419
 4032SOL    HW112554   2.868   0.200   8.326
 4032SOL    HW212555   2.874   0.160   8.484
 4033SOL     OW12556   2.452   1.487   7.939
 4033SOL    HW112557   2.494   1.429   7.869
 4033SOL    HW212558   2.408   1.566   7.895
 4034SOL     OW12559   3.571   0.385   8.829
 4034SOL    HW112560   3.644   0.454   8.833
 4034SOL    HW212561   3.599   0.310   8.770
 4035SOL     OW12562   2.117   1.348   7.738
 4035SOL    HW112563   2.021   1.349   7.711
 4035SOL    HW212564   2.129   1.401   7.822
 4036SOL     OW12565   1.967   1.013   9.174
 4036SOL    HW112566   1.890   0.980   9.228
 4036SOL    HW212567   2.052   0.983   9.216
 4037SOL     OW12568   2.534   0.203   8.937
 4037SOL    HW112569   2.624   0.187   8.897
 4037SOL    HW212570   2.542   0.208   9.036
 4038SOL     OW12571   1.937   0.345   7.481
 4038SOL    HW112572   1.845   0.317   7.452
 4038SOL    HW212573   1.968   0.422   7.425
 4039SOL     OW12574   3.302   0.856   8.846
 4039SOL    HW112575   3.245   0.908   8.783
 4039SOL    HW212576   3.398   0.868   8.822
 4040SOL     OW12577   1.934   0.166   7.766
 4040SOL    HW112578   1.917   0.249   7.712
 4040SOL    HW212579   2.024   0.129   7.744
 4041SOL     OW12580   3.045   1.335   7.567
 4041SOL    HW112581   2.946   1.324   7.569
 4041SOL    HW212582   3.079   1.350   7.660
 4042SOL     OW12583   2.475   0.842   8.879
 4042SOL    HW112584   2.531   0.923   8.862
 4042SOL    HW212585   2.534   0.762   8.882
 4043SOL     OW12586   3.355   1.767   8.407
 4043SOL    HW112587   3.388   1.831   8.338
 4043SOL    HW212588   3.421   1.761   8.482
 4044SOL     OW12589   2.578   0.565   9.156
 4044SOL    HW112590   2.597   0.630   9.230
 4044SOL    HW212591   2.638   0.485   9.165
 4045SOL     OW12592   3.312   1.220   9.081
 4045SOL    HW112593   3.303   1.210   9.180
 4045SOL    HW212594   3.408   1.213   9.055
 4046SOL     OW12595   2.252   1.741   9.008
 4046SOL    HW112596   2.161   1.782   9.006
 4046SOL    HW212597   2.245   1.647   9.040
 4047SOL     OW12598   3.536   0.883   8.702
 4047SOL    HW112599   3.509   0.794   8.665
 4047SOL    HW212600   3.537   0.951   8.629
 4048SOL     OW12601   3.087   0.325   7.897
 4048SOL    HW112602   3.152   0.251   7.886
 4048SOL    HW212603   3.107   0.375   7.981
 4049SOL     OW12604   2.456   0.745   8.100
 4049SOL    HW112605   2.506   0.830   8.081
 4049SOL    HW212606   2.368   0.747   8.052
 4050SOL     OW12607   3.639   0.342   9.090
 4050SOL    HW112608   3.622   0.373   8.996
 4050SOL    HW212609   3.555   0.305   9.128
 4051SOL     OW12610   3.592   0.934   8.965
 4051SOL    HW112611   3.630   1.025   8.980
 4051SOL    HW212612   3.584   0.917   8.866
 4052SOL     OW12613   2.721   1.374   7.464
 4052SOL    HW112614   2.675   1.389   7.552
 4052SOL    HW212615   2.765   1.459   7.434
 4053SOL     OW12616   2.523   1.790   8.401
 4053SOL    HW112617   2.477   1.878   8.388
 4053SOL    HW212618   2.622   1.802   8.394
 4054SOL     OW12619   2.721   0.956   8.309
 4054SOL    HW112620   2.775   0.887   8.357
 4054SOL    HW212621   2.689   1.025   8.375
 4055SOL     OW12622   2.945   0.984   7.535
 4055SOL    HW112623   2.922   1.037   7.453
 4055SOL    HW212624   3.026   0.928   7.516
 4056SOL     OW12625   3.723   1.569   8.299
 4056SOL    HW112626   3.652   1.557   8.229
 4056SOL    HW212627   3.724   1.490   8.359
 4057SOL     OW12628   2.083   1.314   9.292
 4057SOL    HW112629   2.018   1.241   9.271
 4057SOL    HW212630   2.087   1.328   9.390
 4058SOL     OW12631   1.941   1.240   8.101
 4058SOL    HW112632   1.940   1.193   8.189
 4058SOL    HW212633   2.023   1.212   8.050
 4059SOL     OW12634   2.534   1.391   9.072
 4059SOL    HW112635   2.456   1.341   9.110
 4059SOL    HW212636   2.531   1.486   9.103
 4060SOL     OW12637   3.686   0.192   8.675
 4060SOL    HW112638   3.682   0.102   8.719
 4060SOL    HW212639   3.689   0.181   8.576
 4061SOL     OW12640   2.290   0.424   7.968
 4061SOL    HW112641   2.320   0.352   7.906
 4061SOL    HW212642   2.251   0.384   8.051
 4062SOL     OW12643   3.567   1.487   8.552
 4062SOL    HW112644   3.474   1.462   8.525
 4062SOL    HW212645   3.593   1.437   8.634
 4063SOL     OW12646   2.179   0.547   8.728
 4063SOL    HW112647   2.217   0.488   8.800
 4063SOL    HW212648   2.219   0.521   8.640
 4064SOL     OW12649   2.674   1.586   8.135
 4064SOL    HW112650   2.706   1.596   8.041
 4064SOL    HW212651   2.595   1.524   8.137
 4065SOL     OW12652   3.286   0.214   8.560
 4065SOL    HW112653   3.338   0.149   8.615
 4065SOL    HW212654   3.237   0.277   8.621
 4066SOL     OW12655   2.863   0.034   8.602
 4066SOL    HW112656   2.800  -0.038   8.571
 4066SOL    HW212657   2.956  -0.002   8.602
 4067SOL     OW12658   2.632   1.330   7.749
 4067SOL    HW112659   2.586   1.243   7.766
 4067SOL    HW212660   2.723   1.327   7.790
 4068SOL     OW12661   2.480   1.567   8.732
 4068SOL    HW112662   2.475   1.649   8.789
 4068SOL    HW212663   2.569   1.564   8.687
 4069SOL     OW12664   3.214   0.052   7.616
 4069SOL    HW112665   3.249   0.011   7.532
 4069SOL    HW212666   3.124   0.014   7.636
 4070SOL     OW12667   3.162   0.453   8.139
 4070SOL    HW112668   3.103   0.533   8.143
 4070SOL    HW212669   3.177   0.418   8.232
 4071SOL     OW12670   3.455   0.221   8.330
 4071SOL    HW112671   3.371   0.220   8.384
 4071SOL    HW212672   3.457   0.304   8.274
 4072SOL     OW12673   1.901   1.077   7.748
 4072SOL    HW112674   2.000   1.066   7.739
 4072SOL    HW212675   1.861   0.991   7.780
 4073SOL     OW12676   2.737   1.646   7.785
 4073SOL    HW112677   2.660   1.611   7.731
 4073SOL    HW212678   2.705   1.717   7.847
 4074SOL     OW12679   2.092   0.628   9.423
 4074SOL    HW112680   1.999   0.626   9.460
 4074SOL    HW212681   2.093   0.589   9.331
 4075SOL     OW12682   2.087   0.275  10.306
 4075SOL    HW112683   2.122   0.258  10.398
 4075SOL    HW212684   1.999   0.230  10.294
 4076SOL     OW12685   1.881   0.368   9.957
 4076SOL    HW112686   1.799   0.411   9.996
 4076SOL    HW212687   1.853   0.295   9.894
 4077SOL     OW12688   2.431   1.275  10.475
 4077SOL    HW112689   2.338   1.268  10.438
 4077SOL    HW212690   2.442   1.364  10.519
 4078SOL     OW12691   3.417   1.511  10.013
 4078SOL    HW112692   3.360   1.495  10.094
 4078SOL    HW212693   3.358   1.521   9.933
 4079SOL     OW12694   2.997   0.703  10.027
 4079SOL    HW112695   3.054   0.781  10.002
 4079SOL    HW212696   2.937   0.729  10.103
 4080SOL     OW12697   3.617   0.607   9.541
 4080SOL    HW112698   3.605   0.594   9.442
 4080SOL    HW212699   3.587   0.526   9.590
 4081SOL     OW12700   2.630   1.144  10.333
 4081SOL    HW112701   2.552   1.161  10.393
 4081SOL    HW212702   2.664   1.231  10.297
 4082SOL     OW12703   2.712   0.798  11.133
 4082SOL    HW112704   2.708   0.874  11.198
 4082SOL    HW212705   2.734   0.834  11.042
 4083SOL     OW12706   2.547   1.012   9.975
 4083SOL    HW112707   2.616   0.996  10.045
 4083SOL    HW212708   2.474   1.069  10.013
 4084SOL     OW12709   2.197   1.435  10.371
 4084SOL    HW112710   2.119   1.404  10.318
 4084SOL    HW212711   2.255   1.493  10.314
 4085SOL     OW12712   3.322   1.505  10.649
 4085SOL    HW112713   3.346   1.599  10.675
 4085SOL    HW212714   3.306   1.451  10.731
 4086SOL     OW12715   2.300   0.392  10.809
 4086SOL    HW112716   2.382   0.336  10.818
 4086SOL    HW212717   2.219   0.334  10.813
 4087SOL     OW12718   3.465   0.447  10.047
 4087SOL    HW112719   3.391   0.493   9.997
 4087SOL    HW212720   3.516   0.515  10.100
 4088SOL     OW12721   2.093   1.713   9.793
 4088SOL    HW112722   2.127   1.790   9.847
 4088SOL    HW212723   2.137   1.713   9.703
 4089SOL     OW12724   2.092   1.434   9.848
 4089SOL    HW112725   2.066   1.530   9.848
 4089SOL    HW212726   2.021   1.380   9.893
 4090SOL     OW12727   2.102   1.091  10.196
 4090SOL    HW112728   2.116   1.007  10.248
 4090SOL    HW212729   2.047   1.155  10.251
 4091SOL     OW12730   2.482   1.786  10.749
 4091SOL    HW112731   2.390   1.769  10.784
 4091SOL    HW212732   2.510   1.878  10.775
 4092SOL     OW12733   2.468   0.964   9.433
 4092SOL    HW112734   2.475   1.048   9.379
 4092SOL    HW212735   2.514   0.977   9.521
 4093SOL     OW12736   3.456   0.114  10.790
 4093SOL    HW112737   3.438   0.181  10.718
 4093SOL    HW212738   3.453   0.160  10.879
 4094SOL     OW12739   1.984   0.643   9.873
 4094SOL    HW112740   1.939   0.555   9.890
 4094SOL    HW212741   1.983   0.697   9.957
 4095SOL     OW12742   3.704   1.767   9.669
 4095SOL    HW112743   3.758   1.738   9.749
 4095SOL    HW212744   3.734   1.857   9.640
 4096SOL     OW12745   1.889   1.596   9.427
 4096SOL    HW112746   1.870   1.500   9.448
 4096SOL    HW212747   1.856   1.654   9.502
 4097SOL     OW12748   3.551   0.922   9.922
 4097SOL    HW112749   3.646   0.893   9.930
 4097SOL    HW212750   3.543   0.987   9.847
 4098SOL     OW12751   3.503   1.108   9.742
 4098SOL    HW112752   3.589   1.110   9.690
 4098SOL    HW212753   3.517   1.155   9.830
 4099SOL     OW12754   1.975   0.737  10.907
 4099SOL    HW112755   2.063   0.724  10.952
 4099SOL    HW212756   1.962   0.834  10.885
 4100SOL     OW12757   2.475   1.365  10.036
 4100SOL    HW112758   2.426   1.278  10.045
 4100SOL    HW212759   2.452   1.408   9.949
 4101SOL     OW12760   3.155   1.228  10.733
 4101SOL    HW112761   3.192   1.155  10.675
 4101SOL    HW212762   3.207   1.233  10.818
 4102SOL     OW12763   2.671   0.004   9.812
 4102SOL    HW112764   2.711   0.095   9.803
 4102SOL    HW212765   2.571   0.012   9.818
 4103SOL     OW12766   2.059   0.976  10.574
 4103SOL    HW112767   2.148   0.931  10.560
 4103SOL    HW212768   1.986   0.911  10.555
 4104SOL     OW12769   3.387   0.999   9.500
 4104SOL    HW112770   3.324   0.923   9.513
 4104SOL    HW212771   3.435   1.017   9.586
 4105SOL     OW12772   3.049   1.792  10.926
 4105SOL    HW112773   3.073   1.852  10.850
 4105SOL    HW212774   3.056   1.697  10.896
 4106SOL     OW12775   2.179   0.251  11.111
 4106SOL    HW112776   2.250   0.322  11.117
 4106SOL    HW212777   2.091   0.290  11.139
 4107SOL     OW12778   3.328   1.417  10.263
 4107SOL    HW112779   3.269   1.423  10.343
 4107SOL    HW212780   3.313   1.329  10.217
 4108SOL     OW12781   3.529   1.714   9.882
 4108SOL    HW112782   3.488   1.691   9.794
 4108SOL    HW212783   3.511   1.640   9.947
 4109SOL     OW12784   2.460   0.729   9.580
 4109SOL    HW112785   2.484   0.798   9.512
 4109SOL    HW212786   2.382   0.762   9.634
 4110SOL     OW12787   3.143   0.345  10.254
 4110SOL    HW112788   3.057   0.295  10.241
 4110SOL    HW212789   3.205   0.291  10.310
 4111SOL     OW12790   3.438   1.662   9.617
 4111SOL    HW112791   3.527   1.708   9.620
 4111SOL    HW212792   3.417   1.638   9.522
 4112SOL     OW12793   2.669   0.605  10.775
 4112SOL    HW112794   2.622   0.602  10.864
 4112SOL    HW212795   2.618   0.550  10.709
 4113SOL     OW12796   2.835   0.890  10.882
 4113SOL    HW112797   2.881   0.806  10.853
 4113SOL    HW212798   2.779   0.924  10.807
 4114SOL     OW12799   2.853   0.410  10.552
 4114SOL    HW112800   2.776   0.444  10.606
 4114SOL    HW212801   2.819   0.359  10.473
 4115SOL     OW12802   2.903   0.701   9.739
 4115SOL    HW112803   2.929   0.697   9.835
 4115SOL    HW212804   2.818   0.650   9.725
 4116SOL     OW12805   1.938   0.811  10.099
 4116SOL    HW112806   2.037   0.799  10.108
 4116SOL    HW212807   1.914   0.906  10.120
 4117SOL     OW12808   1.992   1.821  10.881
 4117SOL    HW112809   1.982   1.806  10.980
 4117SOL    HW212810   1.906   1.857  10.845
 4118SOL     OW12811   2.727   0.348   9.505
 4118SOL    HW112812   2.786   0.411   9.456
 4118SOL    HW212813   2.746   0.254   9.476
 4119SOL     OW12814   3.224   1.144   9.855
 4119SOL    HW112815   3.307   1.115   9.807
 4119SOL    HW212816   3.175   1.211   9.799
 4120SOL     OW12817   2.412   0.196  10.195
 4120SOL    HW112818   2.407   0.191  10.295
 4120SOL    HW212819   2.414   0.292  10.166
 4121SOL     OW12820   2.870   1.456   9.787
 4121SOL    HW112821   2.824   1.528   9.735
 4121SOL    HW212822   2.866   1.476   9.885
 4122SOL     OW12823   2.213   1.801  10.163
 4122SOL    HW112824   2.263   1.715  10.169
 4122SOL    HW212825   2.278   1.878  10.160
 4123SOL     OW12826   3.657   1.066  10.183
 4123SOL    HW112827   3.595   1.051  10.107
 4123SOL    HW212828   3.605   1.077  10.268
 4124SOL     OW12829   3.089   1.550  10.816
 4124SOL    HW112830   3.095   1.473  10.880
 4124SOL    HW212831   3.037   1.524  10.736
 4125SOL     OW12832   2.183   0.943   9.552
 4125SOL    HW112833   2.265   0.982   9.510
 4125SOL    HW212834   2.156   0.861   9.503
 4126SOL     OW12835   3.320   0.735  10.038
 4126SOL    HW112836   3.315   0.670  10.113
 4126SOL    HW212837   3.400   0.794  10.051
 4127SOL     OW12838   2.323   1.266  11.037
 4127SOL    HW112839   2.273   1.267  10.951
 4127SOL    HW212840   2.260   1.248  11.113
 4128SOL     OW12841   2.973   1.776   9.547
 4128SOL    HW112842   2.913   1.714   9.597
 4128SOL    HW212843   3.004   1.732   9.462
 4129SOL     OW12844   2.064   0.285  10.808
 4129SOL    HW112845   1.984   0.345  10.795
 4129SOL    HW212846   2.054   0.236  10.894
 4130SOL     OW12847   3.494   1.377   9.391
 4130SOL    HW112848   3.462   1.471   9.381
 4130SOL    HW212849   3.418   1.314   9.379
 4131SOL     OW12850   2.326   1.743   9.633
 4131SOL    HW112851   2.359   1.782   9.719
 4131SOL    HW212852   2.402   1.736   9.568
 4132SOL     OW12853   3.262   0.107   9.736
 4132SOL    HW112854   3.238   0.070   9.646
 4132SOL    HW212855   3.361   0.123   9.740
 4133SOL     OW12856   2.111   1.785  10.551
 4133SOL    HW112857   2.168   1.720  10.601
 4133SOL    HW212858   2.095   1.752  10.458
 4134SOL     OW12859   2.802   1.698  10.214
 4134SOL    HW112860   2.882   1.641  10.235
 4134SOL    HW212861   2.753   1.658  10.137
 4135SOL     OW12862   2.244   0.700   9.790
 4135SOL    HW112863   2.289   0.610   9.787
 4135SOL    HW212864   2.150   0.689   9.823
 4136SOL     OW12865   2.476   0.122   9.427
 4136SOL    HW112866   2.574   0.100   9.434
 4136SOL    HW212867   2.445   0.105   9.334
 4137SOL     OW12868   2.643   0.264  11.059
 4137SOL    HW112869   2.710   0.203  11.102
 4137SOL    HW212870   2.570   0.283  11.124
 4138SOL     OW12871   2.750   1.514  10.505
 4138SOL    HW112872   2.727   1.489  10.411
 4138SOL    HW212873   2.811   1.445  10.544
 4139SOL     OW12874   3.213   0.590  10.743
 4139SOL    HW112875   3.241   0.547  10.828
 4139SOL    HW212876   3.238   0.686  10.744
 4140SOL     OW12877   2.665   1.402  10.234
 4140SOL    HW112878   2.755   1.416  10.192
 4140SOL    HW212879   2.594   1.404  10.163
 4141SOL     OW12880   2.784   0.503  10.209
 4141SOL    HW112881   2.759   0.494  10.113
 4141SOL    HW212882   2.832   0.421  10.240
 4142SOL     OW12883   2.401   0.064   9.822
 4142SOL    HW112884   2.320   0.065   9.880
 4142SOL    HW212885   2.404   0.147   9.767
 4143SOL     OW12886   3.296   1.188   9.351
 4143SOL    HW112887   3.328   1.112   9.408
 4143SOL    HW212888   3.204   1.215   9.381
 4144SOL     OW12889   2.159   0.035   9.481
 4144SOL    HW112890   2.208   0.119   9.460
 4144SOL    HW212891   2.221  -0.030   9.526
 4145SOL     OW12892   2.797   0.236   9.790
 4145SOL    HW112893   2.749   0.277   9.712
 4145SOL    HW212894   2.896   0.234   9.771
 4146SOL     OW12895   2.938   0.683  10.774
 4146SOL    HW112896   2.858   0.622  10.777
 4146SOL    HW212897   3.019   0.630  10.750
 4147SOL     OW12898   3.089   1.570  10.103
 4147SOL    HW112899   3.110   1.644  10.038
 4147SOL    HW212900   3.157   1.570  10.176
 4148SOL     OW12901   2.321   1.152  10.051
 4148SOL    HW112902   2.250   1.125  10.116
 4148SOL    HW212903   2.295   1.124   9.958
 4149SOL     OW12904   3.133   1.797   9.901
 4149SOL    HW112905   3.177   1.861   9.837
 4149SOL    HW212906   3.083   1.849   9.971
 4150SOL     OW12907   2.894   0.549   9.326
 4150SOL    HW112908   2.853   0.631   9.287
 4150SOL    HW212909   2.958   0.575   9.399
 4151SOL     OW12910   1.940   0.556  10.696
 4151SOL    HW112911   2.032   0.555  10.655
 4151SOL    HW212912   1.934   0.630  10.763
 4152SOL     OW12913   2.423   0.222  10.457
 4152SOL    HW112914   2.461   0.138  10.494
 4152SOL    HW212915   2.335   0.241  10.501
 4153SOL     OW12916   2.728   0.454   9.952
 4153SOL    HW112917   2.696   0.526   9.890
 4153SOL    HW212918   2.752   0.373   9.899
 4154SOL     OW12919   2.879   0.039  10.063
 4154SOL    HW112920   2.807   0.044   9.994
 4154SOL    HW212921   2.855  -0.030  10.132
 4155SOL     OW12922   3.291   1.173  10.177
 4155SOL    HW112923   3.236   1.089  10.170
 4155SOL    HW212924   3.317   1.202  10.085
 4156SOL     OW12925   3.328   0.590  10.302
 4156SOL    HW112926   3.298   0.495  10.309
 4156SOL    HW212927   3.401   0.606  10.368
 4157SOL     OW12928   3.719   0.833   9.687
 4157SOL    HW112929   3.761   0.769   9.751
 4157SOL    HW212930   3.681   0.782   9.609
 4158SOL     OW12931   2.350   1.385   9.484
 4158SOL    HW112932   2.263   1.370   9.531
 4158SOL    HW212933   2.333   1.411   9.389
 4159SOL     OW12934   3.526   1.280   9.967
 4159SOL    HW112935   3.625   1.288   9.981
 4159SOL    HW212936   3.481   1.364   9.998
 4160SOL     OW12937   3.252   0.575   9.388
 4160SOL    HW112938   3.198   0.554   9.469
 4160SOL    HW212939   3.343   0.534   9.397
 4161SOL     OW12940   2.389   0.256   9.638
 4161SOL    HW112941   2.416   0.197   9.563
 4161SOL    HW212942   2.389   0.351   9.607
 4162SOL     OW12943   3.616   1.223  10.898
 4162SOL    HW112944   3.707   1.184  10.885
 4162SOL    HW212945   3.624   1.319  10.922
 4163SOL     OW12946   2.926   1.347  10.650
 4163SOL    HW112947   2.846   1.324  10.705
 4163SOL    HW212948   3.009   1.321  10.699
 4164SOL     OW12949   2.973   1.195  10.410
 4164SOL    HW112950   2.933   1.239  10.491
 4164SOL    HW212951   2.932   1.232  10.327
 4165SOL     OW12952   3.500   1.099  10.389
 4165SOL    HW112953   3.505   1.180  10.448
 4165SOL    HW212954   3.414   1.101  10.338
 4166SOL     OW12955   2.777   0.089  10.712
 4166SOL    HW112956   2.802   0.069  10.617
 4166SOL    HW212957   2.849   0.145  10.754
 4167SOL     OW12958   2.567   1.050   9.678
 4167SOL    HW112959   2.553   1.057   9.777
 4167SOL    HW212960   2.651   0.999   9.660
 4168SOL     OW12961   2.272   0.813  10.561
 4168SOL    HW112962   2.358   0.825  10.611
 4168SOL    HW212963   2.230   0.726  10.588
 4169SOL     OW12964   3.136   0.386  10.572
 4169SOL    HW112965   3.157   0.460  10.636
 4169SOL    HW212966   3.047   0.403  10.529
 4170SOL     OW12967   1.926   1.564  10.641
 4170SOL    HW112968   1.880   1.646  10.607
 4170SOL    HW212969   2.024   1.583  10.650
 4171SOL     OW12970   2.229   1.100   9.811
 4171SOL    HW112971   2.222   1.183   9.755
 4171SOL    HW212972   2.233   1.020   9.751
 4172SOL     OW12973   2.428   0.537  10.175
 4172SOL    HW112974   2.440   0.603  10.101
 4172SOL    HW212975   2.474   0.571  10.258
 4173SOL     OW12976   3.114   1.348   9.698
 4173SOL    HW112977   3.164   1.425   9.738
 4173SOL    HW212978   3.019   1.350   9.730
 4174SOL     OW12979   3.134   1.445  10.452
 4174SOL    HW112980   3.181   1.458  10.539
 4174SOL    HW212981   3.068   1.371  10.461
 4175SOL     OW12982   3.444   0.639   9.782
 4175SOL    HW112983   3.413   0.700   9.855
 4175SOL    HW212984   3.494   0.691   9.713
 4176SOL     OW12985   2.216   1.510  10.639
 4176SOL    HW112986   2.195   1.466  10.552
 4176SOL    HW212987   2.313   1.536  10.642
 4177SOL     OW12988   2.264   0.751  10.908
 4177SOL    HW112989   2.332   0.806  10.861
 4177SOL    HW212990   2.304   0.663  10.935
 4178SOL     OW12991   3.449   0.779  10.980
 4178SOL    HW112992   3.357   0.817  10.975
 4178SOL    HW212993   3.509   0.826  10.915
 4179SOL     OW12994   2.435   0.870  10.339
 4179SOL    HW112995   2.479   0.959  10.330
 4179SOL    HW212996   2.372   0.870  10.416
 4180SOL     OW12997   3.222   0.862  10.355
 4180SOL    HW112998   3.147   0.862  10.289
 4180SOL    HW212999   3.259   0.770  10.364
 4181SOL     OW13000   3.071   0.525   9.585
 4181SOL    HW113001   3.084   0.441   9.639
 4181SOL    HW213002   3.042   0.599   9.645
 4182SOL     OW13003   2.169   0.213  10.541
 4182SOL    HW113004   2.146   0.250  10.631
 4182SOL    HW213005   2.139   0.118  10.535
 4183SOL     OW13006   1.899   1.310  10.592
 4183SOL    HW113007   1.952   1.261  10.660
 4183SOL    HW213008   1.921   1.408  10.597
 4184SOL     OW13009   2.594   0.634  10.374
 4184SOL    HW113010   2.653   0.608  10.298
 4184SOL    HW213011   2.566   0.730  10.363
 4185SOL     OW13012   2.169   0.063   9.928
 4185SOL    HW113013   2.158   0.157   9.961
 4185SOL    HW213014   2.164   0.000  10.005
 4186SOL     OW13015   3.484   0.367   9.684
 4186SOL    HW113016   3.486   0.291   9.748
 4186SOL    HW213017   3.436   0.444   9.724
 4187SOL     OW13018   2.885   0.766  10.276
 4187SOL    HW113019   2.900   0.787  10.372
 4187SOL    HW213020   2.855   0.671  10.267
 4188SOL     OW13021   2.842   1.573  11.010
 4188SOL    HW113022   2.822   1.617  10.922
 4188SOL    HW213023   2.881   1.482  10.994
 4189SOL     OW13024   3.721   1.518  10.915
 4189SOL    HW113025   3.735   1.545  10.820
 4189SOL    HW213026   3.804   1.540  10.968
 4190SOL     OW13027   2.212   0.898  11.114
 4190SOL    HW113028   2.288   0.942  11.162
 4190SOL    HW213029   2.247   0.851  11.032
 4191SOL     OW13030   3.402   0.274   9.435
 4191SOL    HW113031   3.341   0.199   9.458
 4191SOL    HW213032   3.424   0.326   9.518
 4192SOL     OW13033   3.165   0.838   9.352
 4192SOL    HW113034   3.199   0.745   9.367
 4192SOL    HW213035   3.183   0.865   9.257
 4193SOL     OW13036   2.930   1.333  10.159
 4193SOL    HW113037   2.937   1.249  10.104
 4193SOL    HW213038   2.992   1.402  10.123
 4194SOL     OW13039   2.181   0.810  10.259
 4194SOL    HW113040   2.274   0.846  10.264
 4194SOL    HW213041   2.175   0.725  10.311
 4195SOL     OW13042   2.201   0.509  10.316
 4195SOL    HW113043   2.149   0.426  10.299
 4195SOL    HW213044   2.278   0.514  10.252
 4196SOL     OW13045   3.022   0.207  10.787
 4196SOL    HW113046   3.022   0.271  10.864
 4196SOL    HW213047   3.050   0.255  10.704
 4197SOL     OW13048   1.870   1.326   9.510
 4197SOL    HW113049   1.777   1.347   9.479
 4197SOL    HW213050   1.880   1.227   9.523
 4198SOL     OW13051   1.950   1.801  10.237
 4198SOL    HW113052   1.908   1.715  10.210
 4198SOL    HW213053   2.044   1.804  10.203
 4199SOL     OW13054   2.366   1.568  10.220
 4199SOL    HW113055   2.432   1.642  10.229
 4199SOL    HW213056   2.410   1.489  10.178
 4200SOL     OW13057   2.864   0.796  10.548
 4200SOL    HW113058   2.905   0.764  10.634
 4200SOL    HW213059   2.768   0.769  10.545
 4201SOL     OW13060   1.902   0.544  10.424
 4201SOL    HW113061   1.987   0.511  10.383
 4201SOL    HW213062   1.915   0.559  10.522
 4202SOL     OW13063   2.677   0.572   9.635
 4202SOL    HW113064   2.684   0.483   9.589
 4202SOL    HW213065   2.583   0.606   9.627
 4203SOL     OW13066   3.519   0.604  10.516
 4203SOL    HW113067   3.481   0.535  10.578
 4203SOL    HW213068   3.601   0.568  10.472
 4204SOL     OW13069   2.114   1.564  11.054
 4204SOL    HW113070   2.084   1.621  11.130
 4204SOL    HW213071   2.107   1.467  11.080
 4205SOL     OW13072   2.533   0.464  10.579
 4205SOL    HW113073   2.499   0.375  10.549
 4205SOL    HW213074   2.559   0.518  10.499
 4206SOL     OW13075   2.792   1.678  10.775
 4206SOL    HW113076   2.768   1.660  10.680
 4206SOL    HW213077   2.822   1.772  10.785
 4207SOL     OW13078   2.335   0.500   9.501
 4207SOL    HW113079   2.396   0.580   9.505
 4207SOL    HW213080   2.240   0.531   9.508
 4208SOL     OW13081   2.021   1.137  10.776
 4208SOL    HW113082   2.043   1.076  10.852
 4208SOL    HW213083   2.031   1.088  10.690
 4209SOL     OW13084   3.209   1.059  10.544
 4209SOL    HW113085   3.233   0.996  10.470
 4209SOL    HW213086   3.119   1.099  10.526
 4210SOL     OW13087   3.164   0.855   9.619
 4210SOL    HW113088   3.078   0.824   9.661
 4210SOL    HW213089   3.160   0.841   9.520
 4211SOL     OW13090   3.621   1.747  10.464
 4211SOL    HW113091   3.682   1.777  10.391
 4211SOL    HW213092   3.583   1.658  10.442
 4212SOL     OW13093   3.114   1.731  10.438
 4212SOL    HW113094   3.198   1.736  10.384
 4212SOL    HW213095   3.091   1.635  10.456
 4213SOL     OW13096   1.945   1.258  10.332
 4213SOL    HW113097   1.940   1.257  10.432
 4213SOL    HW213098   1.862   1.217  10.294
 4214SOL     OW13099   3.588   0.135   9.833
 4214SOL    HW113100   3.661   0.118   9.766
 4214SOL    HW213101   3.557   0.048   9.871
 4215SOL     OW13102   3.250   1.573   9.787
 4215SOL    HW113103   3.317   1.585   9.713
 4215SOL    HW213104   3.210   1.662   9.810
 4216SOL     OW13105   3.142   0.927   9.982
 4216SOL    HW113106   3.202   0.846   9.984
 4216SOL    HW213107   3.182   0.996   9.922
 4217SOL     OW13108   2.692   1.273  10.732
 4217SOL    HW113109   2.687   1.306  10.827
 4217SOL    HW213110   2.606   1.292  10.686
 4218SOL     OW13111   2.534   1.616   9.464
 4218SOL    HW113112   2.543   1.626   9.365
 4218SOL    HW213113   2.494   1.527   9.485
 4219SOL     OW13114   3.512   1.720  10.704
 4219SOL    HW113115   3.565   1.730  10.620
 4219SOL    HW213116   3.485   1.810  10.738
 4220SOL     OW13117   3.703   0.175  10.273
 4220SOL    HW113118   3.742   0.090  10.237
 4220SOL    HW213119   3.605   0.177  10.254
 4221SOL     OW13120   2.125   0.326  10.030
 4221SOL    HW113121   2.046   0.377   9.996
 4221SOL    HW213122   2.116   0.311  10.128
 4222SOL     OW13123   3.056   1.612   9.341
 4222SOL    HW113124   3.062   1.519   9.378
 4222SOL    HW213125   2.997   1.612   9.261
 4223SOL     OW13126   2.684   1.002  10.682
 4223SOL    HW113127   2.724   1.001  10.590
 4223SOL    HW213128   2.694   1.094  10.722
 4224SOL     OW13129   2.778   0.910   9.601
 4224SOL    HW113130   2.841   0.948   9.533
 4224SOL    HW213131   2.818   0.827   9.640
 4225SOL     OW13132   3.366   1.607   9.354
 4225SOL    HW113133   3.274   1.644   9.361
 4225SOL    HW213134   3.404   1.627   9.264
 4226SOL     OW13135   2.234   1.288  10.800
 4226SOL    HW113136   2.221   1.381  10.766
 4226SOL    HW213137   2.150   1.236  10.787
 4227SOL     OW13138   3.476   1.292  10.599
 4227SOL    HW113139   3.536   1.295  10.679
 4227SOL    HW213140   3.401   1.356  10.612
 4228SOL     OW13141   2.901   1.098  10.006
 4228SOL    HW113142   2.831   1.051  10.060
 4228SOL    HW213143   2.960   1.030   9.963
 4229SOL     OW13144   2.876   0.236  10.281
 4229SOL    HW113145   2.868   0.200  10.188
 4229SOL    HW213146   2.874   0.160  10.346
 4230SOL     OW13147   2.452   1.487   9.801
 4230SOL    HW113148   2.494   1.429   9.731
 4230SOL    HW213149   2.408   1.566   9.757
 4231SOL     OW13150   3.571   0.385  10.691
 4231SOL    HW113151   3.644   0.454  10.695
 4231SOL    HW213152   3.599   0.310  10.632
 4232SOL     OW13153   2.117   1.348   9.600
 4232SOL    HW113154   2.021   1.349   9.573
 4232SOL    HW213155   2.129   1.401   9.684
 4233SOL     OW13156   1.967   1.013  11.036
 4233SOL    HW113157   1.890   0.980  11.090
 4233SOL    HW213158   2.052   0.983  11.078
 4234SOL     OW13159   2.534   0.203  10.799
 4234SOL    HW113160   2.624   0.187  10.759
 4234SOL    HW213161   2.542   0.208  10.898
 4235SOL     OW13162   1.937   0.345   9.343
 4235SOL    HW113163   1.845   0.317   9.314
 4235SOL    HW213164   1.968   0.422   9.287
 4236SOL     OW13165   3.302   0.856  10.708
 4236SOL    HW113166   3.245   0.908  10.645
 4236SOL    HW213167   3.398   0.868  10.684
 4237SOL     OW13168   1.934   0.166   9.628
 4237SOL    HW113169   1.917   0.249   9.574
 4237SOL    HW213170   2.024   0.129   9.606
 4238SOL     OW13171   3.045   1.335   9.429
 4238SOL    HW113172   2.946   1.324   9.431
 4238SOL    HW213173   3.079   1.350   9.522
 4239SOL     OW13174   2.475   0.842  10.741
 4239SOL    HW113175   2.531   0.923  10.724
 4239SOL    HW213176   2.534   0.762  10.744
 4240SOL     OW13177   3.355   1.767  10.269
 4240SOL    HW113178   3.388   1.831  10.200
 4240SOL    HW213179   3.421   1.761  10.344
 4241SOL     OW13180   2.578   0.565  11.018
 4241SOL    HW113181   2.597   0.630  11.092
 4241SOL    HW213182   2.638   0.485  11.027
 4242SOL     OW13183   2.252   1.741  10.870
 4242SOL    HW113184   2.161   1.782  10.868
 4242SOL    HW213185   2.245   1.647  10.902
 4243SOL     OW13186   3.536   0.883  10.564
 4243SOL    HW113187   3.509   0.794  10.527
 4243SOL    HW213188   3.537   0.951  10.491
 4244SOL     OW13189   3.087   0.325   9.759
 4244SOL    HW113190   3.152   0.251   9.748
 4244SOL    HW213191   3.107   0.375   9.843
 4245SOL     OW13192   2.456   0.745   9.962
 4245SOL    HW113193   2.506   0.830   9.943
 4245SOL    HW213194   2.368   0.747   9.914
 4246SOL     OW13195   3.639   0.342  10.952
 4246SOL    HW113196   3.622   0.373  10.858
 4246SOL    HW213197   3.555   0.305  10.990
 4247SOL     OW13198   3.592   0.934  10.827
 4247SOL    HW113199   3.630   1.025  10.842
 4247SOL    HW213200   3.584   0.917  10.728
 4248SOL     OW13201   2.721   1.374   9.326
 4248SOL    HW113202   2.675   1.389   9.414
 4248SOL    HW213203   2.765   1.459   9.296
 4249SOL     OW13204   2.523   1.790  10.263
 4249SOL    HW113205   2.477   1.878  10.250
 4249SOL    HW213206   2.622   1.802  10.256
 4250SOL     OW13207   2.721   0.956  10.171
 4250SOL    HW113208   2.775   0.887  10.219
 4250SOL    HW213209   2.689   1.025  10.237
 4251SOL     OW13210   2.945   0.984   9.397
 4251SOL    HW113211   2.922   1.037   9.315
 4251SOL    HW213212   3.026   0.928   9.378
 4252SOL     OW13213   3.723   1.569  10.161
 4252SOL    HW113214   3.652   1.557  10.091
 4252SOL    HW213215   3.724   1.490  10.221
 4253SOL     OW13216   1.941   1.240   9.963
 4253SOL    HW113217   1.940   1.193  10.051
 4253SOL    HW213218   2.023   1.212   9.912
 4254SOL     OW13219   2.534   1.391  10.934
 4254SOL    HW113220   2.456   1.341  10.972
 4254SOL    HW213221   2.531   1.486  10.965
 4255SOL     OW13222   3.686   0.192  10.537
 4255SOL    HW113223   3.682   0.102  10.581
 4255SOL    HW213224   3.689   0.181  10.438
 4256SOL     OW13225   2.290   0.424   9.830
 4256SOL    HW113226   2.320   0.352   9.768
 4256SOL    HW213227   2.251   0.384   9.913
 4257SOL     OW13228   3.567   1.487  10.414
 4257SOL    HW113229   3.474   1.462  10.387
 4257SOL    HW213230   3.593   1.437  10.496
 4258SOL     OW13231   2.179   0.547  10.590
 4258SOL    HW113232   2.217   0.488  10.662
 4258SOL    HW213233   2.219   0.521  10.502
 4259SOL     OW13234   2.674   1.586   9.997
 4259SOL    HW113235   2.706   1.596   9.903
 4259SOL    HW213236   2.595   1.524   9.999
 4260SOL     OW13237   3.286   0.214  10.422
 4260SOL    HW113238   3.338   0.149  10.477
 4260SOL    HW213239   3.237   0.277  10.483
 4261SOL     OW13240   2.863   0.034  10.464
 4261SOL    HW113241   2.800  -0.038  10.433
 4261SOL    HW213242   2.956  -0.002  10.464
 4262SOL     OW13243   2.632   1.330   9.611
 4262SOL    HW113244   2.586   1.243   9.628
 4262SOL    HW213245   2.723   1.327   9.652
 4263SOL     OW13246   2.480   1.567  10.594
 4263SOL    HW113247   2.475   1.649  10.651
 4263SOL    HW213248   2.569   1.564  10.549
 4264SOL     OW13249   3.214   0.052   9.478
 4264SOL    HW113250   3.249   0.011   9.394
 4264SOL    HW213251   3.124   0.014   9.498
 4265SOL     OW13252   3.162   0.453  10.001
 4265SOL    HW113253   3.103   0.533  10.005
 4265SOL    HW213254   3.177   0.418  10.094
 4266SOL     OW13255   3.455   0.221  10.192
 4266SOL    HW113256   3.371   0.220  10.246
 4266SOL    HW213257   3.457   0.304  10.136
 4267SOL     OW13258   1.901   1.077   9.610
 4267SOL    HW113259   2.000   1.066   9.601
 4267SOL    HW213260   1.861   0.991   9.642
 4268SOL     OW13261   2.737   1.646   9.647
 4268SOL    HW113262   2.660   1.611   9.593
 4268SOL    HW213263   2.705   1.717   9.709
 4269SOL     OW13264   2.092   2.490   0.113
 4269SOL    HW113265   1.999   2.488   0.150
 4269SOL    HW213266   2.093   2.451   0.021
 4270SOL     OW13267   1.881   2.230   0.647
 4270SOL    HW113268   1.799   2.273   0.686
 4270SOL    HW213269   1.853   2.157   0.584
 4271SOL     OW13270   2.431   3.137   1.165
 4271SOL    HW113271   2.338   3.130   1.128
 4271SOL    HW213272   2.442   3.226   1.209
 4272SOL     OW13273   3.417   3.373   0.703
 4272SOL    HW113274   3.360   3.357   0.784
 4272SOL    HW213275   3.358   3.383   0.623
 4273SOL     OW13276   2.997   2.565   0.717
 4273SOL    HW113277   3.054   2.643   0.692
 4273SOL    HW213278   2.937   2.591   0.793
 4274SOL     OW13279   3.617   2.469   0.231
 4274SOL    HW113280   3.605   2.456   0.132
 4274SOL    HW213281   3.587   2.388   0.280
 4275SOL     OW13282   2.630   3.006   1.023
 4275SOL    HW113283   2.552   3.023   1.083
 4275SOL    HW213284   2.664   3.093   0.987
 4276SOL     OW13285   2.712   2.660   1.823
 4276SOL    HW113286   2.708   2.736   1.888
 4276SOL    HW213287   2.734   2.696   1.732
 4277SOL     OW13288   2.547   2.874   0.665
 4277SOL    HW113289   2.616   2.858   0.735
 4277SOL    HW213290   2.474   2.931   0.703
 4278SOL     OW13291   2.548   3.023   1.803
 4278SOL    HW113292   2.608   3.102   1.817
 4278SOL    HW213293   2.462   3.054   1.762
 4279SOL     OW13294   2.197   3.297   1.061
 4279SOL    HW113295   2.119   3.266   1.008
 4279SOL    HW213296   2.255   3.355   1.004
 4280SOL     OW13297   3.322   3.367   1.339
 4280SOL    HW113298   3.346   3.461   1.365
 4280SOL    HW213299   3.306   3.313   1.421
 4281SOL     OW13300   3.465   2.309   0.737
 4281SOL    HW113301   3.391   2.355   0.687
 4281SOL    HW213302   3.516   2.377   0.790
 4282SOL     OW13303   2.093   3.575   0.483
 4282SOL    HW113304   2.127   3.652   0.537
 4282SOL    HW213305   2.137   3.575   0.393
 4283SOL     OW13306   2.989   3.203   1.690
 4283SOL    HW113307   3.036   3.203   1.778
 4283SOL    HW213308   2.941   3.116   1.679
 4284SOL     OW13309   2.092   3.296   0.538
 4284SOL    HW113310   2.066   3.392   0.538
 4284SOL    HW213311   2.021   3.242   0.583
 4285SOL     OW13312   2.102   2.953   0.886
 4285SOL    HW113313   2.116   2.869   0.938
 4285SOL    HW213314   2.047   3.017   0.941
 4286SOL     OW13315   2.482   3.648   1.439
 4286SOL    HW113316   2.390   3.631   1.474
 4286SOL    HW213317   2.510   3.740   1.465
 4287SOL     OW13318   2.468   2.826   0.123
 4287SOL    HW113319   2.475   2.910   0.069
 4287SOL    HW213320   2.514   2.839   0.211
 4288SOL     OW13321   3.456   1.976   1.480
 4288SOL    HW113322   3.438   2.043   1.408
 4288SOL    HW213323   3.453   2.022   1.569
 4289SOL     OW13324   1.984   2.505   0.563
 4289SOL    HW113325   1.939   2.417   0.580
 4289SOL    HW213326   1.983   2.559   0.647
 4290SOL     OW13327   3.704   3.629   0.359
 4290SOL    HW113328   3.758   3.600   0.439
 4290SOL    HW213329   3.734   3.719   0.330
 4291SOL     OW13330   1.889   3.458   0.117
 4291SOL    HW113331   1.870   3.362   0.138
 4291SOL    HW213332   1.856   3.516   0.192
 4292SOL     OW13333   3.551   2.784   0.612
 4292SOL    HW113334   3.646   2.755   0.620
 4292SOL    HW213335   3.543   2.849   0.537
 4293SOL     OW13336   3.503   2.970   0.432
 4293SOL    HW113337   3.589   2.972   0.380
 4293SOL    HW213338   3.517   3.017   0.520
 4294SOL     OW13339   1.975   2.599   1.597
 4294SOL    HW113340   2.063   2.586   1.642
 4294SOL    HW213341   1.962   2.696   1.575
 4295SOL     OW13342   2.475   3.227   0.726
 4295SOL    HW113343   2.426   3.140   0.735
 4295SOL    HW213344   2.452   3.270   0.639
 4296SOL     OW13345   3.155   3.090   1.423
 4296SOL    HW113346   3.192   3.017   1.365
 4296SOL    HW213347   3.207   3.095   1.508
 4297SOL     OW13348   2.671   1.866   0.502
 4297SOL    HW113349   2.711   1.957   0.493
 4297SOL    HW213350   2.571   1.874   0.508
 4298SOL     OW13351   2.059   2.838   1.264
 4298SOL    HW113352   2.148   2.793   1.250
 4298SOL    HW213353   1.986   2.773   1.245
 4299SOL     OW13354   3.387   2.861   0.190
 4299SOL    HW113355   3.324   2.785   0.203
 4299SOL    HW213356   3.435   2.879   0.276
 4300SOL     OW13357   3.049   3.654   1.616
 4300SOL    HW113358   3.073   3.714   1.540
 4300SOL    HW213359   3.056   3.559   1.586
 4301SOL     OW13360   3.328   3.279   0.953
 4301SOL    HW113361   3.269   3.285   1.033
 4301SOL    HW213362   3.313   3.191   0.907
 4302SOL     OW13363   3.529   3.576   0.572
 4302SOL    HW113364   3.488   3.553   0.484
 4302SOL    HW213365   3.511   3.502   0.637
 4303SOL     OW13366   2.460   2.591   0.270
 4303SOL    HW113367   2.484   2.660   0.202
 4303SOL    HW213368   2.382   2.624   0.324
 4304SOL     OW13369   3.143   2.207   0.944
 4304SOL    HW113370   3.057   2.157   0.931
 4304SOL    HW213371   3.205   2.153   1.000
 4305SOL     OW13372   3.438   3.524   0.307
 4305SOL    HW113373   3.527   3.570   0.310
 4305SOL    HW213374   3.417   3.500   0.212
 4306SOL     OW13375   2.669   2.467   1.465
 4306SOL    HW113376   2.622   2.464   1.554
 4306SOL    HW213377   2.618   2.412   1.399
 4307SOL     OW13378   3.256   2.331   1.674
 4307SOL    HW113379   3.236   2.374   1.762
 4307SOL    HW213380   3.334   2.269   1.683
 4308SOL     OW13381   2.835   2.752   1.572
 4308SOL    HW113382   2.881   2.668   1.543
 4308SOL    HW213383   2.779   2.786   1.497
 4309SOL     OW13384   2.853   2.272   1.242
 4309SOL    HW113385   2.776   2.306   1.296
 4309SOL    HW213386   2.819   2.221   1.163
 4310SOL     OW13387   2.903   2.563   0.429
 4310SOL    HW113388   2.929   2.559   0.525
 4310SOL    HW213389   2.818   2.512   0.415
 4311SOL     OW13390   1.938   2.673   0.789
 4311SOL    HW113391   2.037   2.661   0.798
 4311SOL    HW213392   1.914   2.768   0.810
 4312SOL     OW13393   1.992   3.683   1.571
 4312SOL    HW113394   1.982   3.668   1.670
 4312SOL    HW213395   1.906   3.719   1.535
 4313SOL     OW13396   2.727   2.210   0.195
 4313SOL    HW113397   2.786   2.273   0.146
 4313SOL    HW213398   2.746   2.116   0.166
 4314SOL     OW13399   3.581   2.447   1.831
 4314SOL    HW113400   3.555   2.536   1.795
 4314SOL    HW213401   3.579   2.379   1.758
 4315SOL     OW13402   3.224   3.006   0.545
 4315SOL    HW113403   3.307   2.977   0.497
 4315SOL    HW213404   3.175   3.073   0.489
 4316SOL     OW13405   2.870   3.318   0.477
 4316SOL    HW113406   2.824   3.390   0.425
 4316SOL    HW213407   2.866   3.338   0.575
 4317SOL     OW13408   2.213   3.663   0.853
 4317SOL    HW113409   2.263   3.577   0.859
 4317SOL    HW213410   2.278   3.740   0.850
 4318SOL     OW13411   3.657   2.928   0.873
 4318SOL    HW113412   3.595   2.913   0.797
 4318SOL    HW213413   3.605   2.939   0.958
 4319SOL     OW13414   3.089   3.412   1.506
 4319SOL    HW113415   3.095   3.335   1.570
 4319SOL    HW213416   3.037   3.386   1.426
 4320SOL     OW13417   2.183   2.805   0.242
 4320SOL    HW113418   2.265   2.844   0.200
 4320SOL    HW213419   2.156   2.723   0.193
 4321SOL     OW13420   3.320   2.597   0.728
 4321SOL    HW113421   3.315   2.532   0.803
 4321SOL    HW213422   3.400   2.656   0.741
 4322SOL     OW13423   2.323   3.128   1.727
 4322SOL    HW113424   2.273   3.129   1.641
 4322SOL    HW213425   2.260   3.110   1.803
 4323SOL     OW13426   2.973   3.638   0.237
 4323SOL    HW113427   2.913   3.576   0.287
 4323SOL    HW213428   3.004   3.594   0.152
 4324SOL     OW13429   2.064   2.147   1.498
 4324SOL    HW113430   1.984   2.207   1.485
 4324SOL    HW213431   2.054   2.098   1.584
 4325SOL     OW13432   3.494   3.239   0.081
 4325SOL    HW113433   3.462   3.333   0.071
 4325SOL    HW213434   3.418   3.176   0.069
 4326SOL     OW13435   2.326   3.605   0.323
 4326SOL    HW113436   2.359   3.644   0.409
 4326SOL    HW213437   2.402   3.598   0.258
 4327SOL     OW13438   3.262   1.969   0.426
 4327SOL    HW113439   3.238   1.932   0.336
 4327SOL    HW213440   3.361   1.985   0.430
 4328SOL     OW13441   2.111   3.647   1.241
 4328SOL    HW113442   2.168   3.582   1.291
 4328SOL    HW213443   2.095   3.614   1.148
 4329SOL     OW13444   2.802   3.560   0.904
 4329SOL    HW113445   2.882   3.503   0.925
 4329SOL    HW213446   2.753   3.520   0.827
 4330SOL     OW13447   2.244   2.562   0.480
 4330SOL    HW113448   2.289   2.472   0.477
 4330SOL    HW213449   2.150   2.551   0.513
 4331SOL     OW13450   3.409   2.084   1.729
 4331SOL    HW113451   3.404   2.121   1.821
 4331SOL    HW213452   3.337   2.015   1.717
 4332SOL     OW13453   2.476   1.984   0.117
 4332SOL    HW113454   2.574   1.962   0.124
 4332SOL    HW213455   2.445   1.967   0.024
 4333SOL     OW13456   2.643   2.126   1.749
 4333SOL    HW113457   2.710   2.065   1.792
 4333SOL    HW213458   2.570   2.145   1.814
 4334SOL     OW13459   2.750   3.376   1.195
 4334SOL    HW113460   2.727   3.351   1.101
 4334SOL    HW213461   2.811   3.307   1.234
 4335SOL     OW13462   3.213   2.452   1.433
 4335SOL    HW113463   3.241   2.409   1.518
 4335SOL    HW213464   3.238   2.548   1.434
 4336SOL     OW13465   2.665   3.264   0.924
 4336SOL    HW113466   2.755   3.278   0.882
 4336SOL    HW213467   2.594   3.266   0.853
 4337SOL     OW13468   2.784   2.365   0.899
 4337SOL    HW113469   2.759   2.356   0.803
 4337SOL    HW213470   2.832   2.283   0.930
 4338SOL     OW13471   2.401   1.926   0.512
 4338SOL    HW113472   2.320   1.927   0.570
 4338SOL    HW213473   2.404   2.009   0.457
 4339SOL     OW13474   3.296   3.050   0.041
 4339SOL    HW113475   3.328   2.974   0.098
 4339SOL    HW213476   3.204   3.077   0.071
 4340SOL     OW13477   2.159   1.897   0.171
 4340SOL    HW113478   2.208   1.981   0.150
 4340SOL    HW213479   2.221   1.832   0.216
 4341SOL     OW13480   2.797   2.098   0.480
 4341SOL    HW113481   2.749   2.139   0.402
 4341SOL    HW213482   2.896   2.096   0.461
 4342SOL     OW13483   2.938   2.545   1.464
 4342SOL    HW113484   2.858   2.484   1.467
 4342SOL    HW213485   3.019   2.492   1.440
 4343SOL     OW13486   3.089   3.432   0.793
 4343SOL    HW113487   3.110   3.506   0.728
 4343SOL    HW213488   3.157   3.432   0.866
 4344SOL     OW13489   2.321   3.014   0.741
 4344SOL    HW113490   2.250   2.987   0.806
 4344SOL    HW213491   2.295   2.986   0.648
 4345SOL     OW13492   3.133   3.659   0.591
 4345SOL    HW113493   3.177   3.723   0.527
 4345SOL    HW213494   3.083   3.711   0.661
 4346SOL     OW13495   2.894   2.411   0.016
 4346SOL    HW113496   2.853   2.493  -0.023
 4346SOL    HW213497   2.958   2.437   0.089
 4347SOL     OW13498   1.940   2.418   1.386
 4347SOL    HW113499   2.032   2.417   1.345
 4347SOL    HW213500   1.934   2.492   1.453
 4348SOL     OW13501   2.423   2.084   1.147
 4348SOL    HW113502   2.461   2.000   1.184
 4348SOL    HW213503   2.335   2.103   1.191
 4349SOL     OW13504   2.728   2.316   0.642
 4349SOL    HW113505   2.696   2.388   0.580
 4349SOL    HW213506   2.752   2.235   0.589
 4350SOL     OW13507   2.879   1.901   0.753
 4350SOL    HW113508   2.807   1.906   0.684
 4350SOL    HW213509   2.855   1.832   0.822
 4351SOL     OW13510   3.291   3.035   0.867
 4351SOL    HW113511   3.236   2.951   0.860
 4351SOL    HW213512   3.317   3.064   0.775
 4352SOL     OW13513   3.328   2.452   0.992
 4352SOL    HW113514   3.298   2.357   0.999
 4352SOL    HW213515   3.401   2.468   1.058
 4353SOL     OW13516   3.719   2.695   0.377
 4353SOL    HW113517   3.761   2.631   0.441
 4353SOL    HW213518   3.681   2.644   0.299
 4354SOL     OW13519   2.350   3.247   0.174
 4354SOL    HW113520   2.263   3.232   0.221
 4354SOL    HW213521   2.333   3.273   0.079
 4355SOL     OW13522   3.526   3.142   0.657
 4355SOL    HW113523   3.625   3.150   0.671
 4355SOL    HW213524   3.481   3.226   0.688
 4356SOL     OW13525   3.252   2.437   0.078
 4356SOL    HW113526   3.198   2.416   0.159
 4356SOL    HW213527   3.343   2.396   0.087
 4357SOL     OW13528   3.616   3.085   1.588
 4357SOL    HW113529   3.707   3.046   1.575
 4357SOL    HW213530   3.624   3.181   1.612
 4358SOL     OW13531   2.926   3.209   1.340
 4358SOL    HW113532   2.846   3.186   1.395
 4358SOL    HW213533   3.009   3.183   1.389
 4359SOL     OW13534   3.454   3.491   1.625
 4359SOL    HW113535   3.481   3.525   1.535
 4359SOL    HW213536   3.533   3.453   1.671
 4360SOL     OW13537   2.973   3.057   1.100
 4360SOL    HW113538   2.933   3.101   1.181
 4360SOL    HW213539   2.932   3.094   1.017
 4361SOL     OW13540   3.500   2.961   1.079
 4361SOL    HW113541   3.505   3.042   1.138
 4361SOL    HW213542   3.414   2.963   1.028
 4362SOL     OW13543   2.777   1.951   1.402
 4362SOL    HW113544   2.802   1.931   1.307
 4362SOL    HW213545   2.849   2.007   1.444
 4363SOL     OW13546   2.842   2.978   1.719
 4363SOL    HW113547   2.743   2.984   1.729
 4363SOL    HW213548   2.865   2.898   1.663
 4364SOL     OW13549   2.567   2.912   0.368
 4364SOL    HW113550   2.553   2.919   0.467
 4364SOL    HW213551   2.651   2.861   0.350
 4365SOL     OW13552   2.272   2.675   1.251
 4365SOL    HW113553   2.358   2.687   1.301
 4365SOL    HW213554   2.230   2.588   1.278
 4366SOL     OW13555   3.136   2.248   1.262
 4366SOL    HW113556   3.157   2.322   1.326
 4366SOL    HW213557   3.047   2.265   1.219
 4367SOL     OW13558   1.926   3.426   1.331
 4367SOL    HW113559   1.880   3.508   1.297
 4367SOL    HW213560   2.024   3.445   1.340
 4368SOL     OW13561   2.229   2.962   0.501
 4368SOL    HW113562   2.222   3.045   0.445
 4368SOL    HW213563   2.233   2.882   0.441
 4369SOL     OW13564   3.114   3.210   0.388
 4369SOL    HW113565   3.164   3.287   0.428
 4369SOL    HW213566   3.019   3.212   0.420
 4370SOL     OW13567   3.134   3.307   1.142
 4370SOL    HW113568   3.181   3.320   1.229
 4370SOL    HW213569   3.068   3.233   1.151
 4371SOL     OW13570   3.444   2.501   0.472
 4371SOL    HW113571   3.413   2.562   0.545
 4371SOL    HW213572   3.494   2.553   0.403
 4372SOL     OW13573   2.216   3.372   1.329
 4372SOL    HW113574   2.195   3.328   1.242
 4372SOL    HW213575   2.313   3.398   1.332
 4373SOL     OW13576   2.264   2.613   1.598
 4373SOL    HW113577   2.332   2.668   1.551
 4373SOL    HW213578   2.304   2.525   1.625
 4374SOL     OW13579   3.449   2.641   1.670
 4374SOL    HW113580   3.357   2.679   1.665
 4374SOL    HW213581   3.509   2.688   1.605
 4375SOL     OW13582   2.875   1.967   1.770
 4375SOL    HW113583   2.881   2.052   1.718
 4375SOL    HW213584   2.907   1.891   1.713
 4376SOL     OW13585   2.366   1.912   1.740
 4376SOL    HW113586   2.324   1.855   1.670
 4376SOL    HW213587   2.300   1.981   1.772
 4377SOL     OW13588   2.435   2.732   1.029
 4377SOL    HW113589   2.479   2.821   1.020
 4377SOL    HW213590   2.372   2.732   1.106
 4378SOL     OW13591   3.222   2.724   1.045
 4378SOL    HW113592   3.147   2.724   0.979
 4378SOL    HW213593   3.259   2.632   1.054
 4379SOL     OW13594   3.071   2.387   0.275
 4379SOL    HW113595   3.084   2.303   0.329
 4379SOL    HW213596   3.042   2.461   0.335
 4380SOL     OW13597   1.899   3.172   1.282
 4380SOL    HW113598   1.952   3.123   1.350
 4380SOL    HW213599   1.921   3.270   1.287
 4381SOL     OW13600   2.594   2.496   1.064
 4381SOL    HW113601   2.653   2.470   0.988
 4381SOL    HW213602   2.566   2.592   1.053
 4382SOL     OW13603   3.590   2.797   1.854
 4382SOL    HW113604   3.544   2.790   1.765
 4382SOL    HW213605   3.528   2.841   1.920
 4383SOL     OW13606   2.169   1.925   0.618
 4383SOL    HW113607   2.158   2.019   0.651
 4383SOL    HW213608   2.164   1.862   0.695
 4384SOL     OW13609   3.484   2.229   0.374
 4384SOL    HW113610   3.486   2.153   0.438
 4384SOL    HW213611   3.436   2.306   0.414
 4385SOL     OW13612   2.885   2.628   0.966
 4385SOL    HW113613   2.900   2.649   1.062
 4385SOL    HW213614   2.855   2.533   0.957
 4386SOL     OW13615   2.842   3.435   1.700
 4386SOL    HW113616   2.822   3.479   1.612
 4386SOL    HW213617   2.881   3.344   1.684
 4387SOL     OW13618   3.721   3.380   1.605
 4387SOL    HW113619   3.735   3.407   1.510
 4387SOL    HW213620   3.804   3.402   1.658
 4388SOL     OW13621   2.212   2.760   1.804
 4388SOL    HW113622   2.288   2.804   1.852
 4388SOL    HW213623   2.247   2.713   1.722
 4389SOL     OW13624   3.402   2.136   0.125
 4389SOL    HW113625   3.341   2.061   0.148
 4389SOL    HW213626   3.424   2.188   0.208
 4390SOL     OW13627   3.165   2.700   0.042
 4390SOL    HW113628   3.199   2.607   0.057
 4390SOL    HW213629   3.183   2.727  -0.053
 4391SOL     OW13630   2.930   3.195   0.849
 4391SOL    HW113631   2.937   3.111   0.794
 4391SOL    HW213632   2.992   3.264   0.813
 4392SOL     OW13633   2.181   2.672   0.949
 4392SOL    HW113634   2.274   2.708   0.954
 4392SOL    HW213635   2.175   2.587   1.001
 4393SOL     OW13636   3.000   2.242   1.678
 4393SOL    HW113637   2.955   2.305   1.742
 4393SOL    HW213638   3.093   2.273   1.661
 4394SOL     OW13639   3.022   2.069   1.477
 4394SOL    HW113640   3.022   2.133   1.554
 4394SOL    HW213641   3.050   2.117   1.394
 4395SOL     OW13642   1.870   3.188   0.200
 4395SOL    HW113643   1.777   3.209   0.169
 4395SOL    HW213644   1.880   3.089   0.213
 4396SOL     OW13645   1.950   3.663   0.927
 4396SOL    HW113646   1.908   3.577   0.900
 4396SOL    HW213647   2.044   3.666   0.893
 4397SOL     OW13648   2.366   3.430   0.910
 4397SOL    HW113649   2.432   3.504   0.919
 4397SOL    HW213650   2.410   3.351   0.868
 4398SOL     OW13651   2.864   2.658   1.238
 4398SOL    HW113652   2.905   2.626   1.324
 4398SOL    HW213653   2.768   2.631   1.235
 4399SOL     OW13654   1.902   2.406   1.114
 4399SOL    HW113655   1.987   2.373   1.073
 4399SOL    HW213656   1.915   2.421   1.212
 4400SOL     OW13657   3.231   2.812   1.660
 4400SOL    HW113658   3.270   2.901   1.680
 4400SOL    HW213659   3.241   2.792   1.563
 4401SOL     OW13660   2.677   2.434   0.325
 4401SOL    HW113661   2.684   2.345   0.279
 4401SOL    HW213662   2.583   2.468   0.317
 4402SOL     OW13663   3.519   2.466   1.206
 4402SOL    HW113664   3.481   2.397   1.268
 4402SOL    HW213665   3.601   2.430   1.162
 4403SOL     OW13666   2.114   3.426   1.744
 4403SOL    HW113667   2.084   3.483   1.820
 4403SOL    HW213668   2.107   3.329   1.770
 4404SOL     OW13669   2.533   2.326   1.269
 4404SOL    HW113670   2.499   2.237   1.239
 4404SOL    HW213671   2.559   2.380   1.189
 4405SOL     OW13672   2.792   3.540   1.465
 4405SOL    HW113673   2.768   3.522   1.370
 4405SOL    HW213674   2.822   3.634   1.475
 4406SOL     OW13675   2.021   2.999   1.466
 4406SOL    HW113676   2.043   2.938   1.542
 4406SOL    HW213677   2.031   2.950   1.380
 4407SOL     OW13678   3.209   2.921   1.234
 4407SOL    HW113679   3.233   2.858   1.160
 4407SOL    HW213680   3.119   2.961   1.216
 4408SOL     OW13681   3.164   2.717   0.309
 4408SOL    HW113682   3.078   2.686   0.351
 4408SOL    HW213683   3.160   2.703   0.210
 4409SOL     OW13684   3.621   3.609   1.154
 4409SOL    HW113685   3.682   3.639   1.081
 4409SOL    HW213686   3.583   3.520   1.132
 4410SOL     OW13687   3.114   3.593   1.128
 4410SOL    HW113688   3.198   3.598   1.074
 4410SOL    HW213689   3.091   3.497   1.146
 4411SOL     OW13690   1.945   3.120   1.022
 4411SOL    HW113691   1.940   3.119   1.122
 4411SOL    HW213692   1.862   3.079   0.984
 4412SOL     OW13693   2.550   3.524   1.716
 4412SOL    HW113694   2.494   3.605   1.725
 4412SOL    HW213695   2.602   3.528   1.630
 4413SOL     OW13696   2.765   1.948   0.133
 4413SOL    HW113697   2.816   1.949   0.047
 4413SOL    HW213698   2.821   1.906   0.204
 4414SOL     OW13699   3.588   1.997   0.523
 4414SOL    HW113700   3.661   1.980   0.456
 4414SOL    HW213701   3.557   1.910   0.561
 4415SOL     OW13702   3.250   3.435   0.477
 4415SOL    HW113703   3.317   3.447   0.403
 4415SOL    HW213704   3.210   3.524   0.500
 4416SOL     OW13705   1.992   3.656   1.851
 4416SOL    HW113706   1.951   3.582   1.904
 4416SOL    HW213707   2.056   3.707   1.909
 4417SOL     OW13708   3.142   2.789   0.672
 4417SOL    HW113709   3.202   2.708   0.674
 4417SOL    HW213710   3.182   2.858   0.612
 4418SOL     OW13711   2.692   3.135   1.422
 4418SOL    HW113712   2.687   3.168   1.517
 4418SOL    HW213713   2.606   3.154   1.376
 4419SOL     OW13714   2.534   3.478   0.154
 4419SOL    HW113715   2.543   3.488   0.055
 4419SOL    HW213716   2.494   3.389   0.175
 4420SOL     OW13717   3.512   3.582   1.394
 4420SOL    HW113718   3.565   3.592   1.310
 4420SOL    HW213719   3.485   3.672   1.428
 4421SOL     OW13720   3.703   2.037   0.963
 4421SOL    HW113721   3.742   1.952   0.927
 4421SOL    HW213722   3.605   2.039   0.944
 4422SOL     OW13723   3.056   3.474   0.031
 4422SOL    HW113724   3.062   3.381   0.068
 4422SOL    HW213725   2.997   3.474  -0.049
 4423SOL     OW13726   2.684   2.864   1.372
 4423SOL    HW113727   2.724   2.863   1.280
 4423SOL    HW213728   2.694   2.956   1.412
 4424SOL     OW13729   2.778   2.772   0.291
 4424SOL    HW113730   2.841   2.810   0.223
 4424SOL    HW213731   2.818   2.689   0.330
 4425SOL     OW13732   3.366   3.469   0.044
 4425SOL    HW113733   3.274   3.506   0.051
 4425SOL    HW213734   3.404   3.489  -0.046
 4426SOL     OW13735   2.234   3.150   1.490
 4426SOL    HW113736   2.221   3.243   1.456
 4426SOL    HW213737   2.150   3.098   1.477
 4427SOL     OW13738   3.476   3.154   1.289
 4427SOL    HW113739   3.536   3.157   1.369
 4427SOL    HW213740   3.401   3.218   1.302
 4428SOL     OW13741   2.901   2.960   0.696
 4428SOL    HW113742   2.831   2.913   0.750
 4428SOL    HW213743   2.960   2.892   0.653
 4429SOL     OW13744   2.876   2.098   0.971
 4429SOL    HW113745   2.868   2.062   0.878
 4429SOL    HW213746   2.874   2.022   1.036
 4430SOL     OW13747   2.452   3.349   0.491
 4430SOL    HW113748   2.494   3.291   0.421
 4430SOL    HW213749   2.408   3.428   0.447
 4431SOL     OW13750   3.571   2.247   1.381
 4431SOL    HW113751   3.644   2.316   1.385
 4431SOL    HW213752   3.599   2.172   1.322
 4432SOL     OW13753   2.117   3.210   0.290
 4432SOL    HW113754   2.021   3.211   0.263
 4432SOL    HW213755   2.129   3.263   0.374
 4433SOL     OW13756   1.967   2.875   1.726
 4433SOL    HW113757   1.890   2.842   1.780
 4433SOL    HW213758   2.052   2.845   1.768
 4434SOL     OW13759   2.534   2.065   1.489
 4434SOL    HW113760   2.624   2.049   1.449
 4434SOL    HW213761   2.542   2.070   1.588
 4435SOL     OW13762   1.937   2.207   0.033
 4435SOL    HW113763   1.845   2.179   0.004
 4435SOL    HW213764   1.968   2.284  -0.023
 4436SOL     OW13765   3.302   2.718   1.398
 4436SOL    HW113766   3.245   2.770   1.335
 4436SOL    HW213767   3.398   2.730   1.374
 4437SOL     OW13768   1.934   2.028   0.318
 4437SOL    HW113769   1.917   2.111   0.264
 4437SOL    HW213770   2.024   1.991   0.296
 4438SOL     OW13771   3.045   3.197   0.119
 4438SOL    HW113772   2.946   3.186   0.121
 4438SOL    HW213773   3.079   3.212   0.212
 4439SOL     OW13774   2.475   2.704   1.431
 4439SOL    HW113775   2.531   2.785   1.414
 4439SOL    HW213776   2.534   2.624   1.434
 4440SOL     OW13777   3.355   3.629   0.959
 4440SOL    HW113778   3.388   3.693   0.890
 4440SOL    HW213779   3.421   3.623   1.034
 4441SOL     OW13780   2.578   2.427   1.708
 4441SOL    HW113781   2.597   2.492   1.782
 4441SOL    HW213782   2.638   2.347   1.717
 4442SOL     OW13783   3.312   3.082   1.633
 4442SOL    HW113784   3.303   3.072   1.732
 4442SOL    HW213785   3.408   3.075   1.607
 4443SOL     OW13786   2.252   3.603   1.560
 4443SOL    HW113787   2.161   3.644   1.558
 4443SOL    HW213788   2.245   3.509   1.592
 4444SOL     OW13789   3.536   2.745   1.254
 4444SOL    HW113790   3.509   2.656   1.217
 4444SOL    HW213791   3.537   2.813   1.181
 4445SOL     OW13792   3.087   2.187   0.449
 4445SOL    HW113793   3.152   2.113   0.438
 4445SOL    HW213794   3.107   2.237   0.533
 4446SOL     OW13795   2.456   2.607   0.652
 4446SOL    HW113796   2.506   2.692   0.633
 4446SOL    HW213797   2.368   2.609   0.604
 4447SOL     OW13798   3.639   2.204   1.642
 4447SOL    HW113799   3.622   2.235   1.548
 4447SOL    HW213800   3.555   2.167   1.680
 4448SOL     OW13801   3.592   2.796   1.517
 4448SOL    HW113802   3.630   2.887   1.532
 4448SOL    HW213803   3.584   2.779   1.418
 4449SOL     OW13804   2.721   3.236   0.016
 4449SOL    HW113805   2.675   3.251   0.104
 4449SOL    HW213806   2.765   3.321  -0.014
 4450SOL     OW13807   2.523   3.652   0.953
 4450SOL    HW113808   2.477   3.740   0.940
 4450SOL    HW213809   2.622   3.664   0.946
 4451SOL     OW13810   2.721   2.818   0.861
 4451SOL    HW113811   2.775   2.749   0.909
 4451SOL    HW213812   2.689   2.887   0.927
 4452SOL     OW13813   2.945   2.846   0.087
 4452SOL    HW113814   2.922   2.899   0.005
 4452SOL    HW213815   3.026   2.790   0.068
 4453SOL     OW13816   3.723   3.431   0.851
 4453SOL    HW113817   3.652   3.419   0.781
 4453SOL    HW213818   3.724   3.352   0.911
 4454SOL     OW13819   2.083   3.176   1.844
 4454SOL    HW113820   2.018   3.103   1.823
 4454SOL    HW213821   2.087   3.190   1.942
 4455SOL     OW13822   1.941   3.102   0.653
 4455SOL    HW113823   1.940   3.055   0.741
 4455SOL    HW213824   2.023   3.074   0.602
 4456SOL     OW13825   2.534   3.253   1.624
 4456SOL    HW113826   2.456   3.203   1.662
 4456SOL    HW213827   2.531   3.348   1.655
 4457SOL     OW13828   3.686   2.054   1.227
 4457SOL    HW113829   3.682   1.964   1.271
 4457SOL    HW213830   3.689   2.043   1.128
 4458SOL     OW13831   3.567   3.349   1.104
 4458SOL    HW113832   3.474   3.324   1.077
 4458SOL    HW213833   3.593   3.299   1.186
 4459SOL     OW13834   2.674   3.448   0.687
 4459SOL    HW113835   2.706   3.458   0.593
 4459SOL    HW213836   2.595   3.386   0.689
 4460SOL     OW13837   3.286   2.076   1.112
 4460SOL    HW113838   3.338   2.011   1.167
 4460SOL    HW213839   3.237   2.139   1.173
 4461SOL     OW13840   2.863   1.896   1.154
 4461SOL    HW113841   2.800   1.824   1.123
 4461SOL    HW213842   2.956   1.860   1.154
 4462SOL     OW13843   2.632   3.192   0.301
 4462SOL    HW113844   2.586   3.105   0.318
 4462SOL    HW213845   2.723   3.189   0.342
 4463SOL     OW13846   2.480   3.429   1.284
 4463SOL    HW113847   2.475   3.511   1.341
 4463SOL    HW213848   2.569   3.426   1.239
 4464SOL     OW13849   3.214   1.914   0.168
 4464SOL    HW113850   3.249   1.873   0.084
 4464SOL    HW213851   3.124   1.876   0.188
 4465SOL     OW13852   3.162   2.315   0.691
 4465SOL    HW113853   3.103   2.395   0.695
 4465SOL    HW213854   3.177   2.280   0.784
 4466SOL     OW13855   3.455   2.083   0.882
 4466SOL    HW113856   3.371   2.082   0.936
 4466SOL    HW213857   3.457   2.166   0.826
 4467SOL     OW13858   1.901   2.939   0.300
 4467SOL    HW113859   2.000   2.928   0.291
 4467SOL    HW213860   1.861   2.853   0.332
 4468SOL     OW13861   2.737   3.508   0.337
 4468SOL    HW113862   2.660   3.473   0.283
 4468SOL    HW213863   2.705   3.579   0.399
 4469SOL     OW13864   2.092   2.490   1.975
 4469SOL    HW113865   1.999   2.488   2.012
 4469SOL    HW213866   2.093   2.451   1.883
 4470SOL     OW13867   2.087   2.137   2.858
 4470SOL    HW113868   2.122   2.120   2.950
 4470SOL    HW213869   1.999   2.092   2.846
 4471SOL     OW13870   1.881   2.230   2.509
 4471SOL    HW113871   1.799   2.273   2.548
 4471SOL    HW213872   1.853   2.157   2.446
 4472SOL     OW13873   2.431   3.137   3.027
 4472SOL    HW113874   2.338   3.130   2.990
 4472SOL    HW213875   2.442   3.226   3.071
 4473SOL     OW13876   3.417   3.373   2.565
 4473SOL    HW113877   3.360   3.357   2.646
 4473SOL    HW213878   3.358   3.383   2.485
 4474SOL     OW13879   2.997   2.565   2.579
 4474SOL    HW113880   3.054   2.643   2.554
 4474SOL    HW213881   2.937   2.591   2.655
 4475SOL     OW13882   3.617   2.469   2.093
 4475SOL    HW113883   3.605   2.456   1.994
 4475SOL    HW213884   3.587   2.388   2.142
 4476SOL     OW13885   2.630   3.006   2.885
 4476SOL    HW113886   2.552   3.023   2.945
 4476SOL    HW213887   2.664   3.093   2.849
 4477SOL     OW13888   2.712   2.660   3.685
 4477SOL    HW113889   2.708   2.736   3.750
 4477SOL    HW213890   2.734   2.696   3.594
 4478SOL     OW13891   2.547   2.874   2.527
 4478SOL    HW113892   2.616   2.858   2.597
 4478SOL    HW213893   2.474   2.931   2.565
 4479SOL     OW13894   2.548   3.023   3.665
 4479SOL    HW113895   2.608   3.102   3.679
 4479SOL    HW213896   2.462   3.054   3.624
 4480SOL     OW13897   2.197   3.297   2.923
 4480SOL    HW113898   2.119   3.266   2.870
 4480SOL    HW213899   2.255   3.355   2.866
 4481SOL     OW13900   3.322   3.367   3.201
 4481SOL    HW113901   3.346   3.461   3.227
 4481SOL    HW213902   3.306   3.313   3.283
 4482SOL     OW13903   3.465   2.309   2.599
 4482SOL    HW113904   3.391   2.355   2.549
 4482SOL    HW213905   3.516   2.377   2.652
 4483SOL     OW13906   2.093   3.575   2.345
 4483SOL    HW113907   2.127   3.652   2.399
 4483SOL    HW213908   2.137   3.575   2.255
 4484SOL     OW13909   2.989   3.203   3.552
 4484SOL    HW113910   3.036   3.203   3.640
 4484SOL    HW213911   2.941   3.116   3.541
 4485SOL     OW13912   2.092   3.296   2.400
 4485SOL    HW113913   2.066   3.392   2.400
 4485SOL    HW213914   2.021   3.242   2.445
 4486SOL     OW13915   2.102   2.953   2.748
 4486SOL    HW113916   2.116   2.869   2.800
 4486SOL    HW213917   2.047   3.017   2.803
 4487SOL     OW13918   2.482   3.648   3.301
 4487SOL    HW113919   2.390   3.631   3.336
 4487SOL    HW213920   2.510   3.740   3.327
 4488SOL     OW13921   2.468   2.826   1.985
 4488SOL    HW113922   2.475   2.910   1.931
 4488SOL    HW213923   2.514   2.839   2.073
 4489SOL     OW13924   3.456   1.976   3.342
 4489SOL    HW113925   3.438   2.043   3.270
 4489SOL    HW213926   3.453   2.022   3.431
 4490SOL     OW13927   1.984   2.505   2.425
 4490SOL    HW113928   1.939   2.417   2.442
 4490SOL    HW213929   1.983   2.559   2.509
 4491SOL     OW13930   3.704   3.629   2.221
 4491SOL    HW113931   3.758   3.600   2.301
 4491SOL    HW213932   3.734   3.719   2.192
 4492SOL     OW13933   1.889   3.458   1.979
 4492SOL    HW113934   1.870   3.362   2.000
 4492SOL    HW213935   1.856   3.516   2.054
 4493SOL     OW13936   3.551   2.784   2.474
 4493SOL    HW113937   3.646   2.755   2.482
 4493SOL    HW213938   3.543   2.849   2.399
 4494SOL     OW13939   3.503   2.970   2.294
 4494SOL    HW113940   3.589   2.972   2.242
 4494SOL    HW213941   3.517   3.017   2.382
 4495SOL     OW13942   1.975   2.599   3.459
 4495SOL    HW113943   2.063   2.586   3.504
 4495SOL    HW213944   1.962   2.696   3.437
 4496SOL     OW13945   2.475   3.227   2.588
 4496SOL    HW113946   2.426   3.140   2.597
 4496SOL    HW213947   2.452   3.270   2.501
 4497SOL     OW13948   3.155   3.090   3.285
 4497SOL    HW113949   3.192   3.017   3.227
 4497SOL    HW213950   3.207   3.095   3.370
 4498SOL     OW13951   2.671   1.866   2.364
 4498SOL    HW113952   2.711   1.957   2.355
 4498SOL    HW213953   2.571   1.874   2.370
 4499SOL     OW13954   2.059   2.838   3.126
 4499SOL    HW113955   2.148   2.793   3.112
 4499SOL    HW213956   1.986   2.773   3.107
 4500SOL     OW13957   3.387   2.861   2.052
 4500SOL    HW113958   3.324   2.785   2.065
 4500SOL    HW213959   3.435   2.879   2.138
 4501SOL     OW13960   3.049   3.654   3.478
 4501SOL    HW113961   3.073   3.714   3.402
 4501SOL    HW213962   3.056   3.559   3.448
 4502SOL     OW13963   3.328   3.279   2.815
 4502SOL    HW113964   3.269   3.285   2.895
 4502SOL    HW213965   3.313   3.191   2.769
 4503SOL     OW13966   3.529   3.576   2.434
 4503SOL    HW113967   3.488   3.553   2.346
 4503SOL    HW213968   3.511   3.502   2.499
 4504SOL     OW13969   2.460   2.591   2.132
 4504SOL    HW113970   2.484   2.660   2.064
 4504SOL    HW213971   2.382   2.624   2.186
 4505SOL     OW13972   3.143   2.207   2.806
 4505SOL    HW113973   3.057   2.157   2.793
 4505SOL    HW213974   3.205   2.153   2.862
 4506SOL     OW13975   3.438   3.524   2.169
 4506SOL    HW113976   3.527   3.570   2.172
 4506SOL    HW213977   3.417   3.500   2.074
 4507SOL     OW13978   2.669   2.467   3.327
 4507SOL    HW113979   2.622   2.464   3.416
 4507SOL    HW213980   2.618   2.412   3.261
 4508SOL     OW13981   3.256   2.331   3.536
 4508SOL    HW113982   3.236   2.374   3.624
 4508SOL    HW213983   3.334   2.269   3.545
 4509SOL     OW13984   2.835   2.752   3.434
 4509SOL    HW113985   2.881   2.668   3.405
 4509SOL    HW213986   2.779   2.786   3.359
 4510SOL     OW13987   2.853   2.272   3.104
 4510SOL    HW113988   2.776   2.306   3.158
 4510SOL    HW213989   2.819   2.221   3.025
 4511SOL     OW13990   2.903   2.563   2.291
 4511SOL    HW113991   2.929   2.559   2.387
 4511SOL    HW213992   2.818   2.512   2.277
 4512SOL     OW13993   1.938   2.673   2.651
 4512SOL    HW113994   2.037   2.661   2.660
 4512SOL    HW213995   1.914   2.768   2.672
 4513SOL     OW13996   1.992   3.683   3.433
 4513SOL    HW113997   1.982   3.668   3.532
 4513SOL    HW213998   1.906   3.719   3.397
 4514SOL     OW13999   2.727   2.210   2.057
 4514SOL    HW114000   2.786   2.273   2.008
 4514SOL    HW214001   2.746   2.116   2.028
 4515SOL     OW14002   3.581   2.447   3.693
 4515SOL    HW114003   3.555   2.536   3.657
 4515SOL    HW214004   3.579   2.379   3.620
 4516SOL     OW14005   3.224   3.006   2.407
 4516SOL    HW114006   3.307   2.977   2.359
 4516SOL    HW214007   3.175   3.073   2.351
 4517SOL     OW14008   2.412   2.058   2.747
 4517SOL    HW114009   2.407   2.053   2.847
 4517SOL    HW214010   2.414   2.154   2.718
 4518SOL     OW14011   2.870   3.318   2.339
 4518SOL    HW114012   2.824   3.390   2.287
 4518SOL    HW214013   2.866   3.338   2.437
 4519SOL     OW14014   2.213   3.663   2.715
 4519SOL    HW114015   2.263   3.577   2.721
 4519SOL    HW214016   2.278   3.740   2.712
 4520SOL     OW14017   3.657   2.928   2.735
 4520SOL    HW114018   3.595   2.913   2.659
 4520SOL    HW214019   3.605   2.939   2.820
 4521SOL     OW14020   3.089   3.412   3.368
 4521SOL    HW114021   3.095   3.335   3.432
 4521SOL    HW214022   3.037   3.386   3.288
 4522SOL     OW14023   2.183   2.805   2.104
 4522SOL    HW114024   2.265   2.844   2.062
 4522SOL    HW214025   2.156   2.723   2.055
 4523SOL     OW14026   3.320   2.597   2.590
 4523SOL    HW114027   3.315   2.532   2.665
 4523SOL    HW214028   3.400   2.656   2.603
 4524SOL     OW14029   2.323   3.128   3.589
 4524SOL    HW114030   2.273   3.129   3.503
 4524SOL    HW214031   2.260   3.110   3.665
 4525SOL     OW14032   2.973   3.638   2.099
 4525SOL    HW114033   2.913   3.576   2.149
 4525SOL    HW214034   3.004   3.594   2.014
 4526SOL     OW14035   2.064   2.147   3.360
 4526SOL    HW114036   1.984   2.207   3.347
 4526SOL    HW214037   2.054   2.098   3.446
 4527SOL     OW14038   3.494   3.239   1.943
 4527SOL    HW114039   3.462   3.333   1.933
 4527SOL    HW214040   3.418   3.176   1.931
 4528SOL     OW14041   2.326   3.605   2.185
 4528SOL    HW114042   2.359   3.644   2.271
 4528SOL    HW214043   2.402   3.598   2.120
 4529SOL     OW14044   3.262   1.969   2.288
 4529SOL    HW114045   3.238   1.932   2.198
 4529SOL    HW214046   3.361   1.985   2.292
 4530SOL     OW14047   2.111   3.647   3.103
 4530SOL    HW114048   2.168   3.582   3.153
 4530SOL    HW214049   2.095   3.614   3.010
 4531SOL     OW14050   2.802   3.560   2.766
 4531SOL    HW114051   2.882   3.503   2.787
 4531SOL    HW214052   2.753   3.520   2.689
 4532SOL     OW14053   3.409   2.084   3.591
 4532SOL    HW114054   3.404   2.121   3.683
 4532SOL    HW214055   3.337   2.015   3.579
 4533SOL     OW14056   2.476   1.984   1.979
 4533SOL    HW114057   2.574   1.962   1.986
 4533SOL    HW214058   2.445   1.967   1.886
 4534SOL     OW14059   2.643   2.126   3.611
 4534SOL    HW114060   2.710   2.065   3.654
 4534SOL    HW214061   2.570   2.145   3.676
 4535SOL     OW14062   2.750   3.376   3.057
 4535SOL    HW114063   2.727   3.351   2.963
 4535SOL    HW214064   2.811   3.307   3.096
 4536SOL     OW14065   3.213   2.452   3.295
 4536SOL    HW114066   3.241   2.409   3.380
 4536SOL    HW214067   3.238   2.548   3.296
 4537SOL     OW14068   2.665   3.264   2.786
 4537SOL    HW114069   2.755   3.278   2.744
 4537SOL    HW214070   2.594   3.266   2.715
 4538SOL     OW14071   2.784   2.365   2.761
 4538SOL    HW114072   2.759   2.356   2.665
 4538SOL    HW214073   2.832   2.283   2.792
 4539SOL     OW14074   2.401   1.926   2.374
 4539SOL    HW114075   2.320   1.927   2.432
 4539SOL    HW214076   2.404   2.009   2.319
 4540SOL     OW14077   3.296   3.050   1.903
 4540SOL    HW114078   3.328   2.974   1.960
 4540SOL    HW214079   3.204   3.077   1.933
 4541SOL     OW14080   2.797   2.098   2.342
 4541SOL    HW114081   2.749   2.139   2.264
 4541SOL    HW214082   2.896   2.096   2.323
 4542SOL     OW14083   2.938   2.545   3.326
 4542SOL    HW114084   2.858   2.484   3.329
 4542SOL    HW214085   3.019   2.492   3.302
 4543SOL     OW14086   3.089   3.432   2.655
 4543SOL    HW114087   3.110   3.506   2.590
 4543SOL    HW214088   3.157   3.432   2.728
 4544SOL     OW14089   2.321   3.014   2.603
 4544SOL    HW114090   2.250   2.987   2.668
 4544SOL    HW214091   2.295   2.986   2.510
 4545SOL     OW14092   3.133   3.659   2.453
 4545SOL    HW114093   3.177   3.723   2.389
 4545SOL    HW214094   3.083   3.711   2.523
 4546SOL     OW14095   2.894   2.411   1.878
 4546SOL    HW114096   2.853   2.493   1.839
 4546SOL    HW214097   2.958   2.437   1.951
 4547SOL     OW14098   1.940   2.418   3.248
 4547SOL    HW114099   2.032   2.417   3.207
 4547SOL    HW214100   1.934   2.492   3.315
 4548SOL     OW14101   2.423   2.084   3.009
 4548SOL    HW114102   2.461   2.000   3.046
 4548SOL    HW214103   2.335   2.103   3.053
 4549SOL     OW14104   2.728   2.316   2.504
 4549SOL    HW114105   2.696   2.388   2.442
 4549SOL    HW214106   2.752   2.235   2.451
 4550SOL     OW14107   2.879   1.901   2.615
 4550SOL    HW114108   2.807   1.906   2.546
 4550SOL    HW214109   2.855   1.832   2.684
 4551SOL     OW14110   3.291   3.035   2.729
 4551SOL    HW114111   3.236   2.951   2.722
 4551SOL    HW214112   3.317   3.064   2.637
 4552SOL     OW14113   3.328   2.452   2.854
 4552SOL    HW114114   3.298   2.357   2.861
 4552SOL    HW214115   3.401   2.468   2.920
 4553SOL     OW14116   3.719   2.695   2.239
 4553SOL    HW114117   3.761   2.631   2.303
 4553SOL    HW214118   3.681   2.644   2.161
 4554SOL     OW14119   2.350   3.247   2.036
 4554SOL    HW114120   2.263   3.232   2.083
 4554SOL    HW214121   2.333   3.273   1.941
 4555SOL     OW14122   3.526   3.142   2.519
 4555SOL    HW114123   3.625   3.150   2.533
 4555SOL    HW214124   3.481   3.226   2.550
 4556SOL     OW14125   3.252   2.437   1.940
 4556SOL    HW114126   3.198   2.416   2.021
 4556SOL    HW214127   3.343   2.396   1.949
 4557SOL     OW14128   3.616   3.085   3.450
 4557SOL    HW114129   3.707   3.046   3.437
 4557SOL    HW214130   3.624   3.181   3.474
 4558SOL     OW14131   2.926   3.209   3.202
 4558SOL    HW114132   2.846   3.186   3.257
 4558SOL    HW214133   3.009   3.183   3.251
 4559SOL     OW14134   3.454   3.491   3.487
 4559SOL    HW114135   3.481   3.525   3.397
 4559SOL    HW214136   3.533   3.453   3.533
 4560SOL     OW14137   2.973   3.057   2.962
 4560SOL    HW114138   2.933   3.101   3.043
 4560SOL    HW214139   2.932   3.094   2.879
 4561SOL     OW14140   3.500   2.961   2.941
 4561SOL    HW114141   3.505   3.042   3.000
 4561SOL    HW214142   3.414   2.963   2.890
 4562SOL     OW14143   2.777   1.951   3.264
 4562SOL    HW114144   2.802   1.931   3.169
 4562SOL    HW214145   2.849   2.007   3.306
 4563SOL     OW14146   2.842   2.978   3.581
 4563SOL    HW114147   2.743   2.984   3.591
 4563SOL    HW214148   2.865   2.898   3.525
 4564SOL     OW14149   2.567   2.912   2.230
 4564SOL    HW114150   2.553   2.919   2.329
 4564SOL    HW214151   2.651   2.861   2.212
 4565SOL     OW14152   2.272   2.675   3.113
 4565SOL    HW114153   2.358   2.687   3.163
 4565SOL    HW214154   2.230   2.588   3.140
 4566SOL     OW14155   3.136   2.248   3.124
 4566SOL    HW114156   3.157   2.322   3.188
 4566SOL    HW214157   3.047   2.265   3.081
 4567SOL     OW14158   1.926   3.426   3.193
 4567SOL    HW114159   1.880   3.508   3.159
 4567SOL    HW214160   2.024   3.445   3.202
 4568SOL     OW14161   2.229   2.962   2.363
 4568SOL    HW114162   2.222   3.045   2.307
 4568SOL    HW214163   2.233   2.882   2.303
 4569SOL     OW14164   2.428   2.399   2.727
 4569SOL    HW114165   2.440   2.465   2.653
 4569SOL    HW214166   2.474   2.433   2.810
 4570SOL     OW14167   3.114   3.210   2.250
 4570SOL    HW114168   3.164   3.287   2.290
 4570SOL    HW214169   3.019   3.212   2.282
 4571SOL     OW14170   3.134   3.307   3.004
 4571SOL    HW114171   3.181   3.320   3.091
 4571SOL    HW214172   3.068   3.233   3.013
 4572SOL     OW14173   3.444   2.501   2.334
 4572SOL    HW114174   3.413   2.562   2.407
 4572SOL    HW214175   3.494   2.553   2.265
 4573SOL     OW14176   2.216   3.372   3.191
 4573SOL    HW114177   2.195   3.328   3.104
 4573SOL    HW214178   2.313   3.398   3.194
 4574SOL     OW14179   2.264   2.613   3.460
 4574SOL    HW114180   2.332   2.668   3.413
 4574SOL    HW214181   2.304   2.525   3.487
 4575SOL     OW14182   3.449   2.641   3.532
 4575SOL    HW114183   3.357   2.679   3.527
 4575SOL    HW214184   3.509   2.688   3.467
 4576SOL     OW14185   2.875   1.967   3.632
 4576SOL    HW114186   2.881   2.052   3.580
 4576SOL    HW214187   2.907   1.891   3.575
 4577SOL     OW14188   2.366   1.912   3.602
 4577SOL    HW114189   2.324   1.855   3.532
 4577SOL    HW214190   2.300   1.981   3.634
 4578SOL     OW14191   2.435   2.732   2.891
 4578SOL    HW114192   2.479   2.821   2.882
 4578SOL    HW214193   2.372   2.732   2.968
 4579SOL     OW14194   3.222   2.724   2.907
 4579SOL    HW114195   3.147   2.724   2.841
 4579SOL    HW214196   3.259   2.632   2.916
 4580SOL     OW14197   3.071   2.387   2.137
 4580SOL    HW114198   3.084   2.303   2.191
 4580SOL    HW214199   3.042   2.461   2.197
 4581SOL     OW14200   1.899   3.172   3.144
 4581SOL    HW114201   1.952   3.123   3.212
 4581SOL    HW214202   1.921   3.270   3.149
 4582SOL     OW14203   2.594   2.496   2.926
 4582SOL    HW114204   2.653   2.470   2.850
 4582SOL    HW214205   2.566   2.592   2.915
 4583SOL     OW14206   3.590   2.797   3.716
 4583SOL    HW114207   3.544   2.790   3.627
 4583SOL    HW214208   3.528   2.841   3.782
 4584SOL     OW14209   3.484   2.229   2.236
 4584SOL    HW114210   3.486   2.153   2.300
 4584SOL    HW214211   3.436   2.306   2.276
 4585SOL     OW14212   2.885   2.628   2.828
 4585SOL    HW114213   2.900   2.649   2.924
 4585SOL    HW214214   2.855   2.533   2.819
 4586SOL     OW14215   2.842   3.435   3.562
 4586SOL    HW114216   2.822   3.479   3.474
 4586SOL    HW214217   2.881   3.344   3.546
 4587SOL     OW14218   3.721   3.380   3.467
 4587SOL    HW114219   3.735   3.407   3.372
 4587SOL    HW214220   3.804   3.402   3.520
 4588SOL     OW14221   2.212   2.760   3.666
 4588SOL    HW114222   2.288   2.804   3.714
 4588SOL    HW214223   2.247   2.713   3.584
 4589SOL     OW14224   3.402   2.136   1.987
 4589SOL    HW114225   3.341   2.061   2.010
 4589SOL    HW214226   3.424   2.188   2.070
 4590SOL     OW14227   3.165   2.700   1.904
 4590SOL    HW114228   3.199   2.607   1.919
 4590SOL    HW214229   3.183   2.727   1.809
 4591SOL     OW14230   2.930   3.195   2.711
 4591SOL    HW114231   2.937   3.111   2.656
 4591SOL    HW214232   2.992   3.264   2.675
 4592SOL     OW14233   2.181   2.672   2.811
 4592SOL    HW114234   2.274   2.708   2.816
 4592SOL    HW214235   2.175   2.587   2.863
 4593SOL     OW14236   3.000   2.242   3.540
 4593SOL    HW114237   2.955   2.305   3.604
 4593SOL    HW214238   3.093   2.273   3.523
 4594SOL     OW14239   3.022   2.069   3.339
 4594SOL    HW114240   3.022   2.133   3.416
 4594SOL    HW214241   3.050   2.117   3.256
 4595SOL     OW14242   1.870   3.188   2.062
 4595SOL    HW114243   1.777   3.209   2.031
 4595SOL    HW214244   1.880   3.089   2.075
 4596SOL     OW14245   1.950   3.663   2.789
 4596SOL    HW114246   1.908   3.577   2.762
 4596SOL    HW214247   2.044   3.666   2.755
 4597SOL     OW14248   2.366   3.430   2.772
 4597SOL    HW114249   2.432   3.504   2.781
 4597SOL    HW214250   2.410   3.351   2.730
 4598SOL     OW14251   2.864   2.658   3.100
 4598SOL    HW114252   2.905   2.626   3.186
 4598SOL    HW214253   2.768   2.631   3.097
 4599SOL     OW14254   1.902   2.406   2.976
 4599SOL    HW114255   1.987   2.373   2.935
 4599SOL    HW214256   1.915   2.421   3.074
 4600SOL     OW14257   3.231   2.812   3.522
 4600SOL    HW114258   3.270   2.901   3.542
 4600SOL    HW214259   3.241   2.792   3.425
 4601SOL     OW14260   2.677   2.434   2.187
 4601SOL    HW114261   2.684   2.345   2.141
 4601SOL    HW214262   2.583   2.468   2.179
 4602SOL     OW14263   3.519   2.466   3.068
 4602SOL    HW114264   3.481   2.397   3.130
 4602SOL    HW214265   3.601   2.430   3.024
 4603SOL     OW14266   2.114   3.426   3.606
 4603SOL    HW114267   2.084   3.483   3.682
 4603SOL    HW214268   2.107   3.329   3.632
 4604SOL     OW14269   2.792   3.540   3.327
 4604SOL    HW114270   2.768   3.522   3.232
 4604SOL    HW214271   2.822   3.634   3.337
 4605SOL     OW14272   2.021   2.999   3.328
 4605SOL    HW114273   2.043   2.938   3.404
 4605SOL    HW214274   2.031   2.950   3.242
 4606SOL     OW14275   3.209   2.921   3.096
 4606SOL    HW114276   3.233   2.858   3.022
 4606SOL    HW214277   3.119   2.961   3.078
 4607SOL     OW14278   3.164   2.717   2.171
 4607SOL    HW114279   3.078   2.686   2.213
 4607SOL    HW214280   3.160   2.703   2.072
 4608SOL     OW14281   3.621   3.609   3.016
 4608SOL    HW114282   3.682   3.639   2.943
 4608SOL    HW214283   3.583   3.520   2.994
 4609SOL     OW14284   3.114   3.593   2.990
 4609SOL    HW114285   3.198   3.598   2.936
 4609SOL    HW214286   3.091   3.497   3.008
 4610SOL     OW14287   1.945   3.120   2.884
 4610SOL    HW114288   1.940   3.119   2.984
 4610SOL    HW214289   1.862   3.079   2.846
 4611SOL     OW14290   2.550   3.524   3.578
 4611SOL    HW114291   2.494   3.605   3.587
 4611SOL    HW214292   2.602   3.528   3.492
 4612SOL     OW14293   3.588   1.997   2.385
 4612SOL    HW114294   3.661   1.980   2.318
 4612SOL    HW214295   3.557   1.910   2.423
 4613SOL     OW14296   3.250   3.435   2.339
 4613SOL    HW114297   3.317   3.447   2.265
 4613SOL    HW214298   3.210   3.524   2.362
 4614SOL     OW14299   1.992   3.656   3.713
 4614SOL    HW114300   1.951   3.582   3.766
 4614SOL    HW214301   2.056   3.707   3.771
 4615SOL     OW14302   3.142   2.789   2.534
 4615SOL    HW114303   3.202   2.708   2.536
 4615SOL    HW214304   3.182   2.858   2.474
 4616SOL     OW14305   2.692   3.135   3.284
 4616SOL    HW114306   2.687   3.168   3.379
 4616SOL    HW214307   2.606   3.154   3.238
 4617SOL     OW14308   2.534   3.478   2.016
 4617SOL    HW114309   2.543   3.488   1.917
 4617SOL    HW214310   2.494   3.389   2.037
 4618SOL     OW14311   3.512   3.582   3.256
 4618SOL    HW114312   3.565   3.592   3.172
 4618SOL    HW214313   3.485   3.672   3.290
 4619SOL     OW14314   3.703   2.037   2.825
 4619SOL    HW114315   3.742   1.952   2.789
 4619SOL    HW214316   3.605   2.039   2.806
 4620SOL     OW14317   3.056   3.474   1.893
 4620SOL    HW114318   3.062   3.381   1.930
 4620SOL    HW214319   2.997   3.474   1.813
 4621SOL     OW14320   2.684   2.864   3.234
 4621SOL    HW114321   2.724   2.863   3.142
 4621SOL    HW214322   2.694   2.956   3.274
 4622SOL     OW14323   2.778   2.772   2.153
 4622SOL    HW114324   2.841   2.810   2.085
 4622SOL    HW214325   2.818   2.689   2.192
 4623SOL     OW14326   3.366   3.469   1.906
 4623SOL    HW114327   3.274   3.506   1.913
 4623SOL    HW214328   3.404   3.489   1.816
 4624SOL     OW14329   2.234   3.150   3.352
 4624SOL    HW114330   2.221   3.243   3.318
 4624SOL    HW214331   2.150   3.098   3.339
 4625SOL     OW14332   3.476   3.154   3.151
 4625SOL    HW114333   3.536   3.157   3.231
 4625SOL    HW214334   3.401   3.218   3.164
 4626SOL     OW14335   2.901   2.960   2.558
 4626SOL    HW114336   2.831   2.913   2.612
 4626SOL    HW214337   2.960   2.892   2.515
 4627SOL     OW14338   2.876   2.098   2.833
 4627SOL    HW114339   2.868   2.062   2.740
 4627SOL    HW214340   2.874   2.022   2.898
 4628SOL     OW14341   2.452   3.349   2.353
 4628SOL    HW114342   2.494   3.291   2.283
 4628SOL    HW214343   2.408   3.428   2.309
 4629SOL     OW14344   3.571   2.247   3.243
 4629SOL    HW114345   3.644   2.316   3.247
 4629SOL    HW214346   3.599   2.172   3.184
 4630SOL     OW14347   2.117   3.210   2.152
 4630SOL    HW114348   2.021   3.211   2.125
 4630SOL    HW214349   2.129   3.263   2.236
 4631SOL     OW14350   1.967   2.875   3.588
 4631SOL    HW114351   1.890   2.842   3.642
 4631SOL    HW214352   2.052   2.845   3.630
 4632SOL     OW14353   2.534   2.065   3.351
 4632SOL    HW114354   2.624   2.049   3.311
 4632SOL    HW214355   2.542   2.070   3.450
 4633SOL     OW14356   1.937   2.207   1.895
 4633SOL    HW114357   1.845   2.179   1.866
 4633SOL    HW214358   1.968   2.284   1.839
 4634SOL     OW14359   3.302   2.718   3.260
 4634SOL    HW114360   3.245   2.770   3.197
 4634SOL    HW214361   3.398   2.730   3.236
 4635SOL     OW14362   1.934   2.028   2.180
 4635SOL    HW114363   1.917   2.111   2.126
 4635SOL    HW214364   2.024   1.991   2.158
 4636SOL     OW14365   3.045   3.197   1.981
 4636SOL    HW114366   2.946   3.186   1.983
 4636SOL    HW214367   3.079   3.212   2.074
 4637SOL     OW14368   2.475   2.704   3.293
 4637SOL    HW114369   2.531   2.785   3.276
 4637SOL    HW214370   2.534   2.624   3.296
 4638SOL     OW14371   3.355   3.629   2.821
 4638SOL    HW114372   3.388   3.693   2.752
 4638SOL    HW214373   3.421   3.623   2.896
 4639SOL     OW14374   2.578   2.427   3.570
 4639SOL    HW114375   2.597   2.492   3.644
 4639SOL    HW214376   2.638   2.347   3.579
 4640SOL     OW14377   3.312   3.082   3.495
 4640SOL    HW114378   3.303   3.072   3.594
 4640SOL    HW214379   3.408   3.075   3.469
 4641SOL     OW14380   2.252   3.603   3.422
 4641SOL    HW114381   2.161   3.644   3.420
 4641SOL    HW214382   2.245   3.509   3.454
 4642SOL     OW14383   3.536   2.745   3.116
 4642SOL    HW114384   3.509   2.656   3.079
 4642SOL    HW214385   3.537   2.813   3.043
 4643SOL     OW14386   3.087   2.187   2.311
 4643SOL    HW114387   3.152   2.113   2.300
 4643SOL    HW214388   3.107   2.237   2.395
 4644SOL     OW14389   2.456   2.607   2.514
 4644SOL    HW114390   2.506   2.692   2.495
 4644SOL    HW214391   2.368   2.609   2.466
 4645SOL     OW14392   3.639   2.204   3.504
 4645SOL    HW114393   3.622   2.235   3.410
 4645SOL    HW214394   3.555   2.167   3.542
 4646SOL     OW14395   3.592   2.796   3.379
 4646SOL    HW114396   3.630   2.887   3.394
 4646SOL    HW214397   3.584   2.779   3.280
 4647SOL     OW14398   2.721   3.236   1.878
 4647SOL    HW114399   2.675   3.251   1.966
 4647SOL    HW214400   2.765   3.321   1.848
 4648SOL     OW14401   2.523   3.652   2.815
 4648SOL    HW114402   2.477   3.740   2.802
 4648SOL    HW214403   2.622   3.664   2.808
 4649SOL     OW14404   2.721   2.818   2.723
 4649SOL    HW114405   2.775   2.749   2.771
 4649SOL    HW214406   2.689   2.887   2.789
 4650SOL     OW14407   2.945   2.846   1.949
 4650SOL    HW114408   2.922   2.899   1.867
 4650SOL    HW214409   3.026   2.790   1.930
 4651SOL     OW14410   3.723   3.431   2.713
 4651SOL    HW114411   3.652   3.419   2.643
 4651SOL    HW214412   3.724   3.352   2.773
 4652SOL     OW14413   2.083   3.176   3.706
 4652SOL    HW114414   2.018   3.103   3.685
 4652SOL    HW214415   2.087   3.190   3.804
 4653SOL     OW14416   1.941   3.102   2.515
 4653SOL    HW114417   1.940   3.055   2.603
 4653SOL    HW214418   2.023   3.074   2.464
 4654SOL     OW14419   2.534   3.253   3.486
 4654SOL    HW114420   2.456   3.203   3.524
 4654SOL    HW214421   2.531   3.348   3.517
 4655SOL     OW14422   3.686   2.054   3.089
 4655SOL    HW114423   3.682   1.964   3.133
 4655SOL    HW214424   3.689   2.043   2.990
 4656SOL     OW14425   3.567   3.349   2.966
 4656SOL    HW114426   3.474   3.324   2.939
 4656SOL    HW214427   3.593   3.299   3.048
 4657SOL     OW14428   2.674   3.448   2.549
 4657SOL    HW114429   2.706   3.458   2.455
 4657SOL    HW214430   2.595   3.386   2.551
 4658SOL     OW14431   3.286   2.076   2.974
 4658SOL    HW114432   3.338   2.011   3.029
 4658SOL    HW214433   3.237   2.139   3.035
 4659SOL     OW14434   2.863   1.896   3.016
 4659SOL    HW114435   2.800   1.824   2.985
 4659SOL    HW214436   2.956   1.860   3.016
 4660SOL     OW14437   2.632   3.192   2.163
 4660SOL    HW114438   2.586   3.105   2.180
 4660SOL    HW214439   2.723   3.189   2.204
 4661SOL     OW14440   2.480   3.429   3.146
 4661SOL    HW114441   2.475   3.511   3.203
 4661SOL    HW214442   2.569   3.426   3.101
 4662SOL     OW14443   3.214   1.914   2.030
 4662SOL    HW114444   3.249   1.873   1.946
 4662SOL    HW214445   3.124   1.876   2.050
 4663SOL     OW14446   3.162   2.315   2.553
 4663SOL    HW114447   3.103   2.395   2.557
 4663SOL    HW214448   3.177   2.280   2.646
 4664SOL     OW14449   3.455   2.083   2.744
 4664SOL    HW114450   3.371   2.082   2.798
 4664SOL    HW214451   3.457   2.166   2.688
 4665SOL     OW14452   1.901   2.939   2.162
 4665SOL    HW114453   2.000   2.928   2.153
 4665SOL    HW214454   1.861   2.853   2.194
 4666SOL     OW14455   2.737   3.508   2.199
 4666SOL    HW114456   2.660   3.473   2.145
 4666SOL    HW214457   2.705   3.579   2.261
 4667SOL     OW14458   2.092   2.490   3.837
 4667SOL    HW114459   1.999   2.488   3.874
 4667SOL    HW214460   2.093   2.451   3.745
 4668SOL     OW14461   1.881   2.230   4.371
 4668SOL    HW114462   1.799   2.273   4.410
 4668SOL    HW214463   1.853   2.157   4.308
 4669SOL     OW14464   2.431   3.137   4.889
 4669SOL    HW114465   2.338   3.130   4.852
 4669SOL    HW214466   2.442   3.226   4.933
 4670SOL     OW14467   3.417   3.373   4.427
 4670SOL    HW114468   3.360   3.357   4.508
 4670SOL    HW214469   3.358   3.383   4.347
 4671SOL     OW14470   2.997   2.565   4.441
 4671SOL    HW114471   3.054   2.643   4.416
 4671SOL    HW214472   2.937   2.591   4.517
 4672SOL     OW14473   3.617   2.469   3.955
 4672SOL    HW114474   3.605   2.456   3.856
 4672SOL    HW214475   3.587   2.388   4.004
 4673SOL     OW14476   2.630   3.006   4.747
 4673SOL    HW114477   2.552   3.023   4.807
 4673SOL    HW214478   2.664   3.093   4.711
 4674SOL     OW14479   2.712   2.660   5.547
 4674SOL    HW114480   2.708   2.736   5.612
 4674SOL    HW214481   2.734   2.696   5.456
 4675SOL     OW14482   2.547   2.874   4.389
 4675SOL    HW114483   2.616   2.858   4.459
 4675SOL    HW214484   2.474   2.931   4.427
 4676SOL     OW14485   2.548   3.023   5.527
 4676SOL    HW114486   2.608   3.102   5.541
 4676SOL    HW214487   2.462   3.054   5.486
 4677SOL     OW14488   2.197   3.297   4.785
 4677SOL    HW114489   2.119   3.266   4.732
 4677SOL    HW214490   2.255   3.355   4.728
 4678SOL     OW14491   3.322   3.367   5.063
 4678SOL    HW114492   3.346   3.461   5.089
 4678SOL    HW214493   3.306   3.313   5.145
 4679SOL     OW14494   3.465   2.309   4.461
 4679SOL    HW114495   3.391   2.355   4.411
 4679SOL    HW214496   3.516   2.377   4.514
 4680SOL     OW14497   2.093   3.575   4.207
 4680SOL    HW114498   2.127   3.652   4.261
 4680SOL    HW214499   2.137   3.575   4.117
 4681SOL     OW14500   2.989   3.203   5.414
 4681SOL    HW114501   3.036   3.203   5.502
 4681SOL    HW214502   2.941   3.116   5.403
 4682SOL     OW14503   2.092   3.296   4.262
 4682SOL    HW114504   2.066   3.392   4.262
 4682SOL    HW214505   2.021   3.242   4.307
 4683SOL     OW14506   2.482   3.648   5.163
 4683SOL    HW114507   2.390   3.631   5.198
 4683SOL    HW214508   2.510   3.740   5.189
 4684SOL     OW14509   2.468   2.826   3.847
 4684SOL    HW114510   2.475   2.910   3.793
 4684SOL    HW214511   2.514   2.839   3.935
 4685SOL     OW14512   3.456   1.976   5.204
 4685SOL    HW114513   3.438   2.043   5.132
 4685SOL    HW214514   3.453   2.022   5.293
 4686SOL     OW14515   1.984   2.505   4.287
 4686SOL    HW114516   1.939   2.417   4.304
 4686SOL    HW214517   1.983   2.559   4.371
 4687SOL     OW14518   3.704   3.629   4.083
 4687SOL    HW114519   3.758   3.600   4.163
 4687SOL    HW214520   3.734   3.719   4.054
 4688SOL     OW14521   1.889   3.458   3.841
 4688SOL    HW114522   1.870   3.362   3.862
 4688SOL    HW214523   1.856   3.516   3.916
 4689SOL     OW14524   3.551   2.784   4.336
 4689SOL    HW114525   3.646   2.755   4.344
 4689SOL    HW214526   3.543   2.849   4.261
 4690SOL     OW14527   3.503   2.970   4.156
 4690SOL    HW114528   3.589   2.972   4.104
 4690SOL    HW214529   3.517   3.017   4.244
 4691SOL     OW14530   2.475   3.227   4.450
 4691SOL    HW114531   2.426   3.140   4.459
 4691SOL    HW214532   2.452   3.270   4.363
 4692SOL     OW14533   3.155   3.090   5.147
 4692SOL    HW114534   3.192   3.017   5.089
 4692SOL    HW214535   3.207   3.095   5.232
 4693SOL     OW14536   2.671   1.866   4.226
 4693SOL    HW114537   2.711   1.957   4.217
 4693SOL    HW214538   2.571   1.874   4.232
 4694SOL     OW14539   3.387   2.861   3.914
 4694SOL    HW114540   3.324   2.785   3.927
 4694SOL    HW214541   3.435   2.879   4.000
 4695SOL     OW14542   3.049   3.654   5.340
 4695SOL    HW114543   3.073   3.714   5.264
 4695SOL    HW214544   3.056   3.559   5.310
 4696SOL     OW14545   3.328   3.279   4.677
 4696SOL    HW114546   3.269   3.285   4.757
 4696SOL    HW214547   3.313   3.191   4.631
 4697SOL     OW14548   3.529   3.576   4.296
 4697SOL    HW114549   3.488   3.553   4.208
 4697SOL    HW214550   3.511   3.502   4.361
 4698SOL     OW14551   2.460   2.591   3.994
 4698SOL    HW114552   2.484   2.660   3.926
 4698SOL    HW214553   2.382   2.624   4.048
 4699SOL     OW14554   3.143   2.207   4.668
 4699SOL    HW114555   3.057   2.157   4.655
 4699SOL    HW214556   3.205   2.153   4.724
 4700SOL     OW14557   3.438   3.524   4.031
 4700SOL    HW114558   3.527   3.570   4.034
 4700SOL    HW214559   3.417   3.500   3.936
 4701SOL     OW14560   3.256   2.331   5.398
 4701SOL    HW114561   3.236   2.374   5.486
 4701SOL    HW214562   3.334   2.269   5.407
 4702SOL     OW14563   2.835   2.752   5.296
 4702SOL    HW114564   2.881   2.668   5.267
 4702SOL    HW214565   2.779   2.786   5.221
 4703SOL     OW14566   2.903   2.563   4.153
 4703SOL    HW114567   2.929   2.559   4.249
 4703SOL    HW214568   2.818   2.512   4.139
 4704SOL     OW14569   1.938   2.673   4.513
 4704SOL    HW114570   2.037   2.661   4.522
 4704SOL    HW214571   1.914   2.768   4.534
 4705SOL     OW14572   1.992   3.683   5.295
 4705SOL    HW114573   1.982   3.668   5.394
 4705SOL    HW214574   1.906   3.719   5.259
 4706SOL     OW14575   2.727   2.210   3.919
 4706SOL    HW114576   2.786   2.273   3.870
 4706SOL    HW214577   2.746   2.116   3.890
 4707SOL     OW14578   3.581   2.447   5.555
 4707SOL    HW114579   3.555   2.536   5.519
 4707SOL    HW214580   3.579   2.379   5.482
 4708SOL     OW14581   3.224   3.006   4.269
 4708SOL    HW114582   3.307   2.977   4.221
 4708SOL    HW214583   3.175   3.073   4.213
 4709SOL     OW14584   2.870   3.318   4.201
 4709SOL    HW114585   2.824   3.390   4.149
 4709SOL    HW214586   2.866   3.338   4.299
 4710SOL     OW14587   2.213   3.663   4.577
 4710SOL    HW114588   2.263   3.577   4.583
 4710SOL    HW214589   2.278   3.740   4.574
 4711SOL     OW14590   3.657   2.928   4.597
 4711SOL    HW114591   3.595   2.913   4.521
 4711SOL    HW214592   3.605   2.939   4.682
 4712SOL     OW14593   3.089   3.412   5.230
 4712SOL    HW114594   3.095   3.335   5.294
 4712SOL    HW214595   3.037   3.386   5.150
 4713SOL     OW14596   2.183   2.805   3.966
 4713SOL    HW114597   2.265   2.844   3.924
 4713SOL    HW214598   2.156   2.723   3.917
 4714SOL     OW14599   3.320   2.597   4.452
 4714SOL    HW114600   3.315   2.532   4.527
 4714SOL    HW214601   3.400   2.656   4.465
 4715SOL     OW14602   2.323   3.128   5.451
 4715SOL    HW114603   2.273   3.129   5.365
 4715SOL    HW214604   2.260   3.110   5.527
 4716SOL     OW14605   2.973   3.638   3.961
 4716SOL    HW114606   2.913   3.576   4.011
 4716SOL    HW214607   3.004   3.594   3.876
 4717SOL     OW14608   3.494   3.239   3.805
 4717SOL    HW114609   3.462   3.333   3.795
 4717SOL    HW214610   3.418   3.176   3.793
 4718SOL     OW14611   2.326   3.605   4.047
 4718SOL    HW114612   2.359   3.644   4.133
 4718SOL    HW214613   2.402   3.598   3.982
 4719SOL     OW14614   3.262   1.969   4.150
 4719SOL    HW114615   3.238   1.932   4.060
 4719SOL    HW214616   3.361   1.985   4.154
 4720SOL     OW14617   2.111   3.647   4.965
 4720SOL    HW114618   2.168   3.582   5.015
 4720SOL    HW214619   2.095   3.614   4.872
 4721SOL     OW14620   2.802   3.560   4.628
 4721SOL    HW114621   2.882   3.503   4.649
 4721SOL    HW214622   2.753   3.520   4.551
 4722SOL     OW14623   2.244   2.562   4.204
 4722SOL    HW114624   2.289   2.472   4.201
 4722SOL    HW214625   2.150   2.551   4.237
 4723SOL     OW14626   3.409   2.084   5.453
 4723SOL    HW114627   3.404   2.121   5.545
 4723SOL    HW214628   3.337   2.015   5.441
 4724SOL     OW14629   2.476   1.984   3.841
 4724SOL    HW114630   2.574   1.962   3.848
 4724SOL    HW214631   2.445   1.967   3.748
 4725SOL     OW14632   2.750   3.376   4.919
 4725SOL    HW114633   2.727   3.351   4.825
 4725SOL    HW214634   2.811   3.307   4.958
 4726SOL     OW14635   3.213   2.452   5.157
 4726SOL    HW114636   3.241   2.409   5.242
 4726SOL    HW214637   3.238   2.548   5.158
 4727SOL     OW14638   2.665   3.264   4.648
 4727SOL    HW114639   2.755   3.278   4.606
 4727SOL    HW214640   2.594   3.266   4.577
 4728SOL     OW14641   2.784   2.365   4.623
 4728SOL    HW114642   2.759   2.356   4.527
 4728SOL    HW214643   2.832   2.283   4.654
 4729SOL     OW14644   2.401   1.926   4.236
 4729SOL    HW114645   2.320   1.927   4.294
 4729SOL    HW214646   2.404   2.009   4.181
 4730SOL     OW14647   3.296   3.050   3.765
 4730SOL    HW114648   3.328   2.974   3.822
 4730SOL    HW214649   3.204   3.077   3.795
 4731SOL     OW14650   2.159   1.897   3.895
 4731SOL    HW114651   2.208   1.981   3.874
 4731SOL    HW214652   2.221   1.832   3.940
 4732SOL     OW14653   2.797   2.098   4.204
 4732SOL    HW114654   2.749   2.139   4.126
 4732SOL    HW214655   2.896   2.096   4.185
 4733SOL     OW14656   2.938   2.545   5.188
 4733SOL    HW114657   2.858   2.484   5.191
 4733SOL    HW214658   3.019   2.492   5.164
 4734SOL     OW14659   3.089   3.432   4.517
 4734SOL    HW114660   3.110   3.506   4.452
 4734SOL    HW214661   3.157   3.432   4.590
 4735SOL     OW14662   2.321   3.014   4.465
 4735SOL    HW114663   2.250   2.987   4.530
 4735SOL    HW214664   2.295   2.986   4.372
 4736SOL     OW14665   3.133   3.659   4.315
 4736SOL    HW114666   3.177   3.723   4.251
 4736SOL    HW214667   3.083   3.711   4.385
 4737SOL     OW14668   2.894   2.411   3.740
 4737SOL    HW114669   2.853   2.493   3.701
 4737SOL    HW214670   2.958   2.437   3.813
 4738SOL     OW14671   2.728   2.316   4.366
 4738SOL    HW114672   2.696   2.388   4.304
 4738SOL    HW214673   2.752   2.235   4.313
 4739SOL     OW14674   2.879   1.901   4.477
 4739SOL    HW114675   2.807   1.906   4.408
 4739SOL    HW214676   2.855   1.832   4.546
 4740SOL     OW14677   3.291   3.035   4.591
 4740SOL    HW114678   3.236   2.951   4.584
 4740SOL    HW214679   3.317   3.064   4.499
 4741SOL     OW14680   3.328   2.452   4.716
 4741SOL    HW114681   3.298   2.357   4.723
 4741SOL    HW214682   3.401   2.468   4.782
 4742SOL     OW14683   3.719   2.695   4.101
 4742SOL    HW114684   3.761   2.631   4.165
 4742SOL    HW214685   3.681   2.644   4.023
 4743SOL     OW14686   2.350   3.247   3.898
 4743SOL    HW114687   2.263   3.232   3.945
 4743SOL    HW214688   2.333   3.273   3.803
 4744SOL     OW14689   3.526   3.142   4.381
 4744SOL    HW114690   3.625   3.150   4.395
 4744SOL    HW214691   3.481   3.226   4.412
 4745SOL     OW14692   3.252   2.437   3.802
 4745SOL    HW114693   3.198   2.416   3.883
 4745SOL    HW214694   3.343   2.396   3.811
 4746SOL     OW14695   3.616   3.085   5.312
 4746SOL    HW114696   3.707   3.046   5.299
 4746SOL    HW214697   3.624   3.181   5.336
 4747SOL     OW14698   2.926   3.209   5.064
 4747SOL    HW114699   2.846   3.186   5.119
 4747SOL    HW214700   3.009   3.183   5.113
 4748SOL     OW14701   3.454   3.491   5.349
 4748SOL    HW114702   3.481   3.525   5.259
 4748SOL    HW214703   3.533   3.453   5.395
 4749SOL     OW14704   2.973   3.057   4.824
 4749SOL    HW114705   2.933   3.101   4.905
 4749SOL    HW214706   2.932   3.094   4.741
 4750SOL     OW14707   3.500   2.961   4.803
 4750SOL    HW114708   3.505   3.042   4.862
 4750SOL    HW214709   3.414   2.963   4.752
 4751SOL     OW14710   2.842   2.978   5.443
 4751SOL    HW114711   2.743   2.984   5.453
 4751SOL    HW214712   2.865   2.898   5.387
 4752SOL     OW14713   2.567   2.912   4.092
 4752SOL    HW114714   2.553   2.919   4.191
 4752SOL    HW214715   2.651   2.861   4.074
 4753SOL     OW14716   3.136   2.248   4.986
 4753SOL    HW114717   3.157   2.322   5.050
 4753SOL    HW214718   3.047   2.265   4.943
 4754SOL     OW14719   1.926   3.426   5.055
 4754SOL    HW114720   1.880   3.508   5.021
 4754SOL    HW214721   2.024   3.445   5.064
 4755SOL     OW14722   2.229   2.962   4.225
 4755SOL    HW114723   2.222   3.045   4.169
 4755SOL    HW214724   2.233   2.882   4.165
 4756SOL     OW14725   3.114   3.210   4.112
 4756SOL    HW114726   3.164   3.287   4.152
 4756SOL    HW214727   3.019   3.212   4.144
 4757SOL     OW14728   3.134   3.307   4.866
 4757SOL    HW114729   3.181   3.320   4.953
 4757SOL    HW214730   3.068   3.233   4.875
 4758SOL     OW14731   3.444   2.501   4.196
 4758SOL    HW114732   3.413   2.562   4.269
 4758SOL    HW214733   3.494   2.553   4.127
 4759SOL     OW14734   2.216   3.372   5.053
 4759SOL    HW114735   2.195   3.328   4.966
 4759SOL    HW214736   2.313   3.398   5.056
 4760SOL     OW14737   3.449   2.641   5.394
 4760SOL    HW114738   3.357   2.679   5.389
 4760SOL    HW214739   3.509   2.688   5.329
 4761SOL     OW14740   2.875   1.967   5.494
 4761SOL    HW114741   2.881   2.052   5.442
 4761SOL    HW214742   2.907   1.891   5.437
 4762SOL     OW14743   3.222   2.724   4.769
 4762SOL    HW114744   3.147   2.724   4.703
 4762SOL    HW214745   3.259   2.632   4.778
 4763SOL     OW14746   3.071   2.387   3.999
 4763SOL    HW114747   3.084   2.303   4.053
 4763SOL    HW214748   3.042   2.461   4.059
 4764SOL     OW14749   1.899   3.172   5.006
 4764SOL    HW114750   1.952   3.123   5.074
 4764SOL    HW214751   1.921   3.270   5.011
 4765SOL     OW14752   3.590   2.797   5.578
 4765SOL    HW114753   3.544   2.790   5.489
 4765SOL    HW214754   3.528   2.841   5.644
 4766SOL     OW14755   2.169   1.925   4.342
 4766SOL    HW114756   2.158   2.019   4.375
 4766SOL    HW214757   2.164   1.862   4.419
 4767SOL     OW14758   3.484   2.229   4.098
 4767SOL    HW114759   3.486   2.153   4.162
 4767SOL    HW214760   3.436   2.306   4.138
 4768SOL     OW14761   2.885   2.628   4.690
 4768SOL    HW114762   2.900   2.649   4.786
 4768SOL    HW214763   2.855   2.533   4.681
 4769SOL     OW14764   2.842   3.435   5.424
 4769SOL    HW114765   2.822   3.479   5.336
 4769SOL    HW214766   2.881   3.344   5.408
 4770SOL     OW14767   3.721   3.380   5.329
 4770SOL    HW114768   3.735   3.407   5.234
 4770SOL    HW214769   3.804   3.402   5.382
 4771SOL     OW14770   3.402   2.136   3.849
 4771SOL    HW114771   3.341   2.061   3.872
 4771SOL    HW214772   3.424   2.188   3.932
 4772SOL     OW14773   3.165   2.700   3.766
 4772SOL    HW114774   3.199   2.607   3.781
 4772SOL    HW214775   3.183   2.727   3.671
 4773SOL     OW14776   2.930   3.195   4.573
 4773SOL    HW114777   2.937   3.111   4.518
 4773SOL    HW214778   2.992   3.264   4.537
 4774SOL     OW14779   3.000   2.242   5.402
 4774SOL    HW114780   2.955   2.305   5.466
 4774SOL    HW214781   3.093   2.273   5.385
 4775SOL     OW14782   3.022   2.069   5.201
 4775SOL    HW114783   3.022   2.133   5.278
 4775SOL    HW214784   3.050   2.117   5.118
 4776SOL     OW14785   1.870   3.188   3.924
 4776SOL    HW114786   1.777   3.209   3.893
 4776SOL    HW214787   1.880   3.089   3.937
 4777SOL     OW14788   1.950   3.663   4.651
 4777SOL    HW114789   1.908   3.577   4.624
 4777SOL    HW214790   2.044   3.666   4.617
 4778SOL     OW14791   2.366   3.430   4.634
 4778SOL    HW114792   2.432   3.504   4.643
 4778SOL    HW214793   2.410   3.351   4.592
 4779SOL     OW14794   3.231   2.812   5.384
 4779SOL    HW114795   3.270   2.901   5.404
 4779SOL    HW214796   3.241   2.792   5.287
 4780SOL     OW14797   2.677   2.434   4.049
 4780SOL    HW114798   2.684   2.345   4.003
 4780SOL    HW214799   2.583   2.468   4.041
 4781SOL     OW14800   3.519   2.466   4.930
 4781SOL    HW114801   3.481   2.397   4.992
 4781SOL    HW214802   3.601   2.430   4.886
 4782SOL     OW14803   2.114   3.426   5.468
 4782SOL    HW114804   2.084   3.483   5.544
 4782SOL    HW214805   2.107   3.329   5.494
 4783SOL     OW14806   2.792   3.540   5.189
 4783SOL    HW114807   2.768   3.522   5.094
 4783SOL    HW214808   2.822   3.634   5.199
 4784SOL     OW14809   2.021   2.999   5.190
 4784SOL    HW114810   2.043   2.938   5.266
 4784SOL    HW214811   2.031   2.950   5.104
 4785SOL     OW14812   3.209   2.921   4.958
 4785SOL    HW114813   3.233   2.858   4.884
 4785SOL    HW214814   3.119   2.961   4.940
 4786SOL     OW14815   3.164   2.717   4.033
 4786SOL    HW114816   3.078   2.686   4.075
 4786SOL    HW214817   3.160   2.703   3.934
 4787SOL     OW14818   3.621   3.609   4.878
 4787SOL    HW114819   3.682   3.639   4.805
 4787SOL    HW214820   3.583   3.520   4.856
 4788SOL     OW14821   3.114   3.593   4.852
 4788SOL    HW114822   3.198   3.598   4.798
 4788SOL    HW214823   3.091   3.497   4.870
 4789SOL     OW14824   1.945   3.120   4.746
 4789SOL    HW114825   1.940   3.119   4.846
 4789SOL    HW214826   1.862   3.079   4.708
 4790SOL     OW14827   2.550   3.524   5.440
 4790SOL    HW114828   2.494   3.605   5.449
 4790SOL    HW214829   2.602   3.528   5.354
 4791SOL     OW14830   3.588   1.997   4.247
 4791SOL    HW114831   3.661   1.980   4.180
 4791SOL    HW214832   3.557   1.910   4.285
 4792SOL     OW14833   3.250   3.435   4.201
 4792SOL    HW114834   3.317   3.447   4.127
 4792SOL    HW214835   3.210   3.524   4.224
 4793SOL     OW14836   1.992   3.656   5.575
 4793SOL    HW114837   1.951   3.582   5.628
 4793SOL    HW214838   2.056   3.707   5.633
 4794SOL     OW14839   3.142   2.789   4.396
 4794SOL    HW114840   3.202   2.708   4.398
 4794SOL    HW214841   3.182   2.858   4.336
 4795SOL     OW14842   2.692   3.135   5.146
 4795SOL    HW114843   2.687   3.168   5.241
 4795SOL    HW214844   2.606   3.154   5.100
 4796SOL     OW14845   2.534   3.478   3.878
 4796SOL    HW114846   2.543   3.488   3.779
 4796SOL    HW214847   2.494   3.389   3.899
 4797SOL     OW14848   3.512   3.582   5.118
 4797SOL    HW114849   3.565   3.592   5.034
 4797SOL    HW214850   3.485   3.672   5.152
 4798SOL     OW14851   3.703   2.037   4.687
 4798SOL    HW114852   3.742   1.952   4.651
 4798SOL    HW214853   3.605   2.039   4.668
 4799SOL     OW14854   3.056   3.474   3.755
 4799SOL    HW114855   3.062   3.381   3.792
 4799SOL    HW214856   2.997   3.474   3.675
 4800SOL     OW14857   2.684   2.864   5.096
 4800SOL    HW114858   2.724   2.863   5.004
 4800SOL    HW214859   2.694   2.956   5.136
 4801SOL     OW14860   2.778   2.772   4.015
 4801SOL    HW114861   2.841   2.810   3.947
 4801SOL    HW214862   2.818   2.689   4.054
 4802SOL     OW14863   3.366   3.469   3.768
 4802SOL    HW114864   3.274   3.506   3.775
 4802SOL    HW214865   3.404   3.489   3.678
 4803SOL     OW14866   2.234   3.150   5.214
 4803SOL    HW114867   2.221   3.243   5.180
 4803SOL    HW214868   2.150   3.098   5.201
 4804SOL     OW14869   3.476   3.154   5.013
 4804SOL    HW114870   3.536   3.157   5.093
 4804SOL    HW214871   3.401   3.218   5.026
 4805SOL     OW14872   2.901   2.960   4.420
 4805SOL    HW114873   2.831   2.913   4.474
 4805SOL    HW214874   2.960   2.892   4.377
 4806SOL     OW14875   2.452   3.349   4.215
 4806SOL    HW114876   2.494   3.291   4.145
 4806SOL    HW214877   2.408   3.428   4.171
 4807SOL     OW14878   3.571   2.247   5.105
 4807SOL    HW114879   3.644   2.316   5.109
 4807SOL    HW214880   3.599   2.172   5.046
 4808SOL     OW14881   2.117   3.210   4.014
 4808SOL    HW114882   2.021   3.211   3.987
 4808SOL    HW214883   2.129   3.263   4.098
 4809SOL     OW14884   1.967   2.875   5.450
 4809SOL    HW114885   1.890   2.842   5.504
 4809SOL    HW214886   2.052   2.845   5.492
 4810SOL     OW14887   1.937   2.207   3.757
 4810SOL    HW114888   1.845   2.179   3.728
 4810SOL    HW214889   1.968   2.284   3.701
 4811SOL     OW14890   3.302   2.718   5.122
 4811SOL    HW114891   3.245   2.770   5.059
 4811SOL    HW214892   3.398   2.730   5.098
 4812SOL     OW14893   1.934   2.028   4.042
 4812SOL    HW114894   1.917   2.111   3.988
 4812SOL    HW214895   2.024   1.991   4.020
 4813SOL     OW14896   3.045   3.197   3.843
 4813SOL    HW114897   2.946   3.186   3.845
 4813SOL    HW214898   3.079   3.212   3.936
 4814SOL     OW14899   3.355   3.629   4.683
 4814SOL    HW114900   3.388   3.693   4.614
 4814SOL    HW214901   3.421   3.623   4.758
 4815SOL     OW14902   3.312   3.082   5.357
 4815SOL    HW114903   3.303   3.072   5.456
 4815SOL    HW214904   3.408   3.075   5.331
 4816SOL     OW14905   2.252   3.603   5.284
 4816SOL    HW114906   2.161   3.644   5.282
 4816SOL    HW214907   2.245   3.509   5.316
 4817SOL     OW14908   3.536   2.745   4.978
 4817SOL    HW114909   3.509   2.656   4.941
 4817SOL    HW214910   3.537   2.813   4.905
 4818SOL     OW14911   3.087   2.187   4.173
 4818SOL    HW114912   3.152   2.113   4.162
 4818SOL    HW214913   3.107   2.237   4.257
 4819SOL     OW14914   2.456   2.607   4.376
 4819SOL    HW114915   2.506   2.692   4.357
 4819SOL    HW214916   2.368   2.609   4.328
 4820SOL     OW14917   3.639   2.204   5.366
 4820SOL    HW114918   3.622   2.235   5.272
 4820SOL    HW214919   3.555   2.167   5.404
 4821SOL     OW14920   3.592   2.796   5.241
 4821SOL    HW114921   3.630   2.887   5.256
 4821SOL    HW214922   3.584   2.779   5.142
 4822SOL     OW14923   2.721   3.236   3.740
 4822SOL    HW114924   2.675   3.251   3.828
 4822SOL    HW214925   2.765   3.321   3.710
 4823SOL     OW14926   2.523   3.652   4.677
 4823SOL    HW114927   2.477   3.740   4.664
 4823SOL    HW214928   2.622   3.664   4.670
 4824SOL     OW14929   2.721   2.818   4.585
 4824SOL    HW114930   2.775   2.749   4.633
 4824SOL    HW214931   2.689   2.887   4.651
 4825SOL     OW14932   2.945   2.846   3.811
 4825SOL    HW114933   2.922   2.899   3.729
 4825SOL    HW214934   3.026   2.790   3.792
 4826SOL     OW14935   3.723   3.431   4.575
 4826SOL    HW114936   3.652   3.419   4.505
 4826SOL    HW214937   3.724   3.352   4.635
 4827SOL     OW14938   2.083   3.176   5.568
 4827SOL    HW114939   2.018   3.103   5.547
 4827SOL    HW214940   2.087   3.190   5.666
 4828SOL     OW14941   1.941   3.102   4.377
 4828SOL    HW114942   1.940   3.055   4.465
 4828SOL    HW214943   2.023   3.074   4.326
 4829SOL     OW14944   2.534   3.253   5.348
 4829SOL    HW114945   2.456   3.203   5.386
 4829SOL    HW214946   2.531   3.348   5.379
 4830SOL     OW14947   3.686   2.054   4.951
 4830SOL    HW114948   3.682   1.964   4.995
 4830SOL    HW214949   3.689   2.043   4.852
 4831SOL     OW14950   3.567   3.349   4.828
 4831SOL    HW114951   3.474   3.324   4.801
 4831SOL    HW214952   3.593   3.299   4.910
 4832SOL     OW14953   2.674   3.448   4.411
 4832SOL    HW114954   2.706   3.458   4.317
 4832SOL    HW214955   2.595   3.386   4.413
 4833SOL     OW14956   3.286   2.076   4.836
 4833SOL    HW114957   3.338   2.011   4.891
 4833SOL    HW214958   3.237   2.139   4.897
 4834SOL     OW14959   2.632   3.192   4.025
 4834SOL    HW114960   2.586   3.105   4.042
 4834SOL    HW214961   2.723   3.189   4.066
 4835SOL     OW14962   2.480   3.429   5.008
 4835SOL    HW114963   2.475   3.511   5.065
 4835SOL    HW214964   2.569   3.426   4.963
 4836SOL     OW14965   3.214   1.914   3.892
 4836SOL    HW114966   3.249   1.873   3.808
 4836SOL    HW214967   3.124   1.876   3.912
 4837SOL     OW14968   3.162   2.315   4.415
 4837SOL    HW114969   3.103   2.395   4.419
 4837SOL    HW214970   3.177   2.280   4.508
 4838SOL     OW14971   3.455   2.083   4.606
 4838SOL    HW114972   3.371   2.082   4.660
 4838SOL    HW214973   3.457   2.166   4.550
 4839SOL     OW14974   1.901   2.939   4.024
 4839SOL    HW114975   2.000   2.928   4.015
 4839SOL    HW214976   1.861   2.853   4.056
 4840SOL     OW14977   2.737   3.508   4.061
 4840SOL    HW114978   2.660   3.473   4.007
 4840SOL    HW214979   2.705   3.579   4.123
 4841SOL     OW14980   2.431   3.137   6.751
 4841SOL    HW114981   2.338   3.130   6.714
 4841SOL    HW214982   2.442   3.226   6.795
 4842SOL     OW14983   3.417   3.373   6.289
 4842SOL    HW114984   3.360   3.357   6.370
 4842SOL    HW214985   3.358   3.383   6.209
 4843SOL     OW14986   2.997   2.565   6.303
 4843SOL    HW114987   3.054   2.643   6.278
 4843SOL    HW214988   2.937   2.591   6.379
 4844SOL     OW14989   3.617   2.469   5.817
 4844SOL    HW114990   3.605   2.456   5.718
 4844SOL    HW214991   3.587   2.388   5.866
 4845SOL     OW14992   2.630   3.006   6.609
 4845SOL    HW114993   2.552   3.023   6.669
 4845SOL    HW214994   2.664   3.093   6.573
 4846SOL     OW14995   2.712   2.660   7.409
 4846SOL    HW114996   2.708   2.736   7.474
 4846SOL    HW214997   2.734   2.696   7.318
 4847SOL     OW14998   2.548   3.023   7.389
 4847SOL    HW114999   2.608   3.102   7.403
 4847SOL    HW215000   2.462   3.054   7.348
 4848SOL     OW15001   2.197   3.297   6.647
 4848SOL    HW115002   2.119   3.266   6.594
 4848SOL    HW215003   2.255   3.355   6.590
 4849SOL     OW15004   3.322   3.367   6.925
 4849SOL    HW115005   3.346   3.461   6.951
 4849SOL    HW215006   3.306   3.313   7.007
 4850SOL     OW15007   3.465   2.309   6.323
 4850SOL    HW115008   3.391   2.355   6.273
 4850SOL    HW215009   3.516   2.377   6.376
 4851SOL     OW15010   2.093   3.575   6.069
 4851SOL    HW115011   2.127   3.652   6.123
 4851SOL    HW215012   2.137   3.575   5.979
 4852SOL     OW15013   2.989   3.203   7.276
 4852SOL    HW115014   3.036   3.203   7.364
 4852SOL    HW215015   2.941   3.116   7.265
 4853SOL     OW15016   2.092   3.296   6.124
 4853SOL    HW115017   2.066   3.392   6.124
 4853SOL    HW215018   2.021   3.242   6.169
 4854SOL     OW15019   2.102   2.953   6.472
 4854SOL    HW115020   2.116   2.869   6.524
 4854SOL    HW215021   2.047   3.017   6.527
 4855SOL     OW15022   2.482   3.648   7.025
 4855SOL    HW115023   2.390   3.631   7.060
 4855SOL    HW215024   2.510   3.740   7.051
 4856SOL     OW15025   2.468   2.826   5.709
 4856SOL    HW115026   2.475   2.910   5.655
 4856SOL    HW215027   2.514   2.839   5.797
 4857SOL     OW15028   3.456   1.976   7.066
 4857SOL    HW115029   3.438   2.043   6.994
 4857SOL    HW215030   3.453   2.022   7.155
 4858SOL     OW15031   3.704   3.629   5.945
 4858SOL    HW115032   3.758   3.600   6.025
 4858SOL    HW215033   3.734   3.719   5.916
 4859SOL     OW15034   1.889   3.458   5.703
 4859SOL    HW115035   1.870   3.362   5.724
 4859SOL    HW215036   1.856   3.516   5.778
 4860SOL     OW15037   3.551   2.784   6.198
 4860SOL    HW115038   3.646   2.755   6.206
 4860SOL    HW215039   3.543   2.849   6.123
 4861SOL     OW15040   3.503   2.970   6.018
 4861SOL    HW115041   3.589   2.972   5.966
 4861SOL    HW215042   3.517   3.017   6.106
 4862SOL     OW15043   1.975   2.599   7.183
 4862SOL    HW115044   2.063   2.586   7.228
 4862SOL    HW215045   1.962   2.696   7.161
 4863SOL     OW15046   2.475   3.227   6.312
 4863SOL    HW115047   2.426   3.140   6.321
 4863SOL    HW215048   2.452   3.270   6.225
 4864SOL     OW15049   3.155   3.090   7.009
 4864SOL    HW115050   3.192   3.017   6.951
 4864SOL    HW215051   3.207   3.095   7.094
 4865SOL     OW15052   2.059   2.838   6.850
 4865SOL    HW115053   2.148   2.793   6.836
 4865SOL    HW215054   1.986   2.773   6.831
 4866SOL     OW15055   3.387   2.861   5.776
 4866SOL    HW115056   3.324   2.785   5.789
 4866SOL    HW215057   3.435   2.879   5.862
 4867SOL     OW15058   3.049   3.654   7.202
 4867SOL    HW115059   3.073   3.714   7.126
 4867SOL    HW215060   3.056   3.559   7.172
 4868SOL     OW15061   3.328   3.279   6.539
 4868SOL    HW115062   3.269   3.285   6.619
 4868SOL    HW215063   3.313   3.191   6.493
 4869SOL     OW15064   3.529   3.576   6.158
 4869SOL    HW115065   3.488   3.553   6.070
 4869SOL    HW215066   3.511   3.502   6.223
 4870SOL     OW15067   3.143   2.207   6.530
 4870SOL    HW115068   3.057   2.157   6.517
 4870SOL    HW215069   3.205   2.153   6.586
 4871SOL     OW15070   3.438   3.524   5.893
 4871SOL    HW115071   3.527   3.570   5.896
 4871SOL    HW215072   3.417   3.500   5.798
 4872SOL     OW15073   2.669   2.467   7.051
 4872SOL    HW115074   2.622   2.464   7.140
 4872SOL    HW215075   2.618   2.412   6.985
 4873SOL     OW15076   3.256   2.331   7.260
 4873SOL    HW115077   3.236   2.374   7.348
 4873SOL    HW215078   3.334   2.269   7.269
 4874SOL     OW15079   2.835   2.752   7.158
 4874SOL    HW115080   2.881   2.668   7.129
 4874SOL    HW215081   2.779   2.786   7.083
 4875SOL     OW15082   2.853   2.272   6.828
 4875SOL    HW115083   2.776   2.306   6.882
 4875SOL    HW215084   2.819   2.221   6.749
 4876SOL     OW15085   1.992   3.683   7.157
 4876SOL    HW115086   1.982   3.668   7.256
 4876SOL    HW215087   1.906   3.719   7.121
 4877SOL     OW15088   3.581   2.447   7.417
 4877SOL    HW115089   3.555   2.536   7.381
 4877SOL    HW215090   3.579   2.379   7.344
 4878SOL     OW15091   3.224   3.006   6.131
 4878SOL    HW115092   3.307   2.977   6.083
 4878SOL    HW215093   3.175   3.073   6.075
 4879SOL     OW15094   2.412   2.058   6.471
 4879SOL    HW115095   2.407   2.053   6.571
 4879SOL    HW215096   2.414   2.154   6.442
 4880SOL     OW15097   2.870   3.318   6.063
 4880SOL    HW115098   2.824   3.390   6.011
 4880SOL    HW215099   2.866   3.338   6.161
 4881SOL     OW15100   2.213   3.663   6.439
 4881SOL    HW115101   2.263   3.577   6.445
 4881SOL    HW215102   2.278   3.740   6.436
 4882SOL     OW15103   3.657   2.928   6.459
 4882SOL    HW115104   3.595   2.913   6.383
 4882SOL    HW215105   3.605   2.939   6.544
 4883SOL     OW15106   3.089   3.412   7.092
 4883SOL    HW115107   3.095   3.335   7.156
 4883SOL    HW215108   3.037   3.386   7.012
 4884SOL     OW15109   3.320   2.597   6.314
 4884SOL    HW115110   3.315   2.532   6.389
 4884SOL    HW215111   3.400   2.656   6.327
 4885SOL     OW15112   2.323   3.128   7.313
 4885SOL    HW115113   2.273   3.129   7.227
 4885SOL    HW215114   2.260   3.110   7.389
 4886SOL     OW15115   2.973   3.638   5.823
 4886SOL    HW115116   2.913   3.576   5.873
 4886SOL    HW215117   3.004   3.594   5.738
 4887SOL     OW15118   3.494   3.239   5.667
 4887SOL    HW115119   3.462   3.333   5.657
 4887SOL    HW215120   3.418   3.176   5.655
 4888SOL     OW15121   2.326   3.605   5.909
 4888SOL    HW115122   2.359   3.644   5.995
 4888SOL    HW215123   2.402   3.598   5.844
 4889SOL     OW15124   3.262   1.969   6.012
 4889SOL    HW115125   3.238   1.932   5.922
 4889SOL    HW215126   3.361   1.985   6.016
 4890SOL     OW15127   2.111   3.647   6.827
 4890SOL    HW115128   2.168   3.582   6.877
 4890SOL    HW215129   2.095   3.614   6.734
 4891SOL     OW15130   2.802   3.560   6.490
 4891SOL    HW115131   2.882   3.503   6.511
 4891SOL    HW215132   2.753   3.520   6.413
 4892SOL     OW15133   3.409   2.084   7.315
 4892SOL    HW115134   3.404   2.121   7.407
 4892SOL    HW215135   3.337   2.015   7.303
 4893SOL     OW15136   2.643   2.126   7.335
 4893SOL    HW115137   2.710   2.065   7.378
 4893SOL    HW215138   2.570   2.145   7.400
 4894SOL     OW15139   2.750   3.376   6.781
 4894SOL    HW115140   2.727   3.351   6.687
 4894SOL    HW215141   2.811   3.307   6.820
 4895SOL     OW15142   3.213   2.452   7.019
 4895SOL    HW115143   3.241   2.409   7.104
 4895SOL    HW215144   3.238   2.548   7.020
 4896SOL     OW15145   2.665   3.264   6.510
 4896SOL    HW115146   2.755   3.278   6.468
 4896SOL    HW215147   2.594   3.266   6.439
 4897SOL     OW15148   3.296   3.050   5.627
 4897SOL    HW115149   3.328   2.974   5.684
 4897SOL    HW215150   3.204   3.077   5.657
 4898SOL     OW15151   2.938   2.545   7.050
 4898SOL    HW115152   2.858   2.484   7.053
 4898SOL    HW215153   3.019   2.492   7.026
 4899SOL     OW15154   3.089   3.432   6.379
 4899SOL    HW115155   3.110   3.506   6.314
 4899SOL    HW215156   3.157   3.432   6.452
 4900SOL     OW15157   2.321   3.014   6.327
 4900SOL    HW115158   2.250   2.987   6.392
 4900SOL    HW215159   2.295   2.986   6.234
 4901SOL     OW15160   3.133   3.659   6.177
 4901SOL    HW115161   3.177   3.723   6.113
 4901SOL    HW215162   3.083   3.711   6.247
 4902SOL     OW15163   2.894   2.411   5.602
 4902SOL    HW115164   2.853   2.493   5.563
 4902SOL    HW215165   2.958   2.437   5.675
 4903SOL     OW15166   1.940   2.418   6.972
 4903SOL    HW115167   2.032   2.417   6.931
 4903SOL    HW215168   1.934   2.492   7.039
 4904SOL     OW15169   2.423   2.084   6.733
 4904SOL    HW115170   2.461   2.000   6.770
 4904SOL    HW215171   2.335   2.103   6.777
 4905SOL     OW15172   3.291   3.035   6.453
 4905SOL    HW115173   3.236   2.951   6.446
 4905SOL    HW215174   3.317   3.064   6.361
 4906SOL     OW15175   3.328   2.452   6.578
 4906SOL    HW115176   3.298   2.357   6.585
 4906SOL    HW215177   3.401   2.468   6.644
 4907SOL     OW15178   3.719   2.695   5.963
 4907SOL    HW115179   3.761   2.631   6.027
 4907SOL    HW215180   3.681   2.644   5.885
 4908SOL     OW15181   2.350   3.247   5.760
 4908SOL    HW115182   2.263   3.232   5.807
 4908SOL    HW215183   2.333   3.273   5.665
 4909SOL     OW15184   3.526   3.142   6.243
 4909SOL    HW115185   3.625   3.150   6.257
 4909SOL    HW215186   3.481   3.226   6.274
 4910SOL     OW15187   3.252   2.437   5.664
 4910SOL    HW115188   3.198   2.416   5.745
 4910SOL    HW215189   3.343   2.396   5.673
 4911SOL     OW15190   3.616   3.085   7.174
 4911SOL    HW115191   3.707   3.046   7.161
 4911SOL    HW215192   3.624   3.181   7.198
 4912SOL     OW15193   2.926   3.209   6.926
 4912SOL    HW115194   2.846   3.186   6.981
 4912SOL    HW215195   3.009   3.183   6.975
 4913SOL     OW15196   3.454   3.491   7.211
 4913SOL    HW115197   3.481   3.525   7.121
 4913SOL    HW215198   3.533   3.453   7.257
 4914SOL     OW15199   2.973   3.057   6.686
 4914SOL    HW115200   2.933   3.101   6.767
 4914SOL    HW215201   2.932   3.094   6.603
 4915SOL     OW15202   3.500   2.961   6.665
 4915SOL    HW115203   3.505   3.042   6.724
 4915SOL    HW215204   3.414   2.963   6.614
 4916SOL     OW15205   2.777   1.951   6.988
 4916SOL    HW115206   2.802   1.931   6.893
 4916SOL    HW215207   2.849   2.007   7.030
 4917SOL     OW15208   2.842   2.978   7.305
 4917SOL    HW115209   2.743   2.984   7.315
 4917SOL    HW215210   2.865   2.898   7.249
 4918SOL     OW15211   2.567   2.912   5.954
 4918SOL    HW115212   2.553   2.919   6.053
 4918SOL    HW215213   2.651   2.861   5.936
 4919SOL     OW15214   2.272   2.675   6.837
 4919SOL    HW115215   2.358   2.687   6.887
 4919SOL    HW215216   2.230   2.588   6.864
 4920SOL     OW15217   3.136   2.248   6.848
 4920SOL    HW115218   3.157   2.322   6.912
 4920SOL    HW215219   3.047   2.265   6.805
 4921SOL     OW15220   1.926   3.426   6.917
 4921SOL    HW115221   1.880   3.508   6.883
 4921SOL    HW215222   2.024   3.445   6.926
 4922SOL     OW15223   2.428   2.399   6.451
 4922SOL    HW115224   2.440   2.465   6.377
 4922SOL    HW215225   2.474   2.433   6.534
 4923SOL     OW15226   3.114   3.210   5.974
 4923SOL    HW115227   3.164   3.287   6.014
 4923SOL    HW215228   3.019   3.212   6.006
 4924SOL     OW15229   3.134   3.307   6.728
 4924SOL    HW115230   3.181   3.320   6.815
 4924SOL    HW215231   3.068   3.233   6.737
 4925SOL     OW15232   3.444   2.501   6.058
 4925SOL    HW115233   3.413   2.562   6.131
 4925SOL    HW215234   3.494   2.553   5.989
 4926SOL     OW15235   2.216   3.372   6.915
 4926SOL    HW115236   2.195   3.328   6.828
 4926SOL    HW215237   2.313   3.398   6.918
 4927SOL     OW15238   2.264   2.613   7.184
 4927SOL    HW115239   2.332   2.668   7.137
 4927SOL    HW215240   2.304   2.525   7.211
 4928SOL     OW15241   3.449   2.641   7.256
 4928SOL    HW115242   3.357   2.679   7.251
 4928SOL    HW215243   3.509   2.688   7.191
 4929SOL     OW15244   2.875   1.967   7.356
 4929SOL    HW115245   2.881   2.052   7.304
 4929SOL    HW215246   2.907   1.891   7.299
 4930SOL     OW15247   2.366   1.912   7.326
 4930SOL    HW115248   2.324   1.855   7.256
 4930SOL    HW215249   2.300   1.981   7.358
 4931SOL     OW15250   2.435   2.732   6.615
 4931SOL    HW115251   2.479   2.821   6.606
 4931SOL    HW215252   2.372   2.732   6.692
 4932SOL     OW15253   3.222   2.724   6.631
 4932SOL    HW115254   3.147   2.724   6.565
 4932SOL    HW215255   3.259   2.632   6.640
 4933SOL     OW15256   3.071   2.387   5.861
 4933SOL    HW115257   3.084   2.303   5.915
 4933SOL    HW215258   3.042   2.461   5.921
 4934SOL     OW15259   1.899   3.172   6.868
 4934SOL    HW115260   1.952   3.123   6.936
 4934SOL    HW215261   1.921   3.270   6.873
 4935SOL     OW15262   2.594   2.496   6.650
 4935SOL    HW115263   2.653   2.470   6.574
 4935SOL    HW215264   2.566   2.592   6.639
 4936SOL     OW15265   3.590   2.797   7.440
 4936SOL    HW115266   3.544   2.790   7.351
 4936SOL    HW215267   3.528   2.841   7.506
 4937SOL     OW15268   3.484   2.229   5.960
 4937SOL    HW115269   3.486   2.153   6.024
 4937SOL    HW215270   3.436   2.306   6.000
 4938SOL     OW15271   2.885   2.628   6.552
 4938SOL    HW115272   2.900   2.649   6.648
 4938SOL    HW215273   2.855   2.533   6.543
 4939SOL     OW15274   2.842   3.435   7.286
 4939SOL    HW115275   2.822   3.479   7.198
 4939SOL    HW215276   2.881   3.344   7.270
 4940SOL     OW15277   3.721   3.380   7.191
 4940SOL    HW115278   3.735   3.407   7.096
 4940SOL    HW215279   3.804   3.402   7.244
 4941SOL     OW15280   2.212   2.760   7.390
 4941SOL    HW115281   2.288   2.804   7.438
 4941SOL    HW215282   2.247   2.713   7.308
 4942SOL     OW15283   3.402   2.136   5.711
 4942SOL    HW115284   3.341   2.061   5.734
 4942SOL    HW215285   3.424   2.188   5.794
 4943SOL     OW15286   3.165   2.700   5.628
 4943SOL    HW115287   3.199   2.607   5.643
 4943SOL    HW215288   3.183   2.727   5.533
 4944SOL     OW15289   2.930   3.195   6.435
 4944SOL    HW115290   2.937   3.111   6.380
 4944SOL    HW215291   2.992   3.264   6.399
 4945SOL     OW15292   2.181   2.672   6.535
 4945SOL    HW115293   2.274   2.708   6.540
 4945SOL    HW215294   2.175   2.587   6.587
 4946SOL     OW15295   3.000   2.242   7.264
 4946SOL    HW115296   2.955   2.305   7.328
 4946SOL    HW215297   3.093   2.273   7.247
 4947SOL     OW15298   3.022   2.069   7.063
 4947SOL    HW115299   3.022   2.133   7.140
 4947SOL    HW215300   3.050   2.117   6.980
 4948SOL     OW15301   1.870   3.188   5.786
 4948SOL    HW115302   1.777   3.209   5.755
 4948SOL    HW215303   1.880   3.089   5.799
 4949SOL     OW15304   1.950   3.663   6.513
 4949SOL    HW115305   1.908   3.577   6.486
 4949SOL    HW215306   2.044   3.666   6.479
 4950SOL     OW15307   2.366   3.430   6.496
 4950SOL    HW115308   2.432   3.504   6.505
 4950SOL    HW215309   2.410   3.351   6.454
 4951SOL     OW15310   2.864   2.658   6.824
 4951SOL    HW115311   2.905   2.626   6.910
 4951SOL    HW215312   2.768   2.631   6.821
 4952SOL     OW15313   1.902   2.406   6.700
 4952SOL    HW115314   1.987   2.373   6.659
 4952SOL    HW215315   1.915   2.421   6.798
 4953SOL     OW15316   3.231   2.812   7.246
 4953SOL    HW115317   3.270   2.901   7.266
 4953SOL    HW215318   3.241   2.792   7.149
 4954SOL     OW15319   3.519   2.466   6.792
 4954SOL    HW115320   3.481   2.397   6.854
 4954SOL    HW215321   3.601   2.430   6.748
 4955SOL     OW15322   2.114   3.426   7.330
 4955SOL    HW115323   2.084   3.483   7.406
 4955SOL    HW215324   2.107   3.329   7.356
 4956SOL     OW15325   2.792   3.540   7.051
 4956SOL    HW115326   2.768   3.522   6.956
 4956SOL    HW215327   2.822   3.634   7.061
 4957SOL     OW15328   2.021   2.999   7.052
 4957SOL    HW115329   2.043   2.938   7.128
 4957SOL    HW215330   2.031   2.950   6.966
 4958SOL     OW15331   3.209   2.921   6.820
 4958SOL    HW115332   3.233   2.858   6.746
 4958SOL    HW215333   3.119   2.961   6.802
 4959SOL     OW15334   3.164   2.717   5.895
 4959SOL    HW115335   3.078   2.686   5.937
 4959SOL    HW215336   3.160   2.703   5.796
 4960SOL     OW15337   3.621   3.609   6.740
 4960SOL    HW115338   3.682   3.639   6.667
 4960SOL    HW215339   3.583   3.520   6.718
 4961SOL     OW15340   3.114   3.593   6.714
 4961SOL    HW115341   3.198   3.598   6.660
 4961SOL    HW215342   3.091   3.497   6.732
 4962SOL     OW15343   1.945   3.120   6.608
 4962SOL    HW115344   1.940   3.119   6.708
 4962SOL    HW215345   1.862   3.079   6.570
 4963SOL     OW15346   2.550   3.524   7.302
 4963SOL    HW115347   2.494   3.605   7.311
 4963SOL    HW215348   2.602   3.528   7.216
 4964SOL     OW15349   3.588   1.997   6.109
 4964SOL    HW115350   3.661   1.980   6.042
 4964SOL    HW215351   3.557   1.910   6.147
 4965SOL     OW15352   3.250   3.435   6.063
 4965SOL    HW115353   3.317   3.447   5.989
 4965SOL    HW215354   3.210   3.524   6.086
 4966SOL     OW15355   1.992   3.656   7.437
 4966SOL    HW115356   1.951   3.582   7.490
 4966SOL    HW215357   2.056   3.707   7.495
 4967SOL     OW15358   3.142   2.789   6.258
 4967SOL    HW115359   3.202   2.708   6.260
 4967SOL    HW215360   3.182   2.858   6.198
 4968SOL     OW15361   2.692   3.135   7.008
 4968SOL    HW115362   2.687   3.168   7.103
 4968SOL    HW215363   2.606   3.154   6.962
 4969SOL     OW15364   2.534   3.478   5.740
 4969SOL    HW115365   2.543   3.488   5.641
 4969SOL    HW215366   2.494   3.389   5.761
 4970SOL     OW15367   3.512   3.582   6.980
 4970SOL    HW115368   3.565   3.592   6.896
 4970SOL    HW215369   3.485   3.672   7.014
 4971SOL     OW15370   3.703   2.037   6.549
 4971SOL    HW115371   3.742   1.952   6.513
 4971SOL    HW215372   3.605   2.039   6.530
 4972SOL     OW15373   3.056   3.474   5.617
 4972SOL    HW115374   3.062   3.381   5.654
 4972SOL    HW215375   2.997   3.474   5.537
 4973SOL     OW15376   2.684   2.864   6.958
 4973SOL    HW115377   2.724   2.863   6.866
 4973SOL    HW215378   2.694   2.956   6.998
 4974SOL     OW15379   3.366   3.469   5.630
 4974SOL    HW115380   3.274   3.506   5.637
 4974SOL    HW215381   3.404   3.489   5.540
 4975SOL     OW15382   2.234   3.150   7.076
 4975SOL    HW115383   2.221   3.243   7.042
 4975SOL    HW215384   2.150   3.098   7.063
 4976SOL     OW15385   3.476   3.154   6.875
 4976SOL    HW115386   3.536   3.157   6.955
 4976SOL    HW215387   3.401   3.218   6.888
 4977SOL     OW15388   2.901   2.960   6.282
 4977SOL    HW115389   2.831   2.913   6.336
 4977SOL    HW215390   2.960   2.892   6.239
 4978SOL     OW15391   2.876   2.098   6.557
 4978SOL    HW115392   2.868   2.062   6.464
 4978SOL    HW215393   2.874   2.022   6.622
 4979SOL     OW15394   2.452   3.349   6.077
 4979SOL    HW115395   2.494   3.291   6.007
 4979SOL    HW215396   2.408   3.428   6.033
 4980SOL     OW15397   3.571   2.247   6.967
 4980SOL    HW115398   3.644   2.316   6.971
 4980SOL    HW215399   3.599   2.172   6.908
 4981SOL     OW15400   2.117   3.210   5.876
 4981SOL    HW115401   2.021   3.211   5.849
 4981SOL    HW215402   2.129   3.263   5.960
 4982SOL     OW15403   1.967   2.875   7.312
 4982SOL    HW115404   1.890   2.842   7.366
 4982SOL    HW215405   2.052   2.845   7.354
 4983SOL     OW15406   2.534   2.065   7.075
 4983SOL    HW115407   2.624   2.049   7.035
 4983SOL    HW215408   2.542   2.070   7.174
 4984SOL     OW15409   3.302   2.718   6.984
 4984SOL    HW115410   3.245   2.770   6.921
 4984SOL    HW215411   3.398   2.730   6.960
 4985SOL     OW15412   3.045   3.197   5.705
 4985SOL    HW115413   2.946   3.186   5.707
 4985SOL    HW215414   3.079   3.212   5.798
 4986SOL     OW15415   2.475   2.704   7.017
 4986SOL    HW115416   2.531   2.785   7.000
 4986SOL    HW215417   2.534   2.624   7.020
 4987SOL     OW15418   3.355   3.629   6.545
 4987SOL    HW115419   3.388   3.693   6.476
 4987SOL    HW215420   3.421   3.623   6.620
 4988SOL     OW15421   2.578   2.427   7.294
 4988SOL    HW115422   2.597   2.492   7.368
 4988SOL    HW215423   2.638   2.347   7.303
 4989SOL     OW15424   3.312   3.082   7.219
 4989SOL    HW115425   3.303   3.072   7.318
 4989SOL    HW215426   3.408   3.075   7.193
 4990SOL     OW15427   2.252   3.603   7.146
 4990SOL    HW115428   2.161   3.644   7.144
 4990SOL    HW215429   2.245   3.509   7.178
 4991SOL     OW15430   3.536   2.745   6.840
 4991SOL    HW115431   3.509   2.656   6.803
 4991SOL    HW215432   3.537   2.813   6.767
 4992SOL     OW15433   3.087   2.187   6.035
 4992SOL    HW115434   3.152   2.113   6.024
 4992SOL    HW215435   3.107   2.237   6.119
 4993SOL     OW15436   3.639   2.204   7.228
 4993SOL    HW115437   3.622   2.235   7.134
 4993SOL    HW215438   3.555   2.167   7.266
 4994SOL     OW15439   3.592   2.796   7.103
 4994SOL    HW115440   3.630   2.887   7.118
 4994SOL    HW215441   3.584   2.779   7.004
 4995SOL     OW15442   2.721   3.236   5.602
 4995SOL    HW115443   2.675   3.251   5.690
 4995SOL    HW215444   2.765   3.321   5.572
 4996SOL     OW15445   2.523   3.652   6.539
 4996SOL    HW115446   2.477   3.740   6.526
 4996SOL    HW215447   2.622   3.664   6.532
 4997SOL     OW15448   2.721   2.818   6.447
 4997SOL    HW115449   2.775   2.749   6.495
 4997SOL    HW215450   2.689   2.887   6.513
 4998SOL     OW15451   2.945   2.846   5.673
 4998SOL    HW115452   2.922   2.899   5.591
 4998SOL    HW215453   3.026   2.790   5.654
 4999SOL     OW15454   3.723   3.431   6.437
 4999SOL    HW115455   3.652   3.419   6.367
 4999SOL    HW215456   3.724   3.352   6.497
 5000SOL     OW15457   2.083   3.176   7.430
 5000SOL    HW115458   2.018   3.103   7.409
 5000SOL    HW215459   2.087   3.190   7.528
 5001SOL     OW15460   1.941   3.102   6.239
 5001SOL    HW115461   1.940   3.055   6.327
 5001SOL    HW215462   2.023   3.074   6.188
 5002SOL     OW15463   2.534   3.253   7.210
 5002SOL    HW115464   2.456   3.203   7.248
 5002SOL    HW215465   2.531   3.348   7.241
 5003SOL     OW15466   3.686   2.054   6.813
 5003SOL    HW115467   3.682   1.964   6.857
 5003SOL    HW215468   3.689   2.043   6.714
 5004SOL     OW15469   3.567   3.349   6.690
 5004SOL    HW115470   3.474   3.324   6.663
 5004SOL    HW215471   3.593   3.299   6.772
 5005SOL     OW15472   2.674   3.448   6.273
 5005SOL    HW115473   2.706   3.458   6.179
 5005SOL    HW215474   2.595   3.386   6.275
 5006SOL     OW15475   3.286   2.076   6.698
 5006SOL    HW115476   3.338   2.011   6.753
 5006SOL    HW215477   3.237   2.139   6.759
 5007SOL     OW15478   2.863   1.896   6.740
 5007SOL    HW115479   2.800   1.824   6.709
 5007SOL    HW215480   2.956   1.860   6.740
 5008SOL     OW15481   2.632   3.192   5.887
 5008SOL    HW115482   2.586   3.105   5.904
 5008SOL    HW215483   2.723   3.189   5.928
 5009SOL     OW15484   2.480   3.429   6.870
 5009SOL    HW115485   2.475   3.511   6.927
 5009SOL    HW215486   2.569   3.426   6.825
 5010SOL     OW15487   3.214   1.914   5.754
 5010SOL    HW115488   3.249   1.873   5.670
 5010SOL    HW215489   3.124   1.876   5.774
 5011SOL     OW15490   3.162   2.315   6.277
 5011SOL    HW115491   3.103   2.395   6.281
 5011SOL    HW215492   3.177   2.280   6.370
 5012SOL     OW15493   3.455   2.083   6.468
 5012SOL    HW115494   3.371   2.082   6.522
 5012SOL    HW215495   3.457   2.166   6.412
 5013SOL     OW15496   1.901   2.939   5.886
 5013SOL    HW115497   2.000   2.928   5.877
 5013SOL    HW215498   1.861   2.853   5.918
 5014SOL     OW15499   2.737   3.508   5.923
 5014SOL    HW115500   2.660   3.473   5.869
 5014SOL    HW215501   2.705   3.579   5.985
 5015SOL     OW15502   2.092   2.490   7.561
 5015SOL    HW115503   1.999   2.488   7.598
 5015SOL    HW215504   2.093   2.451   7.469
 5016SOL     OW15505   1.881   2.230   8.095
 5016SOL    HW115506   1.799   2.273   8.134
 5016SOL    HW215507   1.853   2.157   8.032
 5017SOL     OW15508   2.431   3.137   8.613
 5017SOL    HW115509   2.338   3.130   8.576
 5017SOL    HW215510   2.442   3.226   8.657
 5018SOL     OW15511   3.417   3.373   8.151
 5018SOL    HW115512   3.360   3.357   8.232
 5018SOL    HW215513   3.358   3.383   8.071
 5019SOL     OW15514   2.997   2.565   8.165
 5019SOL    HW115515   3.054   2.643   8.140
 5019SOL    HW215516   2.937   2.591   8.241
 5020SOL     OW15517   3.617   2.469   7.679
 5020SOL    HW115518   3.605   2.456   7.580
 5020SOL    HW215519   3.587   2.388   7.728
 5021SOL     OW15520   2.630   3.006   8.471
 5021SOL    HW115521   2.552   3.023   8.531
 5021SOL    HW215522   2.664   3.093   8.435
 5022SOL     OW15523   2.712   2.660   9.271
 5022SOL    HW115524   2.708   2.736   9.336
 5022SOL    HW215525   2.734   2.696   9.180
 5023SOL     OW15526   2.547   2.874   8.113
 5023SOL    HW115527   2.616   2.858   8.183
 5023SOL    HW215528   2.474   2.931   8.151
 5024SOL     OW15529   2.548   3.023   9.251
 5024SOL    HW115530   2.608   3.102   9.265
 5024SOL    HW215531   2.462   3.054   9.210
 5025SOL     OW15532   2.197   3.297   8.509
 5025SOL    HW115533   2.119   3.266   8.456
 5025SOL    HW215534   2.255   3.355   8.452
 5026SOL     OW15535   3.322   3.367   8.787
 5026SOL    HW115536   3.346   3.461   8.813
 5026SOL    HW215537   3.306   3.313   8.869
 5027SOL     OW15538   3.465   2.309   8.185
 5027SOL    HW115539   3.391   2.355   8.135
 5027SOL    HW215540   3.516   2.377   8.238
 5028SOL     OW15541   2.093   3.575   7.931
 5028SOL    HW115542   2.127   3.652   7.985
 5028SOL    HW215543   2.137   3.575   7.841
 5029SOL     OW15544   2.989   3.203   9.138
 5029SOL    HW115545   3.036   3.203   9.226
 5029SOL    HW215546   2.941   3.116   9.127
 5030SOL     OW15547   2.092   3.296   7.986
 5030SOL    HW115548   2.066   3.392   7.986
 5030SOL    HW215549   2.021   3.242   8.031
 5031SOL     OW15550   2.102   2.953   8.334
 5031SOL    HW115551   2.116   2.869   8.386
 5031SOL    HW215552   2.047   3.017   8.389
 5032SOL     OW15553   2.482   3.648   8.887
 5032SOL    HW115554   2.390   3.631   8.922
 5032SOL    HW215555   2.510   3.740   8.913
 5033SOL     OW15556   2.468   2.826   7.571
 5033SOL    HW115557   2.475   2.910   7.517
 5033SOL    HW215558   2.514   2.839   7.659
 5034SOL     OW15559   3.456   1.976   8.928
 5034SOL    HW115560   3.438   2.043   8.856
 5034SOL    HW215561   3.453   2.022   9.017
 5035SOL     OW15562   1.984   2.505   8.011
 5035SOL    HW115563   1.939   2.417   8.028
 5035SOL    HW215564   1.983   2.559   8.095
 5036SOL     OW15565   3.704   3.629   7.807
 5036SOL    HW115566   3.758   3.600   7.887
 5036SOL    HW215567   3.734   3.719   7.778
 5037SOL     OW15568   1.889   3.458   7.565
 5037SOL    HW115569   1.870   3.362   7.586
 5037SOL    HW215570   1.856   3.516   7.640
 5038SOL     OW15571   3.551   2.784   8.060
 5038SOL    HW115572   3.646   2.755   8.068
 5038SOL    HW215573   3.543   2.849   7.985
 5039SOL     OW15574   3.503   2.970   7.880
 5039SOL    HW115575   3.589   2.972   7.828
 5039SOL    HW215576   3.517   3.017   7.968
 5040SOL     OW15577   1.975   2.599   9.045
 5040SOL    HW115578   2.063   2.586   9.090
 5040SOL    HW215579   1.962   2.696   9.023
 5041SOL     OW15580   2.475   3.227   8.174
 5041SOL    HW115581   2.426   3.140   8.183
 5041SOL    HW215582   2.452   3.270   8.087
 5042SOL     OW15583   3.155   3.090   8.871
 5042SOL    HW115584   3.192   3.017   8.813
 5042SOL    HW215585   3.207   3.095   8.956
 5043SOL     OW15586   2.671   1.866   7.950
 5043SOL    HW115587   2.711   1.957   7.941
 5043SOL    HW215588   2.571   1.874   7.956
 5044SOL     OW15589   2.059   2.838   8.712
 5044SOL    HW115590   2.148   2.793   8.698
 5044SOL    HW215591   1.986   2.773   8.693
 5045SOL     OW15592   3.387   2.861   7.638
 5045SOL    HW115593   3.324   2.785   7.651
 5045SOL    HW215594   3.435   2.879   7.724
 5046SOL     OW15595   3.049   3.654   9.064
 5046SOL    HW115596   3.073   3.714   8.988
 5046SOL    HW215597   3.056   3.559   9.034
 5047SOL     OW15598   3.328   3.279   8.401
 5047SOL    HW115599   3.269   3.285   8.481
 5047SOL    HW215600   3.313   3.191   8.355
 5048SOL     OW15601   3.529   3.576   8.020
 5048SOL    HW115602   3.488   3.553   7.932
 5048SOL    HW215603   3.511   3.502   8.085
 5049SOL     OW15604   2.460   2.591   7.718
 5049SOL    HW115605   2.484   2.660   7.650
 5049SOL    HW215606   2.382   2.624   7.772
 5050SOL     OW15607   3.143   2.207   8.392
 5050SOL    HW115608   3.057   2.157   8.379
 5050SOL    HW215609   3.205   2.153   8.448
 5051SOL     OW15610   3.438   3.524   7.755
 5051SOL    HW115611   3.527   3.570   7.758
 5051SOL    HW215612   3.417   3.500   7.660
 5052SOL     OW15613   2.669   2.467   8.913
 5052SOL    HW115614   2.622   2.464   9.002
 5052SOL    HW215615   2.618   2.412   8.847
 5053SOL     OW15616   3.256   2.331   9.122
 5053SOL    HW115617   3.236   2.374   9.210
 5053SOL    HW215618   3.334   2.269   9.131
 5054SOL     OW15619   2.835   2.752   9.020
 5054SOL    HW115620   2.881   2.668   8.991
 5054SOL    HW215621   2.779   2.786   8.945
 5055SOL     OW15622   2.853   2.272   8.690
 5055SOL    HW115623   2.776   2.306   8.744
 5055SOL    HW215624   2.819   2.221   8.611
 5056SOL     OW15625   2.903   2.563   7.877
 5056SOL    HW115626   2.929   2.559   7.973
 5056SOL    HW215627   2.818   2.512   7.863
 5057SOL     OW15628   1.938   2.673   8.237
 5057SOL    HW115629   2.037   2.661   8.246
 5057SOL    HW215630   1.914   2.768   8.258
 5058SOL     OW15631   1.992   3.683   9.019
 5058SOL    HW115632   1.982   3.668   9.118
 5058SOL    HW215633   1.906   3.719   8.983
 5059SOL     OW15634   2.727   2.210   7.643
 5059SOL    HW115635   2.786   2.273   7.594
 5059SOL    HW215636   2.746   2.116   7.614
 5060SOL     OW15637   3.581   2.447   9.279
 5060SOL    HW115638   3.555   2.536   9.243
 5060SOL    HW215639   3.579   2.379   9.206
 5061SOL     OW15640   3.224   3.006   7.993
 5061SOL    HW115641   3.307   2.977   7.945
 5061SOL    HW215642   3.175   3.073   7.937
 5062SOL     OW15643   2.870   3.318   7.925
 5062SOL    HW115644   2.824   3.390   7.873
 5062SOL    HW215645   2.866   3.338   8.023
 5063SOL     OW15646   2.213   3.663   8.301
 5063SOL    HW115647   2.263   3.577   8.307
 5063SOL    HW215648   2.278   3.740   8.298
 5064SOL     OW15649   3.657   2.928   8.321
 5064SOL    HW115650   3.595   2.913   8.245
 5064SOL    HW215651   3.605   2.939   8.406
 5065SOL     OW15652   3.089   3.412   8.954
 5065SOL    HW115653   3.095   3.335   9.018
 5065SOL    HW215654   3.037   3.386   8.874
 5066SOL     OW15655   2.183   2.805   7.690
 5066SOL    HW115656   2.265   2.844   7.648
 5066SOL    HW215657   2.156   2.723   7.641
 5067SOL     OW15658   3.320   2.597   8.176
 5067SOL    HW115659   3.315   2.532   8.251
 5067SOL    HW215660   3.400   2.656   8.189
 5068SOL     OW15661   2.323   3.128   9.175
 5068SOL    HW115662   2.273   3.129   9.089
 5068SOL    HW215663   2.260   3.110   9.251
 5069SOL     OW15664   2.973   3.638   7.685
 5069SOL    HW115665   2.913   3.576   7.735
 5069SOL    HW215666   3.004   3.594   7.600
 5070SOL     OW15667   2.064   2.147   8.946
 5070SOL    HW115668   1.984   2.207   8.933
 5070SOL    HW215669   2.054   2.098   9.032
 5071SOL     OW15670   3.494   3.239   7.529
 5071SOL    HW115671   3.462   3.333   7.519
 5071SOL    HW215672   3.418   3.176   7.517
 5072SOL     OW15673   2.326   3.605   7.771
 5072SOL    HW115674   2.359   3.644   7.857
 5072SOL    HW215675   2.402   3.598   7.706
 5073SOL     OW15676   3.262   1.969   7.874
 5073SOL    HW115677   3.238   1.932   7.784
 5073SOL    HW215678   3.361   1.985   7.878
 5074SOL     OW15679   2.111   3.647   8.689
 5074SOL    HW115680   2.168   3.582   8.739
 5074SOL    HW215681   2.095   3.614   8.596
 5075SOL     OW15682   2.802   3.560   8.352
 5075SOL    HW115683   2.882   3.503   8.373
 5075SOL    HW215684   2.753   3.520   8.275
 5076SOL     OW15685   3.409   2.084   9.177
 5076SOL    HW115686   3.404   2.121   9.269
 5076SOL    HW215687   3.337   2.015   9.165
 5077SOL     OW15688   2.476   1.984   7.565
 5077SOL    HW115689   2.574   1.962   7.572
 5077SOL    HW215690   2.445   1.967   7.472
 5078SOL     OW15691   2.643   2.126   9.197
 5078SOL    HW115692   2.710   2.065   9.240
 5078SOL    HW215693   2.570   2.145   9.262
 5079SOL     OW15694   2.750   3.376   8.643
 5079SOL    HW115695   2.727   3.351   8.549
 5079SOL    HW215696   2.811   3.307   8.682
 5080SOL     OW15697   3.213   2.452   8.881
 5080SOL    HW115698   3.241   2.409   8.966
 5080SOL    HW215699   3.238   2.548   8.882
 5081SOL     OW15700   2.665   3.264   8.372
 5081SOL    HW115701   2.755   3.278   8.330
 5081SOL    HW215702   2.594   3.266   8.301
 5082SOL     OW15703   2.784   2.365   8.347
 5082SOL    HW115704   2.759   2.356   8.251
 5082SOL    HW215705   2.832   2.283   8.378
 5083SOL     OW15706   2.401   1.926   7.960
 5083SOL    HW115707   2.320   1.927   8.018
 5083SOL    HW215708   2.404   2.009   7.905
 5084SOL     OW15709   3.296   3.050   7.489
 5084SOL    HW115710   3.328   2.974   7.546
 5084SOL    HW215711   3.204   3.077   7.519
 5085SOL     OW15712   2.159   1.897   7.619
 5085SOL    HW115713   2.208   1.981   7.598
 5085SOL    HW215714   2.221   1.832   7.664
 5086SOL     OW15715   2.797   2.098   7.928
 5086SOL    HW115716   2.749   2.139   7.850
 5086SOL    HW215717   2.896   2.096   7.909
 5087SOL     OW15718   2.938   2.545   8.912
 5087SOL    HW115719   2.858   2.484   8.915
 5087SOL    HW215720   3.019   2.492   8.888
 5088SOL     OW15721   3.089   3.432   8.241
 5088SOL    HW115722   3.110   3.506   8.176
 5088SOL    HW215723   3.157   3.432   8.314
 5089SOL     OW15724   2.321   3.014   8.189
 5089SOL    HW115725   2.250   2.987   8.254
 5089SOL    HW215726   2.295   2.986   8.096
 5090SOL     OW15727   3.133   3.659   8.039
 5090SOL    HW115728   3.177   3.723   7.975
 5090SOL    HW215729   3.083   3.711   8.109
 5091SOL     OW15730   2.894   2.411   7.464
 5091SOL    HW115731   2.853   2.493   7.425
 5091SOL    HW215732   2.958   2.437   7.537
 5092SOL     OW15733   1.940   2.418   8.834
 5092SOL    HW115734   2.032   2.417   8.793
 5092SOL    HW215735   1.934   2.492   8.901
 5093SOL     OW15736   2.728   2.316   8.090
 5093SOL    HW115737   2.696   2.388   8.028
 5093SOL    HW215738   2.752   2.235   8.037
 5094SOL     OW15739   2.879   1.901   8.201
 5094SOL    HW115740   2.807   1.906   8.132
 5094SOL    HW215741   2.855   1.832   8.270
 5095SOL     OW15742   3.291   3.035   8.315
 5095SOL    HW115743   3.236   2.951   8.308
 5095SOL    HW215744   3.317   3.064   8.223
 5096SOL     OW15745   3.328   2.452   8.440
 5096SOL    HW115746   3.298   2.357   8.447
 5096SOL    HW215747   3.401   2.468   8.506
 5097SOL     OW15748   3.719   2.695   7.825
 5097SOL    HW115749   3.761   2.631   7.889
 5097SOL    HW215750   3.681   2.644   7.747
 5098SOL     OW15751   2.350   3.247   7.622
 5098SOL    HW115752   2.263   3.232   7.669
 5098SOL    HW215753   2.333   3.273   7.527
 5099SOL     OW15754   3.526   3.142   8.105
 5099SOL    HW115755   3.625   3.150   8.119
 5099SOL    HW215756   3.481   3.226   8.136
 5100SOL     OW15757   3.252   2.437   7.526
 5100SOL    HW115758   3.198   2.416   7.607
 5100SOL    HW215759   3.343   2.396   7.535
 5101SOL     OW15760   3.616   3.085   9.036
 5101SOL    HW115761   3.707   3.046   9.023
 5101SOL    HW215762   3.624   3.181   9.060
 5102SOL     OW15763   2.926   3.209   8.788
 5102SOL    HW115764   2.846   3.186   8.843
 5102SOL    HW215765   3.009   3.183   8.837
 5103SOL     OW15766   3.454   3.491   9.073
 5103SOL    HW115767   3.481   3.525   8.983
 5103SOL    HW215768   3.533   3.453   9.119
 5104SOL     OW15769   2.973   3.057   8.548
 5104SOL    HW115770   2.933   3.101   8.629
 5104SOL    HW215771   2.932   3.094   8.465
 5105SOL     OW15772   3.500   2.961   8.527
 5105SOL    HW115773   3.505   3.042   8.586
 5105SOL    HW215774   3.414   2.963   8.476
 5106SOL     OW15775   2.777   1.951   8.850
 5106SOL    HW115776   2.802   1.931   8.755
 5106SOL    HW215777   2.849   2.007   8.892
 5107SOL     OW15778   2.842   2.978   9.167
 5107SOL    HW115779   2.743   2.984   9.177
 5107SOL    HW215780   2.865   2.898   9.111
 5108SOL     OW15781   2.567   2.912   7.816
 5108SOL    HW115782   2.553   2.919   7.915
 5108SOL    HW215783   2.651   2.861   7.798
 5109SOL     OW15784   2.272   2.675   8.699
 5109SOL    HW115785   2.358   2.687   8.749
 5109SOL    HW215786   2.230   2.588   8.726
 5110SOL     OW15787   3.136   2.248   8.710
 5110SOL    HW115788   3.157   2.322   8.774
 5110SOL    HW215789   3.047   2.265   8.667
 5111SOL     OW15790   1.926   3.426   8.779
 5111SOL    HW115791   1.880   3.508   8.745
 5111SOL    HW215792   2.024   3.445   8.788
 5112SOL     OW15793   2.229   2.962   7.949
 5112SOL    HW115794   2.222   3.045   7.893
 5112SOL    HW215795   2.233   2.882   7.889
 5113SOL     OW15796   3.114   3.210   7.836
 5113SOL    HW115797   3.164   3.287   7.876
 5113SOL    HW215798   3.019   3.212   7.868
 5114SOL     OW15799   3.134   3.307   8.590
 5114SOL    HW115800   3.181   3.320   8.677
 5114SOL    HW215801   3.068   3.233   8.599
 5115SOL     OW15802   3.444   2.501   7.920
 5115SOL    HW115803   3.413   2.562   7.993
 5115SOL    HW215804   3.494   2.553   7.851
 5116SOL     OW15805   2.216   3.372   8.777
 5116SOL    HW115806   2.195   3.328   8.690
 5116SOL    HW215807   2.313   3.398   8.780
 5117SOL     OW15808   2.264   2.613   9.046
 5117SOL    HW115809   2.332   2.668   8.999
 5117SOL    HW215810   2.304   2.525   9.073
 5118SOL     OW15811   3.449   2.641   9.118
 5118SOL    HW115812   3.357   2.679   9.113
 5118SOL    HW215813   3.509   2.688   9.053
 5119SOL     OW15814   2.875   1.967   9.218
 5119SOL    HW115815   2.881   2.052   9.166
 5119SOL    HW215816   2.907   1.891   9.161
 5120SOL     OW15817   2.366   1.912   9.188
 5120SOL    HW115818   2.324   1.855   9.118
 5120SOL    HW215819   2.300   1.981   9.220
 5121SOL     OW15820   2.435   2.732   8.477
 5121SOL    HW115821   2.479   2.821   8.468
 5121SOL    HW215822   2.372   2.732   8.554
 5122SOL     OW15823   3.222   2.724   8.493
 5122SOL    HW115824   3.147   2.724   8.427
 5122SOL    HW215825   3.259   2.632   8.502
 5123SOL     OW15826   3.071   2.387   7.723
 5123SOL    HW115827   3.084   2.303   7.777
 5123SOL    HW215828   3.042   2.461   7.783
 5124SOL     OW15829   1.899   3.172   8.730
 5124SOL    HW115830   1.952   3.123   8.798
 5124SOL    HW215831   1.921   3.270   8.735
 5125SOL     OW15832   2.594   2.496   8.512
 5125SOL    HW115833   2.653   2.470   8.436
 5125SOL    HW215834   2.566   2.592   8.501
 5126SOL     OW15835   3.590   2.797   9.302
 5126SOL    HW115836   3.544   2.790   9.213
 5126SOL    HW215837   3.528   2.841   9.368
 5127SOL     OW15838   2.169   1.925   8.066
 5127SOL    HW115839   2.158   2.019   8.099
 5127SOL    HW215840   2.164   1.862   8.143
 5128SOL     OW15841   3.484   2.229   7.822
 5128SOL    HW115842   3.486   2.153   7.886
 5128SOL    HW215843   3.436   2.306   7.862
 5129SOL     OW15844   2.885   2.628   8.414
 5129SOL    HW115845   2.900   2.649   8.510
 5129SOL    HW215846   2.855   2.533   8.405
 5130SOL     OW15847   2.842   3.435   9.148
 5130SOL    HW115848   2.822   3.479   9.060
 5130SOL    HW215849   2.881   3.344   9.132
 5131SOL     OW15850   3.721   3.380   9.053
 5131SOL    HW115851   3.735   3.407   8.958
 5131SOL    HW215852   3.804   3.402   9.106
 5132SOL     OW15853   2.212   2.760   9.252
 5132SOL    HW115854   2.288   2.804   9.300
 5132SOL    HW215855   2.247   2.713   9.170
 5133SOL     OW15856   3.402   2.136   7.573
 5133SOL    HW115857   3.341   2.061   7.596
 5133SOL    HW215858   3.424   2.188   7.656
 5134SOL     OW15859   3.165   2.700   7.490
 5134SOL    HW115860   3.199   2.607   7.505
 5134SOL    HW215861   3.183   2.727   7.395
 5135SOL     OW15862   2.930   3.195   8.297
 5135SOL    HW115863   2.937   3.111   8.242
 5135SOL    HW215864   2.992   3.264   8.261
 5136SOL     OW15865   2.181   2.672   8.397
 5136SOL    HW115866   2.274   2.708   8.402
 5136SOL    HW215867   2.175   2.587   8.449
 5137SOL     OW15868   3.000   2.242   9.126
 5137SOL    HW115869   2.955   2.305   9.190
 5137SOL    HW215870   3.093   2.273   9.109
 5138SOL     OW15871   3.022   2.069   8.925
 5138SOL    HW115872   3.022   2.133   9.002
 5138SOL    HW215873   3.050   2.117   8.842
 5139SOL     OW15874   1.870   3.188   7.648
 5139SOL    HW115875   1.777   3.209   7.617
 5139SOL    HW215876   1.880   3.089   7.661
 5140SOL     OW15877   1.950   3.663   8.375
 5140SOL    HW115878   1.908   3.577   8.348
 5140SOL    HW215879   2.044   3.666   8.341
 5141SOL     OW15880   2.366   3.430   8.358
 5141SOL    HW115881   2.432   3.504   8.367
 5141SOL    HW215882   2.410   3.351   8.316
 5142SOL     OW15883   2.864   2.658   8.686
 5142SOL    HW115884   2.905   2.626   8.772
 5142SOL    HW215885   2.768   2.631   8.683
 5143SOL     OW15886   1.902   2.406   8.562
 5143SOL    HW115887   1.987   2.373   8.521
 5143SOL    HW215888   1.915   2.421   8.660
 5144SOL     OW15889   3.231   2.812   9.108
 5144SOL    HW115890   3.270   2.901   9.128
 5144SOL    HW215891   3.241   2.792   9.011
 5145SOL     OW15892   2.677   2.434   7.773
 5145SOL    HW115893   2.684   2.345   7.727
 5145SOL    HW215894   2.583   2.468   7.765
 5146SOL     OW15895   3.519   2.466   8.654
 5146SOL    HW115896   3.481   2.397   8.716
 5146SOL    HW215897   3.601   2.430   8.610
 5147SOL     OW15898   2.114   3.426   9.192
 5147SOL    HW115899   2.084   3.483   9.268
 5147SOL    HW215900   2.107   3.329   9.218
 5148SOL     OW15901   2.792   3.540   8.913
 5148SOL    HW115902   2.768   3.522   8.818
 5148SOL    HW215903   2.822   3.634   8.923
 5149SOL     OW15904   2.021   2.999   8.914
 5149SOL    HW115905   2.043   2.938   8.990
 5149SOL    HW215906   2.031   2.950   8.828
 5150SOL     OW15907   3.209   2.921   8.682
 5150SOL    HW115908   3.233   2.858   8.608
 5150SOL    HW215909   3.119   2.961   8.664
 5151SOL     OW15910   3.164   2.717   7.757
 5151SOL    HW115911   3.078   2.686   7.799
 5151SOL    HW215912   3.160   2.703   7.658
 5152SOL     OW15913   3.621   3.609   8.602
 5152SOL    HW115914   3.682   3.639   8.529
 5152SOL    HW215915   3.583   3.520   8.580
 5153SOL     OW15916   3.114   3.593   8.576
 5153SOL    HW115917   3.198   3.598   8.522
 5153SOL    HW215918   3.091   3.497   8.594
 5154SOL     OW15919   1.945   3.120   8.470
 5154SOL    HW115920   1.940   3.119   8.570
 5154SOL    HW215921   1.862   3.079   8.432
 5155SOL     OW15922   2.550   3.524   9.164
 5155SOL    HW115923   2.494   3.605   9.173
 5155SOL    HW215924   2.602   3.528   9.078
 5156SOL     OW15925   3.588   1.997   7.971
 5156SOL    HW115926   3.661   1.980   7.904
 5156SOL    HW215927   3.557   1.910   8.009
 5157SOL     OW15928   3.250   3.435   7.925
 5157SOL    HW115929   3.317   3.447   7.851
 5157SOL    HW215930   3.210   3.524   7.948
 5158SOL     OW15931   1.992   3.656   9.299
 5158SOL    HW115932   1.951   3.582   9.352
 5158SOL    HW215933   2.056   3.707   9.357
 5159SOL     OW15934   3.142   2.789   8.120
 5159SOL    HW115935   3.202   2.708   8.122
 5159SOL    HW215936   3.182   2.858   8.060
 5160SOL     OW15937   2.692   3.135   8.870
 5160SOL    HW115938   2.687   3.168   8.965
 5160SOL    HW215939   2.606   3.154   8.824
 5161SOL     OW15940   2.534   3.478   7.602
 5161SOL    HW115941   2.543   3.488   7.503
 5161SOL    HW215942   2.494   3.389   7.623
 5162SOL     OW15943   3.512   3.582   8.842
 5162SOL    HW115944   3.565   3.592   8.758
 5162SOL    HW215945   3.485   3.672   8.876
 5163SOL     OW15946   3.703   2.037   8.411
 5163SOL    HW115947   3.742   1.952   8.375
 5163SOL    HW215948   3.605   2.039   8.392
 5164SOL     OW15949   3.056   3.474   7.479
 5164SOL    HW115950   3.062   3.381   7.516
 5164SOL    HW215951   2.997   3.474   7.399
 5165SOL     OW15952   2.684   2.864   8.820
 5165SOL    HW115953   2.724   2.863   8.728
 5165SOL    HW215954   2.694   2.956   8.860
 5166SOL     OW15955   2.778   2.772   7.739
 5166SOL    HW115956   2.841   2.810   7.671
 5166SOL    HW215957   2.818   2.689   7.778
 5167SOL     OW15958   3.366   3.469   7.492
 5167SOL    HW115959   3.274   3.506   7.499
 5167SOL    HW215960   3.404   3.489   7.402
 5168SOL     OW15961   2.234   3.150   8.938
 5168SOL    HW115962   2.221   3.243   8.904
 5168SOL    HW215963   2.150   3.098   8.925
 5169SOL     OW15964   3.476   3.154   8.737
 5169SOL    HW115965   3.536   3.157   8.817
 5169SOL    HW215966   3.401   3.218   8.750
 5170SOL     OW15967   2.901   2.960   8.144
 5170SOL    HW115968   2.831   2.913   8.198
 5170SOL    HW215969   2.960   2.892   8.101
 5171SOL     OW15970   2.876   2.098   8.419
 5171SOL    HW115971   2.868   2.062   8.326
 5171SOL    HW215972   2.874   2.022   8.484
 5172SOL     OW15973   2.452   3.349   7.939
 5172SOL    HW115974   2.494   3.291   7.869
 5172SOL    HW215975   2.408   3.428   7.895
 5173SOL     OW15976   3.571   2.247   8.829
 5173SOL    HW115977   3.644   2.316   8.833
 5173SOL    HW215978   3.599   2.172   8.770
 5174SOL     OW15979   2.117   3.210   7.738
 5174SOL    HW115980   2.021   3.211   7.711
 5174SOL    HW215981   2.129   3.263   7.822
 5175SOL     OW15982   1.967   2.875   9.174
 5175SOL    HW115983   1.890   2.842   9.228
 5175SOL    HW215984   2.052   2.845   9.216
 5176SOL     OW15985   2.534   2.065   8.937
 5176SOL    HW115986   2.624   2.049   8.897
 5176SOL    HW215987   2.542   2.070   9.036
 5177SOL     OW15988   1.937   2.207   7.481
 5177SOL    HW115989   1.845   2.179   7.452
 5177SOL    HW215990   1.968   2.284   7.425
 5178SOL     OW15991   3.302   2.718   8.846
 5178SOL    HW115992   3.245   2.770   8.783
 5178SOL    HW215993   3.398   2.730   8.822
 5179SOL     OW15994   1.934   2.028   7.766
 5179SOL    HW115995   1.917   2.111   7.712
 5179SOL    HW215996   2.024   1.991   7.744
 5180SOL     OW15997   3.045   3.197   7.567
 5180SOL    HW115998   2.946   3.186   7.569
 5180SOL    HW215999   3.079   3.212   7.660
 5181SOL     OW16000   2.475   2.704   8.879
 5181SOL    HW116001   2.531   2.785   8.862
 5181SOL    HW216002   2.534   2.624   8.882
 5182SOL     OW16003   3.355   3.629   8.407
 5182SOL    HW116004   3.388   3.693   8.338
 5182SOL    HW216005   3.421   3.623   8.482
 5183SOL     OW16006   2.578   2.427   9.156
 5183SOL    HW116007   2.597   2.492   9.230
 5183SOL    HW216008   2.638   2.347   9.165
 5184SOL     OW16009   3.312   3.082   9.081
 5184SOL    HW116010   3.303   3.072   9.180
 5184SOL    HW216011   3.408   3.075   9.055
 5185SOL     OW16012   2.252   3.603   9.008
 5185SOL    HW116013   2.161   3.644   9.006
 5185SOL    HW216014   2.245   3.509   9.040
 5186SOL     OW16015   3.536   2.745   8.702
 5186SOL    HW116016   3.509   2.656   8.665
 5186SOL    HW216017   3.537   2.813   8.629
 5187SOL     OW16018   3.087   2.187   7.897
 5187SOL    HW116019   3.152   2.113   7.886
 5187SOL    HW216020   3.107   2.237   7.981
 5188SOL     OW16021   2.456   2.607   8.100
 5188SOL    HW116022   2.506   2.692   8.081
 5188SOL    HW216023   2.368   2.609   8.052
 5189SOL     OW16024   3.639   2.204   9.090
 5189SOL    HW116025   3.622   2.235   8.996
 5189SOL    HW216026   3.555   2.167   9.128
 5190SOL     OW16027   3.592   2.796   8.965
 5190SOL    HW116028   3.630   2.887   8.980
 5190SOL    HW216029   3.584   2.779   8.866
 5191SOL     OW16030   2.721   3.236   7.464
 5191SOL    HW116031   2.675   3.251   7.552
 5191SOL    HW216032   2.765   3.321   7.434
 5192SOL     OW16033   2.523   3.652   8.401
 5192SOL    HW116034   2.477   3.740   8.388
 5192SOL    HW216035   2.622   3.664   8.394
 5193SOL     OW16036   2.721   2.818   8.309
 5193SOL    HW116037   2.775   2.749   8.357
 5193SOL    HW216038   2.689   2.887   8.375
 5194SOL     OW16039   2.945   2.846   7.535
 5194SOL    HW116040   2.922   2.899   7.453
 5194SOL    HW216041   3.026   2.790   7.516
 5195SOL     OW16042   3.723   3.431   8.299
 5195SOL    HW116043   3.652   3.419   8.229
 5195SOL    HW216044   3.724   3.352   8.359
 5196SOL     OW16045   2.083   3.176   9.292
 5196SOL    HW116046   2.018   3.103   9.271
 5196SOL    HW216047   2.087   3.190   9.390
 5197SOL     OW16048   1.941   3.102   8.101
 5197SOL    HW116049   1.940   3.055   8.189
 5197SOL    HW216050   2.023   3.074   8.050
 5198SOL     OW16051   2.534   3.253   9.072
 5198SOL    HW116052   2.456   3.203   9.110
 5198SOL    HW216053   2.531   3.348   9.103
 5199SOL     OW16054   3.686   2.054   8.675
 5199SOL    HW116055   3.682   1.964   8.719
 5199SOL    HW216056   3.689   2.043   8.576
 5200SOL     OW16057   3.567   3.349   8.552
 5200SOL    HW116058   3.474   3.324   8.525
 5200SOL    HW216059   3.593   3.299   8.634
 5201SOL     OW16060   2.674   3.448   8.135
 5201SOL    HW116061   2.706   3.458   8.041
 5201SOL    HW216062   2.595   3.386   8.137
 5202SOL     OW16063   3.286   2.076   8.560
 5202SOL    HW116064   3.338   2.011   8.615
 5202SOL    HW216065   3.237   2.139   8.621
 5203SOL     OW16066   2.863   1.896   8.602
 5203SOL    HW116067   2.800   1.824   8.571
 5203SOL    HW216068   2.956   1.860   8.602
 5204SOL     OW16069   2.632   3.192   7.749
 5204SOL    HW116070   2.586   3.105   7.766
 5204SOL    HW216071   2.723   3.189   7.790
 5205SOL     OW16072   2.480   3.429   8.732
 5205SOL    HW116073   2.475   3.511   8.789
 5205SOL    HW216074   2.569   3.426   8.687
 5206SOL     OW16075   3.214   1.914   7.616
 5206SOL    HW116076   3.249   1.873   7.532
 5206SOL    HW216077   3.124   1.876   7.636
 5207SOL     OW16078   3.162   2.315   8.139
 5207SOL    HW116079   3.103   2.395   8.143
 5207SOL    HW216080   3.177   2.280   8.232
 5208SOL     OW16081   3.455   2.083   8.330
 5208SOL    HW116082   3.371   2.082   8.384
 5208SOL    HW216083   3.457   2.166   8.274
 5209SOL     OW16084   1.901   2.939   7.748
 5209SOL    HW116085   2.000   2.928   7.739
 5209SOL    HW216086   1.861   2.853   7.780
 5210SOL     OW16087   2.737   3.508   7.785
 5210SOL    HW116088   2.660   3.473   7.731
 5210SOL    HW216089   2.705   3.579   7.847
 5211SOL     OW16090   2.092   2.490   9.423
 5211SOL    HW116091   1.999   2.488   9.460
 5211SOL    HW216092   2.093   2.451   9.331
 5212SOL     OW16093   1.881   2.230   9.957
 5212SOL    HW116094   1.799   2.273   9.996
 5212SOL    HW216095   1.853   2.157   9.894
 5213SOL     OW16096   2.431   3.137  10.475
 5213SOL    HW116097   2.338   3.130  10.438
 5213SOL    HW216098   2.442   3.226  10.519
 5214SOL     OW16099   3.417   3.373  10.013
 5214SOL    HW116100   3.360   3.357  10.094
 5214SOL    HW216101   3.358   3.383   9.933
 5215SOL     OW16102   2.997   2.565  10.027
 5215SOL    HW116103   3.054   2.643  10.002
 5215SOL    HW216104   2.937   2.591  10.103
 5216SOL     OW16105   3.617   2.469   9.541
 5216SOL    HW116106   3.605   2.456   9.442
 5216SOL    HW216107   3.587   2.388   9.590
 5217SOL     OW16108   2.630   3.006  10.333
 5217SOL    HW116109   2.552   3.023  10.393
 5217SOL    HW216110   2.664   3.093  10.297
 5218SOL     OW16111   2.712   2.660  11.133
 5218SOL    HW116112   2.708   2.736  11.198
 5218SOL    HW216113   2.734   2.696  11.042
 5219SOL     OW16114   2.547   2.874   9.975
 5219SOL    HW116115   2.616   2.858  10.045
 5219SOL    HW216116   2.474   2.931  10.013
 5220SOL     OW16117   2.197   3.297  10.371
 5220SOL    HW116118   2.119   3.266  10.318
 5220SOL    HW216119   2.255   3.355  10.314
 5221SOL     OW16120   3.322   3.367  10.649
 5221SOL    HW116121   3.346   3.461  10.675
 5221SOL    HW216122   3.306   3.313  10.731
 5222SOL     OW16123   3.465   2.309  10.047
 5222SOL    HW116124   3.391   2.355   9.997
 5222SOL    HW216125   3.516   2.377  10.100
 5223SOL     OW16126   2.093   3.575   9.793
 5223SOL    HW116127   2.127   3.652   9.847
 5223SOL    HW216128   2.137   3.575   9.703
 5224SOL     OW16129   2.092   3.296   9.848
 5224SOL    HW116130   2.066   3.392   9.848
 5224SOL    HW216131   2.021   3.242   9.893
 5225SOL     OW16132   2.102   2.953  10.196
 5225SOL    HW116133   2.116   2.869  10.248
 5225SOL    HW216134   2.047   3.017  10.251
 5226SOL     OW16135   2.482   3.648  10.749
 5226SOL    HW116136   2.390   3.631  10.784
 5226SOL    HW216137   2.510   3.740  10.775
 5227SOL     OW16138   2.468   2.826   9.433
 5227SOL    HW116139   2.475   2.910   9.379
 5227SOL    HW216140   2.514   2.839   9.521
 5228SOL     OW16141   3.456   1.976  10.790
 5228SOL    HW116142   3.438   2.043  10.718
 5228SOL    HW216143   3.453   2.022  10.879
 5229SOL     OW16144   1.984   2.505   9.873
 5229SOL    HW116145   1.939   2.417   9.890
 5229SOL    HW216146   1.983   2.559   9.957
 5230SOL     OW16147   3.704   3.629   9.669
 5230SOL    HW116148   3.758   3.600   9.749
 5230SOL    HW216149   3.734   3.719   9.640
 5231SOL     OW16150   1.889   3.458   9.427
 5231SOL    HW116151   1.870   3.362   9.448
 5231SOL    HW216152   1.856   3.516   9.502
 5232SOL     OW16153   3.551   2.784   9.922
 5232SOL    HW116154   3.646   2.755   9.930
 5232SOL    HW216155   3.543   2.849   9.847
 5233SOL     OW16156   3.503   2.970   9.742
 5233SOL    HW116157   3.589   2.972   9.690
 5233SOL    HW216158   3.517   3.017   9.830
 5234SOL     OW16159   1.975   2.599  10.907
 5234SOL    HW116160   2.063   2.586  10.952
 5234SOL    HW216161   1.962   2.696  10.885
 5235SOL     OW16162   2.475   3.227  10.036
 5235SOL    HW116163   2.426   3.140  10.045
 5235SOL    HW216164   2.452   3.270   9.949
 5236SOL     OW16165   3.155   3.090  10.733
 5236SOL    HW116166   3.192   3.017  10.675
 5236SOL    HW216167   3.207   3.095  10.818
 5237SOL     OW16168   2.671   1.866   9.812
 5237SOL    HW116169   2.711   1.957   9.803
 5237SOL    HW216170   2.571   1.874   9.818
 5238SOL     OW16171   2.059   2.838  10.574
 5238SOL    HW116172   2.148   2.793  10.560
 5238SOL    HW216173   1.986   2.773  10.555
 5239SOL     OW16174   3.387   2.861   9.500
 5239SOL    HW116175   3.324   2.785   9.513
 5239SOL    HW216176   3.435   2.879   9.586
 5240SOL     OW16177   3.049   3.654  10.926
 5240SOL    HW116178   3.073   3.714  10.850
 5240SOL    HW216179   3.056   3.559  10.896
 5241SOL     OW16180   3.328   3.279  10.263
 5241SOL    HW116181   3.269   3.285  10.343
 5241SOL    HW216182   3.313   3.191  10.217
 5242SOL     OW16183   3.529   3.576   9.882
 5242SOL    HW116184   3.488   3.553   9.794
 5242SOL    HW216185   3.511   3.502   9.947
 5243SOL     OW16186   2.460   2.591   9.580
 5243SOL    HW116187   2.484   2.660   9.512
 5243SOL    HW216188   2.382   2.624   9.634
 5244SOL     OW16189   3.143   2.207  10.254
 5244SOL    HW116190   3.057   2.157  10.241
 5244SOL    HW216191   3.205   2.153  10.310
 5245SOL     OW16192   3.438   3.524   9.617
 5245SOL    HW116193   3.527   3.570   9.620
 5245SOL    HW216194   3.417   3.500   9.522
 5246SOL     OW16195   2.669   2.467  10.775
 5246SOL    HW116196   2.622   2.464  10.864
 5246SOL    HW216197   2.618   2.412  10.709
 5247SOL     OW16198   2.835   2.752  10.882
 5247SOL    HW116199   2.881   2.668  10.853
 5247SOL    HW216200   2.779   2.786  10.807
 5248SOL     OW16201   2.853   2.272  10.552
 5248SOL    HW116202   2.776   2.306  10.606
 5248SOL    HW216203   2.819   2.221  10.473
 5249SOL     OW16204   2.903   2.563   9.739
 5249SOL    HW116205   2.929   2.559   9.835
 5249SOL    HW216206   2.818   2.512   9.725
 5250SOL     OW16207   1.938   2.673  10.099
 5250SOL    HW116208   2.037   2.661  10.108
 5250SOL    HW216209   1.914   2.768  10.120
 5251SOL     OW16210   1.992   3.683  10.881
 5251SOL    HW116211   1.982   3.668  10.980
 5251SOL    HW216212   1.906   3.719  10.845
 5252SOL     OW16213   2.727   2.210   9.505
 5252SOL    HW116214   2.786   2.273   9.456
 5252SOL    HW216215   2.746   2.116   9.476
 5253SOL     OW16216   3.224   3.006   9.855
 5253SOL    HW116217   3.307   2.977   9.807
 5253SOL    HW216218   3.175   3.073   9.799
 5254SOL     OW16219   2.870   3.318   9.787
 5254SOL    HW116220   2.824   3.390   9.735
 5254SOL    HW216221   2.866   3.338   9.885
 5255SOL     OW16222   2.213   3.663  10.163
 5255SOL    HW116223   2.263   3.577  10.169
 5255SOL    HW216224   2.278   3.740  10.160
 5256SOL     OW16225   3.657   2.928  10.183
 5256SOL    HW116226   3.595   2.913  10.107
 5256SOL    HW216227   3.605   2.939  10.268
 5257SOL     OW16228   3.089   3.412  10.816
 5257SOL    HW116229   3.095   3.335  10.880
 5257SOL    HW216230   3.037   3.386  10.736
 5258SOL     OW16231   2.183   2.805   9.552
 5258SOL    HW116232   2.265   2.844   9.510
 5258SOL    HW216233   2.156   2.723   9.503
 5259SOL     OW16234   3.320   2.597  10.038
 5259SOL    HW116235   3.315   2.532  10.113
 5259SOL    HW216236   3.400   2.656  10.051
 5260SOL     OW16237   2.323   3.128  11.037
 5260SOL    HW116238   2.273   3.129  10.951
 5260SOL    HW216239   2.260   3.110  11.113
 5261SOL     OW16240   2.973   3.638   9.547
 5261SOL    HW116241   2.913   3.576   9.597
 5261SOL    HW216242   3.004   3.594   9.462
 5262SOL     OW16243   3.494   3.239   9.391
 5262SOL    HW116244   3.462   3.333   9.381
 5262SOL    HW216245   3.418   3.176   9.379
 5263SOL     OW16246   2.326   3.605   9.633
 5263SOL    HW116247   2.359   3.644   9.719
 5263SOL    HW216248   2.402   3.598   9.568
 5264SOL     OW16249   3.262   1.969   9.736
 5264SOL    HW116250   3.238   1.932   9.646
 5264SOL    HW216251   3.361   1.985   9.740
 5265SOL     OW16252   2.111   3.647  10.551
 5265SOL    HW116253   2.168   3.582  10.601
 5265SOL    HW216254   2.095   3.614  10.458
 5266SOL     OW16255   2.802   3.560  10.214
 5266SOL    HW116256   2.882   3.503  10.235
 5266SOL    HW216257   2.753   3.520  10.137
 5267SOL     OW16258   2.476   1.984   9.427
 5267SOL    HW116259   2.574   1.962   9.434
 5267SOL    HW216260   2.445   1.967   9.334
 5268SOL     OW16261   2.643   2.126  11.059
 5268SOL    HW116262   2.710   2.065  11.102
 5268SOL    HW216263   2.570   2.145  11.124
 5269SOL     OW16264   2.750   3.376  10.505
 5269SOL    HW116265   2.727   3.351  10.411
 5269SOL    HW216266   2.811   3.307  10.544
 5270SOL     OW16267   3.213   2.452  10.743
 5270SOL    HW116268   3.241   2.409  10.828
 5270SOL    HW216269   3.238   2.548  10.744
 5271SOL     OW16270   2.665   3.264  10.234
 5271SOL    HW116271   2.755   3.278  10.192
 5271SOL    HW216272   2.594   3.266  10.163
 5272SOL     OW16273   2.784   2.365  10.209
 5272SOL    HW116274   2.759   2.356  10.113
 5272SOL    HW216275   2.832   2.283  10.240
 5273SOL     OW16276   2.401   1.926   9.822
 5273SOL    HW116277   2.320   1.927   9.880
 5273SOL    HW216278   2.404   2.009   9.767
 5274SOL     OW16279   3.296   3.050   9.351
 5274SOL    HW116280   3.328   2.974   9.408
 5274SOL    HW216281   3.204   3.077   9.381
 5275SOL     OW16282   2.159   1.897   9.481
 5275SOL    HW116283   2.208   1.981   9.460
 5275SOL    HW216284   2.221   1.832   9.526
 5276SOL     OW16285   2.797   2.098   9.790
 5276SOL    HW116286   2.749   2.139   9.712
 5276SOL    HW216287   2.896   2.096   9.771
 5277SOL     OW16288   2.938   2.545  10.774
 5277SOL    HW116289   2.858   2.484  10.777
 5277SOL    HW216290   3.019   2.492  10.750
 5278SOL     OW16291   3.089   3.432  10.103
 5278SOL    HW116292   3.110   3.506  10.038
 5278SOL    HW216293   3.157   3.432  10.176
 5279SOL     OW16294   2.321   3.014  10.051
 5279SOL    HW116295   2.250   2.987  10.116
 5279SOL    HW216296   2.295   2.986   9.958
 5280SOL     OW16297   3.133   3.659   9.901
 5280SOL    HW116298   3.177   3.723   9.837
 5280SOL    HW216299   3.083   3.711   9.971
 5281SOL     OW16300   2.894   2.411   9.326
 5281SOL    HW116301   2.853   2.493   9.287
 5281SOL    HW216302   2.958   2.437   9.399
 5282SOL     OW16303   1.940   2.418  10.696
 5282SOL    HW116304   2.032   2.417  10.655
 5282SOL    HW216305   1.934   2.492  10.763
 5283SOL     OW16306   2.423   2.084  10.457
 5283SOL    HW116307   2.461   2.000  10.494
 5283SOL    HW216308   2.335   2.103  10.501
 5284SOL     OW16309   2.728   2.316   9.952
 5284SOL    HW116310   2.696   2.388   9.890
 5284SOL    HW216311   2.752   2.235   9.899
 5285SOL     OW16312   2.879   1.901  10.063
 5285SOL    HW116313   2.807   1.906   9.994
 5285SOL    HW216314   2.855   1.832  10.132
 5286SOL     OW16315   3.291   3.035  10.177
 5286SOL    HW116316   3.236   2.951  10.170
 5286SOL    HW216317   3.317   3.064  10.085
 5287SOL     OW16318   3.328   2.452  10.302
 5287SOL    HW116319   3.298   2.357  10.309
 5287SOL    HW216320   3.401   2.468  10.368
 5288SOL     OW16321   3.719   2.695   9.687
 5288SOL    HW116322   3.761   2.631   9.751
 5288SOL    HW216323   3.681   2.644   9.609
 5289SOL     OW16324   2.350   3.247   9.484
 5289SOL    HW116325   2.263   3.232   9.531
 5289SOL    HW216326   2.333   3.273   9.389
 5290SOL     OW16327   3.526   3.142   9.967
 5290SOL    HW116328   3.625   3.150   9.981
 5290SOL    HW216329   3.481   3.226   9.998
 5291SOL     OW16330   3.252   2.437   9.388
 5291SOL    HW116331   3.198   2.416   9.469
 5291SOL    HW216332   3.343   2.396   9.397
 5292SOL     OW16333   3.616   3.085  10.898
 5292SOL    HW116334   3.707   3.046  10.885
 5292SOL    HW216335   3.624   3.181  10.922
 5293SOL     OW16336   2.926   3.209  10.650
 5293SOL    HW116337   2.846   3.186  10.705
 5293SOL    HW216338   3.009   3.183  10.699
 5294SOL     OW16339   2.973   3.057  10.410
 5294SOL    HW116340   2.933   3.101  10.491
 5294SOL    HW216341   2.932   3.094  10.327
 5295SOL     OW16342   3.500   2.961  10.389
 5295SOL    HW116343   3.505   3.042  10.448
 5295SOL    HW216344   3.414   2.963  10.338
 5296SOL     OW16345   2.777   1.951  10.712
 5296SOL    HW116346   2.802   1.931  10.617
 5296SOL    HW216347   2.849   2.007  10.754
 5297SOL     OW16348   2.567   2.912   9.678
 5297SOL    HW116349   2.553   2.919   9.777
 5297SOL    HW216350   2.651   2.861   9.660
 5298SOL     OW16351   2.272   2.675  10.561
 5298SOL    HW116352   2.358   2.687  10.611
 5298SOL    HW216353   2.230   2.588  10.588
 5299SOL     OW16354   3.136   2.248  10.572
 5299SOL    HW116355   3.157   2.322  10.636
 5299SOL    HW216356   3.047   2.265  10.529
 5300SOL     OW16357   1.926   3.426  10.641
 5300SOL    HW116358   1.880   3.508  10.607
 5300SOL    HW216359   2.024   3.445  10.650
 5301SOL     OW16360   2.229   2.962   9.811
 5301SOL    HW116361   2.222   3.045   9.755
 5301SOL    HW216362   2.233   2.882   9.751
 5302SOL     OW16363   2.428   2.399  10.175
 5302SOL    HW116364   2.440   2.465  10.101
 5302SOL    HW216365   2.474   2.433  10.258
 5303SOL     OW16366   3.114   3.210   9.698
 5303SOL    HW116367   3.164   3.287   9.738
 5303SOL    HW216368   3.019   3.212   9.730
 5304SOL     OW16369   3.134   3.307  10.452
 5304SOL    HW116370   3.181   3.320  10.539
 5304SOL    HW216371   3.068   3.233  10.461
 5305SOL     OW16372   3.444   2.501   9.782
 5305SOL    HW116373   3.413   2.562   9.855
 5305SOL    HW216374   3.494   2.553   9.713
 5306SOL     OW16375   2.216   3.372  10.639
 5306SOL    HW116376   2.195   3.328  10.552
 5306SOL    HW216377   2.313   3.398  10.642
 5307SOL     OW16378   2.264   2.613  10.908
 5307SOL    HW116379   2.332   2.668  10.861
 5307SOL    HW216380   2.304   2.525  10.935
 5308SOL     OW16381   3.449   2.641  10.980
 5308SOL    HW116382   3.357   2.679  10.975
 5308SOL    HW216383   3.509   2.688  10.915
 5309SOL     OW16384   2.435   2.732  10.339
 5309SOL    HW116385   2.479   2.821  10.330
 5309SOL    HW216386   2.372   2.732  10.416
 5310SOL     OW16387   3.222   2.724  10.355
 5310SOL    HW116388   3.147   2.724  10.289
 5310SOL    HW216389   3.259   2.632  10.364
 5311SOL     OW16390   3.071   2.387   9.585
 5311SOL    HW116391   3.084   2.303   9.639
 5311SOL    HW216392   3.042   2.461   9.645
 5312SOL     OW16393   1.899   3.172  10.592
 5312SOL    HW116394   1.952   3.123  10.660
 5312SOL    HW216395   1.921   3.270  10.597
 5313SOL     OW16396   2.594   2.496  10.374
 5313SOL    HW116397   2.653   2.470  10.298
 5313SOL    HW216398   2.566   2.592  10.363
 5314SOL     OW16399   2.169   1.925   9.928
 5314SOL    HW116400   2.158   2.019   9.961
 5314SOL    HW216401   2.164   1.862  10.005
 5315SOL     OW16402   3.484   2.229   9.684
 5315SOL    HW116403   3.486   2.153   9.748
 5315SOL    HW216404   3.436   2.306   9.724
 5316SOL     OW16405   2.885   2.628  10.276
 5316SOL    HW116406   2.900   2.649  10.372
 5316SOL    HW216407   2.855   2.533  10.267
 5317SOL     OW16408   2.842   3.435  11.010
 5317SOL    HW116409   2.822   3.479  10.922
 5317SOL    HW216410   2.881   3.344  10.994
 5318SOL     OW16411   3.721   3.380  10.915
 5318SOL    HW116412   3.735   3.407  10.820
 5318SOL    HW216413   3.804   3.402  10.968
 5319SOL     OW16414   2.212   2.760  11.114
 5319SOL    HW116415   2.288   2.804  11.162
 5319SOL    HW216416   2.247   2.713  11.032
 5320SOL     OW16417   3.402   2.136   9.435
 5320SOL    HW116418   3.341   2.061   9.458
 5320SOL    HW216419   3.424   2.188   9.518
 5321SOL     OW16420   3.165   2.700   9.352
 5321SOL    HW116421   3.199   2.607   9.367
 5321SOL    HW216422   3.183   2.727   9.257
 5322SOL     OW16423   2.930   3.195  10.159
 5322SOL    HW116424   2.937   3.111  10.104
 5322SOL    HW216425   2.992   3.264  10.123
 5323SOL     OW16426   2.181   2.672  10.259
 5323SOL    HW116427   2.274   2.708  10.264
 5323SOL    HW216428   2.175   2.587  10.311
 5324SOL     OW16429   3.022   2.069  10.787
 5324SOL    HW116430   3.022   2.133  10.864
 5324SOL    HW216431   3.050   2.117  10.704
 5325SOL     OW16432   1.870   3.188   9.510
 5325SOL    HW116433   1.777   3.209   9.479
 5325SOL    HW216434   1.880   3.089   9.523
 5326SOL     OW16435   1.950   3.663  10.237
 5326SOL    HW116436   1.908   3.577  10.210
 5326SOL    HW216437   2.044   3.666  10.203
 5327SOL     OW16438   2.366   3.430  10.220
 5327SOL    HW116439   2.432   3.504  10.229
 5327SOL    HW216440   2.410   3.351  10.178
 5328SOL     OW16441   2.864   2.658  10.548
 5328SOL    HW116442   2.905   2.626  10.634
 5328SOL    HW216443   2.768   2.631  10.545
 5329SOL     OW16444   1.902   2.406  10.424
 5329SOL    HW116445   1.987   2.373  10.383
 5329SOL    HW216446   1.915   2.421  10.522
 5330SOL     OW16447   2.677   2.434   9.635
 5330SOL    HW116448   2.684   2.345   9.589
 5330SOL    HW216449   2.583   2.468   9.627
 5331SOL     OW16450   3.519   2.466  10.516
 5331SOL    HW116451   3.481   2.397  10.578
 5331SOL    HW216452   3.601   2.430  10.472
 5332SOL     OW16453   2.114   3.426  11.054
 5332SOL    HW116454   2.084   3.483  11.130
 5332SOL    HW216455   2.107   3.329  11.080
 5333SOL     OW16456   2.792   3.540  10.775
 5333SOL    HW116457   2.768   3.522  10.680
 5333SOL    HW216458   2.822   3.634  10.785
 5334SOL     OW16459   2.021   2.999  10.776
 5334SOL    HW116460   2.043   2.938  10.852
 5334SOL    HW216461   2.031   2.950  10.690
 5335SOL     OW16462   3.209   2.921  10.544
 5335SOL    HW116463   3.233   2.858  10.470
 5335SOL    HW216464   3.119   2.961  10.526
 5336SOL     OW16465   3.164   2.717   9.619
 5336SOL    HW116466   3.078   2.686   9.661
 5336SOL    HW216467   3.160   2.703   9.520
 5337SOL     OW16468   3.621   3.609  10.464
 5337SOL    HW116469   3.682   3.639  10.391
 5337SOL    HW216470   3.583   3.520  10.442
 5338SOL     OW16471   3.114   3.593  10.438
 5338SOL    HW116472   3.198   3.598  10.384
 5338SOL    HW216473   3.091   3.497  10.456
 5339SOL     OW16474   1.945   3.120  10.332
 5339SOL    HW116475   1.940   3.119  10.432
 5339SOL    HW216476   1.862   3.079  10.294
 5340SOL     OW16477   3.588   1.997   9.833
 5340SOL    HW116478   3.661   1.980   9.766
 5340SOL    HW216479   3.557   1.910   9.871
 5341SOL     OW16480   3.250   3.435   9.787
 5341SOL    HW116481   3.317   3.447   9.713
 5341SOL    HW216482   3.210   3.524   9.810
 5342SOL     OW16483   3.142   2.789   9.982
 5342SOL    HW116484   3.202   2.708   9.984
 5342SOL    HW216485   3.182   2.858   9.922
 5343SOL     OW16486   2.692   3.135  10.732
 5343SOL    HW116487   2.687   3.168  10.827
 5343SOL    HW216488   2.606   3.154  10.686
 5344SOL     OW16489   2.534   3.478   9.464
 5344SOL    HW116490   2.543   3.488   9.365
 5344SOL    HW216491   2.494   3.389   9.485
 5345SOL     OW16492   3.512   3.582  10.704
 5345SOL    HW116493   3.565   3.592  10.620
 5345SOL    HW216494   3.485   3.672  10.738
 5346SOL     OW16495   3.703   2.037  10.273
 5346SOL    HW116496   3.742   1.952  10.237
 5346SOL    HW216497   3.605   2.039  10.254
 5347SOL     OW16498   3.056   3.474   9.341
 5347SOL    HW116499   3.062   3.381   9.378
 5347SOL    HW216500   2.997   3.474   9.261
 5348SOL     OW16501   2.684   2.864  10.682
 5348SOL    HW116502   2.724   2.863  10.590
 5348SOL    HW216503   2.694   2.956  10.722
 5349SOL     OW16504   2.778   2.772   9.601
 5349SOL    HW116505   2.841   2.810   9.533
 5349SOL    HW216506   2.818   2.689   9.640
 5350SOL     OW16507   3.366   3.469   9.354
 5350SOL    HW116508   3.274   3.506   9.361
 5350SOL    HW216509   3.404   3.489   9.264
 5351SOL     OW16510   2.234   3.150  10.800
 5351SOL    HW116511   2.221   3.243  10.766
 5351SOL    HW216512   2.150   3.098  10.787
 5352SOL     OW16513   3.476   3.154  10.599
 5352SOL    HW116514   3.536   3.157  10.679
 5352SOL    HW216515   3.401   3.218  10.612
 5353SOL     OW16516   2.901   2.960  10.006
 5353SOL    HW116517   2.831   2.913  10.060
 5353SOL    HW216518   2.960   2.892   9.963
 5354SOL     OW16519   2.876   2.098  10.281
 5354SOL    HW116520   2.868   2.062  10.188
 5354SOL    HW216521   2.874   2.022  10.346
 5355SOL     OW16522   2.452   3.349   9.801
 5355SOL    HW116523   2.494   3.291   9.731
 5355SOL    HW216524   2.408   3.428   9.757
 5356SOL     OW16525   3.571   2.247  10.691
 5356SOL    HW116526   3.644   2.316  10.695
 5356SOL    HW216527   3.599   2.172  10.632
 5357SOL     OW16528   2.117   3.210   9.600
 5357SOL    HW116529   2.021   3.211   9.573
 5357SOL    HW216530   2.129   3.263   9.684
 5358SOL     OW16531   1.967   2.875  11.036
 5358SOL    HW116532   1.890   2.842  11.090
 5358SOL    HW216533   2.052   2.845  11.078
 5359SOL     OW16534   2.534   2.065  10.799
 5359SOL    HW116535   2.624   2.049  10.759
 5359SOL    HW216536   2.542   2.070  10.898
 5360SOL     OW16537   1.937   2.207   9.343
 5360SOL    HW116538   1.845   2.179   9.314
 5360SOL    HW216539   1.968   2.284   9.287
 5361SOL     OW16540   3.302   2.718  10.708
 5361SOL    HW116541   3.245   2.770  10.645
 5361SOL    HW216542   3.398   2.730  10.684
 5362SOL     OW16543   1.934   2.028   9.628
 5362SOL    HW116544   1.917   2.111   9.574
 5362SOL    HW216545   2.024   1.991   9.606
 5363SOL     OW16546   3.045   3.197   9.429
 5363SOL    HW116547   2.946   3.186   9.431
 5363SOL    HW216548   3.079   3.212   9.522
 5364SOL     OW16549   2.475   2.704  10.741
 5364SOL    HW116550   2.531   2.785  10.724
 5364SOL    HW216551   2.534   2.624  10.744
 5365SOL     OW16552   3.355   3.629  10.269
 5365SOL    HW116553   3.388   3.693  10.200
 5365SOL    HW216554   3.421   3.623  10.344
 5366SOL     OW16555   2.578   2.427  11.018
 5366SOL    HW116556   2.597   2.492  11.092
 5366SOL    HW216557   2.638   2.347  11.027
 5367SOL     OW16558   2.252   3.603  10.870
 5367SOL    HW116559   2.161   3.644  10.868
 5367SOL    HW216560   2.245   3.509  10.902
 5368SOL     OW16561   3.536   2.745  10.564
 5368SOL    HW116562   3.509   2.656  10.527
 5368SOL    HW216563   3.537   2.813  10.491
 5369SOL     OW16564   3.087   2.187   9.759
 5369SOL    HW116565   3.152   2.113   9.748
 5369SOL    HW216566   3.107   2.237   9.843
 5370SOL     OW16567   2.456   2.607   9.962
 5370SOL    HW116568   2.506   2.692   9.943
 5370SOL    HW216569   2.368   2.609   9.914
 5371SOL     OW16570   3.639   2.204  10.952
 5371SOL    HW116571   3.622   2.235  10.858
 5371SOL    HW216572   3.555   2.167  10.990
 5372SOL     OW16573   3.592   2.796  10.827
 5372SOL    HW116574   3.630   2.887  10.842
 5372SOL    HW216575   3.584   2.779  10.728
 5373SOL     OW16576   2.721   3.236   9.326
 5373SOL    HW116577   2.675   3.251   9.414
 5373SOL    HW216578   2.765   3.321   9.296
 5374SOL     OW16579   2.523   3.652  10.263
 5374SOL    HW116580   2.477   3.740  10.250
 5374SOL    HW216581   2.622   3.664  10.256
 5375SOL     OW16582   2.721   2.818  10.171
 5375SOL    HW116583   2.775   2.749  10.219
 5375SOL    HW216584   2.689   2.887  10.237
 5376SOL     OW16585   2.945   2.846   9.397
 5376SOL    HW116586   2.922   2.899   9.315
 5376SOL    HW216587   3.026   2.790   9.378
 5377SOL     OW16588   3.723   3.431  10.161
 5377SOL    HW116589   3.652   3.419  10.091
 5377SOL    HW216590   3.724   3.352  10.221
 5378SOL     OW16591   1.941   3.102   9.963
 5378SOL    HW116592   1.940   3.055  10.051
 5378SOL    HW216593   2.023   3.074   9.912
 5379SOL     OW16594   2.534   3.253  10.934
 5379SOL    HW116595   2.456   3.203  10.972
 5379SOL    HW216596   2.531   3.348  10.965
 5380SOL     OW16597   3.686   2.054  10.537
 5380SOL    HW116598   3.682   1.964  10.581
 5380SOL    HW216599   3.689   2.043  10.438
 5381SOL     OW16600   3.567   3.349  10.414
 5381SOL    HW116601   3.474   3.324  10.387
 5381SOL    HW216602   3.593   3.299  10.496
 5382SOL     OW16603   2.674   3.448   9.997
 5382SOL    HW116604   2.706   3.458   9.903
 5382SOL    HW216605   2.595   3.386   9.999
 5383SOL     OW16606   3.286   2.076  10.422
 5383SOL    HW116607   3.338   2.011  10.477
 5383SOL    HW216608   3.237   2.139  10.483
 5384SOL     OW16609   2.863   1.896  10.464
 5384SOL    HW116610   2.800   1.824  10.433
 5384SOL    HW216611   2.956   1.860  10.464
 5385SOL     OW16612   2.632   3.192   9.611
 5385SOL    HW116613   2.586   3.105   9.628
 5385SOL    HW216614   2.723   3.189   9.652
 5386SOL     OW16615   2.480   3.429  10.594
 5386SOL    HW116616   2.475   3.511  10.651
 5386SOL    HW216617   2.569   3.426  10.549
 5387SOL     OW16618   3.214   1.914   9.478
 5387SOL    HW116619   3.249   1.873   9.394
 5387SOL    HW216620   3.124   1.876   9.498
 5388SOL     OW16621   3.162   2.315  10.001
 5388SOL    HW116622   3.103   2.395  10.005
 5388SOL    HW216623   3.177   2.280  10.094
 5389SOL     OW16624   3.455   2.083  10.192
 5389SOL    HW116625   3.371   2.082  10.246
 5389SOL    HW216626   3.457   2.166  10.136
 5390SOL     OW16627   1.901   2.939   9.610
 5390SOL    HW116628   2.000   2.928   9.601
 5390SOL    HW216629   1.861   2.853   9.642
 5391SOL     OW16630   2.737   3.508   9.647
 5391SOL    HW116631   2.660   3.473   9.593
 5391SOL    HW216632   2.705   3.579   9.709
 5392SOL     OW16633   2.092   4.352   0.113
 5392SOL    HW116634   1.999   4.350   0.150
 5392SOL    HW216635   2.093   4.313   0.021
 5393SOL     OW16636   2.087   3.999   0.996
 5393SOL    HW116637   2.122   3.982   1.088
 5393SOL    HW216638   1.999   3.954   0.984
 5394SOL     OW16639   1.881   4.092   0.647
 5394SOL    HW116640   1.799   4.135   0.686
 5394SOL    HW216641   1.853   4.019   0.584
 5395SOL     OW16642   3.617   4.331   0.231
 5395SOL    HW116643   3.605   4.318   0.132
 5395SOL    HW216644   3.587   4.250   0.280
 5396SOL     OW16645   2.547   4.736   0.665
 5396SOL    HW116646   2.616   4.720   0.735
 5396SOL    HW216647   2.474   4.793   0.703
 5397SOL     OW16648   2.300   4.116   1.499
 5397SOL    HW116649   2.382   4.060   1.508
 5397SOL    HW216650   2.219   4.058   1.503
 5398SOL     OW16651   3.465   4.171   0.737
 5398SOL    HW116652   3.391   4.217   0.687
 5398SOL    HW216653   3.516   4.239   0.790
 5399SOL     OW16654   3.456   3.838   1.480
 5399SOL    HW116655   3.438   3.905   1.408
 5399SOL    HW216656   3.453   3.884   1.569
 5400SOL     OW16657   1.984   4.367   0.563
 5400SOL    HW116658   1.939   4.279   0.580
 5400SOL    HW216659   1.983   4.421   0.647
 5401SOL     OW16660   1.975   4.461   1.597
 5401SOL    HW116661   2.063   4.448   1.642
 5401SOL    HW216662   1.962   4.558   1.575
 5402SOL     OW16663   2.671   3.728   0.502
 5402SOL    HW116664   2.711   3.819   0.493
 5402SOL    HW216665   2.571   3.736   0.508
 5403SOL     OW16666   2.179   3.975   1.801
 5403SOL    HW116667   2.250   4.046   1.807
 5403SOL    HW216668   2.091   4.014   1.829
 5404SOL     OW16669   3.143   4.069   0.944
 5404SOL    HW116670   3.057   4.019   0.931
 5404SOL    HW216671   3.205   4.015   1.000
 5405SOL     OW16672   2.669   4.329   1.465
 5405SOL    HW116673   2.622   4.326   1.554
 5405SOL    HW216674   2.618   4.274   1.399
 5406SOL     OW16675   3.256   4.193   1.674
 5406SOL    HW116676   3.236   4.236   1.762
 5406SOL    HW216677   3.334   4.131   1.683
 5407SOL     OW16678   2.853   4.134   1.242
 5407SOL    HW116679   2.776   4.168   1.296
 5407SOL    HW216680   2.819   4.083   1.163
 5408SOL     OW16681   2.903   4.425   0.429
 5408SOL    HW116682   2.929   4.421   0.525
 5408SOL    HW216683   2.818   4.374   0.415
 5409SOL     OW16684   2.727   4.072   0.195
 5409SOL    HW116685   2.786   4.135   0.146
 5409SOL    HW216686   2.746   3.978   0.166
 5410SOL     OW16687   3.581   4.309   1.831
 5410SOL    HW116688   3.555   4.398   1.795
 5410SOL    HW216689   3.579   4.241   1.758
 5411SOL     OW16690   2.412   3.920   0.885
 5411SOL    HW116691   2.407   3.915   0.985
 5411SOL    HW216692   2.414   4.016   0.856
 5412SOL     OW16693   3.320   4.459   0.728
 5412SOL    HW116694   3.315   4.394   0.803
 5412SOL    HW216695   3.400   4.518   0.741
 5413SOL     OW16696   2.064   4.009   1.498
 5413SOL    HW116697   1.984   4.069   1.485
 5413SOL    HW216698   2.054   3.960   1.584
 5414SOL     OW16699   3.262   3.831   0.426
 5414SOL    HW116700   3.238   3.794   0.336
 5414SOL    HW216701   3.361   3.847   0.430
 5415SOL     OW16702   2.244   4.424   0.480
 5415SOL    HW116703   2.289   4.334   0.477
 5415SOL    HW216704   2.150   4.413   0.513
 5416SOL     OW16705   3.409   3.946   1.729
 5416SOL    HW116706   3.404   3.983   1.821
 5416SOL    HW216707   3.337   3.877   1.717
 5417SOL     OW16708   2.476   3.846   0.117
 5417SOL    HW116709   2.574   3.824   0.124
 5417SOL    HW216710   2.445   3.829   0.024
 5418SOL     OW16711   2.643   3.988   1.749
 5418SOL    HW116712   2.710   3.927   1.792
 5418SOL    HW216713   2.570   4.007   1.814
 5419SOL     OW16714   3.213   4.314   1.433
 5419SOL    HW116715   3.241   4.271   1.518
 5419SOL    HW216716   3.238   4.410   1.434
 5420SOL     OW16717   2.784   4.227   0.899
 5420SOL    HW116718   2.759   4.218   0.803
 5420SOL    HW216719   2.832   4.145   0.930
 5421SOL     OW16720   2.401   3.788   0.512
 5421SOL    HW116721   2.320   3.789   0.570
 5421SOL    HW216722   2.404   3.871   0.457
 5422SOL     OW16723   2.159   3.759   0.171
 5422SOL    HW116724   2.208   3.843   0.150
 5422SOL    HW216725   2.221   3.694   0.216
 5423SOL     OW16726   2.797   3.960   0.480
 5423SOL    HW116727   2.749   4.001   0.402
 5423SOL    HW216728   2.896   3.958   0.461
 5424SOL     OW16729   2.938   4.407   1.464
 5424SOL    HW116730   2.858   4.346   1.467
 5424SOL    HW216731   3.019   4.354   1.440
 5425SOL     OW16732   2.894   4.273   0.016
 5425SOL    HW116733   2.853   4.355  -0.023
 5425SOL    HW216734   2.958   4.299   0.089
 5426SOL     OW16735   1.940   4.280   1.386
 5426SOL    HW116736   2.032   4.279   1.345
 5426SOL    HW216737   1.934   4.354   1.453
 5427SOL     OW16738   2.423   3.946   1.147
 5427SOL    HW116739   2.461   3.862   1.184
 5427SOL    HW216740   2.335   3.965   1.191
 5428SOL     OW16741   2.728   4.178   0.642
 5428SOL    HW116742   2.696   4.250   0.580
 5428SOL    HW216743   2.752   4.097   0.589
 5429SOL     OW16744   2.879   3.763   0.753
 5429SOL    HW116745   2.807   3.768   0.684
 5429SOL    HW216746   2.855   3.694   0.822
 5430SOL     OW16747   3.328   4.314   0.992
 5430SOL    HW116748   3.298   4.219   0.999
 5430SOL    HW216749   3.401   4.330   1.058
 5431SOL     OW16750   3.252   4.299   0.078
 5431SOL    HW116751   3.198   4.278   0.159
 5431SOL    HW216752   3.343   4.258   0.087
 5432SOL     OW16753   2.389   3.980   0.328
 5432SOL    HW116754   2.416   3.921   0.253
 5432SOL    HW216755   2.389   4.075   0.297
 5433SOL     OW16756   2.777   3.813   1.402
 5433SOL    HW116757   2.802   3.793   1.307
 5433SOL    HW216758   2.849   3.869   1.444
 5434SOL     OW16759   2.272   4.537   1.251
 5434SOL    HW116760   2.358   4.549   1.301
 5434SOL    HW216761   2.230   4.450   1.278
 5435SOL     OW16762   3.136   4.110   1.262
 5435SOL    HW116763   3.157   4.184   1.326
 5435SOL    HW216764   3.047   4.127   1.219
 5436SOL     OW16765   2.428   4.261   0.865
 5436SOL    HW116766   2.440   4.327   0.791
 5436SOL    HW216767   2.474   4.295   0.948
 5437SOL     OW16768   3.444   4.363   0.472
 5437SOL    HW116769   3.413   4.424   0.545
 5437SOL    HW216770   3.494   4.415   0.403
 5438SOL     OW16771   2.875   3.829   1.770
 5438SOL    HW116772   2.881   3.914   1.718
 5438SOL    HW216773   2.907   3.753   1.713
 5439SOL     OW16774   2.366   3.774   1.740
 5439SOL    HW116775   2.324   3.717   1.670
 5439SOL    HW216776   2.300   3.843   1.772
 5440SOL     OW16777   3.071   4.249   0.275
 5440SOL    HW116778   3.084   4.165   0.329
 5440SOL    HW216779   3.042   4.323   0.335
 5441SOL     OW16780   2.169   3.937   1.231
 5441SOL    HW116781   2.146   3.974   1.321
 5441SOL    HW216782   2.139   3.842   1.225
 5442SOL     OW16783   2.594   4.358   1.064
 5442SOL    HW116784   2.653   4.332   0.988
 5442SOL    HW216785   2.566   4.454   1.053
 5443SOL     OW16786   3.590   4.659   1.854
 5443SOL    HW116787   3.544   4.652   1.765
 5443SOL    HW216788   3.528   4.703   1.920
 5444SOL     OW16789   2.169   3.787   0.618
 5444SOL    HW116790   2.158   3.881   0.651
 5444SOL    HW216791   2.164   3.724   0.695
 5445SOL     OW16792   3.484   4.091   0.374
 5445SOL    HW116793   3.486   4.015   0.438
 5445SOL    HW216794   3.436   4.168   0.414
 5446SOL     OW16795   3.402   3.998   0.125
 5446SOL    HW116796   3.341   3.923   0.148
 5446SOL    HW216797   3.424   4.050   0.208
 5447SOL     OW16798   2.181   4.534   0.949
 5447SOL    HW116799   2.274   4.570   0.954
 5447SOL    HW216800   2.175   4.449   1.001
 5448SOL     OW16801   2.201   4.233   1.006
 5448SOL    HW116802   2.149   4.150   0.989
 5448SOL    HW216803   2.278   4.238   0.942
 5449SOL     OW16804   3.000   4.104   1.678
 5449SOL    HW116805   2.955   4.167   1.742
 5449SOL    HW216806   3.093   4.135   1.661
 5450SOL     OW16807   3.022   3.931   1.477
 5450SOL    HW116808   3.022   3.995   1.554
 5450SOL    HW216809   3.050   3.979   1.394
 5451SOL     OW16810   1.902   4.268   1.114
 5451SOL    HW116811   1.987   4.235   1.073
 5451SOL    HW216812   1.915   4.283   1.212
 5452SOL     OW16813   2.051   4.244   1.722
 5452SOL    HW116814   2.110   4.204   1.652
 5452SOL    HW216815   1.993   4.315   1.681
 5453SOL     OW16816   2.677   4.296   0.325
 5453SOL    HW116817   2.684   4.207   0.279
 5453SOL    HW216818   2.583   4.330   0.317
 5454SOL     OW16819   3.519   4.328   1.206
 5454SOL    HW116820   3.481   4.259   1.268
 5454SOL    HW216821   3.601   4.292   1.162
 5455SOL     OW16822   2.533   4.188   1.269
 5455SOL    HW116823   2.499   4.099   1.239
 5455SOL    HW216824   2.559   4.242   1.189
 5456SOL     OW16825   2.335   4.224   0.191
 5456SOL    HW116826   2.396   4.304   0.195
 5456SOL    HW216827   2.240   4.255   0.198
 5457SOL     OW16828   2.765   3.810   0.133
 5457SOL    HW116829   2.816   3.811   0.047
 5457SOL    HW216830   2.821   3.768   0.204
 5458SOL     OW16831   3.588   3.859   0.523
 5458SOL    HW116832   3.661   3.842   0.456
 5458SOL    HW216833   3.557   3.772   0.561
 5459SOL     OW16834   3.142   4.651   0.672
 5459SOL    HW116835   3.202   4.570   0.674
 5459SOL    HW216836   3.182   4.720   0.612
 5460SOL     OW16837   3.703   3.899   0.963
 5460SOL    HW116838   3.742   3.814   0.927
 5460SOL    HW216839   3.605   3.901   0.944
 5461SOL     OW16840   2.125   4.050   0.720
 5461SOL    HW116841   2.046   4.101   0.686
 5461SOL    HW216842   2.116   4.035   0.818
 5462SOL     OW16843   2.901   4.822   0.696
 5462SOL    HW116844   2.831   4.775   0.750
 5462SOL    HW216845   2.960   4.754   0.653
 5463SOL     OW16846   2.876   3.960   0.971
 5463SOL    HW116847   2.868   3.924   0.878
 5463SOL    HW216848   2.874   3.884   1.036
 5464SOL     OW16849   3.571   4.109   1.381
 5464SOL    HW116850   3.644   4.178   1.385
 5464SOL    HW216851   3.599   4.034   1.322
 5465SOL     OW16852   2.534   3.927   1.489
 5465SOL    HW116853   2.624   3.911   1.449
 5465SOL    HW216854   2.542   3.932   1.588
 5466SOL     OW16855   1.937   4.069   0.033
 5466SOL    HW116856   1.845   4.041   0.004
 5466SOL    HW216857   1.968   4.146  -0.023
 5467SOL     OW16858   1.934   3.890   0.318
 5467SOL    HW116859   1.917   3.973   0.264
 5467SOL    HW216860   2.024   3.853   0.296
 5468SOL     OW16861   2.578   4.289   1.708
 5468SOL    HW116862   2.597   4.354   1.782
 5468SOL    HW216863   2.638   4.209   1.717
 5469SOL     OW16864   3.087   4.049   0.449
 5469SOL    HW116865   3.152   3.975   0.438
 5469SOL    HW216866   3.107   4.099   0.533
 5470SOL     OW16867   3.639   4.066   1.642
 5470SOL    HW116868   3.622   4.097   1.548
 5470SOL    HW216869   3.555   4.029   1.680
 5471SOL     OW16870   2.945   4.708   0.087
 5471SOL    HW116871   2.922   4.761   0.005
 5471SOL    HW216872   3.026   4.652   0.068
 5472SOL     OW16873   3.686   3.916   1.227
 5472SOL    HW116874   3.682   3.826   1.271
 5472SOL    HW216875   3.689   3.905   1.128
 5473SOL     OW16876   2.290   4.148   0.520
 5473SOL    HW116877   2.320   4.076   0.458
 5473SOL    HW216878   2.251   4.108   0.603
 5474SOL     OW16879   2.179   4.271   1.280
 5474SOL    HW116880   2.217   4.212   1.352
 5474SOL    HW216881   2.219   4.245   1.192
 5475SOL     OW16882   3.286   3.938   1.112
 5475SOL    HW116883   3.338   3.873   1.167
 5475SOL    HW216884   3.237   4.001   1.173
 5476SOL     OW16885   2.863   3.758   1.154
 5476SOL    HW116886   2.800   3.686   1.123
 5476SOL    HW216887   2.956   3.722   1.154
 5477SOL     OW16888   3.214   3.776   0.168
 5477SOL    HW116889   3.249   3.735   0.084
 5477SOL    HW216890   3.124   3.738   0.188
 5478SOL     OW16891   3.162   4.177   0.691
 5478SOL    HW116892   3.103   4.257   0.695
 5478SOL    HW216893   3.177   4.142   0.784
 5479SOL     OW16894   3.455   3.945   0.882
 5479SOL    HW116895   3.371   3.944   0.936
 5479SOL    HW216896   3.457   4.028   0.826
 5480SOL     OW16897   2.092   4.352   1.975
 5480SOL    HW116898   1.999   4.350   2.012
 5480SOL    HW216899   2.093   4.313   1.883
 5481SOL     OW16900   2.087   3.999   2.858
 5481SOL    HW116901   2.122   3.982   2.950
 5481SOL    HW216902   1.999   3.954   2.846
 5482SOL     OW16903   1.881   4.092   2.509
 5482SOL    HW116904   1.799   4.135   2.548
 5482SOL    HW216905   1.853   4.019   2.446
 5483SOL     OW16906   3.617   4.331   2.093
 5483SOL    HW116907   3.605   4.318   1.994
 5483SOL    HW216908   3.587   4.250   2.142
 5484SOL     OW16909   2.547   4.736   2.527
 5484SOL    HW116910   2.616   4.720   2.597
 5484SOL    HW216911   2.474   4.793   2.565
 5485SOL     OW16912   2.300   4.116   3.361
 5485SOL    HW116913   2.382   4.060   3.370
 5485SOL    HW216914   2.219   4.058   3.365
 5486SOL     OW16915   3.465   4.171   2.599
 5486SOL    HW116916   3.391   4.217   2.549
 5486SOL    HW216917   3.516   4.239   2.652
 5487SOL     OW16918   3.456   3.838   3.342
 5487SOL    HW116919   3.438   3.905   3.270
 5487SOL    HW216920   3.453   3.884   3.431
 5488SOL     OW16921   1.984   4.367   2.425
 5488SOL    HW116922   1.939   4.279   2.442
 5488SOL    HW216923   1.983   4.421   2.509
 5489SOL     OW16924   1.975   4.461   3.459
 5489SOL    HW116925   2.063   4.448   3.504
 5489SOL    HW216926   1.962   4.558   3.437
 5490SOL     OW16927   2.671   3.728   2.364
 5490SOL    HW116928   2.711   3.819   2.355
 5490SOL    HW216929   2.571   3.736   2.370
 5491SOL     OW16930   2.179   3.975   3.663
 5491SOL    HW116931   2.250   4.046   3.669
 5491SOL    HW216932   2.091   4.014   3.691
 5492SOL     OW16933   3.143   4.069   2.806
 5492SOL    HW116934   3.057   4.019   2.793
 5492SOL    HW216935   3.205   4.015   2.862
 5493SOL     OW16936   2.669   4.329   3.327
 5493SOL    HW116937   2.622   4.326   3.416
 5493SOL    HW216938   2.618   4.274   3.261
 5494SOL     OW16939   3.256   4.193   3.536
 5494SOL    HW116940   3.236   4.236   3.624
 5494SOL    HW216941   3.334   4.131   3.545
 5495SOL     OW16942   2.853   4.134   3.104
 5495SOL    HW116943   2.776   4.168   3.158
 5495SOL    HW216944   2.819   4.083   3.025
 5496SOL     OW16945   2.903   4.425   2.291
 5496SOL    HW116946   2.929   4.421   2.387
 5496SOL    HW216947   2.818   4.374   2.277
 5497SOL     OW16948   2.727   4.072   2.057
 5497SOL    HW116949   2.786   4.135   2.008
 5497SOL    HW216950   2.746   3.978   2.028
 5498SOL     OW16951   3.581   4.309   3.693
 5498SOL    HW116952   3.555   4.398   3.657
 5498SOL    HW216953   3.579   4.241   3.620
 5499SOL     OW16954   2.412   3.920   2.747
 5499SOL    HW116955   2.407   3.915   2.847
 5499SOL    HW216956   2.414   4.016   2.718
 5500SOL     OW16957   3.320   4.459   2.590
 5500SOL    HW116958   3.315   4.394   2.665
 5500SOL    HW216959   3.400   4.518   2.603
 5501SOL     OW16960   2.064   4.009   3.360
 5501SOL    HW116961   1.984   4.069   3.347
 5501SOL    HW216962   2.054   3.960   3.446
 5502SOL     OW16963   3.262   3.831   2.288
 5502SOL    HW116964   3.238   3.794   2.198
 5502SOL    HW216965   3.361   3.847   2.292
 5503SOL     OW16966   2.244   4.424   2.342
 5503SOL    HW116967   2.289   4.334   2.339
 5503SOL    HW216968   2.150   4.413   2.375
 5504SOL     OW16969   3.409   3.946   3.591
 5504SOL    HW116970   3.404   3.983   3.683
 5504SOL    HW216971   3.337   3.877   3.579
 5505SOL     OW16972   2.476   3.846   1.979
 5505SOL    HW116973   2.574   3.824   1.986
 5505SOL    HW216974   2.445   3.829   1.886
 5506SOL     OW16975   2.643   3.988   3.611
 5506SOL    HW116976   2.710   3.927   3.654
 5506SOL    HW216977   2.570   4.007   3.676
 5507SOL     OW16978   3.213   4.314   3.295
 5507SOL    HW116979   3.241   4.271   3.380
 5507SOL    HW216980   3.238   4.410   3.296
 5508SOL     OW16981   2.784   4.227   2.761
 5508SOL    HW116982   2.759   4.218   2.665
 5508SOL    HW216983   2.832   4.145   2.792
 5509SOL     OW16984   2.401   3.788   2.374
 5509SOL    HW116985   2.320   3.789   2.432
 5509SOL    HW216986   2.404   3.871   2.319
 5510SOL     OW16987   2.159   3.759   2.033
 5510SOL    HW116988   2.208   3.843   2.012
 5510SOL    HW216989   2.221   3.694   2.078
 5511SOL     OW16990   2.797   3.960   2.342
 5511SOL    HW116991   2.749   4.001   2.264
 5511SOL    HW216992   2.896   3.958   2.323
 5512SOL     OW16993   2.938   4.407   3.326
 5512SOL    HW116994   2.858   4.346   3.329
 5512SOL    HW216995   3.019   4.354   3.302
 5513SOL     OW16996   2.894   4.273   1.878
 5513SOL    HW116997   2.853   4.355   1.839
 5513SOL    HW216998   2.958   4.299   1.951
 5514SOL     OW16999   1.940   4.280   3.248
 5514SOL    HW117000   2.032   4.279   3.207
 5514SOL    HW217001   1.934   4.354   3.315
 5515SOL     OW17002   2.423   3.946   3.009
 5515SOL    HW117003   2.461   3.862   3.046
 5515SOL    HW217004   2.335   3.965   3.053
 5516SOL     OW17005   2.728   4.178   2.504
 5516SOL    HW117006   2.696   4.250   2.442
 5516SOL    HW217007   2.752   4.097   2.451
 5517SOL     OW17008   2.879   3.763   2.615
 5517SOL    HW117009   2.807   3.768   2.546
 5517SOL    HW217010   2.855   3.694   2.684
 5518SOL     OW17011   3.328   4.314   2.854
 5518SOL    HW117012   3.298   4.219   2.861
 5518SOL    HW217013   3.401   4.330   2.920
 5519SOL     OW17014   3.252   4.299   1.940
 5519SOL    HW117015   3.198   4.278   2.021
 5519SOL    HW217016   3.343   4.258   1.949
 5520SOL     OW17017   2.389   3.980   2.190
 5520SOL    HW117018   2.416   3.921   2.115
 5520SOL    HW217019   2.389   4.075   2.159
 5521SOL     OW17020   2.777   3.813   3.264
 5521SOL    HW117021   2.802   3.793   3.169
 5521SOL    HW217022   2.849   3.869   3.306
 5522SOL     OW17023   2.272   4.537   3.113
 5522SOL    HW117024   2.358   4.549   3.163
 5522SOL    HW217025   2.230   4.450   3.140
 5523SOL     OW17026   3.136   4.110   3.124
 5523SOL    HW117027   3.157   4.184   3.188
 5523SOL    HW217028   3.047   4.127   3.081
 5524SOL     OW17029   2.428   4.261   2.727
 5524SOL    HW117030   2.440   4.327   2.653
 5524SOL    HW217031   2.474   4.295   2.810
 5525SOL     OW17032   3.444   4.363   2.334
 5525SOL    HW117033   3.413   4.424   2.407
 5525SOL    HW217034   3.494   4.415   2.265
 5526SOL     OW17035   2.875   3.829   3.632
 5526SOL    HW117036   2.881   3.914   3.580
 5526SOL    HW217037   2.907   3.753   3.575
 5527SOL     OW17038   2.366   3.774   3.602
 5527SOL    HW117039   2.324   3.717   3.532
 5527SOL    HW217040   2.300   3.843   3.634
 5528SOL     OW17041   3.071   4.249   2.137
 5528SOL    HW117042   3.084   4.165   2.191
 5528SOL    HW217043   3.042   4.323   2.197
 5529SOL     OW17044   2.169   3.937   3.093
 5529SOL    HW117045   2.146   3.974   3.183
 5529SOL    HW217046   2.139   3.842   3.087
 5530SOL     OW17047   2.594   4.358   2.926
 5530SOL    HW117048   2.653   4.332   2.850
 5530SOL    HW217049   2.566   4.454   2.915
 5531SOL     OW17050   3.590   4.659   3.716
 5531SOL    HW117051   3.544   4.652   3.627
 5531SOL    HW217052   3.528   4.703   3.782
 5532SOL     OW17053   2.169   3.787   2.480
 5532SOL    HW117054   2.158   3.881   2.513
 5532SOL    HW217055   2.164   3.724   2.557
 5533SOL     OW17056   3.484   4.091   2.236
 5533SOL    HW117057   3.486   4.015   2.300
 5533SOL    HW217058   3.436   4.168   2.276
 5534SOL     OW17059   3.402   3.998   1.987
 5534SOL    HW117060   3.341   3.923   2.010
 5534SOL    HW217061   3.424   4.050   2.070
 5535SOL     OW17062   2.181   4.534   2.811
 5535SOL    HW117063   2.274   4.570   2.816
 5535SOL    HW217064   2.175   4.449   2.863
 5536SOL     OW17065   2.201   4.233   2.868
 5536SOL    HW117066   2.149   4.150   2.851
 5536SOL    HW217067   2.278   4.238   2.804
 5537SOL     OW17068   3.000   4.104   3.540
 5537SOL    HW117069   2.955   4.167   3.604
 5537SOL    HW217070   3.093   4.135   3.523
 5538SOL     OW17071   3.022   3.931   3.339
 5538SOL    HW117072   3.022   3.995   3.416
 5538SOL    HW217073   3.050   3.979   3.256
 5539SOL     OW17074   1.902   4.268   2.976
 5539SOL    HW117075   1.987   4.235   2.935
 5539SOL    HW217076   1.915   4.283   3.074
 5540SOL     OW17077   2.051   4.244   3.584
 5540SOL    HW117078   2.110   4.204   3.514
 5540SOL    HW217079   1.993   4.315   3.543
 5541SOL     OW17080   2.677   4.296   2.187
 5541SOL    HW117081   2.684   4.207   2.141
 5541SOL    HW217082   2.583   4.330   2.179
 5542SOL     OW17083   3.519   4.328   3.068
 5542SOL    HW117084   3.481   4.259   3.130
 5542SOL    HW217085   3.601   4.292   3.024
 5543SOL     OW17086   2.533   4.188   3.131
 5543SOL    HW117087   2.499   4.099   3.101
 5543SOL    HW217088   2.559   4.242   3.051
 5544SOL     OW17089   2.335   4.224   2.053
 5544SOL    HW117090   2.396   4.304   2.057
 5544SOL    HW217091   2.240   4.255   2.060
 5545SOL     OW17092   3.588   3.859   2.385
 5545SOL    HW117093   3.661   3.842   2.318
 5545SOL    HW217094   3.557   3.772   2.423
 5546SOL     OW17095   3.142   4.651   2.534
 5546SOL    HW117096   3.202   4.570   2.536
 5546SOL    HW217097   3.182   4.720   2.474
 5547SOL     OW17098   3.703   3.899   2.825
 5547SOL    HW117099   3.742   3.814   2.789
 5547SOL    HW217100   3.605   3.901   2.806
 5548SOL     OW17101   2.125   4.050   2.582
 5548SOL    HW117102   2.046   4.101   2.548
 5548SOL    HW217103   2.116   4.035   2.680
 5549SOL     OW17104   2.778   4.634   2.153
 5549SOL    HW117105   2.841   4.672   2.085
 5549SOL    HW217106   2.818   4.551   2.192
 5550SOL     OW17107   2.901   4.822   2.558
 5550SOL    HW117108   2.831   4.775   2.612
 5550SOL    HW217109   2.960   4.754   2.515
 5551SOL     OW17110   2.876   3.960   2.833
 5551SOL    HW117111   2.868   3.924   2.740
 5551SOL    HW217112   2.874   3.884   2.898
 5552SOL     OW17113   3.571   4.109   3.243
 5552SOL    HW117114   3.644   4.178   3.247
 5552SOL    HW217115   3.599   4.034   3.184
 5553SOL     OW17116   2.534   3.927   3.351
 5553SOL    HW117117   2.624   3.911   3.311
 5553SOL    HW217118   2.542   3.932   3.450
 5554SOL     OW17119   1.937   4.069   1.895
 5554SOL    HW117120   1.845   4.041   1.866
 5554SOL    HW217121   1.968   4.146   1.839
 5555SOL     OW17122   1.934   3.890   2.180
 5555SOL    HW117123   1.917   3.973   2.126
 5555SOL    HW217124   2.024   3.853   2.158
 5556SOL     OW17125   2.578   4.289   3.570
 5556SOL    HW117126   2.597   4.354   3.644
 5556SOL    HW217127   2.638   4.209   3.579
 5557SOL     OW17128   3.087   4.049   2.311
 5557SOL    HW117129   3.152   3.975   2.300
 5557SOL    HW217130   3.107   4.099   2.395
 5558SOL     OW17131   3.639   4.066   3.504
 5558SOL    HW117132   3.622   4.097   3.410
 5558SOL    HW217133   3.555   4.029   3.542
 5559SOL     OW17134   2.945   4.708   1.949
 5559SOL    HW117135   2.922   4.761   1.867
 5559SOL    HW217136   3.026   4.652   1.930
 5560SOL     OW17137   3.686   3.916   3.089
 5560SOL    HW117138   3.682   3.826   3.133
 5560SOL    HW217139   3.689   3.905   2.990
 5561SOL     OW17140   2.290   4.148   2.382
 5561SOL    HW117141   2.320   4.076   2.320
 5561SOL    HW217142   2.251   4.108   2.465
 5562SOL     OW17143   2.179   4.271   3.142
 5562SOL    HW117144   2.217   4.212   3.214
 5562SOL    HW217145   2.219   4.245   3.054
 5563SOL     OW17146   3.286   3.938   2.974
 5563SOL    HW117147   3.338   3.873   3.029
 5563SOL    HW217148   3.237   4.001   3.035
 5564SOL     OW17149   2.863   3.758   3.016
 5564SOL    HW117150   2.800   3.686   2.985
 5564SOL    HW217151   2.956   3.722   3.016
 5565SOL     OW17152   3.214   3.776   2.030
 5565SOL    HW117153   3.249   3.735   1.946
 5565SOL    HW217154   3.124   3.738   2.050
 5566SOL     OW17155   3.162   4.177   2.553
 5566SOL    HW117156   3.103   4.257   2.557
 5566SOL    HW217157   3.177   4.142   2.646
 5567SOL     OW17158   3.455   3.945   2.744
 5567SOL    HW117159   3.371   3.944   2.798
 5567SOL    HW217160   3.457   4.028   2.688
 5568SOL     OW17161   2.092   4.352   3.837
 5568SOL    HW117162   1.999   4.350   3.874
 5568SOL    HW217163   2.093   4.313   3.745
 5569SOL     OW17164   2.087   3.999   4.720
 5569SOL    HW117165   2.122   3.982   4.812
 5569SOL    HW217166   1.999   3.954   4.708
 5570SOL     OW17167   1.881   4.092   4.371
 5570SOL    HW117168   1.799   4.135   4.410
 5570SOL    HW217169   1.853   4.019   4.308
 5571SOL     OW17170   3.617   4.331   3.955
 5571SOL    HW117171   3.605   4.318   3.856
 5571SOL    HW217172   3.587   4.250   4.004
 5572SOL     OW17173   2.547   4.736   4.389
 5572SOL    HW117174   2.616   4.720   4.459
 5572SOL    HW217175   2.474   4.793   4.427
 5573SOL     OW17176   2.300   4.116   5.223
 5573SOL    HW117177   2.382   4.060   5.232
 5573SOL    HW217178   2.219   4.058   5.227
 5574SOL     OW17179   3.465   4.171   4.461
 5574SOL    HW117180   3.391   4.217   4.411
 5574SOL    HW217181   3.516   4.239   4.514
 5575SOL     OW17182   3.456   3.838   5.204
 5575SOL    HW117183   3.438   3.905   5.132
 5575SOL    HW217184   3.453   3.884   5.293
 5576SOL     OW17185   1.984   4.367   4.287
 5576SOL    HW117186   1.939   4.279   4.304
 5576SOL    HW217187   1.983   4.421   4.371
 5577SOL     OW17188   1.975   4.461   5.321
 5577SOL    HW117189   2.063   4.448   5.366
 5577SOL    HW217190   1.962   4.558   5.299
 5578SOL     OW17191   2.671   3.728   4.226
 5578SOL    HW117192   2.711   3.819   4.217
 5578SOL    HW217193   2.571   3.736   4.232
 5579SOL     OW17194   2.179   3.975   5.525
 5579SOL    HW117195   2.250   4.046   5.531
 5579SOL    HW217196   2.091   4.014   5.553
 5580SOL     OW17197   3.143   4.069   4.668
 5580SOL    HW117198   3.057   4.019   4.655
 5580SOL    HW217199   3.205   4.015   4.724
 5581SOL     OW17200   2.669   4.329   5.189
 5581SOL    HW117201   2.622   4.326   5.278
 5581SOL    HW217202   2.618   4.274   5.123
 5582SOL     OW17203   3.256   4.193   5.398
 5582SOL    HW117204   3.236   4.236   5.486
 5582SOL    HW217205   3.334   4.131   5.407
 5583SOL     OW17206   2.853   4.134   4.966
 5583SOL    HW117207   2.776   4.168   5.020
 5583SOL    HW217208   2.819   4.083   4.887
 5584SOL     OW17209   2.903   4.425   4.153
 5584SOL    HW117210   2.929   4.421   4.249
 5584SOL    HW217211   2.818   4.374   4.139
 5585SOL     OW17212   2.727   4.072   3.919
 5585SOL    HW117213   2.786   4.135   3.870
 5585SOL    HW217214   2.746   3.978   3.890
 5586SOL     OW17215   3.581   4.309   5.555
 5586SOL    HW117216   3.555   4.398   5.519
 5586SOL    HW217217   3.579   4.241   5.482
 5587SOL     OW17218   2.412   3.920   4.609
 5587SOL    HW117219   2.407   3.915   4.709
 5587SOL    HW217220   2.414   4.016   4.580
 5588SOL     OW17221   3.320   4.459   4.452
 5588SOL    HW117222   3.315   4.394   4.527
 5588SOL    HW217223   3.400   4.518   4.465
 5589SOL     OW17224   2.064   4.009   5.222
 5589SOL    HW117225   1.984   4.069   5.209
 5589SOL    HW217226   2.054   3.960   5.308
 5590SOL     OW17227   3.262   3.831   4.150
 5590SOL    HW117228   3.238   3.794   4.060
 5590SOL    HW217229   3.361   3.847   4.154
 5591SOL     OW17230   2.244   4.424   4.204
 5591SOL    HW117231   2.289   4.334   4.201
 5591SOL    HW217232   2.150   4.413   4.237
 5592SOL     OW17233   3.409   3.946   5.453
 5592SOL    HW117234   3.404   3.983   5.545
 5592SOL    HW217235   3.337   3.877   5.441
 5593SOL     OW17236   2.476   3.846   3.841
 5593SOL    HW117237   2.574   3.824   3.848
 5593SOL    HW217238   2.445   3.829   3.748
 5594SOL     OW17239   2.643   3.988   5.473
 5594SOL    HW117240   2.710   3.927   5.516
 5594SOL    HW217241   2.570   4.007   5.538
 5595SOL     OW17242   3.213   4.314   5.157
 5595SOL    HW117243   3.241   4.271   5.242
 5595SOL    HW217244   3.238   4.410   5.158
 5596SOL     OW17245   2.784   4.227   4.623
 5596SOL    HW117246   2.759   4.218   4.527
 5596SOL    HW217247   2.832   4.145   4.654
 5597SOL     OW17248   2.401   3.788   4.236
 5597SOL    HW117249   2.320   3.789   4.294
 5597SOL    HW217250   2.404   3.871   4.181
 5598SOL     OW17251   2.159   3.759   3.895
 5598SOL    HW117252   2.208   3.843   3.874
 5598SOL    HW217253   2.221   3.694   3.940
 5599SOL     OW17254   2.797   3.960   4.204
 5599SOL    HW117255   2.749   4.001   4.126
 5599SOL    HW217256   2.896   3.958   4.185
 5600SOL     OW17257   2.938   4.407   5.188
 5600SOL    HW117258   2.858   4.346   5.191
 5600SOL    HW217259   3.019   4.354   5.164
 5601SOL     OW17260   2.894   4.273   3.740
 5601SOL    HW117261   2.853   4.355   3.701
 5601SOL    HW217262   2.958   4.299   3.813
 5602SOL     OW17263   1.940   4.280   5.110
 5602SOL    HW117264   2.032   4.279   5.069
 5602SOL    HW217265   1.934   4.354   5.177
 5603SOL     OW17266   2.423   3.946   4.871
 5603SOL    HW117267   2.461   3.862   4.908
 5603SOL    HW217268   2.335   3.965   4.915
 5604SOL     OW17269   2.728   4.178   4.366
 5604SOL    HW117270   2.696   4.250   4.304
 5604SOL    HW217271   2.752   4.097   4.313
 5605SOL     OW17272   2.879   3.763   4.477
 5605SOL    HW117273   2.807   3.768   4.408
 5605SOL    HW217274   2.855   3.694   4.546
 5606SOL     OW17275   3.328   4.314   4.716
 5606SOL    HW117276   3.298   4.219   4.723
 5606SOL    HW217277   3.401   4.330   4.782
 5607SOL     OW17278   3.252   4.299   3.802
 5607SOL    HW117279   3.198   4.278   3.883
 5607SOL    HW217280   3.343   4.258   3.811
 5608SOL     OW17281   2.389   3.980   4.052
 5608SOL    HW117282   2.416   3.921   3.977
 5608SOL    HW217283   2.389   4.075   4.021
 5609SOL     OW17284   2.777   3.813   5.126
 5609SOL    HW117285   2.802   3.793   5.031
 5609SOL    HW217286   2.849   3.869   5.168
 5610SOL     OW17287   2.272   4.537   4.975
 5610SOL    HW117288   2.358   4.549   5.025
 5610SOL    HW217289   2.230   4.450   5.002
 5611SOL     OW17290   3.136   4.110   4.986
 5611SOL    HW117291   3.157   4.184   5.050
 5611SOL    HW217292   3.047   4.127   4.943
 5612SOL     OW17293   2.428   4.261   4.589
 5612SOL    HW117294   2.440   4.327   4.515
 5612SOL    HW217295   2.474   4.295   4.672
 5613SOL     OW17296   3.444   4.363   4.196
 5613SOL    HW117297   3.413   4.424   4.269
 5613SOL    HW217298   3.494   4.415   4.127
 5614SOL     OW17299   2.875   3.829   5.494
 5614SOL    HW117300   2.881   3.914   5.442
 5614SOL    HW217301   2.907   3.753   5.437
 5615SOL     OW17302   2.366   3.774   5.464
 5615SOL    HW117303   2.324   3.717   5.394
 5615SOL    HW217304   2.300   3.843   5.496
 5616SOL     OW17305   3.071   4.249   3.999
 5616SOL    HW117306   3.084   4.165   4.053
 5616SOL    HW217307   3.042   4.323   4.059
 5617SOL     OW17308   2.169   3.937   4.955
 5617SOL    HW117309   2.146   3.974   5.045
 5617SOL    HW217310   2.139   3.842   4.949
 5618SOL     OW17311   2.594   4.358   4.788
 5618SOL    HW117312   2.653   4.332   4.712
 5618SOL    HW217313   2.566   4.454   4.777
 5619SOL     OW17314   3.590   4.659   5.578
 5619SOL    HW117315   3.544   4.652   5.489
 5619SOL    HW217316   3.528   4.703   5.644
 5620SOL     OW17317   2.169   3.787   4.342
 5620SOL    HW117318   2.158   3.881   4.375
 5620SOL    HW217319   2.164   3.724   4.419
 5621SOL     OW17320   3.484   4.091   4.098
 5621SOL    HW117321   3.486   4.015   4.162
 5621SOL    HW217322   3.436   4.168   4.138
 5622SOL     OW17323   3.402   3.998   3.849
 5622SOL    HW117324   3.341   3.923   3.872
 5622SOL    HW217325   3.424   4.050   3.932
 5623SOL     OW17326   2.181   4.534   4.673
 5623SOL    HW117327   2.274   4.570   4.678
 5623SOL    HW217328   2.175   4.449   4.725
 5624SOL     OW17329   2.201   4.233   4.730
 5624SOL    HW117330   2.149   4.150   4.713
 5624SOL    HW217331   2.278   4.238   4.666
 5625SOL     OW17332   3.000   4.104   5.402
 5625SOL    HW117333   2.955   4.167   5.466
 5625SOL    HW217334   3.093   4.135   5.385
 5626SOL     OW17335   3.022   3.931   5.201
 5626SOL    HW117336   3.022   3.995   5.278
 5626SOL    HW217337   3.050   3.979   5.118
 5627SOL     OW17338   1.902   4.268   4.838
 5627SOL    HW117339   1.987   4.235   4.797
 5627SOL    HW217340   1.915   4.283   4.936
 5628SOL     OW17341   2.051   4.244   5.446
 5628SOL    HW117342   2.110   4.204   5.376
 5628SOL    HW217343   1.993   4.315   5.405
 5629SOL     OW17344   2.677   4.296   4.049
 5629SOL    HW117345   2.684   4.207   4.003
 5629SOL    HW217346   2.583   4.330   4.041
 5630SOL     OW17347   3.519   4.328   4.930
 5630SOL    HW117348   3.481   4.259   4.992
 5630SOL    HW217349   3.601   4.292   4.886
 5631SOL     OW17350   2.533   4.188   4.993
 5631SOL    HW117351   2.499   4.099   4.963
 5631SOL    HW217352   2.559   4.242   4.913
 5632SOL     OW17353   2.335   4.224   3.915
 5632SOL    HW117354   2.396   4.304   3.919
 5632SOL    HW217355   2.240   4.255   3.922
 5633SOL     OW17356   3.588   3.859   4.247
 5633SOL    HW117357   3.661   3.842   4.180
 5633SOL    HW217358   3.557   3.772   4.285
 5634SOL     OW17359   3.142   4.651   4.396
 5634SOL    HW117360   3.202   4.570   4.398
 5634SOL    HW217361   3.182   4.720   4.336
 5635SOL     OW17362   3.703   3.899   4.687
 5635SOL    HW117363   3.742   3.814   4.651
 5635SOL    HW217364   3.605   3.901   4.668
 5636SOL     OW17365   2.125   4.050   4.444
 5636SOL    HW117366   2.046   4.101   4.410
 5636SOL    HW217367   2.116   4.035   4.542
 5637SOL     OW17368   2.778   4.634   4.015
 5637SOL    HW117369   2.841   4.672   3.947
 5637SOL    HW217370   2.818   4.551   4.054
 5638SOL     OW17371   2.901   4.822   4.420
 5638SOL    HW117372   2.831   4.775   4.474
 5638SOL    HW217373   2.960   4.754   4.377
 5639SOL     OW17374   2.876   3.960   4.695
 5639SOL    HW117375   2.868   3.924   4.602
 5639SOL    HW217376   2.874   3.884   4.760
 5640SOL     OW17377   3.571   4.109   5.105
 5640SOL    HW117378   3.644   4.178   5.109
 5640SOL    HW217379   3.599   4.034   5.046
 5641SOL     OW17380   2.534   3.927   5.213
 5641SOL    HW117381   2.624   3.911   5.173
 5641SOL    HW217382   2.542   3.932   5.312
 5642SOL     OW17383   1.937   4.069   3.757
 5642SOL    HW117384   1.845   4.041   3.728
 5642SOL    HW217385   1.968   4.146   3.701
 5643SOL     OW17386   1.934   3.890   4.042
 5643SOL    HW117387   1.917   3.973   3.988
 5643SOL    HW217388   2.024   3.853   4.020
 5644SOL     OW17389   2.578   4.289   5.432
 5644SOL    HW117390   2.597   4.354   5.506
 5644SOL    HW217391   2.638   4.209   5.441
 5645SOL     OW17392   3.087   4.049   4.173
 5645SOL    HW117393   3.152   3.975   4.162
 5645SOL    HW217394   3.107   4.099   4.257
 5646SOL     OW17395   3.639   4.066   5.366
 5646SOL    HW117396   3.622   4.097   5.272
 5646SOL    HW217397   3.555   4.029   5.404
 5647SOL     OW17398   2.945   4.708   3.811
 5647SOL    HW117399   2.922   4.761   3.729
 5647SOL    HW217400   3.026   4.652   3.792
 5648SOL     OW17401   3.686   3.916   4.951
 5648SOL    HW117402   3.682   3.826   4.995
 5648SOL    HW217403   3.689   3.905   4.852
 5649SOL     OW17404   2.290   4.148   4.244
 5649SOL    HW117405   2.320   4.076   4.182
 5649SOL    HW217406   2.251   4.108   4.327
 5650SOL     OW17407   2.179   4.271   5.004
 5650SOL    HW117408   2.217   4.212   5.076
 5650SOL    HW217409   2.219   4.245   4.916
 5651SOL     OW17410   3.286   3.938   4.836
 5651SOL    HW117411   3.338   3.873   4.891
 5651SOL    HW217412   3.237   4.001   4.897
 5652SOL     OW17413   2.863   3.758   4.878
 5652SOL    HW117414   2.800   3.686   4.847
 5652SOL    HW217415   2.956   3.722   4.878
 5653SOL     OW17416   3.214   3.776   3.892
 5653SOL    HW117417   3.249   3.735   3.808
 5653SOL    HW217418   3.124   3.738   3.912
 5654SOL     OW17419   3.162   4.177   4.415
 5654SOL    HW117420   3.103   4.257   4.419
 5654SOL    HW217421   3.177   4.142   4.508
 5655SOL     OW17422   3.455   3.945   4.606
 5655SOL    HW117423   3.371   3.944   4.660
 5655SOL    HW217424   3.457   4.028   4.550
 5656SOL     OW17425   2.092   4.352   5.699
 5656SOL    HW117426   1.999   4.350   5.736
 5656SOL    HW217427   2.093   4.313   5.607
 5657SOL     OW17428   2.087   3.999   6.582
 5657SOL    HW117429   2.122   3.982   6.674
 5657SOL    HW217430   1.999   3.954   6.570
 5658SOL     OW17431   1.881   4.092   6.233
 5658SOL    HW117432   1.799   4.135   6.272
 5658SOL    HW217433   1.853   4.019   6.170
 5659SOL     OW17434   3.617   4.331   5.817
 5659SOL    HW117435   3.605   4.318   5.718
 5659SOL    HW217436   3.587   4.250   5.866
 5660SOL     OW17437   2.547   4.736   6.251
 5660SOL    HW117438   2.616   4.720   6.321
 5660SOL    HW217439   2.474   4.793   6.289
 5661SOL     OW17440   2.300   4.116   7.085
 5661SOL    HW117441   2.382   4.060   7.094
 5661SOL    HW217442   2.219   4.058   7.089
 5662SOL     OW17443   3.465   4.171   6.323
 5662SOL    HW117444   3.391   4.217   6.273
 5662SOL    HW217445   3.516   4.239   6.376
 5663SOL     OW17446   3.456   3.838   7.066
 5663SOL    HW117447   3.438   3.905   6.994
 5663SOL    HW217448   3.453   3.884   7.155
 5664SOL     OW17449   1.984   4.367   6.149
 5664SOL    HW117450   1.939   4.279   6.166
 5664SOL    HW217451   1.983   4.421   6.233
 5665SOL     OW17452   1.975   4.461   7.183
 5665SOL    HW117453   2.063   4.448   7.228
 5665SOL    HW217454   1.962   4.558   7.161
 5666SOL     OW17455   2.671   3.728   6.088
 5666SOL    HW117456   2.711   3.819   6.079
 5666SOL    HW217457   2.571   3.736   6.094
 5667SOL     OW17458   2.179   3.975   7.387
 5667SOL    HW117459   2.250   4.046   7.393
 5667SOL    HW217460   2.091   4.014   7.415
 5668SOL     OW17461   3.143   4.069   6.530
 5668SOL    HW117462   3.057   4.019   6.517
 5668SOL    HW217463   3.205   4.015   6.586
 5669SOL     OW17464   2.669   4.329   7.051
 5669SOL    HW117465   2.622   4.326   7.140
 5669SOL    HW217466   2.618   4.274   6.985
 5670SOL     OW17467   3.256   4.193   7.260
 5670SOL    HW117468   3.236   4.236   7.348
 5670SOL    HW217469   3.334   4.131   7.269
 5671SOL     OW17470   2.853   4.134   6.828
 5671SOL    HW117471   2.776   4.168   6.882
 5671SOL    HW217472   2.819   4.083   6.749
 5672SOL     OW17473   2.903   4.425   6.015
 5672SOL    HW117474   2.929   4.421   6.111
 5672SOL    HW217475   2.818   4.374   6.001
 5673SOL     OW17476   2.727   4.072   5.781
 5673SOL    HW117477   2.786   4.135   5.732
 5673SOL    HW217478   2.746   3.978   5.752
 5674SOL     OW17479   3.581   4.309   7.417
 5674SOL    HW117480   3.555   4.398   7.381
 5674SOL    HW217481   3.579   4.241   7.344
 5675SOL     OW17482   2.412   3.920   6.471
 5675SOL    HW117483   2.407   3.915   6.571
 5675SOL    HW217484   2.414   4.016   6.442
 5676SOL     OW17485   3.320   4.459   6.314
 5676SOL    HW117486   3.315   4.394   6.389
 5676SOL    HW217487   3.400   4.518   6.327
 5677SOL     OW17488   2.064   4.009   7.084
 5677SOL    HW117489   1.984   4.069   7.071
 5677SOL    HW217490   2.054   3.960   7.170
 5678SOL     OW17491   3.262   3.831   6.012
 5678SOL    HW117492   3.238   3.794   5.922
 5678SOL    HW217493   3.361   3.847   6.016
 5679SOL     OW17494   2.244   4.424   6.066
 5679SOL    HW117495   2.289   4.334   6.063
 5679SOL    HW217496   2.150   4.413   6.099
 5680SOL     OW17497   3.409   3.946   7.315
 5680SOL    HW117498   3.404   3.983   7.407
 5680SOL    HW217499   3.337   3.877   7.303
 5681SOL     OW17500   2.476   3.846   5.703
 5681SOL    HW117501   2.574   3.824   5.710
 5681SOL    HW217502   2.445   3.829   5.610
 5682SOL     OW17503   2.643   3.988   7.335
 5682SOL    HW117504   2.710   3.927   7.378
 5682SOL    HW217505   2.570   4.007   7.400
 5683SOL     OW17506   3.213   4.314   7.019
 5683SOL    HW117507   3.241   4.271   7.104
 5683SOL    HW217508   3.238   4.410   7.020
 5684SOL     OW17509   2.784   4.227   6.485
 5684SOL    HW117510   2.759   4.218   6.389
 5684SOL    HW217511   2.832   4.145   6.516
 5685SOL     OW17512   2.401   3.788   6.098
 5685SOL    HW117513   2.320   3.789   6.156
 5685SOL    HW217514   2.404   3.871   6.043
 5686SOL     OW17515   2.159   3.759   5.757
 5686SOL    HW117516   2.208   3.843   5.736
 5686SOL    HW217517   2.221   3.694   5.802
 5687SOL     OW17518   2.797   3.960   6.066
 5687SOL    HW117519   2.749   4.001   5.988
 5687SOL    HW217520   2.896   3.958   6.047
 5688SOL     OW17521   2.938   4.407   7.050
 5688SOL    HW117522   2.858   4.346   7.053
 5688SOL    HW217523   3.019   4.354   7.026
 5689SOL     OW17524   2.894   4.273   5.602
 5689SOL    HW117525   2.853   4.355   5.563
 5689SOL    HW217526   2.958   4.299   5.675
 5690SOL     OW17527   1.940   4.280   6.972
 5690SOL    HW117528   2.032   4.279   6.931
 5690SOL    HW217529   1.934   4.354   7.039
 5691SOL     OW17530   2.423   3.946   6.733
 5691SOL    HW117531   2.461   3.862   6.770
 5691SOL    HW217532   2.335   3.965   6.777
 5692SOL     OW17533   2.728   4.178   6.228
 5692SOL    HW117534   2.696   4.250   6.166
 5692SOL    HW217535   2.752   4.097   6.175
 5693SOL     OW17536   2.879   3.763   6.339
 5693SOL    HW117537   2.807   3.768   6.270
 5693SOL    HW217538   2.855   3.694   6.408
 5694SOL     OW17539   3.328   4.314   6.578
 5694SOL    HW117540   3.298   4.219   6.585
 5694SOL    HW217541   3.401   4.330   6.644
 5695SOL     OW17542   3.252   4.299   5.664
 5695SOL    HW117543   3.198   4.278   5.745
 5695SOL    HW217544   3.343   4.258   5.673
 5696SOL     OW17545   2.389   3.980   5.914
 5696SOL    HW117546   2.416   3.921   5.839
 5696SOL    HW217547   2.389   4.075   5.883
 5697SOL     OW17548   2.777   3.813   6.988
 5697SOL    HW117549   2.802   3.793   6.893
 5697SOL    HW217550   2.849   3.869   7.030
 5698SOL     OW17551   2.272   4.537   6.837
 5698SOL    HW117552   2.358   4.549   6.887
 5698SOL    HW217553   2.230   4.450   6.864
 5699SOL     OW17554   3.136   4.110   6.848
 5699SOL    HW117555   3.157   4.184   6.912
 5699SOL    HW217556   3.047   4.127   6.805
 5700SOL     OW17557   2.428   4.261   6.451
 5700SOL    HW117558   2.440   4.327   6.377
 5700SOL    HW217559   2.474   4.295   6.534
 5701SOL     OW17560   3.444   4.363   6.058
 5701SOL    HW117561   3.413   4.424   6.131
 5701SOL    HW217562   3.494   4.415   5.989
 5702SOL     OW17563   2.875   3.829   7.356
 5702SOL    HW117564   2.881   3.914   7.304
 5702SOL    HW217565   2.907   3.753   7.299
 5703SOL     OW17566   2.366   3.774   7.326
 5703SOL    HW117567   2.324   3.717   7.256
 5703SOL    HW217568   2.300   3.843   7.358
 5704SOL     OW17569   3.071   4.249   5.861
 5704SOL    HW117570   3.084   4.165   5.915
 5704SOL    HW217571   3.042   4.323   5.921
 5705SOL     OW17572   2.169   3.937   6.817
 5705SOL    HW117573   2.146   3.974   6.907
 5705SOL    HW217574   2.139   3.842   6.811
 5706SOL     OW17575   2.594   4.358   6.650
 5706SOL    HW117576   2.653   4.332   6.574
 5706SOL    HW217577   2.566   4.454   6.639
 5707SOL     OW17578   3.590   4.659   7.440
 5707SOL    HW117579   3.544   4.652   7.351
 5707SOL    HW217580   3.528   4.703   7.506
 5708SOL     OW17581   2.169   3.787   6.204
 5708SOL    HW117582   2.158   3.881   6.237
 5708SOL    HW217583   2.164   3.724   6.281
 5709SOL     OW17584   3.484   4.091   5.960
 5709SOL    HW117585   3.486   4.015   6.024
 5709SOL    HW217586   3.436   4.168   6.000
 5710SOL     OW17587   3.402   3.998   5.711
 5710SOL    HW117588   3.341   3.923   5.734
 5710SOL    HW217589   3.424   4.050   5.794
 5711SOL     OW17590   2.181   4.534   6.535
 5711SOL    HW117591   2.274   4.570   6.540
 5711SOL    HW217592   2.175   4.449   6.587
 5712SOL     OW17593   2.201   4.233   6.592
 5712SOL    HW117594   2.149   4.150   6.575
 5712SOL    HW217595   2.278   4.238   6.528
 5713SOL     OW17596   3.000   4.104   7.264
 5713SOL    HW117597   2.955   4.167   7.328
 5713SOL    HW217598   3.093   4.135   7.247
 5714SOL     OW17599   3.022   3.931   7.063
 5714SOL    HW117600   3.022   3.995   7.140
 5714SOL    HW217601   3.050   3.979   6.980
 5715SOL     OW17602   1.902   4.268   6.700
 5715SOL    HW117603   1.987   4.235   6.659
 5715SOL    HW217604   1.915   4.283   6.798
 5716SOL     OW17605   2.051   4.244   7.308
 5716SOL    HW117606   2.110   4.204   7.238
 5716SOL    HW217607   1.993   4.315   7.267
 5717SOL     OW17608   2.677   4.296   5.911
 5717SOL    HW117609   2.684   4.207   5.865
 5717SOL    HW217610   2.583   4.330   5.903
 5718SOL     OW17611   3.519   4.328   6.792
 5718SOL    HW117612   3.481   4.259   6.854
 5718SOL    HW217613   3.601   4.292   6.748
 5719SOL     OW17614   2.533   4.188   6.855
 5719SOL    HW117615   2.499   4.099   6.825
 5719SOL    HW217616   2.559   4.242   6.775
 5720SOL     OW17617   2.335   4.224   5.777
 5720SOL    HW117618   2.396   4.304   5.781
 5720SOL    HW217619   2.240   4.255   5.784
 5721SOL     OW17620   3.588   3.859   6.109
 5721SOL    HW117621   3.661   3.842   6.042
 5721SOL    HW217622   3.557   3.772   6.147
 5722SOL     OW17623   3.142   4.651   6.258
 5722SOL    HW117624   3.202   4.570   6.260
 5722SOL    HW217625   3.182   4.720   6.198
 5723SOL     OW17626   3.703   3.899   6.549
 5723SOL    HW117627   3.742   3.814   6.513
 5723SOL    HW217628   3.605   3.901   6.530
 5724SOL     OW17629   2.125   4.050   6.306
 5724SOL    HW117630   2.046   4.101   6.272
 5724SOL    HW217631   2.116   4.035   6.404
 5725SOL     OW17632   2.778   4.634   5.877
 5725SOL    HW117633   2.841   4.672   5.809
 5725SOL    HW217634   2.818   4.551   5.916
 5726SOL     OW17635   2.901   4.822   6.282
 5726SOL    HW117636   2.831   4.775   6.336
 5726SOL    HW217637   2.960   4.754   6.239
 5727SOL     OW17638   2.876   3.960   6.557
 5727SOL    HW117639   2.868   3.924   6.464
 5727SOL    HW217640   2.874   3.884   6.622
 5728SOL     OW17641   3.571   4.109   6.967
 5728SOL    HW117642   3.644   4.178   6.971
 5728SOL    HW217643   3.599   4.034   6.908
 5729SOL     OW17644   2.534   3.927   7.075
 5729SOL    HW117645   2.624   3.911   7.035
 5729SOL    HW217646   2.542   3.932   7.174
 5730SOL     OW17647   1.937   4.069   5.619
 5730SOL    HW117648   1.845   4.041   5.590
 5730SOL    HW217649   1.968   4.146   5.563
 5731SOL     OW17650   1.934   3.890   5.904
 5731SOL    HW117651   1.917   3.973   5.850
 5731SOL    HW217652   2.024   3.853   5.882
 5732SOL     OW17653   2.578   4.289   7.294
 5732SOL    HW117654   2.597   4.354   7.368
 5732SOL    HW217655   2.638   4.209   7.303
 5733SOL     OW17656   3.087   4.049   6.035
 5733SOL    HW117657   3.152   3.975   6.024
 5733SOL    HW217658   3.107   4.099   6.119
 5734SOL     OW17659   3.639   4.066   7.228
 5734SOL    HW117660   3.622   4.097   7.134
 5734SOL    HW217661   3.555   4.029   7.266
 5735SOL     OW17662   2.945   4.708   5.673
 5735SOL    HW117663   2.922   4.761   5.591
 5735SOL    HW217664   3.026   4.652   5.654
 5736SOL     OW17665   3.686   3.916   6.813
 5736SOL    HW117666   3.682   3.826   6.857
 5736SOL    HW217667   3.689   3.905   6.714
 5737SOL     OW17668   2.290   4.148   6.106
 5737SOL    HW117669   2.320   4.076   6.044
 5737SOL    HW217670   2.251   4.108   6.189
 5738SOL     OW17671   2.179   4.271   6.866
 5738SOL    HW117672   2.217   4.212   6.938
 5738SOL    HW217673   2.219   4.245   6.778
 5739SOL     OW17674   3.286   3.938   6.698
 5739SOL    HW117675   3.338   3.873   6.753
 5739SOL    HW217676   3.237   4.001   6.759
 5740SOL     OW17677   2.863   3.758   6.740
 5740SOL    HW117678   2.800   3.686   6.709
 5740SOL    HW217679   2.956   3.722   6.740
 5741SOL     OW17680   3.214   3.776   5.754
 5741SOL    HW117681   3.249   3.735   5.670
 5741SOL    HW217682   3.124   3.738   5.774
 5742SOL     OW17683   3.162   4.177   6.277
 5742SOL    HW117684   3.103   4.257   6.281
 5742SOL    HW217685   3.177   4.142   6.370
 5743SOL     OW17686   3.455   3.945   6.468
 5743SOL    HW117687   3.371   3.944   6.522
 5743SOL    HW217688   3.457   4.028   6.412
 5744SOL     OW17689   2.092   4.352   7.561
 5744SOL    HW117690   1.999   4.350   7.598
 5744SOL    HW217691   2.093   4.313   7.469
 5745SOL     OW17692   2.087   3.999   8.444
 5745SOL    HW117693   2.122   3.982   8.536
 5745SOL    HW217694   1.999   3.954   8.432
 5746SOL     OW17695   1.881   4.092   8.095
 5746SOL    HW117696   1.799   4.135   8.134
 5746SOL    HW217697   1.853   4.019   8.032
 5747SOL     OW17698   3.617   4.331   7.679
 5747SOL    HW117699   3.605   4.318   7.580
 5747SOL    HW217700   3.587   4.250   7.728
 5748SOL     OW17701   2.547   4.736   8.113
 5748SOL    HW117702   2.616   4.720   8.183
 5748SOL    HW217703   2.474   4.793   8.151
 5749SOL     OW17704   2.300   4.116   8.947
 5749SOL    HW117705   2.382   4.060   8.956
 5749SOL    HW217706   2.219   4.058   8.951
 5750SOL     OW17707   3.465   4.171   8.185
 5750SOL    HW117708   3.391   4.217   8.135
 5750SOL    HW217709   3.516   4.239   8.238
 5751SOL     OW17710   3.456   3.838   8.928
 5751SOL    HW117711   3.438   3.905   8.856
 5751SOL    HW217712   3.453   3.884   9.017
 5752SOL     OW17713   1.984   4.367   8.011
 5752SOL    HW117714   1.939   4.279   8.028
 5752SOL    HW217715   1.983   4.421   8.095
 5753SOL     OW17716   1.975   4.461   9.045
 5753SOL    HW117717   2.063   4.448   9.090
 5753SOL    HW217718   1.962   4.558   9.023
 5754SOL     OW17719   2.671   3.728   7.950
 5754SOL    HW117720   2.711   3.819   7.941
 5754SOL    HW217721   2.571   3.736   7.956
 5755SOL     OW17722   2.179   3.975   9.249
 5755SOL    HW117723   2.250   4.046   9.255
 5755SOL    HW217724   2.091   4.014   9.277
 5756SOL     OW17725   3.143   4.069   8.392
 5756SOL    HW117726   3.057   4.019   8.379
 5756SOL    HW217727   3.205   4.015   8.448
 5757SOL     OW17728   2.669   4.329   8.913
 5757SOL    HW117729   2.622   4.326   9.002
 5757SOL    HW217730   2.618   4.274   8.847
 5758SOL     OW17731   3.256   4.193   9.122
 5758SOL    HW117732   3.236   4.236   9.210
 5758SOL    HW217733   3.334   4.131   9.131
 5759SOL     OW17734   2.853   4.134   8.690
 5759SOL    HW117735   2.776   4.168   8.744
 5759SOL    HW217736   2.819   4.083   8.611
 5760SOL     OW17737   2.903   4.425   7.877
 5760SOL    HW117738   2.929   4.421   7.973
 5760SOL    HW217739   2.818   4.374   7.863
 5761SOL     OW17740   2.727   4.072   7.643
 5761SOL    HW117741   2.786   4.135   7.594
 5761SOL    HW217742   2.746   3.978   7.614
 5762SOL     OW17743   3.581   4.309   9.279
 5762SOL    HW117744   3.555   4.398   9.243
 5762SOL    HW217745   3.579   4.241   9.206
 5763SOL     OW17746   2.412   3.920   8.333
 5763SOL    HW117747   2.407   3.915   8.433
 5763SOL    HW217748   2.414   4.016   8.304
 5764SOL     OW17749   3.320   4.459   8.176
 5764SOL    HW117750   3.315   4.394   8.251
 5764SOL    HW217751   3.400   4.518   8.189
 5765SOL     OW17752   2.064   4.009   8.946
 5765SOL    HW117753   1.984   4.069   8.933
 5765SOL    HW217754   2.054   3.960   9.032
 5766SOL     OW17755   3.262   3.831   7.874
 5766SOL    HW117756   3.238   3.794   7.784
 5766SOL    HW217757   3.361   3.847   7.878
 5767SOL     OW17758   2.244   4.424   7.928
 5767SOL    HW117759   2.289   4.334   7.925
 5767SOL    HW217760   2.150   4.413   7.961
 5768SOL     OW17761   3.409   3.946   9.177
 5768SOL    HW117762   3.404   3.983   9.269
 5768SOL    HW217763   3.337   3.877   9.165
 5769SOL     OW17764   2.476   3.846   7.565
 5769SOL    HW117765   2.574   3.824   7.572
 5769SOL    HW217766   2.445   3.829   7.472
 5770SOL     OW17767   2.643   3.988   9.197
 5770SOL    HW117768   2.710   3.927   9.240
 5770SOL    HW217769   2.570   4.007   9.262
 5771SOL     OW17770   3.213   4.314   8.881
 5771SOL    HW117771   3.241   4.271   8.966
 5771SOL    HW217772   3.238   4.410   8.882
 5772SOL     OW17773   2.784   4.227   8.347
 5772SOL    HW117774   2.759   4.218   8.251
 5772SOL    HW217775   2.832   4.145   8.378
 5773SOL     OW17776   2.401   3.788   7.960
 5773SOL    HW117777   2.320   3.789   8.018
 5773SOL    HW217778   2.404   3.871   7.905
 5774SOL     OW17779   2.159   3.759   7.619
 5774SOL    HW117780   2.208   3.843   7.598
 5774SOL    HW217781   2.221   3.694   7.664
 5775SOL     OW17782   2.797   3.960   7.928
 5775SOL    HW117783   2.749   4.001   7.850
 5775SOL    HW217784   2.896   3.958   7.909
 5776SOL     OW17785   2.938   4.407   8.912
 5776SOL    HW117786   2.858   4.346   8.915
 5776SOL    HW217787   3.019   4.354   8.888
 5777SOL     OW17788   2.894   4.273   7.464
 5777SOL    HW117789   2.853   4.355   7.425
 5777SOL    HW217790   2.958   4.299   7.537
 5778SOL     OW17791   1.940   4.280   8.834
 5778SOL    HW117792   2.032   4.279   8.793
 5778SOL    HW217793   1.934   4.354   8.901
 5779SOL     OW17794   2.423   3.946   8.595
 5779SOL    HW117795   2.461   3.862   8.632
 5779SOL    HW217796   2.335   3.965   8.639
 5780SOL     OW17797   2.728   4.178   8.090
 5780SOL    HW117798   2.696   4.250   8.028
 5780SOL    HW217799   2.752   4.097   8.037
 5781SOL     OW17800   2.879   3.763   8.201
 5781SOL    HW117801   2.807   3.768   8.132
 5781SOL    HW217802   2.855   3.694   8.270
 5782SOL     OW17803   3.328   4.314   8.440
 5782SOL    HW117804   3.298   4.219   8.447
 5782SOL    HW217805   3.401   4.330   8.506
 5783SOL     OW17806   3.252   4.299   7.526
 5783SOL    HW117807   3.198   4.278   7.607
 5783SOL    HW217808   3.343   4.258   7.535
 5784SOL     OW17809   2.389   3.980   7.776
 5784SOL    HW117810   2.416   3.921   7.701
 5784SOL    HW217811   2.389   4.075   7.745
 5785SOL     OW17812   2.777   3.813   8.850
 5785SOL    HW117813   2.802   3.793   8.755
 5785SOL    HW217814   2.849   3.869   8.892
 5786SOL     OW17815   2.272   4.537   8.699
 5786SOL    HW117816   2.358   4.549   8.749
 5786SOL    HW217817   2.230   4.450   8.726
 5787SOL     OW17818   3.136   4.110   8.710
 5787SOL    HW117819   3.157   4.184   8.774
 5787SOL    HW217820   3.047   4.127   8.667
 5788SOL     OW17821   2.428   4.261   8.313
 5788SOL    HW117822   2.440   4.327   8.239
 5788SOL    HW217823   2.474   4.295   8.396
 5789SOL     OW17824   3.444   4.363   7.920
 5789SOL    HW117825   3.413   4.424   7.993
 5789SOL    HW217826   3.494   4.415   7.851
 5790SOL     OW17827   2.875   3.829   9.218
 5790SOL    HW117828   2.881   3.914   9.166
 5790SOL    HW217829   2.907   3.753   9.161
 5791SOL     OW17830   2.366   3.774   9.188
 5791SOL    HW117831   2.324   3.717   9.118
 5791SOL    HW217832   2.300   3.843   9.220
 5792SOL     OW17833   3.071   4.249   7.723
 5792SOL    HW117834   3.084   4.165   7.777
 5792SOL    HW217835   3.042   4.323   7.783
 5793SOL     OW17836   2.169   3.937   8.679
 5793SOL    HW117837   2.146   3.974   8.769
 5793SOL    HW217838   2.139   3.842   8.673
 5794SOL     OW17839   2.594   4.358   8.512
 5794SOL    HW117840   2.653   4.332   8.436
 5794SOL    HW217841   2.566   4.454   8.501
 5795SOL     OW17842   3.590   4.659   9.302
 5795SOL    HW117843   3.544   4.652   9.213
 5795SOL    HW217844   3.528   4.703   9.368
 5796SOL     OW17845   2.169   3.787   8.066
 5796SOL    HW117846   2.158   3.881   8.099
 5796SOL    HW217847   2.164   3.724   8.143
 5797SOL     OW17848   3.484   4.091   7.822
 5797SOL    HW117849   3.486   4.015   7.886
 5797SOL    HW217850   3.436   4.168   7.862
 5798SOL     OW17851   3.402   3.998   7.573
 5798SOL    HW117852   3.341   3.923   7.596
 5798SOL    HW217853   3.424   4.050   7.656
 5799SOL     OW17854   2.181   4.534   8.397
 5799SOL    HW117855   2.274   4.570   8.402
 5799SOL    HW217856   2.175   4.449   8.449
 5800SOL     OW17857   2.201   4.233   8.454
 5800SOL    HW117858   2.149   4.150   8.437
 5800SOL    HW217859   2.278   4.238   8.390
 5801SOL     OW17860   3.000   4.104   9.126
 5801SOL    HW117861   2.955   4.167   9.190
 5801SOL    HW217862   3.093   4.135   9.109
 5802SOL     OW17863   3.022   3.931   8.925
 5802SOL    HW117864   3.022   3.995   9.002
 5802SOL    HW217865   3.050   3.979   8.842
 5803SOL     OW17866   1.902   4.268   8.562
 5803SOL    HW117867   1.987   4.235   8.521
 5803SOL    HW217868   1.915   4.283   8.660
 5804SOL     OW17869   2.051   4.244   9.170
 5804SOL    HW117870   2.110   4.204   9.100
 5804SOL    HW217871   1.993   4.315   9.129
 5805SOL     OW17872   2.677   4.296   7.773
 5805SOL    HW117873   2.684   4.207   7.727
 5805SOL    HW217874   2.583   4.330   7.765
 5806SOL     OW17875   3.519   4.328   8.654
 5806SOL    HW117876   3.481   4.259   8.716
 5806SOL    HW217877   3.601   4.292   8.610
 5807SOL     OW17878   2.533   4.188   8.717
 5807SOL    HW117879   2.499   4.099   8.687
 5807SOL    HW217880   2.559   4.242   8.637
 5808SOL     OW17881   2.335   4.224   7.639
 5808SOL    HW117882   2.396   4.304   7.643
 5808SOL    HW217883   2.240   4.255   7.646
 5809SOL     OW17884   3.588   3.859   7.971
 5809SOL    HW117885   3.661   3.842   7.904
 5809SOL    HW217886   3.557   3.772   8.009
 5810SOL     OW17887   3.142   4.651   8.120
 5810SOL    HW117888   3.202   4.570   8.122
 5810SOL    HW217889   3.182   4.720   8.060
 5811SOL     OW17890   3.703   3.899   8.411
 5811SOL    HW117891   3.742   3.814   8.375
 5811SOL    HW217892   3.605   3.901   8.392
 5812SOL     OW17893   2.125   4.050   8.168
 5812SOL    HW117894   2.046   4.101   8.134
 5812SOL    HW217895   2.116   4.035   8.266
 5813SOL     OW17896   2.778   4.634   7.739
 5813SOL    HW117897   2.841   4.672   7.671
 5813SOL    HW217898   2.818   4.551   7.778
 5814SOL     OW17899   2.901   4.822   8.144
 5814SOL    HW117900   2.831   4.775   8.198
 5814SOL    HW217901   2.960   4.754   8.101
 5815SOL     OW17902   2.876   3.960   8.419
 5815SOL    HW117903   2.868   3.924   8.326
 5815SOL    HW217904   2.874   3.884   8.484
 5816SOL     OW17905   3.571   4.109   8.829
 5816SOL    HW117906   3.644   4.178   8.833
 5816SOL    HW217907   3.599   4.034   8.770
 5817SOL     OW17908   2.534   3.927   8.937
 5817SOL    HW117909   2.624   3.911   8.897
 5817SOL    HW217910   2.542   3.932   9.036
 5818SOL     OW17911   1.937   4.069   7.481
 5818SOL    HW117912   1.845   4.041   7.452
 5818SOL    HW217913   1.968   4.146   7.425
 5819SOL     OW17914   1.934   3.890   7.766
 5819SOL    HW117915   1.917   3.973   7.712
 5819SOL    HW217916   2.024   3.853   7.744
 5820SOL     OW17917   2.578   4.289   9.156
 5820SOL    HW117918   2.597   4.354   9.230
 5820SOL    HW217919   2.638   4.209   9.165
 5821SOL     OW17920   3.087   4.049   7.897
 5821SOL    HW117921   3.152   3.975   7.886
 5821SOL    HW217922   3.107   4.099   7.981
 5822SOL     OW17923   3.639   4.066   9.090
 5822SOL    HW117924   3.622   4.097   8.996
 5822SOL    HW217925   3.555   4.029   9.128
 5823SOL     OW17926   2.945   4.708   7.535
 5823SOL    HW117927   2.922   4.761   7.453
 5823SOL    HW217928   3.026   4.652   7.516
 5824SOL     OW17929   3.686   3.916   8.675
 5824SOL    HW117930   3.682   3.826   8.719
 5824SOL    HW217931   3.689   3.905   8.576
 5825SOL     OW17932   2.290   4.148   7.968
 5825SOL    HW117933   2.320   4.076   7.906
 5825SOL    HW217934   2.251   4.108   8.051
 5826SOL     OW17935   2.179   4.271   8.728
 5826SOL    HW117936   2.217   4.212   8.800
 5826SOL    HW217937   2.219   4.245   8.640
 5827SOL     OW17938   3.286   3.938   8.560
 5827SOL    HW117939   3.338   3.873   8.615
 5827SOL    HW217940   3.237   4.001   8.621
 5828SOL     OW17941   2.863   3.758   8.602
 5828SOL    HW117942   2.800   3.686   8.571
 5828SOL    HW217943   2.956   3.722   8.602
 5829SOL     OW17944   3.214   3.776   7.616
 5829SOL    HW117945   3.249   3.735   7.532
 5829SOL    HW217946   3.124   3.738   7.636
 5830SOL     OW17947   3.162   4.177   8.139
 5830SOL    HW117948   3.103   4.257   8.143
 5830SOL    HW217949   3.177   4.142   8.232
 5831SOL     OW17950   3.455   3.945   8.330
 5831SOL    HW117951   3.371   3.944   8.384
 5831SOL    HW217952   3.457   4.028   8.274
 5832SOL     OW17953   2.092   4.352   9.423
 5832SOL    HW117954   1.999   4.350   9.460
 5832SOL    HW217955   2.093   4.313   9.331
 5833SOL     OW17956   2.087   3.999  10.306
 5833SOL    HW117957   2.122   3.982  10.398
 5833SOL    HW217958   1.999   3.954  10.294
 5834SOL     OW17959   1.881   4.092   9.957
 5834SOL    HW117960   1.799   4.135   9.996
 5834SOL    HW217961   1.853   4.019   9.894
 5835SOL     OW17962   3.617   4.331   9.541
 5835SOL    HW117963   3.605   4.318   9.442
 5835SOL    HW217964   3.587   4.250   9.590
 5836SOL     OW17965   2.547   4.736   9.975
 5836SOL    HW117966   2.616   4.720  10.045
 5836SOL    HW217967   2.474   4.793  10.013
 5837SOL     OW17968   2.300   4.116  10.809
 5837SOL    HW117969   2.382   4.060  10.818
 5837SOL    HW217970   2.219   4.058  10.813
 5838SOL     OW17971   3.465   4.171  10.047
 5838SOL    HW117972   3.391   4.217   9.997
 5838SOL    HW217973   3.516   4.239  10.100
 5839SOL     OW17974   3.456   3.838  10.790
 5839SOL    HW117975   3.438   3.905  10.718
 5839SOL    HW217976   3.453   3.884  10.879
 5840SOL     OW17977   1.984   4.367   9.873
 5840SOL    HW117978   1.939   4.279   9.890
 5840SOL    HW217979   1.983   4.421   9.957
 5841SOL     OW17980   1.975   4.461  10.907
 5841SOL    HW117981   2.063   4.448  10.952
 5841SOL    HW217982   1.962   4.558  10.885
 5842SOL     OW17983   2.671   3.728   9.812
 5842SOL    HW117984   2.711   3.819   9.803
 5842SOL    HW217985   2.571   3.736   9.818
 5843SOL     OW17986   2.179   3.975  11.111
 5843SOL    HW117987   2.250   4.046  11.117
 5843SOL    HW217988   2.091   4.014  11.139
 5844SOL     OW17989   3.143   4.069  10.254
 5844SOL    HW117990   3.057   4.019  10.241
 5844SOL    HW217991   3.205   4.015  10.310
 5845SOL     OW17992   2.669   4.329  10.775
 5845SOL    HW117993   2.622   4.326  10.864
 5845SOL    HW217994   2.618   4.274  10.709
 5846SOL     OW17995   2.853   4.134  10.552
 5846SOL    HW117996   2.776   4.168  10.606
 5846SOL    HW217997   2.819   4.083  10.473
 5847SOL     OW17998   2.903   4.425   9.739
 5847SOL    HW117999   2.929   4.421   9.835
 5847SOL    HW218000   2.818   4.374   9.725
 5848SOL     OW18001   2.727   4.072   9.505
 5848SOL    HW118002   2.786   4.135   9.456
 5848SOL    HW218003   2.746   3.978   9.476
 5849SOL     OW18004   2.412   3.920  10.195
 5849SOL    HW118005   2.407   3.915  10.295
 5849SOL    HW218006   2.414   4.016  10.166
 5850SOL     OW18007   3.320   4.459  10.038
 5850SOL    HW118008   3.315   4.394  10.113
 5850SOL    HW218009   3.400   4.518  10.051
 5851SOL     OW18010   2.064   4.009  10.808
 5851SOL    HW118011   1.984   4.069  10.795
 5851SOL    HW218012   2.054   3.960  10.894
 5852SOL     OW18013   3.262   3.831   9.736
 5852SOL    HW118014   3.238   3.794   9.646
 5852SOL    HW218015   3.361   3.847   9.740
 5853SOL     OW18016   2.244   4.424   9.790
 5853SOL    HW118017   2.289   4.334   9.787
 5853SOL    HW218018   2.150   4.413   9.823
 5854SOL     OW18019   2.476   3.846   9.427
 5854SOL    HW118020   2.574   3.824   9.434
 5854SOL    HW218021   2.445   3.829   9.334
 5855SOL     OW18022   2.643   3.988  11.059
 5855SOL    HW118023   2.710   3.927  11.102
 5855SOL    HW218024   2.570   4.007  11.124
 5856SOL     OW18025   3.213   4.314  10.743
 5856SOL    HW118026   3.241   4.271  10.828
 5856SOL    HW218027   3.238   4.410  10.744
 5857SOL     OW18028   2.784   4.227  10.209
 5857SOL    HW118029   2.759   4.218  10.113
 5857SOL    HW218030   2.832   4.145  10.240
 5858SOL     OW18031   2.401   3.788   9.822
 5858SOL    HW118032   2.320   3.789   9.880
 5858SOL    HW218033   2.404   3.871   9.767
 5859SOL     OW18034   2.159   3.759   9.481
 5859SOL    HW118035   2.208   3.843   9.460
 5859SOL    HW218036   2.221   3.694   9.526
 5860SOL     OW18037   2.797   3.960   9.790
 5860SOL    HW118038   2.749   4.001   9.712
 5860SOL    HW218039   2.896   3.958   9.771
 5861SOL     OW18040   2.938   4.407  10.774
 5861SOL    HW118041   2.858   4.346  10.777
 5861SOL    HW218042   3.019   4.354  10.750
 5862SOL     OW18043   2.894   4.273   9.326
 5862SOL    HW118044   2.853   4.355   9.287
 5862SOL    HW218045   2.958   4.299   9.399
 5863SOL     OW18046   1.940   4.280  10.696
 5863SOL    HW118047   2.032   4.279  10.655
 5863SOL    HW218048   1.934   4.354  10.763
 5864SOL     OW18049   2.423   3.946  10.457
 5864SOL    HW118050   2.461   3.862  10.494
 5864SOL    HW218051   2.335   3.965  10.501
 5865SOL     OW18052   2.728   4.178   9.952
 5865SOL    HW118053   2.696   4.250   9.890
 5865SOL    HW218054   2.752   4.097   9.899
 5866SOL     OW18055   2.879   3.763  10.063
 5866SOL    HW118056   2.807   3.768   9.994
 5866SOL    HW218057   2.855   3.694  10.132
 5867SOL     OW18058   3.328   4.314  10.302
 5867SOL    HW118059   3.298   4.219  10.309
 5867SOL    HW218060   3.401   4.330  10.368
 5868SOL     OW18061   3.252   4.299   9.388
 5868SOL    HW118062   3.198   4.278   9.469
 5868SOL    HW218063   3.343   4.258   9.397
 5869SOL     OW18064   2.389   3.980   9.638
 5869SOL    HW118065   2.416   3.921   9.563
 5869SOL    HW218066   2.389   4.075   9.607
 5870SOL     OW18067   2.777   3.813  10.712
 5870SOL    HW118068   2.802   3.793  10.617
 5870SOL    HW218069   2.849   3.869  10.754
 5871SOL     OW18070   2.272   4.537  10.561
 5871SOL    HW118071   2.358   4.549  10.611
 5871SOL    HW218072   2.230   4.450  10.588
 5872SOL     OW18073   3.136   4.110  10.572
 5872SOL    HW118074   3.157   4.184  10.636
 5872SOL    HW218075   3.047   4.127  10.529
 5873SOL     OW18076   2.428   4.261  10.175
 5873SOL    HW118077   2.440   4.327  10.101
 5873SOL    HW218078   2.474   4.295  10.258
 5874SOL     OW18079   3.444   4.363   9.782
 5874SOL    HW118080   3.413   4.424   9.855
 5874SOL    HW218081   3.494   4.415   9.713
 5875SOL     OW18082   2.264   4.475  10.908
 5875SOL    HW118083   2.332   4.530  10.861
 5875SOL    HW218084   2.304   4.387  10.935
 5876SOL     OW18085   3.071   4.249   9.585
 5876SOL    HW118086   3.084   4.165   9.639
 5876SOL    HW218087   3.042   4.323   9.645
 5877SOL     OW18088   2.169   3.937  10.541
 5877SOL    HW118089   2.146   3.974  10.631
 5877SOL    HW218090   2.139   3.842  10.535
 5878SOL     OW18091   2.594   4.358  10.374
 5878SOL    HW118092   2.653   4.332  10.298
 5878SOL    HW218093   2.566   4.454  10.363
 5879SOL     OW18094   2.169   3.787   9.928
 5879SOL    HW118095   2.158   3.881   9.961
 5879SOL    HW218096   2.164   3.724  10.005
 5880SOL     OW18097   3.484   4.091   9.684
 5880SOL    HW118098   3.486   4.015   9.748
 5880SOL    HW218099   3.436   4.168   9.724
 5881SOL     OW18100   3.402   3.998   9.435
 5881SOL    HW118101   3.341   3.923   9.458
 5881SOL    HW218102   3.424   4.050   9.518
 5882SOL     OW18103   2.181   4.534  10.259
 5882SOL    HW118104   2.274   4.570  10.264
 5882SOL    HW218105   2.175   4.449  10.311
 5883SOL     OW18106   2.201   4.233  10.316
 5883SOL    HW118107   2.149   4.150  10.299
 5883SOL    HW218108   2.278   4.238  10.252
 5884SOL     OW18109   3.022   3.931  10.787
 5884SOL    HW118110   3.022   3.995  10.864
 5884SOL    HW218111   3.050   3.979  10.704
 5885SOL     OW18112   1.902   4.268  10.424
 5885SOL    HW118113   1.987   4.235  10.383
 5885SOL    HW218114   1.915   4.283  10.522
 5886SOL     OW18115   3.231   4.674  10.970
 5886SOL    HW118116   3.270   4.763  10.990
 5886SOL    HW218117   3.241   4.654  10.873
 5887SOL     OW18118   2.677   4.296   9.635
 5887SOL    HW118119   2.684   4.207   9.589
 5887SOL    HW218120   2.583   4.330   9.627
 5888SOL     OW18121   3.519   4.328  10.516
 5888SOL    HW118122   3.481   4.259  10.578
 5888SOL    HW218123   3.601   4.292  10.472
 5889SOL     OW18124   2.533   4.188  10.579
 5889SOL    HW118125   2.499   4.099  10.549
 5889SOL    HW218126   2.559   4.242  10.499
 5890SOL     OW18127   2.335   4.224   9.501
 5890SOL    HW118128   2.396   4.304   9.505
 5890SOL    HW218129   2.240   4.255   9.508
 5891SOL     OW18130   3.588   3.859   9.833
 5891SOL    HW118131   3.661   3.842   9.766
 5891SOL    HW218132   3.557   3.772   9.871
 5892SOL     OW18133   3.142   4.651   9.982
 5892SOL    HW118134   3.202   4.570   9.984
 5892SOL    HW218135   3.182   4.720   9.922
 5893SOL     OW18136   3.703   3.899  10.273
 5893SOL    HW118137   3.742   3.814  10.237
 5893SOL    HW218138   3.605   3.901  10.254
 5894SOL     OW18139   2.125   4.050  10.030
 5894SOL    HW118140   2.046   4.101   9.996
 5894SOL    HW218141   2.116   4.035  10.128
 5895SOL     OW18142   2.778   4.634   9.601
 5895SOL    HW118143   2.841   4.672   9.533
 5895SOL    HW218144   2.818   4.551   9.640
 5896SOL     OW18145   2.901   4.822  10.006
 5896SOL    HW118146   2.831   4.775  10.060
 5896SOL    HW218147   2.960   4.754   9.963
 5897SOL     OW18148   2.876   3.960  10.281
 5897SOL    HW118149   2.868   3.924  10.188
 5897SOL    HW218150   2.874   3.884  10.346
 5898SOL     OW18151   3.571   4.109  10.691
 5898SOL    HW118152   3.644   4.178  10.695
 5898SOL    HW218153   3.599   4.034  10.632
 5899SOL     OW18154   2.534   3.927  10.799
 5899SOL    HW118155   2.624   3.911  10.759
 5899SOL    HW218156   2.542   3.932  10.898
 5900SOL     OW18157   1.937   4.069   9.343
 5900SOL    HW118158   1.845   4.041   9.314
 5900SOL    HW218159   1.968   4.146   9.287
 5901SOL     OW18160   1.934   3.890   9.628
 5901SOL    HW118161   1.917   3.973   9.574
 5901SOL    HW218162   2.024   3.853   9.606
 5902SOL     OW18163   2.578   4.289  11.018
 5902SOL    HW118164   2.597   4.354  11.092
 5902SOL    HW218165   2.638   4.209  11.027
 5903SOL     OW18166   3.087   4.049   9.759
 5903SOL    HW118167   3.152   3.975   9.748
 5903SOL    HW218168   3.107   4.099   9.843
 5904SOL     OW18169   3.639   4.066  10.952
 5904SOL    HW118170   3.622   4.097  10.858
 5904SOL    HW218171   3.555   4.029  10.990
 5905SOL     OW18172   2.945   4.708   9.397
 5905SOL    HW118173   2.922   4.761   9.315
 5905SOL    HW218174   3.026   4.652   9.378
 5906SOL     OW18175   3.686   3.916  10.537
 5906SOL    HW118176   3.682   3.826  10.581
 5906SOL    HW218177   3.689   3.905  10.438
 5907SOL     OW18178   2.290   4.148   9.830
 5907SOL    HW118179   2.320   4.076   9.768
 5907SOL    HW218180   2.251   4.108   9.913
 5908SOL     OW18181   2.179   4.271  10.590
 5908SOL    HW118182   2.217   4.212  10.662
 5908SOL    HW218183   2.219   4.245  10.502
 5909SOL     OW18184   3.286   3.938  10.422
 5909SOL    HW118185   3.338   3.873  10.477
 5909SOL    HW218186   3.237   4.001  10.483
 5910SOL     OW18187   2.863   3.758  10.464
 5910SOL    HW118188   2.800   3.686  10.433
 5910SOL    HW218189   2.956   3.722  10.464
 5911SOL     OW18190   3.214   3.776   9.478
 5911SOL    HW118191   3.249   3.735   9.394
 5911SOL    HW218192   3.124   3.738   9.498
 5912SOL     OW18193   3.162   4.177  10.001
 5912SOL    HW118194   3.103   4.257  10.005
 5912SOL    HW218195   3.177   4.142  10.094
 5913SOL     OW18196   3.455   3.945  10.192
 5913SOL    HW118197   3.371   3.944  10.246
 5913SOL    HW218198   3.457   4.028  10.136
 5914SOL     OW18199   3.954   0.628   0.113
 5914SOL    HW118200   3.861   0.626   0.150
 5914SOL    HW218201   3.955   0.589   0.021
 5915SOL     OW18202   3.949   0.275   0.996
 5915SOL    HW118203   3.984   0.258   1.088
 5915SOL    HW218204   3.861   0.230   0.984
 5916SOL     OW18205   3.743   0.368   0.647
 5916SOL    HW118206   3.661   0.411   0.686
 5916SOL    HW218207   3.715   0.295   0.584
 5917SOL     OW18208   4.293   1.275   1.165
 5917SOL    HW118209   4.200   1.268   1.128
 5917SOL    HW218210   4.304   1.364   1.209
 5918SOL     OW18211   4.574   0.798   1.823
 5918SOL    HW118212   4.570   0.874   1.888
 5918SOL    HW218213   4.596   0.834   1.732
 5919SOL     OW18214   4.409   1.012   0.665
 5919SOL    HW118215   4.478   0.996   0.735
 5919SOL    HW218216   4.336   1.069   0.703
 5920SOL     OW18217   4.410   1.161   1.803
 5920SOL    HW118218   4.470   1.240   1.817
 5920SOL    HW218219   4.324   1.192   1.762
 5921SOL     OW18220   4.059   1.435   1.061
 5921SOL    HW118221   3.981   1.404   1.008
 5921SOL    HW218222   4.117   1.493   1.004
 5922SOL     OW18223   4.162   0.392   1.499
 5922SOL    HW118224   4.244   0.336   1.508
 5922SOL    HW218225   4.081   0.334   1.503
 5923SOL     OW18226   3.955   1.713   0.483
 5923SOL    HW118227   3.989   1.790   0.537
 5923SOL    HW218228   3.999   1.713   0.393
 5924SOL     OW18229   3.954   1.434   0.538
 5924SOL    HW118230   3.928   1.530   0.538
 5924SOL    HW218231   3.883   1.380   0.583
 5925SOL     OW18232   3.964   1.091   0.886
 5925SOL    HW118233   3.978   1.007   0.938
 5925SOL    HW218234   3.909   1.155   0.941
 5926SOL     OW18235   4.344   1.786   1.439
 5926SOL    HW118236   4.252   1.769   1.474
 5926SOL    HW218237   4.372   1.878   1.465
 5927SOL     OW18238   4.330   0.964   0.123
 5927SOL    HW118239   4.337   1.048   0.069
 5927SOL    HW218240   4.376   0.977   0.211
 5928SOL     OW18241   3.846   0.643   0.563
 5928SOL    HW118242   3.801   0.555   0.580
 5928SOL    HW218243   3.845   0.697   0.647
 5929SOL     OW18244   3.751   1.596   0.117
 5929SOL    HW118245   3.732   1.500   0.138
 5929SOL    HW218246   3.718   1.654   0.192
 5930SOL     OW18247   3.837   0.737   1.597
 5930SOL    HW118248   3.925   0.724   1.642
 5930SOL    HW218249   3.824   0.834   1.575
 5931SOL     OW18250   4.337   1.365   0.726
 5931SOL    HW118251   4.288   1.278   0.735
 5931SOL    HW218252   4.314   1.408   0.639
 5932SOL     OW18253   4.533   0.004   0.502
 5932SOL    HW118254   4.573   0.095   0.493
 5932SOL    HW218255   4.433   0.012   0.508
 5933SOL     OW18256   3.921   0.976   1.264
 5933SOL    HW118257   4.010   0.931   1.250
 5933SOL    HW218258   3.848   0.911   1.245
 5934SOL     OW18259   4.041   0.251   1.801
 5934SOL    HW118260   4.112   0.322   1.807
 5934SOL    HW218261   3.953   0.290   1.829
 5935SOL     OW18262   4.322   0.729   0.270
 5935SOL    HW118263   4.346   0.798   0.202
 5935SOL    HW218264   4.244   0.762   0.324
 5936SOL     OW18265   3.800   0.811   0.789
 5936SOL    HW118266   3.899   0.799   0.798
 5936SOL    HW218267   3.776   0.906   0.810
 5937SOL     OW18268   3.854   1.821   1.571
 5937SOL    HW118269   3.844   1.806   1.670
 5937SOL    HW218270   3.768   1.857   1.535
 5938SOL     OW18271   4.274   0.196   0.885
 5938SOL    HW118272   4.269   0.191   0.985
 5938SOL    HW218273   4.276   0.292   0.856
 5939SOL     OW18274   4.075   1.801   0.853
 5939SOL    HW118275   4.125   1.715   0.859
 5939SOL    HW218276   4.140   1.878   0.850
 5940SOL     OW18277   4.045   0.943   0.242
 5940SOL    HW118278   4.127   0.982   0.200
 5940SOL    HW218279   4.018   0.861   0.193
 5941SOL     OW18280   4.185   1.266   1.727
 5941SOL    HW118281   4.135   1.267   1.641
 5941SOL    HW218282   4.122   1.248   1.803
 5942SOL     OW18283   3.926   0.285   1.498
 5942SOL    HW118284   3.846   0.345   1.485
 5942SOL    HW218285   3.916   0.236   1.584
 5943SOL     OW18286   4.188   1.743   0.323
 5943SOL    HW118287   4.221   1.782   0.409
 5943SOL    HW218288   4.264   1.736   0.258
 5944SOL     OW18289   3.973   1.785   1.241
 5944SOL    HW118290   4.030   1.720   1.291
 5944SOL    HW218291   3.957   1.752   1.148
 5945SOL     OW18292   4.106   0.700   0.480
 5945SOL    HW118293   4.151   0.610   0.477
 5945SOL    HW218294   4.012   0.689   0.513
 5946SOL     OW18295   4.338   0.122   0.117
 5946SOL    HW118296   4.436   0.100   0.124
 5946SOL    HW218297   4.307   0.105   0.024
 5947SOL     OW18298   4.527   1.402   0.924
 5947SOL    HW118299   4.617   1.416   0.882
 5947SOL    HW218300   4.456   1.404   0.853
 5948SOL     OW18301   4.263   0.064   0.512
 5948SOL    HW118302   4.182   0.065   0.570
 5948SOL    HW218303   4.266   0.147   0.457
 5949SOL     OW18304   4.021   0.035   0.171
 5949SOL    HW118305   4.070   0.119   0.150
 5949SOL    HW218306   4.083  -0.030   0.216
 5950SOL     OW18307   4.800   0.683   1.464
 5950SOL    HW118308   4.720   0.622   1.467
 5950SOL    HW218309   4.881   0.630   1.440
 5951SOL     OW18310   4.183   1.152   0.741
 5951SOL    HW118311   4.112   1.125   0.806
 5951SOL    HW218312   4.157   1.124   0.648
 5952SOL     OW18313   3.802   0.556   1.386
 5952SOL    HW118314   3.894   0.555   1.345
 5952SOL    HW218315   3.796   0.630   1.453
 5953SOL     OW18316   4.285   0.222   1.147
 5953SOL    HW118317   4.323   0.138   1.184
 5953SOL    HW218318   4.197   0.241   1.191
 5954SOL     OW18319   4.212   1.385   0.174
 5954SOL    HW118320   4.125   1.370   0.221
 5954SOL    HW218321   4.195   1.411   0.079
 5955SOL     OW18322   4.251   0.256   0.328
 5955SOL    HW118323   4.278   0.197   0.253
 5955SOL    HW218324   4.251   0.351   0.297
 5956SOL     OW18325   4.134   0.813   1.251
 5956SOL    HW118326   4.220   0.825   1.301
 5956SOL    HW218327   4.092   0.726   1.278
 5957SOL     OW18328   3.788   1.564   1.331
 5957SOL    HW118329   3.742   1.646   1.297
 5957SOL    HW218330   3.886   1.583   1.340
 5958SOL     OW18331   4.091   1.100   0.501
 5958SOL    HW118332   4.084   1.183   0.445
 5958SOL    HW218333   4.095   1.020   0.441
 5959SOL     OW18334   4.290   0.537   0.865
 5959SOL    HW118335   4.302   0.603   0.791
 5959SOL    HW218336   4.336   0.571   0.948
 5960SOL     OW18337   4.078   1.510   1.329
 5960SOL    HW118338   4.057   1.466   1.242
 5960SOL    HW218339   4.175   1.536   1.332
 5961SOL     OW18340   4.126   0.751   1.598
 5961SOL    HW118341   4.194   0.806   1.551
 5961SOL    HW218342   4.166   0.663   1.625
 5962SOL     OW18343   4.228   0.050   1.740
 5962SOL    HW118344   4.186  -0.007   1.670
 5962SOL    HW218345   4.162   0.119   1.772
 5963SOL     OW18346   4.297   0.870   1.029
 5963SOL    HW118347   4.341   0.959   1.020
 5963SOL    HW218348   4.234   0.870   1.106
 5964SOL     OW18349   4.031   0.213   1.231
 5964SOL    HW118350   4.008   0.250   1.321
 5964SOL    HW218351   4.001   0.118   1.225
 5965SOL     OW18352   3.761   1.310   1.282
 5965SOL    HW118353   3.814   1.261   1.350
 5965SOL    HW218354   3.783   1.408   1.287
 5966SOL     OW18355   4.031   0.063   0.618
 5966SOL    HW118356   4.020   0.157   0.651
 5966SOL    HW218357   4.026   0.000   0.695
 5967SOL     OW18358   4.074   0.898   1.804
 5967SOL    HW118359   4.150   0.942   1.852
 5967SOL    HW218360   4.109   0.851   1.722
 5968SOL     OW18361   4.043   0.810   0.949
 5968SOL    HW118362   4.136   0.846   0.954
 5968SOL    HW218363   4.037   0.725   1.001
 5969SOL     OW18364   4.063   0.509   1.006
 5969SOL    HW118365   4.011   0.426   0.989
 5969SOL    HW218366   4.140   0.514   0.942
 5970SOL     OW18367   3.732   1.326   0.200
 5970SOL    HW118368   3.639   1.347   0.169
 5970SOL    HW218369   3.742   1.227   0.213
 5971SOL     OW18370   3.812   1.801   0.927
 5971SOL    HW118371   3.770   1.715   0.900
 5971SOL    HW218372   3.906   1.804   0.893
 5972SOL     OW18373   4.228   1.568   0.910
 5972SOL    HW118374   4.294   1.642   0.919
 5972SOL    HW218375   4.272   1.489   0.868
 5973SOL     OW18376   3.764   0.544   1.114
 5973SOL    HW118377   3.849   0.511   1.073
 5973SOL    HW218378   3.777   0.559   1.212
 5974SOL     OW18379   3.913   0.520   1.722
 5974SOL    HW118380   3.972   0.480   1.652
 5974SOL    HW218381   3.855   0.591   1.681
 5975SOL     OW18382   4.539   0.572   0.325
 5975SOL    HW118383   4.546   0.483   0.279
 5975SOL    HW218384   4.445   0.606   0.317
 5976SOL     OW18385   3.976   1.564   1.744
 5976SOL    HW118386   3.946   1.621   1.820
 5976SOL    HW218387   3.969   1.467   1.770
 5977SOL     OW18388   4.197   0.500   0.191
 5977SOL    HW118389   4.258   0.580   0.195
 5977SOL    HW218390   4.102   0.531   0.198
 5978SOL     OW18391   3.883   1.137   1.466
 5978SOL    HW118392   3.905   1.076   1.542
 5978SOL    HW218393   3.893   1.088   1.380
 5979SOL     OW18394   3.807   1.258   1.022
 5979SOL    HW118395   3.802   1.257   1.122
 5979SOL    HW218396   3.724   1.217   0.984
 5980SOL     OW18397   4.412   1.662   1.716
 5980SOL    HW118398   4.356   1.743   1.725
 5980SOL    HW218399   4.464   1.666   1.630
 5981SOL     OW18400   3.854   1.794   1.851
 5981SOL    HW118401   3.813   1.720   1.904
 5981SOL    HW218402   3.918   1.845   1.909
 5982SOL     OW18403   3.987   0.326   0.720
 5982SOL    HW118404   3.908   0.377   0.686
 5982SOL    HW218405   3.978   0.311   0.818
 5983SOL     OW18406   4.096   1.288   1.490
 5983SOL    HW118407   4.083   1.381   1.456
 5983SOL    HW218408   4.012   1.236   1.477
 5984SOL     OW18409   4.314   1.487   0.491
 5984SOL    HW118410   4.356   1.429   0.421
 5984SOL    HW218411   4.270   1.566   0.447
 5985SOL     OW18412   3.979   1.348   0.290
 5985SOL    HW118413   3.883   1.349   0.263
 5985SOL    HW218414   3.991   1.401   0.374
 5986SOL     OW18415   3.829   1.013   1.726
 5986SOL    HW118416   3.752   0.980   1.780
 5986SOL    HW218417   3.914   0.983   1.768
 5987SOL     OW18418   4.396   0.203   1.489
 5987SOL    HW118419   4.486   0.187   1.449
 5987SOL    HW218420   4.404   0.208   1.588
 5988SOL     OW18421   3.799   0.345   0.033
 5988SOL    HW118422   3.707   0.317   0.004
 5988SOL    HW218423   3.830   0.422  -0.023
 5989SOL     OW18424   3.796   0.166   0.318
 5989SOL    HW118425   3.779   0.249   0.264
 5989SOL    HW218426   3.886   0.129   0.296
 5990SOL     OW18427   4.337   0.842   1.431
 5990SOL    HW118428   4.393   0.923   1.414
 5990SOL    HW218429   4.396   0.762   1.434
 5991SOL     OW18430   4.440   0.565   1.708
 5991SOL    HW118431   4.459   0.630   1.782
 5991SOL    HW218432   4.500   0.485   1.717
 5992SOL     OW18433   4.114   1.741   1.560
 5992SOL    HW118434   4.023   1.782   1.558
 5992SOL    HW218435   4.107   1.647   1.592
 5993SOL     OW18436   4.318   0.745   0.652
 5993SOL    HW118437   4.368   0.830   0.633
 5993SOL    HW218438   4.230   0.747   0.604
 5994SOL     OW18439   3.945   1.314   1.844
 5994SOL    HW118440   3.880   1.241   1.823
 5994SOL    HW218441   3.949   1.328   1.942
 5995SOL     OW18442   3.803   1.240   0.653
 5995SOL    HW118443   3.802   1.193   0.741
 5995SOL    HW218444   3.885   1.212   0.602
 5996SOL     OW18445   4.396   1.391   1.624
 5996SOL    HW118446   4.318   1.341   1.662
 5996SOL    HW218447   4.393   1.486   1.655
 5997SOL     OW18448   4.152   0.424   0.520
 5997SOL    HW118449   4.182   0.352   0.458
 5997SOL    HW218450   4.113   0.384   0.603
 5998SOL     OW18451   4.041   0.547   1.280
 5998SOL    HW118452   4.079   0.488   1.352
 5998SOL    HW218453   4.081   0.521   1.192
 5999SOL     OW18454   4.536   1.586   0.687
 5999SOL    HW118455   4.568   1.596   0.593
 5999SOL    HW218456   4.457   1.524   0.689
 6000SOL     OW18457   3.763   1.077   0.300
 6000SOL    HW118458   3.862   1.066   0.291
 6000SOL    HW218459   3.723   0.991   0.332
 6001SOL     OW18460   3.954   0.628   1.975
 6001SOL    HW118461   3.861   0.626   2.012
 6001SOL    HW218462   3.955   0.589   1.883
 6002SOL     OW18463   3.949   0.275   2.858
 6002SOL    HW118464   3.984   0.258   2.950
 6002SOL    HW218465   3.861   0.230   2.846
 6003SOL     OW18466   3.743   0.368   2.509
 6003SOL    HW118467   3.661   0.411   2.548
 6003SOL    HW218468   3.715   0.295   2.446
 6004SOL     OW18469   4.293   1.275   3.027
 6004SOL    HW118470   4.200   1.268   2.990
 6004SOL    HW218471   4.304   1.364   3.071
 6005SOL     OW18472   4.574   0.798   3.685
 6005SOL    HW118473   4.570   0.874   3.750
 6005SOL    HW218474   4.596   0.834   3.594
 6006SOL     OW18475   4.409   1.012   2.527
 6006SOL    HW118476   4.478   0.996   2.597
 6006SOL    HW218477   4.336   1.069   2.565
 6007SOL     OW18478   4.410   1.161   3.665
 6007SOL    HW118479   4.470   1.240   3.679
 6007SOL    HW218480   4.324   1.192   3.624
 6008SOL     OW18481   4.059   1.435   2.923
 6008SOL    HW118482   3.981   1.404   2.870
 6008SOL    HW218483   4.117   1.493   2.866
 6009SOL     OW18484   4.162   0.392   3.361
 6009SOL    HW118485   4.244   0.336   3.370
 6009SOL    HW218486   4.081   0.334   3.365
 6010SOL     OW18487   3.955   1.713   2.345
 6010SOL    HW118488   3.989   1.790   2.399
 6010SOL    HW218489   3.999   1.713   2.255
 6011SOL     OW18490   3.954   1.434   2.400
 6011SOL    HW118491   3.928   1.530   2.400
 6011SOL    HW218492   3.883   1.380   2.445
 6012SOL     OW18493   3.964   1.091   2.748
 6012SOL    HW118494   3.978   1.007   2.800
 6012SOL    HW218495   3.909   1.155   2.803
 6013SOL     OW18496   4.344   1.786   3.301
 6013SOL    HW118497   4.252   1.769   3.336
 6013SOL    HW218498   4.372   1.878   3.327
 6014SOL     OW18499   4.330   0.964   1.985
 6014SOL    HW118500   4.337   1.048   1.931
 6014SOL    HW218501   4.376   0.977   2.073
 6015SOL     OW18502   3.846   0.643   2.425
 6015SOL    HW118503   3.801   0.555   2.442
 6015SOL    HW218504   3.845   0.697   2.509
 6016SOL     OW18505   3.751   1.596   1.979
 6016SOL    HW118506   3.732   1.500   2.000
 6016SOL    HW218507   3.718   1.654   2.054
 6017SOL     OW18508   3.837   0.737   3.459
 6017SOL    HW118509   3.925   0.724   3.504
 6017SOL    HW218510   3.824   0.834   3.437
 6018SOL     OW18511   4.337   1.365   2.588
 6018SOL    HW118512   4.288   1.278   2.597
 6018SOL    HW218513   4.314   1.408   2.501
 6019SOL     OW18514   4.533   0.004   2.364
 6019SOL    HW118515   4.573   0.095   2.355
 6019SOL    HW218516   4.433   0.012   2.370
 6020SOL     OW18517   3.921   0.976   3.126
 6020SOL    HW118518   4.010   0.931   3.112
 6020SOL    HW218519   3.848   0.911   3.107
 6021SOL     OW18520   4.041   0.251   3.663
 6021SOL    HW118521   4.112   0.322   3.669
 6021SOL    HW218522   3.953   0.290   3.691
 6022SOL     OW18523   4.322   0.729   2.132
 6022SOL    HW118524   4.346   0.798   2.064
 6022SOL    HW218525   4.244   0.762   2.186
 6023SOL     OW18526   3.800   0.811   2.651
 6023SOL    HW118527   3.899   0.799   2.660
 6023SOL    HW218528   3.776   0.906   2.672
 6024SOL     OW18529   3.854   1.821   3.433
 6024SOL    HW118530   3.844   1.806   3.532
 6024SOL    HW218531   3.768   1.857   3.397
 6025SOL     OW18532   4.274   0.196   2.747
 6025SOL    HW118533   4.269   0.191   2.847
 6025SOL    HW218534   4.276   0.292   2.718
 6026SOL     OW18535   4.075   1.801   2.715
 6026SOL    HW118536   4.125   1.715   2.721
 6026SOL    HW218537   4.140   1.878   2.712
 6027SOL     OW18538   4.045   0.943   2.104
 6027SOL    HW118539   4.127   0.982   2.062
 6027SOL    HW218540   4.018   0.861   2.055
 6028SOL     OW18541   4.185   1.266   3.589
 6028SOL    HW118542   4.135   1.267   3.503
 6028SOL    HW218543   4.122   1.248   3.665
 6029SOL     OW18544   3.926   0.285   3.360
 6029SOL    HW118545   3.846   0.345   3.347
 6029SOL    HW218546   3.916   0.236   3.446
 6030SOL     OW18547   4.188   1.743   2.185
 6030SOL    HW118548   4.221   1.782   2.271
 6030SOL    HW218549   4.264   1.736   2.120
 6031SOL     OW18550   3.973   1.785   3.103
 6031SOL    HW118551   4.030   1.720   3.153
 6031SOL    HW218552   3.957   1.752   3.010
 6032SOL     OW18553   4.106   0.700   2.342
 6032SOL    HW118554   4.151   0.610   2.339
 6032SOL    HW218555   4.012   0.689   2.375
 6033SOL     OW18556   4.338   0.122   1.979
 6033SOL    HW118557   4.436   0.100   1.986
 6033SOL    HW218558   4.307   0.105   1.886
 6034SOL     OW18559   4.527   1.402   2.786
 6034SOL    HW118560   4.617   1.416   2.744
 6034SOL    HW218561   4.456   1.404   2.715
 6035SOL     OW18562   4.263   0.064   2.374
 6035SOL    HW118563   4.182   0.065   2.432
 6035SOL    HW218564   4.266   0.147   2.319
 6036SOL     OW18565   4.021   0.035   2.033
 6036SOL    HW118566   4.070   0.119   2.012
 6036SOL    HW218567   4.083  -0.030   2.078
 6037SOL     OW18568   4.800   0.683   3.326
 6037SOL    HW118569   4.720   0.622   3.329
 6037SOL    HW218570   4.881   0.630   3.302
 6038SOL     OW18571   4.183   1.152   2.603
 6038SOL    HW118572   4.112   1.125   2.668
 6038SOL    HW218573   4.157   1.124   2.510
 6039SOL     OW18574   3.802   0.556   3.248
 6039SOL    HW118575   3.894   0.555   3.207
 6039SOL    HW218576   3.796   0.630   3.315
 6040SOL     OW18577   4.285   0.222   3.009
 6040SOL    HW118578   4.323   0.138   3.046
 6040SOL    HW218579   4.197   0.241   3.053
 6041SOL     OW18580   4.212   1.385   2.036
 6041SOL    HW118581   4.125   1.370   2.083
 6041SOL    HW218582   4.195   1.411   1.941
 6042SOL     OW18583   4.251   0.256   2.190
 6042SOL    HW118584   4.278   0.197   2.115
 6042SOL    HW218585   4.251   0.351   2.159
 6043SOL     OW18586   4.134   0.813   3.113
 6043SOL    HW118587   4.220   0.825   3.163
 6043SOL    HW218588   4.092   0.726   3.140
 6044SOL     OW18589   3.788   1.564   3.193
 6044SOL    HW118590   3.742   1.646   3.159
 6044SOL    HW218591   3.886   1.583   3.202
 6045SOL     OW18592   4.091   1.100   2.363
 6045SOL    HW118593   4.084   1.183   2.307
 6045SOL    HW218594   4.095   1.020   2.303
 6046SOL     OW18595   4.290   0.537   2.727
 6046SOL    HW118596   4.302   0.603   2.653
 6046SOL    HW218597   4.336   0.571   2.810
 6047SOL     OW18598   4.078   1.510   3.191
 6047SOL    HW118599   4.057   1.466   3.104
 6047SOL    HW218600   4.175   1.536   3.194
 6048SOL     OW18601   4.126   0.751   3.460
 6048SOL    HW118602   4.194   0.806   3.413
 6048SOL    HW218603   4.166   0.663   3.487
 6049SOL     OW18604   4.228   0.050   3.602
 6049SOL    HW118605   4.186  -0.007   3.532
 6049SOL    HW218606   4.162   0.119   3.634
 6050SOL     OW18607   4.297   0.870   2.891
 6050SOL    HW118608   4.341   0.959   2.882
 6050SOL    HW218609   4.234   0.870   2.968
 6051SOL     OW18610   4.031   0.213   3.093
 6051SOL    HW118611   4.008   0.250   3.183
 6051SOL    HW218612   4.001   0.118   3.087
 6052SOL     OW18613   3.761   1.310   3.144
 6052SOL    HW118614   3.814   1.261   3.212
 6052SOL    HW218615   3.783   1.408   3.149
 6053SOL     OW18616   4.031   0.063   2.480
 6053SOL    HW118617   4.020   0.157   2.513
 6053SOL    HW218618   4.026   0.000   2.557
 6054SOL     OW18619   4.074   0.898   3.666
 6054SOL    HW118620   4.150   0.942   3.714
 6054SOL    HW218621   4.109   0.851   3.584
 6055SOL     OW18622   4.043   0.810   2.811
 6055SOL    HW118623   4.136   0.846   2.816
 6055SOL    HW218624   4.037   0.725   2.863
 6056SOL     OW18625   4.063   0.509   2.868
 6056SOL    HW118626   4.011   0.426   2.851
 6056SOL    HW218627   4.140   0.514   2.804
 6057SOL     OW18628   3.732   1.326   2.062
 6057SOL    HW118629   3.639   1.347   2.031
 6057SOL    HW218630   3.742   1.227   2.075
 6058SOL     OW18631   3.812   1.801   2.789
 6058SOL    HW118632   3.770   1.715   2.762
 6058SOL    HW218633   3.906   1.804   2.755
 6059SOL     OW18634   4.228   1.568   2.772
 6059SOL    HW118635   4.294   1.642   2.781
 6059SOL    HW218636   4.272   1.489   2.730
 6060SOL     OW18637   3.764   0.544   2.976
 6060SOL    HW118638   3.849   0.511   2.935
 6060SOL    HW218639   3.777   0.559   3.074
 6061SOL     OW18640   3.913   0.520   3.584
 6061SOL    HW118641   3.972   0.480   3.514
 6061SOL    HW218642   3.855   0.591   3.543
 6062SOL     OW18643   4.539   0.572   2.187
 6062SOL    HW118644   4.546   0.483   2.141
 6062SOL    HW218645   4.445   0.606   2.179
 6063SOL     OW18646   3.976   1.564   3.606
 6063SOL    HW118647   3.946   1.621   3.682
 6063SOL    HW218648   3.969   1.467   3.632
 6064SOL     OW18649   4.197   0.500   2.053
 6064SOL    HW118650   4.258   0.580   2.057
 6064SOL    HW218651   4.102   0.531   2.060
 6065SOL     OW18652   3.883   1.137   3.328
 6065SOL    HW118653   3.905   1.076   3.404
 6065SOL    HW218654   3.893   1.088   3.242
 6066SOL     OW18655   3.807   1.258   2.884
 6066SOL    HW118656   3.802   1.257   2.984
 6066SOL    HW218657   3.724   1.217   2.846
 6067SOL     OW18658   4.412   1.662   3.578
 6067SOL    HW118659   4.356   1.743   3.587
 6067SOL    HW218660   4.464   1.666   3.492
 6068SOL     OW18661   3.854   1.794   3.713
 6068SOL    HW118662   3.813   1.720   3.766
 6068SOL    HW218663   3.918   1.845   3.771
 6069SOL     OW18664   3.987   0.326   2.582
 6069SOL    HW118665   3.908   0.377   2.548
 6069SOL    HW218666   3.978   0.311   2.680
 6070SOL     OW18667   4.096   1.288   3.352
 6070SOL    HW118668   4.083   1.381   3.318
 6070SOL    HW218669   4.012   1.236   3.339
 6071SOL     OW18670   4.314   1.487   2.353
 6071SOL    HW118671   4.356   1.429   2.283
 6071SOL    HW218672   4.270   1.566   2.309
 6072SOL     OW18673   3.979   1.348   2.152
 6072SOL    HW118674   3.883   1.349   2.125
 6072SOL    HW218675   3.991   1.401   2.236
 6073SOL     OW18676   3.829   1.013   3.588
 6073SOL    HW118677   3.752   0.980   3.642
 6073SOL    HW218678   3.914   0.983   3.630
 6074SOL     OW18679   4.396   0.203   3.351
 6074SOL    HW118680   4.486   0.187   3.311
 6074SOL    HW218681   4.404   0.208   3.450
 6075SOL     OW18682   3.799   0.345   1.895
 6075SOL    HW118683   3.707   0.317   1.866
 6075SOL    HW218684   3.830   0.422   1.839
 6076SOL     OW18685   3.796   0.166   2.180
 6076SOL    HW118686   3.779   0.249   2.126
 6076SOL    HW218687   3.886   0.129   2.158
 6077SOL     OW18688   4.337   0.842   3.293
 6077SOL    HW118689   4.393   0.923   3.276
 6077SOL    HW218690   4.396   0.762   3.296
 6078SOL     OW18691   4.440   0.565   3.570
 6078SOL    HW118692   4.459   0.630   3.644
 6078SOL    HW218693   4.500   0.485   3.579
 6079SOL     OW18694   4.114   1.741   3.422
 6079SOL    HW118695   4.023   1.782   3.420
 6079SOL    HW218696   4.107   1.647   3.454
 6080SOL     OW18697   4.318   0.745   2.514
 6080SOL    HW118698   4.368   0.830   2.495
 6080SOL    HW218699   4.230   0.747   2.466
 6081SOL     OW18700   3.945   1.314   3.706
 6081SOL    HW118701   3.880   1.241   3.685
 6081SOL    HW218702   3.949   1.328   3.804
 6082SOL     OW18703   3.803   1.240   2.515
 6082SOL    HW118704   3.802   1.193   2.603
 6082SOL    HW218705   3.885   1.212   2.464
 6083SOL     OW18706   4.396   1.391   3.486
 6083SOL    HW118707   4.318   1.341   3.524
 6083SOL    HW218708   4.393   1.486   3.517
 6084SOL     OW18709   4.152   0.424   2.382
 6084SOL    HW118710   4.182   0.352   2.320
 6084SOL    HW218711   4.113   0.384   2.465
 6085SOL     OW18712   4.041   0.547   3.142
 6085SOL    HW118713   4.079   0.488   3.214
 6085SOL    HW218714   4.081   0.521   3.054
 6086SOL     OW18715   4.536   1.586   2.549
 6086SOL    HW118716   4.568   1.596   2.455
 6086SOL    HW218717   4.457   1.524   2.551
 6087SOL     OW18718   3.763   1.077   2.162
 6087SOL    HW118719   3.862   1.066   2.153
 6087SOL    HW218720   3.723   0.991   2.194
 6088SOL     OW18721   3.954   0.628   3.837
 6088SOL    HW118722   3.861   0.626   3.874
 6088SOL    HW218723   3.955   0.589   3.745
 6089SOL     OW18724   3.949   0.275   4.720
 6089SOL    HW118725   3.984   0.258   4.812
 6089SOL    HW218726   3.861   0.230   4.708
 6090SOL     OW18727   3.743   0.368   4.371
 6090SOL    HW118728   3.661   0.411   4.410
 6090SOL    HW218729   3.715   0.295   4.308
 6091SOL     OW18730   4.293   1.275   4.889
 6091SOL    HW118731   4.200   1.268   4.852
 6091SOL    HW218732   4.304   1.364   4.933
 6092SOL     OW18733   4.574   0.798   5.547
 6092SOL    HW118734   4.570   0.874   5.612
 6092SOL    HW218735   4.596   0.834   5.456
 6093SOL     OW18736   4.409   1.012   4.389
 6093SOL    HW118737   4.478   0.996   4.459
 6093SOL    HW218738   4.336   1.069   4.427
 6094SOL     OW18739   4.410   1.161   5.527
 6094SOL    HW118740   4.470   1.240   5.541
 6094SOL    HW218741   4.324   1.192   5.486
 6095SOL     OW18742   4.059   1.435   4.785
 6095SOL    HW118743   3.981   1.404   4.732
 6095SOL    HW218744   4.117   1.493   4.728
 6096SOL     OW18745   4.162   0.392   5.223
 6096SOL    HW118746   4.244   0.336   5.232
 6096SOL    HW218747   4.081   0.334   5.227
 6097SOL     OW18748   3.955   1.713   4.207
 6097SOL    HW118749   3.989   1.790   4.261
 6097SOL    HW218750   3.999   1.713   4.117
 6098SOL     OW18751   3.954   1.434   4.262
 6098SOL    HW118752   3.928   1.530   4.262
 6098SOL    HW218753   3.883   1.380   4.307
 6099SOL     OW18754   3.964   1.091   4.610
 6099SOL    HW118755   3.978   1.007   4.662
 6099SOL    HW218756   3.909   1.155   4.665
 6100SOL     OW18757   4.344   1.786   5.163
 6100SOL    HW118758   4.252   1.769   5.198
 6100SOL    HW218759   4.372   1.878   5.189
 6101SOL     OW18760   4.330   0.964   3.847
 6101SOL    HW118761   4.337   1.048   3.793
 6101SOL    HW218762   4.376   0.977   3.935
 6102SOL     OW18763   3.846   0.643   4.287
 6102SOL    HW118764   3.801   0.555   4.304
 6102SOL    HW218765   3.845   0.697   4.371
 6103SOL     OW18766   3.751   1.596   3.841
 6103SOL    HW118767   3.732   1.500   3.862
 6103SOL    HW218768   3.718   1.654   3.916
 6104SOL     OW18769   3.837   0.737   5.321
 6104SOL    HW118770   3.925   0.724   5.366
 6104SOL    HW218771   3.824   0.834   5.299
 6105SOL     OW18772   4.337   1.365   4.450
 6105SOL    HW118773   4.288   1.278   4.459
 6105SOL    HW218774   4.314   1.408   4.363
 6106SOL     OW18775   4.533   0.004   4.226
 6106SOL    HW118776   4.573   0.095   4.217
 6106SOL    HW218777   4.433   0.012   4.232
 6107SOL     OW18778   3.921   0.976   4.988
 6107SOL    HW118779   4.010   0.931   4.974
 6107SOL    HW218780   3.848   0.911   4.969
 6108SOL     OW18781   4.041   0.251   5.525
 6108SOL    HW118782   4.112   0.322   5.531
 6108SOL    HW218783   3.953   0.290   5.553
 6109SOL     OW18784   4.322   0.729   3.994
 6109SOL    HW118785   4.346   0.798   3.926
 6109SOL    HW218786   4.244   0.762   4.048
 6110SOL     OW18787   3.800   0.811   4.513
 6110SOL    HW118788   3.899   0.799   4.522
 6110SOL    HW218789   3.776   0.906   4.534
 6111SOL     OW18790   3.854   1.821   5.295
 6111SOL    HW118791   3.844   1.806   5.394
 6111SOL    HW218792   3.768   1.857   5.259
 6112SOL     OW18793   4.274   0.196   4.609
 6112SOL    HW118794   4.269   0.191   4.709
 6112SOL    HW218795   4.276   0.292   4.580
 6113SOL     OW18796   4.075   1.801   4.577
 6113SOL    HW118797   4.125   1.715   4.583
 6113SOL    HW218798   4.140   1.878   4.574
 6114SOL     OW18799   4.045   0.943   3.966
 6114SOL    HW118800   4.127   0.982   3.924
 6114SOL    HW218801   4.018   0.861   3.917
 6115SOL     OW18802   4.185   1.266   5.451
 6115SOL    HW118803   4.135   1.267   5.365
 6115SOL    HW218804   4.122   1.248   5.527
 6116SOL     OW18805   3.926   0.285   5.222
 6116SOL    HW118806   3.846   0.345   5.209
 6116SOL    HW218807   3.916   0.236   5.308
 6117SOL     OW18808   4.188   1.743   4.047
 6117SOL    HW118809   4.221   1.782   4.133
 6117SOL    HW218810   4.264   1.736   3.982
 6118SOL     OW18811   3.973   1.785   4.965
 6118SOL    HW118812   4.030   1.720   5.015
 6118SOL    HW218813   3.957   1.752   4.872
 6119SOL     OW18814   4.106   0.700   4.204
 6119SOL    HW118815   4.151   0.610   4.201
 6119SOL    HW218816   4.012   0.689   4.237
 6120SOL     OW18817   4.338   0.122   3.841
 6120SOL    HW118818   4.436   0.100   3.848
 6120SOL    HW218819   4.307   0.105   3.748
 6121SOL     OW18820   4.527   1.402   4.648
 6121SOL    HW118821   4.617   1.416   4.606
 6121SOL    HW218822   4.456   1.404   4.577
 6122SOL     OW18823   4.263   0.064   4.236
 6122SOL    HW118824   4.182   0.065   4.294
 6122SOL    HW218825   4.266   0.147   4.181
 6123SOL     OW18826   4.021   0.035   3.895
 6123SOL    HW118827   4.070   0.119   3.874
 6123SOL    HW218828   4.083  -0.030   3.940
 6124SOL     OW18829   4.800   0.683   5.188
 6124SOL    HW118830   4.720   0.622   5.191
 6124SOL    HW218831   4.881   0.630   5.164
 6125SOL     OW18832   4.183   1.152   4.465
 6125SOL    HW118833   4.112   1.125   4.530
 6125SOL    HW218834   4.157   1.124   4.372
 6126SOL     OW18835   3.802   0.556   5.110
 6126SOL    HW118836   3.894   0.555   5.069
 6126SOL    HW218837   3.796   0.630   5.177
 6127SOL     OW18838   4.285   0.222   4.871
 6127SOL    HW118839   4.323   0.138   4.908
 6127SOL    HW218840   4.197   0.241   4.915
 6128SOL     OW18841   4.212   1.385   3.898
 6128SOL    HW118842   4.125   1.370   3.945
 6128SOL    HW218843   4.195   1.411   3.803
 6129SOL     OW18844   4.251   0.256   4.052
 6129SOL    HW118845   4.278   0.197   3.977
 6129SOL    HW218846   4.251   0.351   4.021
 6130SOL     OW18847   4.134   0.813   4.975
 6130SOL    HW118848   4.220   0.825   5.025
 6130SOL    HW218849   4.092   0.726   5.002
 6131SOL     OW18850   3.788   1.564   5.055
 6131SOL    HW118851   3.742   1.646   5.021
 6131SOL    HW218852   3.886   1.583   5.064
 6132SOL     OW18853   4.091   1.100   4.225
 6132SOL    HW118854   4.084   1.183   4.169
 6132SOL    HW218855   4.095   1.020   4.165
 6133SOL     OW18856   4.290   0.537   4.589
 6133SOL    HW118857   4.302   0.603   4.515
 6133SOL    HW218858   4.336   0.571   4.672
 6134SOL     OW18859   4.078   1.510   5.053
 6134SOL    HW118860   4.057   1.466   4.966
 6134SOL    HW218861   4.175   1.536   5.056
 6135SOL     OW18862   4.126   0.751   5.322
 6135SOL    HW118863   4.194   0.806   5.275
 6135SOL    HW218864   4.166   0.663   5.349
 6136SOL     OW18865   4.228   0.050   5.464
 6136SOL    HW118866   4.186  -0.007   5.394
 6136SOL    HW218867   4.162   0.119   5.496
 6137SOL     OW18868   4.297   0.870   4.753
 6137SOL    HW118869   4.341   0.959   4.744
 6137SOL    HW218870   4.234   0.870   4.830
 6138SOL     OW18871   4.031   0.213   4.955
 6138SOL    HW118872   4.008   0.250   5.045
 6138SOL    HW218873   4.001   0.118   4.949
 6139SOL     OW18874   3.761   1.310   5.006
 6139SOL    HW118875   3.814   1.261   5.074
 6139SOL    HW218876   3.783   1.408   5.011
 6140SOL     OW18877   4.031   0.063   4.342
 6140SOL    HW118878   4.020   0.157   4.375
 6140SOL    HW218879   4.026   0.000   4.419
 6141SOL     OW18880   4.074   0.898   5.528
 6141SOL    HW118881   4.150   0.942   5.576
 6141SOL    HW218882   4.109   0.851   5.446
 6142SOL     OW18883   4.043   0.810   4.673
 6142SOL    HW118884   4.136   0.846   4.678
 6142SOL    HW218885   4.037   0.725   4.725
 6143SOL     OW18886   4.063   0.509   4.730
 6143SOL    HW118887   4.011   0.426   4.713
 6143SOL    HW218888   4.140   0.514   4.666
 6144SOL     OW18889   3.732   1.326   3.924
 6144SOL    HW118890   3.639   1.347   3.893
 6144SOL    HW218891   3.742   1.227   3.937
 6145SOL     OW18892   3.812   1.801   4.651
 6145SOL    HW118893   3.770   1.715   4.624
 6145SOL    HW218894   3.906   1.804   4.617
 6146SOL     OW18895   4.228   1.568   4.634
 6146SOL    HW118896   4.294   1.642   4.643
 6146SOL    HW218897   4.272   1.489   4.592
 6147SOL     OW18898   3.764   0.544   4.838
 6147SOL    HW118899   3.849   0.511   4.797
 6147SOL    HW218900   3.777   0.559   4.936
 6148SOL     OW18901   3.913   0.520   5.446
 6148SOL    HW118902   3.972   0.480   5.376
 6148SOL    HW218903   3.855   0.591   5.405
 6149SOL     OW18904   4.539   0.572   4.049
 6149SOL    HW118905   4.546   0.483   4.003
 6149SOL    HW218906   4.445   0.606   4.041
 6150SOL     OW18907   3.976   1.564   5.468
 6150SOL    HW118908   3.946   1.621   5.544
 6150SOL    HW218909   3.969   1.467   5.494
 6151SOL     OW18910   4.197   0.500   3.915
 6151SOL    HW118911   4.258   0.580   3.919
 6151SOL    HW218912   4.102   0.531   3.922
 6152SOL     OW18913   3.883   1.137   5.190
 6152SOL    HW118914   3.905   1.076   5.266
 6152SOL    HW218915   3.893   1.088   5.104
 6153SOL     OW18916   3.807   1.258   4.746
 6153SOL    HW118917   3.802   1.257   4.846
 6153SOL    HW218918   3.724   1.217   4.708
 6154SOL     OW18919   4.412   1.662   5.440
 6154SOL    HW118920   4.356   1.743   5.449
 6154SOL    HW218921   4.464   1.666   5.354
 6155SOL     OW18922   3.854   1.794   5.575
 6155SOL    HW118923   3.813   1.720   5.628
 6155SOL    HW218924   3.918   1.845   5.633
 6156SOL     OW18925   3.987   0.326   4.444
 6156SOL    HW118926   3.908   0.377   4.410
 6156SOL    HW218927   3.978   0.311   4.542
 6157SOL     OW18928   4.096   1.288   5.214
 6157SOL    HW118929   4.083   1.381   5.180
 6157SOL    HW218930   4.012   1.236   5.201
 6158SOL     OW18931   4.314   1.487   4.215
 6158SOL    HW118932   4.356   1.429   4.145
 6158SOL    HW218933   4.270   1.566   4.171
 6159SOL     OW18934   3.979   1.348   4.014
 6159SOL    HW118935   3.883   1.349   3.987
 6159SOL    HW218936   3.991   1.401   4.098
 6160SOL     OW18937   3.829   1.013   5.450
 6160SOL    HW118938   3.752   0.980   5.504
 6160SOL    HW218939   3.914   0.983   5.492
 6161SOL     OW18940   4.396   0.203   5.213
 6161SOL    HW118941   4.486   0.187   5.173
 6161SOL    HW218942   4.404   0.208   5.312
 6162SOL     OW18943   3.799   0.345   3.757
 6162SOL    HW118944   3.707   0.317   3.728
 6162SOL    HW218945   3.830   0.422   3.701
 6163SOL     OW18946   3.796   0.166   4.042
 6163SOL    HW118947   3.779   0.249   3.988
 6163SOL    HW218948   3.886   0.129   4.020
 6164SOL     OW18949   4.337   0.842   5.155
 6164SOL    HW118950   4.393   0.923   5.138
 6164SOL    HW218951   4.396   0.762   5.158
 6165SOL     OW18952   4.440   0.565   5.432
 6165SOL    HW118953   4.459   0.630   5.506
 6165SOL    HW218954   4.500   0.485   5.441
 6166SOL     OW18955   4.114   1.741   5.284
 6166SOL    HW118956   4.023   1.782   5.282
 6166SOL    HW218957   4.107   1.647   5.316
 6167SOL     OW18958   4.318   0.745   4.376
 6167SOL    HW118959   4.368   0.830   4.357
 6167SOL    HW218960   4.230   0.747   4.328
 6168SOL     OW18961   3.945   1.314   5.568
 6168SOL    HW118962   3.880   1.241   5.547
 6168SOL    HW218963   3.949   1.328   5.666
 6169SOL     OW18964   3.803   1.240   4.377
 6169SOL    HW118965   3.802   1.193   4.465
 6169SOL    HW218966   3.885   1.212   4.326
 6170SOL     OW18967   4.396   1.391   5.348
 6170SOL    HW118968   4.318   1.341   5.386
 6170SOL    HW218969   4.393   1.486   5.379
 6171SOL     OW18970   4.152   0.424   4.244
 6171SOL    HW118971   4.182   0.352   4.182
 6171SOL    HW218972   4.113   0.384   4.327
 6172SOL     OW18973   4.041   0.547   5.004
 6172SOL    HW118974   4.079   0.488   5.076
 6172SOL    HW218975   4.081   0.521   4.916
 6173SOL     OW18976   4.536   1.586   4.411
 6173SOL    HW118977   4.568   1.596   4.317
 6173SOL    HW218978   4.457   1.524   4.413
 6174SOL     OW18979   3.763   1.077   4.024
 6174SOL    HW118980   3.862   1.066   4.015
 6174SOL    HW218981   3.723   0.991   4.056
 6175SOL     OW18982   3.954   0.628   5.699
 6175SOL    HW118983   3.861   0.626   5.736
 6175SOL    HW218984   3.955   0.589   5.607
 6176SOL     OW18985   3.949   0.275   6.582
 6176SOL    HW118986   3.984   0.258   6.674
 6176SOL    HW218987   3.861   0.230   6.570
 6177SOL     OW18988   3.743   0.368   6.233
 6177SOL    HW118989   3.661   0.411   6.272
 6177SOL    HW218990   3.715   0.295   6.170
 6178SOL     OW18991   4.293   1.275   6.751
 6178SOL    HW118992   4.200   1.268   6.714
 6178SOL    HW218993   4.304   1.364   6.795
 6179SOL     OW18994   4.574   0.798   7.409
 6179SOL    HW118995   4.570   0.874   7.474
 6179SOL    HW218996   4.596   0.834   7.318
 6180SOL     OW18997   4.409   1.012   6.251
 6180SOL    HW118998   4.478   0.996   6.321
 6180SOL    HW218999   4.336   1.069   6.289
 6181SOL     OW19000   4.410   1.161   7.389
 6181SOL    HW119001   4.470   1.240   7.403
 6181SOL    HW219002   4.324   1.192   7.348
 6182SOL     OW19003   4.059   1.435   6.647
 6182SOL    HW119004   3.981   1.404   6.594
 6182SOL    HW219005   4.117   1.493   6.590
 6183SOL     OW19006   4.162   0.392   7.085
 6183SOL    HW119007   4.244   0.336   7.094
 6183SOL    HW219008   4.081   0.334   7.089
 6184SOL     OW19009   3.955   1.713   6.069
 6184SOL    HW119010   3.989   1.790   6.123
 6184SOL    HW219011   3.999   1.713   5.979
 6185SOL     OW19012   3.954   1.434   6.124
 6185SOL    HW119013   3.928   1.530   6.124
 6185SOL    HW219014   3.883   1.380   6.169
 6186SOL     OW19015   3.964   1.091   6.472
 6186SOL    HW119016   3.978   1.007   6.524
 6186SOL    HW219017   3.909   1.155   6.527
 6187SOL     OW19018   4.344   1.786   7.025
 6187SOL    HW119019   4.252   1.769   7.060
 6187SOL    HW219020   4.372   1.878   7.051
 6188SOL     OW19021   4.330   0.964   5.709
 6188SOL    HW119022   4.337   1.048   5.655
 6188SOL    HW219023   4.376   0.977   5.797
 6189SOL     OW19024   3.846   0.643   6.149
 6189SOL    HW119025   3.801   0.555   6.166
 6189SOL    HW219026   3.845   0.697   6.233
 6190SOL     OW19027   3.751   1.596   5.703
 6190SOL    HW119028   3.732   1.500   5.724
 6190SOL    HW219029   3.718   1.654   5.778
 6191SOL     OW19030   3.837   0.737   7.183
 6191SOL    HW119031   3.925   0.724   7.228
 6191SOL    HW219032   3.824   0.834   7.161
 6192SOL     OW19033   4.337   1.365   6.312
 6192SOL    HW119034   4.288   1.278   6.321
 6192SOL    HW219035   4.314   1.408   6.225
 6193SOL     OW19036   4.533   0.004   6.088
 6193SOL    HW119037   4.573   0.095   6.079
 6193SOL    HW219038   4.433   0.012   6.094
 6194SOL     OW19039   3.921   0.976   6.850
 6194SOL    HW119040   4.010   0.931   6.836
 6194SOL    HW219041   3.848   0.911   6.831
 6195SOL     OW19042   4.041   0.251   7.387
 6195SOL    HW119043   4.112   0.322   7.393
 6195SOL    HW219044   3.953   0.290   7.415
 6196SOL     OW19045   4.322   0.729   5.856
 6196SOL    HW119046   4.346   0.798   5.788
 6196SOL    HW219047   4.244   0.762   5.910
 6197SOL     OW19048   3.800   0.811   6.375
 6197SOL    HW119049   3.899   0.799   6.384
 6197SOL    HW219050   3.776   0.906   6.396
 6198SOL     OW19051   3.854   1.821   7.157
 6198SOL    HW119052   3.844   1.806   7.256
 6198SOL    HW219053   3.768   1.857   7.121
 6199SOL     OW19054   4.274   0.196   6.471
 6199SOL    HW119055   4.269   0.191   6.571
 6199SOL    HW219056   4.276   0.292   6.442
 6200SOL     OW19057   4.075   1.801   6.439
 6200SOL    HW119058   4.125   1.715   6.445
 6200SOL    HW219059   4.140   1.878   6.436
 6201SOL     OW19060   4.045   0.943   5.828
 6201SOL    HW119061   4.127   0.982   5.786
 6201SOL    HW219062   4.018   0.861   5.779
 6202SOL     OW19063   4.185   1.266   7.313
 6202SOL    HW119064   4.135   1.267   7.227
 6202SOL    HW219065   4.122   1.248   7.389
 6203SOL     OW19066   3.926   0.285   7.084
 6203SOL    HW119067   3.846   0.345   7.071
 6203SOL    HW219068   3.916   0.236   7.170
 6204SOL     OW19069   4.188   1.743   5.909
 6204SOL    HW119070   4.221   1.782   5.995
 6204SOL    HW219071   4.264   1.736   5.844
 6205SOL     OW19072   3.973   1.785   6.827
 6205SOL    HW119073   4.030   1.720   6.877
 6205SOL    HW219074   3.957   1.752   6.734
 6206SOL     OW19075   4.106   0.700   6.066
 6206SOL    HW119076   4.151   0.610   6.063
 6206SOL    HW219077   4.012   0.689   6.099
 6207SOL     OW19078   4.338   0.122   5.703
 6207SOL    HW119079   4.436   0.100   5.710
 6207SOL    HW219080   4.307   0.105   5.610
 6208SOL     OW19081   4.527   1.402   6.510
 6208SOL    HW119082   4.617   1.416   6.468
 6208SOL    HW219083   4.456   1.404   6.439
 6209SOL     OW19084   4.263   0.064   6.098
 6209SOL    HW119085   4.182   0.065   6.156
 6209SOL    HW219086   4.266   0.147   6.043
 6210SOL     OW19087   4.021   0.035   5.757
 6210SOL    HW119088   4.070   0.119   5.736
 6210SOL    HW219089   4.083  -0.030   5.802
 6211SOL     OW19090   4.800   0.683   7.050
 6211SOL    HW119091   4.720   0.622   7.053
 6211SOL    HW219092   4.881   0.630   7.026
 6212SOL     OW19093   4.183   1.152   6.327
 6212SOL    HW119094   4.112   1.125   6.392
 6212SOL    HW219095   4.157   1.124   6.234
 6213SOL     OW19096   3.802   0.556   6.972
 6213SOL    HW119097   3.894   0.555   6.931
 6213SOL    HW219098   3.796   0.630   7.039
 6214SOL     OW19099   4.285   0.222   6.733
 6214SOL    HW119100   4.323   0.138   6.770
 6214SOL    HW219101   4.197   0.241   6.777
 6215SOL     OW19102   4.212   1.385   5.760
 6215SOL    HW119103   4.125   1.370   5.807
 6215SOL    HW219104   4.195   1.411   5.665
 6216SOL     OW19105   4.251   0.256   5.914
 6216SOL    HW119106   4.278   0.197   5.839
 6216SOL    HW219107   4.251   0.351   5.883
 6217SOL     OW19108   4.134   0.813   6.837
 6217SOL    HW119109   4.220   0.825   6.887
 6217SOL    HW219110   4.092   0.726   6.864
 6218SOL     OW19111   3.788   1.564   6.917
 6218SOL    HW119112   3.742   1.646   6.883
 6218SOL    HW219113   3.886   1.583   6.926
 6219SOL     OW19114   4.091   1.100   6.087
 6219SOL    HW119115   4.084   1.183   6.031
 6219SOL    HW219116   4.095   1.020   6.027
 6220SOL     OW19117   4.290   0.537   6.451
 6220SOL    HW119118   4.302   0.603   6.377
 6220SOL    HW219119   4.336   0.571   6.534
 6221SOL     OW19120   4.078   1.510   6.915
 6221SOL    HW119121   4.057   1.466   6.828
 6221SOL    HW219122   4.175   1.536   6.918
 6222SOL     OW19123   4.126   0.751   7.184
 6222SOL    HW119124   4.194   0.806   7.137
 6222SOL    HW219125   4.166   0.663   7.211
 6223SOL     OW19126   4.228   0.050   7.326
 6223SOL    HW119127   4.186  -0.007   7.256
 6223SOL    HW219128   4.162   0.119   7.358
 6224SOL     OW19129   4.297   0.870   6.615
 6224SOL    HW119130   4.341   0.959   6.606
 6224SOL    HW219131   4.234   0.870   6.692
 6225SOL     OW19132   4.031   0.213   6.817
 6225SOL    HW119133   4.008   0.250   6.907
 6225SOL    HW219134   4.001   0.118   6.811
 6226SOL     OW19135   3.761   1.310   6.868
 6226SOL    HW119136   3.814   1.261   6.936
 6226SOL    HW219137   3.783   1.408   6.873
 6227SOL     OW19138   4.031   0.063   6.204
 6227SOL    HW119139   4.020   0.157   6.237
 6227SOL    HW219140   4.026   0.000   6.281
 6228SOL     OW19141   4.074   0.898   7.390
 6228SOL    HW119142   4.150   0.942   7.438
 6228SOL    HW219143   4.109   0.851   7.308
 6229SOL     OW19144   4.043   0.810   6.535
 6229SOL    HW119145   4.136   0.846   6.540
 6229SOL    HW219146   4.037   0.725   6.587
 6230SOL     OW19147   4.063   0.509   6.592
 6230SOL    HW119148   4.011   0.426   6.575
 6230SOL    HW219149   4.140   0.514   6.528
 6231SOL     OW19150   3.732   1.326   5.786
 6231SOL    HW119151   3.639   1.347   5.755
 6231SOL    HW219152   3.742   1.227   5.799
 6232SOL     OW19153   3.812   1.801   6.513
 6232SOL    HW119154   3.770   1.715   6.486
 6232SOL    HW219155   3.906   1.804   6.479
 6233SOL     OW19156   4.228   1.568   6.496
 6233SOL    HW119157   4.294   1.642   6.505
 6233SOL    HW219158   4.272   1.489   6.454
 6234SOL     OW19159   3.764   0.544   6.700
 6234SOL    HW119160   3.849   0.511   6.659
 6234SOL    HW219161   3.777   0.559   6.798
 6235SOL     OW19162   3.913   0.520   7.308
 6235SOL    HW119163   3.972   0.480   7.238
 6235SOL    HW219164   3.855   0.591   7.267
 6236SOL     OW19165   4.539   0.572   5.911
 6236SOL    HW119166   4.546   0.483   5.865
 6236SOL    HW219167   4.445   0.606   5.903
 6237SOL     OW19168   3.976   1.564   7.330
 6237SOL    HW119169   3.946   1.621   7.406
 6237SOL    HW219170   3.969   1.467   7.356
 6238SOL     OW19171   4.197   0.500   5.777
 6238SOL    HW119172   4.258   0.580   5.781
 6238SOL    HW219173   4.102   0.531   5.784
 6239SOL     OW19174   3.883   1.137   7.052
 6239SOL    HW119175   3.905   1.076   7.128
 6239SOL    HW219176   3.893   1.088   6.966
 6240SOL     OW19177   3.807   1.258   6.608
 6240SOL    HW119178   3.802   1.257   6.708
 6240SOL    HW219179   3.724   1.217   6.570
 6241SOL     OW19180   4.412   1.662   7.302
 6241SOL    HW119181   4.356   1.743   7.311
 6241SOL    HW219182   4.464   1.666   7.216
 6242SOL     OW19183   3.854   1.794   7.437
 6242SOL    HW119184   3.813   1.720   7.490
 6242SOL    HW219185   3.918   1.845   7.495
 6243SOL     OW19186   3.987   0.326   6.306
 6243SOL    HW119187   3.908   0.377   6.272
 6243SOL    HW219188   3.978   0.311   6.404
 6244SOL     OW19189   4.096   1.288   7.076
 6244SOL    HW119190   4.083   1.381   7.042
 6244SOL    HW219191   4.012   1.236   7.063
 6245SOL     OW19192   4.314   1.487   6.077
 6245SOL    HW119193   4.356   1.429   6.007
 6245SOL    HW219194   4.270   1.566   6.033
 6246SOL     OW19195   3.979   1.348   5.876
 6246SOL    HW119196   3.883   1.349   5.849
 6246SOL    HW219197   3.991   1.401   5.960
 6247SOL     OW19198   3.829   1.013   7.312
 6247SOL    HW119199   3.752   0.980   7.366
 6247SOL    HW219200   3.914   0.983   7.354
 6248SOL     OW19201   4.396   0.203   7.075
 6248SOL    HW119202   4.486   0.187   7.035
 6248SOL    HW219203   4.404   0.208   7.174
 6249SOL     OW19204   3.799   0.345   5.619
 6249SOL    HW119205   3.707   0.317   5.590
 6249SOL    HW219206   3.830   0.422   5.563
 6250SOL     OW19207   3.796   0.166   5.904
 6250SOL    HW119208   3.779   0.249   5.850
 6250SOL    HW219209   3.886   0.129   5.882
 6251SOL     OW19210   4.337   0.842   7.017
 6251SOL    HW119211   4.393   0.923   7.000
 6251SOL    HW219212   4.396   0.762   7.020
 6252SOL     OW19213   4.440   0.565   7.294
 6252SOL    HW119214   4.459   0.630   7.368
 6252SOL    HW219215   4.500   0.485   7.303
 6253SOL     OW19216   4.114   1.741   7.146
 6253SOL    HW119217   4.023   1.782   7.144
 6253SOL    HW219218   4.107   1.647   7.178
 6254SOL     OW19219   4.318   0.745   6.238
 6254SOL    HW119220   4.368   0.830   6.219
 6254SOL    HW219221   4.230   0.747   6.190
 6255SOL     OW19222   3.945   1.314   7.430
 6255SOL    HW119223   3.880   1.241   7.409
 6255SOL    HW219224   3.949   1.328   7.528
 6256SOL     OW19225   3.803   1.240   6.239
 6256SOL    HW119226   3.802   1.193   6.327
 6256SOL    HW219227   3.885   1.212   6.188
 6257SOL     OW19228   4.396   1.391   7.210
 6257SOL    HW119229   4.318   1.341   7.248
 6257SOL    HW219230   4.393   1.486   7.241
 6258SOL     OW19231   4.152   0.424   6.106
 6258SOL    HW119232   4.182   0.352   6.044
 6258SOL    HW219233   4.113   0.384   6.189
 6259SOL     OW19234   4.041   0.547   6.866
 6259SOL    HW119235   4.079   0.488   6.938
 6259SOL    HW219236   4.081   0.521   6.778
 6260SOL     OW19237   4.536   1.586   6.273
 6260SOL    HW119238   4.568   1.596   6.179
 6260SOL    HW219239   4.457   1.524   6.275
 6261SOL     OW19240   3.763   1.077   5.886
 6261SOL    HW119241   3.862   1.066   5.877
 6261SOL    HW219242   3.723   0.991   5.918
 6262SOL     OW19243   3.954   0.628   7.561
 6262SOL    HW119244   3.861   0.626   7.598
 6262SOL    HW219245   3.955   0.589   7.469
 6263SOL     OW19246   3.949   0.275   8.444
 6263SOL    HW119247   3.984   0.258   8.536
 6263SOL    HW219248   3.861   0.230   8.432
 6264SOL     OW19249   3.743   0.368   8.095
 6264SOL    HW119250   3.661   0.411   8.134
 6264SOL    HW219251   3.715   0.295   8.032
 6265SOL     OW19252   4.293   1.275   8.613
 6265SOL    HW119253   4.200   1.268   8.576
 6265SOL    HW219254   4.304   1.364   8.657
 6266SOL     OW19255   4.574   0.798   9.271
 6266SOL    HW119256   4.570   0.874   9.336
 6266SOL    HW219257   4.596   0.834   9.180
 6267SOL     OW19258   4.409   1.012   8.113
 6267SOL    HW119259   4.478   0.996   8.183
 6267SOL    HW219260   4.336   1.069   8.151
 6268SOL     OW19261   4.410   1.161   9.251
 6268SOL    HW119262   4.470   1.240   9.265
 6268SOL    HW219263   4.324   1.192   9.210
 6269SOL     OW19264   4.059   1.435   8.509
 6269SOL    HW119265   3.981   1.404   8.456
 6269SOL    HW219266   4.117   1.493   8.452
 6270SOL     OW19267   4.162   0.392   8.947
 6270SOL    HW119268   4.244   0.336   8.956
 6270SOL    HW219269   4.081   0.334   8.951
 6271SOL     OW19270   3.955   1.713   7.931
 6271SOL    HW119271   3.989   1.790   7.985
 6271SOL    HW219272   3.999   1.713   7.841
 6272SOL     OW19273   3.954   1.434   7.986
 6272SOL    HW119274   3.928   1.530   7.986
 6272SOL    HW219275   3.883   1.380   8.031
 6273SOL     OW19276   3.964   1.091   8.334
 6273SOL    HW119277   3.978   1.007   8.386
 6273SOL    HW219278   3.909   1.155   8.389
 6274SOL     OW19279   4.344   1.786   8.887
 6274SOL    HW119280   4.252   1.769   8.922
 6274SOL    HW219281   4.372   1.878   8.913
 6275SOL     OW19282   4.330   0.964   7.571
 6275SOL    HW119283   4.337   1.048   7.517
 6275SOL    HW219284   4.376   0.977   7.659
 6276SOL     OW19285   3.846   0.643   8.011
 6276SOL    HW119286   3.801   0.555   8.028
 6276SOL    HW219287   3.845   0.697   8.095
 6277SOL     OW19288   3.751   1.596   7.565
 6277SOL    HW119289   3.732   1.500   7.586
 6277SOL    HW219290   3.718   1.654   7.640
 6278SOL     OW19291   3.837   0.737   9.045
 6278SOL    HW119292   3.925   0.724   9.090
 6278SOL    HW219293   3.824   0.834   9.023
 6279SOL     OW19294   4.337   1.365   8.174
 6279SOL    HW119295   4.288   1.278   8.183
 6279SOL    HW219296   4.314   1.408   8.087
 6280SOL     OW19297   4.533   0.004   7.950
 6280SOL    HW119298   4.573   0.095   7.941
 6280SOL    HW219299   4.433   0.012   7.956
 6281SOL     OW19300   3.921   0.976   8.712
 6281SOL    HW119301   4.010   0.931   8.698
 6281SOL    HW219302   3.848   0.911   8.693
 6282SOL     OW19303   4.041   0.251   9.249
 6282SOL    HW119304   4.112   0.322   9.255
 6282SOL    HW219305   3.953   0.290   9.277
 6283SOL     OW19306   4.322   0.729   7.718
 6283SOL    HW119307   4.346   0.798   7.650
 6283SOL    HW219308   4.244   0.762   7.772
 6284SOL     OW19309   3.800   0.811   8.237
 6284SOL    HW119310   3.899   0.799   8.246
 6284SOL    HW219311   3.776   0.906   8.258
 6285SOL     OW19312   3.854   1.821   9.019
 6285SOL    HW119313   3.844   1.806   9.118
 6285SOL    HW219314   3.768   1.857   8.983
 6286SOL     OW19315   4.274   0.196   8.333
 6286SOL    HW119316   4.269   0.191   8.433
 6286SOL    HW219317   4.276   0.292   8.304
 6287SOL     OW19318   4.075   1.801   8.301
 6287SOL    HW119319   4.125   1.715   8.307
 6287SOL    HW219320   4.140   1.878   8.298
 6288SOL     OW19321   4.045   0.943   7.690
 6288SOL    HW119322   4.127   0.982   7.648
 6288SOL    HW219323   4.018   0.861   7.641
 6289SOL     OW19324   4.185   1.266   9.175
 6289SOL    HW119325   4.135   1.267   9.089
 6289SOL    HW219326   4.122   1.248   9.251
 6290SOL     OW19327   3.926   0.285   8.946
 6290SOL    HW119328   3.846   0.345   8.933
 6290SOL    HW219329   3.916   0.236   9.032
 6291SOL     OW19330   4.188   1.743   7.771
 6291SOL    HW119331   4.221   1.782   7.857
 6291SOL    HW219332   4.264   1.736   7.706
 6292SOL     OW19333   3.973   1.785   8.689
 6292SOL    HW119334   4.030   1.720   8.739
 6292SOL    HW219335   3.957   1.752   8.596
 6293SOL     OW19336   4.106   0.700   7.928
 6293SOL    HW119337   4.151   0.610   7.925
 6293SOL    HW219338   4.012   0.689   7.961
 6294SOL     OW19339   4.338   0.122   7.565
 6294SOL    HW119340   4.436   0.100   7.572
 6294SOL    HW219341   4.307   0.105   7.472
 6295SOL     OW19342   4.527   1.402   8.372
 6295SOL    HW119343   4.617   1.416   8.330
 6295SOL    HW219344   4.456   1.404   8.301
 6296SOL     OW19345   4.263   0.064   7.960
 6296SOL    HW119346   4.182   0.065   8.018
 6296SOL    HW219347   4.266   0.147   7.905
 6297SOL     OW19348   4.021   0.035   7.619
 6297SOL    HW119349   4.070   0.119   7.598
 6297SOL    HW219350   4.083  -0.030   7.664
 6298SOL     OW19351   4.800   0.683   8.912
 6298SOL    HW119352   4.720   0.622   8.915
 6298SOL    HW219353   4.881   0.630   8.888
 6299SOL     OW19354   4.183   1.152   8.189
 6299SOL    HW119355   4.112   1.125   8.254
 6299SOL    HW219356   4.157   1.124   8.096
 6300SOL     OW19357   3.802   0.556   8.834
 6300SOL    HW119358   3.894   0.555   8.793
 6300SOL    HW219359   3.796   0.630   8.901
 6301SOL     OW19360   4.285   0.222   8.595
 6301SOL    HW119361   4.323   0.138   8.632
 6301SOL    HW219362   4.197   0.241   8.639
 6302SOL     OW19363   4.212   1.385   7.622
 6302SOL    HW119364   4.125   1.370   7.669
 6302SOL    HW219365   4.195   1.411   7.527
 6303SOL     OW19366   4.251   0.256   7.776
 6303SOL    HW119367   4.278   0.197   7.701
 6303SOL    HW219368   4.251   0.351   7.745
 6304SOL     OW19369   4.134   0.813   8.699
 6304SOL    HW119370   4.220   0.825   8.749
 6304SOL    HW219371   4.092   0.726   8.726
 6305SOL     OW19372   3.788   1.564   8.779
 6305SOL    HW119373   3.742   1.646   8.745
 6305SOL    HW219374   3.886   1.583   8.788
 6306SOL     OW19375   4.091   1.100   7.949
 6306SOL    HW119376   4.084   1.183   7.893
 6306SOL    HW219377   4.095   1.020   7.889
 6307SOL     OW19378   4.290   0.537   8.313
 6307SOL    HW119379   4.302   0.603   8.239
 6307SOL    HW219380   4.336   0.571   8.396
 6308SOL     OW19381   4.078   1.510   8.777
 6308SOL    HW119382   4.057   1.466   8.690
 6308SOL    HW219383   4.175   1.536   8.780
 6309SOL     OW19384   4.126   0.751   9.046
 6309SOL    HW119385   4.194   0.806   8.999
 6309SOL    HW219386   4.166   0.663   9.073
 6310SOL     OW19387   4.228   0.050   9.188
 6310SOL    HW119388   4.186  -0.007   9.118
 6310SOL    HW219389   4.162   0.119   9.220
 6311SOL     OW19390   4.297   0.870   8.477
 6311SOL    HW119391   4.341   0.959   8.468
 6311SOL    HW219392   4.234   0.870   8.554
 6312SOL     OW19393   4.031   0.213   8.679
 6312SOL    HW119394   4.008   0.250   8.769
 6312SOL    HW219395   4.001   0.118   8.673
 6313SOL     OW19396   3.761   1.310   8.730
 6313SOL    HW119397   3.814   1.261   8.798
 6313SOL    HW219398   3.783   1.408   8.735
 6314SOL     OW19399   4.031   0.063   8.066
 6314SOL    HW119400   4.020   0.157   8.099
 6314SOL    HW219401   4.026   0.000   8.143
 6315SOL     OW19402   4.074   0.898   9.252
 6315SOL    HW119403   4.150   0.942   9.300
 6315SOL    HW219404   4.109   0.851   9.170
 6316SOL     OW19405   4.043   0.810   8.397
 6316SOL    HW119406   4.136   0.846   8.402
 6316SOL    HW219407   4.037   0.725   8.449
 6317SOL     OW19408   4.063   0.509   8.454
 6317SOL    HW119409   4.011   0.426   8.437
 6317SOL    HW219410   4.140   0.514   8.390
 6318SOL     OW19411   3.732   1.326   7.648
 6318SOL    HW119412   3.639   1.347   7.617
 6318SOL    HW219413   3.742   1.227   7.661
 6319SOL     OW19414   3.812   1.801   8.375
 6319SOL    HW119415   3.770   1.715   8.348
 6319SOL    HW219416   3.906   1.804   8.341
 6320SOL     OW19417   4.228   1.568   8.358
 6320SOL    HW119418   4.294   1.642   8.367
 6320SOL    HW219419   4.272   1.489   8.316
 6321SOL     OW19420   3.764   0.544   8.562
 6321SOL    HW119421   3.849   0.511   8.521
 6321SOL    HW219422   3.777   0.559   8.660
 6322SOL     OW19423   3.913   0.520   9.170
 6322SOL    HW119424   3.972   0.480   9.100
 6322SOL    HW219425   3.855   0.591   9.129
 6323SOL     OW19426   4.539   0.572   7.773
 6323SOL    HW119427   4.546   0.483   7.727
 6323SOL    HW219428   4.445   0.606   7.765
 6324SOL     OW19429   3.976   1.564   9.192
 6324SOL    HW119430   3.946   1.621   9.268
 6324SOL    HW219431   3.969   1.467   9.218
 6325SOL     OW19432   4.197   0.500   7.639
 6325SOL    HW119433   4.258   0.580   7.643
 6325SOL    HW219434   4.102   0.531   7.646
 6326SOL     OW19435   3.883   1.137   8.914
 6326SOL    HW119436   3.905   1.076   8.990
 6326SOL    HW219437   3.893   1.088   8.828
 6327SOL     OW19438   3.807   1.258   8.470
 6327SOL    HW119439   3.802   1.257   8.570
 6327SOL    HW219440   3.724   1.217   8.432
 6328SOL     OW19441   4.412   1.662   9.164
 6328SOL    HW119442   4.356   1.743   9.173
 6328SOL    HW219443   4.464   1.666   9.078
 6329SOL     OW19444   3.854   1.794   9.299
 6329SOL    HW119445   3.813   1.720   9.352
 6329SOL    HW219446   3.918   1.845   9.357
 6330SOL     OW19447   3.987   0.326   8.168
 6330SOL    HW119448   3.908   0.377   8.134
 6330SOL    HW219449   3.978   0.311   8.266
 6331SOL     OW19450   4.096   1.288   8.938
 6331SOL    HW119451   4.083   1.381   8.904
 6331SOL    HW219452   4.012   1.236   8.925
 6332SOL     OW19453   4.314   1.487   7.939
 6332SOL    HW119454   4.356   1.429   7.869
 6332SOL    HW219455   4.270   1.566   7.895
 6333SOL     OW19456   3.979   1.348   7.738
 6333SOL    HW119457   3.883   1.349   7.711
 6333SOL    HW219458   3.991   1.401   7.822
 6334SOL     OW19459   3.829   1.013   9.174
 6334SOL    HW119460   3.752   0.980   9.228
 6334SOL    HW219461   3.914   0.983   9.216
 6335SOL     OW19462   4.396   0.203   8.937
 6335SOL    HW119463   4.486   0.187   8.897
 6335SOL    HW219464   4.404   0.208   9.036
 6336SOL     OW19465   3.799   0.345   7.481
 6336SOL    HW119466   3.707   0.317   7.452
 6336SOL    HW219467   3.830   0.422   7.425
 6337SOL     OW19468   3.796   0.166   7.766
 6337SOL    HW119469   3.779   0.249   7.712
 6337SOL    HW219470   3.886   0.129   7.744
 6338SOL     OW19471   4.337   0.842   8.879
 6338SOL    HW119472   4.393   0.923   8.862
 6338SOL    HW219473   4.396   0.762   8.882
 6339SOL     OW19474   4.440   0.565   9.156
 6339SOL    HW119475   4.459   0.630   9.230
 6339SOL    HW219476   4.500   0.485   9.165
 6340SOL     OW19477   4.114   1.741   9.008
 6340SOL    HW119478   4.023   1.782   9.006
 6340SOL    HW219479   4.107   1.647   9.040
 6341SOL     OW19480   4.318   0.745   8.100
 6341SOL    HW119481   4.368   0.830   8.081
 6341SOL    HW219482   4.230   0.747   8.052
 6342SOL     OW19483   3.945   1.314   9.292
 6342SOL    HW119484   3.880   1.241   9.271
 6342SOL    HW219485   3.949   1.328   9.390
 6343SOL     OW19486   3.803   1.240   8.101
 6343SOL    HW119487   3.802   1.193   8.189
 6343SOL    HW219488   3.885   1.212   8.050
 6344SOL     OW19489   4.396   1.391   9.072
 6344SOL    HW119490   4.318   1.341   9.110
 6344SOL    HW219491   4.393   1.486   9.103
 6345SOL     OW19492   4.152   0.424   7.968
 6345SOL    HW119493   4.182   0.352   7.906
 6345SOL    HW219494   4.113   0.384   8.051
 6346SOL     OW19495   4.041   0.547   8.728
 6346SOL    HW119496   4.079   0.488   8.800
 6346SOL    HW219497   4.081   0.521   8.640
 6347SOL     OW19498   4.536   1.586   8.135
 6347SOL    HW119499   4.568   1.596   8.041
 6347SOL    HW219500   4.457   1.524   8.137
 6348SOL     OW19501   3.763   1.077   7.748
 6348SOL    HW119502   3.862   1.066   7.739
 6348SOL    HW219503   3.723   0.991   7.780
 6349SOL     OW19504   3.954   0.628   9.423
 6349SOL    HW119505   3.861   0.626   9.460
 6349SOL    HW219506   3.955   0.589   9.331
 6350SOL     OW19507   3.949   0.275  10.306
 6350SOL    HW119508   3.984   0.258  10.398
 6350SOL    HW219509   3.861   0.230  10.294
 6351SOL     OW19510   3.743   0.368   9.957
 6351SOL    HW119511   3.661   0.411   9.996
 6351SOL    HW219512   3.715   0.295   9.894
 6352SOL     OW19513   4.293   1.275  10.475
 6352SOL    HW119514   4.200   1.268  10.438
 6352SOL    HW219515   4.304   1.364  10.519
 6353SOL     OW19516   4.574   0.798  11.133
 6353SOL    HW119517   4.570   0.874  11.198
 6353SOL    HW219518   4.596   0.834  11.042
 6354SOL     OW19519   4.409   1.012   9.975
 6354SOL    HW119520   4.478   0.996  10.045
 6354SOL    HW219521   4.336   1.069  10.013
 6355SOL     OW19522   4.059   1.435  10.371
 6355SOL    HW119523   3.981   1.404  10.318
 6355SOL    HW219524   4.117   1.493  10.314
 6356SOL     OW19525   4.162   0.392  10.809
 6356SOL    HW119526   4.244   0.336  10.818
 6356SOL    HW219527   4.081   0.334  10.813
 6357SOL     OW19528   3.955   1.713   9.793
 6357SOL    HW119529   3.989   1.790   9.847
 6357SOL    HW219530   3.999   1.713   9.703
 6358SOL     OW19531   3.954   1.434   9.848
 6358SOL    HW119532   3.928   1.530   9.848
 6358SOL    HW219533   3.883   1.380   9.893
 6359SOL     OW19534   3.964   1.091  10.196
 6359SOL    HW119535   3.978   1.007  10.248
 6359SOL    HW219536   3.909   1.155  10.251
 6360SOL     OW19537   4.344   1.786  10.749
 6360SOL    HW119538   4.252   1.769  10.784
 6360SOL    HW219539   4.372   1.878  10.775
 6361SOL     OW19540   4.330   0.964   9.433
 6361SOL    HW119541   4.337   1.048   9.379
 6361SOL    HW219542   4.376   0.977   9.521
 6362SOL     OW19543   3.846   0.643   9.873
 6362SOL    HW119544   3.801   0.555   9.890
 6362SOL    HW219545   3.845   0.697   9.957
 6363SOL     OW19546   3.751   1.596   9.427
 6363SOL    HW119547   3.732   1.500   9.448
 6363SOL    HW219548   3.718   1.654   9.502
 6364SOL     OW19549   3.837   0.737  10.907
 6364SOL    HW119550   3.925   0.724  10.952
 6364SOL    HW219551   3.824   0.834  10.885
 6365SOL     OW19552   4.337   1.365  10.036
 6365SOL    HW119553   4.288   1.278  10.045
 6365SOL    HW219554   4.314   1.408   9.949
 6366SOL     OW19555   4.533   0.004   9.812
 6366SOL    HW119556   4.573   0.095   9.803
 6366SOL    HW219557   4.433   0.012   9.818
 6367SOL     OW19558   3.921   0.976  10.574
 6367SOL    HW119559   4.010   0.931  10.560
 6367SOL    HW219560   3.848   0.911  10.555
 6368SOL     OW19561   4.041   0.251  11.111
 6368SOL    HW119562   4.112   0.322  11.117
 6368SOL    HW219563   3.953   0.290  11.139
 6369SOL     OW19564   4.322   0.729   9.580
 6369SOL    HW119565   4.346   0.798   9.512
 6369SOL    HW219566   4.244   0.762   9.634
 6370SOL     OW19567   3.800   0.811  10.099
 6370SOL    HW119568   3.899   0.799  10.108
 6370SOL    HW219569   3.776   0.906  10.120
 6371SOL     OW19570   3.854   1.821  10.881
 6371SOL    HW119571   3.844   1.806  10.980
 6371SOL    HW219572   3.768   1.857  10.845
 6372SOL     OW19573   4.274   0.196  10.195
 6372SOL    HW119574   4.269   0.191  10.295
 6372SOL    HW219575   4.276   0.292  10.166
 6373SOL     OW19576   4.075   1.801  10.163
 6373SOL    HW119577   4.125   1.715  10.169
 6373SOL    HW219578   4.140   1.878  10.160
 6374SOL     OW19579   4.045   0.943   9.552
 6374SOL    HW119580   4.127   0.982   9.510
 6374SOL    HW219581   4.018   0.861   9.503
 6375SOL     OW19582   4.185   1.266  11.037
 6375SOL    HW119583   4.135   1.267  10.951
 6375SOL    HW219584   4.122   1.248  11.113
 6376SOL     OW19585   3.926   0.285  10.808
 6376SOL    HW119586   3.846   0.345  10.795
 6376SOL    HW219587   3.916   0.236  10.894
 6377SOL     OW19588   4.188   1.743   9.633
 6377SOL    HW119589   4.221   1.782   9.719
 6377SOL    HW219590   4.264   1.736   9.568
 6378SOL     OW19591   3.973   1.785  10.551
 6378SOL    HW119592   4.030   1.720  10.601
 6378SOL    HW219593   3.957   1.752  10.458
 6379SOL     OW19594   4.106   0.700   9.790
 6379SOL    HW119595   4.151   0.610   9.787
 6379SOL    HW219596   4.012   0.689   9.823
 6380SOL     OW19597   4.338   0.122   9.427
 6380SOL    HW119598   4.436   0.100   9.434
 6380SOL    HW219599   4.307   0.105   9.334
 6381SOL     OW19600   4.527   1.402  10.234
 6381SOL    HW119601   4.617   1.416  10.192
 6381SOL    HW219602   4.456   1.404  10.163
 6382SOL     OW19603   4.263   0.064   9.822
 6382SOL    HW119604   4.182   0.065   9.880
 6382SOL    HW219605   4.266   0.147   9.767
 6383SOL     OW19606   4.021   0.035   9.481
 6383SOL    HW119607   4.070   0.119   9.460
 6383SOL    HW219608   4.083  -0.030   9.526
 6384SOL     OW19609   4.800   0.683  10.774
 6384SOL    HW119610   4.720   0.622  10.777
 6384SOL    HW219611   4.881   0.630  10.750
 6385SOL     OW19612   4.183   1.152  10.051
 6385SOL    HW119613   4.112   1.125  10.116
 6385SOL    HW219614   4.157   1.124   9.958
 6386SOL     OW19615   3.802   0.556  10.696
 6386SOL    HW119616   3.894   0.555  10.655
 6386SOL    HW219617   3.796   0.630  10.763
 6387SOL     OW19618   4.285   0.222  10.457
 6387SOL    HW119619   4.323   0.138  10.494
 6387SOL    HW219620   4.197   0.241  10.501
 6388SOL     OW19621   4.212   1.385   9.484
 6388SOL    HW119622   4.125   1.370   9.531
 6388SOL    HW219623   4.195   1.411   9.389
 6389SOL     OW19624   4.251   0.256   9.638
 6389SOL    HW119625   4.278   0.197   9.563
 6389SOL    HW219626   4.251   0.351   9.607
 6390SOL     OW19627   4.134   0.813  10.561
 6390SOL    HW119628   4.220   0.825  10.611
 6390SOL    HW219629   4.092   0.726  10.588
 6391SOL     OW19630   3.788   1.564  10.641
 6391SOL    HW119631   3.742   1.646  10.607
 6391SOL    HW219632   3.886   1.583  10.650
 6392SOL     OW19633   4.091   1.100   9.811
 6392SOL    HW119634   4.084   1.183   9.755
 6392SOL    HW219635   4.095   1.020   9.751
 6393SOL     OW19636   4.290   0.537  10.175
 6393SOL    HW119637   4.302   0.603  10.101
 6393SOL    HW219638   4.336   0.571  10.258
 6394SOL     OW19639   4.078   1.510  10.639
 6394SOL    HW119640   4.057   1.466  10.552
 6394SOL    HW219641   4.175   1.536  10.642
 6395SOL     OW19642   4.126   0.751  10.908
 6395SOL    HW119643   4.194   0.806  10.861
 6395SOL    HW219644   4.166   0.663  10.935
 6396SOL     OW19645   4.297   0.870  10.339
 6396SOL    HW119646   4.341   0.959  10.330
 6396SOL    HW219647   4.234   0.870  10.416
 6397SOL     OW19648   4.031   0.213  10.541
 6397SOL    HW119649   4.008   0.250  10.631
 6397SOL    HW219650   4.001   0.118  10.535
 6398SOL     OW19651   3.761   1.310  10.592
 6398SOL    HW119652   3.814   1.261  10.660
 6398SOL    HW219653   3.783   1.408  10.597
 6399SOL     OW19654   4.031   0.063   9.928
 6399SOL    HW119655   4.020   0.157   9.961
 6399SOL    HW219656   4.026   0.000  10.005
 6400SOL     OW19657   4.074   0.898  11.114
 6400SOL    HW119658   4.150   0.942  11.162
 6400SOL    HW219659   4.109   0.851  11.032
 6401SOL     OW19660   4.043   0.810  10.259
 6401SOL    HW119661   4.136   0.846  10.264
 6401SOL    HW219662   4.037   0.725  10.311
 6402SOL     OW19663   4.063   0.509  10.316
 6402SOL    HW119664   4.011   0.426  10.299
 6402SOL    HW219665   4.140   0.514  10.252
 6403SOL     OW19666   3.732   1.326   9.510
 6403SOL    HW119667   3.639   1.347   9.479
 6403SOL    HW219668   3.742   1.227   9.523
 6404SOL     OW19669   3.812   1.801  10.237
 6404SOL    HW119670   3.770   1.715  10.210
 6404SOL    HW219671   3.906   1.804  10.203
 6405SOL     OW19672   4.228   1.568  10.220
 6405SOL    HW119673   4.294   1.642  10.229
 6405SOL    HW219674   4.272   1.489  10.178
 6406SOL     OW19675   3.764   0.544  10.424
 6406SOL    HW119676   3.849   0.511  10.383
 6406SOL    HW219677   3.777   0.559  10.522
 6407SOL     OW19678   4.539   0.572   9.635
 6407SOL    HW119679   4.546   0.483   9.589
 6407SOL    HW219680   4.445   0.606   9.627
 6408SOL     OW19681   3.976   1.564  11.054
 6408SOL    HW119682   3.946   1.621  11.130
 6408SOL    HW219683   3.969   1.467  11.080
 6409SOL     OW19684   4.197   0.500   9.501
 6409SOL    HW119685   4.258   0.580   9.505
 6409SOL    HW219686   4.102   0.531   9.508
 6410SOL     OW19687   3.883   1.137  10.776
 6410SOL    HW119688   3.905   1.076  10.852
 6410SOL    HW219689   3.893   1.088  10.690
 6411SOL     OW19690   3.807   1.258  10.332
 6411SOL    HW119691   3.802   1.257  10.432
 6411SOL    HW219692   3.724   1.217  10.294
 6412SOL     OW19693   4.412   1.662  11.026
 6412SOL    HW119694   4.356   1.743  11.035
 6412SOL    HW219695   4.464   1.666  10.940
 6413SOL     OW19696   3.987   0.326  10.030
 6413SOL    HW119697   3.908   0.377   9.996
 6413SOL    HW219698   3.978   0.311  10.128
 6414SOL     OW19699   4.096   1.288  10.800
 6414SOL    HW119700   4.083   1.381  10.766
 6414SOL    HW219701   4.012   1.236  10.787
 6415SOL     OW19702   4.314   1.487   9.801
 6415SOL    HW119703   4.356   1.429   9.731
 6415SOL    HW219704   4.270   1.566   9.757
 6416SOL     OW19705   3.979   1.348   9.600
 6416SOL    HW119706   3.883   1.349   9.573
 6416SOL    HW219707   3.991   1.401   9.684
 6417SOL     OW19708   3.829   1.013  11.036
 6417SOL    HW119709   3.752   0.980  11.090
 6417SOL    HW219710   3.914   0.983  11.078
 6418SOL     OW19711   4.396   0.203  10.799
 6418SOL    HW119712   4.486   0.187  10.759
 6418SOL    HW219713   4.404   0.208  10.898
 6419SOL     OW19714   3.799   0.345   9.343
 6419SOL    HW119715   3.707   0.317   9.314
 6419SOL    HW219716   3.830   0.422   9.287
 6420SOL     OW19717   3.796   0.166   9.628
 6420SOL    HW119718   3.779   0.249   9.574
 6420SOL    HW219719   3.886   0.129   9.606
 6421SOL     OW19720   4.337   0.842  10.741
 6421SOL    HW119721   4.393   0.923  10.724
 6421SOL    HW219722   4.396   0.762  10.744
 6422SOL     OW19723   4.114   1.741  10.870
 6422SOL    HW119724   4.023   1.782  10.868
 6422SOL    HW219725   4.107   1.647  10.902
 6423SOL     OW19726   4.318   0.745   9.962
 6423SOL    HW119727   4.368   0.830   9.943
 6423SOL    HW219728   4.230   0.747   9.914
 6424SOL     OW19729   3.803   1.240   9.963
 6424SOL    HW119730   3.802   1.193  10.051
 6424SOL    HW219731   3.885   1.212   9.912
 6425SOL     OW19732   4.396   1.391  10.934
 6425SOL    HW119733   4.318   1.341  10.972
 6425SOL    HW219734   4.393   1.486  10.965
 6426SOL     OW19735   4.152   0.424   9.830
 6426SOL    HW119736   4.182   0.352   9.768
 6426SOL    HW219737   4.113   0.384   9.913
 6427SOL     OW19738   4.041   0.547  10.590
 6427SOL    HW119739   4.079   0.488  10.662
 6427SOL    HW219740   4.081   0.521  10.502
 6428SOL     OW19741   4.536   1.586   9.997
 6428SOL    HW119742   4.568   1.596   9.903
 6428SOL    HW219743   4.457   1.524   9.999
 6429SOL     OW19744   3.763   1.077   9.610
 6429SOL    HW119745   3.862   1.066   9.601
 6429SOL    HW219746   3.723   0.991   9.642
 6430SOL     OW19747   3.954   2.490   0.113
 6430SOL    HW119748   3.861   2.488   0.150
 6430SOL    HW219749   3.955   2.451   0.021
 6431SOL     OW19750   3.949   2.137   0.996
 6431SOL    HW119751   3.984   2.120   1.088
 6431SOL    HW219752   3.861   2.092   0.984
 6432SOL     OW19753   3.743   2.230   0.647
 6432SOL    HW119754   3.661   2.273   0.686
 6432SOL    HW219755   3.715   2.157   0.584
 6433SOL     OW19756   4.293   3.137   1.165
 6433SOL    HW119757   4.200   3.130   1.128
 6433SOL    HW219758   4.304   3.226   1.209
 6434SOL     OW19759   4.574   2.660   1.823
 6434SOL    HW119760   4.570   2.736   1.888
 6434SOL    HW219761   4.596   2.696   1.732
 6435SOL     OW19762   4.409   2.874   0.665
 6435SOL    HW119763   4.478   2.858   0.735
 6435SOL    HW219764   4.336   2.931   0.703
 6436SOL     OW19765   4.410   3.023   1.803
 6436SOL    HW119766   4.470   3.102   1.817
 6436SOL    HW219767   4.324   3.054   1.762
 6437SOL     OW19768   4.059   3.297   1.061
 6437SOL    HW119769   3.981   3.266   1.008
 6437SOL    HW219770   4.117   3.355   1.004
 6438SOL     OW19771   4.162   2.254   1.499
 6438SOL    HW119772   4.244   2.198   1.508
 6438SOL    HW219773   4.081   2.196   1.503
 6439SOL     OW19774   3.955   3.575   0.483
 6439SOL    HW119775   3.989   3.652   0.537
 6439SOL    HW219776   3.999   3.575   0.393
 6440SOL     OW19777   3.954   3.296   0.538
 6440SOL    HW119778   3.928   3.392   0.538
 6440SOL    HW219779   3.883   3.242   0.583
 6441SOL     OW19780   3.964   2.953   0.886
 6441SOL    HW119781   3.978   2.869   0.938
 6441SOL    HW219782   3.909   3.017   0.941
 6442SOL     OW19783   4.344   3.648   1.439
 6442SOL    HW119784   4.252   3.631   1.474
 6442SOL    HW219785   4.372   3.740   1.465
 6443SOL     OW19786   4.330   2.826   0.123
 6443SOL    HW119787   4.337   2.910   0.069
 6443SOL    HW219788   4.376   2.839   0.211
 6444SOL     OW19789   3.846   2.505   0.563
 6444SOL    HW119790   3.801   2.417   0.580
 6444SOL    HW219791   3.845   2.559   0.647
 6445SOL     OW19792   3.751   3.458   0.117
 6445SOL    HW119793   3.732   3.362   0.138
 6445SOL    HW219794   3.718   3.516   0.192
 6446SOL     OW19795   3.837   2.599   1.597
 6446SOL    HW119796   3.925   2.586   1.642
 6446SOL    HW219797   3.824   2.696   1.575
 6447SOL     OW19798   4.337   3.227   0.726
 6447SOL    HW119799   4.288   3.140   0.735
 6447SOL    HW219800   4.314   3.270   0.639
 6448SOL     OW19801   4.533   1.866   0.502
 6448SOL    HW119802   4.573   1.957   0.493
 6448SOL    HW219803   4.433   1.874   0.508
 6449SOL     OW19804   3.921   2.838   1.264
 6449SOL    HW119805   4.010   2.793   1.250
 6449SOL    HW219806   3.848   2.773   1.245
 6450SOL     OW19807   4.041   2.113   1.801
 6450SOL    HW119808   4.112   2.184   1.807
 6450SOL    HW219809   3.953   2.152   1.829
 6451SOL     OW19810   4.322   2.591   0.270
 6451SOL    HW119811   4.346   2.660   0.202
 6451SOL    HW219812   4.244   2.624   0.324
 6452SOL     OW19813   3.800   2.673   0.789
 6452SOL    HW119814   3.899   2.661   0.798
 6452SOL    HW219815   3.776   2.768   0.810
 6453SOL     OW19816   3.854   3.683   1.571
 6453SOL    HW119817   3.844   3.668   1.670
 6453SOL    HW219818   3.768   3.719   1.535
 6454SOL     OW19819   4.274   2.058   0.885
 6454SOL    HW119820   4.269   2.053   0.985
 6454SOL    HW219821   4.276   2.154   0.856
 6455SOL     OW19822   4.075   3.663   0.853
 6455SOL    HW119823   4.125   3.577   0.859
 6455SOL    HW219824   4.140   3.740   0.850
 6456SOL     OW19825   4.045   2.805   0.242
 6456SOL    HW119826   4.127   2.844   0.200
 6456SOL    HW219827   4.018   2.723   0.193
 6457SOL     OW19828   4.185   3.128   1.727
 6457SOL    HW119829   4.135   3.129   1.641
 6457SOL    HW219830   4.122   3.110   1.803
 6458SOL     OW19831   3.926   2.147   1.498
 6458SOL    HW119832   3.846   2.207   1.485
 6458SOL    HW219833   3.916   2.098   1.584
 6459SOL     OW19834   4.188   3.605   0.323
 6459SOL    HW119835   4.221   3.644   0.409
 6459SOL    HW219836   4.264   3.598   0.258
 6460SOL     OW19837   3.973   3.647   1.241
 6460SOL    HW119838   4.030   3.582   1.291
 6460SOL    HW219839   3.957   3.614   1.148
 6461SOL     OW19840   4.106   2.562   0.480
 6461SOL    HW119841   4.151   2.472   0.477
 6461SOL    HW219842   4.012   2.551   0.513
 6462SOL     OW19843   4.338   1.984   0.117
 6462SOL    HW119844   4.436   1.962   0.124
 6462SOL    HW219845   4.307   1.967   0.024
 6463SOL     OW19846   4.527   3.264   0.924
 6463SOL    HW119847   4.617   3.278   0.882
 6463SOL    HW219848   4.456   3.266   0.853
 6464SOL     OW19849   4.263   1.926   0.512
 6464SOL    HW119850   4.182   1.927   0.570
 6464SOL    HW219851   4.266   2.009   0.457
 6465SOL     OW19852   4.021   1.897   0.171
 6465SOL    HW119853   4.070   1.981   0.150
 6465SOL    HW219854   4.083   1.832   0.216
 6466SOL     OW19855   4.800   2.545   1.464
 6466SOL    HW119856   4.720   2.484   1.467
 6466SOL    HW219857   4.881   2.492   1.440
 6467SOL     OW19858   4.183   3.014   0.741
 6467SOL    HW119859   4.112   2.987   0.806
 6467SOL    HW219860   4.157   2.986   0.648
 6468SOL     OW19861   3.802   2.418   1.386
 6468SOL    HW119862   3.894   2.417   1.345
 6468SOL    HW219863   3.796   2.492   1.453
 6469SOL     OW19864   4.285   2.084   1.147
 6469SOL    HW119865   4.323   2.000   1.184
 6469SOL    HW219866   4.197   2.103   1.191
 6470SOL     OW19867   4.212   3.247   0.174
 6470SOL    HW119868   4.125   3.232   0.221
 6470SOL    HW219869   4.195   3.273   0.079
 6471SOL     OW19870   4.251   2.118   0.328
 6471SOL    HW119871   4.278   2.059   0.253
 6471SOL    HW219872   4.251   2.213   0.297
 6472SOL     OW19873   4.134   2.675   1.251
 6472SOL    HW119874   4.220   2.687   1.301
 6472SOL    HW219875   4.092   2.588   1.278
 6473SOL     OW19876   3.788   3.426   1.331
 6473SOL    HW119877   3.742   3.508   1.297
 6473SOL    HW219878   3.886   3.445   1.340
 6474SOL     OW19879   4.091   2.962   0.501
 6474SOL    HW119880   4.084   3.045   0.445
 6474SOL    HW219881   4.095   2.882   0.441
 6475SOL     OW19882   4.290   2.399   0.865
 6475SOL    HW119883   4.302   2.465   0.791
 6475SOL    HW219884   4.336   2.433   0.948
 6476SOL     OW19885   4.078   3.372   1.329
 6476SOL    HW119886   4.057   3.328   1.242
 6476SOL    HW219887   4.175   3.398   1.332
 6477SOL     OW19888   4.126   2.613   1.598
 6477SOL    HW119889   4.194   2.668   1.551
 6477SOL    HW219890   4.166   2.525   1.625
 6478SOL     OW19891   4.228   1.912   1.740
 6478SOL    HW119892   4.186   1.855   1.670
 6478SOL    HW219893   4.162   1.981   1.772
 6479SOL     OW19894   4.297   2.732   1.029
 6479SOL    HW119895   4.341   2.821   1.020
 6479SOL    HW219896   4.234   2.732   1.106
 6480SOL     OW19897   4.031   2.075   1.231
 6480SOL    HW119898   4.008   2.112   1.321
 6480SOL    HW219899   4.001   1.980   1.225
 6481SOL     OW19900   3.761   3.172   1.282
 6481SOL    HW119901   3.814   3.123   1.350
 6481SOL    HW219902   3.783   3.270   1.287
 6482SOL     OW19903   4.031   1.925   0.618
 6482SOL    HW119904   4.020   2.019   0.651
 6482SOL    HW219905   4.026   1.862   0.695
 6483SOL     OW19906   4.074   2.760   1.804
 6483SOL    HW119907   4.150   2.804   1.852
 6483SOL    HW219908   4.109   2.713   1.722
 6484SOL     OW19909   4.043   2.672   0.949
 6484SOL    HW119910   4.136   2.708   0.954
 6484SOL    HW219911   4.037   2.587   1.001
 6485SOL     OW19912   4.063   2.371   1.006
 6485SOL    HW119913   4.011   2.288   0.989
 6485SOL    HW219914   4.140   2.376   0.942
 6486SOL     OW19915   3.732   3.188   0.200
 6486SOL    HW119916   3.639   3.209   0.169
 6486SOL    HW219917   3.742   3.089   0.213
 6487SOL     OW19918   3.812   3.663   0.927
 6487SOL    HW119919   3.770   3.577   0.900
 6487SOL    HW219920   3.906   3.666   0.893
 6488SOL     OW19921   4.228   3.430   0.910
 6488SOL    HW119922   4.294   3.504   0.919
 6488SOL    HW219923   4.272   3.351   0.868
 6489SOL     OW19924   3.764   2.406   1.114
 6489SOL    HW119925   3.849   2.373   1.073
 6489SOL    HW219926   3.777   2.421   1.212
 6490SOL     OW19927   3.913   2.382   1.722
 6490SOL    HW119928   3.972   2.342   1.652
 6490SOL    HW219929   3.855   2.453   1.681
 6491SOL     OW19930   4.539   2.434   0.325
 6491SOL    HW119931   4.546   2.345   0.279
 6491SOL    HW219932   4.445   2.468   0.317
 6492SOL     OW19933   3.976   3.426   1.744
 6492SOL    HW119934   3.946   3.483   1.820
 6492SOL    HW219935   3.969   3.329   1.770
 6493SOL     OW19936   4.197   2.362   0.191
 6493SOL    HW119937   4.258   2.442   0.195
 6493SOL    HW219938   4.102   2.393   0.198
 6494SOL     OW19939   3.883   2.999   1.466
 6494SOL    HW119940   3.905   2.938   1.542
 6494SOL    HW219941   3.893   2.950   1.380
 6495SOL     OW19942   3.807   3.120   1.022
 6495SOL    HW119943   3.802   3.119   1.122
 6495SOL    HW219944   3.724   3.079   0.984
 6496SOL     OW19945   4.412   3.524   1.716
 6496SOL    HW119946   4.356   3.605   1.725
 6496SOL    HW219947   4.464   3.528   1.630
 6497SOL     OW19948   3.854   3.656   1.851
 6497SOL    HW119949   3.813   3.582   1.904
 6497SOL    HW219950   3.918   3.707   1.909
 6498SOL     OW19951   3.987   2.188   0.720
 6498SOL    HW119952   3.908   2.239   0.686
 6498SOL    HW219953   3.978   2.173   0.818
 6499SOL     OW19954   4.096   3.150   1.490
 6499SOL    HW119955   4.083   3.243   1.456
 6499SOL    HW219956   4.012   3.098   1.477
 6500SOL     OW19957   4.314   3.349   0.491
 6500SOL    HW119958   4.356   3.291   0.421
 6500SOL    HW219959   4.270   3.428   0.447
 6501SOL     OW19960   3.979   3.210   0.290
 6501SOL    HW119961   3.883   3.211   0.263
 6501SOL    HW219962   3.991   3.263   0.374
 6502SOL     OW19963   3.829   2.875   1.726
 6502SOL    HW119964   3.752   2.842   1.780
 6502SOL    HW219965   3.914   2.845   1.768
 6503SOL     OW19966   4.396   2.065   1.489
 6503SOL    HW119967   4.486   2.049   1.449
 6503SOL    HW219968   4.404   2.070   1.588
 6504SOL     OW19969   3.799   2.207   0.033
 6504SOL    HW119970   3.707   2.179   0.004
 6504SOL    HW219971   3.830   2.284  -0.023
 6505SOL     OW19972   3.796   2.028   0.318
 6505SOL    HW119973   3.779   2.111   0.264
 6505SOL    HW219974   3.886   1.991   0.296
 6506SOL     OW19975   4.337   2.704   1.431
 6506SOL    HW119976   4.393   2.785   1.414
 6506SOL    HW219977   4.396   2.624   1.434
 6507SOL     OW19978   4.440   2.427   1.708
 6507SOL    HW119979   4.459   2.492   1.782
 6507SOL    HW219980   4.500   2.347   1.717
 6508SOL     OW19981   4.114   3.603   1.560
 6508SOL    HW119982   4.023   3.644   1.558
 6508SOL    HW219983   4.107   3.509   1.592
 6509SOL     OW19984   4.318   2.607   0.652
 6509SOL    HW119985   4.368   2.692   0.633
 6509SOL    HW219986   4.230   2.609   0.604
 6510SOL     OW19987   3.945   3.176   1.844
 6510SOL    HW119988   3.880   3.103   1.823
 6510SOL    HW219989   3.949   3.190   1.942
 6511SOL     OW19990   3.803   3.102   0.653
 6511SOL    HW119991   3.802   3.055   0.741
 6511SOL    HW219992   3.885   3.074   0.602
 6512SOL     OW19993   4.396   3.253   1.624
 6512SOL    HW119994   4.318   3.203   1.662
 6512SOL    HW219995   4.393   3.348   1.655
 6513SOL     OW19996   4.152   2.286   0.520
 6513SOL    HW119997   4.182   2.214   0.458
 6513SOL    HW219998   4.113   2.246   0.603
 6514SOL     OW19999   4.041   2.409   1.280
 6514SOL    HW120000   4.079   2.350   1.352
 6514SOL    HW220001   4.081   2.383   1.192
 6515SOL     OW20002   4.536   3.448   0.687
 6515SOL    HW120003   4.568   3.458   0.593
 6515SOL    HW220004   4.457   3.386   0.689
 6516SOL     OW20005   3.763   2.939   0.300
 6516SOL    HW120006   3.862   2.928   0.291
 6516SOL    HW220007   3.723   2.853   0.332
 6517SOL     OW20008   3.954   2.490   1.975
 6517SOL    HW120009   3.861   2.488   2.012
 6517SOL    HW220010   3.955   2.451   1.883
 6518SOL     OW20011   3.949   2.137   2.858
 6518SOL    HW120012   3.984   2.120   2.950
 6518SOL    HW220013   3.861   2.092   2.846
 6519SOL     OW20014   3.743   2.230   2.509
 6519SOL    HW120015   3.661   2.273   2.548
 6519SOL    HW220016   3.715   2.157   2.446
 6520SOL     OW20017   4.293   3.137   3.027
 6520SOL    HW120018   4.200   3.130   2.990
 6520SOL    HW220019   4.304   3.226   3.071
 6521SOL     OW20020   4.574   2.660   3.685
 6521SOL    HW120021   4.570   2.736   3.750
 6521SOL    HW220022   4.596   2.696   3.594
 6522SOL     OW20023   4.409   2.874   2.527
 6522SOL    HW120024   4.478   2.858   2.597
 6522SOL    HW220025   4.336   2.931   2.565
 6523SOL     OW20026   4.410   3.023   3.665
 6523SOL    HW120027   4.470   3.102   3.679
 6523SOL    HW220028   4.324   3.054   3.624
 6524SOL     OW20029   4.059   3.297   2.923
 6524SOL    HW120030   3.981   3.266   2.870
 6524SOL    HW220031   4.117   3.355   2.866
 6525SOL     OW20032   4.162   2.254   3.361
 6525SOL    HW120033   4.244   2.198   3.370
 6525SOL    HW220034   4.081   2.196   3.365
 6526SOL     OW20035   3.955   3.575   2.345
 6526SOL    HW120036   3.989   3.652   2.399
 6526SOL    HW220037   3.999   3.575   2.255
 6527SOL     OW20038   3.954   3.296   2.400
 6527SOL    HW120039   3.928   3.392   2.400
 6527SOL    HW220040   3.883   3.242   2.445
 6528SOL     OW20041   3.964   2.953   2.748
 6528SOL    HW120042   3.978   2.869   2.800
 6528SOL    HW220043   3.909   3.017   2.803
 6529SOL     OW20044   4.344   3.648   3.301
 6529SOL    HW120045   4.252   3.631   3.336
 6529SOL    HW220046   4.372   3.740   3.327
 6530SOL     OW20047   4.330   2.826   1.985
 6530SOL    HW120048   4.337   2.910   1.931
 6530SOL    HW220049   4.376   2.839   2.073
 6531SOL     OW20050   3.846   2.505   2.425
 6531SOL    HW120051   3.801   2.417   2.442
 6531SOL    HW220052   3.845   2.559   2.509
 6532SOL     OW20053   3.751   3.458   1.979
 6532SOL    HW120054   3.732   3.362   2.000
 6532SOL    HW220055   3.718   3.516   2.054
 6533SOL     OW20056   3.837   2.599   3.459
 6533SOL    HW120057   3.925   2.586   3.504
 6533SOL    HW220058   3.824   2.696   3.437
 6534SOL     OW20059   4.337   3.227   2.588
 6534SOL    HW120060   4.288   3.140   2.597
 6534SOL    HW220061   4.314   3.270   2.501
 6535SOL     OW20062   4.533   1.866   2.364
 6535SOL    HW120063   4.573   1.957   2.355
 6535SOL    HW220064   4.433   1.874   2.370
 6536SOL     OW20065   3.921   2.838   3.126
 6536SOL    HW120066   4.010   2.793   3.112
 6536SOL    HW220067   3.848   2.773   3.107
 6537SOL     OW20068   4.041   2.113   3.663
 6537SOL    HW120069   4.112   2.184   3.669
 6537SOL    HW220070   3.953   2.152   3.691
 6538SOL     OW20071   4.322   2.591   2.132
 6538SOL    HW120072   4.346   2.660   2.064
 6538SOL    HW220073   4.244   2.624   2.186
 6539SOL     OW20074   3.800   2.673   2.651
 6539SOL    HW120075   3.899   2.661   2.660
 6539SOL    HW220076   3.776   2.768   2.672
 6540SOL     OW20077   3.854   3.683   3.433
 6540SOL    HW120078   3.844   3.668   3.532
 6540SOL    HW220079   3.768   3.719   3.397
 6541SOL     OW20080   4.274   2.058   2.747
 6541SOL    HW120081   4.269   2.053   2.847
 6541SOL    HW220082   4.276   2.154   2.718
 6542SOL     OW20083   4.075   3.663   2.715
 6542SOL    HW120084   4.125   3.577   2.721
 6542SOL    HW220085   4.140   3.740   2.712
 6543SOL     OW20086   4.045   2.805   2.104
 6543SOL    HW120087   4.127   2.844   2.062
 6543SOL    HW220088   4.018   2.723   2.055
 6544SOL     OW20089   4.185   3.128   3.589
 6544SOL    HW120090   4.135   3.129   3.503
 6544SOL    HW220091   4.122   3.110   3.665
 6545SOL     OW20092   3.926   2.147   3.360
 6545SOL    HW120093   3.846   2.207   3.347
 6545SOL    HW220094   3.916   2.098   3.446
 6546SOL     OW20095   4.188   3.605   2.185
 6546SOL    HW120096   4.221   3.644   2.271
 6546SOL    HW220097   4.264   3.598   2.120
 6547SOL     OW20098   3.973   3.647   3.103
 6547SOL    HW120099   4.030   3.582   3.153
 6547SOL    HW220100   3.957   3.614   3.010
 6548SOL     OW20101   4.106   2.562   2.342
 6548SOL    HW120102   4.151   2.472   2.339
 6548SOL    HW220103   4.012   2.551   2.375
 6549SOL     OW20104   4.338   1.984   1.979
 6549SOL    HW120105   4.436   1.962   1.986
 6549SOL    HW220106   4.307   1.967   1.886
 6550SOL     OW20107   4.527   3.264   2.786
 6550SOL    HW120108   4.617   3.278   2.744
 6550SOL    HW220109   4.456   3.266   2.715
 6551SOL     OW20110   4.263   1.926   2.374
 6551SOL    HW120111   4.182   1.927   2.432
 6551SOL    HW220112   4.266   2.009   2.319
 6552SOL     OW20113   4.021   1.897   2.033
 6552SOL    HW120114   4.070   1.981   2.012
 6552SOL    HW220115   4.083   1.832   2.078
 6553SOL     OW20116   4.800   2.545   3.326
 6553SOL    HW120117   4.720   2.484   3.329
 6553SOL    HW220118   4.881   2.492   3.302
 6554SOL     OW20119   4.183   3.014   2.603
 6554SOL    HW120120   4.112   2.987   2.668
 6554SOL    HW220121   4.157   2.986   2.510
 6555SOL     OW20122   3.802   2.418   3.248
 6555SOL    HW120123   3.894   2.417   3.207
 6555SOL    HW220124   3.796   2.492   3.315
 6556SOL     OW20125   4.285   2.084   3.009
 6556SOL    HW120126   4.323   2.000   3.046
 6556SOL    HW220127   4.197   2.103   3.053
 6557SOL     OW20128   4.212   3.247   2.036
 6557SOL    HW120129   4.125   3.232   2.083
 6557SOL    HW220130   4.195   3.273   1.941
 6558SOL     OW20131   4.251   2.118   2.190
 6558SOL    HW120132   4.278   2.059   2.115
 6558SOL    HW220133   4.251   2.213   2.159
 6559SOL     OW20134   4.134   2.675   3.113
 6559SOL    HW120135   4.220   2.687   3.163
 6559SOL    HW220136   4.092   2.588   3.140
 6560SOL     OW20137   3.788   3.426   3.193
 6560SOL    HW120138   3.742   3.508   3.159
 6560SOL    HW220139   3.886   3.445   3.202
 6561SOL     OW20140   4.091   2.962   2.363
 6561SOL    HW120141   4.084   3.045   2.307
 6561SOL    HW220142   4.095   2.882   2.303
 6562SOL     OW20143   4.290   2.399   2.727
 6562SOL    HW120144   4.302   2.465   2.653
 6562SOL    HW220145   4.336   2.433   2.810
 6563SOL     OW20146   4.078   3.372   3.191
 6563SOL    HW120147   4.057   3.328   3.104
 6563SOL    HW220148   4.175   3.398   3.194
 6564SOL     OW20149   4.126   2.613   3.460
 6564SOL    HW120150   4.194   2.668   3.413
 6564SOL    HW220151   4.166   2.525   3.487
 6565SOL     OW20152   4.228   1.912   3.602
 6565SOL    HW120153   4.186   1.855   3.532
 6565SOL    HW220154   4.162   1.981   3.634
 6566SOL     OW20155   4.297   2.732   2.891
 6566SOL    HW120156   4.341   2.821   2.882
 6566SOL    HW220157   4.234   2.732   2.968
 6567SOL     OW20158   4.031   2.075   3.093
 6567SOL    HW120159   4.008   2.112   3.183
 6567SOL    HW220160   4.001   1.980   3.087
 6568SOL     OW20161   3.761   3.172   3.144
 6568SOL    HW120162   3.814   3.123   3.212
 6568SOL    HW220163   3.783   3.270   3.149
 6569SOL     OW20164   4.031   1.925   2.480
 6569SOL    HW120165   4.020   2.019   2.513
 6569SOL    HW220166   4.026   1.862   2.557
 6570SOL     OW20167   4.074   2.760   3.666
 6570SOL    HW120168   4.150   2.804   3.714
 6570SOL    HW220169   4.109   2.713   3.584
 6571SOL     OW20170   4.043   2.672   2.811
 6571SOL    HW120171   4.136   2.708   2.816
 6571SOL    HW220172   4.037   2.587   2.863
 6572SOL     OW20173   4.063   2.371   2.868
 6572SOL    HW120174   4.011   2.288   2.851
 6572SOL    HW220175   4.140   2.376   2.804
 6573SOL     OW20176   3.732   3.188   2.062
 6573SOL    HW120177   3.639   3.209   2.031
 6573SOL    HW220178   3.742   3.089   2.075
 6574SOL     OW20179   3.812   3.663   2.789
 6574SOL    HW120180   3.770   3.577   2.762
 6574SOL    HW220181   3.906   3.666   2.755
 6575SOL     OW20182   4.228   3.430   2.772
 6575SOL    HW120183   4.294   3.504   2.781
 6575SOL    HW220184   4.272   3.351   2.730
 6576SOL     OW20185   3.764   2.406   2.976
 6576SOL    HW120186   3.849   2.373   2.935
 6576SOL    HW220187   3.777   2.421   3.074
 6577SOL     OW20188   3.913   2.382   3.584
 6577SOL    HW120189   3.972   2.342   3.514
 6577SOL    HW220190   3.855   2.453   3.543
 6578SOL     OW20191   4.539   2.434   2.187
 6578SOL    HW120192   4.546   2.345   2.141
 6578SOL    HW220193   4.445   2.468   2.179
 6579SOL     OW20194   3.976   3.426   3.606
 6579SOL    HW120195   3.946   3.483   3.682
 6579SOL    HW220196   3.969   3.329   3.632
 6580SOL     OW20197   4.197   2.362   2.053
 6580SOL    HW120198   4.258   2.442   2.057
 6580SOL    HW220199   4.102   2.393   2.060
 6581SOL     OW20200   3.883   2.999   3.328
 6581SOL    HW120201   3.905   2.938   3.404
 6581SOL    HW220202   3.893   2.950   3.242
 6582SOL     OW20203   3.807   3.120   2.884
 6582SOL    HW120204   3.802   3.119   2.984
 6582SOL    HW220205   3.724   3.079   2.846
 6583SOL     OW20206   4.412   3.524   3.578
 6583SOL    HW120207   4.356   3.605   3.587
 6583SOL    HW220208   4.464   3.528   3.492
 6584SOL     OW20209   3.854   3.656   3.713
 6584SOL    HW120210   3.813   3.582   3.766
 6584SOL    HW220211   3.918   3.707   3.771
 6585SOL     OW20212   3.987   2.188   2.582
 6585SOL    HW120213   3.908   2.239   2.548
 6585SOL    HW220214   3.978   2.173   2.680
 6586SOL     OW20215   4.096   3.150   3.352
 6586SOL    HW120216   4.083   3.243   3.318
 6586SOL    HW220217   4.012   3.098   3.339
 6587SOL     OW20218   4.314   3.349   2.353
 6587SOL    HW120219   4.356   3.291   2.283
 6587SOL    HW220220   4.270   3.428   2.309
 6588SOL     OW20221   3.979   3.210   2.152
 6588SOL    HW120222   3.883   3.211   2.125
 6588SOL    HW220223   3.991   3.263   2.236
 6589SOL     OW20224   3.829   2.875   3.588
 6589SOL    HW120225   3.752   2.842   3.642
 6589SOL    HW220226   3.914   2.845   3.630
 6590SOL     OW20227   4.396   2.065   3.351
 6590SOL    HW120228   4.486   2.049   3.311
 6590SOL    HW220229   4.404   2.070   3.450
 6591SOL     OW20230   3.799   2.207   1.895
 6591SOL    HW120231   3.707   2.179   1.866
 6591SOL    HW220232   3.830   2.284   1.839
 6592SOL     OW20233   3.796   2.028   2.180
 6592SOL    HW120234   3.779   2.111   2.126
 6592SOL    HW220235   3.886   1.991   2.158
 6593SOL     OW20236   4.337   2.704   3.293
 6593SOL    HW120237   4.393   2.785   3.276
 6593SOL    HW220238   4.396   2.624   3.296
 6594SOL     OW20239   4.440   2.427   3.570
 6594SOL    HW120240   4.459   2.492   3.644
 6594SOL    HW220241   4.500   2.347   3.579
 6595SOL     OW20242   4.114   3.603   3.422
 6595SOL    HW120243   4.023   3.644   3.420
 6595SOL    HW220244   4.107   3.509   3.454
 6596SOL     OW20245   4.318   2.607   2.514
 6596SOL    HW120246   4.368   2.692   2.495
 6596SOL    HW220247   4.230   2.609   2.466
 6597SOL     OW20248   3.945   3.176   3.706
 6597SOL    HW120249   3.880   3.103   3.685
 6597SOL    HW220250   3.949   3.190   3.804
 6598SOL     OW20251   3.803   3.102   2.515
 6598SOL    HW120252   3.802   3.055   2.603
 6598SOL    HW220253   3.885   3.074   2.464
 6599SOL     OW20254   4.396   3.253   3.486
 6599SOL    HW120255   4.318   3.203   3.524
 6599SOL    HW220256   4.393   3.348   3.517
 6600SOL     OW20257   4.152   2.286   2.382
 6600SOL    HW120258   4.182   2.214   2.320
 6600SOL    HW220259   4.113   2.246   2.465
 6601SOL     OW20260   4.041   2.409   3.142
 6601SOL    HW120261   4.079   2.350   3.214
 6601SOL    HW220262   4.081   2.383   3.054
 6602SOL     OW20263   4.536   3.448   2.549
 6602SOL    HW120264   4.568   3.458   2.455
 6602SOL    HW220265   4.457   3.386   2.551
 6603SOL     OW20266   3.763   2.939   2.162
 6603SOL    HW120267   3.862   2.928   2.153
 6603SOL    HW220268   3.723   2.853   2.194
 6604SOL     OW20269   3.954   2.490   3.837
 6604SOL    HW120270   3.861   2.488   3.874
 6604SOL    HW220271   3.955   2.451   3.745
 6605SOL     OW20272   3.949   2.137   4.720
 6605SOL    HW120273   3.984   2.120   4.812
 6605SOL    HW220274   3.861   2.092   4.708
 6606SOL     OW20275   3.743   2.230   4.371
 6606SOL    HW120276   3.661   2.273   4.410
 6606SOL    HW220277   3.715   2.157   4.308
 6607SOL     OW20278   4.293   3.137   4.889
 6607SOL    HW120279   4.200   3.130   4.852
 6607SOL    HW220280   4.304   3.226   4.933
 6608SOL     OW20281   4.574   2.660   5.547
 6608SOL    HW120282   4.570   2.736   5.612
 6608SOL    HW220283   4.596   2.696   5.456
 6609SOL     OW20284   4.409   2.874   4.389
 6609SOL    HW120285   4.478   2.858   4.459
 6609SOL    HW220286   4.336   2.931   4.427
 6610SOL     OW20287   4.410   3.023   5.527
 6610SOL    HW120288   4.470   3.102   5.541
 6610SOL    HW220289   4.324   3.054   5.486
 6611SOL     OW20290   4.059   3.297   4.785
 6611SOL    HW120291   3.981   3.266   4.732
 6611SOL    HW220292   4.117   3.355   4.728
 6612SOL     OW20293   4.162   2.254   5.223
 6612SOL    HW120294   4.244   2.198   5.232
 6612SOL    HW220295   4.081   2.196   5.227
 6613SOL     OW20296   3.955   3.575   4.207
 6613SOL    HW120297   3.989   3.652   4.261
 6613SOL    HW220298   3.999   3.575   4.117
 6614SOL     OW20299   3.954   3.296   4.262
 6614SOL    HW120300   3.928   3.392   4.262
 6614SOL    HW220301   3.883   3.242   4.307
 6615SOL     OW20302   3.964   2.953   4.610
 6615SOL    HW120303   3.978   2.869   4.662
 6615SOL    HW220304   3.909   3.017   4.665
 6616SOL     OW20305   4.344   3.648   5.163
 6616SOL    HW120306   4.252   3.631   5.198
 6616SOL    HW220307   4.372   3.740   5.189
 6617SOL     OW20308   4.330   2.826   3.847
 6617SOL    HW120309   4.337   2.910   3.793
 6617SOL    HW220310   4.376   2.839   3.935
 6618SOL     OW20311   3.846   2.505   4.287
 6618SOL    HW120312   3.801   2.417   4.304
 6618SOL    HW220313   3.845   2.559   4.371
 6619SOL     OW20314   3.751   3.458   3.841
 6619SOL    HW120315   3.732   3.362   3.862
 6619SOL    HW220316   3.718   3.516   3.916
 6620SOL     OW20317   3.837   2.599   5.321
 6620SOL    HW120318   3.925   2.586   5.366
 6620SOL    HW220319   3.824   2.696   5.299
 6621SOL     OW20320   4.337   3.227   4.450
 6621SOL    HW120321   4.288   3.140   4.459
 6621SOL    HW220322   4.314   3.270   4.363
 6622SOL     OW20323   4.533   1.866   4.226
 6622SOL    HW120324   4.573   1.957   4.217
 6622SOL    HW220325   4.433   1.874   4.232
 6623SOL     OW20326   3.921   2.838   4.988
 6623SOL    HW120327   4.010   2.793   4.974
 6623SOL    HW220328   3.848   2.773   4.969
 6624SOL     OW20329   4.041   2.113   5.525
 6624SOL    HW120330   4.112   2.184   5.531
 6624SOL    HW220331   3.953   2.152   5.553
 6625SOL     OW20332   4.322   2.591   3.994
 6625SOL    HW120333   4.346   2.660   3.926
 6625SOL    HW220334   4.244   2.624   4.048
 6626SOL     OW20335   3.800   2.673   4.513
 6626SOL    HW120336   3.899   2.661   4.522
 6626SOL    HW220337   3.776   2.768   4.534
 6627SOL     OW20338   3.854   3.683   5.295
 6627SOL    HW120339   3.844   3.668   5.394
 6627SOL    HW220340   3.768   3.719   5.259
 6628SOL     OW20341   4.274   2.058   4.609
 6628SOL    HW120342   4.269   2.053   4.709
 6628SOL    HW220343   4.276   2.154   4.580
 6629SOL     OW20344   4.075   3.663   4.577
 6629SOL    HW120345   4.125   3.577   4.583
 6629SOL    HW220346   4.140   3.740   4.574
 6630SOL     OW20347   4.045   2.805   3.966
 6630SOL    HW120348   4.127   2.844   3.924
 6630SOL    HW220349   4.018   2.723   3.917
 6631SOL     OW20350   4.185   3.128   5.451
 6631SOL    HW120351   4.135   3.129   5.365
 6631SOL    HW220352   4.122   3.110   5.527
 6632SOL     OW20353   3.926   2.147   5.222
 6632SOL    HW120354   3.846   2.207   5.209
 6632SOL    HW220355   3.916   2.098   5.308
 6633SOL     OW20356   4.188   3.605   4.047
 6633SOL    HW120357   4.221   3.644   4.133
 6633SOL    HW220358   4.264   3.598   3.982
 6634SOL     OW20359   3.973   3.647   4.965
 6634SOL    HW120360   4.030   3.582   5.015
 6634SOL    HW220361   3.957   3.614   4.872
 6635SOL     OW20362   4.106   2.562   4.204
 6635SOL    HW120363   4.151   2.472   4.201
 6635SOL    HW220364   4.012   2.551   4.237
 6636SOL     OW20365   4.338   1.984   3.841
 6636SOL    HW120366   4.436   1.962   3.848
 6636SOL    HW220367   4.307   1.967   3.748
 6637SOL     OW20368   4.527   3.264   4.648
 6637SOL    HW120369   4.617   3.278   4.606
 6637SOL    HW220370   4.456   3.266   4.577
 6638SOL     OW20371   4.263   1.926   4.236
 6638SOL    HW120372   4.182   1.927   4.294
 6638SOL    HW220373   4.266   2.009   4.181
 6639SOL     OW20374   4.021   1.897   3.895
 6639SOL    HW120375   4.070   1.981   3.874
 6639SOL    HW220376   4.083   1.832   3.940
 6640SOL     OW20377   4.800   2.545   5.188
 6640SOL    HW120378   4.720   2.484   5.191
 6640SOL    HW220379   4.881   2.492   5.164
 6641SOL     OW20380   4.183   3.014   4.465
 6641SOL    HW120381   4.112   2.987   4.530
 6641SOL    HW220382   4.157   2.986   4.372
 6642SOL     OW20383   3.802   2.418   5.110
 6642SOL    HW120384   3.894   2.417   5.069
 6642SOL    HW220385   3.796   2.492   5.177
 6643SOL     OW20386   4.285   2.084   4.871
 6643SOL    HW120387   4.323   2.000   4.908
 6643SOL    HW220388   4.197   2.103   4.915
 6644SOL     OW20389   4.212   3.247   3.898
 6644SOL    HW120390   4.125   3.232   3.945
 6644SOL    HW220391   4.195   3.273   3.803
 6645SOL     OW20392   4.251   2.118   4.052
 6645SOL    HW120393   4.278   2.059   3.977
 6645SOL    HW220394   4.251   2.213   4.021
 6646SOL     OW20395   4.134   2.675   4.975
 6646SOL    HW120396   4.220   2.687   5.025
 6646SOL    HW220397   4.092   2.588   5.002
 6647SOL     OW20398   3.788   3.426   5.055
 6647SOL    HW120399   3.742   3.508   5.021
 6647SOL    HW220400   3.886   3.445   5.064
 6648SOL     OW20401   4.091   2.962   4.225
 6648SOL    HW120402   4.084   3.045   4.169
 6648SOL    HW220403   4.095   2.882   4.165
 6649SOL     OW20404   4.290   2.399   4.589
 6649SOL    HW120405   4.302   2.465   4.515
 6649SOL    HW220406   4.336   2.433   4.672
 6650SOL     OW20407   4.078   3.372   5.053
 6650SOL    HW120408   4.057   3.328   4.966
 6650SOL    HW220409   4.175   3.398   5.056
 6651SOL     OW20410   4.126   2.613   5.322
 6651SOL    HW120411   4.194   2.668   5.275
 6651SOL    HW220412   4.166   2.525   5.349
 6652SOL     OW20413   4.228   1.912   5.464
 6652SOL    HW120414   4.186   1.855   5.394
 6652SOL    HW220415   4.162   1.981   5.496
 6653SOL     OW20416   4.297   2.732   4.753
 6653SOL    HW120417   4.341   2.821   4.744
 6653SOL    HW220418   4.234   2.732   4.830
 6654SOL     OW20419   4.031   2.075   4.955
 6654SOL    HW120420   4.008   2.112   5.045
 6654SOL    HW220421   4.001   1.980   4.949
 6655SOL     OW20422   3.761   3.172   5.006
 6655SOL    HW120423   3.814   3.123   5.074
 6655SOL    HW220424   3.783   3.270   5.011
 6656SOL     OW20425   4.031   1.925   4.342
 6656SOL    HW120426   4.020   2.019   4.375
 6656SOL    HW220427   4.026   1.862   4.419
 6657SOL     OW20428   4.074   2.760   5.528
 6657SOL    HW120429   4.150   2.804   5.576
 6657SOL    HW220430   4.109   2.713   5.446
 6658SOL     OW20431   4.043   2.672   4.673
 6658SOL    HW120432   4.136   2.708   4.678
 6658SOL    HW220433   4.037   2.587   4.725
 6659SOL     OW20434   4.063   2.371   4.730
 6659SOL    HW120435   4.011   2.288   4.713
 6659SOL    HW220436   4.140   2.376   4.666
 6660SOL     OW20437   3.732   3.188   3.924
 6660SOL    HW120438   3.639   3.209   3.893
 6660SOL    HW220439   3.742   3.089   3.937
 6661SOL     OW20440   3.812   3.663   4.651
 6661SOL    HW120441   3.770   3.577   4.624
 6661SOL    HW220442   3.906   3.666   4.617
 6662SOL     OW20443   4.228   3.430   4.634
 6662SOL    HW120444   4.294   3.504   4.643
 6662SOL    HW220445   4.272   3.351   4.592
 6663SOL     OW20446   3.764   2.406   4.838
 6663SOL    HW120447   3.849   2.373   4.797
 6663SOL    HW220448   3.777   2.421   4.936
 6664SOL     OW20449   3.913   2.382   5.446
 6664SOL    HW120450   3.972   2.342   5.376
 6664SOL    HW220451   3.855   2.453   5.405
 6665SOL     OW20452   4.539   2.434   4.049
 6665SOL    HW120453   4.546   2.345   4.003
 6665SOL    HW220454   4.445   2.468   4.041
 6666SOL     OW20455   3.976   3.426   5.468
 6666SOL    HW120456   3.946   3.483   5.544
 6666SOL    HW220457   3.969   3.329   5.494
 6667SOL     OW20458   4.197   2.362   3.915
 6667SOL    HW120459   4.258   2.442   3.919
 6667SOL    HW220460   4.102   2.393   3.922
 6668SOL     OW20461   3.883   2.999   5.190
 6668SOL    HW120462   3.905   2.938   5.266
 6668SOL    HW220463   3.893   2.950   5.104
 6669SOL     OW20464   3.807   3.120   4.746
 6669SOL    HW120465   3.802   3.119   4.846
 6669SOL    HW220466   3.724   3.079   4.708
 6670SOL     OW20467   4.412   3.524   5.440
 6670SOL    HW120468   4.356   3.605   5.449
 6670SOL    HW220469   4.464   3.528   5.354
 6671SOL     OW20470   3.854   3.656   5.575
 6671SOL    HW120471   3.813   3.582   5.628
 6671SOL    HW220472   3.918   3.707   5.633
 6672SOL     OW20473   3.987   2.188   4.444
 6672SOL    HW120474   3.908   2.239   4.410
 6672SOL    HW220475   3.978   2.173   4.542
 6673SOL     OW20476   4.096   3.150   5.214
 6673SOL    HW120477   4.083   3.243   5.180
 6673SOL    HW220478   4.012   3.098   5.201
 6674SOL     OW20479   4.314   3.349   4.215
 6674SOL    HW120480   4.356   3.291   4.145
 6674SOL    HW220481   4.270   3.428   4.171
 6675SOL     OW20482   3.979   3.210   4.014
 6675SOL    HW120483   3.883   3.211   3.987
 6675SOL    HW220484   3.991   3.263   4.098
 6676SOL     OW20485   3.829   2.875   5.450
 6676SOL    HW120486   3.752   2.842   5.504
 6676SOL    HW220487   3.914   2.845   5.492
 6677SOL     OW20488   4.396   2.065   5.213
 6677SOL    HW120489   4.486   2.049   5.173
 6677SOL    HW220490   4.404   2.070   5.312
 6678SOL     OW20491   3.799   2.207   3.757
 6678SOL    HW120492   3.707   2.179   3.728
 6678SOL    HW220493   3.830   2.284   3.701
 6679SOL     OW20494   3.796   2.028   4.042
 6679SOL    HW120495   3.779   2.111   3.988
 6679SOL    HW220496   3.886   1.991   4.020
 6680SOL     OW20497   4.337   2.704   5.155
 6680SOL    HW120498   4.393   2.785   5.138
 6680SOL    HW220499   4.396   2.624   5.158
 6681SOL     OW20500   4.440   2.427   5.432
 6681SOL    HW120501   4.459   2.492   5.506
 6681SOL    HW220502   4.500   2.347   5.441
 6682SOL     OW20503   4.114   3.603   5.284
 6682SOL    HW120504   4.023   3.644   5.282
 6682SOL    HW220505   4.107   3.509   5.316
 6683SOL     OW20506   4.318   2.607   4.376
 6683SOL    HW120507   4.368   2.692   4.357
 6683SOL    HW220508   4.230   2.609   4.328
 6684SOL     OW20509   3.945   3.176   5.568
 6684SOL    HW120510   3.880   3.103   5.547
 6684SOL    HW220511   3.949   3.190   5.666
 6685SOL     OW20512   3.803   3.102   4.377
 6685SOL    HW120513   3.802   3.055   4.465
 6685SOL    HW220514   3.885   3.074   4.326
 6686SOL     OW20515   4.396   3.253   5.348
 6686SOL    HW120516   4.318   3.203   5.386
 6686SOL    HW220517   4.393   3.348   5.379
 6687SOL     OW20518   4.152   2.286   4.244
 6687SOL    HW120519   4.182   2.214   4.182
 6687SOL    HW220520   4.113   2.246   4.327
 6688SOL     OW20521   4.041   2.409   5.004
 6688SOL    HW120522   4.079   2.350   5.076
 6688SOL    HW220523   4.081   2.383   4.916
 6689SOL     OW20524   4.536   3.448   4.411
 6689SOL    HW120525   4.568   3.458   4.317
 6689SOL    HW220526   4.457   3.386   4.413
 6690SOL     OW20527   3.763   2.939   4.024
 6690SOL    HW120528   3.862   2.928   4.015
 6690SOL    HW220529   3.723   2.853   4.056
 6691SOL     OW20530   3.954   2.490   5.699
 6691SOL    HW120531   3.861   2.488   5.736
 6691SOL    HW220532   3.955   2.451   5.607
 6692SOL     OW20533   3.949   2.137   6.582
 6692SOL    HW120534   3.984   2.120   6.674
 6692SOL    HW220535   3.861   2.092   6.570
 6693SOL     OW20536   3.743   2.230   6.233
 6693SOL    HW120537   3.661   2.273   6.272
 6693SOL    HW220538   3.715   2.157   6.170
 6694SOL     OW20539   4.293   3.137   6.751
 6694SOL    HW120540   4.200   3.130   6.714
 6694SOL    HW220541   4.304   3.226   6.795
 6695SOL     OW20542   4.574   2.660   7.409
 6695SOL    HW120543   4.570   2.736   7.474
 6695SOL    HW220544   4.596   2.696   7.318
 6696SOL     OW20545   4.409   2.874   6.251
 6696SOL    HW120546   4.478   2.858   6.321
 6696SOL    HW220547   4.336   2.931   6.289
 6697SOL     OW20548   4.410   3.023   7.389
 6697SOL    HW120549   4.470   3.102   7.403
 6697SOL    HW220550   4.324   3.054   7.348
 6698SOL     OW20551   4.059   3.297   6.647
 6698SOL    HW120552   3.981   3.266   6.594
 6698SOL    HW220553   4.117   3.355   6.590
 6699SOL     OW20554   4.162   2.254   7.085
 6699SOL    HW120555   4.244   2.198   7.094
 6699SOL    HW220556   4.081   2.196   7.089
 6700SOL     OW20557   3.955   3.575   6.069
 6700SOL    HW120558   3.989   3.652   6.123
 6700SOL    HW220559   3.999   3.575   5.979
 6701SOL     OW20560   3.954   3.296   6.124
 6701SOL    HW120561   3.928   3.392   6.124
 6701SOL    HW220562   3.883   3.242   6.169
 6702SOL     OW20563   3.964   2.953   6.472
 6702SOL    HW120564   3.978   2.869   6.524
 6702SOL    HW220565   3.909   3.017   6.527
 6703SOL     OW20566   4.344   3.648   7.025
 6703SOL    HW120567   4.252   3.631   7.060
 6703SOL    HW220568   4.372   3.740   7.051
 6704SOL     OW20569   4.330   2.826   5.709
 6704SOL    HW120570   4.337   2.910   5.655
 6704SOL    HW220571   4.376   2.839   5.797
 6705SOL     OW20572   3.846   2.505   6.149
 6705SOL    HW120573   3.801   2.417   6.166
 6705SOL    HW220574   3.845   2.559   6.233
 6706SOL     OW20575   3.751   3.458   5.703
 6706SOL    HW120576   3.732   3.362   5.724
 6706SOL    HW220577   3.718   3.516   5.778
 6707SOL     OW20578   3.837   2.599   7.183
 6707SOL    HW120579   3.925   2.586   7.228
 6707SOL    HW220580   3.824   2.696   7.161
 6708SOL     OW20581   4.337   3.227   6.312
 6708SOL    HW120582   4.288   3.140   6.321
 6708SOL    HW220583   4.314   3.270   6.225
 6709SOL     OW20584   4.533   1.866   6.088
 6709SOL    HW120585   4.573   1.957   6.079
 6709SOL    HW220586   4.433   1.874   6.094
 6710SOL     OW20587   3.921   2.838   6.850
 6710SOL    HW120588   4.010   2.793   6.836
 6710SOL    HW220589   3.848   2.773   6.831
 6711SOL     OW20590   4.041   2.113   7.387
 6711SOL    HW120591   4.112   2.184   7.393
 6711SOL    HW220592   3.953   2.152   7.415
 6712SOL     OW20593   4.322   2.591   5.856
 6712SOL    HW120594   4.346   2.660   5.788
 6712SOL    HW220595   4.244   2.624   5.910
 6713SOL     OW20596   3.800   2.673   6.375
 6713SOL    HW120597   3.899   2.661   6.384
 6713SOL    HW220598   3.776   2.768   6.396
 6714SOL     OW20599   3.854   3.683   7.157
 6714SOL    HW120600   3.844   3.668   7.256
 6714SOL    HW220601   3.768   3.719   7.121
 6715SOL     OW20602   4.274   2.058   6.471
 6715SOL    HW120603   4.269   2.053   6.571
 6715SOL    HW220604   4.276   2.154   6.442
 6716SOL     OW20605   4.075   3.663   6.439
 6716SOL    HW120606   4.125   3.577   6.445
 6716SOL    HW220607   4.140   3.740   6.436
 6717SOL     OW20608   4.045   2.805   5.828
 6717SOL    HW120609   4.127   2.844   5.786
 6717SOL    HW220610   4.018   2.723   5.779
 6718SOL     OW20611   4.185   3.128   7.313
 6718SOL    HW120612   4.135   3.129   7.227
 6718SOL    HW220613   4.122   3.110   7.389
 6719SOL     OW20614   3.926   2.147   7.084
 6719SOL    HW120615   3.846   2.207   7.071
 6719SOL    HW220616   3.916   2.098   7.170
 6720SOL     OW20617   4.188   3.605   5.909
 6720SOL    HW120618   4.221   3.644   5.995
 6720SOL    HW220619   4.264   3.598   5.844
 6721SOL     OW20620   3.973   3.647   6.827
 6721SOL    HW120621   4.030   3.582   6.877
 6721SOL    HW220622   3.957   3.614   6.734
 6722SOL     OW20623   4.106   2.562   6.066
 6722SOL    HW120624   4.151   2.472   6.063
 6722SOL    HW220625   4.012   2.551   6.099
 6723SOL     OW20626   4.338   1.984   5.703
 6723SOL    HW120627   4.436   1.962   5.710
 6723SOL    HW220628   4.307   1.967   5.610
 6724SOL     OW20629   4.527   3.264   6.510
 6724SOL    HW120630   4.617   3.278   6.468
 6724SOL    HW220631   4.456   3.266   6.439
 6725SOL     OW20632   4.263   1.926   6.098
 6725SOL    HW120633   4.182   1.927   6.156
 6725SOL    HW220634   4.266   2.009   6.043
 6726SOL     OW20635   4.021   1.897   5.757
 6726SOL    HW120636   4.070   1.981   5.736
 6726SOL    HW220637   4.083   1.832   5.802
 6727SOL     OW20638   4.800   2.545   7.050
 6727SOL    HW120639   4.720   2.484   7.053
 6727SOL    HW220640   4.881   2.492   7.026
 6728SOL     OW20641   4.183   3.014   6.327
 6728SOL    HW120642   4.112   2.987   6.392
 6728SOL    HW220643   4.157   2.986   6.234
 6729SOL     OW20644   3.802   2.418   6.972
 6729SOL    HW120645   3.894   2.417   6.931
 6729SOL    HW220646   3.796   2.492   7.039
 6730SOL     OW20647   4.285   2.084   6.733
 6730SOL    HW120648   4.323   2.000   6.770
 6730SOL    HW220649   4.197   2.103   6.777
 6731SOL     OW20650   4.212   3.247   5.760
 6731SOL    HW120651   4.125   3.232   5.807
 6731SOL    HW220652   4.195   3.273   5.665
 6732SOL     OW20653   4.251   2.118   5.914
 6732SOL    HW120654   4.278   2.059   5.839
 6732SOL    HW220655   4.251   2.213   5.883
 6733SOL     OW20656   4.134   2.675   6.837
 6733SOL    HW120657   4.220   2.687   6.887
 6733SOL    HW220658   4.092   2.588   6.864
 6734SOL     OW20659   3.788   3.426   6.917
 6734SOL    HW120660   3.742   3.508   6.883
 6734SOL    HW220661   3.886   3.445   6.926
 6735SOL     OW20662   4.091   2.962   6.087
 6735SOL    HW120663   4.084   3.045   6.031
 6735SOL    HW220664   4.095   2.882   6.027
 6736SOL     OW20665   4.290   2.399   6.451
 6736SOL    HW120666   4.302   2.465   6.377
 6736SOL    HW220667   4.336   2.433   6.534
 6737SOL     OW20668   4.078   3.372   6.915
 6737SOL    HW120669   4.057   3.328   6.828
 6737SOL    HW220670   4.175   3.398   6.918
 6738SOL     OW20671   4.126   2.613   7.184
 6738SOL    HW120672   4.194   2.668   7.137
 6738SOL    HW220673   4.166   2.525   7.211
 6739SOL     OW20674   4.228   1.912   7.326
 6739SOL    HW120675   4.186   1.855   7.256
 6739SOL    HW220676   4.162   1.981   7.358
 6740SOL     OW20677   4.297   2.732   6.615
 6740SOL    HW120678   4.341   2.821   6.606
 6740SOL    HW220679   4.234   2.732   6.692
 6741SOL     OW20680   4.031   2.075   6.817
 6741SOL    HW120681   4.008   2.112   6.907
 6741SOL    HW220682   4.001   1.980   6.811
 6742SOL     OW20683   3.761   3.172   6.868
 6742SOL    HW120684   3.814   3.123   6.936
 6742SOL    HW220685   3.783   3.270   6.873
 6743SOL     OW20686   4.031   1.925   6.204
 6743SOL    HW120687   4.020   2.019   6.237
 6743SOL    HW220688   4.026   1.862   6.281
 6744SOL     OW20689   4.074   2.760   7.390
 6744SOL    HW120690   4.150   2.804   7.438
 6744SOL    HW220691   4.109   2.713   7.308
 6745SOL     OW20692   4.043   2.672   6.535
 6745SOL    HW120693   4.136   2.708   6.540
 6745SOL    HW220694   4.037   2.587   6.587
 6746SOL     OW20695   4.063   2.371   6.592
 6746SOL    HW120696   4.011   2.288   6.575
 6746SOL    HW220697   4.140   2.376   6.528
 6747SOL     OW20698   3.732   3.188   5.786
 6747SOL    HW120699   3.639   3.209   5.755
 6747SOL    HW220700   3.742   3.089   5.799
 6748SOL     OW20701   3.812   3.663   6.513
 6748SOL    HW120702   3.770   3.577   6.486
 6748SOL    HW220703   3.906   3.666   6.479
 6749SOL     OW20704   4.228   3.430   6.496
 6749SOL    HW120705   4.294   3.504   6.505
 6749SOL    HW220706   4.272   3.351   6.454
 6750SOL     OW20707   3.764   2.406   6.700
 6750SOL    HW120708   3.849   2.373   6.659
 6750SOL    HW220709   3.777   2.421   6.798
 6751SOL     OW20710   3.913   2.382   7.308
 6751SOL    HW120711   3.972   2.342   7.238
 6751SOL    HW220712   3.855   2.453   7.267
 6752SOL     OW20713   4.539   2.434   5.911
 6752SOL    HW120714   4.546   2.345   5.865
 6752SOL    HW220715   4.445   2.468   5.903
 6753SOL     OW20716   3.976   3.426   7.330
 6753SOL    HW120717   3.946   3.483   7.406
 6753SOL    HW220718   3.969   3.329   7.356
 6754SOL     OW20719   4.197   2.362   5.777
 6754SOL    HW120720   4.258   2.442   5.781
 6754SOL    HW220721   4.102   2.393   5.784
 6755SOL     OW20722   3.883   2.999   7.052
 6755SOL    HW120723   3.905   2.938   7.128
 6755SOL    HW220724   3.893   2.950   6.966
 6756SOL     OW20725   3.807   3.120   6.608
 6756SOL    HW120726   3.802   3.119   6.708
 6756SOL    HW220727   3.724   3.079   6.570
 6757SOL     OW20728   4.412   3.524   7.302
 6757SOL    HW120729   4.356   3.605   7.311
 6757SOL    HW220730   4.464   3.528   7.216
 6758SOL     OW20731   3.854   3.656   7.437
 6758SOL    HW120732   3.813   3.582   7.490
 6758SOL    HW220733   3.918   3.707   7.495
 6759SOL     OW20734   3.987   2.188   6.306
 6759SOL    HW120735   3.908   2.239   6.272
 6759SOL    HW220736   3.978   2.173   6.404
 6760SOL     OW20737   4.096   3.150   7.076
 6760SOL    HW120738   4.083   3.243   7.042
 6760SOL    HW220739   4.012   3.098   7.063
 6761SOL     OW20740   4.314   3.349   6.077
 6761SOL    HW120741   4.356   3.291   6.007
 6761SOL    HW220742   4.270   3.428   6.033
 6762SOL     OW20743   3.979   3.210   5.876
 6762SOL    HW120744   3.883   3.211   5.849
 6762SOL    HW220745   3.991   3.263   5.960
 6763SOL     OW20746   3.829   2.875   7.312
 6763SOL    HW120747   3.752   2.842   7.366
 6763SOL    HW220748   3.914   2.845   7.354
 6764SOL     OW20749   4.396   2.065   7.075
 6764SOL    HW120750   4.486   2.049   7.035
 6764SOL    HW220751   4.404   2.070   7.174
 6765SOL     OW20752   3.799   2.207   5.619
 6765SOL    HW120753   3.707   2.179   5.590
 6765SOL    HW220754   3.830   2.284   5.563
 6766SOL     OW20755   3.796   2.028   5.904
 6766SOL    HW120756   3.779   2.111   5.850
 6766SOL    HW220757   3.886   1.991   5.882
 6767SOL     OW20758   4.337   2.704   7.017
 6767SOL    HW120759   4.393   2.785   7.000
 6767SOL    HW220760   4.396   2.624   7.020
 6768SOL     OW20761   4.440   2.427   7.294
 6768SOL    HW120762   4.459   2.492   7.368
 6768SOL    HW220763   4.500   2.347   7.303
 6769SOL     OW20764   4.114   3.603   7.146
 6769SOL    HW120765   4.023   3.644   7.144
 6769SOL    HW220766   4.107   3.509   7.178
 6770SOL     OW20767   4.318   2.607   6.238
 6770SOL    HW120768   4.368   2.692   6.219
 6770SOL    HW220769   4.230   2.609   6.190
 6771SOL     OW20770   3.945   3.176   7.430
 6771SOL    HW120771   3.880   3.103   7.409
 6771SOL    HW220772   3.949   3.190   7.528
 6772SOL     OW20773   3.803   3.102   6.239
 6772SOL    HW120774   3.802   3.055   6.327
 6772SOL    HW220775   3.885   3.074   6.188
 6773SOL     OW20776   4.396   3.253   7.210
 6773SOL    HW120777   4.318   3.203   7.248
 6773SOL    HW220778   4.393   3.348   7.241
 6774SOL     OW20779   4.152   2.286   6.106
 6774SOL    HW120780   4.182   2.214   6.044
 6774SOL    HW220781   4.113   2.246   6.189
 6775SOL     OW20782   4.041   2.409   6.866
 6775SOL    HW120783   4.079   2.350   6.938
 6775SOL    HW220784   4.081   2.383   6.778
 6776SOL     OW20785   4.536   3.448   6.273
 6776SOL    HW120786   4.568   3.458   6.179
 6776SOL    HW220787   4.457   3.386   6.275
 6777SOL     OW20788   3.763   2.939   5.886
 6777SOL    HW120789   3.862   2.928   5.877
 6777SOL    HW220790   3.723   2.853   5.918
 6778SOL     OW20791   3.954   2.490   7.561
 6778SOL    HW120792   3.861   2.488   7.598
 6778SOL    HW220793   3.955   2.451   7.469
 6779SOL     OW20794   3.949   2.137   8.444
 6779SOL    HW120795   3.984   2.120   8.536
 6779SOL    HW220796   3.861   2.092   8.432
 6780SOL     OW20797   3.743   2.230   8.095
 6780SOL    HW120798   3.661   2.273   8.134
 6780SOL    HW220799   3.715   2.157   8.032
 6781SOL     OW20800   4.293   3.137   8.613
 6781SOL    HW120801   4.200   3.130   8.576
 6781SOL    HW220802   4.304   3.226   8.657
 6782SOL     OW20803   4.574   2.660   9.271
 6782SOL    HW120804   4.570   2.736   9.336
 6782SOL    HW220805   4.596   2.696   9.180
 6783SOL     OW20806   4.409   2.874   8.113
 6783SOL    HW120807   4.478   2.858   8.183
 6783SOL    HW220808   4.336   2.931   8.151
 6784SOL     OW20809   4.410   3.023   9.251
 6784SOL    HW120810   4.470   3.102   9.265
 6784SOL    HW220811   4.324   3.054   9.210
 6785SOL     OW20812   4.059   3.297   8.509
 6785SOL    HW120813   3.981   3.266   8.456
 6785SOL    HW220814   4.117   3.355   8.452
 6786SOL     OW20815   4.162   2.254   8.947
 6786SOL    HW120816   4.244   2.198   8.956
 6786SOL    HW220817   4.081   2.196   8.951
 6787SOL     OW20818   3.955   3.575   7.931
 6787SOL    HW120819   3.989   3.652   7.985
 6787SOL    HW220820   3.999   3.575   7.841
 6788SOL     OW20821   3.954   3.296   7.986
 6788SOL    HW120822   3.928   3.392   7.986
 6788SOL    HW220823   3.883   3.242   8.031
 6789SOL     OW20824   3.964   2.953   8.334
 6789SOL    HW120825   3.978   2.869   8.386
 6789SOL    HW220826   3.909   3.017   8.389
 6790SOL     OW20827   4.344   3.648   8.887
 6790SOL    HW120828   4.252   3.631   8.922
 6790SOL    HW220829   4.372   3.740   8.913
 6791SOL     OW20830   4.330   2.826   7.571
 6791SOL    HW120831   4.337   2.910   7.517
 6791SOL    HW220832   4.376   2.839   7.659
 6792SOL     OW20833   3.846   2.505   8.011
 6792SOL    HW120834   3.801   2.417   8.028
 6792SOL    HW220835   3.845   2.559   8.095
 6793SOL     OW20836   3.751   3.458   7.565
 6793SOL    HW120837   3.732   3.362   7.586
 6793SOL    HW220838   3.718   3.516   7.640
 6794SOL     OW20839   3.837   2.599   9.045
 6794SOL    HW120840   3.925   2.586   9.090
 6794SOL    HW220841   3.824   2.696   9.023
 6795SOL     OW20842   4.337   3.227   8.174
 6795SOL    HW120843   4.288   3.140   8.183
 6795SOL    HW220844   4.314   3.270   8.087
 6796SOL     OW20845   4.533   1.866   7.950
 6796SOL    HW120846   4.573   1.957   7.941
 6796SOL    HW220847   4.433   1.874   7.956
 6797SOL     OW20848   3.921   2.838   8.712
 6797SOL    HW120849   4.010   2.793   8.698
 6797SOL    HW220850   3.848   2.773   8.693
 6798SOL     OW20851   4.041   2.113   9.249
 6798SOL    HW120852   4.112   2.184   9.255
 6798SOL    HW220853   3.953   2.152   9.277
 6799SOL     OW20854   4.322   2.591   7.718
 6799SOL    HW120855   4.346   2.660   7.650
 6799SOL    HW220856   4.244   2.624   7.772
 6800SOL     OW20857   3.800   2.673   8.237
 6800SOL    HW120858   3.899   2.661   8.246
 6800SOL    HW220859   3.776   2.768   8.258
 6801SOL     OW20860   3.854   3.683   9.019
 6801SOL    HW120861   3.844   3.668   9.118
 6801SOL    HW220862   3.768   3.719   8.983
 6802SOL     OW20863   4.274   2.058   8.333
 6802SOL    HW120864   4.269   2.053   8.433
 6802SOL    HW220865   4.276   2.154   8.304
 6803SOL     OW20866   4.075   3.663   8.301
 6803SOL    HW120867   4.125   3.577   8.307
 6803SOL    HW220868   4.140   3.740   8.298
 6804SOL     OW20869   4.045   2.805   7.690
 6804SOL    HW120870   4.127   2.844   7.648
 6804SOL    HW220871   4.018   2.723   7.641
 6805SOL     OW20872   4.185   3.128   9.175
 6805SOL    HW120873   4.135   3.129   9.089
 6805SOL    HW220874   4.122   3.110   9.251
 6806SOL     OW20875   3.926   2.147   8.946
 6806SOL    HW120876   3.846   2.207   8.933
 6806SOL    HW220877   3.916   2.098   9.032
 6807SOL     OW20878   4.188   3.605   7.771
 6807SOL    HW120879   4.221   3.644   7.857
 6807SOL    HW220880   4.264   3.598   7.706
 6808SOL     OW20881   3.973   3.647   8.689
 6808SOL    HW120882   4.030   3.582   8.739
 6808SOL    HW220883   3.957   3.614   8.596
 6809SOL     OW20884   4.106   2.562   7.928
 6809SOL    HW120885   4.151   2.472   7.925
 6809SOL    HW220886   4.012   2.551   7.961
 6810SOL     OW20887   4.338   1.984   7.565
 6810SOL    HW120888   4.436   1.962   7.572
 6810SOL    HW220889   4.307   1.967   7.472
 6811SOL     OW20890   4.527   3.264   8.372
 6811SOL    HW120891   4.617   3.278   8.330
 6811SOL    HW220892   4.456   3.266   8.301
 6812SOL     OW20893   4.263   1.926   7.960
 6812SOL    HW120894   4.182   1.927   8.018
 6812SOL    HW220895   4.266   2.009   7.905
 6813SOL     OW20896   4.021   1.897   7.619
 6813SOL    HW120897   4.070   1.981   7.598
 6813SOL    HW220898   4.083   1.832   7.664
 6814SOL     OW20899   4.800   2.545   8.912
 6814SOL    HW120900   4.720   2.484   8.915
 6814SOL    HW220901   4.881   2.492   8.888
 6815SOL     OW20902   4.183   3.014   8.189
 6815SOL    HW120903   4.112   2.987   8.254
 6815SOL    HW220904   4.157   2.986   8.096
 6816SOL     OW20905   3.802   2.418   8.834
 6816SOL    HW120906   3.894   2.417   8.793
 6816SOL    HW220907   3.796   2.492   8.901
 6817SOL     OW20908   4.285   2.084   8.595
 6817SOL    HW120909   4.323   2.000   8.632
 6817SOL    HW220910   4.197   2.103   8.639
 6818SOL     OW20911   4.212   3.247   7.622
 6818SOL    HW120912   4.125   3.232   7.669
 6818SOL    HW220913   4.195   3.273   7.527
 6819SOL     OW20914   4.251   2.118   7.776
 6819SOL    HW120915   4.278   2.059   7.701
 6819SOL    HW220916   4.251   2.213   7.745
 6820SOL     OW20917   4.134   2.675   8.699
 6820SOL    HW120918   4.220   2.687   8.749
 6820SOL    HW220919   4.092   2.588   8.726
 6821SOL     OW20920   3.788   3.426   8.779
 6821SOL    HW120921   3.742   3.508   8.745
 6821SOL    HW220922   3.886   3.445   8.788
 6822SOL     OW20923   4.091   2.962   7.949
 6822SOL    HW120924   4.084   3.045   7.893
 6822SOL    HW220925   4.095   2.882   7.889
 6823SOL     OW20926   4.290   2.399   8.313
 6823SOL    HW120927   4.302   2.465   8.239
 6823SOL    HW220928   4.336   2.433   8.396
 6824SOL     OW20929   4.078   3.372   8.777
 6824SOL    HW120930   4.057   3.328   8.690
 6824SOL    HW220931   4.175   3.398   8.780
 6825SOL     OW20932   4.126   2.613   9.046
 6825SOL    HW120933   4.194   2.668   8.999
 6825SOL    HW220934   4.166   2.525   9.073
 6826SOL     OW20935   4.228   1.912   9.188
 6826SOL    HW120936   4.186   1.855   9.118
 6826SOL    HW220937   4.162   1.981   9.220
 6827SOL     OW20938   4.297   2.732   8.477
 6827SOL    HW120939   4.341   2.821   8.468
 6827SOL    HW220940   4.234   2.732   8.554
 6828SOL     OW20941   4.031   2.075   8.679
 6828SOL    HW120942   4.008   2.112   8.769
 6828SOL    HW220943   4.001   1.980   8.673
 6829SOL     OW20944   3.761   3.172   8.730
 6829SOL    HW120945   3.814   3.123   8.798
 6829SOL    HW220946   3.783   3.270   8.735
 6830SOL     OW20947   4.031   1.925   8.066
 6830SOL    HW120948   4.020   2.019   8.099
 6830SOL    HW220949   4.026   1.862   8.143
 6831SOL     OW20950   4.074   2.760   9.252
 6831SOL    HW120951   4.150   2.804   9.300
 6831SOL    HW220952   4.109   2.713   9.170
 6832SOL     OW20953   4.043   2.672   8.397
 6832SOL    HW120954   4.136   2.708   8.402
 6832SOL    HW220955   4.037   2.587   8.449
 6833SOL     OW20956   4.063   2.371   8.454
 6833SOL    HW120957   4.011   2.288   8.437
 6833SOL    HW220958   4.140   2.376   8.390
 6834SOL     OW20959   3.732   3.188   7.648
 6834SOL    HW120960   3.639   3.209   7.617
 6834SOL    HW220961   3.742   3.089   7.661
 6835SOL     OW20962   3.812   3.663   8.375
 6835SOL    HW120963   3.770   3.577   8.348
 6835SOL    HW220964   3.906   3.666   8.341
 6836SOL     OW20965   4.228   3.430   8.358
 6836SOL    HW120966   4.294   3.504   8.367
 6836SOL    HW220967   4.272   3.351   8.316
 6837SOL     OW20968   3.764   2.406   8.562
 6837SOL    HW120969   3.849   2.373   8.521
 6837SOL    HW220970   3.777   2.421   8.660
 6838SOL     OW20971   3.913   2.382   9.170
 6838SOL    HW120972   3.972   2.342   9.100
 6838SOL    HW220973   3.855   2.453   9.129
 6839SOL     OW20974   4.539   2.434   7.773
 6839SOL    HW120975   4.546   2.345   7.727
 6839SOL    HW220976   4.445   2.468   7.765
 6840SOL     OW20977   3.976   3.426   9.192
 6840SOL    HW120978   3.946   3.483   9.268
 6840SOL    HW220979   3.969   3.329   9.218
 6841SOL     OW20980   4.197   2.362   7.639
 6841SOL    HW120981   4.258   2.442   7.643
 6841SOL    HW220982   4.102   2.393   7.646
 6842SOL     OW20983   3.883   2.999   8.914
 6842SOL    HW120984   3.905   2.938   8.990
 6842SOL    HW220985   3.893   2.950   8.828
 6843SOL     OW20986   3.807   3.120   8.470
 6843SOL    HW120987   3.802   3.119   8.570
 6843SOL    HW220988   3.724   3.079   8.432
 6844SOL     OW20989   4.412   3.524   9.164
 6844SOL    HW120990   4.356   3.605   9.173
 6844SOL    HW220991   4.464   3.528   9.078
 6845SOL     OW20992   3.854   3.656   9.299
 6845SOL    HW120993   3.813   3.582   9.352
 6845SOL    HW220994   3.918   3.707   9.357
 6846SOL     OW20995   3.987   2.188   8.168
 6846SOL    HW120996   3.908   2.239   8.134
 6846SOL    HW220997   3.978   2.173   8.266
 6847SOL     OW20998   4.096   3.150   8.938
 6847SOL    HW120999   4.083   3.243   8.904
 6847SOL    HW221000   4.012   3.098   8.925
 6848SOL     OW21001   4.314   3.349   7.939
 6848SOL    HW121002   4.356   3.291   7.869
 6848SOL    HW221003   4.270   3.428   7.895
 6849SOL     OW21004   3.979   3.210   7.738
 6849SOL    HW121005   3.883   3.211   7.711
 6849SOL    HW221006   3.991   3.263   7.822
 6850SOL     OW21007   3.829   2.875   9.174
 6850SOL    HW121008   3.752   2.842   9.228
 6850SOL    HW221009   3.914   2.845   9.216
 6851SOL     OW21010   4.396   2.065   8.937
 6851SOL    HW121011   4.486   2.049   8.897
 6851SOL    HW221012   4.404   2.070   9.036
 6852SOL     OW21013   3.799   2.207   7.481
 6852SOL    HW121014   3.707   2.179   7.452
 6852SOL    HW221015   3.830   2.284   7.425
 6853SOL     OW21016   3.796   2.028   7.766
 6853SOL    HW121017   3.779   2.111   7.712
 6853SOL    HW221018   3.886   1.991   7.744
 6854SOL     OW21019   4.337   2.704   8.879
 6854SOL    HW121020   4.393   2.785   8.862
 6854SOL    HW221021   4.396   2.624   8.882
 6855SOL     OW21022   4.440   2.427   9.156
 6855SOL    HW121023   4.459   2.492   9.230
 6855SOL    HW221024   4.500   2.347   9.165
 6856SOL     OW21025   4.114   3.603   9.008
 6856SOL    HW121026   4.023   3.644   9.006
 6856SOL    HW221027   4.107   3.509   9.040
 6857SOL     OW21028   4.318   2.607   8.100
 6857SOL    HW121029   4.368   2.692   8.081
 6857SOL    HW221030   4.230   2.609   8.052
 6858SOL     OW21031   3.945   3.176   9.292
 6858SOL    HW121032   3.880   3.103   9.271
 6858SOL    HW221033   3.949   3.190   9.390
 6859SOL     OW21034   3.803   3.102   8.101
 6859SOL    HW121035   3.802   3.055   8.189
 6859SOL    HW221036   3.885   3.074   8.050
 6860SOL     OW21037   4.396   3.253   9.072
 6860SOL    HW121038   4.318   3.203   9.110
 6860SOL    HW221039   4.393   3.348   9.103
 6861SOL     OW21040   4.152   2.286   7.968
 6861SOL    HW121041   4.182   2.214   7.906
 6861SOL    HW221042   4.113   2.246   8.051
 6862SOL     OW21043   4.041   2.409   8.728
 6862SOL    HW121044   4.079   2.350   8.800
 6862SOL    HW221045   4.081   2.383   8.640
 6863SOL     OW21046   4.536   3.448   8.135
 6863SOL    HW121047   4.568   3.458   8.041
 6863SOL    HW221048   4.457   3.386   8.137
 6864SOL     OW21049   3.763   2.939   7.748
 6864SOL    HW121050   3.862   2.928   7.739
 6864SOL    HW221051   3.723   2.853   7.780
 6865SOL     OW21052   3.954   2.490   9.423
 6865SOL    HW121053   3.861   2.488   9.460
 6865SOL    HW221054   3.955   2.451   9.331
 6866SOL     OW21055   3.949   2.137  10.306
 6866SOL    HW121056   3.984   2.120  10.398
 6866SOL    HW221057   3.861   2.092  10.294
 6867SOL     OW21058   3.743   2.230   9.957
 6867SOL    HW121059   3.661   2.273   9.996
 6867SOL    HW221060   3.715   2.157   9.894
 6868SOL     OW21061   4.293   3.137  10.475
 6868SOL    HW121062   4.200   3.130  10.438
 6868SOL    HW221063   4.304   3.226  10.519
 6869SOL     OW21064   4.574   2.660  11.133
 6869SOL    HW121065   4.570   2.736  11.198
 6869SOL    HW221066   4.596   2.696  11.042
 6870SOL     OW21067   4.409   2.874   9.975
 6870SOL    HW121068   4.478   2.858  10.045
 6870SOL    HW221069   4.336   2.931  10.013
 6871SOL     OW21070   4.059   3.297  10.371
 6871SOL    HW121071   3.981   3.266  10.318
 6871SOL    HW221072   4.117   3.355  10.314
 6872SOL     OW21073   4.162   2.254  10.809
 6872SOL    HW121074   4.244   2.198  10.818
 6872SOL    HW221075   4.081   2.196  10.813
 6873SOL     OW21076   3.955   3.575   9.793
 6873SOL    HW121077   3.989   3.652   9.847
 6873SOL    HW221078   3.999   3.575   9.703
 6874SOL     OW21079   3.954   3.296   9.848
 6874SOL    HW121080   3.928   3.392   9.848
 6874SOL    HW221081   3.883   3.242   9.893
 6875SOL     OW21082   3.964   2.953  10.196
 6875SOL    HW121083   3.978   2.869  10.248
 6875SOL    HW221084   3.909   3.017  10.251
 6876SOL     OW21085   4.344   3.648  10.749
 6876SOL    HW121086   4.252   3.631  10.784
 6876SOL    HW221087   4.372   3.740  10.775
 6877SOL     OW21088   4.330   2.826   9.433
 6877SOL    HW121089   4.337   2.910   9.379
 6877SOL    HW221090   4.376   2.839   9.521
 6878SOL     OW21091   3.846   2.505   9.873
 6878SOL    HW121092   3.801   2.417   9.890
 6878SOL    HW221093   3.845   2.559   9.957
 6879SOL     OW21094   3.751   3.458   9.427
 6879SOL    HW121095   3.732   3.362   9.448
 6879SOL    HW221096   3.718   3.516   9.502
 6880SOL     OW21097   3.837   2.599  10.907
 6880SOL    HW121098   3.925   2.586  10.952
 6880SOL    HW221099   3.824   2.696  10.885
 6881SOL     OW21100   4.337   3.227  10.036
 6881SOL    HW121101   4.288   3.140  10.045
 6881SOL    HW221102   4.314   3.270   9.949
 6882SOL     OW21103   4.533   1.866   9.812
 6882SOL    HW121104   4.573   1.957   9.803
 6882SOL    HW221105   4.433   1.874   9.818
 6883SOL     OW21106   3.921   2.838  10.574
 6883SOL    HW121107   4.010   2.793  10.560
 6883SOL    HW221108   3.848   2.773  10.555
 6884SOL     OW21109   4.041   2.113  11.111
 6884SOL    HW121110   4.112   2.184  11.117
 6884SOL    HW221111   3.953   2.152  11.139
 6885SOL     OW21112   4.322   2.591   9.580
 6885SOL    HW121113   4.346   2.660   9.512
 6885SOL    HW221114   4.244   2.624   9.634
 6886SOL     OW21115   3.800   2.673  10.099
 6886SOL    HW121116   3.899   2.661  10.108
 6886SOL    HW221117   3.776   2.768  10.120
 6887SOL     OW21118   3.854   3.683  10.881
 6887SOL    HW121119   3.844   3.668  10.980
 6887SOL    HW221120   3.768   3.719  10.845
 6888SOL     OW21121   4.274   2.058  10.195
 6888SOL    HW121122   4.269   2.053  10.295
 6888SOL    HW221123   4.276   2.154  10.166
 6889SOL     OW21124   4.075   3.663  10.163
 6889SOL    HW121125   4.125   3.577  10.169
 6889SOL    HW221126   4.140   3.740  10.160
 6890SOL     OW21127   4.045   2.805   9.552
 6890SOL    HW121128   4.127   2.844   9.510
 6890SOL    HW221129   4.018   2.723   9.503
 6891SOL     OW21130   4.185   3.128  11.037
 6891SOL    HW121131   4.135   3.129  10.951
 6891SOL    HW221132   4.122   3.110  11.113
 6892SOL     OW21133   3.926   2.147  10.808
 6892SOL    HW121134   3.846   2.207  10.795
 6892SOL    HW221135   3.916   2.098  10.894
 6893SOL     OW21136   4.188   3.605   9.633
 6893SOL    HW121137   4.221   3.644   9.719
 6893SOL    HW221138   4.264   3.598   9.568
 6894SOL     OW21139   3.973   3.647  10.551
 6894SOL    HW121140   4.030   3.582  10.601
 6894SOL    HW221141   3.957   3.614  10.458
 6895SOL     OW21142   4.106   2.562   9.790
 6895SOL    HW121143   4.151   2.472   9.787
 6895SOL    HW221144   4.012   2.551   9.823
 6896SOL     OW21145   4.338   1.984   9.427
 6896SOL    HW121146   4.436   1.962   9.434
 6896SOL    HW221147   4.307   1.967   9.334
 6897SOL     OW21148   4.527   3.264  10.234
 6897SOL    HW121149   4.617   3.278  10.192
 6897SOL    HW221150   4.456   3.266  10.163
 6898SOL     OW21151   4.263   1.926   9.822
 6898SOL    HW121152   4.182   1.927   9.880
 6898SOL    HW221153   4.266   2.009   9.767
 6899SOL     OW21154   4.021   1.897   9.481
 6899SOL    HW121155   4.070   1.981   9.460
 6899SOL    HW221156   4.083   1.832   9.526
 6900SOL     OW21157   4.800   2.545  10.774
 6900SOL    HW121158   4.720   2.484  10.777
 6900SOL    HW221159   4.881   2.492  10.750
 6901SOL     OW21160   4.183   3.014  10.051
 6901SOL    HW121161   4.112   2.987  10.116
 6901SOL    HW221162   4.157   2.986   9.958
 6902SOL     OW21163   3.802   2.418  10.696
 6902SOL    HW121164   3.894   2.417  10.655
 6902SOL    HW221165   3.796   2.492  10.763
 6903SOL     OW21166   4.285   2.084  10.457
 6903SOL    HW121167   4.323   2.000  10.494
 6903SOL    HW221168   4.197   2.103  10.501
 6904SOL     OW21169   4.212   3.247   9.484
 6904SOL    HW121170   4.125   3.232   9.531
 6904SOL    HW221171   4.195   3.273   9.389
 6905SOL     OW21172   4.251   2.118   9.638
 6905SOL    HW121173   4.278   2.059   9.563
 6905SOL    HW221174   4.251   2.213   9.607
 6906SOL     OW21175   4.134   2.675  10.561
 6906SOL    HW121176   4.220   2.687  10.611
 6906SOL    HW221177   4.092   2.588  10.588
 6907SOL     OW21178   3.788   3.426  10.641
 6907SOL    HW121179   3.742   3.508  10.607
 6907SOL    HW221180   3.886   3.445  10.650
 6908SOL     OW21181   4.091   2.962   9.811
 6908SOL    HW121182   4.084   3.045   9.755
 6908SOL    HW221183   4.095   2.882   9.751
 6909SOL     OW21184   4.290   2.399  10.175
 6909SOL    HW121185   4.302   2.465  10.101
 6909SOL    HW221186   4.336   2.433  10.258
 6910SOL     OW21187   4.078   3.372  10.639
 6910SOL    HW121188   4.057   3.328  10.552
 6910SOL    HW221189   4.175   3.398  10.642
 6911SOL     OW21190   4.126   2.613  10.908
 6911SOL    HW121191   4.194   2.668  10.861
 6911SOL    HW221192   4.166   2.525  10.935
 6912SOL     OW21193   4.297   2.732  10.339
 6912SOL    HW121194   4.341   2.821  10.330
 6912SOL    HW221195   4.234   2.732  10.416
 6913SOL     OW21196   4.031   2.075  10.541
 6913SOL    HW121197   4.008   2.112  10.631
 6913SOL    HW221198   4.001   1.980  10.535
 6914SOL     OW21199   3.761   3.172  10.592
 6914SOL    HW121200   3.814   3.123  10.660
 6914SOL    HW221201   3.783   3.270  10.597
 6915SOL     OW21202   4.031   1.925   9.928
 6915SOL    HW121203   4.020   2.019   9.961
 6915SOL    HW221204   4.026   1.862  10.005
 6916SOL     OW21205   4.074   2.760  11.114
 6916SOL    HW121206   4.150   2.804  11.162
 6916SOL    HW221207   4.109   2.713  11.032
 6917SOL     OW21208   4.043   2.672  10.259
 6917SOL    HW121209   4.136   2.708  10.264
 6917SOL    HW221210   4.037   2.587  10.311
 6918SOL     OW21211   4.063   2.371  10.316
 6918SOL    HW121212   4.011   2.288  10.299
 6918SOL    HW221213   4.140   2.376  10.252
 6919SOL     OW21214   3.732   3.188   9.510
 6919SOL    HW121215   3.639   3.209   9.479
 6919SOL    HW221216   3.742   3.089   9.523
 6920SOL     OW21217   3.812   3.663  10.237
 6920SOL    HW121218   3.770   3.577  10.210
 6920SOL    HW221219   3.906   3.666  10.203
 6921SOL     OW21220   4.228   3.430  10.220
 6921SOL    HW121221   4.294   3.504  10.229
 6921SOL    HW221222   4.272   3.351  10.178
 6922SOL     OW21223   3.764   2.406  10.424
 6922SOL    HW121224   3.849   2.373  10.383
 6922SOL    HW221225   3.777   2.421  10.522
 6923SOL     OW21226   4.539   2.434   9.635
 6923SOL    HW121227   4.546   2.345   9.589
 6923SOL    HW221228   4.445   2.468   9.627
 6924SOL     OW21229   3.976   3.426  11.054
 6924SOL    HW121230   3.946   3.483  11.130
 6924SOL    HW221231   3.969   3.329  11.080
 6925SOL     OW21232   4.197   2.362   9.501
 6925SOL    HW121233   4.258   2.442   9.505
 6925SOL    HW221234   4.102   2.393   9.508
 6926SOL     OW21235   3.883   2.999  10.776
 6926SOL    HW121236   3.905   2.938  10.852
 6926SOL    HW221237   3.893   2.950  10.690
 6927SOL     OW21238   3.807   3.120  10.332
 6927SOL    HW121239   3.802   3.119  10.432
 6927SOL    HW221240   3.724   3.079  10.294
 6928SOL     OW21241   4.412   3.524  11.026
 6928SOL    HW121242   4.356   3.605  11.035
 6928SOL    HW221243   4.464   3.528  10.940
 6929SOL     OW21244   3.987   2.188  10.030
 6929SOL    HW121245   3.908   2.239   9.996
 6929SOL    HW221246   3.978   2.173  10.128
 6930SOL     OW21247   4.096   3.150  10.800
 6930SOL    HW121248   4.083   3.243  10.766
 6930SOL    HW221249   4.012   3.098  10.787
 6931SOL     OW21250   4.314   3.349   9.801
 6931SOL    HW121251   4.356   3.291   9.731
 6931SOL    HW221252   4.270   3.428   9.757
 6932SOL     OW21253   3.979   3.210   9.600
 6932SOL    HW121254   3.883   3.211   9.573
 6932SOL    HW221255   3.991   3.263   9.684
 6933SOL     OW21256   3.829   2.875  11.036
 6933SOL    HW121257   3.752   2.842  11.090
 6933SOL    HW221258   3.914   2.845  11.078
 6934SOL     OW21259   4.396   2.065  10.799
 6934SOL    HW121260   4.486   2.049  10.759
 6934SOL    HW221261   4.404   2.070  10.898
 6935SOL     OW21262   3.799   2.207   9.343
 6935SOL    HW121263   3.707   2.179   9.314
 6935SOL    HW221264   3.830   2.284   9.287
 6936SOL     OW21265   3.796   2.028   9.628
 6936SOL    HW121266   3.779   2.111   9.574
 6936SOL    HW221267   3.886   1.991   9.606
 6937SOL     OW21268   4.337   2.704  10.741
 6937SOL    HW121269   4.393   2.785  10.724
 6937SOL    HW221270   4.396   2.624  10.744
 6938SOL     OW21271   4.114   3.603  10.870
 6938SOL    HW121272   4.023   3.644  10.868
 6938SOL    HW221273   4.107   3.509  10.902
 6939SOL     OW21274   4.318   2.607   9.962
 6939SOL    HW121275   4.368   2.692   9.943
 6939SOL    HW221276   4.230   2.609   9.914
 6940SOL     OW21277   3.803   3.102   9.963
 6940SOL    HW121278   3.802   3.055  10.051
 6940SOL    HW221279   3.885   3.074   9.912
 6941SOL     OW21280   4.396   3.253  10.934
 6941SOL    HW121281   4.318   3.203  10.972
 6941SOL    HW221282   4.393   3.348  10.965
 6942SOL     OW21283   4.152   2.286   9.830
 6942SOL    HW121284   4.182   2.214   9.768
 6942SOL    HW221285   4.113   2.246   9.913
 6943SOL     OW21286   4.041   2.409  10.590
 6943SOL    HW121287   4.079   2.350  10.662
 6943SOL    HW221288   4.081   2.383  10.502
 6944SOL     OW21289   4.536   3.448   9.997
 6944SOL    HW121290   4.568   3.458   9.903
 6944SOL    HW221291   4.457   3.386   9.999
 6945SOL     OW21292   3.763   2.939   9.610
 6945SOL    HW121293   3.862   2.928   9.601
 6945SOL    HW221294   3.723   2.853   9.642
 6946SOL     OW21295   3.954   4.352   0.113
 6946SOL    HW121296   3.861   4.350   0.150
 6946SOL    HW221297   3.955   4.313   0.021
 6947SOL     OW21298   3.949   3.999   0.996
 6947SOL    HW121299   3.984   3.982   1.088
 6947SOL    HW221300   3.861   3.954   0.984
 6948SOL     OW21301   3.743   4.092   0.647
 6948SOL    HW121302   3.661   4.135   0.686
 6948SOL    HW221303   3.715   4.019   0.584
 6949SOL     OW21304   4.574   4.522   1.823
 6949SOL    HW121305   4.570   4.598   1.888
 6949SOL    HW221306   4.596   4.558   1.732
 6950SOL     OW21307   4.162   4.116   1.499
 6950SOL    HW121308   4.244   4.060   1.508
 6950SOL    HW221309   4.081   4.058   1.503
 6951SOL     OW21310   3.846   4.367   0.563
 6951SOL    HW121311   3.801   4.279   0.580
 6951SOL    HW221312   3.845   4.421   0.647
 6952SOL     OW21313   3.837   4.461   1.597
 6952SOL    HW121314   3.925   4.448   1.642
 6952SOL    HW221315   3.824   4.558   1.575
 6953SOL     OW21316   4.533   3.728   0.502
 6953SOL    HW121317   4.573   3.819   0.493
 6953SOL    HW221318   4.433   3.736   0.508
 6954SOL     OW21319   4.041   3.975   1.801
 6954SOL    HW121320   4.112   4.046   1.807
 6954SOL    HW221321   3.953   4.014   1.829
 6955SOL     OW21322   4.274   3.920   0.885
 6955SOL    HW121323   4.269   3.915   0.985
 6955SOL    HW221324   4.276   4.016   0.856
 6956SOL     OW21325   3.926   4.009   1.498
 6956SOL    HW121326   3.846   4.069   1.485
 6956SOL    HW221327   3.916   3.960   1.584
 6957SOL     OW21328   4.106   4.424   0.480
 6957SOL    HW121329   4.151   4.334   0.477
 6957SOL    HW221330   4.012   4.413   0.513
 6958SOL     OW21331   4.338   3.846   0.117
 6958SOL    HW121332   4.436   3.824   0.124
 6958SOL    HW221333   4.307   3.829   0.024
 6959SOL     OW21334   4.263   3.788   0.512
 6959SOL    HW121335   4.182   3.789   0.570
 6959SOL    HW221336   4.266   3.871   0.457
 6960SOL     OW21337   4.021   3.759   0.171
 6960SOL    HW121338   4.070   3.843   0.150
 6960SOL    HW221339   4.083   3.694   0.216
 6961SOL     OW21340   4.800   4.407   1.464
 6961SOL    HW121341   4.720   4.346   1.467
 6961SOL    HW221342   4.881   4.354   1.440
 6962SOL     OW21343   3.802   4.280   1.386
 6962SOL    HW121344   3.894   4.279   1.345
 6962SOL    HW221345   3.796   4.354   1.453
 6963SOL     OW21346   4.285   3.946   1.147
 6963SOL    HW121347   4.323   3.862   1.184
 6963SOL    HW221348   4.197   3.965   1.191
 6964SOL     OW21349   4.251   3.980   0.328
 6964SOL    HW121350   4.278   3.921   0.253
 6964SOL    HW221351   4.251   4.075   0.297
 6965SOL     OW21352   4.134   4.537   1.251
 6965SOL    HW121353   4.220   4.549   1.301
 6965SOL    HW221354   4.092   4.450   1.278
 6966SOL     OW21355   4.290   4.261   0.865
 6966SOL    HW121356   4.302   4.327   0.791
 6966SOL    HW221357   4.336   4.295   0.948
 6967SOL     OW21358   4.228   3.774   1.740
 6967SOL    HW121359   4.186   3.717   1.670
 6967SOL    HW221360   4.162   3.843   1.772
 6968SOL     OW21361   4.031   3.937   1.231
 6968SOL    HW121362   4.008   3.974   1.321
 6968SOL    HW221363   4.001   3.842   1.225
 6969SOL     OW21364   4.031   3.787   0.618
 6969SOL    HW121365   4.020   3.881   0.651
 6969SOL    HW221366   4.026   3.724   0.695
 6970SOL     OW21367   4.043   4.534   0.949
 6970SOL    HW121368   4.136   4.570   0.954
 6970SOL    HW221369   4.037   4.449   1.001
 6971SOL     OW21370   4.063   4.233   1.006
 6971SOL    HW121371   4.011   4.150   0.989
 6971SOL    HW221372   4.140   4.238   0.942
 6972SOL     OW21373   3.764   4.268   1.114
 6972SOL    HW121374   3.849   4.235   1.073
 6972SOL    HW221375   3.777   4.283   1.212
 6973SOL     OW21376   3.913   4.244   1.722
 6973SOL    HW121377   3.972   4.204   1.652
 6973SOL    HW221378   3.855   4.315   1.681
 6974SOL     OW21379   4.539   4.296   0.325
 6974SOL    HW121380   4.546   4.207   0.279
 6974SOL    HW221381   4.445   4.330   0.317
 6975SOL     OW21382   4.197   4.224   0.191
 6975SOL    HW121383   4.258   4.304   0.195
 6975SOL    HW221384   4.102   4.255   0.198
 6976SOL     OW21385   3.987   4.050   0.720
 6976SOL    HW121386   3.908   4.101   0.686
 6976SOL    HW221387   3.978   4.035   0.818
 6977SOL     OW21388   4.396   3.927   1.489
 6977SOL    HW121389   4.486   3.911   1.449
 6977SOL    HW221390   4.404   3.932   1.588
 6978SOL     OW21391   3.799   4.069   0.033
 6978SOL    HW121392   3.707   4.041   0.004
 6978SOL    HW221393   3.830   4.146  -0.023
 6979SOL     OW21394   3.796   3.890   0.318
 6979SOL    HW121395   3.779   3.973   0.264
 6979SOL    HW221396   3.886   3.853   0.296
 6980SOL     OW21397   4.440   4.289   1.708
 6980SOL    HW121398   4.459   4.354   1.782
 6980SOL    HW221399   4.500   4.209   1.717
 6981SOL     OW21400   4.152   4.148   0.520
 6981SOL    HW121401   4.182   4.076   0.458
 6981SOL    HW221402   4.113   4.108   0.603
 6982SOL     OW21403   4.041   4.271   1.280
 6982SOL    HW121404   4.079   4.212   1.352
 6982SOL    HW221405   4.081   4.245   1.192
 6983SOL     OW21406   3.954   4.352   1.975
 6983SOL    HW121407   3.861   4.350   2.012
 6983SOL    HW221408   3.955   4.313   1.883
 6984SOL     OW21409   3.949   3.999   2.858
 6984SOL    HW121410   3.984   3.982   2.950
 6984SOL    HW221411   3.861   3.954   2.846
 6985SOL     OW21412   3.743   4.092   2.509
 6985SOL    HW121413   3.661   4.135   2.548
 6985SOL    HW221414   3.715   4.019   2.446
 6986SOL     OW21415   4.574   4.522   3.685
 6986SOL    HW121416   4.570   4.598   3.750
 6986SOL    HW221417   4.596   4.558   3.594
 6987SOL     OW21418   4.162   4.116   3.361
 6987SOL    HW121419   4.244   4.060   3.370
 6987SOL    HW221420   4.081   4.058   3.365
 6988SOL     OW21421   3.846   4.367   2.425
 6988SOL    HW121422   3.801   4.279   2.442
 6988SOL    HW221423   3.845   4.421   2.509
 6989SOL     OW21424   3.837   4.461   3.459
 6989SOL    HW121425   3.925   4.448   3.504
 6989SOL    HW221426   3.824   4.558   3.437
 6990SOL     OW21427   4.533   3.728   2.364
 6990SOL    HW121428   4.573   3.819   2.355
 6990SOL    HW221429   4.433   3.736   2.370
 6991SOL     OW21430   4.041   3.975   3.663
 6991SOL    HW121431   4.112   4.046   3.669
 6991SOL    HW221432   3.953   4.014   3.691
 6992SOL     OW21433   4.274   3.920   2.747
 6992SOL    HW121434   4.269   3.915   2.847
 6992SOL    HW221435   4.276   4.016   2.718
 6993SOL     OW21436   3.926   4.009   3.360
 6993SOL    HW121437   3.846   4.069   3.347
 6993SOL    HW221438   3.916   3.960   3.446
 6994SOL     OW21439   4.106   4.424   2.342
 6994SOL    HW121440   4.151   4.334   2.339
 6994SOL    HW221441   4.012   4.413   2.375
 6995SOL     OW21442   4.338   3.846   1.979
 6995SOL    HW121443   4.436   3.824   1.986
 6995SOL    HW221444   4.307   3.829   1.886
 6996SOL     OW21445   4.263   3.788   2.374
 6996SOL    HW121446   4.182   3.789   2.432
 6996SOL    HW221447   4.266   3.871   2.319
 6997SOL     OW21448   4.021   3.759   2.033
 6997SOL    HW121449   4.070   3.843   2.012
 6997SOL    HW221450   4.083   3.694   2.078
 6998SOL     OW21451   4.800   4.407   3.326
 6998SOL    HW121452   4.720   4.346   3.329
 6998SOL    HW221453   4.881   4.354   3.302
 6999SOL     OW21454   3.802   4.280   3.248
 6999SOL    HW121455   3.894   4.279   3.207
 6999SOL    HW221456   3.796   4.354   3.315
 7000SOL     OW21457   4.285   3.946   3.009
 7000SOL    HW121458   4.323   3.862   3.046
 7000SOL    HW221459   4.197   3.965   3.053
 7001SOL     OW21460   4.251   3.980   2.190
 7001SOL    HW121461   4.278   3.921   2.115
 7001SOL    HW221462   4.251   4.075   2.159
 7002SOL     OW21463   4.134   4.537   3.113
 7002SOL    HW121464   4.220   4.549   3.163
 7002SOL    HW221465   4.092   4.450   3.140
 7003SOL     OW21466   4.290   4.261   2.727
 7003SOL    HW121467   4.302   4.327   2.653
 7003SOL    HW221468   4.336   4.295   2.810
 7004SOL     OW21469   4.228   3.774   3.602
 7004SOL    HW121470   4.186   3.717   3.532
 7004SOL    HW221471   4.162   3.843   3.634
 7005SOL     OW21472   4.031   3.937   3.093
 7005SOL    HW121473   4.008   3.974   3.183
 7005SOL    HW221474   4.001   3.842   3.087
 7006SOL     OW21475   4.031   3.787   2.480
 7006SOL    HW121476   4.020   3.881   2.513
 7006SOL    HW221477   4.026   3.724   2.557
 7007SOL     OW21478   4.043   4.534   2.811
 7007SOL    HW121479   4.136   4.570   2.816
 7007SOL    HW221480   4.037   4.449   2.863
 7008SOL     OW21481   4.063   4.233   2.868
 7008SOL    HW121482   4.011   4.150   2.851
 7008SOL    HW221483   4.140   4.238   2.804
 7009SOL     OW21484   3.764   4.268   2.976
 7009SOL    HW121485   3.849   4.235   2.935
 7009SOL    HW221486   3.777   4.283   3.074
 7010SOL     OW21487   3.913   4.244   3.584
 7010SOL    HW121488   3.972   4.204   3.514
 7010SOL    HW221489   3.855   4.315   3.543
 7011SOL     OW21490   4.539   4.296   2.187
 7011SOL    HW121491   4.546   4.207   2.141
 7011SOL    HW221492   4.445   4.330   2.179
 7012SOL     OW21493   4.197   4.224   2.053
 7012SOL    HW121494   4.258   4.304   2.057
 7012SOL    HW221495   4.102   4.255   2.060
 7013SOL     OW21496   3.987   4.050   2.582
 7013SOL    HW121497   3.908   4.101   2.548
 7013SOL    HW221498   3.978   4.035   2.680
 7014SOL     OW21499   4.396   3.927   3.351
 7014SOL    HW121500   4.486   3.911   3.311
 7014SOL    HW221501   4.404   3.932   3.450
 7015SOL     OW21502   3.799   4.069   1.895
 7015SOL    HW121503   3.707   4.041   1.866
 7015SOL    HW221504   3.830   4.146   1.839
 7016SOL     OW21505   3.796   3.890   2.180
 7016SOL    HW121506   3.779   3.973   2.126
 7016SOL    HW221507   3.886   3.853   2.158
 7017SOL     OW21508   4.440   4.289   3.570
 7017SOL    HW121509   4.459   4.354   3.644
 7017SOL    HW221510   4.500   4.209   3.579
 7018SOL     OW21511   4.152   4.148   2.382
 7018SOL    HW121512   4.182   4.076   2.320
 7018SOL    HW221513   4.113   4.108   2.465
 7019SOL     OW21514   4.041   4.271   3.142
 7019SOL    HW121515   4.079   4.212   3.214
 7019SOL    HW221516   4.081   4.245   3.054
 7020SOL     OW21517   3.954   4.352   3.837
 7020SOL    HW121518   3.861   4.350   3.874
 7020SOL    HW221519   3.955   4.313   3.745
 7021SOL     OW21520   3.949   3.999   4.720
 7021SOL    HW121521   3.984   3.982   4.812
 7021SOL    HW221522   3.861   3.954   4.708
 7022SOL     OW21523   3.743   4.092   4.371
 7022SOL    HW121524   3.661   4.135   4.410
 7022SOL    HW221525   3.715   4.019   4.308
 7023SOL     OW21526   4.574   4.522   5.547
 7023SOL    HW121527   4.570   4.598   5.612
 7023SOL    HW221528   4.596   4.558   5.456
 7024SOL     OW21529   4.162   4.116   5.223
 7024SOL    HW121530   4.244   4.060   5.232
 7024SOL    HW221531   4.081   4.058   5.227
 7025SOL     OW21532   3.846   4.367   4.287
 7025SOL    HW121533   3.801   4.279   4.304
 7025SOL    HW221534   3.845   4.421   4.371
 7026SOL     OW21535   3.837   4.461   5.321
 7026SOL    HW121536   3.925   4.448   5.366
 7026SOL    HW221537   3.824   4.558   5.299
 7027SOL     OW21538   4.533   3.728   4.226
 7027SOL    HW121539   4.573   3.819   4.217
 7027SOL    HW221540   4.433   3.736   4.232
 7028SOL     OW21541   4.041   3.975   5.525
 7028SOL    HW121542   4.112   4.046   5.531
 7028SOL    HW221543   3.953   4.014   5.553
 7029SOL     OW21544   4.274   3.920   4.609
 7029SOL    HW121545   4.269   3.915   4.709
 7029SOL    HW221546   4.276   4.016   4.580
 7030SOL     OW21547   3.926   4.009   5.222
 7030SOL    HW121548   3.846   4.069   5.209
 7030SOL    HW221549   3.916   3.960   5.308
 7031SOL     OW21550   4.106   4.424   4.204
 7031SOL    HW121551   4.151   4.334   4.201
 7031SOL    HW221552   4.012   4.413   4.237
 7032SOL     OW21553   4.338   3.846   3.841
 7032SOL    HW121554   4.436   3.824   3.848
 7032SOL    HW221555   4.307   3.829   3.748
 7033SOL     OW21556   4.263   3.788   4.236
 7033SOL    HW121557   4.182   3.789   4.294
 7033SOL    HW221558   4.266   3.871   4.181
 7034SOL     OW21559   4.021   3.759   3.895
 7034SOL    HW121560   4.070   3.843   3.874
 7034SOL    HW221561   4.083   3.694   3.940
 7035SOL     OW21562   4.800   4.407   5.188
 7035SOL    HW121563   4.720   4.346   5.191
 7035SOL    HW221564   4.881   4.354   5.164
 7036SOL     OW21565   3.802   4.280   5.110
 7036SOL    HW121566   3.894   4.279   5.069
 7036SOL    HW221567   3.796   4.354   5.177
 7037SOL     OW21568   4.285   3.946   4.871
 7037SOL    HW121569   4.323   3.862   4.908
 7037SOL    HW221570   4.197   3.965   4.915
 7038SOL     OW21571   4.251   3.980   4.052
 7038SOL    HW121572   4.278   3.921   3.977
 7038SOL    HW221573   4.251   4.075   4.021
 7039SOL     OW21574   4.134   4.537   4.975
 7039SOL    HW121575   4.220   4.549   5.025
 7039SOL    HW221576   4.092   4.450   5.002
 7040SOL     OW21577   4.290   4.261   4.589
 7040SOL    HW121578   4.302   4.327   4.515
 7040SOL    HW221579   4.336   4.295   4.672
 7041SOL     OW21580   4.228   3.774   5.464
 7041SOL    HW121581   4.186   3.717   5.394
 7041SOL    HW221582   4.162   3.843   5.496
 7042SOL     OW21583   4.031   3.937   4.955
 7042SOL    HW121584   4.008   3.974   5.045
 7042SOL    HW221585   4.001   3.842   4.949
 7043SOL     OW21586   4.031   3.787   4.342
 7043SOL    HW121587   4.020   3.881   4.375
 7043SOL    HW221588   4.026   3.724   4.419
 7044SOL     OW21589   4.043   4.534   4.673
 7044SOL    HW121590   4.136   4.570   4.678
 7044SOL    HW221591   4.037   4.449   4.725
 7045SOL     OW21592   4.063   4.233   4.730
 7045SOL    HW121593   4.011   4.150   4.713
 7045SOL    HW221594   4.140   4.238   4.666
 7046SOL     OW21595   3.764   4.268   4.838
 7046SOL    HW121596   3.849   4.235   4.797
 7046SOL    HW221597   3.777   4.283   4.936
 7047SOL     OW21598   3.913   4.244   5.446
 7047SOL    HW121599   3.972   4.204   5.376
 7047SOL    HW221600   3.855   4.315   5.405
 7048SOL     OW21601   4.539   4.296   4.049
 7048SOL    HW121602   4.546   4.207   4.003
 7048SOL    HW221603   4.445   4.330   4.041
 7049SOL     OW21604   4.197   4.224   3.915
 7049SOL    HW121605   4.258   4.304   3.919
 7049SOL    HW221606   4.102   4.255   3.922
 7050SOL     OW21607   3.987   4.050   4.444
 7050SOL    HW121608   3.908   4.101   4.410
 7050SOL    HW221609   3.978   4.035   4.542
 7051SOL     OW21610   4.396   3.927   5.213
 7051SOL    HW121611   4.486   3.911   5.173
 7051SOL    HW221612   4.404   3.932   5.312
 7052SOL     OW21613   3.799   4.069   3.757
 7052SOL    HW121614   3.707   4.041   3.728
 7052SOL    HW221615   3.830   4.146   3.701
 7053SOL     OW21616   3.796   3.890   4.042
 7053SOL    HW121617   3.779   3.973   3.988
 7053SOL    HW221618   3.886   3.853   4.020
 7054SOL     OW21619   4.440   4.289   5.432
 7054SOL    HW121620   4.459   4.354   5.506
 7054SOL    HW221621   4.500   4.209   5.441
 7055SOL     OW21622   4.152   4.148   4.244
 7055SOL    HW121623   4.182   4.076   4.182
 7055SOL    HW221624   4.113   4.108   4.327
 7056SOL     OW21625   4.041   4.271   5.004
 7056SOL    HW121626   4.079   4.212   5.076
 7056SOL    HW221627   4.081   4.245   4.916
 7057SOL     OW21628   3.954   4.352   5.699
 7057SOL    HW121629   3.861   4.350   5.736
 7057SOL    HW221630   3.955   4.313   5.607
 7058SOL     OW21631   3.949   3.999   6.582
 7058SOL    HW121632   3.984   3.982   6.674
 7058SOL    HW221633   3.861   3.954   6.570
 7059SOL     OW21634   3.743   4.092   6.233
 7059SOL    HW121635   3.661   4.135   6.272
 7059SOL    HW221636   3.715   4.019   6.170
 7060SOL     OW21637   4.574   4.522   7.409
 7060SOL    HW121638   4.570   4.598   7.474
 7060SOL    HW221639   4.596   4.558   7.318
 7061SOL     OW21640   4.162   4.116   7.085
 7061SOL    HW121641   4.244   4.060   7.094
 7061SOL    HW221642   4.081   4.058   7.089
 7062SOL     OW21643   3.846   4.367   6.149
 7062SOL    HW121644   3.801   4.279   6.166
 7062SOL    HW221645   3.845   4.421   6.233
 7063SOL     OW21646   3.837   4.461   7.183
 7063SOL    HW121647   3.925   4.448   7.228
 7063SOL    HW221648   3.824   4.558   7.161
 7064SOL     OW21649   4.533   3.728   6.088
 7064SOL    HW121650   4.573   3.819   6.079
 7064SOL    HW221651   4.433   3.736   6.094
 7065SOL     OW21652   4.041   3.975   7.387
 7065SOL    HW121653   4.112   4.046   7.393
 7065SOL    HW221654   3.953   4.014   7.415
 7066SOL     OW21655   4.274   3.920   6.471
 7066SOL    HW121656   4.269   3.915   6.571
 7066SOL    HW221657   4.276   4.016   6.442
 7067SOL     OW21658   3.926   4.009   7.084
 7067SOL    HW121659   3.846   4.069   7.071
 7067SOL    HW221660   3.916   3.960   7.170
 7068SOL     OW21661   4.106   4.424   6.066
 7068SOL    HW121662   4.151   4.334   6.063
 7068SOL    HW221663   4.012   4.413   6.099
 7069SOL     OW21664   4.338   3.846   5.703
 7069SOL    HW121665   4.436   3.824   5.710
 7069SOL    HW221666   4.307   3.829   5.610
 7070SOL     OW21667   4.263   3.788   6.098
 7070SOL    HW121668   4.182   3.789   6.156
 7070SOL    HW221669   4.266   3.871   6.043
 7071SOL     OW21670   4.021   3.759   5.757
 7071SOL    HW121671   4.070   3.843   5.736
 7071SOL    HW221672   4.083   3.694   5.802
 7072SOL     OW21673   4.800   4.407   7.050
 7072SOL    HW121674   4.720   4.346   7.053
 7072SOL    HW221675   4.881   4.354   7.026
 7073SOL     OW21676   3.802   4.280   6.972
 7073SOL    HW121677   3.894   4.279   6.931
 7073SOL    HW221678   3.796   4.354   7.039
 7074SOL     OW21679   4.285   3.946   6.733
 7074SOL    HW121680   4.323   3.862   6.770
 7074SOL    HW221681   4.197   3.965   6.777
 7075SOL     OW21682   4.251   3.980   5.914
 7075SOL    HW121683   4.278   3.921   5.839
 7075SOL    HW221684   4.251   4.075   5.883
 7076SOL     OW21685   4.134   4.537   6.837
 7076SOL    HW121686   4.220   4.549   6.887
 7076SOL    HW221687   4.092   4.450   6.864
 7077SOL     OW21688   4.290   4.261   6.451
 7077SOL    HW121689   4.302   4.327   6.377
 7077SOL    HW221690   4.336   4.295   6.534
 7078SOL     OW21691   4.228   3.774   7.326
 7078SOL    HW121692   4.186   3.717   7.256
 7078SOL    HW221693   4.162   3.843   7.358
 7079SOL     OW21694   4.031   3.937   6.817
 7079SOL    HW121695   4.008   3.974   6.907
 7079SOL    HW221696   4.001   3.842   6.811
 7080SOL     OW21697   4.031   3.787   6.204
 7080SOL    HW121698   4.020   3.881   6.237
 7080SOL    HW221699   4.026   3.724   6.281
 7081SOL     OW21700   4.043   4.534   6.535
 7081SOL    HW121701   4.136   4.570   6.540
 7081SOL    HW221702   4.037   4.449   6.587
 7082SOL     OW21703   4.063   4.233   6.592
 7082SOL    HW121704   4.011   4.150   6.575
 7082SOL    HW221705   4.140   4.238   6.528
 7083SOL     OW21706   3.764   4.268   6.700
 7083SOL    HW121707   3.849   4.235   6.659
 7083SOL    HW221708   3.777   4.283   6.798
 7084SOL     OW21709   3.913   4.244   7.308
 7084SOL    HW121710   3.972   4.204   7.238
 7084SOL    HW221711   3.855   4.315   7.267
 7085SOL     OW21712   4.539   4.296   5.911
 7085SOL    HW121713   4.546   4.207   5.865
 7085SOL    HW221714   4.445   4.330   5.903
 7086SOL     OW21715   4.197   4.224   5.777
 7086SOL    HW121716   4.258   4.304   5.781
 7086SOL    HW221717   4.102   4.255   5.784
 7087SOL     OW21718   3.987   4.050   6.306
 7087SOL    HW121719   3.908   4.101   6.272
 7087SOL    HW221720   3.978   4.035   6.404
 7088SOL     OW21721   4.396   3.927   7.075
 7088SOL    HW121722   4.486   3.911   7.035
 7088SOL    HW221723   4.404   3.932   7.174
 7089SOL     OW21724   3.799   4.069   5.619
 7089SOL    HW121725   3.707   4.041   5.590
 7089SOL    HW221726   3.830   4.146   5.563
 7090SOL     OW21727   3.796   3.890   5.904
 7090SOL    HW121728   3.779   3.973   5.850
 7090SOL    HW221729   3.886   3.853   5.882
 7091SOL     OW21730   4.440   4.289   7.294
 7091SOL    HW121731   4.459   4.354   7.368
 7091SOL    HW221732   4.500   4.209   7.303
 7092SOL     OW21733   4.152   4.148   6.106
 7092SOL    HW121734   4.182   4.076   6.044
 7092SOL    HW221735   4.113   4.108   6.189
 7093SOL     OW21736   4.041   4.271   6.866
 7093SOL    HW121737   4.079   4.212   6.938
 7093SOL    HW221738   4.081   4.245   6.778
 7094SOL     OW21739   3.954   4.352   7.561
 7094SOL    HW121740   3.861   4.350   7.598
 7094SOL    HW221741   3.955   4.313   7.469
 7095SOL     OW21742   3.949   3.999   8.444
 7095SOL    HW121743   3.984   3.982   8.536
 7095SOL    HW221744   3.861   3.954   8.432
 7096SOL     OW21745   3.743   4.092   8.095
 7096SOL    HW121746   3.661   4.135   8.134
 7096SOL    HW221747   3.715   4.019   8.032
 7097SOL     OW21748   4.574   4.522   9.271
 7097SOL    HW121749   4.570   4.598   9.336
 7097SOL    HW221750   4.596   4.558   9.180
 7098SOL     OW21751   4.162   4.116   8.947
 7098SOL    HW121752   4.244   4.060   8.956
 7098SOL    HW221753   4.081   4.058   8.951
 7099SOL     OW21754   3.846   4.367   8.011
 7099SOL    HW121755   3.801   4.279   8.028
 7099SOL    HW221756   3.845   4.421   8.095
 7100SOL     OW21757   3.837   4.461   9.045
 7100SOL    HW121758   3.925   4.448   9.090
 7100SOL    HW221759   3.824   4.558   9.023
 7101SOL     OW21760   4.533   3.728   7.950
 7101SOL    HW121761   4.573   3.819   7.941
 7101SOL    HW221762   4.433   3.736   7.956
 7102SOL     OW21763   4.041   3.975   9.249
 7102SOL    HW121764   4.112   4.046   9.255
 7102SOL    HW221765   3.953   4.014   9.277
 7103SOL     OW21766   4.274   3.920   8.333
 7103SOL    HW121767   4.269   3.915   8.433
 7103SOL    HW221768   4.276   4.016   8.304
 7104SOL     OW21769   3.926   4.009   8.946
 7104SOL    HW121770   3.846   4.069   8.933
 7104SOL    HW221771   3.916   3.960   9.032
 7105SOL     OW21772   4.106   4.424   7.928
 7105SOL    HW121773   4.151   4.334   7.925
 7105SOL    HW221774   4.012   4.413   7.961
 7106SOL     OW21775   4.338   3.846   7.565
 7106SOL    HW121776   4.436   3.824   7.572
 7106SOL    HW221777   4.307   3.829   7.472
 7107SOL     OW21778   4.263   3.788   7.960
 7107SOL    HW121779   4.182   3.789   8.018
 7107SOL    HW221780   4.266   3.871   7.905
 7108SOL     OW21781   4.021   3.759   7.619
 7108SOL    HW121782   4.070   3.843   7.598
 7108SOL    HW221783   4.083   3.694   7.664
 7109SOL     OW21784   4.800   4.407   8.912
 7109SOL    HW121785   4.720   4.346   8.915
 7109SOL    HW221786   4.881   4.354   8.888
 7110SOL     OW21787   3.802   4.280   8.834
 7110SOL    HW121788   3.894   4.279   8.793
 7110SOL    HW221789   3.796   4.354   8.901
 7111SOL     OW21790   4.285   3.946   8.595
 7111SOL    HW121791   4.323   3.862   8.632
 7111SOL    HW221792   4.197   3.965   8.639
 7112SOL     OW21793   4.251   3.980   7.776
 7112SOL    HW121794   4.278   3.921   7.701
 7112SOL    HW221795   4.251   4.075   7.745
 7113SOL     OW21796   4.134   4.537   8.699
 7113SOL    HW121797   4.220   4.549   8.749
 7113SOL    HW221798   4.092   4.450   8.726
 7114SOL     OW21799   4.290   4.261   8.313
 7114SOL    HW121800   4.302   4.327   8.239
 7114SOL    HW221801   4.336   4.295   8.396
 7115SOL     OW21802   4.228   3.774   9.188
 7115SOL    HW121803   4.186   3.717   9.118
 7115SOL    HW221804   4.162   3.843   9.220
 7116SOL     OW21805   4.031   3.937   8.679
 7116SOL    HW121806   4.008   3.974   8.769
 7116SOL    HW221807   4.001   3.842   8.673
 7117SOL     OW21808   4.031   3.787   8.066
 7117SOL    HW121809   4.020   3.881   8.099
 7117SOL    HW221810   4.026   3.724   8.143
 7118SOL     OW21811   4.043   4.534   8.397
 7118SOL    HW121812   4.136   4.570   8.402
 7118SOL    HW221813   4.037   4.449   8.449
 7119SOL     OW21814   4.063   4.233   8.454
 7119SOL    HW121815   4.011   4.150   8.437
 7119SOL    HW221816   4.140   4.238   8.390
 7120SOL     OW21817   3.764   4.268   8.562
 7120SOL    HW121818   3.849   4.235   8.521
 7120SOL    HW221819   3.777   4.283   8.660
 7121SOL     OW21820   3.913   4.244   9.170
 7121SOL    HW121821   3.972   4.204   9.100
 7121SOL    HW221822   3.855   4.315   9.129
 7122SOL     OW21823   4.539   4.296   7.773
 7122SOL    HW121824   4.546   4.207   7.727
 7122SOL    HW221825   4.445   4.330   7.765
 7123SOL     OW21826   4.197   4.224   7.639
 7123SOL    HW121827   4.258   4.304   7.643
 7123SOL    HW221828   4.102   4.255   7.646
 7124SOL     OW21829   3.987   4.050   8.168
 7124SOL    HW121830   3.908   4.101   8.134
 7124SOL    HW221831   3.978   4.035   8.266
 7125SOL     OW21832   4.396   3.927   8.937
 7125SOL    HW121833   4.486   3.911   8.897
 7125SOL    HW221834   4.404   3.932   9.036
 7126SOL     OW21835   3.799   4.069   7.481
 7126SOL    HW121836   3.707   4.041   7.452
 7126SOL    HW221837   3.830   4.146   7.425
 7127SOL     OW21838   3.796   3.890   7.766
 7127SOL    HW121839   3.779   3.973   7.712
 7127SOL    HW221840   3.886   3.853   7.744
 7128SOL     OW21841   4.440   4.289   9.156
 7128SOL    HW121842   4.459   4.354   9.230
 7128SOL    HW221843   4.500   4.209   9.165
 7129SOL     OW21844   4.152   4.148   7.968
 7129SOL    HW121845   4.182   4.076   7.906
 7129SOL    HW221846   4.113   4.108   8.051
 7130SOL     OW21847   4.041   4.271   8.728
 7130SOL    HW121848   4.079   4.212   8.800
 7130SOL    HW221849   4.081   4.245   8.640
 7131SOL     OW21850   3.954   4.352   9.423
 7131SOL    HW121851   3.861   4.350   9.460
 7131SOL    HW221852   3.955   4.313   9.331
 7132SOL     OW21853   3.949   3.999  10.306
 7132SOL    HW121854   3.984   3.982  10.398
 7132SOL    HW221855   3.861   3.954  10.294
 7133SOL     OW21856   3.743   4.092   9.957
 7133SOL    HW121857   3.661   4.135   9.996
 7133SOL    HW221858   3.715   4.019   9.894
 7134SOL     OW21859   4.162   4.116  10.809
 7134SOL    HW121860   4.244   4.060  10.818
 7134SOL    HW221861   4.081   4.058  10.813
 7135SOL     OW21862   3.846   4.367   9.873
 7135SOL    HW121863   3.801   4.279   9.890
 7135SOL    HW221864   3.845   4.421   9.957
 7136SOL     OW21865   3.837   4.461  10.907
 7136SOL    HW121866   3.925   4.448  10.952
 7136SOL    HW221867   3.824   4.558  10.885
 7137SOL     OW21868   4.533   3.728   9.812
 7137SOL    HW121869   4.573   3.819   9.803
 7137SOL    HW221870   4.433   3.736   9.818
 7138SOL     OW21871   4.041   3.975  11.111
 7138SOL    HW121872   4.112   4.046  11.117
 7138SOL    HW221873   3.953   4.014  11.139
 7139SOL     OW21874   4.274   3.920  10.195
 7139SOL    HW121875   4.269   3.915  10.295
 7139SOL    HW221876   4.276   4.016  10.166
 7140SOL     OW21877   3.926   4.009  10.808
 7140SOL    HW121878   3.846   4.069  10.795
 7140SOL    HW221879   3.916   3.960  10.894
 7141SOL     OW21880   4.106   4.424   9.790
 7141SOL    HW121881   4.151   4.334   9.787
 7141SOL    HW221882   4.012   4.413   9.823
 7142SOL     OW21883   4.338   3.846   9.427
 7142SOL    HW121884   4.436   3.824   9.434
 7142SOL    HW221885   4.307   3.829   9.334
 7143SOL     OW21886   4.263   3.788   9.822
 7143SOL    HW121887   4.182   3.789   9.880
 7143SOL    HW221888   4.266   3.871   9.767
 7144SOL     OW21889   4.021   3.759   9.481
 7144SOL    HW121890   4.070   3.843   9.460
 7144SOL    HW221891   4.083   3.694   9.526
 7145SOL     OW21892   4.800   4.407  10.774
 7145SOL    HW121893   4.720   4.346  10.777
 7145SOL    HW221894   4.881   4.354  10.750
 7146SOL     OW21895   3.802   4.280  10.696
 7146SOL    HW121896   3.894   4.279  10.655
 7146SOL    HW221897   3.796   4.354  10.763
 7147SOL     OW21898   4.285   3.946  10.457
 7147SOL    HW121899   4.323   3.862  10.494
 7147SOL    HW221900   4.197   3.965  10.501
 7148SOL     OW21901   4.251   3.980   9.638
 7148SOL    HW121902   4.278   3.921   9.563
 7148SOL    HW221903   4.251   4.075   9.607
 7149SOL     OW21904   4.134   4.537  10.561
 7149SOL    HW121905   4.220   4.549  10.611
 7149SOL    HW221906   4.092   4.450  10.588
 7150SOL     OW21907   4.290   4.261  10.175
 7150SOL    HW121908   4.302   4.327  10.101
 7150SOL    HW221909   4.336   4.295  10.258
 7151SOL     OW21910   4.126   4.475  10.908
 7151SOL    HW121911   4.194   4.530  10.861
 7151SOL    HW221912   4.166   4.387  10.935
 7152SOL     OW21913   4.031   3.937  10.541
 7152SOL    HW121914   4.008   3.974  10.631
 7152SOL    HW221915   4.001   3.842  10.535
 7153SOL     OW21916   4.031   3.787   9.928
 7153SOL    HW121917   4.020   3.881   9.961
 7153SOL    HW221918   4.026   3.724  10.005
 7154SOL     OW21919   4.043   4.534  10.259
 7154SOL    HW121920   4.136   4.570  10.264
 7154SOL    HW221921   4.037   4.449  10.311
 7155SOL     OW21922   4.063   4.233  10.316
 7155SOL    HW121923   4.011   4.150  10.299
 7155SOL    HW221924   4.140   4.238  10.252
 7156SOL     OW21925   3.764   4.268  10.424
 7156SOL    HW121926   3.849   4.235  10.383
 7156SOL    HW221927   3.777   4.283  10.522
 7157SOL     OW21928   4.539   4.296   9.635
 7157SOL    HW121929   4.546   4.207   9.589
 7157SOL    HW221930   4.445   4.330   9.627
 7158SOL     OW21931   4.197   4.224   9.501
 7158SOL    HW121932   4.258   4.304   9.505
 7158SOL    HW221933   4.102   4.255   9.508
 7159SOL     OW21934   3.987   4.050  10.030
 7159SOL    HW121935   3.908   4.101   9.996
 7159SOL    HW221936   3.978   4.035  10.128
 7160SOL     OW21937   4.396   3.927  10.799
 7160SOL    HW121938   4.486   3.911  10.759
 7160SOL    HW221939   4.404   3.932  10.898
 7161SOL     OW21940   3.799   4.069   9.343
 7161SOL    HW121941   3.707   4.041   9.314
 7161SOL    HW221942   3.830   4.146   9.287
 7162SOL     OW21943   3.796   3.890   9.628
 7162SOL    HW121944   3.779   3.973   9.574
 7162SOL    HW221945   3.886   3.853   9.606
 7163SOL     OW21946   4.152   4.148   9.830
 7163SOL    HW121947   4.182   4.076   9.768
 7163SOL    HW221948   4.113   4.108   9.913
 7164SOL     OW21949   4.041   4.271  10.590
 7164SOL    HW121950   4.079   4.212  10.662
 7164SOL    HW221951   4.081   4.245  10.502
   4.50000   4.50000  11.10000
