2aCDOH_1PEG_l11
21951
    1LIG      O    1   2.209   2.272   0.026
    1LIG      C    2   2.292   2.293   0.147
    1LIG     C1    3   2.220   2.241   0.279
    1LIG     O1    4   2.282   2.291   0.402
    1LIG     C2    5   2.221   2.236   0.525
    1LIG     C3    6   2.294   2.283   0.657
    1LIG     O2    7   2.234   2.222   0.776
    1LIG     C4    8   2.289   2.274   0.902
    1LIG     C5    9   2.211   2.218   1.027
    1LIG     O3   10   2.273   2.263   1.152
    1LIG     C6   11   2.211   2.215   1.275
    1LIG     C7   12   2.285   2.275   1.401
    1LIG     O4   13   2.215   2.241   1.524
    1LIG     C8   14   2.291   2.272   1.645
    1LIG     C9   15   2.214   2.225   1.773
    1LIG     O5   16   2.280   2.273   1.893
    1LIG    C10   17   2.224   2.220   2.017
    1LIG    C11   18   2.301   2.273   2.142
    1LIG     O6   19   2.251   2.211   2.264
    1LIG    C12   20   2.295   2.280   2.385
    1LIG    C13   21   2.218   2.228   2.511
    1LIG     O7   22   2.288   2.268   2.632
    1LIG    C14   23   2.215   2.246   2.755
    1LIG    C15   24   2.299   2.300   2.877
    1LIG     O8   25   2.253   2.243   3.003
    1LIG    C16   26   2.310   2.302   3.123
    1LIG    C17   27   2.240   2.240   3.248
    1LIG     O9   28   2.283   2.305   3.370
    1LIG    C18   29   2.226   2.244   3.489
    1LIG    C19   30   2.300   2.292   3.617
    1LIG    O10   31   2.230   2.247   3.736
    1LIG    C20   32   2.296   2.292   3.858
    1LIG    C21   33   2.216   2.243   3.984
    1LIG    O11   34   2.274   2.296   4.106
    1LIG    C22   35   2.213   2.238   4.225
    1LIG    C23   36   2.290   2.282   4.354
    1LIG    O12   37   2.230   2.220   4.471
    1LIG    C24   38   2.284   2.274   4.594
    1LIG    C25   39   2.206   2.217   4.717
    1LIG    O13   40   2.265   2.265   4.840
    1LIG    C26   41   2.199   2.217   4.960
    1LIG    C27   42   2.273   2.269   5.087
    1LIG    O14   43   2.200   2.232   5.207
    1LIG    C28   44   2.263   2.283   5.328
    1LIG    C29   45   2.188   2.234   5.455
    1LIG    O15   46   2.249   2.286   5.576
    1LIG    C30   47   2.207   2.220   5.699
    1LIG    C31   48   2.287   2.274   5.822
    1LIG    O16   49   2.220   2.233   5.944
    1LIG    C32   50   2.291   2.272   6.065
    1LIG    C33   51   2.210   2.228   6.191
    1LIG    O17   52   2.269   2.284   6.312
    1LIG    C34   53   2.199   2.248   6.433
    1LIG    C35   54   2.279   2.295   6.559
    1LIG    O18   55   2.216   2.247   6.681
    1LIG    C36   56   2.279   2.294   6.803
    1LIG    C37   57   2.213   2.225   6.927
    1LIG    O19   58   2.255   2.292   7.049
    1LIG    C38   59   2.208   2.226   7.170
    1LIG    C39   60   2.288   2.278   7.294
    1LIG    O20   61   2.226   2.233   7.417
    1LIG    C40   62   2.294   2.283   7.537
    1LIG    C41   63   2.218   2.234   7.665
    1LIG    O21   64   2.287   2.272   7.786
    1LIG    C42   65   2.214   2.232   7.905
    1LIG    C43   66   2.287   2.283   8.033
    1LIG    O22   67   2.233   2.218   8.152
    1LIG    C44   68   2.285   2.276   8.275
    1LIG    C45   69   2.210   2.220   8.400
    1LIG    O23   70   2.266   2.275   8.521
    1LIG    C46   71   2.213   2.219   8.644
    1LIG    C47   72   2.288   2.280   8.767
    1LIG    O24   73   2.214   2.254   8.891
    1LIG    C48   74   2.294   2.282   9.010
    1LIG    C49   75   2.222   2.230   9.140
    1LIG    O25   76   2.293   2.274   9.259
    1LIG    C50   77   2.232   2.229   9.383
    1LIG    C51   78   2.310   2.280   9.510
    1LIG    O26   79   2.251   2.224   9.631
    1LIG    C52   80   2.294   2.289   9.755
    1LIG    C53   81   2.211   2.236   9.878
    1LIG    O27   82   2.273   2.271  10.005
    1LIG    C54   83   2.206   2.222  10.126
    1LIG    C55   84   2.280   2.275  10.256
    1LIG    O28   85   2.217   2.231  10.380
    1LIG    C56   86   2.275   2.285  10.504
    1LIG    C57   87   2.210   2.216  10.631
    1LIG    O29   88   2.256   2.274  10.758
    1LIG    C58   89   2.192   2.215  10.877
    1LIG    C59   90   2.282   2.222  11.008
    1LIG      H   91   2.314   2.400   0.157
    1LIG     H1   92   2.388   2.241   0.136
    1LIG     H2   93   2.224   2.132   0.279
    1LIG     H3   94   2.114   2.272   0.277
    1LIG     H4   95   2.225   2.127   0.519
    1LIG     H5   96   2.115   2.266   0.529
    1LIG     H6   97   2.288   2.392   0.665
    1LIG     H7   98   2.400   2.254   0.652
    1LIG     H8   99   2.283   2.383   0.903
    1LIG     H9  100   2.395   2.245   0.910
    1LIG    H10  101   2.211   2.108   1.025
    1LIG    H11  102   2.106   2.252   1.024
    1LIG    H12  103   2.216   2.106   1.279
    1LIG    H13  104   2.106   2.245   1.277
    1LIG    H14  105   2.291   2.384   1.392
    1LIG    H15  106   2.387   2.236   1.405
    1LIG    H16  107   2.307   2.381   1.650
    1LIG    H17  108   2.389   2.223   1.641
    1LIG    H18  109   2.209   2.116   1.773
    1LIG    H19  110   2.111   2.265   1.770
    1LIG    H20  111   2.227   2.110   2.015
    1LIG    H21  112   2.119   2.251   2.025
    1LIG    H22  113   2.287   2.382   2.148
    1LIG    H23  114   2.408   2.252   2.132
    1LIG    H24  115   2.279   2.388   2.375
    1LIG    H25  116   2.403   2.261   2.398
    1LIG    H26  117   2.211   2.119   2.508
    1LIG    H27  118   2.116   2.270   2.511
    1LIG    H28  119   2.198   2.138   2.767
    1LIG    H29  120   2.118   2.297   2.751
    1LIG    H30  121   2.291   2.410   2.881
    1LIG    H31  122   2.404   2.274   2.864
    1LIG    H32  123   2.294   2.410   3.122
    1LIG    H33  124   2.418   2.282   3.126
    1LIG    H34  125   2.261   2.132   3.252
    1LIG    H35  126   2.132   2.254   3.236
    1LIG    H36  127   2.234   2.134   3.482
    1LIG    H37  128   2.120   2.270   3.496
    1LIG    H38  129   2.305   2.401   3.618
    1LIG    H39  130   2.401   2.251   3.618
    1LIG    H40  131   2.301   2.402   3.859
    1LIG    H41  132   2.398   2.253   3.862
    1LIG    H42  133   2.220   2.134   3.987
    1LIG    H43  134   2.111   2.274   3.977
    1LIG    H44  135   2.217   2.129   4.216
    1LIG    H45  136   2.108   2.269   4.231
    1LIG    H46  137   2.285   2.390   4.364
    1LIG    H47  138   2.395   2.251   4.346
    1LIG    H48  139   2.275   2.384   4.594
    1LIG    H49  140   2.390   2.248   4.602
    1LIG    H50  141   2.209   2.108   4.715
    1LIG    H51  142   2.101   2.249   4.712
    1LIG    H52  143   2.199   2.107   4.960
    1LIG    H53  144   2.095   2.252   4.961
    1LIG    H54  145   2.283   2.378   5.081
    1LIG    H55  146   2.374   2.226   5.090
    1LIG    H56  147   2.263   2.392   5.326
    1LIG    H57  148   2.367   2.247   5.331
    1LIG    H58  149   2.188   2.124   5.458
    1LIG    H59  150   2.084   2.269   5.450
    1LIG    H60  151   2.221   2.112   5.690
    1LIG    H61  152   2.101   2.241   5.715
    1LIG    H62  153   2.291   2.383   5.818
    1LIG    H63  154   2.390   2.235   5.820
    1LIG    H64  155   2.304   2.381   6.065
    1LIG    H65  156   2.390   2.226   6.066
    1LIG    H66  157   2.210   2.119   6.198
    1LIG    H67  158   2.107   2.262   6.183
    1LIG    H68  159   2.185   2.139   6.438
    1LIG    H69  160   2.099   2.293   6.434
    1LIG    H70  161   2.283   2.405   6.560
    1LIG    H71  162   2.382   2.257   6.554
    1LIG    H72  163   2.267   2.403   6.810
    1LIG    H73  164   2.386   2.271   6.801
    1LIG    H74  165   2.242   2.119   6.930
    1LIG    H75  166   2.104   2.230   6.918
    1LIG    H76  167   2.221   2.118   7.162
    1LIG    H77  168   2.101   2.247   7.183
    1LIG    H78  169   2.291   2.387   7.293
    1LIG    H79  170   2.391   2.240   7.289
    1LIG    H80  171   2.296   2.393   7.535
    1LIG    H81  172   2.397   2.246   7.539
    1LIG    H82  173   2.211   2.125   7.661
    1LIG    H83  174   2.116   2.275   7.665
    1LIG    H84  175   2.207   2.123   7.907
    1LIG    H85  176   2.112   2.273   7.902
    1LIG    H86  177   2.275   2.391   8.041
    1LIG    H87  178   2.394   2.259   8.026
    1LIG    H88  179   2.274   2.385   8.272
    1LIG    H89  180   2.392   2.253   8.283
    1LIG    H90  181   2.219   2.110   8.401
    1LIG    H91  182   2.103   2.246   8.394
    1LIG    H92  183   2.226   2.110   8.643
    1LIG    H93  184   2.106   2.241   8.650
    1LIG    H94  185   2.298   2.388   8.754
    1LIG    H95  186   2.388   2.236   8.774
    1LIG    H96  187   2.310   2.390   9.018
    1LIG    H97  188   2.392   2.235   9.002
    1LIG    H98  189   2.219   2.120   9.137
    1LIG    H99  190   2.119   2.268   9.142
    1LIG   H100  191   2.229   2.119   9.383
    1LIG   H101  192   2.129   2.266   9.388
    1LIG   H102  193   2.303   2.389   9.513
    1LIG   H103  194   2.415   2.251   9.503
    1LIG   H104  195   2.281   2.398   9.746
    1LIG   H105  196   2.401   2.268   9.771
    1LIG   H106  197   2.204   2.127   9.869
    1LIG   H107  198   2.109   2.276   9.873
    1LIG   H108  199   2.206   2.112  10.126
    1LIG   H109  200   2.102   2.256  10.127
    1LIG   H110  201   2.281   2.385  10.253
    1LIG   H111  202   2.384   2.239  10.255
    1LIG   H112  203   2.257   2.393  10.507
    1LIG   H113  204   2.383   2.268  10.504
    1LIG   H114  205   2.234   2.109  10.629
    1LIG   H115  206   2.101   2.226  10.624
    1LIG   H116  207   2.170   2.110  10.857
    1LIG   H117  208   2.097   2.266  10.895
    1LIG   H118  209   2.370   2.284  10.989
    1LIG   H119  210   2.318   2.120  11.030
    2MOL     C1  211   2.800   2.247   5.040
    2MOL     H1  212   2.886   2.313   5.055
    2MOL     O1  213   2.775   2.171   5.159
    2MOL     C2  214   2.656   2.088   5.156
    2MOL     H2  215   2.567   2.151   5.140
    2MOL     C3  216   2.643   2.021   5.296
    2MOL     H3  217   2.743   2.014   5.340
    2MOL     H4  218   2.605   1.919   5.286
    2MOL     O2  219   2.556   2.095   5.382
    2MOL     H5  220   2.469   2.050   5.374
    2MOL     C4  221   2.828   2.149   4.922
    2MOL     H6  222   2.916   2.088   4.946
    2MOL     O3  223   2.850   2.226   4.803
    2MOL     H7  224   2.793   2.305   4.815
    2MOL     C5  225   2.706   2.056   4.904
    2MOL     H8  226   2.621   2.118   4.872
    2MOL     O4  227   2.729   1.955   4.805
    2MOL     H9  228   2.786   1.993   4.735
    2MOL     C6  229   2.668   1.989   5.038
    2MOL    H10  230   2.743   1.912   5.062
    2MOL     O5  231   2.539   1.932   5.012
    2MOL     C7  232   2.523   1.794   5.047
    2MOL    H11  233   2.620   1.745   5.060
    2MOL     O6  234   2.445   1.788   5.168
    2MOL     C8  235   2.317   1.857   5.165
    2MOL    H12  236   2.331   1.963   5.139
    2MOL     C9  237   2.254   1.850   5.306
    2MOL    H13  238   2.245   1.744   5.336
    2MOL    H14  239   2.154   1.894   5.304
    2MOL     O7  240   2.335   1.919   5.402
    2MOL    H15  241   2.292   1.904   5.489
    2MOL    C10  242   2.448   1.723   4.933
    2MOL    H16  243   2.443   1.616   4.959
    2MOL     O8  244   2.517   1.739   4.808
    2MOL    H17  245   2.590   1.804   4.822
    2MOL    C11  246   2.304   1.777   4.920
    2MOL    H18  247   2.311   1.879   4.879
    2MOL     O9  248   2.228   1.694   4.833
    2MOL    H19  249   2.291   1.660   4.763
    2MOL    C12  250   2.231   1.787   5.057
    2MOL    H20  251   2.207   1.688   5.095
    2MOL    O10  252   2.112   1.863   5.032
    2MOL    C13  253   1.988   1.791   5.036
    2MOL    H21  254   2.005   1.683   5.046
    2MOL    O11  255   1.913   1.840   5.150
    2MOL    C14  256   1.892   1.984   5.152
    2MOL    H22  257   1.989   2.036   5.158
    2MOL    C15  258   1.812   2.020   5.280
    2MOL    H23  259   1.808   2.129   5.290
    2MOL    H24  260   1.865   1.981   5.367
    2MOL    O12  261   1.679   1.966   5.275
    2MOL    H25  262   1.629   2.014   5.346
    2MOL    C16  263   1.904   1.819   4.908
    2MOL    H26  264   1.807   1.770   4.918
    2MOL    O13  265   1.970   1.771   4.791
    2MOL    H27  266   2.062   1.753   4.815
    2MOL    C17  267   1.882   1.971   4.893
    2MOL    H28  268   1.981   2.017   4.880
    2MOL    O14  269   1.800   2.000   4.778
    2MOL    H29  270   1.829   1.936   4.708
    2MOL    C18  271   1.819   2.028   5.021
    2MOL    H30  272   1.714   1.996   5.025
    2MOL    O15  273   1.829   2.171   5.005
    2MOL    C19  274   1.709   2.247   5.026
    2MOL    H31  275   1.621   2.183   5.034
    2MOL    O16  276   1.727   2.323   5.147
    2MOL    C20  277   1.844   2.409   5.151
    2MOL    H32  278   1.935   2.349   5.145
    2MOL    C21  279   1.844   2.486   5.285
    2MOL    H33  280   1.929   2.554   5.290
    2MOL    H34  281   1.856   2.413   5.366
    2MOL    O17  282   1.722   2.559   5.304
    2MOL    H35  283   1.738   2.654   5.281
    2MOL    C22  284   1.691   2.345   4.908
    2MOL    H36  285   1.601   2.406   4.927
    2MOL    O18  286   1.676   2.274   4.785
    2MOL    H37  287   1.723   2.188   4.798
    2MOL    C23  288   1.813   2.438   4.895
    2MOL    H38  289   1.900   2.374   4.873
    2MOL    O19  290   1.796   2.535   4.788
    2MOL    H39  291   1.795   2.484   4.704
    2MOL    C24  292   1.840   2.507   5.030
    2MOL    H40  293   1.763   2.581   5.049
    2MOL    O20  294   1.970   2.567   5.014
    2MOL    C25  295   1.983   2.708   5.042
    2MOL    H41  296   1.885   2.755   5.057
    2MOL    O21  297   2.063   2.723   5.162
    2MOL    C26  298   2.192   2.655   5.154
    2MOL    H42  299   2.176   2.549   5.133
    2MOL    C27  300   2.266   2.662   5.291
    2MOL    H43  301   2.344   2.585   5.292
    2MOL    H44  302   2.196   2.638   5.372
    2MOL    O22  303   2.327   2.788   5.314
    2MOL    H45  304   2.423   2.768   5.309
    2MOL    C28  305   2.055   2.775   4.923
    2MOL    H46  306   2.064   2.883   4.942
    2MOL    O23  307   1.980   2.753   4.804
    2MOL    H47  308   1.929   2.671   4.820
    2MOL    C29  309   2.195   2.715   4.904
    2MOL    H48  310   2.183   2.610   4.875
    2MOL    O24  311   2.267   2.785   4.801
    2MOL    H49  312   2.201   2.807   4.732
    2MOL    C30  313   2.272   2.717   5.038
    2MOL    H50  314   2.299   2.821   5.062
    2MOL    O25  315   2.388   2.637   5.015
    2MOL    C31  316   2.514   2.699   5.042
    2MOL    H51  317   2.504   2.807   5.057
    2MOL    O26  318   2.568   2.638   5.162
    2MOL    C32  319   2.590   2.494   5.156
    2MOL    H52  320   2.495   2.442   5.141
    2MOL    C33  321   2.650   2.448   5.292
    2MOL    H53  322   2.710   2.529   5.334
    2MOL    H54  323   2.717   2.363   5.278
    2MOL    O27  324   2.546   2.413   5.384
    2MOL    H55  325   2.563   2.321   5.411
    2MOL    C34  326   2.607   2.673   4.921
    2MOL    H56  327   2.705   2.719   4.939
    2MOL    O28  328   2.549   2.727   4.803
    2MOL    H57  329   2.452   2.732   4.820
    2MOL    C35  330   2.626   2.522   4.904
    2MOL    H58  331   2.528   2.477   4.884
    2MOL    O29  332   2.714   2.493   4.794
    2MOL    H59  333   2.670   2.533   4.716
    2MOL    C36  334   2.682   2.462   5.033
    2MOL    H60  335   2.783   2.500   5.050
    2MOL    O30  336   2.681   2.321   5.009
    3MOL     C1  337   2.804   2.246   6.031
    3MOL     H1  338   2.894   2.307   6.044
    3MOL     O1  339   2.775   2.171   6.151
    3MOL     C2  340   2.653   2.093   6.146
    3MOL     H2  341   2.570   2.158   6.118
    3MOL     C3  342   2.623   2.042   6.290
    3MOL     H3  343   2.715   2.043   6.349
    3MOL     H4  344   2.587   1.938   6.287
    3MOL     O2  345   2.526   2.125   6.354
    3MOL     H5  346   2.447   2.068   6.369
    3MOL     C4  347   2.825   2.148   5.912
    3MOL     H6  348   2.915   2.088   5.931
    3MOL     O3  349   2.839   2.220   5.790
    3MOL     H7  350   2.800   2.309   5.807
    3MOL     C5  351   2.704   2.052   5.899
    3MOL     H8  352   2.618   2.114   5.870
    3MOL     O4  353   2.727   1.952   5.798
    3MOL     H9  354   2.790   1.991   5.732
    3MOL     C6  355   2.669   1.986   6.035
    3MOL    H10  356   2.747   1.914   6.062
    3MOL     O5  357   2.542   1.923   6.013
    3MOL     C7  358   2.528   1.785   6.051
    3MOL    H11  359   2.626   1.739   6.066
    3MOL     O6  360   2.448   1.778   6.170
    3MOL     C8  361   2.319   1.845   6.160
    3MOL    H12  362   2.333   1.950   6.131
    3MOL     C9  363   2.250   1.845   6.299
    3MOL    H13  364   2.249   1.743   6.339
    3MOL    H14  365   2.145   1.877   6.289
    3MOL     O7  366   2.316   1.933   6.390
    3MOL    H15  367   2.332   1.882   6.472
    3MOL    C10  368   2.455   1.710   5.937
    3MOL    H16  369   2.442   1.605   5.967
    3MOL     O8  370   2.534   1.716   5.818
    3MOL    H17  371   2.559   1.809   5.805
    3MOL    C11  372   2.315   1.772   5.914
    3MOL    H18  373   2.329   1.876   5.880
    3MOL     O9  374   2.243   1.698   5.815
    3MOL    H19  375   2.309   1.638   5.772
    3MOL    C12  376   2.236   1.776   6.048
    3MOL    H20  377   2.213   1.673   6.079
    3MOL    O10  378   2.117   1.853   6.025
    3MOL    C13  379   1.991   1.788   6.049
    3MOL    H21  380   2.004   1.681   6.068
    3MOL    O11  381   1.928   1.850   6.163
    3MOL    C14  382   1.899   1.992   6.149
    3MOL    H22  383   1.994   2.046   6.139
    3MOL    C15  384   1.831   2.045   6.279
    3MOL    H23  385   1.838   2.154   6.282
    3MOL    H24  386   1.892   2.007   6.362
    3MOL    O12  387   1.694   2.005   6.295
    3MOL    H25  388   1.642   2.088   6.310
    3MOL    C16  389   1.901   1.803   5.924
    3MOL    H26  390   1.806   1.753   5.942
    3MOL    O13  391   1.965   1.744   5.811
    3MOL    H27  392   2.060   1.734   5.836
    3MOL    C17  393   1.873   1.952   5.896
    3MOL    H28  394   1.970   2.000   5.875
    3MOL    O14  395   1.785   1.971   5.783
    3MOL    H29  396   1.833   1.939   5.703
    3MOL    C18  397   1.815   2.019   6.022
    3MOL    H30  398   1.711   1.986   6.036
    3MOL    O15  399   1.823   2.159   5.992
    3MOL    C19  400   1.706   2.241   6.007
    3MOL    H31  401   1.614   2.181   6.015
    3MOL    O16  402   1.723   2.320   6.126
    3MOL    C20  403   1.843   2.400   6.130
    3MOL    H32  404   1.930   2.335   6.116
    3MOL    C21  405   1.857   2.462   6.271
    3MOL    H33  406   1.955   2.508   6.280
    3MOL    H34  407   1.852   2.381   6.345
    3MOL    O17  408   1.756   2.558   6.298
    3MOL    H35  409   1.802   2.618   6.364
    3MOL    C22  410   1.698   2.332   5.883
    3MOL    H36  411   1.606   2.392   5.886
    3MOL    O18  412   1.697   2.246   5.770
    3MOL    H37  413   1.735   2.162   5.806
    3MOL    C23  414   1.822   2.426   5.877
    3MOL    H38  415   1.910   2.361   5.867
    3MOL    O19  416   1.819   2.519   5.767
    3MOL    H39  417   1.757   2.482   5.696
    3MOL    C24  418   1.841   2.501   6.012
    3MOL    H40  419   1.761   2.575   6.025
    3MOL    O20  420   1.970   2.565   6.000
    3MOL    C25  421   1.986   2.702   6.044
    3MOL    H41  422   1.889   2.749   6.067
    3MOL    O21  423   2.070   2.702   6.162
    3MOL    C26  424   2.197   2.634   6.142
    3MOL    H42  425   2.178   2.533   6.106
    3MOL    C27  426   2.273   2.619   6.275
    3MOL    H43  427   2.346   2.539   6.266
    3MOL    H44  428   2.201   2.589   6.352
    3MOL    O22  429   2.340   2.739   6.314
    3MOL    H45  430   2.433   2.724   6.282
    3MOL    C28  431   2.057   2.783   5.932
    3MOL    H46  432   2.071   2.886   5.966
    3MOL    O23  433   1.975   2.782   5.815
    3MOL    H47  434   1.947   2.689   5.803
    3MOL    C29  435   2.196   2.721   5.901
    3MOL    H48  436   2.180   2.619   5.864
    3MOL    O24  437   2.268   2.797   5.802
    3MOL    H49  438   2.216   2.793   5.720
    3MOL    C30  439   2.277   2.710   6.032
    3MOL    H50  440   2.300   2.812   6.068
    3MOL    O25  441   2.397   2.637   6.001
    3MOL    C31  442   2.521   2.701   6.039
    3MOL    H51  443   2.507   2.809   6.055
    3MOL    O26  444   2.570   2.638   6.159
    3MOL    C32  445   2.600   2.496   6.152
    3MOL    H52  446   2.507   2.439   6.136
    3MOL    C33  447   2.661   2.453   6.289
    3MOL    H53  448   2.720   2.537   6.328
    3MOL    H54  449   2.731   2.370   6.275
    3MOL    O27  450   2.561   2.416   6.384
    3MOL    H55  451   2.535   2.323   6.364
    3MOL    C34  452   2.622   2.685   5.923
    3MOL    H56  453   2.716   2.737   5.950
    3MOL    O28  454   2.567   2.743   5.804
    3MOL    H57  455   2.470   2.741   5.817
    3MOL    C35  456   2.652   2.535   5.901
    3MOL    H58  457   2.559   2.488   5.868
    3MOL    O29  458   2.753   2.514   5.801
    3MOL    H59  459   2.732   2.573   5.724
    3MOL    C36  460   2.696   2.467   6.032
    3MOL    H60  461   2.798   2.499   6.058
    3MOL    O30  462   2.689   2.327   6.002
    4SOL     OW  463   0.240   0.597   0.110
    4SOL    HW1  464   0.165   0.586   0.168
    4SOL    HW2  465   0.204   0.639   0.032
    5SOL     OW  466   0.192   0.294   0.988
    5SOL    HW1  467   0.224   0.266   1.074
    5SOL    HW2  468   0.129   0.227   0.962
    6SOL     OW  469   4.499   0.389   0.637
    6SOL    HW1  470   4.426   0.427   0.686
    6SOL    HW2  471   4.460   0.315   0.590
    7SOL     OW  472   0.568   1.293   1.180
    7SOL    HW1  473   0.482   1.299   1.139
    7SOL    HW2  474   0.584   1.381   1.215
    8SOL     OW  475   1.566   1.513   0.708
    8SOL    HW1  476   1.523   1.491   0.791
    8SOL    HW2  477   1.494   1.516   0.645
    9SOL     OW  478   1.139   0.697   0.694
    9SOL    HW1  479   1.183   0.782   0.687
    9SOL    HW2  480   1.087   0.705   0.774
   10SOL     OW  481   1.781   0.600   0.211
   10SOL    HW1  482   1.717   0.615   0.140
   10SOL    HW2  483   1.742   0.530   0.263
   11SOL     OW  484   0.749   1.139   1.044
   11SOL    HW1  485   0.682   1.176   1.101
   11SOL    HW2  486   0.788   1.215   1.000
   12SOL     OW  487   0.869   0.767   1.821
   12SOL    HW1  488   0.855   0.836   1.885
   12SOL    HW2  489   0.893   0.813   1.741
   13SOL     OW  490   0.684   0.999   0.646
   13SOL    HW1  491   0.751   0.989   0.714
   13SOL    HW2  492   0.616   1.052   0.688
   14SOL     OW  493   0.713   1.149   1.817
   14SOL    HW1  494   0.760   1.227   1.845
   14SOL    HW2  495   0.632   1.182   1.778
   15SOL     OW  496   0.334   1.419   1.068
   15SOL    HW1  497   0.252   1.399   1.021
   15SOL    HW2  498   0.384   1.473   1.007
   16SOL     OW  499   1.460   1.501   1.358
   16SOL    HW1  500   1.514   1.580   1.366
   16SOL    HW2  501   1.394   1.509   1.427
   17SOL     OW  502   0.442   0.393   1.483
   17SOL    HW1  503   0.532   0.358   1.483
   17SOL    HW2  504   0.389   0.321   1.518
   18SOL     OW  505   1.607   0.443   0.739
   18SOL    HW1  506   1.525   0.459   0.692
   18SOL    HW2  507   1.620   0.521   0.793
   19SOL     OW  508   0.245   1.691   0.480
   19SOL    HW1  509   0.231   1.778   0.518
   19SOL    HW2  510   0.311   1.705   0.413
   20SOL     OW  511   1.137   1.342   1.694
   20SOL    HW1  512   1.178   1.336   1.780
   20SOL    HW2  513   1.085   1.262   1.687
   21SOL     OW  514   0.246   1.426   0.527
   21SOL    HW1  515   0.240   1.522   0.526
   21SOL    HW2  516   0.183   1.399   0.594
   22SOL     OW  517   0.250   1.083   0.885
   22SOL    HW1  518   0.267   0.992   0.909
   22SOL    HW2  519   0.189   1.115   0.951
   23SOL     OW  520   0.609   1.792   1.429
   23SOL    HW1  521   0.526   1.774   1.474
   23SOL    HW2  522   0.630   1.882   1.454
   24SOL     OW  523   0.565   0.997   0.155
   24SOL    HW1  524   0.617   1.030   0.081
   24SOL    HW2  525   0.613   1.025   0.233
   25SOL     OW  526   1.577   0.118   1.466
   25SOL    HW1  527   1.611   0.187   1.408
   25SOL    HW2  528   1.568   0.162   1.551
   26SOL     OW  529   0.135   0.646   0.571
   26SOL    HW1  530   0.086   0.567   0.596
   26SOL    HW2  531   0.111   0.711   0.638
   27SOL     OW  532   1.843   1.759   0.328
   27SOL    HW1  533   1.908   1.730   0.391
   27SOL    HW2  534   1.866   1.851   0.310
   28SOL     OW  535   0.076   1.588   0.151
   28SOL    HW1  536   0.043   1.498   0.163
   28SOL    HW2  537   0.044   1.636   0.227
   29SOL     OW  538   1.690   0.919   0.644
   29SOL    HW1  539   1.772   0.877   0.620
   29SOL    HW2  540   1.667   0.972   0.567
   30SOL     OW  541   1.648   1.103   0.432
   30SOL    HW1  542   1.731   1.113   0.384
   30SOL    HW2  543   1.653   1.167   0.503
   31SOL     OW  544   0.101   0.769   1.570
   31SOL    HW1  545   0.189   0.758   1.534
   31SOL    HW2  546   0.099   0.859   1.601
   32SOL     OW  547   0.615   1.389   0.737
   32SOL    HW1  548   0.569   1.306   0.746
   32SOL    HW2  549   0.598   1.416   0.646
   33SOL     OW  550   1.287   1.237   1.422
   33SOL    HW1  551   1.318   1.169   1.362
   33SOL    HW2  552   1.346   1.231   1.497
   34SOL     OW  553   0.826   0.013   0.556
   34SOL    HW1  554   0.864   0.091   0.516
   34SOL    HW2  555   0.731   0.024   0.545
   35SOL     OW  556   0.177   0.940   1.278
   35SOL    HW1  557   0.268   0.920   1.259
   35SOL    HW2  558   0.132   0.933   1.194
   36SOL     OW  559   1.512   1.006   0.206
   36SOL    HW1  560   1.447   0.946   0.244
   36SOL    HW2  561   1.564   1.035   0.281
   37SOL     OW  562   1.185   1.810   1.624
   37SOL    HW1  563   1.193   1.869   1.550
   37SOL    HW2  564   1.202   1.723   1.588
   38SOL     OW  565   0.317   0.261   1.765
   38SOL    HW1  566   0.385   0.310   1.812
   38SOL    HW2  567   0.240   0.268   1.821
   39SOL     OW  568   1.467   1.419   0.949
   39SOL    HW1  569   1.400   1.435   1.015
   39SOL    HW2  570   1.453   1.328   0.923
   40SOL     OW  571   1.658   1.745   0.578
   40SOL    HW1  572   1.637   1.715   0.489
   40SOL    HW2  573   1.634   1.673   0.635
   41SOL     OW  574   0.593   0.717   0.264
   41SOL    HW1  575   0.595   0.801   0.219
   41SOL    HW2  576   0.531   0.729   0.336
   42SOL     OW  577   1.290   0.369   0.933
   42SOL    HW1  578   1.200   0.339   0.921
   42SOL    HW2  579   1.329   0.306   0.993
   43SOL     OW  580   1.581   1.672   0.313
   43SOL    HW1  581   1.672   1.700   0.305
   43SOL    HW2  582   1.553   1.653   0.224
   44SOL     OW  583   0.798   0.618   1.453
   44SOL    HW1  584   0.769   0.591   1.541
   44SOL    HW2  585   0.758   0.554   1.394
   45SOL     OW  586   1.388   0.481   1.676
   45SOL    HW1  587   1.392   0.525   1.761
   45SOL    HW2  588   1.455   0.413   1.681
   46SOL     OW  589   0.952   0.886   1.585
   46SOL    HW1  590   1.007   0.817   1.548
   46SOL    HW2  591   0.905   0.923   1.509
   47SOL     OW  592   0.999   0.418   1.232
   47SOL    HW1  593   0.910   0.422   1.267
   47SOL    HW2  594   0.991   0.366   1.152
   48SOL     OW  595   1.051   0.702   0.427
   48SOL    HW1  596   1.070   0.693   0.520
   48SOL    HW2  597   0.968   0.656   0.415
   49SOL     OW  598   0.096   0.823   0.784
   49SOL    HW1  599   0.181   0.817   0.828
   49SOL    HW2  600   0.034   0.840   0.855
   50SOL     OW  601   0.119   1.865   1.580
   50SOL    HW1  602   0.115   1.839   1.672
   50SOL    HW2  603   0.046   1.819   1.538
   51SOL     OW  604   0.879   0.362   0.207
   51SOL    HW1  605   0.928   0.417   0.145
   51SOL    HW2  606   0.904   0.273   0.185
   52SOL     OW  607   1.702   0.571   1.829
   52SOL    HW1  608   1.667   0.645   1.780
   52SOL    HW2  609   1.738   0.513   1.762
   53SOL     OW  610   1.380   1.142   0.540
   53SOL    HW1  611   1.458   1.130   0.486
   53SOL    HW2  612   1.326   1.204   0.492
   54SOL     OW  613   0.538   0.208   0.899
   54SOL    HW1  614   0.559   0.225   0.990
   54SOL    HW2  615   0.537   0.295   0.858
   55SOL     OW  616   1.000   1.442   0.472
   55SOL    HW1  617   0.968   1.517   0.422
   55SOL    HW2  618   0.979   1.463   0.563
   56SOL     OW  619   0.357   1.814   0.862
   56SOL    HW1  620   0.399   1.728   0.872
   56SOL    HW2  621   0.428   1.877   0.879
   57SOL     OW  622   1.801   1.053   0.869
   57SOL    HW1  623   1.747   1.035   0.793
   57SOL    HW2  624   1.738   1.060   0.942
   58SOL     OW  625   1.227   1.539   1.513
   58SOL    HW1  626   1.215   1.466   1.574
   58SOL    HW2  627   1.162   1.525   1.445
   59SOL     OW  628   0.309   0.953   0.282
   59SOL    HW1  629   0.391   0.981   0.242
   59SOL    HW2  630   0.313   0.858   0.281
   60SOL     OW  631   1.482   0.744   0.721
   60SOL    HW1  632   1.473   0.704   0.808
   60SOL    HW2  633   1.558   0.801   0.728
   61SOL     OW  634   0.470   1.264   1.735
   61SOL    HW1  635   0.443   1.271   1.643
   61SOL    HW2  636   0.388   1.266   1.784
   62SOL     OW  637   1.108   1.780   0.226
   62SOL    HW1  638   1.046   1.731   0.279
   62SOL    HW2  639   1.151   1.715   0.171
   63SOL     OW  640   0.158   0.267   1.513
   63SOL    HW1  641   0.133   0.353   1.481
   63SOL    HW2  642   0.196   0.283   1.599
   64SOL     OW  643   1.628   1.373   0.090
   64SOL    HW1  644   1.585   1.458   0.078
   64SOL    HW2  645   1.563   1.310   0.060
   65SOL     OW  646   0.468   1.740   0.319
   65SOL    HW1  647   0.509   1.799   0.382
   65SOL    HW2  648   0.540   1.709   0.264
   66SOL     OW  649   1.424   0.145   0.425
   66SOL    HW1  650   1.406   0.106   0.339
   66SOL    HW2  651   1.519   0.137   0.435
   67SOL     OW  652   0.253   1.786   1.230
   67SOL    HW1  653   0.301   1.710   1.263
   67SOL    HW2  654   0.220   1.758   1.144
   68SOL     OW  655   0.938   1.700   0.897
   68SOL    HW1  656   1.016   1.649   0.920
   68SOL    HW2  657   0.896   1.649   0.828
   69SOL     OW  658   0.393   0.691   0.466
   69SOL    HW1  659   0.419   0.601   0.483
   69SOL    HW2  660   0.303   0.696   0.497
   70SOL     OW  661   1.524   0.233   1.723
   70SOL    HW1  662   1.524   0.254   1.816
   70SOL    HW2  663   1.444   0.182   1.710
   71SOL     OW  664   0.602   0.102   0.128
   71SOL    HW1  665   0.695   0.082   0.125
   71SOL    HW2  666   0.568   0.069   0.045
   72SOL     OW  667   0.768   0.271   1.755
   72SOL    HW1  668   0.837   0.205   1.755
   72SOL    HW2  669   0.733   0.269   1.844
   73SOL     OW  670   0.876   1.523   1.194
   73SOL    HW1  671   0.859   1.486   1.107
   73SOL    HW2  672   0.946   1.468   1.230
   74SOL     OW  673   1.340   0.590   1.428
   74SOL    HW1  674   1.368   0.562   1.515
   74SOL    HW2  675   1.375   0.679   1.419
   75SOL     OW  676   0.818   1.391   0.944
   75SOL    HW1  677   0.902   1.380   0.900
   75SOL    HW2  678   0.754   1.396   0.872
   76SOL     OW  679   0.926   0.521   0.898
   76SOL    HW1  680   0.907   0.522   0.804
   76SOL    HW2  681   0.960   0.433   0.915
   77SOL     OW  682   0.566   0.071   0.514
   77SOL    HW1  683   0.479   0.056   0.551
   77SOL    HW2  684   0.553   0.137   0.446
   78SOL     OW  685   1.423   1.197   0.027
   78SOL    HW1  686   1.452   1.126   0.084
   78SOL    HW2  687   1.341   1.226   0.066
   79SOL     OW  688   0.300   0.051   0.190
   79SOL    HW1  689   0.384   0.083   0.156
   79SOL    HW2  690   0.325   4.496   0.265
   80SOL     OW  691   0.957   0.227   0.447
   80SOL    HW1  692   0.910   0.288   0.390
   80SOL    HW2  693   1.046   0.261   0.450
   81SOL     OW  694   1.081   0.684   1.459
   81SOL    HW1  695   1.012   0.618   1.458
   81SOL    HW2  696   1.162   0.634   1.448
   82SOL     OW  697   1.221   1.571   0.795
   82SOL    HW1  698   1.237   1.636   0.726
   82SOL    HW2  699   1.290   1.587   0.859
   83SOL     OW  700   0.470   1.152   0.737
   83SOL    HW1  701   0.401   1.132   0.800
   83SOL    HW2  702   0.428   1.141   0.651
   84SOL     OW  703   1.267   1.793   0.609
   84SOL    HW1  704   1.314   1.855   0.553
   84SOL    HW2  705   1.199   1.846   0.652
   85SOL     OW  706   1.019   0.527   0.040
   85SOL    HW1  707   0.982   0.613   0.021
   85SOL    HW2  708   1.092   0.546   0.099
   86SOL     OW  709   0.092   0.510   1.412
   86SOL    HW1  710   0.148   0.516   1.335
   86SOL    HW2  711   0.056   0.598   1.422
   87SOL     OW  712   0.558   0.247   1.167
   87SOL    HW1  713   0.588   0.166   1.208
   87SOL    HW2  714   0.464   0.248   1.183
   88SOL     OW  715   0.859   0.513   0.632
   88SOL    HW1  716   0.827   0.543   0.547
   88SOL    HW2  717   0.820   0.426   0.643
   89SOL     OW  718   0.948   0.021   0.799
   89SOL    HW1  719   0.907   0.021   0.712
   89SOL    HW2  720   0.976   4.431   0.812
   90SOL     OW  721   1.439   1.161   0.857
   90SOL    HW1  722   1.368   1.096   0.856
   90SOL    HW2  723   1.463   1.171   0.764
   91SOL     OW  724   1.464   0.607   0.969
   91SOL    HW1  725   1.408   0.530   0.970
   91SOL    HW2  726   1.520   0.598   1.046
   92SOL     OW  727   1.850   0.811   0.377
   92SOL    HW1  728   1.901   0.761   0.440
   92SOL    HW2  729   1.822   0.746   0.313
   93SOL     OW  730   0.496   1.423   0.173
   93SOL    HW1  731   0.416   1.398   0.221
   93SOL    HW2  732   0.493   1.372   0.093
   94SOL     OW  733   1.673   1.265   0.644
   94SOL    HW1  734   1.768   1.267   0.658
   94SOL    HW2  735   1.644   1.353   0.665
   95SOL     OW  736   1.392   0.571   0.079
   95SOL    HW1  737   1.328   0.556   0.148
   95SOL    HW2  738   1.451   0.495   0.085
   96SOL     OW  739   0.521   0.263   0.326
   96SOL    HW1  740   0.556   0.203   0.259
   96SOL    HW2  741   0.507   0.345   0.279
   97SOL     OW  742   1.751   1.241   1.569
   97SOL    HW1  743   1.839   1.202   1.562
   97SOL    HW2  744   1.767   1.331   1.595
   98SOL     OW  745   1.056   1.354   1.332
   98SOL    HW1  746   0.981   1.323   1.383
   98SOL    HW2  747   1.132   1.312   1.374
   99SOL     OW  748   1.610   1.625   1.656
   99SOL    HW1  749   1.603   1.662   1.567
   99SOL    HW2  750   1.693   1.578   1.655
  100SOL     OW  751   1.132   1.207   1.104
  100SOL    HW1  752   1.072   1.244   1.168
  100SOL    HW2  753   1.102   1.240   1.019
  101SOL     OW  754   1.626   1.097   1.076
  101SOL    HW1  755   1.620   1.160   1.148
  101SOL    HW2  756   1.549   1.115   1.022
  102SOL     OW  757   0.898   0.137   1.384
  102SOL    HW1  758   0.921   0.090   1.304
  102SOL    HW2  759   0.982   0.156   1.426
  103SOL     OW  760   0.984   1.115   1.724
  103SOL    HW1  761   0.893   1.131   1.747
  103SOL    HW2  762   0.981   1.037   1.668
  104SOL     OW  763   0.712   1.059   0.376
  104SOL    HW1  764   0.699   1.041   0.469
  104SOL    HW2  765   0.786   1.005   0.350
  105SOL     OW  766   0.431   0.830   1.245
  105SOL    HW1  767   0.500   0.840   1.311
  105SOL    HW2  768   0.375   0.760   1.281
  106SOL     OW  769   1.268   0.374   1.276
  106SOL    HW1  770   1.301   0.453   1.319
  106SOL    HW2  771   1.179   0.396   1.249
  107SOL     OW  772   0.064   1.575   1.348
  107SOL    HW1  773   0.040   1.665   1.326
  107SOL    HW2  774   0.160   1.576   1.351
  108SOL     OW  775   0.338   1.123   0.500
  108SOL    HW1  776   0.343   1.198   0.441
  108SOL    HW2  777   0.332   1.047   0.442
  109SOL     OW  778   0.562   0.519   0.850
  109SOL    HW1  779   0.572   0.582   0.778
  109SOL    HW2  780   0.624   0.549   0.917
  110SOL     OW  781   1.246   1.346   0.398
  110SOL    HW1  782   1.302   1.419   0.425
  110SOL    HW2  783   1.159   1.370   0.429
  111SOL     OW  784   1.285   1.459   1.148
  111SOL    HW1  785   1.341   1.463   1.225
  111SOL    HW2  786   1.230   1.383   1.162
  112SOL     OW  787   1.583   0.627   0.478
  112SOL    HW1  788   1.531   0.663   0.550
  112SOL    HW2  789   1.613   0.704   0.429
  113SOL     OW  790   0.346   1.533   1.311
  113SOL    HW1  791   0.333   1.485   1.230
  113SOL    HW2  792   0.441   1.543   1.319
  114SOL     OW  793   0.494   0.755   1.677
  114SOL    HW1  794   0.520   0.795   1.593
  114SOL    HW2  795   0.553   0.681   1.688
  115SOL     OW  796   1.605   0.779   1.683
  115SOL    HW1  797   1.519   0.822   1.677
  115SOL    HW2  798   1.657   0.822   1.615
  116SOL     OW  799   0.998   0.088   1.713
  116SOL    HW1  800   1.041   0.166   1.677
  116SOL    HW2  801   1.021   0.018   1.653
  117SOL     OW  802   0.495   0.042   1.753
  117SOL    HW1  803   0.482   4.496   1.671
  117SOL    HW2  804   0.430   0.112   1.752
  118SOL     OW  805   0.590   0.876   1.025
  118SOL    HW1  806   0.624   0.965   1.027
  118SOL    HW2  807   0.535   0.868   1.102
  119SOL     OW  808   1.353   0.858   1.025
  119SOL    HW1  809   1.267   0.846   0.984
  119SOL    HW2  810   1.396   0.773   1.016
  120SOL     OW  811   1.195   0.532   0.263
  120SOL    HW1  812   1.205   0.454   0.318
  120SOL    HW2  813   1.154   0.597   0.320
  121SOL     OW  814   0.283   0.211   1.233
  121SOL    HW1  815   0.242   0.230   1.318
  121SOL    HW2  816   0.329   0.129   1.248
  122SOL     OW  817   0.026   1.312   1.288
  122SOL    HW1  818   0.068   1.264   1.358
  122SOL    HW2  819   0.036   1.404   1.312
  123SOL     OW  820   0.721   0.629   1.053
  123SOL    HW1  821   0.798   0.611   0.998
  123SOL    HW2  822   0.696   0.718   1.030
  124SOL     OW  823   1.737   0.959   1.856
  124SOL    HW1  824   1.691   0.895   1.801
  124SOL    HW2  825   1.677   0.975   1.928
  125SOL     OW  826   0.319   0.071   0.626
  125SOL    HW1  827   0.302   0.160   0.656
  125SOL    HW2  828   0.310   0.017   0.705
  126SOL     OW  829   1.625   0.384   0.355
  126SOL    HW1  830   1.647   0.316   0.419
  126SOL    HW2  831   1.598   0.459   0.408
  127SOL     OW  832   1.031   0.763   0.960
  127SOL    HW1  833   1.024   0.779   1.054
  127SOL    HW2  834   1.001   0.673   0.948
  128SOL     OW  835   0.982   1.567   1.719
  128SOL    HW1  836   0.967   1.610   1.636
  128SOL    HW2  837   1.025   1.484   1.696
  129SOL     OW  838   1.855   1.501   1.604
  129SOL    HW1  839   1.870   1.533   1.515
  129SOL    HW2  840   1.935   1.522   1.651
  130SOL     OW  841   0.347   0.935   1.817
  130SOL    HW1  842   0.417   0.968   1.874
  130SOL    HW2  843   0.388   0.867   1.765
  131SOL     OW  844   1.525   0.300   0.106
  131SOL    HW1  845   1.472   0.223   0.127
  131SOL    HW2  846   1.566   0.324   0.189
  132SOL     OW  847   1.285   0.818   0.032
  132SOL    HW1  848   1.329   0.734   0.041
  132SOL    HW2  849   1.322   0.856  11.052
  133SOL     OW  850   1.068   1.337   0.855
  133SOL    HW1  851   1.072   1.265   0.792
  133SOL    HW2  852   1.127   1.403   0.820
  134SOL     OW  853   0.320   0.813   0.943
  134SOL    HW1  854   0.414   0.831   0.944
  134SOL    HW2  855   0.313   0.722   0.970
  135SOL     OW  856   0.331   0.533   0.984
  135SOL    HW1  857   0.286   0.449   0.968
  135SOL    HW2  858   0.410   0.529   0.930
  136SOL     OW  859   1.137   0.371   1.701
  136SOL    HW1  860   1.085   0.434   1.751
  136SOL    HW2  861   1.221   0.415   1.687
  137SOL     OW  862   1.152   0.215   1.474
  137SOL    HW1  863   1.149   0.279   1.545
  137SOL    HW2  864   1.197   0.261   1.403
  138SOL     OW  865   4.499   1.324   0.207
  138SOL    HW1  866   4.406   1.343   0.198
  138SOL    HW2  867   0.002   1.232   0.233
  139SOL     OW  868   0.100   1.770   0.940
  139SOL    HW1  869   0.061   1.726   0.864
  139SOL    HW2  870   0.188   1.793   0.910
  140SOL     OW  871   0.494   1.574   0.907
  140SOL    HW1  872   0.562   1.637   0.931
  140SOL    HW2  873   0.538   1.513   0.849
  141SOL     OW  874   0.979   0.791   1.225
  141SOL    HW1  875   1.037   0.771   1.298
  141SOL    HW2  876   0.896   0.750   1.248
  142SOL     OW  877   0.030   0.565   1.105
  142SOL    HW1  878   0.112   0.531   1.068
  142SOL    HW2  879   0.004   0.500   1.170
  143SOL     OW  880   0.179   0.532   1.716
  143SOL    HW1  881   0.268   0.515   1.684
  143SOL    HW2  882   0.151   0.610   1.667
  144SOL     OW  883   1.379   0.936   1.657
  144SOL    HW1  884   1.401   1.029   1.654
  144SOL    HW2  885   1.375   0.909   1.565
  145SOL     OW  886   0.812   0.578   0.364
  145SOL    HW1  887   0.821   0.502   0.307
  145SOL    HW2  888   0.738   0.627   0.327
  146SOL     OW  889   1.638   0.601   1.182
  146SOL    HW1  890   1.628   0.543   1.258
  146SOL    HW2  891   1.726   0.583   1.149
  147SOL     OW  892   0.273   1.562   1.739
  147SOL    HW1  893   0.213   1.613   1.795
  147SOL    HW2  894   0.256   1.471   1.763
  148SOL     OW  895   0.695   0.462   1.263
  148SOL    HW1  896   0.650   0.384   1.231
  148SOL    HW2  897   0.697   0.521   1.188
  149SOL     OW  898   0.925   1.679   1.469
  149SOL    HW1  899   0.900   1.641   1.385
  149SOL    HW2  900   0.919   1.774   1.456
  150SOL     OW  901   0.475   0.481   0.174
  150SOL    HW1  902   0.531   0.555   0.199
  150SOL    HW2  903   0.391   0.522   0.153
  151SOL     OW  904   0.160   1.141   1.458
  151SOL    HW1  905   0.144   1.097   1.542
  151SOL    HW2  906   0.168   1.070   1.395
  152SOL     OW  907   1.323   1.044   1.221
  152SOL    HW1  908   1.345   0.981   1.153
  152SOL    HW2  909   1.255   1.099   1.182
  153SOL     OW  910   1.309   0.851   0.310
  153SOL    HW1  911   1.234   0.819   0.360
  153SOL    HW2  912   1.286   0.836   0.219
  154SOL     OW  913   1.765   1.740   1.147
  154SOL    HW1  914   1.829   1.768   1.082
  154SOL    HW2  915   1.748   1.648   1.126
  155SOL     OW  916   1.240   1.733   1.108
  155SOL    HW1  917   1.323   1.756   1.066
  155SOL    HW2  918   1.248   1.640   1.128
  156SOL     OW  919   0.068   1.185   1.051
  156SOL    HW1  920   0.057   1.215   1.141
  156SOL    HW2  921   0.037   1.257   0.997
  157SOL     OW  922   0.680   1.669   1.735
  157SOL    HW1  923   0.621   1.743   1.726
  157SOL    HW2  924   0.746   1.682   1.667
  158SOL     OW  925   0.877   0.067   0.125
  158SOL    HW1  926   0.964   0.095   0.096
  158SOL    HW2  927   0.894   0.007   0.197
  159SOL     OW  928   1.720   0.134   0.489
  159SOL    HW1  929   1.790   0.144   0.425
  159SOL    HW2  930   1.746   0.059   0.543
  160SOL     OW  931   1.391   1.568   0.489
  160SOL    HW1  932   1.451   1.601   0.422
  160SOL    HW2  933   1.342   1.645   0.517
  161SOL     OW  934   0.116   1.808   1.849
  161SOL    HW1  935   0.076   1.736   1.898
  161SOL    HW2  936   0.181   1.845   1.910
  162SOL     OW  937   1.280   0.929   0.674
  162SOL    HW1  938   1.352   0.867   0.679
  162SOL    HW2  939   1.313   1.001   0.619
  163SOL     OW  940   0.809   1.276   1.427
  163SOL    HW1  941   0.782   1.315   1.509
  163SOL    HW2  942   0.739   1.297   1.365
  164SOL     OW  943   0.674   1.623   0.170
  164SOL    HW1  944   0.693   1.629   0.076
  164SOL    HW2  945   0.617   1.547   0.178
  165SOL     OW  946   1.619   1.727   1.389
  165SOL    HW1  947   1.672   1.733   1.309
  165SOL    HW2  948   1.607   1.817   1.417
  166SOL     OW  949   1.839   0.152   0.965
  166SOL    HW1  950   1.868   0.072   0.920
  166SOL    HW2  951   1.753   0.170   0.928
  167SOL     OW  952   0.259   0.322   0.719
  167SOL    HW1  953   0.175   0.357   0.688
  167SOL    HW2  954   0.248   0.312   0.813
  168SOL     OW  955   1.224   1.600   0.055
  168SOL    HW1  956   1.211   1.507   0.074
  168SOL    HW2  957   1.159   1.619  11.087
  169SOL     OW  958   0.826   1.008   1.373
  169SOL    HW1  959   0.869   1.003   1.288
  169SOL    HW2  960   0.823   1.101   1.393
  170SOL     OW  961   0.913   0.905   0.280
  170SOL    HW1  962   0.978   0.946   0.223
  170SOL    HW2  963   0.963   0.843   0.333
  171SOL     OW  964   1.498   1.622   0.049
  171SOL    HW1  965   1.402   1.615   0.048
  171SOL    HW2  966   1.521   1.638  11.057
  172SOL     OW  967   0.372   1.309   1.491
  172SOL    HW1  968   0.355   1.388   1.439
  172SOL    HW2  969   0.298   1.252   1.473
  173SOL     OW  970   1.609   1.284   1.279
  173SOL    HW1  971   1.670   1.271   1.352
  173SOL    HW2  972   1.549   1.352   1.310
  174SOL     OW  973   1.056   1.109   0.707
  174SOL    HW1  974   0.985   1.058   0.747
  174SOL    HW2  975   1.121   1.043   0.681
  175SOL     OW  976   1.007   0.245   1.007
  175SOL    HW1  977   1.008   0.223   0.914
  175SOL    HW2  978   0.997   0.160   1.051
  176SOL     OW  979   0.604   1.489   0.482
  176SOL    HW1  980   0.646   1.439   0.412
  176SOL    HW2  981   0.529   1.531   0.439
  177SOL     OW  982   1.724   0.394   1.376
  177SOL    HW1  983   1.797   0.455   1.376
  177SOL    HW2  984   1.752   0.323   1.319
  178SOL     OW  985   0.266   1.325   0.284
  178SOL    HW1  986   0.178   1.333   0.246
  178SOL    HW2  987   0.259   1.367   0.370
  179SOL     OW  988   0.115   1.005   1.694
  179SOL    HW1  989   0.053   1.053   1.749
  179SOL    HW2  990   0.194   0.998   1.747
  180SOL     OW  991   0.658   0.212   1.500
  180SOL    HW1  992   0.737   0.185   1.453
  180SOL    HW2  993   0.688   0.228   1.589
  181SOL     OW  994   0.050   0.339   0.021
  181SOL    HW1  995   4.460   0.322   0.048
  181SOL    HW2  996   0.063   0.432   0.039
  182SOL     OW  997   1.427   0.858   1.398
  182SOL    HW1  998   1.378   0.919   1.343
  182SOL    HW2  999   1.516   0.860   1.363
  183SOL     OW 1000   0.081   0.178   0.289
  183SOL    HW1 1001   0.083   0.265   0.248
  183SOL    HW2 1002   0.161   0.135   0.259
  184SOL     OW 1003   1.185   1.336   0.123
  184SOL    HW1 1004   1.091   1.323   0.113
  184SOL    HW2 1005   1.201   1.328   0.217
  185SOL     OW 1006   0.626   0.829   1.434
  185SOL    HW1 1007   0.681   0.906   1.419
  185SOL    HW2 1008   0.688   0.757   1.440
  186SOL     OW 1009   1.485   1.780   0.982
  186SOL    HW1 1010   1.509   1.843   0.914
  186SOL    HW2 1011   1.568   1.761   1.027
  187SOL     OW 1012   0.710   0.564   1.706
  187SOL    HW1 1013   0.758   0.625   1.761
  187SOL    HW2 1014   0.738   0.477   1.735
  188SOL     OW 1015   1.473   1.196   1.630
  188SOL    HW1 1016   1.461   1.212   1.724
  188SOL    HW2 1017   1.566   1.215   1.615
  189SOL     OW 1018   0.376   1.746   1.565
  189SOL    HW1 1019   0.292   1.787   1.546
  189SOL    HW2 1020   0.353   1.667   1.614
  190SOL     OW 1021   1.667   0.880   1.255
  190SOL    HW1 1022   1.660   0.796   1.211
  190SOL    HW2 1023   1.657   0.945   1.184
  191SOL     OW 1024   1.218   0.329   0.447
  191SOL    HW1 1025   1.287   0.264   0.434
  191SOL    HW2 1026   1.245   0.377   0.526
  192SOL     OW 1027   0.582   0.735   0.674
  192SOL    HW1 1028   0.625   0.820   0.660
  192SOL    HW2 1029   0.517   0.730   0.603
  193SOL     OW 1030   1.758   0.370   1.644
  193SOL    HW1 1031   1.743   0.383   1.551
  193SOL    HW2 1032   1.681   0.322   1.674
  194SOL     OW 1033   1.747   0.933   1.511
  194SOL    HW1 1034   1.739   1.028   1.525
  194SOL    HW2 1035   1.730   0.921   1.418
  195SOL     OW 1036   0.911   1.355   0.076
  195SOL    HW1 1037   0.843   1.350   0.143
  195SOL    HW2 1038   0.890   1.435   0.027
  196SOL     OW 1039   0.662   1.788   0.942
  196SOL    HW1 1040   0.643   1.879   0.919
  196SOL    HW2 1041   0.757   1.781   0.934
  197SOL     OW 1042   0.869   0.969   0.853
  197SOL    HW1 1043   0.919   0.897   0.891
  197SOL    HW2 1044   0.832   1.015   0.929
  198SOL     OW 1045   1.077   0.988   0.083
  198SOL    HW1 1046   1.051   1.019  11.096
  198SOL    HW2 1047   1.153   0.932   0.067
  199SOL     OW 1048   1.851   1.554   0.844
  199SOL    HW1 1049   1.773   1.544   0.790
  199SOL    HW2 1050   1.837   1.495   0.918
  200SOL     OW 1051   0.233   1.304   1.860
  200SOL    HW1 1052   0.150   1.258   1.843
  200SOL    HW2 1053   0.234   1.315   1.955
  201SOL     OW 1054   0.112   1.221   0.669
  201SOL    HW1 1055   0.139   1.185   0.754
  201SOL    HW2 1056   0.178   1.189   0.607
  202SOL     OW 1057   0.685   1.406   1.631
  202SOL    HW1 1058   0.604   1.362   1.660
  202SOL    HW2 1059   0.679   1.494   1.668
  203SOL     OW 1060   1.805   0.178   1.238
  203SOL    HW1 1061   1.800   0.084   1.257
  203SOL    HW2 1062   1.822   0.182   1.144
  204SOL     OW 1063   0.440   0.431   0.532
  204SOL    HW1 1064   0.459   0.361   0.470
  204SOL    HW2 1065   0.382   0.391   0.597
  205SOL     OW 1066   1.703   1.482   1.086
  205SOL    HW1 1067   1.620   1.463   1.043
  205SOL    HW2 1068   1.709   1.416   1.156
  206SOL     OW 1069   0.306   0.505   1.249
  206SOL    HW1 1070   0.379   0.457   1.288
  206SOL    HW2 1071   0.332   0.518   1.158
  207SOL     OW 1072   0.829   1.578   0.677
  207SOL    HW1 1073   0.810   1.638   0.604
  207SOL    HW2 1074   0.754   1.519   0.679
  208SOL     OW 1075   1.431   0.217   1.116
  208SOL    HW1 1076   1.466   0.145   1.168
  208SOL    HW2 1077   1.381   0.270   1.178
  209SOL     OW 1078   0.995   0.004   1.154
  209SOL    HW1 1079   0.956   4.417   1.146
  209SOL    HW2 1080   1.089   4.487   1.163
  210SOL     OW 1081   0.771   1.327   0.320
  210SOL    HW1 1082   0.744   1.236   0.336
  210SOL    HW2 1083   0.853   1.336   0.368
  211SOL     OW 1084   0.621   1.555   1.287
  211SOL    HW1 1085   0.622   1.637   1.336
  211SOL    HW2 1086   0.708   1.549   1.249
  212SOL     OW 1087   1.358   0.057   0.169
  212SOL    HW1 1088   1.391   4.486   0.115
  212SOL    HW2 1089   1.272   0.026   0.199
  213SOL     OW 1090   1.316   0.464   0.673
  213SOL    HW1 1091   1.258   0.541   0.674
  213SOL    HW2 1092   1.302   0.423   0.759
  214SOL     OW 1093   1.586   0.198   0.869
  214SOL    HW1 1094   1.527   0.214   0.943
  214SOL    HW2 1095   1.588   0.281   0.822
  215SOL     OW 1096   0.037   1.054   0.286
  215SOL    HW1 1097   0.131   1.037   0.283
  215SOL    HW2 1098   0.010   1.027   0.374
  216SOL     OW 1099   0.888   1.657   0.346
  216SOL    HW1 1100   0.814   1.638   0.288
  216SOL    HW2 1101   0.858   1.730   0.401
  217SOL     OW 1102   0.244   0.629   1.987
  217SOL    HW1 1103   0.170   0.602   2.041
  217SOL    HW2 1104   0.213   0.618   1.897
  218SOL     OW 1105   0.192   0.295   2.850
  218SOL    HW1 1106   0.222   0.265   2.936
  218SOL    HW2 1107   0.131   0.227   2.820
  219SOL     OW 1108   0.000   0.390   2.498
  219SOL    HW1 1109   4.424   0.426   2.544
  219SOL    HW2 1110   4.466   0.316   2.448
  220SOL     OW 1111   0.569   1.293   3.042
  220SOL    HW1 1112   0.482   1.298   3.002
  220SOL    HW2 1113   0.584   1.381   3.077
  221SOL     OW 1114   1.566   1.513   2.571
  221SOL    HW1 1115   1.523   1.491   2.654
  221SOL    HW2 1116   1.495   1.517   2.507
  222SOL     OW 1117   1.139   0.697   2.557
  222SOL    HW1 1118   1.183   0.781   2.548
  222SOL    HW2 1119   1.087   0.705   2.637
  223SOL     OW 1120   1.773   0.604   2.088
  223SOL    HW1 1121   1.749   0.596   1.995
  223SOL    HW2 1122   1.737   0.525   2.128
  224SOL     OW 1123   0.749   1.139   2.906
  224SOL    HW1 1124   0.682   1.176   2.963
  224SOL    HW2 1125   0.788   1.215   2.862
  225SOL     OW 1126   0.869   0.767   3.683
  225SOL    HW1 1127   0.855   0.836   3.747
  225SOL    HW2 1128   0.893   0.813   3.602
  226SOL     OW 1129   0.684   1.000   2.508
  226SOL    HW1 1130   0.751   0.990   2.576
  226SOL    HW2 1131   0.616   1.053   2.549
  227SOL     OW 1132   0.713   1.149   3.679
  227SOL    HW1 1133   0.760   1.227   3.707
  227SOL    HW2 1134   0.632   1.182   3.640
  228SOL     OW 1135   0.334   1.419   2.930
  228SOL    HW1 1136   0.253   1.398   2.884
  228SOL    HW2 1137   0.384   1.473   2.869
  229SOL     OW 1138   1.460   1.501   3.219
  229SOL    HW1 1139   1.514   1.579   3.228
  229SOL    HW2 1140   1.394   1.509   3.289
  230SOL     OW 1141   0.443   0.393   3.346
  230SOL    HW1 1142   0.532   0.358   3.346
  230SOL    HW2 1143   0.389   0.321   3.379
  231SOL     OW 1144   1.608   0.443   2.601
  231SOL    HW1 1145   1.528   0.462   2.551
  231SOL    HW2 1146   1.622   0.520   2.655
  232SOL     OW 1147   0.246   1.691   2.337
  232SOL    HW1 1148   0.229   1.776   2.377
  232SOL    HW2 1149   0.318   1.707   2.276
  233SOL     OW 1150   1.137   1.342   3.556
  233SOL    HW1 1151   1.178   1.336   3.642
  233SOL    HW2 1152   1.085   1.262   3.549
  234SOL     OW 1153   0.254   1.426   2.387
  234SOL    HW1 1154   0.243   1.521   2.390
  234SOL    HW2 1155   0.193   1.392   2.453
  235SOL     OW 1156   0.251   1.083   2.747
  235SOL    HW1 1157   0.267   0.992   2.771
  235SOL    HW2 1158   0.190   1.115   2.813
  236SOL     OW 1159   0.609   1.792   3.291
  236SOL    HW1 1160   0.526   1.774   3.336
  236SOL    HW2 1161   0.630   1.882   3.316
  237SOL     OW 1162   0.573   0.991   2.004
  237SOL    HW1 1163   0.624   1.030   1.933
  237SOL    HW2 1164   0.618   1.020   2.084
  238SOL     OW 1165   1.577   0.118   3.328
  238SOL    HW1 1166   1.611   0.186   3.270
  238SOL    HW2 1167   1.568   0.162   3.413
  239SOL     OW 1168   0.136   0.645   2.435
  239SOL    HW1 1169   0.086   0.567   2.457
  239SOL    HW2 1170   0.109   0.710   2.500
  240SOL     OW 1171   1.846   1.759   2.192
  240SOL    HW1 1172   1.910   1.733   2.258
  240SOL    HW2 1173   1.868   1.850   2.172
  241SOL     OW 1174   0.032   1.604   2.010
  241SOL    HW1 1175   0.018   1.510   2.002
  241SOL    HW2 1176   0.038   1.620   2.104
  242SOL     OW 1177   1.690   0.920   2.505
  242SOL    HW1 1178   1.772   0.876   2.481
  242SOL    HW2 1179   1.667   0.971   2.428
  243SOL     OW 1180   1.648   1.105   2.291
  243SOL    HW1 1181   1.734   1.108   2.250
  243SOL    HW2 1182   1.654   1.168   2.363
  244SOL     OW 1183   0.101   0.769   3.433
  244SOL    HW1 1184   0.188   0.757   3.396
  244SOL    HW2 1185   0.099   0.860   3.463
  245SOL     OW 1186   0.615   1.388   2.599
  245SOL    HW1 1187   0.568   1.305   2.608
  245SOL    HW2 1188   0.599   1.415   2.508
  246SOL     OW 1189   1.287   1.237   3.284
  246SOL    HW1 1190   1.318   1.169   3.224
  246SOL    HW2 1191   1.346   1.232   3.359
  247SOL     OW 1192   0.825   0.017   2.419
  247SOL    HW1 1193   0.861   0.102   2.392
  247SOL    HW2 1194   0.731   0.026   2.405
  248SOL     OW 1195   0.177   0.940   3.140
  248SOL    HW1 1196   0.268   0.919   3.121
  248SOL    HW2 1197   0.132   0.931   3.056
  249SOL     OW 1198   1.531   0.996   2.062
  249SOL    HW1 1199   1.462   0.939   2.095
  249SOL    HW2 1200   1.573   1.030   2.141
  250SOL     OW 1201   1.184   1.809   3.486
  250SOL    HW1 1202   1.194   1.869   3.412
  250SOL    HW2 1203   1.202   1.723   3.450
  251SOL     OW 1204   0.317   0.260   3.627
  251SOL    HW1 1205   0.385   0.310   3.673
  251SOL    HW2 1206   0.240   0.268   3.683
  252SOL     OW 1207   1.467   1.419   2.811
  252SOL    HW1 1208   1.399   1.435   2.877
  252SOL    HW2 1209   1.453   1.328   2.785
  253SOL     OW 1210   1.657   1.745   2.439
  253SOL    HW1 1211   1.636   1.713   2.351
  253SOL    HW2 1212   1.634   1.672   2.497
  254SOL     OW 1213   0.594   0.722   2.130
  254SOL    HW1 1214   0.594   0.806   2.082
  254SOL    HW2 1215   0.528   0.733   2.198
  255SOL     OW 1216   1.293   0.370   2.794
  255SOL    HW1 1217   1.204   0.340   2.776
  255SOL    HW2 1218   1.328   0.306   2.855
  256SOL     OW 1219   1.580   1.673   2.172
  256SOL    HW1 1220   1.671   1.701   2.163
  256SOL    HW2 1221   1.551   1.655   2.082
  257SOL     OW 1222   0.798   0.618   3.316
  257SOL    HW1 1223   0.769   0.591   3.403
  257SOL    HW2 1224   0.758   0.554   3.256
  258SOL     OW 1225   1.388   0.481   3.538
  258SOL    HW1 1226   1.392   0.525   3.623
  258SOL    HW2 1227   1.455   0.413   3.543
  259SOL     OW 1228   0.952   0.886   3.447
  259SOL    HW1 1229   1.007   0.817   3.410
  259SOL    HW2 1230   0.905   0.923   3.371
  260SOL     OW 1231   0.999   0.418   3.095
  260SOL    HW1 1232   0.909   0.422   3.129
  260SOL    HW2 1233   0.991   0.364   3.016
  261SOL     OW 1234   1.051   0.698   2.288
  261SOL    HW1 1235   1.069   0.690   2.381
  261SOL    HW2 1236   0.968   0.653   2.275
  262SOL     OW 1237   0.094   0.827   2.647
  262SOL    HW1 1238   0.180   0.818   2.687
  262SOL    HW2 1239   0.034   0.837   2.721
  263SOL     OW 1240   0.119   1.865   3.442
  263SOL    HW1 1241   0.115   1.839   3.534
  263SOL    HW2 1242   0.046   1.819   3.400
  264SOL     OW 1243   0.854   0.371   2.047
  264SOL    HW1 1244   0.923   0.404   1.990
  264SOL    HW2 1245   0.869   0.276   2.050
  265SOL     OW 1246   1.701   0.571   3.691
  265SOL    HW1 1247   1.667   0.645   3.642
  265SOL    HW2 1248   1.738   0.513   3.624
  266SOL     OW 1249   1.380   1.143   2.402
  266SOL    HW1 1250   1.458   1.131   2.349
  266SOL    HW2 1251   1.326   1.205   2.352
  267SOL     OW 1252   0.539   0.208   2.762
  267SOL    HW1 1253   0.560   0.225   2.853
  267SOL    HW2 1254   0.534   0.295   2.721
  268SOL     OW 1255   1.002   1.443   2.332
  268SOL    HW1 1256   0.969   1.518   2.282
  268SOL    HW2 1257   0.981   1.463   2.423
  269SOL     OW 1258   0.358   1.814   2.723
  269SOL    HW1 1259   0.399   1.728   2.733
  269SOL    HW2 1260   0.428   1.877   2.741
  270SOL     OW 1261   1.800   1.054   2.731
  270SOL    HW1 1262   1.747   1.034   2.654
  270SOL    HW2 1263   1.737   1.061   2.803
  271SOL     OW 1264   1.227   1.539   3.375
  271SOL    HW1 1265   1.215   1.466   3.436
  271SOL    HW2 1266   1.162   1.525   3.307
  272SOL     OW 1267   0.313   0.952   2.120
  272SOL    HW1 1268   0.396   0.977   2.079
  272SOL    HW2 1269   0.300   0.861   2.096
  273SOL     OW 1270   1.482   0.746   2.584
  273SOL    HW1 1271   1.473   0.705   2.670
  273SOL    HW2 1272   1.559   0.802   2.592
  274SOL     OW 1273   0.470   1.264   3.597
  274SOL    HW1 1274   0.443   1.271   3.505
  274SOL    HW2 1275   0.388   1.266   3.646
  275SOL     OW 1276   1.123   1.778   2.092
  275SOL    HW1 1277   1.048   1.738   2.136
  275SOL    HW2 1278   1.147   1.715   2.024
  276SOL     OW 1279   0.159   0.266   3.375
  276SOL    HW1 1280   0.134   0.353   3.342
  276SOL    HW2 1281   0.196   0.283   3.461
  277SOL     OW 1282   1.628   1.382   1.952
  277SOL    HW1 1283   1.587   1.466   1.935
  277SOL    HW2 1284   1.560   1.317   1.931
  278SOL     OW 1285   0.469   1.741   2.176
  278SOL    HW1 1286   0.513   1.796   2.241
  278SOL    HW2 1287   0.540   1.705   2.123
  279SOL     OW 1288   1.426   0.145   2.281
  279SOL    HW1 1289   1.410   0.089   2.206
  279SOL    HW2 1290   1.519   0.133   2.300
  280SOL     OW 1291   0.253   1.786   3.092
  280SOL    HW1 1292   0.301   1.710   3.125
  280SOL    HW2 1293   0.219   1.758   3.007
  281SOL     OW 1294   0.938   1.700   2.759
  281SOL    HW1 1295   1.016   1.649   2.782
  281SOL    HW2 1296   0.896   1.649   2.690
  282SOL     OW 1297   0.396   0.690   2.333
  282SOL    HW1 1298   0.420   0.599   2.348
  282SOL    HW2 1299   0.304   0.695   2.359
  283SOL     OW 1300   1.524   0.233   3.585
  283SOL    HW1 1301   1.524   0.254   3.678
  283SOL    HW2 1302   1.444   0.182   3.572
  284SOL     OW 1303   0.628   0.119   1.981
  284SOL    HW1 1304   0.717   0.084   1.993
  284SOL    HW2 1305   0.598   0.080   1.900
  285SOL     OW 1306   0.768   0.271   3.617
  285SOL    HW1 1307   0.837   0.204   3.617
  285SOL    HW2 1308   0.733   0.269   3.706
  286SOL     OW 1309   0.876   1.523   3.056
  286SOL    HW1 1310   0.859   1.486   2.969
  286SOL    HW2 1311   0.946   1.468   3.092
  287SOL     OW 1312   1.340   0.590   3.290
  287SOL    HW1 1313   1.368   0.562   3.377
  287SOL    HW2 1314   1.374   0.679   3.281
  288SOL     OW 1315   0.817   1.392   2.806
  288SOL    HW1 1316   0.902   1.380   2.762
  288SOL    HW2 1317   0.754   1.396   2.734
  289SOL     OW 1318   0.925   0.523   2.759
  289SOL    HW1 1319   0.908   0.521   2.665
  289SOL    HW2 1320   0.957   0.435   2.780
  290SOL     OW 1321   0.566   0.071   2.369
  290SOL    HW1 1322   0.481   0.057   2.410
  290SOL    HW2 1323   0.550   0.138   2.302
  291SOL     OW 1324   1.428   1.199   1.902
  291SOL    HW1 1325   1.457   1.124   1.953
  291SOL    HW2 1326   1.343   1.222   1.939
  292SOL     OW 1327   0.306   0.070   2.054
  292SOL    HW1 1328   0.389   0.117   2.055
  292SOL    HW2 1329   0.319   4.498   2.116
  293SOL     OW 1330   0.958   0.240   2.326
  293SOL    HW1 1331   0.905   0.304   2.279
  293SOL    HW2 1332   1.048   0.274   2.320
  294SOL     OW 1333   1.081   0.684   3.321
  294SOL    HW1 1334   1.011   0.618   3.319
  294SOL    HW2 1335   1.162   0.634   3.310
  295SOL     OW 1336   1.222   1.571   2.656
  295SOL    HW1 1337   1.237   1.637   2.589
  295SOL    HW2 1338   1.290   1.587   2.721
  296SOL     OW 1339   0.468   1.152   2.595
  296SOL    HW1 1340   0.399   1.133   2.659
  296SOL    HW2 1341   0.426   1.137   2.510
  297SOL     OW 1342   1.267   1.793   2.472
  297SOL    HW1 1343   1.314   1.855   2.416
  297SOL    HW2 1344   1.199   1.845   2.515
  298SOL     OW 1345   1.027   0.543   1.882
  298SOL    HW1 1346   0.979   0.625   1.866
  298SOL    HW2 1347   1.086   0.563   1.955
  299SOL     OW 1348   0.092   0.510   3.274
  299SOL    HW1 1349   0.148   0.516   3.196
  299SOL    HW2 1350   0.055   0.597   3.284
  300SOL     OW 1351   0.558   0.248   3.030
  300SOL    HW1 1352   0.588   0.166   3.070
  300SOL    HW2 1353   0.463   0.249   3.045
  301SOL     OW 1354   0.864   0.505   2.491
  301SOL    HW1 1355   0.826   0.541   2.410
  301SOL    HW2 1356   0.817   0.422   2.504
  302SOL     OW 1357   0.952   0.015   2.661
  302SOL    HW1 1358   0.909   0.018   2.575
  302SOL    HW2 1359   0.970   4.422   2.674
  303SOL     OW 1360   1.438   1.161   2.719
  303SOL    HW1 1361   1.368   1.096   2.719
  303SOL    HW2 1362   1.461   1.170   2.626
  304SOL     OW 1363   1.464   0.607   2.831
  304SOL    HW1 1364   1.408   0.530   2.832
  304SOL    HW2 1365   1.520   0.598   2.908
  305SOL     OW 1366   1.843   0.814   2.246
  305SOL    HW1 1367   1.901   0.764   2.304
  305SOL    HW2 1368   1.817   0.751   2.179
  306SOL     OW 1369   0.492   1.421   2.018
  306SOL    HW1 1370   0.413   1.393   2.066
  306SOL    HW2 1371   0.480   1.385   1.930
  307SOL     OW 1372   1.674   1.265   2.504
  307SOL    HW1 1373   1.769   1.267   2.519
  307SOL    HW2 1374   1.645   1.353   2.527
  308SOL     OW 1375   1.395   0.573   1.931
  308SOL    HW1 1376   1.332   0.556   2.002
  308SOL    HW2 1377   1.480   0.557   1.971
  309SOL     OW 1378   0.518   0.263   2.180
  309SOL    HW1 1379   0.571   0.215   2.115
  309SOL    HW2 1380   0.502   0.348   2.138
  310SOL     OW 1381   1.751   1.241   3.431
  310SOL    HW1 1382   1.839   1.203   3.424
  310SOL    HW2 1383   1.767   1.331   3.458
  311SOL     OW 1384   1.056   1.354   3.195
  311SOL    HW1 1385   0.981   1.323   3.245
  311SOL    HW2 1386   1.132   1.312   3.236
  312SOL     OW 1387   1.610   1.626   3.518
  312SOL    HW1 1388   1.602   1.661   3.429
  312SOL    HW2 1389   1.693   1.578   3.517
  313SOL     OW 1390   1.132   1.207   2.966
  313SOL    HW1 1391   1.072   1.244   3.030
  313SOL    HW2 1392   1.101   1.240   2.881
  314SOL     OW 1393   1.626   1.097   2.938
  314SOL    HW1 1394   1.620   1.159   3.010
  314SOL    HW2 1395   1.548   1.114   2.885
  315SOL     OW 1396   0.898   0.137   3.246
  315SOL    HW1 1397   0.921   0.090   3.166
  315SOL    HW2 1398   0.982   0.155   3.288
  316SOL     OW 1399   0.984   1.115   3.586
  316SOL    HW1 1400   0.893   1.131   3.609
  316SOL    HW2 1401   0.981   1.037   3.530
  317SOL     OW 1402   0.709   1.062   2.234
  317SOL    HW1 1403   0.696   1.044   2.327
  317SOL    HW2 1404   0.784   1.008   2.209
  318SOL     OW 1405   0.431   0.830   3.107
  318SOL    HW1 1406   0.499   0.840   3.173
  318SOL    HW2 1407   0.375   0.759   3.141
  319SOL     OW 1408   1.268   0.374   3.137
  319SOL    HW1 1409   1.301   0.453   3.181
  319SOL    HW2 1410   1.179   0.396   3.111
  320SOL     OW 1411   0.064   1.575   3.210
  320SOL    HW1 1412   0.040   1.665   3.188
  320SOL    HW2 1413   0.160   1.576   3.213
  321SOL     OW 1414   0.338   1.112   2.355
  321SOL    HW1 1415   0.351   1.186   2.297
  321SOL    HW2 1416   0.338   1.035   2.298
  322SOL     OW 1417   0.563   0.519   2.712
  322SOL    HW1 1418   0.572   0.582   2.640
  322SOL    HW2 1419   0.624   0.550   2.779
  323SOL     OW 1420   1.248   1.349   2.252
  323SOL    HW1 1421   1.303   1.420   2.283
  323SOL    HW2 1422   1.160   1.370   2.285
  324SOL     OW 1423   1.285   1.459   3.010
  324SOL    HW1 1424   1.341   1.463   3.087
  324SOL    HW2 1425   1.230   1.382   3.024
  325SOL     OW 1426   1.579   0.622   2.341
  325SOL    HW1 1427   1.531   0.668   2.410
  325SOL    HW2 1428   1.623   0.692   2.292
  326SOL     OW 1429   0.346   1.533   3.174
  326SOL    HW1 1430   0.333   1.485   3.092
  326SOL    HW2 1431   0.441   1.543   3.182
  327SOL     OW 1432   0.494   0.756   3.539
  327SOL    HW1 1433   0.520   0.795   3.455
  327SOL    HW2 1434   0.553   0.681   3.550
  328SOL     OW 1435   1.605   0.779   3.545
  328SOL    HW1 1436   1.519   0.822   3.539
  328SOL    HW2 1437   1.657   0.821   3.478
  329SOL     OW 1438   0.998   0.088   3.575
  329SOL    HW1 1439   1.041   0.166   3.540
  329SOL    HW2 1440   1.021   0.018   3.515
  330SOL     OW 1441   0.495   0.042   3.616
  330SOL    HW1 1442   0.482   4.496   3.533
  330SOL    HW2 1443   0.430   0.112   3.615
  331SOL     OW 1444   0.590   0.876   2.887
  331SOL    HW1 1445   0.623   0.965   2.890
  331SOL    HW2 1446   0.535   0.868   2.964
  332SOL     OW 1447   1.352   0.858   2.887
  332SOL    HW1 1448   1.267   0.845   2.846
  332SOL    HW2 1449   1.396   0.773   2.878
  333SOL     OW 1450   1.199   0.536   2.120
  333SOL    HW1 1451   1.207   0.457   2.173
  333SOL    HW2 1452   1.157   0.600   2.178
  334SOL     OW 1453   0.283   0.211   3.096
  334SOL    HW1 1454   0.241   0.230   3.180
  334SOL    HW2 1455   0.329   0.129   3.109
  335SOL     OW 1456   0.026   1.312   3.150
  335SOL    HW1 1457   0.068   1.264   3.220
  335SOL    HW2 1458   0.036   1.404   3.174
  336SOL     OW 1459   0.721   0.629   2.915
  336SOL    HW1 1460   0.798   0.611   2.860
  336SOL    HW2 1461   0.695   0.718   2.892
  337SOL     OW 1462   1.737   0.958   3.718
  337SOL    HW1 1463   1.691   0.895   3.663
  337SOL    HW2 1464   1.677   0.975   3.790
  338SOL     OW 1465   0.324   0.072   2.490
  338SOL    HW1 1466   0.303   0.161   2.519
  338SOL    HW2 1467   0.311   0.018   2.569
  339SOL     OW 1468   1.621   0.383   2.219
  339SOL    HW1 1469   1.645   0.317   2.284
  339SOL    HW2 1470   1.596   0.460   2.270
  340SOL     OW 1471   1.032   0.764   2.822
  340SOL    HW1 1472   1.024   0.779   2.916
  340SOL    HW2 1473   1.001   0.674   2.810
  341SOL     OW 1474   0.982   1.566   3.581
  341SOL    HW1 1475   0.967   1.610   3.498
  341SOL    HW2 1476   1.025   1.484   3.558
  342SOL     OW 1477   1.855   1.502   3.466
  342SOL    HW1 1478   1.871   1.532   3.377
  342SOL    HW2 1479   1.936   1.522   3.513
  343SOL     OW 1480   0.347   0.935   3.680
  343SOL    HW1 1481   0.417   0.968   3.736
  343SOL    HW2 1482   0.388   0.867   3.627
  344SOL     OW 1483   1.528   0.262   1.990
  344SOL    HW1 1484   1.459   0.205   2.022
  344SOL    HW2 1485   1.560   0.308   2.067
  345SOL     OW 1486   1.288   0.826   1.890
  345SOL    HW1 1487   1.331   0.740   1.894
  345SOL    HW2 1488   1.320   0.865   1.809
  346SOL     OW 1489   1.068   1.337   2.717
  346SOL    HW1 1490   1.072   1.265   2.654
  346SOL    HW2 1491   1.127   1.403   2.682
  347SOL     OW 1492   0.320   0.813   2.805
  347SOL    HW1 1493   0.414   0.831   2.805
  347SOL    HW2 1494   0.312   0.721   2.832
  348SOL     OW 1495   0.331   0.532   2.846
  348SOL    HW1 1496   0.286   0.449   2.829
  348SOL    HW2 1497   0.410   0.528   2.792
  349SOL     OW 1498   1.137   0.371   3.563
  349SOL    HW1 1499   1.085   0.434   3.613
  349SOL    HW2 1500   1.221   0.415   3.549
  350SOL     OW 1501   1.152   0.215   3.336
  350SOL    HW1 1502   1.149   0.279   3.407
  350SOL    HW2 1503   1.197   0.261   3.265
  351SOL     OW 1504   4.491   1.320   2.071
  351SOL    HW1 1505   4.398   1.337   2.053
  351SOL    HW2 1506   4.494   1.227   2.092
  352SOL     OW 1507   0.101   1.770   2.802
  352SOL    HW1 1508   0.061   1.725   2.727
  352SOL    HW2 1509   0.189   1.793   2.772
  353SOL     OW 1510   0.494   1.574   2.769
  353SOL    HW1 1511   0.562   1.637   2.793
  353SOL    HW2 1512   0.538   1.512   2.711
  354SOL     OW 1513   0.979   0.792   3.087
  354SOL    HW1 1514   1.037   0.771   3.160
  354SOL    HW2 1515   0.896   0.750   3.110
  355SOL     OW 1516   0.032   0.566   2.970
  355SOL    HW1 1517   0.111   0.530   2.930
  355SOL    HW2 1518   0.002   0.498   3.030
  356SOL     OW 1519   0.179   0.532   3.578
  356SOL    HW1 1520   0.268   0.515   3.546
  356SOL    HW2 1521   0.151   0.610   3.529
  357SOL     OW 1522   1.379   0.936   3.519
  357SOL    HW1 1523   1.401   1.029   3.516
  357SOL    HW2 1524   1.375   0.909   3.427
  358SOL     OW 1525   0.811   0.576   2.221
  358SOL    HW1 1526   0.816   0.505   2.157
  358SOL    HW2 1527   0.739   0.631   2.192
  359SOL     OW 1528   1.638   0.601   3.044
  359SOL    HW1 1529   1.628   0.543   3.120
  359SOL    HW2 1530   1.726   0.583   3.011
  360SOL     OW 1531   0.273   1.562   3.601
  360SOL    HW1 1532   0.213   1.612   3.657
  360SOL    HW2 1533   0.256   1.471   3.625
  361SOL     OW 1534   0.695   0.462   3.126
  361SOL    HW1 1535   0.650   0.384   3.094
  361SOL    HW2 1536   0.697   0.522   3.051
  362SOL     OW 1537   0.924   1.679   3.332
  362SOL    HW1 1538   0.900   1.641   3.247
  362SOL    HW2 1539   0.918   1.774   3.318
  363SOL     OW 1540   0.472   0.491   2.041
  363SOL    HW1 1541   0.533   0.560   2.066
  363SOL    HW2 1542   0.389   0.536   2.025
  364SOL     OW 1543   0.160   1.141   3.320
  364SOL    HW1 1544   0.144   1.098   3.404
  364SOL    HW2 1545   0.168   1.070   3.257
  365SOL     OW 1546   1.323   1.044   3.083
  365SOL    HW1 1547   1.345   0.981   3.014
  365SOL    HW2 1548   1.255   1.099   3.044
  366SOL     OW 1549   1.315   0.856   2.166
  366SOL    HW1 1550   1.241   0.828   2.219
  366SOL    HW2 1551   1.286   0.844   2.076
  367SOL     OW 1552   1.768   1.736   3.011
  367SOL    HW1 1553   1.833   1.765   2.947
  367SOL    HW2 1554   1.751   1.645   2.986
  368SOL     OW 1555   1.240   1.732   2.970
  368SOL    HW1 1556   1.323   1.756   2.928
  368SOL    HW2 1557   1.248   1.639   2.990
  369SOL     OW 1558   0.068   1.185   2.913
  369SOL    HW1 1559   0.058   1.215   3.003
  369SOL    HW2 1560   0.035   1.257   2.860
  370SOL     OW 1561   0.680   1.669   3.597
  370SOL    HW1 1562   0.621   1.743   3.587
  370SOL    HW2 1563   0.746   1.681   3.529
  371SOL     OW 1564   1.720   0.129   2.349
  371SOL    HW1 1565   1.788   0.142   2.283
  371SOL    HW2 1566   1.753   0.059   2.404
  372SOL     OW 1567   1.392   1.568   2.350
  372SOL    HW1 1568   1.450   1.601   2.282
  372SOL    HW2 1569   1.341   1.644   2.379
  373SOL     OW 1570   0.116   1.808   3.712
  373SOL    HW1 1571   0.076   1.736   3.760
  373SOL    HW2 1572   0.180   1.845   3.772
  374SOL     OW 1573   1.279   0.929   2.534
  374SOL    HW1 1574   1.352   0.868   2.542
  374SOL    HW2 1575   1.313   1.001   2.481
  375SOL     OW 1576   0.809   1.276   3.289
  375SOL    HW1 1577   0.782   1.315   3.371
  375SOL    HW2 1578   0.739   1.296   3.227
  376SOL     OW 1579   0.672   1.623   2.017
  376SOL    HW1 1580   0.683   1.636   1.923
  376SOL    HW2 1581   0.617   1.546   2.024
  377SOL     OW 1582   1.620   1.725   3.251
  377SOL    HW1 1583   1.672   1.733   3.171
  377SOL    HW2 1584   1.605   1.815   3.279
  378SOL     OW 1585   1.839   0.152   2.827
  378SOL    HW1 1586   1.869   0.073   2.781
  378SOL    HW2 1587   1.752   0.170   2.790
  379SOL     OW 1588   0.259   0.323   2.580
  379SOL    HW1 1589   0.175   0.357   2.549
  379SOL    HW2 1590   0.246   0.312   2.675
  380SOL     OW 1591   1.208   1.604   1.894
  380SOL    HW1 1592   1.197   1.512   1.921
  380SOL    HW2 1593   1.143   1.617   1.826
  381SOL     OW 1594   0.826   1.007   3.236
  381SOL    HW1 1595   0.869   1.002   3.150
  381SOL    HW2 1596   0.823   1.101   3.255
  382SOL     OW 1597   0.915   0.910   2.152
  382SOL    HW1 1598   0.976   0.943   2.086
  382SOL    HW2 1599   0.964   0.842   2.198
  383SOL     OW 1600   1.490   1.627   1.905
  383SOL    HW1 1601   1.396   1.619   1.890
  383SOL    HW2 1602   1.528   1.632   1.817
  384SOL     OW 1603   0.372   1.309   3.353
  384SOL    HW1 1604   0.355   1.388   3.301
  384SOL    HW2 1605   0.298   1.252   3.335
  385SOL     OW 1606   1.609   1.284   3.141
  385SOL    HW1 1607   1.670   1.272   3.213
  385SOL    HW2 1608   1.549   1.352   3.172
  386SOL     OW 1609   1.057   1.109   2.570
  386SOL    HW1 1610   0.985   1.059   2.608
  386SOL    HW2 1611   1.121   1.043   2.543
  387SOL     OW 1612   1.001   0.247   2.874
  387SOL    HW1 1613   1.008   0.230   2.780
  387SOL    HW2 1614   0.993   0.160   2.913
  388SOL     OW 1615   0.606   1.488   2.344
  388SOL    HW1 1616   0.651   1.439   2.275
  388SOL    HW2 1617   0.529   1.524   2.300
  389SOL     OW 1618   1.724   0.394   3.238
  389SOL    HW1 1619   1.798   0.455   3.238
  389SOL    HW2 1620   1.752   0.323   3.181
  390SOL     OW 1621   0.252   1.343   2.136
  390SOL    HW1 1622   0.157   1.339   2.124
  390SOL    HW2 1623   0.263   1.375   2.226
  391SOL     OW 1624   0.115   1.005   3.556
  391SOL    HW1 1625   0.053   1.053   3.611
  391SOL    HW2 1626   0.194   0.999   3.609
  392SOL     OW 1627   0.658   0.211   3.362
  392SOL    HW1 1628   0.737   0.184   3.315
  392SOL    HW2 1629   0.688   0.228   3.451
  393SOL     OW 1630   0.074   0.320   1.887
  393SOL    HW1 1631   4.480   0.326   1.906
  393SOL    HW2 1632   0.097   0.408   1.856
  394SOL     OW 1633   1.427   0.858   3.260
  394SOL    HW1 1634   1.378   0.919   3.205
  394SOL    HW2 1635   1.516   0.860   3.225
  395SOL     OW 1636   0.086   0.187   2.164
  395SOL    HW1 1637   0.074   0.262   2.105
  395SOL    HW2 1638   0.167   0.146   2.133
  396SOL     OW 1639   1.178   1.337   1.979
  396SOL    HW1 1640   1.087   1.307   1.981
  396SOL    HW2 1641   1.205   1.337   2.071
  397SOL     OW 1642   0.626   0.829   3.296
  397SOL    HW1 1643   0.681   0.906   3.281
  397SOL    HW2 1644   0.688   0.757   3.302
  398SOL     OW 1645   1.483   1.780   2.844
  398SOL    HW1 1646   1.504   1.844   2.776
  398SOL    HW2 1647   1.567   1.763   2.887
  399SOL     OW 1648   0.710   0.564   3.568
  399SOL    HW1 1649   0.758   0.625   3.623
  399SOL    HW2 1650   0.738   0.477   3.597
  400SOL     OW 1651   1.473   1.197   3.492
  400SOL    HW1 1652   1.461   1.212   3.586
  400SOL    HW2 1653   1.566   1.215   3.477
  401SOL     OW 1654   0.376   1.746   3.427
  401SOL    HW1 1655   0.292   1.787   3.408
  401SOL    HW2 1656   0.353   1.667   3.477
  402SOL     OW 1657   1.667   0.880   3.117
  402SOL    HW1 1658   1.660   0.796   3.073
  402SOL    HW2 1659   1.657   0.944   3.046
  403SOL     OW 1660   1.220   0.333   2.308
  403SOL    HW1 1661   1.288   0.266   2.294
  403SOL    HW2 1662   1.249   0.381   2.386
  404SOL     OW 1663   0.585   0.735   2.535
  404SOL    HW1 1664   0.626   0.820   2.521
  404SOL    HW2 1665   0.519   0.728   2.465
  405SOL     OW 1666   1.758   0.370   3.506
  405SOL    HW1 1667   1.743   0.383   3.413
  405SOL    HW2 1668   1.681   0.322   3.536
  406SOL     OW 1669   1.747   0.933   3.374
  406SOL    HW1 1670   1.739   1.028   3.387
  406SOL    HW2 1671   1.730   0.921   3.280
  407SOL     OW 1672   0.864   1.366   1.901
  407SOL    HW1 1673   0.825   1.393   1.984
  407SOL    HW2 1674   0.880   1.447   1.853
  408SOL     OW 1675   0.662   1.788   2.804
  408SOL    HW1 1676   0.643   1.879   2.781
  408SOL    HW2 1677   0.757   1.780   2.796
  409SOL     OW 1678   0.869   0.970   2.715
  409SOL    HW1 1679   0.920   0.898   2.753
  409SOL    HW2 1680   0.832   1.015   2.791
  410SOL     OW 1681   1.078   0.988   1.951
  410SOL    HW1 1682   1.056   1.040   1.874
  410SOL    HW2 1683   1.152   0.934   1.924
  411SOL     OW 1684   1.850   1.549   2.702
  411SOL    HW1 1685   1.769   1.541   2.653
  411SOL    HW2 1686   1.838   1.492   2.778
  412SOL     OW 1687   0.233   1.304   3.722
  412SOL    HW1 1688   0.151   1.257   3.704
  412SOL    HW2 1689   0.234   1.315   3.817
  413SOL     OW 1690   0.116   1.229   2.530
  413SOL    HW1 1691   0.136   1.189   2.615
  413SOL    HW2 1692   0.174   1.184   2.468
  414SOL     OW 1693   0.684   1.406   3.492
  414SOL    HW1 1694   0.604   1.362   3.522
  414SOL    HW2 1695   0.679   1.494   3.530
  415SOL     OW 1696   1.804   0.178   3.100
  415SOL    HW1 1697   1.801   0.084   3.119
  415SOL    HW2 1698   1.822   0.182   3.006
  416SOL     OW 1699   0.444   0.429   2.396
  416SOL    HW1 1700   0.457   0.360   2.331
  416SOL    HW2 1701   0.382   0.391   2.459
  417SOL     OW 1702   1.704   1.480   2.947
  417SOL    HW1 1703   1.620   1.462   2.904
  417SOL    HW2 1704   1.710   1.415   3.017
  418SOL     OW 1705   0.308   0.506   3.112
  418SOL    HW1 1706   0.381   0.457   3.150
  418SOL    HW2 1707   0.332   0.518   3.020
  419SOL     OW 1708   0.830   1.578   2.538
  419SOL    HW1 1709   0.811   1.638   2.466
  419SOL    HW2 1710   0.755   1.519   2.540
  420SOL     OW 1711   1.431   0.217   2.978
  420SOL    HW1 1712   1.466   0.145   3.031
  420SOL    HW2 1713   1.380   0.270   3.040
  421SOL     OW 1714   0.995   0.002   3.016
  421SOL    HW1 1715   0.956   4.415   3.008
  421SOL    HW2 1716   1.089   4.486   3.024
  422SOL     OW 1717   0.773   1.333   2.180
  422SOL    HW1 1718   0.745   1.242   2.187
  422SOL    HW2 1719   0.855   1.337   2.230
  423SOL     OW 1720   0.621   1.555   3.149
  423SOL    HW1 1721   0.622   1.637   3.198
  423SOL    HW2 1722   0.709   1.549   3.111
  424SOL     OW 1723   1.338   0.051   2.021
  424SOL    HW1 1724   1.376   4.476   1.976
  424SOL    HW2 1725   1.262   0.016   2.066
  425SOL     OW 1726   1.315   0.465   2.534
  425SOL    HW1 1727   1.258   0.542   2.535
  425SOL    HW2 1728   1.304   0.426   2.621
  426SOL     OW 1729   1.585   0.198   2.731
  426SOL    HW1 1730   1.527   0.214   2.806
  426SOL    HW2 1731   1.587   0.282   2.684
  427SOL     OW 1732   0.040   1.049   2.153
  427SOL    HW1 1733   0.132   1.028   2.141
  427SOL    HW2 1734   0.021   1.025   2.243
  428SOL     OW 1735   0.888   1.657   2.201
  428SOL    HW1 1736   0.814   1.640   2.143
  428SOL    HW2 1737   0.859   1.730   2.256
  429SOL     OW 1738   0.244   0.629   3.848
  429SOL    HW1 1739   0.170   0.602   3.903
  429SOL    HW2 1740   0.213   0.617   3.759
  430SOL     OW 1741   0.191   0.295   4.712
  430SOL    HW1 1742   0.222   0.265   4.798
  430SOL    HW2 1743   0.131   0.227   4.682
  431SOL     OW 1744   0.000   0.390   4.360
  431SOL    HW1 1745   4.424   0.425   4.406
  431SOL    HW2 1746   4.466   0.316   4.310
  432SOL     OW 1747   0.569   1.293   4.904
  432SOL    HW1 1748   0.482   1.298   4.864
  432SOL    HW2 1749   0.584   1.381   4.938
  433SOL     OW 1750   1.562   1.518   4.432
  433SOL    HW1 1751   1.521   1.491   4.514
  433SOL    HW2 1752   1.490   1.517   4.368
  434SOL     OW 1753   1.139   0.697   4.419
  434SOL    HW1 1754   1.183   0.781   4.410
  434SOL    HW2 1755   1.087   0.705   4.499
  435SOL     OW 1756   1.773   0.603   3.950
  435SOL    HW1 1757   1.749   0.596   3.857
  435SOL    HW2 1758   1.737   0.525   3.990
  436SOL     OW 1759   0.750   1.139   4.768
  436SOL    HW1 1760   0.683   1.176   4.826
  436SOL    HW2 1761   0.788   1.215   4.724
  437SOL     OW 1762   0.869   0.767   5.545
  437SOL    HW1 1763   0.854   0.836   5.609
  437SOL    HW2 1764   0.893   0.812   5.464
  438SOL     OW 1765   0.684   1.000   4.370
  438SOL    HW1 1766   0.751   0.990   4.438
  438SOL    HW2 1767   0.616   1.053   4.411
  439SOL     OW 1768   0.713   1.149   5.541
  439SOL    HW1 1769   0.760   1.227   5.569
  439SOL    HW2 1770   0.632   1.182   5.502
  440SOL     OW 1771   0.334   1.419   4.792
  440SOL    HW1 1772   0.253   1.398   4.746
  440SOL    HW2 1773   0.383   1.473   4.731
  441SOL     OW 1774   1.458   1.500   5.083
  441SOL    HW1 1775   1.506   1.583   5.092
  441SOL    HW2 1776   1.390   1.504   5.151
  442SOL     OW 1777   0.443   0.393   5.208
  442SOL    HW1 1778   0.532   0.358   5.208
  442SOL    HW2 1779   0.389   0.321   5.241
  443SOL     OW 1780   1.608   0.443   4.463
  443SOL    HW1 1781   1.528   0.462   4.413
  443SOL    HW2 1782   1.622   0.521   4.516
  444SOL     OW 1783   0.246   1.691   4.199
  444SOL    HW1 1784   0.229   1.776   4.239
  444SOL    HW2 1785   0.318   1.707   4.138
  445SOL     OW 1786   1.137   1.342   5.418
  445SOL    HW1 1787   1.177   1.336   5.504
  445SOL    HW2 1788   1.085   1.262   5.410
  446SOL     OW 1789   0.255   1.426   4.250
  446SOL    HW1 1790   0.243   1.521   4.252
  446SOL    HW2 1791   0.194   1.392   4.315
  447SOL     OW 1792   0.251   1.083   4.609
  447SOL    HW1 1793   0.267   0.992   4.633
  447SOL    HW2 1794   0.190   1.115   4.675
  448SOL     OW 1795   0.610   1.791   5.155
  448SOL    HW1 1796   0.526   1.773   5.198
  448SOL    HW2 1797   0.630   1.882   5.179
  449SOL     OW 1798   0.573   0.991   3.866
  449SOL    HW1 1799   0.623   1.030   3.795
  449SOL    HW2 1800   0.618   1.020   3.946
  450SOL     OW 1801   1.577   0.118   5.190
  450SOL    HW1 1802   1.611   0.186   5.131
  450SOL    HW2 1803   1.568   0.162   5.275
  451SOL     OW 1804   0.136   0.645   4.297
  451SOL    HW1 1805   0.086   0.567   4.319
  451SOL    HW2 1806   0.109   0.710   4.362
  452SOL     OW 1807   1.842   1.757   4.054
  452SOL    HW1 1808   1.907   1.729   4.118
  452SOL    HW2 1809   1.864   1.849   4.037
  453SOL     OW 1810   0.032   1.604   3.872
  453SOL    HW1 1811   0.018   1.510   3.864
  453SOL    HW2 1812   0.038   1.620   3.966
  454SOL     OW 1813   1.689   0.919   4.366
  454SOL    HW1 1814   1.772   0.877   4.343
  454SOL    HW2 1815   1.667   0.971   4.290
  455SOL     OW 1816   1.649   1.107   4.155
  455SOL    HW1 1817   1.735   1.110   4.113
  455SOL    HW2 1818   1.654   1.170   4.227
  456SOL     OW 1819   0.101   0.769   5.295
  456SOL    HW1 1820   0.188   0.757   5.258
  456SOL    HW2 1821   0.099   0.860   5.325
  457SOL     OW 1822   0.615   1.388   4.461
  457SOL    HW1 1823   0.568   1.305   4.470
  457SOL    HW2 1824   0.599   1.415   4.370
  458SOL     OW 1825   1.287   1.237   5.146
  458SOL    HW1 1826   1.318   1.169   5.086
  458SOL    HW2 1827   1.346   1.231   5.221
  459SOL     OW 1828   0.825   0.018   4.281
  459SOL    HW1 1829   0.861   0.102   4.254
  459SOL    HW2 1830   0.731   0.026   4.267
  460SOL     OW 1831   0.177   0.940   5.002
  460SOL    HW1 1832   0.268   0.919   4.983
  460SOL    HW2 1833   0.132   0.931   4.918
  461SOL     OW 1834   1.532   0.996   3.925
  461SOL    HW1 1835   1.462   0.940   3.958
  461SOL    HW2 1836   1.574   1.031   4.003
  462SOL     OW 1837   1.187   1.810   5.349
  462SOL    HW1 1838   1.192   1.869   5.273
  462SOL    HW2 1839   1.202   1.723   5.312
  463SOL     OW 1840   0.317   0.260   5.489
  463SOL    HW1 1841   0.384   0.310   5.535
  463SOL    HW2 1842   0.240   0.268   5.545
  464SOL     OW 1843   1.467   1.422   4.673
  464SOL    HW1 1844   1.400   1.436   4.740
  464SOL    HW2 1845   1.456   1.330   4.648
  465SOL     OW 1846   1.655   1.746   4.300
  465SOL    HW1 1847   1.636   1.714   4.211
  465SOL    HW2 1848   1.633   1.673   4.357
  466SOL     OW 1849   0.595   0.722   3.992
  466SOL    HW1 1850   0.594   0.805   3.944
  466SOL    HW2 1851   0.528   0.733   4.060
  467SOL     OW 1852   1.293   0.371   4.656
  467SOL    HW1 1853   1.204   0.340   4.638
  467SOL    HW2 1854   1.328   0.306   4.717
  468SOL     OW 1855   1.578   1.672   4.033
  468SOL    HW1 1856   1.670   1.700   4.025
  468SOL    HW2 1857   1.551   1.655   3.943
  469SOL     OW 1858   0.798   0.618   5.178
  469SOL    HW1 1859   0.769   0.591   5.265
  469SOL    HW2 1860   0.759   0.554   5.118
  470SOL     OW 1861   1.388   0.481   5.400
  470SOL    HW1 1862   1.392   0.525   5.485
  470SOL    HW2 1863   1.455   0.413   5.405
  471SOL     OW 1864   0.952   0.886   5.309
  471SOL    HW1 1865   1.007   0.817   5.272
  471SOL    HW2 1866   0.905   0.922   5.234
  472SOL     OW 1867   0.998   0.418   4.957
  472SOL    HW1 1868   0.909   0.422   4.991
  472SOL    HW2 1869   0.992   0.364   4.878
  473SOL     OW 1870   1.051   0.698   4.149
  473SOL    HW1 1871   1.069   0.690   4.243
  473SOL    HW2 1872   0.968   0.653   4.137
  474SOL     OW 1873   0.093   0.827   4.509
  474SOL    HW1 1874   0.180   0.818   4.549
  474SOL    HW2 1875   0.034   0.837   4.584
  475SOL     OW 1876   0.119   1.865   5.304
  475SOL    HW1 1877   0.115   1.839   5.396
  475SOL    HW2 1878   0.046   1.819   5.262
  476SOL     OW 1879   0.854   0.371   3.909
  476SOL    HW1 1880   0.923   0.404   3.852
  476SOL    HW2 1881   0.869   0.276   3.911
  477SOL     OW 1882   1.702   0.571   5.553
  477SOL    HW1 1883   1.667   0.645   5.504
  477SOL    HW2 1884   1.738   0.513   5.486
  478SOL     OW 1885   1.379   1.142   4.263
  478SOL    HW1 1886   1.459   1.132   4.212
  478SOL    HW2 1887   1.326   1.204   4.213
  479SOL     OW 1888   0.539   0.208   4.624
  479SOL    HW1 1889   0.560   0.225   4.715
  479SOL    HW2 1890   0.534   0.294   4.583
  480SOL     OW 1891   1.002   1.443   4.194
  480SOL    HW1 1892   0.969   1.518   4.144
  480SOL    HW2 1893   0.981   1.464   4.285
  481SOL     OW 1894   0.358   1.814   4.585
  481SOL    HW1 1895   0.399   1.728   4.595
  481SOL    HW2 1896   0.428   1.877   4.603
  482SOL     OW 1897   1.801   1.052   4.593
  482SOL    HW1 1898   1.747   1.036   4.516
  482SOL    HW2 1899   1.739   1.060   4.665
  483SOL     OW 1900   1.227   1.539   5.237
  483SOL    HW1 1901   1.214   1.466   5.299
  483SOL    HW2 1902   1.161   1.525   5.169
  484SOL     OW 1903   0.313   0.952   3.982
  484SOL    HW1 1904   0.396   0.977   3.941
  484SOL    HW2 1905   0.300   0.861   3.958
  485SOL     OW 1906   1.482   0.745   4.446
  485SOL    HW1 1907   1.474   0.705   4.533
  485SOL    HW2 1908   1.559   0.802   4.453
  486SOL     OW 1909   0.470   1.264   5.459
  486SOL    HW1 1910   0.444   1.271   5.367
  486SOL    HW2 1911   0.388   1.266   5.508
  487SOL     OW 1912   1.123   1.778   3.953
  487SOL    HW1 1913   1.049   1.738   3.998
  487SOL    HW2 1914   1.147   1.716   3.885
  488SOL     OW 1915   0.159   0.267   5.236
  488SOL    HW1 1916   0.134   0.353   5.204
  488SOL    HW2 1917   0.196   0.283   5.323
  489SOL     OW 1918   1.629   1.381   3.814
  489SOL    HW1 1919   1.587   1.466   3.798
  489SOL    HW2 1920   1.561   1.317   3.793
  490SOL     OW 1921   0.469   1.742   4.038
  490SOL    HW1 1922   0.513   1.796   4.103
  490SOL    HW2 1923   0.540   1.705   3.985
  491SOL     OW 1924   1.426   0.145   4.143
  491SOL    HW1 1925   1.410   0.089   4.067
  491SOL    HW2 1926   1.519   0.134   4.162
  492SOL     OW 1927   0.253   1.786   4.953
  492SOL    HW1 1928   0.300   1.710   4.987
  492SOL    HW2 1929   0.219   1.758   4.869
  493SOL     OW 1930   0.939   1.699   4.621
  493SOL    HW1 1931   1.018   1.649   4.642
  493SOL    HW2 1932   0.896   1.649   4.552
  494SOL     OW 1933   0.396   0.690   4.195
  494SOL    HW1 1934   0.420   0.599   4.210
  494SOL    HW2 1935   0.304   0.695   4.221
  495SOL     OW 1936   1.524   0.233   5.447
  495SOL    HW1 1937   1.524   0.254   5.540
  495SOL    HW2 1938   1.444   0.182   5.434
  496SOL     OW 1939   0.628   0.119   3.843
  496SOL    HW1 1940   0.717   0.084   3.855
  496SOL    HW2 1941   0.598   0.080   3.762
  497SOL     OW 1942   0.769   0.271   5.479
  497SOL    HW1 1943   0.837   0.204   5.479
  497SOL    HW2 1944   0.732   0.268   5.568
  498SOL     OW 1945   0.877   1.523   4.918
  498SOL    HW1 1946   0.860   1.486   4.832
  498SOL    HW2 1947   0.946   1.468   4.955
  499SOL     OW 1948   1.340   0.590   5.152
  499SOL    HW1 1949   1.368   0.562   5.239
  499SOL    HW2 1950   1.375   0.679   5.143
  500SOL     OW 1951   0.817   1.392   4.668
  500SOL    HW1 1952   0.902   1.380   4.624
  500SOL    HW2 1953   0.754   1.396   4.596
  501SOL     OW 1954   0.925   0.523   4.621
  501SOL    HW1 1955   0.908   0.521   4.527
  501SOL    HW2 1956   0.957   0.435   4.642
  502SOL     OW 1957   0.566   0.071   4.231
  502SOL    HW1 1958   0.481   0.057   4.272
  502SOL    HW2 1959   0.550   0.138   4.164
  503SOL     OW 1960   1.428   1.199   3.764
  503SOL    HW1 1961   1.457   1.124   3.816
  503SOL    HW2 1962   1.343   1.222   3.801
  504SOL     OW 1963   0.306   0.069   3.916
  504SOL    HW1 1964   0.389   0.117   3.916
  504SOL    HW2 1965   0.319   4.498   3.978
  505SOL     OW 1966   0.958   0.240   4.188
  505SOL    HW1 1967   0.905   0.304   4.141
  505SOL    HW2 1968   1.048   0.274   4.182
  506SOL     OW 1969   1.081   0.683   5.183
  506SOL    HW1 1970   1.011   0.618   5.181
  506SOL    HW2 1971   1.162   0.633   5.171
  507SOL     OW 1972   1.220   1.572   4.519
  507SOL    HW1 1973   1.236   1.637   4.450
  507SOL    HW2 1974   1.292   1.585   4.581
  508SOL     OW 1975   0.468   1.152   4.457
  508SOL    HW1 1976   0.399   1.133   4.521
  508SOL    HW2 1977   0.427   1.137   4.372
  509SOL     OW 1978   1.266   1.792   4.333
  509SOL    HW1 1979   1.314   1.854   4.278
  509SOL    HW2 1980   1.200   1.846   4.377
  510SOL     OW 1981   1.027   0.543   3.744
  510SOL    HW1 1982   0.979   0.625   3.728
  510SOL    HW2 1983   1.086   0.563   3.817
  511SOL     OW 1984   0.093   0.510   5.136
  511SOL    HW1 1985   0.148   0.516   5.058
  511SOL    HW2 1986   0.054   0.597   5.145
  512SOL     OW 1987   0.558   0.248   4.892
  512SOL    HW1 1988   0.588   0.166   4.932
  512SOL    HW2 1989   0.463   0.249   4.907
  513SOL     OW 1990   0.864   0.505   4.353
  513SOL    HW1 1991   0.826   0.541   4.272
  513SOL    HW2 1992   0.817   0.422   4.366
  514SOL     OW 1993   0.952   0.014   4.523
  514SOL    HW1 1994   0.909   0.018   4.437
  514SOL    HW2 1995   0.970   4.421   4.536
  515SOL     OW 1996   1.440   1.162   4.582
  515SOL    HW1 1997   1.369   1.098   4.580
  515SOL    HW2 1998   1.466   1.172   4.490
  516SOL     OW 1999   1.464   0.608   4.693
  516SOL    HW1 2000   1.409   0.530   4.694
  516SOL    HW2 2001   1.520   0.598   4.770
  517SOL     OW 2002   1.843   0.814   4.108
  517SOL    HW1 2003   1.901   0.764   4.166
  517SOL    HW2 2004   1.817   0.751   4.040
  518SOL     OW 2005   0.492   1.421   3.880
  518SOL    HW1 2006   0.413   1.393   3.927
  518SOL    HW2 2007   0.480   1.385   3.792
  519SOL     OW 2008   1.674   1.268   4.369
  519SOL    HW1 2009   1.769   1.267   4.383
  519SOL    HW2 2010   1.648   1.357   4.392
  520SOL     OW 2011   1.395   0.573   3.793
  520SOL    HW1 2012   1.332   0.556   3.864
  520SOL    HW2 2013   1.480   0.557   3.833
  521SOL     OW 2014   0.518   0.263   4.042
  521SOL    HW1 2015   0.571   0.215   3.977
  521SOL    HW2 2016   0.502   0.348   4.000
  522SOL     OW 2017   1.749   1.241   5.295
  522SOL    HW1 2018   1.836   1.203   5.284
  522SOL    HW2 2019   1.765   1.331   5.321
  523SOL     OW 2020   1.056   1.355   5.058
  523SOL    HW1 2021   0.981   1.323   5.108
  523SOL    HW2 2022   1.132   1.312   5.099
  524SOL     OW 2023   1.604   1.621   5.386
  524SOL    HW1 2024   1.591   1.658   5.299
  524SOL    HW2 2025   1.688   1.576   5.380
  525SOL     OW 2026   1.133   1.209   4.828
  525SOL    HW1 2027   1.071   1.244   4.891
  525SOL    HW2 2028   1.102   1.240   4.743
  526SOL     OW 2029   1.625   1.096   4.800
  526SOL    HW1 2030   1.618   1.159   4.872
  526SOL    HW2 2031   1.549   1.115   4.744
  527SOL     OW 2032   0.898   0.136   5.108
  527SOL    HW1 2033   0.921   0.090   5.028
  527SOL    HW2 2034   0.982   0.155   5.150
  528SOL     OW 2035   0.984   1.115   5.448
  528SOL    HW1 2036   0.893   1.131   5.471
  528SOL    HW2 2037   0.981   1.037   5.392
  529SOL     OW 2038   0.709   1.062   4.096
  529SOL    HW1 2039   0.696   1.044   4.189
  529SOL    HW2 2040   0.784   1.009   4.071
  530SOL     OW 2041   0.431   0.829   4.969
  530SOL    HW1 2042   0.499   0.840   5.035
  530SOL    HW2 2043   0.375   0.759   5.002
  531SOL     OW 2044   1.268   0.374   4.999
  531SOL    HW1 2045   1.301   0.453   5.043
  531SOL    HW2 2046   1.179   0.396   4.973
  532SOL     OW 2047   0.064   1.575   5.072
  532SOL    HW1 2048   0.039   1.665   5.050
  532SOL    HW2 2049   0.160   1.577   5.075
  533SOL     OW 2050   0.338   1.112   4.217
  533SOL    HW1 2051   0.351   1.186   4.159
  533SOL    HW2 2052   0.338   1.035   4.160
  534SOL     OW 2053   0.563   0.519   4.574
  534SOL    HW1 2054   0.572   0.582   4.502
  534SOL    HW2 2055   0.624   0.550   4.641
  535SOL     OW 2056   1.247   1.349   4.113
  535SOL    HW1 2057   1.303   1.420   4.144
  535SOL    HW2 2058   1.160   1.370   4.147
  536SOL     OW 2059   1.285   1.460   4.871
  536SOL    HW1 2060   1.340   1.462   4.949
  536SOL    HW2 2061   1.230   1.382   4.882
  537SOL     OW 2062   1.579   0.622   4.203
  537SOL    HW1 2063   1.531   0.669   4.272
  537SOL    HW2 2064   1.624   0.692   4.155
  538SOL     OW 2065   0.346   1.533   5.036
  538SOL    HW1 2066   0.333   1.485   4.954
  538SOL    HW2 2067   0.441   1.543   5.043
  539SOL     OW 2068   0.494   0.757   5.401
  539SOL    HW1 2069   0.520   0.795   5.317
  539SOL    HW2 2070   0.552   0.681   5.412
  540SOL     OW 2071   1.604   0.779   5.408
  540SOL    HW1 2072   1.519   0.822   5.402
  540SOL    HW2 2073   1.657   0.821   5.340
  541SOL     OW 2074   0.998   0.088   5.437
  541SOL    HW1 2075   1.041   0.166   5.401
  541SOL    HW2 2076   1.022   0.018   5.377
  542SOL     OW 2077   0.495   0.042   5.478
  542SOL    HW1 2078   0.482   4.496   5.395
  542SOL    HW2 2079   0.430   0.112   5.477
  543SOL     OW 2080   0.590   0.876   4.749
  543SOL    HW1 2081   0.623   0.965   4.752
  543SOL    HW2 2082   0.535   0.868   4.826
  544SOL     OW 2083   1.352   0.858   4.750
  544SOL    HW1 2084   1.267   0.846   4.707
  544SOL    HW2 2085   1.396   0.773   4.740
  545SOL     OW 2086   1.199   0.536   3.982
  545SOL    HW1 2087   1.207   0.457   4.035
  545SOL    HW2 2088   1.157   0.599   4.040
  546SOL     OW 2089   0.283   0.212   4.958
  546SOL    HW1 2090   0.241   0.230   5.042
  546SOL    HW2 2091   0.329   0.129   4.971
  547SOL     OW 2092   0.026   1.312   5.012
  547SOL    HW1 2093   0.069   1.264   5.082
  547SOL    HW2 2094   0.037   1.404   5.036
  548SOL     OW 2095   0.721   0.629   4.777
  548SOL    HW1 2096   0.798   0.611   4.722
  548SOL    HW2 2097   0.695   0.718   4.754
  549SOL     OW 2098   1.737   0.958   5.580
  549SOL    HW1 2099   1.692   0.895   5.525
  549SOL    HW2 2100   1.677   0.975   5.652
  550SOL     OW 2101   0.324   0.072   4.352
  550SOL    HW1 2102   0.303   0.161   4.381
  550SOL    HW2 2103   0.311   0.018   4.431
  551SOL     OW 2104   1.621   0.383   4.081
  551SOL    HW1 2105   1.645   0.317   4.146
  551SOL    HW2 2106   1.596   0.460   4.132
  552SOL     OW 2107   1.032   0.764   4.684
  552SOL    HW1 2108   1.024   0.779   4.778
  552SOL    HW2 2109   1.001   0.674   4.672
  553SOL     OW 2110   0.983   1.568   5.443
  553SOL    HW1 2111   0.967   1.611   5.359
  553SOL    HW2 2112   1.025   1.485   5.420
  554SOL     OW 2113   1.848   1.507   5.322
  554SOL    HW1 2114   1.866   1.553   5.240
  554SOL    HW2 2115   1.929   1.514   5.372
  555SOL     OW 2116   0.347   0.935   5.542
  555SOL    HW1 2117   0.417   0.968   5.598
  555SOL    HW2 2118   0.388   0.867   5.489
  556SOL     OW 2119   1.529   0.262   3.852
  556SOL    HW1 2120   1.459   0.205   3.884
  556SOL    HW2 2121   1.560   0.308   3.929
  557SOL     OW 2122   1.288   0.826   3.752
  557SOL    HW1 2123   1.331   0.740   3.755
  557SOL    HW2 2124   1.320   0.865   3.671
  558SOL     OW 2125   1.067   1.337   4.580
  558SOL    HW1 2126   1.071   1.265   4.517
  558SOL    HW2 2127   1.126   1.403   4.544
  559SOL     OW 2128   0.319   0.813   4.667
  559SOL    HW1 2129   0.414   0.830   4.667
  559SOL    HW2 2130   0.312   0.721   4.694
  560SOL     OW 2131   0.331   0.532   4.708
  560SOL    HW1 2132   0.286   0.449   4.691
  560SOL    HW2 2133   0.410   0.528   4.654
  561SOL     OW 2134   1.137   0.371   5.425
  561SOL    HW1 2135   1.085   0.434   5.475
  561SOL    HW2 2136   1.221   0.415   5.411
  562SOL     OW 2137   1.152   0.215   5.198
  562SOL    HW1 2138   1.149   0.279   5.269
  562SOL    HW2 2139   1.196   0.261   5.127
  563SOL     OW 2140   4.491   1.320   3.933
  563SOL    HW1 2141   4.398   1.337   3.915
  563SOL    HW2 2142   4.494   1.227   3.954
  564SOL     OW 2143   0.101   1.770   4.664
  564SOL    HW1 2144   0.061   1.725   4.590
  564SOL    HW2 2145   0.189   1.793   4.634
  565SOL     OW 2146   0.494   1.574   4.631
  565SOL    HW1 2147   0.562   1.637   4.655
  565SOL    HW2 2148   0.538   1.512   4.573
  566SOL     OW 2149   0.979   0.792   4.949
  566SOL    HW1 2150   1.037   0.771   5.023
  566SOL    HW2 2151   0.896   0.750   4.971
  567SOL     OW 2152   0.032   0.566   4.833
  567SOL    HW1 2153   0.111   0.530   4.792
  567SOL    HW2 2154   0.002   0.498   4.891
  568SOL     OW 2155   0.179   0.532   5.440
  568SOL    HW1 2156   0.267   0.514   5.407
  568SOL    HW2 2157   0.151   0.610   5.391
  569SOL     OW 2158   1.379   0.936   5.381
  569SOL    HW1 2159   1.400   1.029   5.378
  569SOL    HW2 2160   1.375   0.909   5.290
  570SOL     OW 2161   0.811   0.576   4.084
  570SOL    HW1 2162   0.816   0.505   4.019
  570SOL    HW2 2163   0.739   0.631   4.054
  571SOL     OW 2164   1.638   0.601   4.907
  571SOL    HW1 2165   1.628   0.543   4.982
  571SOL    HW2 2166   1.726   0.583   4.873
  572SOL     OW 2167   0.274   1.562   5.464
  572SOL    HW1 2168   0.213   1.613   5.518
  572SOL    HW2 2169   0.256   1.471   5.487
  573SOL     OW 2170   0.696   0.462   4.988
  573SOL    HW1 2171   0.651   0.384   4.956
  573SOL    HW2 2172   0.697   0.521   4.913
  574SOL     OW 2173   0.926   1.679   5.193
  574SOL    HW1 2174   0.901   1.640   5.109
  574SOL    HW2 2175   0.917   1.774   5.179
  575SOL     OW 2176   0.472   0.491   3.903
  575SOL    HW1 2177   0.533   0.560   3.928
  575SOL    HW2 2178   0.389   0.536   3.887
  576SOL     OW 2179   0.161   1.141   5.182
  576SOL    HW1 2180   0.144   1.098   5.266
  576SOL    HW2 2181   0.168   1.070   5.119
  577SOL     OW 2182   1.323   1.045   4.945
  577SOL    HW1 2183   1.345   0.981   4.877
  577SOL    HW2 2184   1.255   1.100   4.906
  578SOL     OW 2185   1.315   0.856   4.028
  578SOL    HW1 2186   1.240   0.828   4.081
  578SOL    HW2 2187   1.287   0.844   3.938
  579SOL     OW 2188   1.242   1.735   4.836
  579SOL    HW1 2189   1.324   1.757   4.790
  579SOL    HW2 2190   1.249   1.641   4.854
  580SOL     OW 2191   0.068   1.185   4.775
  580SOL    HW1 2192   0.058   1.215   4.865
  580SOL    HW2 2193   0.035   1.257   4.722
  581SOL     OW 2194   0.679   1.669   5.459
  581SOL    HW1 2195   0.620   1.743   5.450
  581SOL    HW2 2196   0.745   1.682   5.390
  582SOL     OW 2197   1.720   0.129   4.211
  582SOL    HW1 2198   1.788   0.142   4.145
  582SOL    HW2 2199   1.753   0.058   4.266
  583SOL     OW 2200   1.389   1.567   4.210
  583SOL    HW1 2201   1.450   1.601   4.144
  583SOL    HW2 2202   1.341   1.645   4.239
  584SOL     OW 2203   0.117   1.808   5.573
  584SOL    HW1 2204   0.076   1.736   5.622
  584SOL    HW2 2205   0.181   1.845   5.634
  585SOL     OW 2206   1.279   0.929   4.397
  585SOL    HW1 2207   1.352   0.868   4.404
  585SOL    HW2 2208   1.313   1.001   4.343
  586SOL     OW 2209   0.809   1.276   5.151
  586SOL    HW1 2210   0.781   1.316   5.233
  586SOL    HW2 2211   0.739   1.296   5.089
  587SOL     OW 2212   0.672   1.623   3.879
  587SOL    HW1 2213   0.683   1.636   3.785
  587SOL    HW2 2214   0.617   1.546   3.886
  588SOL     OW 2215   1.617   1.729   5.130
  588SOL    HW1 2216   1.680   1.720   5.059
  588SOL    HW2 2217   1.642   1.810   5.174
  589SOL     OW 2218   1.839   0.152   4.689
  589SOL    HW1 2219   1.869   0.073   4.643
  589SOL    HW2 2220   1.753   0.170   4.652
  590SOL     OW 2221   0.259   0.323   4.442
  590SOL    HW1 2222   0.175   0.357   4.411
  590SOL    HW2 2223   0.246   0.312   4.537
  591SOL     OW 2224   1.208   1.604   3.756
  591SOL    HW1 2225   1.197   1.512   3.783
  591SOL    HW2 2226   1.143   1.617   3.688
  592SOL     OW 2227   0.826   1.007   5.098
  592SOL    HW1 2228   0.868   1.002   5.012
  592SOL    HW2 2229   0.823   1.101   5.117
  593SOL     OW 2230   0.915   0.910   4.014
  593SOL    HW1 2231   0.976   0.943   3.948
  593SOL    HW2 2232   0.964   0.842   4.060
  594SOL     OW 2233   1.490   1.627   3.767
  594SOL    HW1 2234   1.396   1.618   3.752
  594SOL    HW2 2235   1.528   1.632   3.679
  595SOL     OW 2236   0.373   1.310   5.215
  595SOL    HW1 2237   0.355   1.388   5.163
  595SOL    HW2 2238   0.299   1.252   5.197
  596SOL     OW 2239   1.611   1.284   5.003
  596SOL    HW1 2240   1.673   1.275   5.075
  596SOL    HW2 2241   1.549   1.350   5.033
  597SOL     OW 2242   1.057   1.109   4.432
  597SOL    HW1 2243   0.985   1.059   4.470
  597SOL    HW2 2244   1.121   1.043   4.405
  598SOL     OW 2245   1.001   0.247   4.736
  598SOL    HW1 2246   1.008   0.230   4.642
  598SOL    HW2 2247   0.993   0.160   4.775
  599SOL     OW 2248   0.606   1.488   4.206
  599SOL    HW1 2249   0.652   1.439   4.138
  599SOL    HW2 2250   0.529   1.524   4.162
  600SOL     OW 2251   1.724   0.394   5.100
  600SOL    HW1 2252   1.798   0.455   5.100
  600SOL    HW2 2253   1.752   0.323   5.043
  601SOL     OW 2254   0.252   1.343   3.998
  601SOL    HW1 2255   0.157   1.339   3.986
  601SOL    HW2 2256   0.263   1.375   4.088
  602SOL     OW 2257   0.115   1.005   5.418
  602SOL    HW1 2258   0.053   1.053   5.473
  602SOL    HW2 2259   0.194   0.999   5.471
  603SOL     OW 2260   0.658   0.211   5.224
  603SOL    HW1 2261   0.737   0.184   5.177
  603SOL    HW2 2262   0.688   0.228   5.313
  604SOL     OW 2263   0.074   0.320   3.749
  604SOL    HW1 2264   4.480   0.326   3.768
  604SOL    HW2 2265   0.097   0.408   3.718
  605SOL     OW 2266   1.427   0.858   5.122
  605SOL    HW1 2267   1.378   0.919   5.067
  605SOL    HW2 2268   1.516   0.860   5.087
  606SOL     OW 2269   0.086   0.187   4.026
  606SOL    HW1 2270   0.074   0.262   3.967
  606SOL    HW2 2271   0.167   0.146   3.995
  607SOL     OW 2272   1.178   1.337   3.841
  607SOL    HW1 2273   1.087   1.307   3.843
  607SOL    HW2 2274   1.205   1.337   3.933
  608SOL     OW 2275   0.626   0.829   5.158
  608SOL    HW1 2276   0.681   0.906   5.143
  608SOL    HW2 2277   0.688   0.756   5.163
  609SOL     OW 2278   1.481   1.786   4.705
  609SOL    HW1 2279   1.503   1.857   4.645
  609SOL    HW2 2280   1.562   1.736   4.714
  610SOL     OW 2281   0.710   0.563   5.430
  610SOL    HW1 2282   0.758   0.625   5.486
  610SOL    HW2 2283   0.738   0.477   5.459
  611SOL     OW 2284   1.473   1.197   5.355
  611SOL    HW1 2285   1.461   1.212   5.449
  611SOL    HW2 2286   1.566   1.214   5.339
  612SOL     OW 2287   0.376   1.746   5.289
  612SOL    HW1 2288   0.292   1.787   5.270
  612SOL    HW2 2289   0.353   1.667   5.338
  613SOL     OW 2290   1.666   0.880   4.979
  613SOL    HW1 2291   1.660   0.795   4.935
  613SOL    HW2 2292   1.656   0.944   4.908
  614SOL     OW 2293   1.220   0.333   4.170
  614SOL    HW1 2294   1.288   0.266   4.157
  614SOL    HW2 2295   1.249   0.381   4.248
  615SOL     OW 2296   0.584   0.735   4.397
  615SOL    HW1 2297   0.626   0.820   4.383
  615SOL    HW2 2298   0.519   0.728   4.328
  616SOL     OW 2299   1.758   0.370   5.369
  616SOL    HW1 2300   1.743   0.383   5.275
  616SOL    HW2 2301   1.681   0.322   5.398
  617SOL     OW 2302   1.747   0.932   5.235
  617SOL    HW1 2303   1.739   1.027   5.249
  617SOL    HW2 2304   1.730   0.920   5.142
  618SOL     OW 2305   0.864   1.366   3.763
  618SOL    HW1 2306   0.825   1.394   3.846
  618SOL    HW2 2307   0.880   1.447   3.715
  619SOL     OW 2308   0.663   1.788   4.666
  619SOL    HW1 2309   0.643   1.879   4.643
  619SOL    HW2 2310   0.758   1.781   4.658
  620SOL     OW 2311   0.869   0.970   4.577
  620SOL    HW1 2312   0.919   0.897   4.615
  620SOL    HW2 2313   0.832   1.015   4.653
  621SOL     OW 2314   1.078   0.988   3.813
  621SOL    HW1 2315   1.056   1.040   3.736
  621SOL    HW2 2316   1.152   0.934   3.786
  622SOL     OW 2317   1.860   1.522   4.553
  622SOL    HW1 2318   1.777   1.553   4.516
  622SOL    HW2 2319   1.847   1.525   4.648
  623SOL     OW 2320   0.233   1.304   5.584
  623SOL    HW1 2321   0.151   1.258   5.566
  623SOL    HW2 2322   0.233   1.315   5.679
  624SOL     OW 2323   0.116   1.229   4.392
  624SOL    HW1 2324   0.136   1.189   4.477
  624SOL    HW2 2325   0.174   1.184   4.330
  625SOL     OW 2326   0.685   1.406   5.355
  625SOL    HW1 2327   0.605   1.362   5.384
  625SOL    HW2 2328   0.679   1.494   5.392
  626SOL     OW 2329   1.804   0.178   4.962
  626SOL    HW1 2330   1.801   0.084   4.981
  626SOL    HW2 2331   1.822   0.182   4.868
  627SOL     OW 2332   0.444   0.429   4.259
  627SOL    HW1 2333   0.457   0.360   4.193
  627SOL    HW2 2334   0.382   0.391   4.321
  628SOL     OW 2335   1.700   1.503   4.820
  628SOL    HW1 2336   1.622   1.475   4.773
  628SOL    HW2 2337   1.715   1.435   4.886
  629SOL     OW 2338   0.308   0.507   4.974
  629SOL    HW1 2339   0.381   0.457   5.011
  629SOL    HW2 2340   0.332   0.518   4.882
  630SOL     OW 2341   0.830   1.578   4.400
  630SOL    HW1 2342   0.811   1.638   4.328
  630SOL    HW2 2343   0.754   1.519   4.402
  631SOL     OW 2344   1.430   0.217   4.840
  631SOL    HW1 2345   1.466   0.145   4.893
  631SOL    HW2 2346   1.380   0.270   4.902
  632SOL     OW 2347   0.995   0.002   4.878
  632SOL    HW1 2348   0.956   4.415   4.870
  632SOL    HW2 2349   1.089   4.486   4.886
  633SOL     OW 2350   0.773   1.334   4.042
  633SOL    HW1 2351   0.745   1.242   4.049
  633SOL    HW2 2352   0.855   1.337   4.092
  634SOL     OW 2353   0.621   1.555   5.011
  634SOL    HW1 2354   0.622   1.637   5.060
  634SOL    HW2 2355   0.708   1.549   4.973
  635SOL     OW 2356   1.338   0.051   3.883
  635SOL    HW1 2357   1.376   4.476   3.838
  635SOL    HW2 2358   1.262   0.016   3.928
  636SOL     OW 2359   1.315   0.465   4.396
  636SOL    HW1 2360   1.258   0.542   4.397
  636SOL    HW2 2361   1.304   0.426   4.483
  637SOL     OW 2362   1.585   0.199   4.593
  637SOL    HW1 2363   1.527   0.214   4.667
  637SOL    HW2 2364   1.587   0.282   4.546
  638SOL     OW 2365   0.040   1.050   4.015
  638SOL    HW1 2366   0.132   1.028   4.003
  638SOL    HW2 2367   0.021   1.025   4.105
  639SOL     OW 2368   0.888   1.657   4.064
  639SOL    HW1 2369   0.814   1.640   4.005
  639SOL    HW2 2370   0.859   1.730   4.118
  640SOL     OW 2371   0.244   0.629   5.710
  640SOL    HW1 2372   0.170   0.602   5.765
  640SOL    HW2 2373   0.213   0.617   5.621
  641SOL     OW 2374   0.192   0.295   6.574
  641SOL    HW1 2375   0.222   0.265   6.660
  641SOL    HW2 2376   0.132   0.227   6.544
  642SOL     OW 2377   0.000   0.390   6.222
  642SOL    HW1 2378   4.424   0.425   6.268
  642SOL    HW2 2379   4.466   0.316   6.171
  643SOL     OW 2380   0.569   1.293   6.766
  643SOL    HW1 2381   0.482   1.298   6.726
  643SOL    HW2 2382   0.584   1.381   6.801
  644SOL     OW 2383   1.558   1.506   6.298
  644SOL    HW1 2384   1.519   1.485   6.383
  644SOL    HW2 2385   1.484   1.510   6.238
  645SOL     OW 2386   1.139   0.697   6.281
  645SOL    HW1 2387   1.183   0.781   6.272
  645SOL    HW2 2388   1.087   0.705   6.361
  646SOL     OW 2389   1.772   0.603   5.812
  646SOL    HW1 2390   1.749   0.596   5.719
  646SOL    HW2 2391   1.737   0.524   5.852
  647SOL     OW 2392   0.750   1.139   6.630
  647SOL    HW1 2393   0.683   1.176   6.688
  647SOL    HW2 2394   0.788   1.215   6.586
  648SOL     OW 2395   0.869   0.767   7.407
  648SOL    HW1 2396   0.855   0.836   7.471
  648SOL    HW2 2397   0.893   0.813   7.327
  649SOL     OW 2398   0.684   1.000   6.232
  649SOL    HW1 2399   0.751   0.990   6.300
  649SOL    HW2 2400   0.616   1.053   6.273
  650SOL     OW 2401   0.713   1.149   7.403
  650SOL    HW1 2402   0.760   1.227   7.431
  650SOL    HW2 2403   0.632   1.182   7.364
  651SOL     OW 2404   0.334   1.419   6.654
  651SOL    HW1 2405   0.253   1.398   6.608
  651SOL    HW2 2406   0.384   1.473   6.593
  652SOL     OW 2407   1.460   1.501   6.944
  652SOL    HW1 2408   1.513   1.580   6.954
  652SOL    HW2 2409   1.393   1.509   7.012
  653SOL     OW 2410   0.443   0.393   7.070
  653SOL    HW1 2411   0.532   0.358   7.070
  653SOL    HW2 2412   0.389   0.321   7.103
  654SOL     OW 2413   1.608   0.443   6.325
  654SOL    HW1 2414   1.528   0.462   6.275
  654SOL    HW2 2415   1.621   0.520   6.379
  655SOL     OW 2416   0.246   1.691   6.061
  655SOL    HW1 2417   0.229   1.776   6.101
  655SOL    HW2 2418   0.318   1.707   6.000
  656SOL     OW 2419   1.137   1.342   7.280
  656SOL    HW1 2420   1.177   1.336   7.366
  656SOL    HW2 2421   1.085   1.262   7.273
  657SOL     OW 2422   0.255   1.426   6.112
  657SOL    HW1 2423   0.243   1.521   6.114
  657SOL    HW2 2424   0.193   1.392   6.178
  658SOL     OW 2425   0.251   1.083   6.471
  658SOL    HW1 2426   0.267   0.992   6.495
  658SOL    HW2 2427   0.190   1.115   6.537
  659SOL     OW 2428   0.609   1.791   7.016
  659SOL    HW1 2429   0.526   1.774   7.060
  659SOL    HW2 2430   0.631   1.881   7.040
  660SOL     OW 2431   0.573   0.991   5.729
  660SOL    HW1 2432   0.623   1.030   5.657
  660SOL    HW2 2433   0.618   1.020   5.808
  661SOL     OW 2434   1.577   0.118   7.052
  661SOL    HW1 2435   1.611   0.187   6.994
  661SOL    HW2 2436   1.568   0.162   7.137
  662SOL     OW 2437   0.136   0.646   6.159
  662SOL    HW1 2438   0.086   0.567   6.181
  662SOL    HW2 2439   0.109   0.710   6.224
  663SOL     OW 2440   0.032   1.604   5.734
  663SOL    HW1 2441   0.019   1.510   5.726
  663SOL    HW2 2442   0.037   1.620   5.828
  664SOL     OW 2443   1.692   0.921   6.230
  664SOL    HW1 2444   1.771   0.874   6.202
  664SOL    HW2 2445   1.666   0.972   6.152
  665SOL     OW 2446   1.647   1.105   6.015
  665SOL    HW1 2447   1.733   1.106   5.973
  665SOL    HW2 2448   1.654   1.168   6.086
  666SOL     OW 2449   0.101   0.769   7.158
  666SOL    HW1 2450   0.188   0.757   7.120
  666SOL    HW2 2451   0.099   0.860   7.187
  667SOL     OW 2452   0.615   1.388   6.323
  667SOL    HW1 2453   0.569   1.305   6.332
  667SOL    HW2 2454   0.599   1.415   6.232
  668SOL     OW 2455   1.287   1.237   7.008
  668SOL    HW1 2456   1.319   1.169   6.948
  668SOL    HW2 2457   1.346   1.231   7.083
  669SOL     OW 2458   0.825   0.018   6.143
  669SOL    HW1 2459   0.861   0.102   6.116
  669SOL    HW2 2460   0.731   0.026   6.129
  670SOL     OW 2461   0.177   0.940   6.864
  670SOL    HW1 2462   0.268   0.919   6.845
  670SOL    HW2 2463   0.132   0.931   6.780
  671SOL     OW 2464   1.531   0.995   5.786
  671SOL    HW1 2465   1.461   0.939   5.818
  671SOL    HW2 2466   1.573   1.030   5.864
  672SOL     OW 2467   1.185   1.810   7.210
  672SOL    HW1 2468   1.192   1.870   7.136
  672SOL    HW2 2469   1.203   1.724   7.173
  673SOL     OW 2470   0.317   0.260   7.351
  673SOL    HW1 2471   0.385   0.310   7.397
  673SOL    HW2 2472   0.240   0.268   7.407
  674SOL     OW 2473   1.467   1.416   6.539
  674SOL    HW1 2474   1.399   1.433   6.604
  674SOL    HW2 2475   1.453   1.325   6.512
  675SOL     OW 2476   1.667   1.697   6.137
  675SOL    HW1 2477   1.617   1.676   6.058
  675SOL    HW2 2478   1.634   1.637   6.204
  676SOL     OW 2479   0.595   0.722   5.854
  676SOL    HW1 2480   0.594   0.806   5.806
  676SOL    HW2 2481   0.528   0.733   5.922
  677SOL     OW 2482   1.293   0.371   6.518
  677SOL    HW1 2483   1.204   0.341   6.500
  677SOL    HW2 2484   1.328   0.306   6.579
  678SOL     OW 2485   1.564   1.665   5.882
  678SOL    HW1 2486   1.656   1.679   5.862
  678SOL    HW2 2487   1.523   1.650   5.796
  679SOL     OW 2488   0.798   0.618   7.040
  679SOL    HW1 2489   0.769   0.591   7.127
  679SOL    HW2 2490   0.759   0.554   6.980
  680SOL     OW 2491   1.388   0.481   7.262
  680SOL    HW1 2492   1.392   0.525   7.347
  680SOL    HW2 2493   1.454   0.413   7.267
  681SOL     OW 2494   0.952   0.887   7.171
  681SOL    HW1 2495   1.007   0.817   7.134
  681SOL    HW2 2496   0.905   0.923   7.096
  682SOL     OW 2497   0.999   0.418   6.819
  682SOL    HW1 2498   0.909   0.422   6.853
  682SOL    HW2 2499   0.991   0.364   6.740
  683SOL     OW 2500   1.051   0.698   6.011
  683SOL    HW1 2501   1.069   0.689   6.105
  683SOL    HW2 2502   0.968   0.653   5.999
  684SOL     OW 2503   0.094   0.827   6.371
  684SOL    HW1 2504   0.180   0.818   6.411
  684SOL    HW2 2505   0.034   0.837   6.446
  685SOL     OW 2506   0.120   1.864   7.166
  685SOL    HW1 2507   0.115   1.839   7.258
  685SOL    HW2 2508   0.046   1.819   7.124
  686SOL     OW 2509   0.855   0.371   5.772
  686SOL    HW1 2510   0.923   0.404   5.714
  686SOL    HW2 2511   0.869   0.276   5.774
  687SOL     OW 2512   1.702   0.571   7.415
  687SOL    HW1 2513   1.667   0.645   7.366
  687SOL    HW2 2514   1.738   0.513   7.348
  688SOL     OW 2515   1.380   1.143   6.127
  688SOL    HW1 2516   1.459   1.131   6.073
  688SOL    HW2 2517   1.326   1.204   6.077
  689SOL     OW 2518   0.539   0.208   6.486
  689SOL    HW1 2519   0.560   0.225   6.577
  689SOL    HW2 2520   0.534   0.294   6.445
  690SOL     OW 2521   1.002   1.444   6.056
  690SOL    HW1 2522   0.969   1.518   6.006
  690SOL    HW2 2523   0.979   1.464   6.147
  691SOL     OW 2524   0.357   1.814   6.447
  691SOL    HW1 2525   0.399   1.729   6.457
  691SOL    HW2 2526   0.427   1.877   6.465
  692SOL     OW 2527   1.801   1.057   6.453
  692SOL    HW1 2528   1.748   1.034   6.376
  692SOL    HW2 2529   1.738   1.063   6.525
  693SOL     OW 2530   1.228   1.539   7.099
  693SOL    HW1 2531   1.215   1.467   7.160
  693SOL    HW2 2532   1.161   1.526   7.032
  694SOL     OW 2533   0.313   0.952   5.844
  694SOL    HW1 2534   0.396   0.977   5.803
  694SOL    HW2 2535   0.300   0.861   5.820
  695SOL     OW 2536   1.482   0.746   6.308
  695SOL    HW1 2537   1.473   0.704   6.394
  695SOL    HW2 2538   1.559   0.802   6.317
  696SOL     OW 2539   0.470   1.264   7.321
  696SOL    HW1 2540   0.444   1.271   7.229
  696SOL    HW2 2541   0.388   1.266   7.370
  697SOL     OW 2542   1.120   1.774   5.817
  697SOL    HW1 2543   1.044   1.734   5.860
  697SOL    HW2 2544   1.143   1.712   5.748
  698SOL     OW 2545   0.159   0.266   7.099
  698SOL    HW1 2546   0.134   0.353   7.066
  698SOL    HW2 2547   0.196   0.283   7.185
  699SOL     OW 2548   1.631   1.383   5.675
  699SOL    HW1 2549   1.586   1.466   5.657
  699SOL    HW2 2550   1.566   1.316   5.656
  700SOL     OW 2551   0.469   1.741   5.900
  700SOL    HW1 2552   0.513   1.796   5.965
  700SOL    HW2 2553   0.540   1.705   5.847
  701SOL     OW 2554   1.426   0.145   6.005
  701SOL    HW1 2555   1.409   0.089   5.930
  701SOL    HW2 2556   1.519   0.133   6.024
  702SOL     OW 2557   0.253   1.786   6.816
  702SOL    HW1 2558   0.300   1.710   6.849
  702SOL    HW2 2559   0.219   1.758   6.731
  703SOL     OW 2560   0.937   1.700   6.483
  703SOL    HW1 2561   1.014   1.648   6.508
  703SOL    HW2 2562   0.896   1.649   6.414
  704SOL     OW 2563   0.396   0.690   6.057
  704SOL    HW1 2564   0.420   0.599   6.072
  704SOL    HW2 2565   0.304   0.695   6.083
  705SOL     OW 2566   1.524   0.233   7.309
  705SOL    HW1 2567   1.524   0.254   7.402
  705SOL    HW2 2568   1.444   0.182   7.296
  706SOL     OW 2569   0.629   0.120   5.705
  706SOL    HW1 2570   0.717   0.084   5.717
  706SOL    HW2 2571   0.598   0.080   5.624
  707SOL     OW 2572   0.768   0.271   7.341
  707SOL    HW1 2573   0.837   0.204   7.341
  707SOL    HW2 2574   0.732   0.268   7.430
  708SOL     OW 2575   0.877   1.523   6.779
  708SOL    HW1 2576   0.859   1.485   6.693
  708SOL    HW2 2577   0.946   1.468   6.816
  709SOL     OW 2578   1.340   0.590   7.014
  709SOL    HW1 2579   1.368   0.562   7.101
  709SOL    HW2 2580   1.374   0.679   7.005
  710SOL     OW 2581   0.818   1.392   6.530
  710SOL    HW1 2582   0.902   1.380   6.485
  710SOL    HW2 2583   0.754   1.396   6.458
  711SOL     OW 2584   0.925   0.523   6.483
  711SOL    HW1 2585   0.908   0.521   6.389
  711SOL    HW2 2586   0.957   0.435   6.504
  712SOL     OW 2587   0.566   0.072   6.093
  712SOL    HW1 2588   0.481   0.057   6.134
  712SOL    HW2 2589   0.550   0.138   6.026
  713SOL     OW 2590   1.430   1.200   5.627
  713SOL    HW1 2591   1.459   1.124   5.677
  713SOL    HW2 2592   1.344   1.222   5.663
  714SOL     OW 2593   0.305   0.070   5.778
  714SOL    HW1 2594   0.389   0.117   5.778
  714SOL    HW2 2595   0.319   4.498   5.840
  715SOL     OW 2596   0.958   0.240   6.050
  715SOL    HW1 2597   0.905   0.304   6.003
  715SOL    HW2 2598   1.047   0.274   6.044
  716SOL     OW 2599   1.081   0.684   7.045
  716SOL    HW1 2600   1.011   0.618   7.043
  716SOL    HW2 2601   1.161   0.633   7.034
  717SOL     OW 2602   1.224   1.569   6.380
  717SOL    HW1 2603   1.237   1.637   6.313
  717SOL    HW2 2604   1.289   1.589   6.448
  718SOL     OW 2605   0.468   1.152   6.319
  718SOL    HW1 2606   0.399   1.133   6.383
  718SOL    HW2 2607   0.427   1.137   6.234
  719SOL     OW 2608   1.266   1.795   6.196
  719SOL    HW1 2609   1.307   1.858   6.138
  719SOL    HW2 2610   1.196   1.845   6.239
  720SOL     OW 2611   1.027   0.543   5.606
  720SOL    HW1 2612   0.979   0.625   5.590
  720SOL    HW2 2613   1.086   0.563   5.679
  721SOL     OW 2614   0.093   0.510   6.998
  721SOL    HW1 2615   0.148   0.516   6.920
  721SOL    HW2 2616   0.054   0.597   7.008
  722SOL     OW 2617   0.558   0.248   6.754
  722SOL    HW1 2618   0.588   0.166   6.794
  722SOL    HW2 2619   0.463   0.249   6.769
  723SOL     OW 2620   0.864   0.505   6.215
  723SOL    HW1 2621   0.826   0.541   6.134
  723SOL    HW2 2622   0.817   0.422   6.228
  724SOL     OW 2623   0.953   0.015   6.384
  724SOL    HW1 2624   0.909   0.018   6.299
  724SOL    HW2 2625   0.970   4.422   6.398
  725SOL     OW 2626   1.437   1.160   6.442
  725SOL    HW1 2627   1.367   1.095   6.444
  725SOL    HW2 2628   1.459   1.170   6.349
  726SOL     OW 2629   1.464   0.607   6.555
  726SOL    HW1 2630   1.408   0.530   6.556
  726SOL    HW2 2631   1.520   0.598   6.632
  727SOL     OW 2632   1.842   0.812   5.972
  727SOL    HW1 2633   1.900   0.761   6.029
  727SOL    HW2 2634   1.816   0.750   5.904
  728SOL     OW 2635   0.492   1.421   5.742
  728SOL    HW1 2636   0.413   1.393   5.790
  728SOL    HW2 2637   0.480   1.385   5.654
  729SOL     OW 2638   1.677   1.266   6.226
  729SOL    HW1 2639   1.771   1.272   6.242
  729SOL    HW2 2640   1.643   1.352   6.252
  730SOL     OW 2641   1.395   0.573   5.655
  730SOL    HW1 2642   1.332   0.556   5.726
  730SOL    HW2 2643   1.480   0.556   5.695
  731SOL     OW 2644   0.519   0.263   5.903
  731SOL    HW1 2645   0.571   0.216   5.839
  731SOL    HW2 2646   0.502   0.348   5.862
  732SOL     OW 2647   1.751   1.241   7.154
  732SOL    HW1 2648   1.838   1.202   7.148
  732SOL    HW2 2649   1.766   1.331   7.182
  733SOL     OW 2650   1.056   1.353   6.919
  733SOL    HW1 2651   0.981   1.323   6.969
  733SOL    HW2 2652   1.132   1.312   6.960
  734SOL     OW 2653   1.609   1.626   7.242
  734SOL    HW1 2654   1.602   1.661   7.154
  734SOL    HW2 2655   1.692   1.577   7.242
  735SOL     OW 2656   1.133   1.207   6.690
  735SOL    HW1 2657   1.072   1.244   6.754
  735SOL    HW2 2658   1.101   1.240   6.605
  736SOL     OW 2659   1.627   1.097   6.662
  736SOL    HW1 2660   1.621   1.160   6.734
  736SOL    HW2 2661   1.549   1.114   6.609
  737SOL     OW 2662   0.898   0.137   6.970
  737SOL    HW1 2663   0.921   0.090   6.890
  737SOL    HW2 2664   0.982   0.155   7.012
  738SOL     OW 2665   0.984   1.115   7.310
  738SOL    HW1 2666   0.893   1.131   7.333
  738SOL    HW2 2667   0.981   1.037   7.254
  739SOL     OW 2668   0.709   1.063   5.958
  739SOL    HW1 2669   0.696   1.044   6.051
  739SOL    HW2 2670   0.784   1.009   5.933
  740SOL     OW 2671   0.431   0.829   6.831
  740SOL    HW1 2672   0.499   0.840   6.897
  740SOL    HW2 2673   0.375   0.759   6.865
  741SOL     OW 2674   1.268   0.374   6.861
  741SOL    HW1 2675   1.301   0.453   6.905
  741SOL    HW2 2676   1.179   0.396   6.835
  742SOL     OW 2677   0.064   1.575   6.934
  742SOL    HW1 2678   0.040   1.665   6.912
  742SOL    HW2 2679   0.160   1.577   6.937
  743SOL     OW 2680   0.339   1.112   6.079
  743SOL    HW1 2681   0.351   1.186   6.020
  743SOL    HW2 2682   0.338   1.035   6.022
  744SOL     OW 2683   0.563   0.519   6.436
  744SOL    HW1 2684   0.572   0.582   6.364
  744SOL    HW2 2685   0.624   0.550   6.503
  745SOL     OW 2686   1.247   1.348   5.976
  745SOL    HW1 2687   1.302   1.419   6.009
  745SOL    HW2 2688   1.159   1.369   6.009
  746SOL     OW 2689   1.284   1.459   6.735
  746SOL    HW1 2690   1.340   1.463   6.812
  746SOL    HW2 2691   1.229   1.382   6.749
  747SOL     OW 2692   1.579   0.622   6.066
  747SOL    HW1 2693   1.531   0.668   6.134
  747SOL    HW2 2694   1.623   0.691   6.016
  748SOL     OW 2695   0.346   1.533   6.898
  748SOL    HW1 2696   0.333   1.485   6.816
  748SOL    HW2 2697   0.441   1.543   6.905
  749SOL     OW 2698   0.494   0.756   7.263
  749SOL    HW1 2699   0.520   0.795   7.179
  749SOL    HW2 2700   0.552   0.681   7.274
  750SOL     OW 2701   1.605   0.779   7.269
  750SOL    HW1 2702   1.519   0.822   7.263
  750SOL    HW2 2703   1.657   0.822   7.201
  751SOL     OW 2704   0.998   0.088   7.299
  751SOL    HW1 2705   1.041   0.166   7.263
  751SOL    HW2 2706   1.022   0.018   7.239
  752SOL     OW 2707   0.495   0.042   7.340
  752SOL    HW1 2708   0.482   4.496   7.257
  752SOL    HW2 2709   0.430   0.112   7.339
  753SOL     OW 2710   0.590   0.876   6.611
  753SOL    HW1 2711   0.623   0.966   6.614
  753SOL    HW2 2712   0.535   0.868   6.688
  754SOL     OW 2713   1.352   0.858   6.610
  754SOL    HW1 2714   1.266   0.845   6.570
  754SOL    HW2 2715   1.396   0.773   6.602
  755SOL     OW 2716   1.200   0.536   5.844
  755SOL    HW1 2717   1.207   0.457   5.897
  755SOL    HW2 2718   1.157   0.599   5.902
  756SOL     OW 2719   0.283   0.212   6.820
  756SOL    HW1 2720   0.241   0.230   6.904
  756SOL    HW2 2721   0.329   0.129   6.833
  757SOL     OW 2722   0.026   1.312   6.874
  757SOL    HW1 2723   0.068   1.264   6.944
  757SOL    HW2 2724   0.036   1.404   6.898
  758SOL     OW 2725   0.721   0.629   6.639
  758SOL    HW1 2726   0.798   0.612   6.584
  758SOL    HW2 2727   0.695   0.718   6.616
  759SOL     OW 2728   1.737   0.959   7.441
  759SOL    HW1 2729   1.692   0.895   7.387
  759SOL    HW2 2730   1.677   0.975   7.514
  760SOL     OW 2731   0.324   0.072   6.214
  760SOL    HW1 2732   0.303   0.161   6.243
  760SOL    HW2 2733   0.311   0.018   6.293
  761SOL     OW 2734   1.621   0.383   5.943
  761SOL    HW1 2735   1.645   0.317   6.008
  761SOL    HW2 2736   1.596   0.459   5.995
  762SOL     OW 2737   1.032   0.764   6.546
  762SOL    HW1 2738   1.024   0.779   6.640
  762SOL    HW2 2739   1.001   0.674   6.534
  763SOL     OW 2740   0.982   1.567   7.305
  763SOL    HW1 2741   0.967   1.610   7.222
  763SOL    HW2 2742   1.025   1.484   7.282
  764SOL     OW 2743   1.854   1.502   7.191
  764SOL    HW1 2744   1.872   1.530   7.101
  764SOL    HW2 2745   1.935   1.520   7.239
  765SOL     OW 2746   0.347   0.935   7.404
  765SOL    HW1 2747   0.417   0.968   7.460
  765SOL    HW2 2748   0.388   0.867   7.351
  766SOL     OW 2749   1.528   0.262   5.714
  766SOL    HW1 2750   1.459   0.205   5.746
  766SOL    HW2 2751   1.560   0.308   5.791
  767SOL     OW 2752   1.289   0.826   5.615
  767SOL    HW1 2753   1.331   0.740   5.618
  767SOL    HW2 2754   1.320   0.865   5.533
  768SOL     OW 2755   1.068   1.337   6.441
  768SOL    HW1 2756   1.071   1.265   6.378
  768SOL    HW2 2757   1.128   1.403   6.406
  769SOL     OW 2758   0.319   0.813   6.529
  769SOL    HW1 2759   0.414   0.830   6.529
  769SOL    HW2 2760   0.312   0.721   6.556
  770SOL     OW 2761   0.331   0.532   6.570
  770SOL    HW1 2762   0.286   0.449   6.553
  770SOL    HW2 2763   0.410   0.528   6.516
  771SOL     OW 2764   1.137   0.371   7.287
  771SOL    HW1 2765   1.085   0.434   7.337
  771SOL    HW2 2766   1.221   0.415   7.273
  772SOL     OW 2767   1.152   0.215   7.060
  772SOL    HW1 2768   1.149   0.279   7.131
  772SOL    HW2 2769   1.197   0.261   6.989
  773SOL     OW 2770   4.491   1.320   5.795
  773SOL    HW1 2771   4.398   1.337   5.777
  773SOL    HW2 2772   4.494   1.227   5.815
  774SOL     OW 2773   0.101   1.769   6.526
  774SOL    HW1 2774   0.061   1.725   6.451
  774SOL    HW2 2775   0.189   1.793   6.496
  775SOL     OW 2776   0.494   1.574   6.493
  775SOL    HW1 2777   0.562   1.637   6.517
  775SOL    HW2 2778   0.538   1.512   6.435
  776SOL     OW 2779   0.979   0.792   6.811
  776SOL    HW1 2780   1.037   0.771   6.885
  776SOL    HW2 2781   0.896   0.750   6.833
  777SOL     OW 2782   0.032   0.567   6.694
  777SOL    HW1 2783   0.111   0.530   6.654
  777SOL    HW2 2784   0.002   0.498   6.754
  778SOL     OW 2785   0.179   0.532   7.302
  778SOL    HW1 2786   0.267   0.514   7.270
  778SOL    HW2 2787   0.151   0.610   7.253
  779SOL     OW 2788   1.380   0.936   7.243
  779SOL    HW1 2789   1.400   1.029   7.240
  779SOL    HW2 2790   1.375   0.909   7.152
  780SOL     OW 2791   0.812   0.576   5.946
  780SOL    HW1 2792   0.816   0.505   5.881
  780SOL    HW2 2793   0.739   0.631   5.916
  781SOL     OW 2794   1.638   0.602   6.768
  781SOL    HW1 2795   1.628   0.543   6.843
  781SOL    HW2 2796   1.726   0.583   6.735
  782SOL     OW 2797   0.273   1.562   7.325
  782SOL    HW1 2798   0.213   1.613   7.381
  782SOL    HW2 2799   0.256   1.471   7.349
  783SOL     OW 2800   0.696   0.462   6.850
  783SOL    HW1 2801   0.650   0.384   6.818
  783SOL    HW2 2802   0.697   0.521   6.775
  784SOL     OW 2803   0.926   1.679   7.055
  784SOL    HW1 2804   0.900   1.641   6.971
  784SOL    HW2 2805   0.919   1.774   7.042
  785SOL     OW 2806   0.472   0.491   5.765
  785SOL    HW1 2807   0.533   0.560   5.790
  785SOL    HW2 2808   0.389   0.536   5.749
  786SOL     OW 2809   0.160   1.141   7.044
  786SOL    HW1 2810   0.144   1.098   7.128
  786SOL    HW2 2811   0.168   1.070   6.981
  787SOL     OW 2812   1.323   1.045   6.807
  787SOL    HW1 2813   1.345   0.981   6.738
  787SOL    HW2 2814   1.255   1.099   6.768
  788SOL     OW 2815   1.315   0.856   5.891
  788SOL    HW1 2816   1.240   0.827   5.943
  788SOL    HW2 2817   1.287   0.844   5.800
  789SOL     OW 2818   1.764   1.740   6.737
  789SOL    HW1 2819   1.830   1.769   6.674
  789SOL    HW2 2820   1.747   1.649   6.713
  790SOL     OW 2821   1.238   1.731   6.694
  790SOL    HW1 2822   1.322   1.754   6.653
  790SOL    HW2 2823   1.246   1.638   6.715
  791SOL     OW 2824   0.068   1.185   6.637
  791SOL    HW1 2825   0.057   1.215   6.727
  791SOL    HW2 2826   0.036   1.258   6.583
  792SOL     OW 2827   0.679   1.669   7.321
  792SOL    HW1 2828   0.620   1.743   7.312
  792SOL    HW2 2829   0.745   1.682   7.253
  793SOL     OW 2830   1.720   0.129   6.073
  793SOL    HW1 2831   1.788   0.142   6.007
  793SOL    HW2 2832   1.753   0.058   6.128
  794SOL     OW 2833   1.387   1.568   6.074
  794SOL    HW1 2834   1.438   1.600   6.000
  794SOL    HW2 2835   1.337   1.645   6.104
  795SOL     OW 2836   0.116   1.808   7.435
  795SOL    HW1 2837   0.076   1.736   7.485
  795SOL    HW2 2838   0.180   1.845   7.496
  796SOL     OW 2839   1.279   0.929   6.258
  796SOL    HW1 2840   1.352   0.868   6.266
  796SOL    HW2 2841   1.313   1.001   6.205
  797SOL     OW 2842   0.809   1.276   7.013
  797SOL    HW1 2843   0.782   1.316   7.095
  797SOL    HW2 2844   0.739   1.296   6.951
  798SOL     OW 2845   0.672   1.623   5.741
  798SOL    HW1 2846   0.683   1.636   5.647
  798SOL    HW2 2847   0.616   1.545   5.748
  799SOL     OW 2848   1.621   1.727   6.977
  799SOL    HW1 2849   1.670   1.734   6.896
  799SOL    HW2 2850   1.607   1.818   7.004
  800SOL     OW 2851   1.839   0.152   6.551
  800SOL    HW1 2852   1.869   0.073   6.505
  800SOL    HW2 2853   1.753   0.170   6.514
  801SOL     OW 2854   0.259   0.323   6.304
  801SOL    HW1 2855   0.175   0.357   6.273
  801SOL    HW2 2856   0.246   0.312   6.399
  802SOL     OW 2857   1.205   1.603   5.618
  802SOL    HW1 2858   1.195   1.511   5.644
  802SOL    HW2 2859   1.140   1.615   5.549
  803SOL     OW 2860   0.826   1.008   6.960
  803SOL    HW1 2861   0.868   1.002   6.874
  803SOL    HW2 2862   0.823   1.101   6.979
  804SOL     OW 2863   0.916   0.911   5.876
  804SOL    HW1 2864   0.977   0.943   5.810
  804SOL    HW2 2865   0.964   0.842   5.922
  805SOL     OW 2866   1.482   1.624   5.626
  805SOL    HW1 2867   1.388   1.616   5.610
  805SOL    HW2 2868   1.521   1.628   5.539
  806SOL     OW 2869   0.373   1.309   7.077
  806SOL    HW1 2870   0.355   1.388   7.025
  806SOL    HW2 2871   0.298   1.252   7.059
  807SOL     OW 2872   1.610   1.284   6.866
  807SOL    HW1 2873   1.669   1.270   6.940
  807SOL    HW2 2874   1.549   1.352   6.895
  808SOL     OW 2875   1.057   1.109   6.294
  808SOL    HW1 2876   0.985   1.059   6.332
  808SOL    HW2 2877   1.121   1.043   6.267
  809SOL     OW 2878   1.001   0.247   6.598
  809SOL    HW1 2879   1.008   0.230   6.504
  809SOL    HW2 2880   0.993   0.160   6.637
  810SOL     OW 2881   0.606   1.489   6.068
  810SOL    HW1 2882   0.651   1.440   5.999
  810SOL    HW2 2883   0.528   1.524   6.024
  811SOL     OW 2884   1.724   0.394   6.961
  811SOL    HW1 2885   1.798   0.455   6.962
  811SOL    HW2 2886   1.752   0.323   6.905
  812SOL     OW 2887   0.252   1.343   5.860
  812SOL    HW1 2888   0.158   1.339   5.848
  812SOL    HW2 2889   0.263   1.375   5.950
  813SOL     OW 2890   0.115   1.006   7.280
  813SOL    HW1 2891   0.053   1.053   7.335
  813SOL    HW2 2892   0.194   0.999   7.333
  814SOL     OW 2893   0.658   0.212   7.086
  814SOL    HW1 2894   0.737   0.185   7.039
  814SOL    HW2 2895   0.688   0.228   7.175
  815SOL     OW 2896   0.074   0.320   5.611
  815SOL    HW1 2897   4.480   0.326   5.630
  815SOL    HW2 2898   0.097   0.408   5.580
  816SOL     OW 2899   1.427   0.858   6.984
  816SOL    HW1 2900   1.378   0.919   6.929
  816SOL    HW2 2901   1.516   0.860   6.949
  817SOL     OW 2902   0.086   0.188   5.888
  817SOL    HW1 2903   0.074   0.262   5.829
  817SOL    HW2 2904   0.167   0.146   5.857
  818SOL     OW 2905   1.178   1.337   5.703
  818SOL    HW1 2906   1.087   1.307   5.704
  818SOL    HW2 2907   1.204   1.337   5.795
  819SOL     OW 2908   0.626   0.829   7.020
  819SOL    HW1 2909   0.681   0.906   7.005
  819SOL    HW2 2910   0.688   0.756   7.026
  820SOL     OW 2911   1.483   1.766   6.568
  820SOL    HW1 2912   1.507   1.814   6.488
  820SOL    HW2 2913   1.565   1.759   6.616
  821SOL     OW 2914   0.710   0.564   7.292
  821SOL    HW1 2915   0.758   0.625   7.348
  821SOL    HW2 2916   0.738   0.477   7.321
  822SOL     OW 2917   1.473   1.197   7.216
  822SOL    HW1 2918   1.460   1.211   7.310
  822SOL    HW2 2919   1.566   1.215   7.201
  823SOL     OW 2920   0.376   1.746   7.151
  823SOL    HW1 2921   0.292   1.787   7.132
  823SOL    HW2 2922   0.353   1.667   7.200
  824SOL     OW 2923   1.667   0.880   6.841
  824SOL    HW1 2924   1.660   0.795   6.798
  824SOL    HW2 2925   1.657   0.944   6.770
  825SOL     OW 2926   1.220   0.333   6.032
  825SOL    HW1 2927   1.288   0.266   6.018
  825SOL    HW2 2928   1.249   0.381   6.110
  826SOL     OW 2929   0.585   0.735   6.259
  826SOL    HW1 2930   0.626   0.820   6.245
  826SOL    HW2 2931   0.519   0.728   6.190
  827SOL     OW 2932   1.758   0.371   7.230
  827SOL    HW1 2933   1.743   0.383   7.136
  827SOL    HW2 2934   1.682   0.322   7.260
  828SOL     OW 2935   1.747   0.933   7.097
  828SOL    HW1 2936   1.739   1.028   7.111
  828SOL    HW2 2937   1.730   0.921   7.004
  829SOL     OW 2938   0.865   1.366   5.626
  829SOL    HW1 2939   0.825   1.393   5.708
  829SOL    HW2 2940   0.879   1.448   5.578
  830SOL     OW 2941   0.662   1.788   6.527
  830SOL    HW1 2942   0.643   1.879   6.506
  830SOL    HW2 2943   0.757   1.781   6.520
  831SOL     OW 2944   0.869   0.970   6.439
  831SOL    HW1 2945   0.920   0.898   6.477
  831SOL    HW2 2946   0.832   1.015   6.515
  832SOL     OW 2947   1.079   0.989   5.676
  832SOL    HW1 2948   1.056   1.040   5.598
  832SOL    HW2 2949   1.152   0.935   5.648
  833SOL     OW 2950   1.855   1.556   6.428
  833SOL    HW1 2951   1.775   1.552   6.375
  833SOL    HW2 2952   1.839   1.495   6.500
  834SOL     OW 2953   0.233   1.304   7.446
  834SOL    HW1 2954   0.151   1.257   7.428
  834SOL    HW2 2955   0.234   1.315   7.541
  835SOL     OW 2956   0.116   1.229   6.254
  835SOL    HW1 2957   0.136   1.189   6.339
  835SOL    HW2 2958   0.174   1.184   6.192
  836SOL     OW 2959   0.685   1.406   7.217
  836SOL    HW1 2960   0.605   1.362   7.246
  836SOL    HW2 2961   0.679   1.494   7.254
  837SOL     OW 2962   1.805   0.178   6.824
  837SOL    HW1 2963   1.800   0.085   6.844
  837SOL    HW2 2964   1.822   0.182   6.730
  838SOL     OW 2965   0.444   0.429   6.121
  838SOL    HW1 2966   0.457   0.360   6.055
  838SOL    HW2 2967   0.382   0.391   6.183
  839SOL     OW 2968   1.703   1.484   6.673
  839SOL    HW1 2969   1.620   1.464   6.629
  839SOL    HW2 2970   1.710   1.418   6.742
  840SOL     OW 2971   0.308   0.506   6.836
  840SOL    HW1 2972   0.381   0.457   6.873
  840SOL    HW2 2973   0.332   0.518   6.744
  841SOL     OW 2974   0.830   1.578   6.262
  841SOL    HW1 2975   0.811   1.639   6.191
  841SOL    HW2 2976   0.755   1.519   6.264
  842SOL     OW 2977   1.431   0.217   6.702
  842SOL    HW1 2978   1.465   0.145   6.755
  842SOL    HW2 2979   1.380   0.270   6.764
  843SOL     OW 2980   0.995   0.002   6.740
  843SOL    HW1 2981   0.956   4.415   6.732
  843SOL    HW2 2982   1.089   4.486   6.748
  844SOL     OW 2983   0.773   1.333   5.904
  844SOL    HW1 2984   0.744   1.242   5.911
  844SOL    HW2 2985   0.855   1.337   5.954
  845SOL     OW 2986   0.621   1.555   6.873
  845SOL    HW1 2987   0.622   1.637   6.922
  845SOL    HW2 2988   0.709   1.549   6.835
  846SOL     OW 2989   1.338   0.051   5.745
  846SOL    HW1 2990   1.376   4.476   5.700
  846SOL    HW2 2991   1.262   0.016   5.790
  847SOL     OW 2992   1.315   0.465   6.258
  847SOL    HW1 2993   1.258   0.542   6.259
  847SOL    HW2 2994   1.304   0.425   6.344
  848SOL     OW 2995   1.585   0.198   6.455
  848SOL    HW1 2996   1.527   0.214   6.530
  848SOL    HW2 2997   1.587   0.282   6.408
  849SOL     OW 2998   0.040   1.050   5.877
  849SOL    HW1 2999   0.132   1.028   5.865
  849SOL    HW2 3000   0.021   1.024   5.967
  850SOL     OW 3001   0.887   1.656   5.925
  850SOL    HW1 3002   0.813   1.640   5.867
  850SOL    HW2 3003   0.858   1.729   5.980
  851SOL     OW 3004   0.244   0.629   7.572
  851SOL    HW1 3005   0.170   0.602   7.627
  851SOL    HW2 3006   0.213   0.617   7.483
  852SOL     OW 3007   0.192   0.295   8.436
  852SOL    HW1 3008   0.222   0.265   8.522
  852SOL    HW2 3009   0.131   0.227   8.406
  853SOL     OW 3010   0.000   0.390   8.084
  853SOL    HW1 3011   4.424   0.425   8.130
  853SOL    HW2 3012   4.466   0.316   8.034
  854SOL     OW 3013   0.569   1.293   8.628
  854SOL    HW1 3014   0.482   1.298   8.588
  854SOL    HW2 3015   0.584   1.381   8.663
  855SOL     OW 3016   1.566   1.513   8.156
  855SOL    HW1 3017   1.523   1.492   8.239
  855SOL    HW2 3018   1.494   1.517   8.093
  856SOL     OW 3019   1.139   0.697   8.143
  856SOL    HW1 3020   1.183   0.781   8.134
  856SOL    HW2 3021   1.087   0.705   8.223
  857SOL     OW 3022   1.773   0.603   7.674
  857SOL    HW1 3023   1.749   0.596   7.581
  857SOL    HW2 3024   1.737   0.525   7.714
  858SOL     OW 3025   0.749   1.139   8.492
  858SOL    HW1 3026   0.682   1.176   8.549
  858SOL    HW2 3027   0.788   1.215   8.448
  859SOL     OW 3028   0.869   0.767   9.269
  859SOL    HW1 3029   0.855   0.836   9.333
  859SOL    HW2 3030   0.893   0.813   9.189
  860SOL     OW 3031   0.684   1.000   8.094
  860SOL    HW1 3032   0.751   0.990   8.162
  860SOL    HW2 3033   0.616   1.053   8.135
  861SOL     OW 3034   0.713   1.149   9.265
  861SOL    HW1 3035   0.760   1.227   9.293
  861SOL    HW2 3036   0.632   1.182   9.226
  862SOL     OW 3037   0.334   1.419   8.516
  862SOL    HW1 3038   0.253   1.398   8.469
  862SOL    HW2 3039   0.384   1.473   8.455
  863SOL     OW 3040   1.460   1.501   8.806
  863SOL    HW1 3041   1.514   1.580   8.814
  863SOL    HW2 3042   1.394   1.510   8.875
  864SOL     OW 3043   0.443   0.393   8.932
  864SOL    HW1 3044   0.532   0.358   8.932
  864SOL    HW2 3045   0.389   0.321   8.966
  865SOL     OW 3046   1.608   0.443   8.187
  865SOL    HW1 3047   1.528   0.462   8.137
  865SOL    HW2 3048   1.621   0.520   8.241
  866SOL     OW 3049   0.246   1.691   7.923
  866SOL    HW1 3050   0.229   1.776   7.963
  866SOL    HW2 3051   0.318   1.707   7.862
  867SOL     OW 3052   1.137   1.342   9.142
  867SOL    HW1 3053   1.178   1.336   9.228
  867SOL    HW2 3054   1.085   1.262   9.135
  868SOL     OW 3055   0.254   1.426   7.974
  868SOL    HW1 3056   0.243   1.521   7.976
  868SOL    HW2 3057   0.193   1.392   8.040
  869SOL     OW 3058   0.251   1.083   8.333
  869SOL    HW1 3059   0.267   0.992   8.357
  869SOL    HW2 3060   0.190   1.115   8.399
  870SOL     OW 3061   0.609   1.792   8.877
  870SOL    HW1 3062   0.526   1.774   8.922
  870SOL    HW2 3063   0.630   1.882   8.902
  871SOL     OW 3064   0.573   0.991   7.591
  871SOL    HW1 3065   0.623   1.030   7.519
  871SOL    HW2 3066   0.618   1.020   7.670
  872SOL     OW 3067   1.577   0.118   8.914
  872SOL    HW1 3068   1.611   0.187   8.856
  872SOL    HW2 3069   1.568   0.162   8.999
  873SOL     OW 3070   0.136   0.645   8.021
  873SOL    HW1 3071   0.086   0.567   8.043
  873SOL    HW2 3072   0.109   0.710   8.086
  874SOL     OW 3073   1.843   1.756   7.779
  874SOL    HW1 3074   1.908   1.730   7.845
  874SOL    HW2 3075   1.864   1.848   7.761
  875SOL     OW 3076   0.031   1.604   7.596
  875SOL    HW1 3077   0.018   1.510   7.589
  875SOL    HW2 3078   0.038   1.620   7.690
  876SOL     OW 3079   1.691   0.920   8.091
  876SOL    HW1 3080   1.772   0.876   8.067
  876SOL    HW2 3081   1.666   0.971   8.014
  877SOL     OW 3082   1.648   1.105   7.877
  877SOL    HW1 3083   1.734   1.108   7.836
  877SOL    HW2 3084   1.653   1.168   7.949
  878SOL     OW 3085   0.101   0.769   9.020
  878SOL    HW1 3086   0.188   0.757   8.982
  878SOL    HW2 3087   0.099   0.860   9.049
  879SOL     OW 3088   0.615   1.388   8.185
  879SOL    HW1 3089   0.568   1.305   8.194
  879SOL    HW2 3090   0.599   1.415   8.094
  880SOL     OW 3091   1.287   1.237   8.870
  880SOL    HW1 3092   1.318   1.169   8.810
  880SOL    HW2 3093   1.346   1.231   8.945
  881SOL     OW 3094   0.825   0.017   8.005
  881SOL    HW1 3095   0.861   0.102   7.978
  881SOL    HW2 3096   0.731   0.026   7.991
  882SOL     OW 3097   0.177   0.940   8.726
  882SOL    HW1 3098   0.268   0.919   8.707
  882SOL    HW2 3099   0.132   0.931   8.642
  883SOL     OW 3100   1.532   0.996   7.648
  883SOL    HW1 3101   1.462   0.939   7.681
  883SOL    HW2 3102   1.573   1.030   7.727
  884SOL     OW 3103   1.184   1.810   9.072
  884SOL    HW1 3104   1.193   1.869   8.998
  884SOL    HW2 3105   1.202   1.723   9.035
  885SOL     OW 3106   0.317   0.260   9.213
  885SOL    HW1 3107   0.385   0.310   9.259
  885SOL    HW2 3108   0.240   0.268   9.269
  886SOL     OW 3109   1.467   1.419   8.397
  886SOL    HW1 3110   1.400   1.435   8.463
  886SOL    HW2 3111   1.453   1.327   8.371
  887SOL     OW 3112   1.658   1.744   8.025
  887SOL    HW1 3113   1.636   1.713   7.937
  887SOL    HW2 3114   1.634   1.672   8.082
  888SOL     OW 3115   0.595   0.722   7.716
  888SOL    HW1 3116   0.594   0.806   7.668
  888SOL    HW2 3117   0.528   0.733   7.784
  889SOL     OW 3118   1.293   0.371   8.380
  889SOL    HW1 3119   1.204   0.340   8.362
  889SOL    HW2 3120   1.328   0.306   8.441
  890SOL     OW 3121   1.579   1.672   7.758
  890SOL    HW1 3122   1.670   1.701   7.749
  890SOL    HW2 3123   1.551   1.655   7.668
  891SOL     OW 3124   0.798   0.618   8.902
  891SOL    HW1 3125   0.769   0.591   8.989
  891SOL    HW2 3126   0.758   0.554   8.842
  892SOL     OW 3127   1.388   0.481   9.124
  892SOL    HW1 3128   1.392   0.525   9.209
  892SOL    HW2 3129   1.454   0.413   9.129
  893SOL     OW 3130   0.952   0.886   9.033
  893SOL    HW1 3131   1.007   0.817   8.996
  893SOL    HW2 3132   0.905   0.923   8.957
  894SOL     OW 3133   0.999   0.418   8.681
  894SOL    HW1 3134   0.909   0.422   8.715
  894SOL    HW2 3135   0.991   0.364   8.602
  895SOL     OW 3136   1.051   0.698   7.873
  895SOL    HW1 3137   1.069   0.690   7.967
  895SOL    HW2 3138   0.968   0.653   7.861
  896SOL     OW 3139   0.094   0.827   8.233
  896SOL    HW1 3140   0.180   0.818   8.273
  896SOL    HW2 3141   0.034   0.837   8.307
  897SOL     OW 3142   0.119   1.865   9.028
  897SOL    HW1 3143   0.115   1.839   9.120
  897SOL    HW2 3144   0.046   1.819   8.986
  898SOL     OW 3145   0.854   0.371   7.633
  898SOL    HW1 3146   0.923   0.404   7.576
  898SOL    HW2 3147   0.869   0.276   7.636
  899SOL     OW 3148   1.702   0.571   9.277
  899SOL    HW1 3149   1.667   0.645   9.228
  899SOL    HW2 3150   1.738   0.513   9.210
  900SOL     OW 3151   1.379   1.143   7.988
  900SOL    HW1 3152   1.458   1.131   7.935
  900SOL    HW2 3153   1.326   1.205   7.939
  901SOL     OW 3154   0.539   0.208   8.348
  901SOL    HW1 3155   0.560   0.225   8.439
  901SOL    HW2 3156   0.534   0.295   8.307
  902SOL     OW 3157   1.002   1.443   7.918
  902SOL    HW1 3158   0.969   1.518   7.868
  902SOL    HW2 3159   0.981   1.463   8.009
  903SOL     OW 3160   0.358   1.814   8.309
  903SOL    HW1 3161   0.399   1.728   8.319
  903SOL    HW2 3162   0.427   1.877   8.327
  904SOL     OW 3163   1.801   1.054   8.317
  904SOL    HW1 3164   1.747   1.034   8.240
  904SOL    HW2 3165   1.738   1.061   8.389
  905SOL     OW 3166   1.228   1.539   8.961
  905SOL    HW1 3167   1.215   1.466   9.022
  905SOL    HW2 3168   1.162   1.525   8.893
  906SOL     OW 3169   0.313   0.952   7.706
  906SOL    HW1 3170   0.396   0.977   7.665
  906SOL    HW2 3171   0.300   0.860   7.682
  907SOL     OW 3172   1.482   0.746   8.170
  907SOL    HW1 3173   1.473   0.704   8.256
  907SOL    HW2 3174   1.559   0.802   8.178
  908SOL     OW 3175   0.470   1.264   9.183
  908SOL    HW1 3176   0.443   1.271   9.091
  908SOL    HW2 3177   0.388   1.266   9.232
  909SOL     OW 3178   1.123   1.778   7.678
  909SOL    HW1 3179   1.048   1.738   7.722
  909SOL    HW2 3180   1.147   1.715   7.610
  910SOL     OW 3181   0.158   0.266   8.961
  910SOL    HW1 3182   0.134   0.353   8.928
  910SOL    HW2 3183   0.196   0.283   9.047
  911SOL     OW 3184   1.629   1.381   7.537
  911SOL    HW1 3185   1.587   1.466   7.522
  911SOL    HW2 3186   1.560   1.317   7.517
  912SOL     OW 3187   0.469   1.741   7.762
  912SOL    HW1 3188   0.513   1.796   7.827
  912SOL    HW2 3189   0.540   1.705   7.709
  913SOL     OW 3190   1.426   0.146   7.867
  913SOL    HW1 3191   1.410   0.089   7.792
  913SOL    HW2 3192   1.519   0.133   7.886
  914SOL     OW 3193   0.253   1.786   8.678
  914SOL    HW1 3194   0.301   1.710   8.711
  914SOL    HW2 3195   0.219   1.758   8.593
  915SOL     OW 3196   0.938   1.700   8.345
  915SOL    HW1 3197   1.016   1.649   8.368
  915SOL    HW2 3198   0.896   1.649   8.276
  916SOL     OW 3199   0.396   0.690   7.919
  916SOL    HW1 3200   0.420   0.599   7.934
  916SOL    HW2 3201   0.304   0.695   7.945
  917SOL     OW 3202   1.524   0.233   9.171
  917SOL    HW1 3203   1.524   0.254   9.264
  917SOL    HW2 3204   1.444   0.182   9.158
  918SOL     OW 3205   0.629   0.119   7.567
  918SOL    HW1 3206   0.717   0.084   7.579
  918SOL    HW2 3207   0.598   0.080   7.486
  919SOL     OW 3208   0.768   0.271   9.203
  919SOL    HW1 3209   0.837   0.204   9.203
  919SOL    HW2 3210   0.732   0.268   9.292
  920SOL     OW 3211   0.876   1.523   8.642
  920SOL    HW1 3212   0.859   1.485   8.555
  920SOL    HW2 3213   0.946   1.468   8.678
  921SOL     OW 3214   1.340   0.590   8.876
  921SOL    HW1 3215   1.368   0.562   8.963
  921SOL    HW2 3216   1.374   0.679   8.867
  922SOL     OW 3217   0.817   1.392   8.392
  922SOL    HW1 3218   0.902   1.380   8.348
  922SOL    HW2 3219   0.754   1.396   8.320
  923SOL     OW 3220   0.925   0.523   8.345
  923SOL    HW1 3221   0.908   0.521   8.251
  923SOL    HW2 3222   0.957   0.435   8.366
  924SOL     OW 3223   0.566   0.071   7.955
  924SOL    HW1 3224   0.481   0.057   7.996
  924SOL    HW2 3225   0.550   0.138   7.888
  925SOL     OW 3226   1.428   1.199   7.488
  925SOL    HW1 3227   1.457   1.124   7.539
  925SOL    HW2 3228   1.342   1.222   7.525
  926SOL     OW 3229   0.305   0.070   7.640
  926SOL    HW1 3230   0.389   0.117   7.640
  926SOL    HW2 3231   0.319   4.498   7.702
  927SOL     OW 3232   0.958   0.240   7.912
  927SOL    HW1 3233   0.905   0.304   7.865
  927SOL    HW2 3234   1.047   0.274   7.906
  928SOL     OW 3235   1.081   0.684   8.907
  928SOL    HW1 3236   1.011   0.618   8.905
  928SOL    HW2 3237   1.162   0.633   8.896
  929SOL     OW 3238   1.222   1.571   8.242
  929SOL    HW1 3239   1.237   1.637   8.174
  929SOL    HW2 3240   1.290   1.588   8.307
  930SOL     OW 3241   0.468   1.152   8.181
  930SOL    HW1 3242   0.399   1.133   8.245
  930SOL    HW2 3243   0.426   1.137   8.096
  931SOL     OW 3244   1.267   1.793   8.058
  931SOL    HW1 3245   1.314   1.854   8.002
  931SOL    HW2 3246   1.199   1.845   8.100
  932SOL     OW 3247   1.027   0.543   7.468
  932SOL    HW1 3248   0.979   0.625   7.452
  932SOL    HW2 3249   1.086   0.563   7.541
  933SOL     OW 3250   0.092   0.510   8.860
  933SOL    HW1 3251   0.148   0.516   8.782
  933SOL    HW2 3252   0.055   0.597   8.870
  934SOL     OW 3253   0.558   0.248   8.616
  934SOL    HW1 3254   0.588   0.166   8.656
  934SOL    HW2 3255   0.463   0.249   8.631
  935SOL     OW 3256   0.864   0.505   8.077
  935SOL    HW1 3257   0.826   0.541   7.996
  935SOL    HW2 3258   0.817   0.422   8.090
  936SOL     OW 3259   0.952   0.015   8.246
  936SOL    HW1 3260   0.909   0.018   8.161
  936SOL    HW2 3261   0.970   4.422   8.260
  937SOL     OW 3262   1.438   1.160   8.305
  937SOL    HW1 3263   1.367   1.096   8.305
  937SOL    HW2 3264   1.461   1.170   8.212
  938SOL     OW 3265   1.464   0.607   8.417
  938SOL    HW1 3266   1.408   0.530   8.418
  938SOL    HW2 3267   1.520   0.598   8.494
  939SOL     OW 3268   1.843   0.814   7.832
  939SOL    HW1 3269   1.901   0.763   7.890
  939SOL    HW2 3270   1.817   0.751   7.765
  940SOL     OW 3271   0.492   1.421   7.604
  940SOL    HW1 3272   0.414   1.393   7.652
  940SOL    HW2 3273   0.480   1.385   7.516
  941SOL     OW 3274   1.674   1.265   8.090
  941SOL    HW1 3275   1.768   1.267   8.105
  941SOL    HW2 3276   1.644   1.353   8.113
  942SOL     OW 3277   1.395   0.572   7.517
  942SOL    HW1 3278   1.332   0.556   7.588
  942SOL    HW2 3279   1.480   0.556   7.557
  943SOL     OW 3280   0.518   0.264   7.765
  943SOL    HW1 3281   0.571   0.216   7.701
  943SOL    HW2 3282   0.502   0.348   7.724
  944SOL     OW 3283   1.751   1.241   9.016
  944SOL    HW1 3284   1.839   1.203   9.010
  944SOL    HW2 3285   1.767   1.331   9.044
  945SOL     OW 3286   1.056   1.354   8.781
  945SOL    HW1 3287   0.981   1.323   8.831
  945SOL    HW2 3288   1.132   1.312   8.822
  946SOL     OW 3289   1.610   1.625   9.103
  946SOL    HW1 3290   1.602   1.661   9.015
  946SOL    HW2 3291   1.693   1.578   9.103
  947SOL     OW 3292   1.132   1.207   8.552
  947SOL    HW1 3293   1.072   1.244   8.616
  947SOL    HW2 3294   1.101   1.240   8.467
  948SOL     OW 3295   1.626   1.097   8.524
  948SOL    HW1 3296   1.620   1.159   8.596
  948SOL    HW2 3297   1.549   1.114   8.471
  949SOL     OW 3298   0.898   0.137   8.832
  949SOL    HW1 3299   0.921   0.090   8.751
  949SOL    HW2 3300   0.982   0.155   8.874
  950SOL     OW 3301   0.984   1.115   9.172
  950SOL    HW1 3302   0.893   1.131   9.195
  950SOL    HW2 3303   0.981   1.037   9.116
  951SOL     OW 3304   0.709   1.062   7.820
  951SOL    HW1 3305   0.696   1.044   7.913
  951SOL    HW2 3306   0.784   1.009   7.795
  952SOL     OW 3307   0.431   0.830   8.693
  952SOL    HW1 3308   0.499   0.840   8.759
  952SOL    HW2 3309   0.375   0.759   8.727
  953SOL     OW 3310   1.268   0.374   8.723
  953SOL    HW1 3311   1.301   0.453   8.767
  953SOL    HW2 3312   1.179   0.396   8.697
  954SOL     OW 3313   0.064   1.575   8.796
  954SOL    HW1 3314   0.040   1.665   8.774
  954SOL    HW2 3315   0.160   1.576   8.799
  955SOL     OW 3316   0.338   1.112   7.941
  955SOL    HW1 3317   0.351   1.186   7.883
  955SOL    HW2 3318   0.338   1.035   7.884
  956SOL     OW 3319   0.563   0.519   8.298
  956SOL    HW1 3320   0.572   0.582   8.226
  956SOL    HW2 3321   0.624   0.550   8.365
  957SOL     OW 3322   1.248   1.349   7.838
  957SOL    HW1 3323   1.303   1.420   7.869
  957SOL    HW2 3324   1.160   1.370   7.871
  958SOL     OW 3325   1.286   1.459   8.596
  958SOL    HW1 3326   1.341   1.463   8.673
  958SOL    HW2 3327   1.230   1.383   8.610
  959SOL     OW 3328   1.579   0.622   7.927
  959SOL    HW1 3329   1.531   0.668   7.996
  959SOL    HW2 3330   1.623   0.692   7.878
  960SOL     OW 3331   0.346   1.533   8.760
  960SOL    HW1 3332   0.333   1.485   8.678
  960SOL    HW2 3333   0.441   1.543   8.768
  961SOL     OW 3334   0.494   0.756   9.125
  961SOL    HW1 3335   0.520   0.795   9.041
  961SOL    HW2 3336   0.553   0.681   9.136
  962SOL     OW 3337   1.605   0.779   9.131
  962SOL    HW1 3338   1.519   0.822   9.125
  962SOL    HW2 3339   1.657   0.822   9.063
  963SOL     OW 3340   0.998   0.088   9.161
  963SOL    HW1 3341   1.041   0.166   9.125
  963SOL    HW2 3342   1.022   0.018   9.101
  964SOL     OW 3343   0.495   0.042   9.202
  964SOL    HW1 3344   0.482   4.496   9.119
  964SOL    HW2 3345   0.430   0.112   9.201
  965SOL     OW 3346   0.590   0.876   8.473
  965SOL    HW1 3347   0.623   0.965   8.476
  965SOL    HW2 3348   0.535   0.868   8.550
  966SOL     OW 3349   1.352   0.858   8.473
  966SOL    HW1 3350   1.267   0.845   8.432
  966SOL    HW2 3351   1.396   0.773   8.464
  967SOL     OW 3352   1.199   0.536   7.706
  967SOL    HW1 3353   1.207   0.457   7.759
  967SOL    HW2 3354   1.157   0.600   7.764
  968SOL     OW 3355   0.283   0.211   8.682
  968SOL    HW1 3356   0.241   0.230   8.766
  968SOL    HW2 3357   0.329   0.129   8.695
  969SOL     OW 3358   0.025   1.312   8.736
  969SOL    HW1 3359   0.068   1.264   8.806
  969SOL    HW2 3360   0.036   1.404   8.760
  970SOL     OW 3361   0.721   0.629   8.501
  970SOL    HW1 3362   0.798   0.611   8.446
  970SOL    HW2 3363   0.695   0.718   8.478
  971SOL     OW 3364   1.737   0.959   9.304
  971SOL    HW1 3365   1.692   0.895   9.249
  971SOL    HW2 3366   1.677   0.975   9.376
  972SOL     OW 3367   0.324   0.072   8.076
  972SOL    HW1 3368   0.303   0.161   8.105
  972SOL    HW2 3369   0.311   0.018   8.155
  973SOL     OW 3370   1.621   0.383   7.805
  973SOL    HW1 3371   1.645   0.317   7.870
  973SOL    HW2 3372   1.596   0.460   7.856
  974SOL     OW 3373   1.032   0.763   8.408
  974SOL    HW1 3374   1.024   0.779   8.502
  974SOL    HW2 3375   1.001   0.674   8.396
  975SOL     OW 3376   0.982   1.566   9.167
  975SOL    HW1 3377   0.967   1.610   9.084
  975SOL    HW2 3378   1.025   1.484   9.144
  976SOL     OW 3379   1.855   1.502   9.053
  976SOL    HW1 3380   1.871   1.531   8.963
  976SOL    HW2 3381   1.935   1.522   9.100
  977SOL     OW 3382   0.347   0.935   9.265
  977SOL    HW1 3383   0.417   0.968   9.322
  977SOL    HW2 3384   0.388   0.867   9.213
  978SOL     OW 3385   1.528   0.262   7.576
  978SOL    HW1 3386   1.459   0.205   7.608
  978SOL    HW2 3387   1.560   0.308   7.653
  979SOL     OW 3388   1.288   0.826   7.476
  979SOL    HW1 3389   1.331   0.740   7.480
  979SOL    HW2 3390   1.320   0.865   7.395
  980SOL     OW 3391   1.068   1.337   8.303
  980SOL    HW1 3392   1.072   1.265   8.240
  980SOL    HW2 3393   1.127   1.403   8.268
  981SOL     OW 3394   0.319   0.813   8.391
  981SOL    HW1 3395   0.414   0.831   8.391
  981SOL    HW2 3396   0.312   0.721   8.418
  982SOL     OW 3397   0.331   0.532   8.432
  982SOL    HW1 3398   0.286   0.449   8.416
  982SOL    HW2 3399   0.410   0.528   8.378
  983SOL     OW 3400   1.137   0.371   9.149
  983SOL    HW1 3401   1.085   0.434   9.199
  983SOL    HW2 3402   1.221   0.415   9.135
  984SOL     OW 3403   1.152   0.215   8.922
  984SOL    HW1 3404   1.149   0.279   8.993
  984SOL    HW2 3405   1.197   0.261   8.851
  985SOL     OW 3406   4.491   1.320   7.657
  985SOL    HW1 3407   4.398   1.337   7.639
  985SOL    HW2 3408   4.494   1.227   7.678
  986SOL     OW 3409   0.101   1.770   8.388
  986SOL    HW1 3410   0.061   1.725   8.313
  986SOL    HW2 3411   0.189   1.793   8.358
  987SOL     OW 3412   0.494   1.574   8.355
  987SOL    HW1 3413   0.562   1.637   8.379
  987SOL    HW2 3414   0.538   1.512   8.297
  988SOL     OW 3415   0.979   0.792   8.673
  988SOL    HW1 3416   1.037   0.771   8.746
  988SOL    HW2 3417   0.896   0.750   8.696
  989SOL     OW 3418   0.032   0.566   8.556
  989SOL    HW1 3419   0.111   0.530   8.516
  989SOL    HW2 3420   0.002   0.498   8.616
  990SOL     OW 3421   0.179   0.532   9.164
  990SOL    HW1 3422   0.267   0.514   9.132
  990SOL    HW2 3423   0.151   0.610   9.115
  991SOL     OW 3424   1.380   0.936   9.105
  991SOL    HW1 3425   1.401   1.029   9.102
  991SOL    HW2 3426   1.375   0.909   9.013
  992SOL     OW 3427   0.812   0.576   7.808
  992SOL    HW1 3428   0.816   0.505   7.743
  992SOL    HW2 3429   0.739   0.631   7.778
  993SOL     OW 3430   1.638   0.601   8.630
  993SOL    HW1 3431   1.628   0.543   8.705
  993SOL    HW2 3432   1.726   0.583   8.597
  994SOL     OW 3433   0.273   1.562   9.187
  994SOL    HW1 3434   0.213   1.612   9.243
  994SOL    HW2 3435   0.256   1.471   9.211
  995SOL     OW 3436   0.695   0.462   8.712
  995SOL    HW1 3437   0.650   0.384   8.680
  995SOL    HW2 3438   0.697   0.522   8.637
  996SOL     OW 3439   0.924   1.679   8.918
  996SOL    HW1 3440   0.900   1.641   8.833
  996SOL    HW2 3441   0.919   1.774   8.904
  997SOL     OW 3442   0.472   0.491   7.627
  997SOL    HW1 3443   0.532   0.560   7.652
  997SOL    HW2 3444   0.389   0.536   7.611
  998SOL     OW 3445   0.160   1.141   8.906
  998SOL    HW1 3446   0.144   1.098   8.990
  998SOL    HW2 3447   0.168   1.070   8.843
  999SOL     OW 3448   1.323   1.044   8.669
  999SOL    HW1 3449   1.345   0.981   8.600
  999SOL    HW2 3450   1.255   1.099   8.630
 1000SOL     OW 3451   1.315   0.856   7.752
 1000SOL    HW1 3452   1.241   0.828   7.805
 1000SOL    HW2 3453   1.286   0.844   7.662
 1001SOL     OW 3454   1.762   1.739   8.594
 1001SOL    HW1 3455   1.828   1.768   8.530
 1001SOL    HW2 3456   1.747   1.647   8.572
 1002SOL     OW 3457   1.240   1.733   8.555
 1002SOL    HW1 3458   1.323   1.756   8.514
 1002SOL    HW2 3459   1.249   1.639   8.576
 1003SOL     OW 3460   0.068   1.185   8.499
 1003SOL    HW1 3461   0.058   1.215   8.589
 1003SOL    HW2 3462   0.035   1.258   8.446
 1004SOL     OW 3463   0.680   1.669   9.183
 1004SOL    HW1 3464   0.621   1.743   9.174
 1004SOL    HW2 3465   0.746   1.681   9.115
 1005SOL     OW 3466   1.719   0.129   7.935
 1005SOL    HW1 3467   1.788   0.142   7.869
 1005SOL    HW2 3468   1.753   0.059   7.990
 1006SOL     OW 3469   1.391   1.568   7.936
 1006SOL    HW1 3470   1.450   1.601   7.868
 1006SOL    HW2 3471   1.341   1.644   7.964
 1007SOL     OW 3472   0.116   1.808   9.297
 1007SOL    HW1 3473   0.076   1.736   9.346
 1007SOL    HW2 3474   0.180   1.845   9.358
 1008SOL     OW 3475   1.279   0.929   8.120
 1008SOL    HW1 3476   1.352   0.868   8.128
 1008SOL    HW2 3477   1.313   1.001   8.067
 1009SOL     OW 3478   0.809   1.276   8.875
 1009SOL    HW1 3479   0.782   1.315   8.957
 1009SOL    HW2 3480   0.739   1.296   8.813
 1010SOL     OW 3481   0.672   1.623   7.603
 1010SOL    HW1 3482   0.683   1.636   7.509
 1010SOL    HW2 3483   0.617   1.545   7.610
 1011SOL     OW 3484   1.620   1.727   8.837
 1011SOL    HW1 3485   1.671   1.734   8.756
 1011SOL    HW2 3486   1.606   1.818   8.865
 1012SOL     OW 3487   1.839   0.152   8.413
 1012SOL    HW1 3488   1.868   0.073   8.367
 1012SOL    HW2 3489   1.752   0.170   8.376
 1013SOL     OW 3490   0.259   0.323   8.166
 1013SOL    HW1 3491   0.175   0.357   8.135
 1013SOL    HW2 3492   0.246   0.312   8.261
 1014SOL     OW 3493   1.208   1.604   7.480
 1014SOL    HW1 3494   1.197   1.512   7.507
 1014SOL    HW2 3495   1.143   1.617   7.412
 1015SOL     OW 3496   0.826   1.007   8.822
 1015SOL    HW1 3497   0.869   1.002   8.736
 1015SOL    HW2 3498   0.823   1.101   8.841
 1016SOL     OW 3499   0.915   0.910   7.738
 1016SOL    HW1 3500   0.976   0.943   7.672
 1016SOL    HW2 3501   0.964   0.842   7.784
 1017SOL     OW 3502   1.490   1.626   7.492
 1017SOL    HW1 3503   1.396   1.618   7.477
 1017SOL    HW2 3504   1.528   1.632   7.404
 1018SOL     OW 3505   0.372   1.309   8.939
 1018SOL    HW1 3506   0.355   1.388   8.887
 1018SOL    HW2 3507   0.298   1.252   8.921
 1019SOL     OW 3508   1.609   1.284   8.727
 1019SOL    HW1 3509   1.670   1.271   8.800
 1019SOL    HW2 3510   1.549   1.352   8.758
 1020SOL     OW 3511   1.057   1.109   8.156
 1020SOL    HW1 3512   0.985   1.059   8.194
 1020SOL    HW2 3513   1.121   1.043   8.129
 1021SOL     OW 3514   1.001   0.246   8.460
 1021SOL    HW1 3515   1.008   0.230   8.366
 1021SOL    HW2 3516   0.993   0.160   8.499
 1022SOL     OW 3517   0.606   1.488   7.930
 1022SOL    HW1 3518   0.651   1.439   7.861
 1022SOL    HW2 3519   0.529   1.525   7.886
 1023SOL     OW 3520   1.724   0.394   8.824
 1023SOL    HW1 3521   1.797   0.455   8.824
 1023SOL    HW2 3522   1.752   0.323   8.767
 1024SOL     OW 3523   0.252   1.343   7.722
 1024SOL    HW1 3524   0.158   1.339   7.710
 1024SOL    HW2 3525   0.263   1.375   7.812
 1025SOL     OW 3526   0.115   1.006   9.142
 1025SOL    HW1 3527   0.053   1.053   9.197
 1025SOL    HW2 3528   0.194   0.999   9.195
 1026SOL     OW 3529   0.658   0.212   8.948
 1026SOL    HW1 3530   0.737   0.185   8.901
 1026SOL    HW2 3531   0.688   0.228   9.037
 1027SOL     OW 3532   0.074   0.320   7.473
 1027SOL    HW1 3533   4.480   0.326   7.492
 1027SOL    HW2 3534   0.097   0.408   7.442
 1028SOL     OW 3535   1.427   0.858   8.846
 1028SOL    HW1 3536   1.378   0.919   8.791
 1028SOL    HW2 3537   1.516   0.860   8.811
 1029SOL     OW 3538   0.086   0.188   7.750
 1029SOL    HW1 3539   0.074   0.262   7.691
 1029SOL    HW2 3540   0.167   0.146   7.719
 1030SOL     OW 3541   1.178   1.337   7.565
 1030SOL    HW1 3542   1.087   1.307   7.567
 1030SOL    HW2 3543   1.205   1.338   7.657
 1031SOL     OW 3544   0.626   0.829   8.882
 1031SOL    HW1 3545   0.681   0.906   8.867
 1031SOL    HW2 3546   0.688   0.756   8.888
 1032SOL     OW 3547   1.486   1.780   8.431
 1032SOL    HW1 3548   1.509   1.843   8.363
 1032SOL    HW2 3549   1.568   1.762   8.476
 1033SOL     OW 3550   0.710   0.564   9.154
 1033SOL    HW1 3551   0.758   0.625   9.210
 1033SOL    HW2 3552   0.738   0.477   9.183
 1034SOL     OW 3553   1.473   1.197   9.078
 1034SOL    HW1 3554   1.461   1.212   9.172
 1034SOL    HW2 3555   1.566   1.215   9.063
 1035SOL     OW 3556   0.376   1.746   9.013
 1035SOL    HW1 3557   0.292   1.787   8.994
 1035SOL    HW2 3558   0.353   1.667   9.062
 1036SOL     OW 3559   1.667   0.880   8.703
 1036SOL    HW1 3560   1.660   0.796   8.659
 1036SOL    HW2 3561   1.657   0.944   8.632
 1037SOL     OW 3562   1.220   0.333   7.894
 1037SOL    HW1 3563   1.288   0.266   7.880
 1037SOL    HW2 3564   1.249   0.381   7.972
 1038SOL     OW 3565   0.585   0.735   8.121
 1038SOL    HW1 3566   0.626   0.820   8.107
 1038SOL    HW2 3567   0.519   0.728   8.052
 1039SOL     OW 3568   1.758   0.370   9.092
 1039SOL    HW1 3569   1.743   0.383   8.999
 1039SOL    HW2 3570   1.681   0.322   9.122
 1040SOL     OW 3571   1.747   0.933   8.960
 1040SOL    HW1 3572   1.739   1.028   8.973
 1040SOL    HW2 3573   1.730   0.921   8.866
 1041SOL     OW 3574   0.864   1.366   7.487
 1041SOL    HW1 3575   0.826   1.393   7.570
 1041SOL    HW2 3576   0.879   1.447   7.440
 1042SOL     OW 3577   0.662   1.788   8.390
 1042SOL    HW1 3578   0.643   1.879   8.367
 1042SOL    HW2 3579   0.757   1.781   8.382
 1043SOL     OW 3580   0.869   0.970   8.301
 1043SOL    HW1 3581   0.920   0.898   8.339
 1043SOL    HW2 3582   0.832   1.015   8.377
 1044SOL     OW 3583   1.078   0.989   7.538
 1044SOL    HW1 3584   1.056   1.040   7.460
 1044SOL    HW2 3585   1.152   0.934   7.510
 1045SOL     OW 3586   1.851   1.553   8.292
 1045SOL    HW1 3587   1.772   1.544   8.239
 1045SOL    HW2 3588   1.837   1.495   8.366
 1046SOL     OW 3589   0.233   1.304   9.308
 1046SOL    HW1 3590   0.151   1.257   9.290
 1046SOL    HW2 3591   0.234   1.315   9.403
 1047SOL     OW 3592   0.116   1.229   8.116
 1047SOL    HW1 3593   0.136   1.189   8.201
 1047SOL    HW2 3594   0.174   1.184   8.054
 1048SOL     OW 3595   0.685   1.406   9.079
 1048SOL    HW1 3596   0.605   1.362   9.108
 1048SOL    HW2 3597   0.679   1.494   9.116
 1049SOL     OW 3598   1.805   0.178   8.686
 1049SOL    HW1 3599   1.800   0.084   8.705
 1049SOL    HW2 3600   1.822   0.182   8.592
 1050SOL     OW 3601   0.444   0.429   7.982
 1050SOL    HW1 3602   0.457   0.360   7.917
 1050SOL    HW2 3603   0.382   0.391   8.045
 1051SOL     OW 3604   1.704   1.481   8.534
 1051SOL    HW1 3605   1.620   1.462   8.490
 1051SOL    HW2 3606   1.709   1.415   8.604
 1052SOL     OW 3607   0.308   0.506   8.698
 1052SOL    HW1 3608   0.381   0.457   8.736
 1052SOL    HW2 3609   0.332   0.518   8.606
 1053SOL     OW 3610   0.830   1.578   8.124
 1053SOL    HW1 3611   0.811   1.639   8.052
 1053SOL    HW2 3612   0.755   1.519   8.126
 1054SOL     OW 3613   1.431   0.217   8.564
 1054SOL    HW1 3614   1.466   0.145   8.617
 1054SOL    HW2 3615   1.380   0.270   8.626
 1055SOL     OW 3616   0.995   0.002   8.602
 1055SOL    HW1 3617   0.956   4.414   8.594
 1055SOL    HW2 3618   1.089   4.486   8.610
 1056SOL     OW 3619   0.774   1.333   7.766
 1056SOL    HW1 3620   0.745   1.242   7.773
 1056SOL    HW2 3621   0.855   1.337   7.816
 1057SOL     OW 3622   0.621   1.555   8.735
 1057SOL    HW1 3623   0.622   1.637   8.784
 1057SOL    HW2 3624   0.709   1.549   8.697
 1058SOL     OW 3625   1.338   0.051   7.607
 1058SOL    HW1 3626   1.376   4.476   7.562
 1058SOL    HW2 3627   1.262   0.016   7.652
 1059SOL     OW 3628   1.315   0.465   8.120
 1059SOL    HW1 3629   1.258   0.542   8.121
 1059SOL    HW2 3630   1.304   0.425   8.206
 1060SOL     OW 3631   1.585   0.198   8.317
 1060SOL    HW1 3632   1.527   0.214   8.392
 1060SOL    HW2 3633   1.587   0.282   8.270
 1061SOL     OW 3634   0.040   1.050   7.739
 1061SOL    HW1 3635   0.132   1.028   7.726
 1061SOL    HW2 3636   0.021   1.024   7.829
 1062SOL     OW 3637   0.888   1.657   7.787
 1062SOL    HW1 3638   0.814   1.640   7.729
 1062SOL    HW2 3639   0.859   1.730   7.842
 1063SOL     OW 3640   0.244   0.629   9.434
 1063SOL    HW1 3641   0.170   0.602   9.489
 1063SOL    HW2 3642   0.213   0.617   9.345
 1064SOL     OW 3643   0.195   0.294  10.299
 1064SOL    HW1 3644   0.224   0.265  10.386
 1064SOL    HW2 3645   0.134   0.226  10.271
 1065SOL     OW 3646   0.000   0.390   9.947
 1065SOL    HW1 3647   4.424   0.426   9.992
 1065SOL    HW2 3648   4.466   0.317   9.896
 1066SOL     OW 3649   0.569   1.293  10.491
 1066SOL    HW1 3650   0.483   1.297  10.449
 1066SOL    HW2 3651   0.583   1.382  10.524
 1067SOL     OW 3652   1.566   1.513  10.018
 1067SOL    HW1 3653   1.524   1.491  10.101
 1067SOL    HW2 3654   1.495   1.517   9.955
 1068SOL     OW 3655   1.139   0.697  10.005
 1068SOL    HW1 3656   1.183   0.781   9.996
 1068SOL    HW2 3657   1.087   0.705  10.085
 1069SOL     OW 3658   1.773   0.604   9.536
 1069SOL    HW1 3659   1.749   0.596   9.443
 1069SOL    HW2 3660   1.737   0.525   9.576
 1070SOL     OW 3661   0.750   1.140  10.355
 1070SOL    HW1 3662   0.683   1.177  10.412
 1070SOL    HW2 3663   0.787   1.216  10.310
 1071SOL     OW 3664   0.860   0.767   0.024
 1071SOL    HW1 3665   0.866   0.822   0.102
 1071SOL    HW2 3666   0.892   0.824  11.053
 1072SOL     OW 3667   0.684   1.000   9.956
 1072SOL    HW1 3668   0.751   0.990  10.024
 1072SOL    HW2 3669   0.616   1.053   9.997
 1073SOL     OW 3670   0.335   1.417  10.377
 1073SOL    HW1 3671   0.253   1.397  10.331
 1073SOL    HW2 3672   0.384   1.472  10.315
 1074SOL     OW 3673   1.463   1.500  10.664
 1074SOL    HW1 3674   1.521   1.575  10.671
 1074SOL    HW2 3675   1.398   1.514  10.734
 1075SOL     OW 3676   0.442   0.386  10.782
 1075SOL    HW1 3677   0.526   0.341  10.776
 1075SOL    HW2 3678   0.403   0.354  10.864
 1076SOL     OW 3679   1.608   0.443  10.049
 1076SOL    HW1 3680   1.528   0.462  10.000
 1076SOL    HW2 3681   1.622   0.520  10.103
 1077SOL     OW 3682   0.246   1.691   9.785
 1077SOL    HW1 3683   0.229   1.776   9.825
 1077SOL    HW2 3684   0.318   1.707   9.724
 1078SOL     OW 3685   0.254   1.426   9.836
 1078SOL    HW1 3686   0.243   1.521   9.838
 1078SOL    HW2 3687   0.194   1.392   9.901
 1079SOL     OW 3688   0.252   1.083  10.196
 1079SOL    HW1 3689   0.267   0.992  10.219
 1079SOL    HW2 3690   0.190   1.115  10.261
 1080SOL     OW 3691   0.608   1.790  10.737
 1080SOL    HW1 3692   0.528   1.772  10.786
 1080SOL    HW2 3693   0.631   1.880  10.761
 1081SOL     OW 3694   0.573   0.991   9.453
 1081SOL    HW1 3695   0.623   1.030   9.381
 1081SOL    HW2 3696   0.618   1.020   9.532
 1082SOL     OW 3697   1.552   0.138  10.790
 1082SOL    HW1 3698   1.591   0.195  10.724
 1082SOL    HW2 3699   1.621   0.125  10.855
 1083SOL     OW 3700   0.135   0.646   9.883
 1083SOL    HW1 3701   0.087   0.567   9.905
 1083SOL    HW2 3702   0.108   0.710   9.948
 1084SOL     OW 3703   1.841   1.757   9.639
 1084SOL    HW1 3704   1.908   1.728   9.700
 1084SOL    HW2 3705   1.862   1.849   9.621
 1085SOL     OW 3706   0.032   1.604   9.458
 1085SOL    HW1 3707   0.018   1.510   9.450
 1085SOL    HW2 3708   0.038   1.620   9.552
 1086SOL     OW 3709   1.691   0.920   9.954
 1086SOL    HW1 3710   1.772   0.876   9.929
 1086SOL    HW2 3711   1.667   0.971   9.876
 1087SOL     OW 3712   1.648   1.105   9.739
 1087SOL    HW1 3713   1.734   1.108   9.698
 1087SOL    HW2 3714   1.653   1.168   9.811
 1088SOL     OW 3715   0.093   0.767  10.908
 1088SOL    HW1 3716   0.177   0.744  10.870
 1088SOL    HW2 3717   0.095   0.862  10.918
 1089SOL     OW 3718   0.615   1.388  10.047
 1089SOL    HW1 3719   0.568   1.305  10.056
 1089SOL    HW2 3720   0.599   1.415   9.956
 1090SOL     OW 3721   1.289   1.235  10.753
 1090SOL    HW1 3722   1.315   1.175  10.683
 1090SOL    HW2 3723   1.348   1.214  10.826
 1091SOL     OW 3724   0.825   0.017   9.867
 1091SOL    HW1 3725   0.861   0.102   9.840
 1091SOL    HW2 3726   0.731   0.026   9.853
 1092SOL     OW 3727   0.173   0.938  10.589
 1092SOL    HW1 3728   0.265   0.917  10.573
 1092SOL    HW2 3729   0.131   0.931  10.504
 1093SOL     OW 3730   1.531   0.996   9.510
 1093SOL    HW1 3731   1.461   0.939   9.543
 1093SOL    HW2 3732   1.573   1.030   9.589
 1094SOL     OW 3733   1.198   1.807  10.929
 1094SOL    HW1 3734   1.192   1.872  10.859
 1094SOL    HW2 3735   1.208   1.724  10.883
 1095SOL     OW 3736   0.324   0.301  11.048
 1095SOL    HW1 3737   0.387   0.338   0.009
 1095SOL    HW2 3738   0.243   0.293  11.098
 1096SOL     OW 3739   1.468   1.419  10.259
 1096SOL    HW1 3740   1.400   1.436  10.324
 1096SOL    HW2 3741   1.454   1.328  10.233
 1097SOL     OW 3742   1.658   1.746   9.886
 1097SOL    HW1 3743   1.637   1.714   9.799
 1097SOL    HW2 3744   1.634   1.673   9.944
 1098SOL     OW 3745   0.594   0.722   9.578
 1098SOL    HW1 3746   0.594   0.806   9.530
 1098SOL    HW2 3747   0.528   0.733   9.646
 1099SOL     OW 3748   1.293   0.370  10.241
 1099SOL    HW1 3749   1.204   0.340  10.225
 1099SOL    HW2 3750   1.328   0.307  10.304
 1100SOL     OW 3751   1.578   1.672   9.619
 1100SOL    HW1 3752   1.669   1.701   9.611
 1100SOL    HW2 3753   1.550   1.655   9.529
 1101SOL     OW 3754   0.799   0.618  10.762
 1101SOL    HW1 3755   0.770   0.591  10.849
 1101SOL    HW2 3756   0.762   0.553  10.703
 1102SOL     OW 3757   0.965   0.901  10.906
 1102SOL    HW1 3758   1.014   0.830  10.865
 1102SOL    HW2 3759   0.915   0.940  10.835
 1103SOL     OW 3760   0.999   0.421  10.540
 1103SOL    HW1 3761   0.910   0.423  10.575
 1103SOL    HW2 3762   0.993   0.364  10.463
 1104SOL     OW 3763   1.051   0.698   9.735
 1104SOL    HW1 3764   1.069   0.689   9.829
 1104SOL    HW2 3765   0.968   0.653   9.723
 1105SOL     OW 3766   0.093   0.828  10.095
 1105SOL    HW1 3767   0.180   0.818  10.135
 1105SOL    HW2 3768   0.033   0.836  10.169
 1106SOL     OW 3769   0.116   1.850  10.901
 1106SOL    HW1 3770   0.112   1.789  10.974
 1106SOL    HW2 3771   0.050   1.818  10.839
 1107SOL     OW 3772   0.854   0.371   9.495
 1107SOL    HW1 3773   0.923   0.404   9.438
 1107SOL    HW2 3774   0.869   0.276   9.498
 1108SOL     OW 3775   1.379   1.143   9.850
 1108SOL    HW1 3776   1.458   1.131   9.797
 1108SOL    HW2 3777   1.326   1.205   9.800
 1109SOL     OW 3778   0.540   0.209  10.209
 1109SOL    HW1 3779   0.558   0.226  10.302
 1109SOL    HW2 3780   0.535   0.296  10.170
 1110SOL     OW 3781   1.002   1.444   9.780
 1110SOL    HW1 3782   0.969   1.518   9.730
 1110SOL    HW2 3783   0.980   1.464   9.871
 1111SOL     OW 3784   0.357   1.814  10.171
 1111SOL    HW1 3785   0.399   1.729  10.181
 1111SOL    HW2 3786   0.427   1.877  10.190
 1112SOL     OW 3787   1.801   1.054  10.179
 1112SOL    HW1 3788   1.747   1.033  10.102
 1112SOL    HW2 3789   1.738   1.061  10.251
 1113SOL     OW 3790   1.231   1.535  10.821
 1113SOL    HW1 3791   1.239   1.445  10.853
 1113SOL    HW2 3792   1.162   1.530  10.754
 1114SOL     OW 3793   0.313   0.952   9.568
 1114SOL    HW1 3794   0.396   0.977   9.527
 1114SOL    HW2 3795   0.300   0.860   9.544
 1115SOL     OW 3796   1.482   0.746  10.032
 1115SOL    HW1 3797   1.473   0.704  10.118
 1115SOL    HW2 3798   1.559   0.802  10.040
 1116SOL     OW 3799   0.456   1.266  11.052
 1116SOL    HW1 3800   0.426   1.283  10.962
 1116SOL    HW2 3801   0.393   1.204  11.087
 1117SOL     OW 3802   1.123   1.778   9.540
 1117SOL    HW1 3803   1.048   1.738   9.584
 1117SOL    HW2 3804   1.147   1.715   9.472
 1118SOL     OW 3805   0.155   0.258  10.823
 1118SOL    HW1 3806   0.132   0.345  10.793
 1118SOL    HW2 3807   0.209   0.273  10.901
 1119SOL     OW 3808   1.629   1.381   9.400
 1119SOL    HW1 3809   1.587   1.466   9.384
 1119SOL    HW2 3810   1.561   1.317   9.380
 1120SOL     OW 3811   0.469   1.741   9.624
 1120SOL    HW1 3812   0.513   1.796   9.689
 1120SOL    HW2 3813   0.540   1.705   9.571
 1121SOL     OW 3814   1.427   0.146   9.729
 1121SOL    HW1 3815   1.410   0.089   9.654
 1121SOL    HW2 3816   1.519   0.133   9.748
 1122SOL     OW 3817   0.251   1.787  10.542
 1122SOL    HW1 3818   0.300   1.712  10.577
 1122SOL    HW2 3819   0.221   1.757  10.456
 1123SOL     OW 3820   0.939   1.699  10.208
 1123SOL    HW1 3821   1.018   1.649  10.228
 1123SOL    HW2 3822   0.896   1.649  10.138
 1124SOL     OW 3823   0.396   0.690   9.781
 1124SOL    HW1 3824   0.420   0.599   9.796
 1124SOL    HW2 3825   0.304   0.695   9.807
 1125SOL     OW 3826   0.629   0.120   9.429
 1125SOL    HW1 3827   0.717   0.084   9.441
 1125SOL    HW2 3828   0.598   0.080   9.348
 1126SOL     OW 3829   0.762   0.277  11.044
 1126SOL    HW1 3830   0.826   0.208  11.065
 1126SOL    HW2 3831   0.708   0.283   0.023
 1127SOL     OW 3832   0.876   1.522  10.504
 1127SOL    HW1 3833   0.859   1.486  10.417
 1127SOL    HW2 3834   0.948   1.470  10.538
 1128SOL     OW 3835   1.344   0.592  10.754
 1128SOL    HW1 3836   1.395   0.574  10.833
 1128SOL    HW2 3837   1.369   0.681  10.729
 1129SOL     OW 3838   0.818   1.392  10.253
 1129SOL    HW1 3839   0.902   1.380  10.209
 1129SOL    HW2 3840   0.754   1.396  10.182
 1130SOL     OW 3841   0.925   0.523  10.207
 1130SOL    HW1 3842   0.908   0.520  10.113
 1130SOL    HW2 3843   0.957   0.436  10.228
 1131SOL     OW 3844   0.566   0.071   9.817
 1131SOL    HW1 3845   0.481   0.057   9.858
 1131SOL    HW2 3846   0.549   0.138   9.751
 1132SOL     OW 3847   1.428   1.199   9.350
 1132SOL    HW1 3848   1.457   1.124   9.401
 1132SOL    HW2 3849   1.343   1.222   9.387
 1133SOL     OW 3850   0.306   0.069   9.502
 1133SOL    HW1 3851   0.389   0.117   9.503
 1133SOL    HW2 3852   0.319   4.498   9.564
 1134SOL     OW 3853   0.958   0.240   9.774
 1134SOL    HW1 3854   0.905   0.304   9.727
 1134SOL    HW2 3855   1.047   0.274   9.768
 1135SOL     OW 3856   1.080   0.689  10.772
 1135SOL    HW1 3857   1.008   0.626  10.772
 1135SOL    HW2 3858   1.159   0.636  10.769
 1136SOL     OW 3859   1.221   1.572  10.105
 1136SOL    HW1 3860   1.236   1.637  10.036
 1136SOL    HW2 3861   1.290   1.588  10.169
 1137SOL     OW 3862   0.468   1.152  10.043
 1137SOL    HW1 3863   0.399   1.132  10.107
 1137SOL    HW2 3864   0.427   1.137   9.958
 1138SOL     OW 3865   1.266   1.793   9.920
 1138SOL    HW1 3866   1.314   1.854   9.864
 1138SOL    HW2 3867   1.199   1.846   9.962
 1139SOL     OW 3868   1.027   0.543   9.330
 1139SOL    HW1 3869   0.979   0.625   9.314
 1139SOL    HW2 3870   1.086   0.563   9.403
 1140SOL     OW 3871   0.087   0.507  10.725
 1140SOL    HW1 3872   0.149   0.515  10.652
 1140SOL    HW2 3873   0.062   0.597  10.746
 1141SOL     OW 3874   0.556   0.248  10.478
 1141SOL    HW1 3875   0.584   0.163  10.512
 1141SOL    HW2 3876   0.463   0.252  10.499
 1142SOL     OW 3877   0.864   0.505   9.939
 1142SOL    HW1 3878   0.826   0.541   9.858
 1142SOL    HW2 3879   0.817   0.422   9.952
 1143SOL     OW 3880   0.954   0.015  10.108
 1143SOL    HW1 3881   0.909   0.018  10.023
 1143SOL    HW2 3882   0.970   4.422  10.122
 1144SOL     OW 3883   1.437   1.161  10.166
 1144SOL    HW1 3884   1.368   1.095  10.166
 1144SOL    HW2 3885   1.462   1.171  10.074
 1145SOL     OW 3886   1.464   0.609  10.279
 1145SOL    HW1 3887   1.408   0.531  10.280
 1145SOL    HW2 3888   1.520   0.599  10.356
 1146SOL     OW 3889   1.843   0.814   9.695
 1146SOL    HW1 3890   1.901   0.763   9.752
 1146SOL    HW2 3891   1.817   0.751   9.627
 1147SOL     OW 3892   0.492   1.421   9.466
 1147SOL    HW1 3893   0.413   1.393   9.514
 1147SOL    HW2 3894   0.480   1.385   9.378
 1148SOL     OW 3895   1.673   1.265   9.952
 1148SOL    HW1 3896   1.767   1.266   9.968
 1148SOL    HW2 3897   1.644   1.353   9.975
 1149SOL     OW 3898   1.395   0.573   9.379
 1149SOL    HW1 3899   1.332   0.556   9.450
 1149SOL    HW2 3900   1.480   0.557   9.419
 1150SOL     OW 3901   0.518   0.263   9.627
 1150SOL    HW1 3902   0.571   0.216   9.563
 1150SOL    HW2 3903   0.502   0.348   9.586
 1151SOL     OW 3904   1.758   1.229  10.858
 1151SOL    HW1 3905   1.850   1.202  10.857
 1151SOL    HW2 3906   1.758   1.315  10.900
 1152SOL     OW 3907   1.060   1.354  10.649
 1152SOL    HW1 3908   0.982   1.321  10.693
 1152SOL    HW2 3909   1.133   1.306  10.689
 1153SOL     OW 3910   1.134   1.211  10.413
 1153SOL    HW1 3911   1.066   1.243  10.473
 1153SOL    HW2 3912   1.105   1.240  10.327
 1154SOL     OW 3913   1.627   1.097  10.386
 1154SOL    HW1 3914   1.622   1.159  10.459
 1154SOL    HW2 3915   1.549   1.116  10.335
 1155SOL     OW 3916   0.893   0.129  10.693
 1155SOL    HW1 3917   0.921   0.088  10.611
 1155SOL    HW2 3918   0.975   0.158  10.734
 1156SOL     OW 3919   0.709   1.062   9.682
 1156SOL    HW1 3920   0.696   1.044   9.775
 1156SOL    HW2 3921   0.784   1.009   9.657
 1157SOL     OW 3922   0.428   0.828  10.556
 1157SOL    HW1 3923   0.497   0.835  10.622
 1157SOL    HW2 3924   0.372   0.756  10.587
 1158SOL     OW 3925   1.271   0.383  10.583
 1158SOL    HW1 3926   1.301   0.459  10.633
 1158SOL    HW2 3927   1.181   0.405  10.558
 1159SOL     OW 3928   0.065   1.578  10.663
 1159SOL    HW1 3929   0.043   1.665  10.629
 1159SOL    HW2 3930   0.161   1.577  10.663
 1160SOL     OW 3931   0.339   1.112   9.803
 1160SOL    HW1 3932   0.351   1.186   9.744
 1160SOL    HW2 3933   0.338   1.035   9.746
 1161SOL     OW 3934   0.562   0.519  10.160
 1161SOL    HW1 3935   0.572   0.582  10.089
 1161SOL    HW2 3936   0.623   0.550  10.228
 1162SOL     OW 3937   1.248   1.349   9.700
 1162SOL    HW1 3938   1.303   1.420   9.731
 1162SOL    HW2 3939   1.160   1.370   9.733
 1163SOL     OW 3940   1.285   1.461  10.456
 1163SOL    HW1 3941   1.342   1.464  10.532
 1163SOL    HW2 3942   1.231   1.383  10.468
 1164SOL     OW 3943   1.579   0.623   9.789
 1164SOL    HW1 3944   1.531   0.668   9.858
 1164SOL    HW2 3945   1.623   0.692   9.740
 1165SOL     OW 3946   0.345   1.531  10.620
 1165SOL    HW1 3947   0.333   1.483  10.538
 1165SOL    HW2 3948   0.440   1.543  10.628
 1166SOL     OW 3949   0.500   0.745  10.976
 1166SOL    HW1 3950   0.537   0.783  10.897
 1166SOL    HW2 3951   0.554   0.669  10.994
 1167SOL     OW 3952   1.600   0.755  10.966
 1167SOL    HW1 3953   1.522   0.810  10.959
 1167SOL    HW2 3954   1.669   0.806  10.924
 1168SOL     OW 3955   0.589   0.876  10.336
 1168SOL    HW1 3956   0.622   0.966  10.339
 1168SOL    HW2 3957   0.533   0.867  10.413
 1169SOL     OW 3958   1.353   0.861  10.340
 1169SOL    HW1 3959   1.268   0.848  10.298
 1169SOL    HW2 3960   1.397   0.777  10.331
 1170SOL     OW 3961   1.199   0.536   9.568
 1170SOL    HW1 3962   1.207   0.457   9.621
 1170SOL    HW2 3963   1.157   0.599   9.626
 1171SOL     OW 3964   0.283   0.210  10.547
 1171SOL    HW1 3965   0.251   0.228  10.635
 1171SOL    HW2 3966   0.327   0.125  10.554
 1172SOL     OW 3967   0.027   1.316  10.597
 1172SOL    HW1 3968   0.068   1.265  10.667
 1172SOL    HW2 3969   0.034   1.407  10.625
 1173SOL     OW 3970   0.721   0.629  10.363
 1173SOL    HW1 3971   0.797   0.611  10.308
 1173SOL    HW2 3972   0.695   0.718  10.340
 1174SOL     OW 3973   0.323   0.072   9.939
 1174SOL    HW1 3974   0.303   0.161   9.967
 1174SOL    HW2 3975   0.312   0.019  10.017
 1175SOL     OW 3976   1.621   0.383   9.667
 1175SOL    HW1 3977   1.645   0.317   9.732
 1175SOL    HW2 3978   1.596   0.460   9.718
 1176SOL     OW 3979   1.031   0.764  10.270
 1176SOL    HW1 3980   1.024   0.779  10.364
 1176SOL    HW2 3981   1.001   0.674  10.258
 1177SOL     OW 3982   0.974   1.573  11.003
 1177SOL    HW1 3983   0.958   1.623  10.923
 1177SOL    HW2 3984   0.998   1.486  10.973
 1178SOL     OW 3985   1.855   1.488  10.911
 1178SOL    HW1 3986   1.872   1.525  10.824
 1178SOL    HW2 3987   1.919   1.532  10.968
 1179SOL     OW 3988   0.349   0.936  11.089
 1179SOL    HW1 3989   0.418   0.965   0.048
 1179SOL    HW2 3990   0.386   0.862  11.041
 1180SOL     OW 3991   1.528   0.262   9.438
 1180SOL    HW1 3992   1.459   0.205   9.470
 1180SOL    HW2 3993   1.560   0.308   9.515
 1181SOL     OW 3994   1.289   0.826   9.339
 1181SOL    HW1 3995   1.331   0.740   9.342
 1181SOL    HW2 3996   1.320   0.865   9.257
 1182SOL     OW 3997   1.068   1.337  10.165
 1182SOL    HW1 3998   1.072   1.265  10.102
 1182SOL    HW2 3999   1.127   1.403  10.130
 1183SOL     OW 4000   0.319   0.812  10.253
 1183SOL    HW1 4001   0.413   0.830  10.253
 1183SOL    HW2 4002   0.312   0.721  10.280
 1184SOL     OW 4003   0.331   0.532  10.296
 1184SOL    HW1 4004   0.287   0.449  10.281
 1184SOL    HW2 4005   0.410   0.528  10.241
 1185SOL     OW 4006   1.142   0.219  10.768
 1185SOL    HW1 4007   1.187   0.237  10.851
 1185SOL    HW2 4008   1.190   0.271  10.704
 1186SOL     OW 4009   4.491   1.320   9.519
 1186SOL    HW1 4010   4.398   1.337   9.501
 1186SOL    HW2 4011   4.494   1.227   9.540
 1187SOL     OW 4012   0.100   1.768  10.249
 1187SOL    HW1 4013   0.061   1.724  10.174
 1187SOL    HW2 4014   0.188   1.793  10.220
 1188SOL     OW 4015   0.494   1.575  10.217
 1188SOL    HW1 4016   0.563   1.638  10.240
 1188SOL    HW2 4017   0.538   1.513  10.158
 1189SOL     OW 4018   0.978   0.794  10.536
 1189SOL    HW1 4019   1.035   0.774  10.610
 1189SOL    HW2 4020   0.896   0.748  10.556
 1190SOL     OW 4021   0.027   0.564  10.410
 1190SOL    HW1 4022   0.112   0.533  10.378
 1190SOL    HW2 4023   0.008   0.509  10.486
 1191SOL     OW 4024   0.811   0.576   9.669
 1191SOL    HW1 4025   0.816   0.505   9.605
 1191SOL    HW2 4026   0.739   0.631   9.640
 1192SOL     OW 4027   1.638   0.601  10.492
 1192SOL    HW1 4028   1.629   0.545  10.569
 1192SOL    HW2 4029   1.727   0.583  10.459
 1193SOL     OW 4030   0.261   1.576  11.051
 1193SOL    HW1 4031   0.205   1.595   0.027
 1193SOL    HW2 4032   0.247   1.483  11.033
 1194SOL     OW 4033   0.703   0.459  10.572
 1194SOL    HW1 4034   0.653   0.382  10.543
 1194SOL    HW2 4035   0.701   0.519  10.498
 1195SOL     OW 4036   0.939   1.681  10.755
 1195SOL    HW1 4037   0.904   1.645  10.673
 1195SOL    HW2 4038   0.921   1.775  10.749
 1196SOL     OW 4039   0.471   0.491   9.489
 1196SOL    HW1 4040   0.532   0.560   9.514
 1196SOL    HW2 4041   0.389   0.536   9.473
 1197SOL     OW 4042   0.163   1.144  10.764
 1197SOL    HW1 4043   0.136   1.107  10.848
 1197SOL    HW2 4044   0.167   1.069  10.704
 1198SOL     OW 4045   1.321   1.051  10.537
 1198SOL    HW1 4046   1.346   0.985  10.473
 1198SOL    HW2 4047   1.254   1.104  10.494
 1199SOL     OW 4048   1.315   0.856   9.615
 1199SOL    HW1 4049   1.240   0.827   9.667
 1199SOL    HW2 4050   1.287   0.844   9.524
 1200SOL     OW 4051   1.770   1.743  10.459
 1200SOL    HW1 4052   1.832   1.770  10.392
 1200SOL    HW2 4053   1.750   1.652  10.438
 1201SOL     OW 4054   1.240   1.734  10.418
 1201SOL    HW1 4055   1.323   1.757  10.376
 1201SOL    HW2 4056   1.248   1.641  10.437
 1202SOL     OW 4057   0.068   1.185  10.361
 1202SOL    HW1 4058   0.058   1.216  10.451
 1202SOL    HW2 4059   0.035   1.257  10.308
 1203SOL     OW 4060   1.719   0.129   9.797
 1203SOL    HW1 4061   1.788   0.142   9.731
 1203SOL    HW2 4062   1.753   0.059   9.853
 1204SOL     OW 4063   1.391   1.568   9.798
 1204SOL    HW1 4064   1.450   1.601   9.730
 1204SOL    HW2 4065   1.342   1.644   9.826
 1205SOL     OW 4066   1.279   0.930   9.983
 1205SOL    HW1 4067   1.352   0.868   9.990
 1205SOL    HW2 4068   1.313   1.001   9.929
 1206SOL     OW 4069   0.813   1.276  10.735
 1206SOL    HW1 4070   0.782   1.310  10.819
 1206SOL    HW2 4071   0.743   1.297  10.673
 1207SOL     OW 4072   0.672   1.623   9.465
 1207SOL    HW1 4073   0.683   1.636   9.371
 1207SOL    HW2 4074   0.617   1.546   9.472
 1208SOL     OW 4075   1.616   1.723  10.691
 1208SOL    HW1 4076   1.673   1.737  10.615
 1208SOL    HW2 4077   1.602   1.810  10.727
 1209SOL     OW 4078   1.839   0.153  10.275
 1209SOL    HW1 4079   1.868   0.073  10.231
 1209SOL    HW2 4080   1.752   0.170  10.238
 1210SOL     OW 4081   0.259   0.323  10.029
 1210SOL    HW1 4082   0.175   0.357   9.998
 1210SOL    HW2 4083   0.248   0.313  10.123
 1211SOL     OW 4084   1.208   1.604   9.342
 1211SOL    HW1 4085   1.197   1.512   9.369
 1211SOL    HW2 4086   1.143   1.617   9.274
 1212SOL     OW 4087   0.826   1.006  10.689
 1212SOL    HW1 4088   0.870   0.995  10.605
 1212SOL    HW2 4089   0.825   1.101  10.703
 1213SOL     OW 4090   0.915   0.910   9.600
 1213SOL    HW1 4091   0.976   0.943   9.534
 1213SOL    HW2 4092   0.964   0.842   9.646
 1214SOL     OW 4093   1.490   1.627   9.353
 1214SOL    HW1 4094   1.396   1.618   9.338
 1214SOL    HW2 4095   1.528   1.632   9.265
 1215SOL     OW 4096   0.364   1.319  10.808
 1215SOL    HW1 4097   0.352   1.392  10.747
 1215SOL    HW2 4098   0.296   1.256  10.785
 1216SOL     OW 4099   1.613   1.282  10.593
 1216SOL    HW1 4100   1.668   1.264  10.669
 1216SOL    HW2 4101   1.555   1.353  10.621
 1217SOL     OW 4102   1.057   1.109  10.018
 1217SOL    HW1 4103   0.985   1.059  10.056
 1217SOL    HW2 4104   1.121   1.043   9.991
 1218SOL     OW 4105   1.002   0.247  10.321
 1218SOL    HW1 4106   1.008   0.230  10.227
 1218SOL    HW2 4107   0.993   0.161  10.361
 1219SOL     OW 4108   0.606   1.488   9.792
 1219SOL    HW1 4109   0.652   1.439   9.724
 1219SOL    HW2 4110   0.529   1.524   9.748
 1220SOL     OW 4111   1.721   0.394  10.691
 1220SOL    HW1 4112   1.795   0.454  10.694
 1220SOL    HW2 4113   1.749   0.324  10.632
 1221SOL     OW 4114   0.252   1.343   9.584
 1221SOL    HW1 4115   0.158   1.339   9.572
 1221SOL    HW2 4116   0.263   1.375   9.674
 1222SOL     OW 4117   0.111   1.022  11.000
 1222SOL    HW1 4118   0.057   1.033  11.079
 1222SOL    HW2 4119   0.198   1.002  11.034
 1223SOL     OW 4120   0.653   0.199  10.803
 1223SOL    HW1 4121   0.731   0.172  10.755
 1223SOL    HW2 4122   0.686   0.229  10.888
 1224SOL     OW 4123   0.074   0.320   9.334
 1224SOL    HW1 4124   4.480   0.326   9.354
 1224SOL    HW2 4125   0.097   0.408   9.304
 1225SOL     OW 4126   1.427   0.850  10.710
 1225SOL    HW1 4127   1.378   0.919  10.664
 1225SOL    HW2 4128   1.517   0.858  10.676
 1226SOL     OW 4129   0.086   0.187   9.612
 1226SOL    HW1 4130   0.075   0.263   9.553
 1226SOL    HW2 4131   0.167   0.146   9.581
 1227SOL     OW 4132   1.178   1.337   9.427
 1227SOL    HW1 4133   1.087   1.307   9.429
 1227SOL    HW2 4134   1.205   1.337   9.519
 1228SOL     OW 4135   0.627   0.827  10.743
 1228SOL    HW1 4136   0.681   0.904  10.729
 1228SOL    HW2 4137   0.689   0.754  10.746
 1229SOL     OW 4138   1.484   1.781  10.292
 1229SOL    HW1 4139   1.508   1.844  10.224
 1229SOL    HW2 4140   1.567   1.760  10.335
 1230SOL     OW 4141   0.710   0.565  11.013
 1230SOL    HW1 4142   0.756   0.630  11.066
 1230SOL    HW2 4143   0.749   0.481  11.038
 1231SOL     OW 4144   0.382   1.743  10.876
 1231SOL    HW1 4145   0.306   1.800  10.865
 1231SOL    HW2 4146   0.353   1.675  10.937
 1232SOL     OW 4147   1.668   0.881  10.567
 1232SOL    HW1 4148   1.661   0.796  10.524
 1232SOL    HW2 4149   1.658   0.945  10.496
 1233SOL     OW 4150   1.220   0.333   9.756
 1233SOL    HW1 4151   1.288   0.266   9.743
 1233SOL    HW2 4152   1.248   0.381   9.834
 1234SOL     OW 4153   0.585   0.735   9.983
 1234SOL    HW1 4154   0.626   0.820   9.969
 1234SOL    HW2 4155   0.519   0.728   9.914
 1235SOL     OW 4156   1.745   0.312  10.957
 1235SOL    HW1 4157   1.728   0.351  10.871
 1235SOL    HW2 4158   1.668   0.336  11.009
 1236SOL     OW 4159   1.750   0.936  10.825
 1236SOL    HW1 4160   1.740   1.030  10.839
 1236SOL    HW2 4161   1.731   0.923  10.732
 1237SOL     OW 4162   0.864   1.366   9.349
 1237SOL    HW1 4163   0.825   1.394   9.432
 1237SOL    HW2 4164   0.880   1.447   9.301
 1238SOL     OW 4165   0.663   1.788  10.252
 1238SOL    HW1 4166   0.643   1.879  10.230
 1238SOL    HW2 4167   0.758   1.781  10.243
 1239SOL     OW 4168   0.869   0.970  10.164
 1239SOL    HW1 4169   0.919   0.897  10.201
 1239SOL    HW2 4170   0.832   1.015  10.240
 1240SOL     OW 4171   1.078   0.988   9.400
 1240SOL    HW1 4172   1.056   1.040   9.322
 1240SOL    HW2 4173   1.152   0.934   9.372
 1241SOL     OW 4174   1.852   1.554  10.153
 1241SOL    HW1 4175   1.773   1.543  10.101
 1241SOL    HW2 4176   1.841   1.494  10.226
 1242SOL     OW 4177   0.116   1.229   9.978
 1242SOL    HW1 4178   0.135   1.189  10.063
 1242SOL    HW2 4179   0.174   1.184   9.917
 1243SOL     OW 4180   0.681   1.397  10.943
 1243SOL    HW1 4181   0.612   1.345  10.983
 1243SOL    HW2 4182   0.639   1.481  10.921
 1244SOL     OW 4183   1.796   0.177  10.548
 1244SOL    HW1 4184   1.815   0.085  10.569
 1244SOL    HW2 4185   1.815   0.184  10.455
 1245SOL     OW 4186   0.443   0.429   9.844
 1245SOL    HW1 4187   0.457   0.360   9.779
 1245SOL    HW2 4188   0.382   0.391   9.907
 1246SOL     OW 4189   1.703   1.486  10.400
 1246SOL    HW1 4190   1.621   1.464  10.355
 1246SOL    HW2 4191   1.712   1.419  10.468
 1247SOL     OW 4192   0.301   0.506  10.563
 1247SOL    HW1 4193   0.369   0.455  10.608
 1247SOL    HW2 4194   0.333   0.514  10.473
 1248SOL     OW 4195   0.830   1.578   9.986
 1248SOL    HW1 4196   0.812   1.639   9.914
 1248SOL    HW2 4197   0.755   1.519   9.987
 1249SOL     OW 4198   1.430   0.218  10.427
 1249SOL    HW1 4199   1.469   0.150  10.482
 1249SOL    HW2 4200   1.381   0.272  10.489
 1250SOL     OW 4201   0.994   0.003  10.463
 1250SOL    HW1 4202   0.956   4.416  10.454
 1250SOL    HW2 4203   1.088   4.487  10.471
 1251SOL     OW 4204   0.773   1.333   9.628
 1251SOL    HW1 4205   0.745   1.242   9.635
 1251SOL    HW2 4206   0.855   1.337   9.678
 1252SOL     OW 4207   0.621   1.553  10.600
 1252SOL    HW1 4208   0.620   1.638  10.645
 1252SOL    HW2 4209   0.707   1.548  10.560
 1253SOL     OW 4210   1.338   0.051   9.469
 1253SOL    HW1 4211   1.376   4.476   9.424
 1253SOL    HW2 4212   1.262   0.016   9.514
 1254SOL     OW 4213   1.315   0.465   9.982
 1254SOL    HW1 4214   1.258   0.542   9.984
 1254SOL    HW2 4215   1.304   0.425  10.068
 1255SOL     OW 4216   1.585   0.198  10.179
 1255SOL    HW1 4217   1.526   0.214  10.253
 1255SOL    HW2 4218   1.587   0.282  10.133
 1256SOL     OW 4219   0.040   1.050   9.601
 1256SOL    HW1 4220   0.132   1.028   9.588
 1256SOL    HW2 4221   0.021   1.025   9.691
 1257SOL     OW 4222   0.888   1.657   9.649
 1257SOL    HW1 4223   0.814   1.640   9.591
 1257SOL    HW2 4224   0.859   1.730   9.704
 1258SOL     OW 4225   0.238   2.453   0.105
 1258SOL    HW1 4226   0.165   2.445   0.167
 1258SOL    HW2 4227   0.202   2.504   0.033
 1259SOL     OW 4228   0.212   2.136   0.991
 1259SOL    HW1 4229   0.249   2.110   1.076
 1259SOL    HW2 4230   0.138   2.078   0.978
 1260SOL     OW 4231   0.007   2.259   0.638
 1260SOL    HW1 4232   4.426   2.291   0.678
 1260SOL    HW2 4233   4.482   2.176   0.597
 1261SOL     OW 4234   0.569   3.155   1.180
 1261SOL    HW1 4235   0.482   3.160   1.140
 1261SOL    HW2 4236   0.584   3.243   1.215
 1262SOL     OW 4237   1.566   3.375   0.708
 1262SOL    HW1 4238   1.523   3.352   0.790
 1262SOL    HW2 4239   1.495   3.378   0.644
 1263SOL     OW 4240   1.131   2.561   0.698
 1263SOL    HW1 4241   1.180   2.642   0.685
 1263SOL    HW2 4242   1.085   2.573   0.780
 1264SOL     OW 4243   1.774   2.465   0.221
 1264SOL    HW1 4244   1.729   2.467   0.137
 1264SOL    HW2 4245   1.741   2.387   0.265
 1265SOL     OW 4246   0.750   3.001   1.043
 1265SOL    HW1 4247   0.683   3.038   1.101
 1265SOL    HW2 4248   0.788   3.078   1.000
 1266SOL     OW 4249   0.870   2.628   1.821
 1266SOL    HW1 4250   0.856   2.698   1.885
 1266SOL    HW2 4251   0.894   2.674   1.741
 1267SOL     OW 4252   0.684   2.862   0.646
 1267SOL    HW1 4253   0.751   2.852   0.714
 1267SOL    HW2 4254   0.616   2.915   0.687
 1268SOL     OW 4255   0.713   3.011   1.817
 1268SOL    HW1 4256   0.760   3.089   1.845
 1268SOL    HW2 4257   0.632   3.044   1.778
 1269SOL     OW 4258   0.334   3.280   1.068
 1269SOL    HW1 4259   0.252   3.261   1.022
 1269SOL    HW2 4260   0.383   3.335   1.007
 1270SOL     OW 4261   1.460   3.363   1.358
 1270SOL    HW1 4262   1.513   3.442   1.368
 1270SOL    HW2 4263   1.393   3.370   1.426
 1271SOL     OW 4264   0.447   2.265   1.485
 1271SOL    HW1 4265   0.527   2.212   1.493
 1271SOL    HW2 4266   0.376   2.203   1.495
 1272SOL     OW 4267   1.607   2.306   0.744
 1272SOL    HW1 4268   1.533   2.325   0.686
 1272SOL    HW2 4269   1.618   2.386   0.795
 1273SOL     OW 4270   0.245   3.554   0.480
 1273SOL    HW1 4271   0.232   3.640   0.518
 1273SOL    HW2 4272   0.310   3.567   0.411
 1274SOL     OW 4273   1.137   3.204   1.694
 1274SOL    HW1 4274   1.177   3.198   1.780
 1274SOL    HW2 4275   1.085   3.124   1.686
 1275SOL     OW 4276   0.248   3.289   0.527
 1275SOL    HW1 4277   0.240   3.384   0.527
 1275SOL    HW2 4278   0.185   3.260   0.594
 1276SOL     OW 4279   0.252   2.945   0.886
 1276SOL    HW1 4280   0.266   2.853   0.909
 1276SOL    HW2 4281   0.190   2.977   0.951
 1277SOL     OW 4282   0.610   3.653   1.430
 1277SOL    HW1 4283   0.527   3.635   1.474
 1277SOL    HW2 4284   0.631   3.743   1.455
 1278SOL     OW 4285   0.565   2.859   0.154
 1278SOL    HW1 4286   0.617   2.892   0.081
 1278SOL    HW2 4287   0.612   2.887   0.233
 1279SOL     OW 4288   1.590   1.988   1.464
 1279SOL    HW1 4289   1.614   2.067   1.416
 1279SOL    HW2 4290   1.578   2.017   1.554
 1280SOL     OW 4291   0.135   2.512   0.570
 1280SOL    HW1 4292   0.091   2.430   0.595
 1280SOL    HW2 4293   0.108   2.574   0.638
 1281SOL     OW 4294   1.844   3.619   0.330
 1281SOL    HW1 4295   1.911   3.591   0.392
 1281SOL    HW2 4296   1.865   3.710   0.311
 1282SOL     OW 4297   0.077   3.449   0.151
 1282SOL    HW1 4298   0.044   3.360   0.163
 1282SOL    HW2 4299   0.040   3.499   0.223
 1283SOL     OW 4300   1.689   2.781   0.643
 1283SOL    HW1 4301   1.770   2.736   0.617
 1283SOL    HW2 4302   1.665   2.833   0.567
 1284SOL     OW 4303   1.647   2.965   0.432
 1284SOL    HW1 4304   1.731   2.973   0.385
 1284SOL    HW2 4305   1.654   3.029   0.503
 1285SOL     OW 4306   0.111   2.629   1.575
 1285SOL    HW1 4307   0.199   2.620   1.538
 1285SOL    HW2 4308   0.105   2.720   1.603
 1286SOL     OW 4309   0.616   3.251   0.736
 1286SOL    HW1 4310   0.569   3.168   0.746
 1286SOL    HW2 4311   0.598   3.278   0.646
 1287SOL     OW 4312   1.287   3.099   1.422
 1287SOL    HW1 4313   1.318   3.031   1.362
 1287SOL    HW2 4314   1.346   3.093   1.497
 1288SOL     OW 4315   0.820   1.865   0.513
 1288SOL    HW1 4316   0.859   1.950   0.493
 1288SOL    HW2 4317   0.726   1.881   0.519
 1289SOL     OW 4318   0.177   2.800   1.279
 1289SOL    HW1 4319   0.268   2.781   1.259
 1289SOL    HW2 4320   0.133   2.796   1.194
 1290SOL     OW 4321   1.510   2.870   0.206
 1290SOL    HW1 4322   1.447   2.808   0.244
 1290SOL    HW2 4323   1.564   2.897   0.280
 1291SOL     OW 4324   1.186   3.672   1.624
 1291SOL    HW1 4325   1.192   3.731   1.549
 1291SOL    HW2 4326   1.202   3.585   1.588
 1292SOL     OW 4327   0.334   2.119   1.804
 1292SOL    HW1 4328   0.379   2.193   1.844
 1292SOL    HW2 4329   0.244   2.124   1.838
 1293SOL     OW 4330   1.467   3.281   0.949
 1293SOL    HW1 4331   1.400   3.297   1.015
 1293SOL    HW2 4332   1.454   3.190   0.923
 1294SOL     OW 4333   1.656   3.609   0.579
 1294SOL    HW1 4334   1.638   3.578   0.490
 1294SOL    HW2 4335   1.633   3.534   0.635
 1295SOL     OW 4336   0.595   2.576   0.267
 1295SOL    HW1 4337   0.598   2.660   0.221
 1295SOL    HW2 4338   0.532   2.590   0.338
 1296SOL     OW 4339   1.278   2.221   0.933
 1296SOL    HW1 4340   1.189   2.187   0.942
 1296SOL    HW2 4341   1.331   2.167   0.992
 1297SOL     OW 4342   1.582   3.534   0.313
 1297SOL    HW1 4343   1.673   3.561   0.306
 1297SOL    HW2 4344   1.554   3.516   0.224
 1298SOL     OW 4345   0.793   2.478   1.450
 1298SOL    HW1 4346   0.766   2.452   1.538
 1298SOL    HW2 4347   0.754   2.412   1.393
 1299SOL     OW 4348   1.393   2.336   1.678
 1299SOL    HW1 4349   1.397   2.380   1.763
 1299SOL    HW2 4350   1.452   2.262   1.686
 1300SOL     OW 4351   0.952   2.748   1.584
 1300SOL    HW1 4352   1.007   2.679   1.547
 1300SOL    HW2 4353   0.905   2.784   1.509
 1301SOL     OW 4354   0.992   2.275   1.236
 1301SOL    HW1 4355   0.905   2.293   1.271
 1301SOL    HW2 4356   0.977   2.229   1.154
 1302SOL     OW 4357   1.052   2.565   0.426
 1302SOL    HW1 4358   1.071   2.557   0.520
 1302SOL    HW2 4359   0.969   2.518   0.414
 1303SOL     OW 4360   0.094   2.690   0.785
 1303SOL    HW1 4361   0.179   2.679   0.827
 1303SOL    HW2 4362   0.033   2.700   0.858
 1304SOL     OW 4363   0.122   3.721   1.578
 1304SOL    HW1 4364   0.115   3.697   1.671
 1304SOL    HW2 4365   0.045   3.682   1.538
 1305SOL     OW 4366   0.892   2.216   0.212
 1305SOL    HW1 4367   0.935   2.275   0.150
 1305SOL    HW2 4368   0.904   2.129   0.174
 1306SOL     OW 4369   1.709   2.442   1.831
 1306SOL    HW1 4370   1.671   2.515   1.783
 1306SOL    HW2 4371   1.725   2.375   1.765
 1307SOL     OW 4372   1.379   3.003   0.541
 1307SOL    HW1 4373   1.457   2.991   0.487
 1307SOL    HW2 4374   1.326   3.065   0.492
 1308SOL     OW 4375   0.553   2.041   0.894
 1308SOL    HW1 4376   0.555   2.073   0.985
 1308SOL    HW2 4377   0.553   2.120   0.841
 1309SOL     OW 4378   1.000   3.305   0.472
 1309SOL    HW1 4379   0.968   3.379   0.422
 1309SOL    HW2 4380   0.979   3.325   0.563
 1310SOL     OW 4381   0.357   3.675   0.862
 1310SOL    HW1 4382   0.399   3.590   0.872
 1310SOL    HW2 4383   0.428   3.738   0.879
 1311SOL     OW 4384   1.801   2.914   0.870
 1311SOL    HW1 4385   1.748   2.896   0.792
 1311SOL    HW2 4386   1.737   2.921   0.941
 1312SOL     OW 4387   1.228   3.401   1.513
 1312SOL    HW1 4388   1.215   3.329   1.574
 1312SOL    HW2 4389   1.161   3.387   1.445
 1313SOL     OW 4390   0.308   2.816   0.282
 1313SOL    HW1 4391   0.390   2.843   0.241
 1313SOL    HW2 4392   0.313   2.720   0.284
 1314SOL     OW 4393   1.480   2.607   0.724
 1314SOL    HW1 4394   1.474   2.567   0.811
 1314SOL    HW2 4395   1.558   2.663   0.729
 1315SOL     OW 4396   0.470   3.126   1.735
 1315SOL    HW1 4397   0.443   3.133   1.643
 1315SOL    HW2 4398   0.388   3.128   1.784
 1316SOL     OW 4399   1.108   3.642   0.226
 1316SOL    HW1 4400   1.047   3.592   0.280
 1316SOL    HW2 4401   1.151   3.577   0.171
 1317SOL     OW 4402   0.199   2.138   1.484
 1317SOL    HW1 4403   0.142   2.214   1.492
 1317SOL    HW2 4404   0.181   2.087   1.563
 1318SOL     OW 4405   1.628   3.235   0.090
 1318SOL    HW1 4406   1.585   3.320   0.079
 1318SOL    HW2 4407   1.562   3.172   0.060
 1319SOL     OW 4408   0.468   3.604   0.317
 1319SOL    HW1 4409   0.509   3.661   0.382
 1319SOL    HW2 4410   0.540   3.570   0.264
 1320SOL     OW 4411   1.401   1.969   0.434
 1320SOL    HW1 4412   1.394   1.948   0.341
 1320SOL    HW2 4413   1.495   1.978   0.450
 1321SOL     OW 4414   0.259   3.654   1.226
 1321SOL    HW1 4415   0.303   3.577   1.262
 1321SOL    HW2 4416   0.220   3.624   1.144
 1322SOL     OW 4417   0.938   3.561   0.897
 1322SOL    HW1 4418   1.016   3.511   0.919
 1322SOL    HW2 4419   0.896   3.511   0.827
 1323SOL     OW 4420   0.392   2.557   0.466
 1323SOL    HW1 4421   0.417   2.465   0.480
 1323SOL    HW2 4422   0.302   2.563   0.497
 1324SOL     OW 4423   1.529   2.085   1.726
 1324SOL    HW1 4424   1.537   2.104   1.819
 1324SOL    HW2 4425   1.462   2.017   1.721
 1325SOL     OW 4426   0.618   1.967   0.124
 1325SOL    HW1 4427   0.706   1.932   0.121
 1325SOL    HW2 4428   0.580   1.947   0.038
 1326SOL     OW 4429   0.765   2.141   1.755
 1326SOL    HW1 4430   0.844   2.087   1.753
 1326SOL    HW2 4431   0.718   2.112   1.833
 1327SOL     OW 4432   0.877   3.385   1.194
 1327SOL    HW1 4433   0.859   3.348   1.108
 1327SOL    HW2 4434   0.946   3.330   1.230
 1328SOL     OW 4435   1.339   2.451   1.432
 1328SOL    HW1 4436   1.370   2.419   1.517
 1328SOL    HW2 4437   1.377   2.539   1.424
 1329SOL     OW 4438   0.818   3.254   0.944
 1329SOL    HW1 4439   0.902   3.242   0.900
 1329SOL    HW2 4440   0.754   3.258   0.873
 1330SOL     OW 4441   0.928   2.371   0.902
 1330SOL    HW1 4442   0.904   2.363   0.810
 1330SOL    HW2 4443   0.959   2.284   0.927
 1331SOL     OW 4444   0.556   1.923   0.502
 1331SOL    HW1 4445   0.474   1.920   0.552
 1331SOL    HW2 4446   0.549   2.002   0.448
 1332SOL     OW 4447   1.423   3.060   0.026
 1332SOL    HW1 4448   1.453   2.989   0.083
 1332SOL    HW2 4449   1.340   3.089   0.066
 1333SOL     OW 4450   0.285   1.911   0.191
 1333SOL    HW1 4451   0.332   1.961   0.124
 1333SOL    HW2 4452   0.349   1.847   0.222
 1334SOL     OW 4453   0.942   2.110   0.462
 1334SOL    HW1 4454   0.915   2.153   0.381
 1334SOL    HW2 4455   1.036   2.125   0.467
 1335SOL     OW 4456   1.080   2.545   1.458
 1335SOL    HW1 4457   1.014   2.476   1.462
 1335SOL    HW2 4458   1.164   2.498   1.452
 1336SOL     OW 4459   1.221   3.433   0.795
 1336SOL    HW1 4460   1.236   3.498   0.726
 1336SOL    HW2 4461   1.291   3.449   0.858
 1337SOL     OW 4462   0.471   3.014   0.737
 1337SOL    HW1 4463   0.402   2.995   0.800
 1337SOL    HW2 4464   0.429   3.004   0.651
 1338SOL     OW 4465   1.267   3.655   0.609
 1338SOL    HW1 4466   1.315   3.716   0.554
 1338SOL    HW2 4467   1.200   3.709   0.651
 1339SOL     OW 4468   1.009   2.396   0.044
 1339SOL    HW1 4469   0.976   2.484   0.029
 1339SOL    HW2 4470   1.090   2.409   0.093
 1340SOL     OW 4471   0.081   2.382   1.411
 1340SOL    HW1 4472   0.144   2.376   1.339
 1340SOL    HW2 4473   0.066   2.476   1.422
 1341SOL     OW 4474   0.559   2.090   1.168
 1341SOL    HW1 4475   0.604   2.014   1.205
 1341SOL    HW2 4476   0.468   2.079   1.194
 1342SOL     OW 4477   0.867   2.322   0.640
 1342SOL    HW1 4478   0.823   2.376   0.574
 1342SOL    HW2 4479   0.888   2.241   0.593
 1343SOL     OW 4480   1.016   1.916   0.749
 1343SOL    HW1 4481   0.957   1.910   0.674
 1343SOL    HW2 4482   0.994   1.841   0.804
 1344SOL     OW 4483   1.439   3.023   0.856
 1344SOL    HW1 4484   1.368   2.959   0.856
 1344SOL    HW2 4485   1.464   3.033   0.765
 1345SOL     OW 4486   1.464   2.470   0.973
 1345SOL    HW1 4487   1.411   2.391   0.974
 1345SOL    HW2 4488   1.521   2.462   1.049
 1346SOL     OW 4489   1.849   2.672   0.386
 1346SOL    HW1 4490   1.906   2.621   0.443
 1346SOL    HW2 4491   1.821   2.610   0.318
 1347SOL     OW 4492   0.496   3.285   0.174
 1347SOL    HW1 4493   0.416   3.260   0.221
 1347SOL    HW2 4494   0.493   3.234   0.093
 1348SOL     OW 4495   1.673   3.126   0.646
 1348SOL    HW1 4496   1.768   3.128   0.658
 1348SOL    HW2 4497   1.644   3.215   0.665
 1349SOL     OW 4498   1.390   2.433   0.081
 1349SOL    HW1 4499   1.329   2.414   0.152
 1349SOL    HW2 4500   1.451   2.360   0.082
 1350SOL     OW 4501   0.528   2.126   0.326
 1350SOL    HW1 4502   0.557   2.065   0.258
 1350SOL    HW2 4503   0.508   2.207   0.280
 1351SOL     OW 4504   1.750   3.103   1.567
 1351SOL    HW1 4505   1.837   3.064   1.563
 1351SOL    HW2 4506   1.766   3.193   1.596
 1352SOL     OW 4507   1.056   3.216   1.333
 1352SOL    HW1 4508   0.981   3.185   1.383
 1352SOL    HW2 4509   1.132   3.174   1.374
 1353SOL     OW 4510   1.609   3.489   1.657
 1353SOL    HW1 4511   1.601   3.522   1.567
 1353SOL    HW2 4512   1.691   3.440   1.657
 1354SOL     OW 4513   1.133   3.069   1.104
 1354SOL    HW1 4514   1.072   3.106   1.168
 1354SOL    HW2 4515   1.102   3.102   1.019
 1355SOL     OW 4516   1.626   2.959   1.076
 1355SOL    HW1 4517   1.620   3.022   1.148
 1355SOL    HW2 4518   1.549   2.977   1.022
 1356SOL     OW 4519   0.917   1.958   1.393
 1356SOL    HW1 4520   0.940   1.938   1.303
 1356SOL    HW2 4521   0.997   1.997   1.430
 1357SOL     OW 4522   0.984   2.977   1.723
 1357SOL    HW1 4523   0.893   2.993   1.747
 1357SOL    HW2 4524   0.981   2.898   1.668
 1358SOL     OW 4525   0.712   2.921   0.375
 1358SOL    HW1 4526   0.699   2.903   0.468
 1358SOL    HW2 4527   0.786   2.867   0.350
 1359SOL     OW 4528   0.432   2.692   1.246
 1359SOL    HW1 4529   0.502   2.705   1.310
 1359SOL    HW2 4530   0.376   2.624   1.285
 1360SOL     OW 4531   1.264   2.237   1.278
 1360SOL    HW1 4532   1.297   2.315   1.324
 1360SOL    HW2 4533   1.174   2.259   1.256
 1361SOL     OW 4534   0.064   3.437   1.346
 1361SOL    HW1 4535   0.038   3.528   1.330
 1361SOL    HW2 4536   0.160   3.440   1.350
 1362SOL     OW 4537   0.339   2.985   0.500
 1362SOL    HW1 4538   0.343   3.060   0.440
 1362SOL    HW2 4539   0.332   2.909   0.442
 1363SOL     OW 4540   0.559   2.391   0.854
 1363SOL    HW1 4541   0.572   2.452   0.781
 1363SOL    HW2 4542   0.621   2.420   0.920
 1364SOL     OW 4543   1.246   3.208   0.398
 1364SOL    HW1 4544   1.302   3.281   0.425
 1364SOL    HW2 4545   1.159   3.232   0.429
 1365SOL     OW 4546   1.285   3.321   1.147
 1365SOL    HW1 4547   1.340   3.324   1.225
 1365SOL    HW2 4548   1.230   3.245   1.160
 1366SOL     OW 4549   1.581   2.484   0.482
 1366SOL    HW1 4550   1.530   2.531   0.548
 1366SOL    HW2 4551   1.616   2.552   0.425
 1367SOL     OW 4552   0.345   3.397   1.311
 1367SOL    HW1 4553   0.332   3.349   1.230
 1367SOL    HW2 4554   0.440   3.406   1.319
 1368SOL     OW 4555   0.489   2.616   1.672
 1368SOL    HW1 4556   0.518   2.655   1.590
 1368SOL    HW2 4557   0.547   2.541   1.686
 1369SOL     OW 4558   1.604   2.644   1.685
 1369SOL    HW1 4559   1.518   2.685   1.678
 1369SOL    HW2 4560   1.656   2.685   1.616
 1370SOL     OW 4561   0.996   1.991   1.753
 1370SOL    HW1 4562   1.055   2.063   1.729
 1370SOL    HW2 4563   1.043   1.912   1.728
 1371SOL     OW 4564   0.496   1.903   1.749
 1371SOL    HW1 4565   0.453   1.847   1.684
 1371SOL    HW2 4566   0.439   1.979   1.757
 1372SOL     OW 4567   0.591   2.736   1.025
 1372SOL    HW1 4568   0.622   2.827   1.027
 1372SOL    HW2 4569   0.535   2.729   1.102
 1373SOL     OW 4570   1.353   2.721   1.026
 1373SOL    HW1 4571   1.268   2.708   0.983
 1373SOL    HW2 4572   1.396   2.636   1.018
 1374SOL     OW 4573   1.198   2.386   0.269
 1374SOL    HW1 4574   1.208   2.309   0.325
 1374SOL    HW2 4575   1.156   2.451   0.325
 1375SOL     OW 4576   0.301   2.050   1.242
 1375SOL    HW1 4577   0.262   2.082   1.323
 1375SOL    HW2 4578   0.284   1.955   1.243
 1376SOL     OW 4579   0.026   3.174   1.287
 1376SOL    HW1 4580   0.068   3.126   1.358
 1376SOL    HW2 4581   0.036   3.266   1.311
 1377SOL     OW 4582   0.723   2.491   1.055
 1377SOL    HW1 4583   0.799   2.476   1.000
 1377SOL    HW2 4584   0.696   2.581   1.034
 1378SOL     OW 4585   1.736   2.823   1.855
 1378SOL    HW1 4586   1.692   2.758   1.801
 1378SOL    HW2 4587   1.676   2.838   1.928
 1379SOL     OW 4588   0.315   1.932   0.620
 1379SOL    HW1 4589   0.288   2.020   0.645
 1379SOL    HW2 4590   0.313   1.882   0.702
 1380SOL     OW 4591   1.620   2.238   0.363
 1380SOL    HW1 4592   1.649   2.174   0.428
 1380SOL    HW2 4593   1.597   2.315   0.414
 1381SOL     OW 4594   1.028   2.620   0.959
 1381SOL    HW1 4595   1.022   2.638   1.053
 1381SOL    HW2 4596   1.002   2.529   0.949
 1382SOL     OW 4597   0.983   3.429   1.719
 1382SOL    HW1 4598   0.967   3.472   1.635
 1382SOL    HW2 4599   1.025   3.347   1.696
 1383SOL     OW 4600   1.853   3.365   1.605
 1383SOL    HW1 4601   1.873   3.392   1.515
 1383SOL    HW2 4602   1.934   3.381   1.653
 1384SOL     OW 4603   0.347   2.797   1.817
 1384SOL    HW1 4604   0.418   2.828   1.873
 1384SOL    HW2 4605   0.387   2.728   1.764
 1385SOL     OW 4606   1.527   2.162   0.113
 1385SOL    HW1 4607   1.472   2.085   0.129
 1385SOL    HW2 4608   1.565   2.182   0.199
 1386SOL     OW 4609   1.285   2.680   0.033
 1386SOL    HW1 4610   1.328   2.596   0.043
 1386SOL    HW2 4611   1.325   2.718  11.054
 1387SOL     OW 4612   1.068   3.199   0.855
 1387SOL    HW1 4613   1.071   3.127   0.792
 1387SOL    HW2 4614   1.127   3.265   0.820
 1388SOL     OW 4615   0.319   2.673   0.943
 1388SOL    HW1 4616   0.413   2.690   0.944
 1388SOL    HW2 4617   0.312   2.581   0.969
 1389SOL     OW 4618   0.326   2.389   0.986
 1389SOL    HW1 4619   0.289   2.302   0.971
 1389SOL    HW2 4620   0.406   2.390   0.933
 1390SOL     OW 4621   1.134   2.236   1.684
 1390SOL    HW1 4622   1.086   2.291   1.747
 1390SOL    HW2 4623   1.221   2.276   1.680
 1391SOL     OW 4624   1.160   2.062   1.471
 1391SOL    HW1 4625   1.149   2.126   1.542
 1391SOL    HW2 4626   1.203   2.112   1.401
 1392SOL     OW 4627   4.499   3.185   0.207
 1392SOL    HW1 4628   4.406   3.205   0.198
 1392SOL    HW2 4629   0.002   3.093   0.233
 1393SOL     OW 4630   0.100   3.633   0.940
 1393SOL    HW1 4631   0.060   3.589   0.866
 1393SOL    HW2 4632   0.189   3.656   0.910
 1394SOL     OW 4633   0.494   3.436   0.908
 1394SOL    HW1 4634   0.562   3.499   0.931
 1394SOL    HW2 4635   0.538   3.375   0.849
 1395SOL     OW 4636   0.979   2.652   1.224
 1395SOL    HW1 4637   1.037   2.631   1.298
 1395SOL    HW2 4638   0.894   2.614   1.249
 1396SOL     OW 4639   0.028   2.423   1.095
 1396SOL    HW1 4640   0.117   2.398   1.071
 1396SOL    HW2 4641   0.010   2.375   1.176
 1397SOL     OW 4642   0.179   2.388   1.717
 1397SOL    HW1 4643   0.261   2.357   1.678
 1397SOL    HW2 4644   0.158   2.467   1.668
 1398SOL     OW 4645   1.378   2.798   1.657
 1398SOL    HW1 4646   1.399   2.892   1.654
 1398SOL    HW2 4647   1.375   2.771   1.566
 1399SOL     OW 4648   0.817   2.437   0.370
 1399SOL    HW1 4649   0.826   2.361   0.312
 1399SOL    HW2 4650   0.742   2.485   0.335
 1400SOL     OW 4651   1.639   2.466   1.184
 1400SOL    HW1 4652   1.631   2.404   1.256
 1400SOL    HW2 4653   1.728   2.453   1.151
 1401SOL     OW 4654   0.275   3.424   1.740
 1401SOL    HW1 4655   0.214   3.475   1.793
 1401SOL    HW2 4656   0.257   3.333   1.764
 1402SOL     OW 4657   0.701   2.313   1.258
 1402SOL    HW1 4658   0.649   2.237   1.228
 1402SOL    HW2 4659   0.697   2.375   1.185
 1403SOL     OW 4660   0.925   3.541   1.469
 1403SOL    HW1 4661   0.900   3.503   1.385
 1403SOL    HW2 4662   0.918   3.635   1.455
 1404SOL     OW 4663   0.474   2.344   0.174
 1404SOL    HW1 4664   0.531   2.416   0.201
 1404SOL    HW2 4665   0.390   2.385   0.154
 1405SOL     OW 4666   0.161   3.004   1.458
 1405SOL    HW1 4667   0.144   2.961   1.541
 1405SOL    HW2 4668   0.168   2.932   1.395
 1406SOL     OW 4669   1.324   2.907   1.221
 1406SOL    HW1 4670   1.345   2.843   1.153
 1406SOL    HW2 4671   1.256   2.962   1.182
 1407SOL     OW 4672   1.308   2.714   0.311
 1407SOL    HW1 4673   1.233   2.679   0.359
 1407SOL    HW2 4674   1.287   2.698   0.219
 1408SOL     OW 4675   1.777   3.602   1.154
 1408SOL    HW1 4676   1.836   3.628   1.084
 1408SOL    HW2 4677   1.750   3.513   1.131
 1409SOL     OW 4678   1.240   3.595   1.110
 1409SOL    HW1 4679   1.323   3.618   1.066
 1409SOL    HW2 4680   1.248   3.502   1.129
 1410SOL     OW 4681   0.069   3.047   1.051
 1410SOL    HW1 4682   0.057   3.077   1.141
 1410SOL    HW2 4683   0.036   3.119   0.997
 1411SOL     OW 4684   0.679   3.531   1.735
 1411SOL    HW1 4685   0.620   3.605   1.726
 1411SOL    HW2 4686   0.745   3.544   1.667
 1412SOL     OW 4687   0.920   1.954   0.101
 1412SOL    HW1 4688   0.968   1.916   0.027
 1412SOL    HW2 4689   0.959   1.914   0.179
 1413SOL     OW 4690   1.721   2.012   0.507
 1413SOL    HW1 4691   1.791   1.996   0.444
 1413SOL    HW2 4692   1.705   1.926   0.547
 1414SOL     OW 4693   1.391   3.430   0.488
 1414SOL    HW1 4694   1.452   3.462   0.422
 1414SOL    HW2 4695   1.343   3.507   0.517
 1415SOL     OW 4696   0.117   3.669   1.849
 1415SOL    HW1 4697   0.076   3.597   1.897
 1415SOL    HW2 4698   0.180   3.706   1.909
 1416SOL     OW 4699   1.278   2.789   0.672
 1416SOL    HW1 4700   1.351   2.728   0.680
 1416SOL    HW2 4701   1.311   2.861   0.618
 1417SOL     OW 4702   0.809   3.138   1.427
 1417SOL    HW1 4703   0.781   3.178   1.509
 1417SOL    HW2 4704   0.738   3.158   1.365
 1418SOL     OW 4705   0.674   3.486   0.169
 1418SOL    HW1 4706   0.694   3.490   0.076
 1418SOL    HW2 4707   0.617   3.409   0.178
 1419SOL     OW 4708   1.622   3.589   1.391
 1419SOL    HW1 4709   1.674   3.594   1.311
 1419SOL    HW2 4710   1.608   3.680   1.417
 1420SOL     OW 4711   1.849   2.044   0.966
 1420SOL    HW1 4712   1.883   1.958   0.943
 1420SOL    HW2 4713   1.763   2.048   0.924
 1421SOL     OW 4714   0.262   2.181   0.718
 1421SOL    HW1 4715   0.179   2.220   0.691
 1421SOL    HW2 4716   0.252   2.167   0.812
 1422SOL     OW 4717   1.223   3.461   0.055
 1422SOL    HW1 4718   1.211   3.369   0.075
 1422SOL    HW2 4719   1.158   3.480  11.087
 1423SOL     OW 4720   0.827   2.870   1.373
 1423SOL    HW1 4721   0.869   2.865   1.288
 1423SOL    HW2 4722   0.823   2.963   1.393
 1424SOL     OW 4723   0.914   2.768   0.280
 1424SOL    HW1 4724   0.979   2.809   0.223
 1424SOL    HW2 4725   0.964   2.706   0.333
 1425SOL     OW 4726   1.497   3.484   0.049
 1425SOL    HW1 4727   1.402   3.477   0.048
 1425SOL    HW2 4728   1.522   3.498  11.058
 1426SOL     OW 4729   0.373   3.172   1.490
 1426SOL    HW1 4730   0.355   3.251   1.439
 1426SOL    HW2 4731   0.299   3.114   1.472
 1427SOL     OW 4732   1.610   3.146   1.280
 1427SOL    HW1 4733   1.668   3.131   1.356
 1427SOL    HW2 4734   1.549   3.213   1.310
 1428SOL     OW 4735   1.057   2.971   0.708
 1428SOL    HW1 4736   0.986   2.920   0.747
 1428SOL    HW2 4737   1.121   2.905   0.680
 1429SOL     OW 4738   1.022   2.103   0.966
 1429SOL    HW1 4739   1.018   2.056   0.883
 1429SOL    HW2 4740   1.018   2.034   1.033
 1430SOL     OW 4741   0.604   3.351   0.482
 1430SOL    HW1 4742   0.646   3.301   0.412
 1430SOL    HW2 4743   0.528   3.391   0.440
 1431SOL     OW 4744   1.721   2.259   1.381
 1431SOL    HW1 4745   1.796   2.318   1.383
 1431SOL    HW2 4746   1.749   2.186   1.325
 1432SOL     OW 4747   0.266   3.187   0.284
 1432SOL    HW1 4748   0.179   3.195   0.246
 1432SOL    HW2 4749   0.260   3.229   0.370
 1433SOL     OW 4750   0.116   2.869   1.692
 1433SOL    HW1 4751   0.052   2.913   1.748
 1433SOL    HW2 4752   0.194   2.861   1.747
 1434SOL     OW 4753   0.676   2.061   1.499
 1434SOL    HW1 4754   0.759   2.037   1.459
 1434SOL    HW2 4755   0.699   2.090   1.587
 1435SOL     OW 4756   0.059   2.205   0.002
 1435SOL    HW1 4757   4.475   2.182   0.042
 1435SOL    HW2 4758   0.075   2.295   0.032
 1436SOL     OW 4759   1.428   2.720   1.399
 1436SOL    HW1 4760   1.379   2.781   1.344
 1436SOL    HW2 4761   1.517   2.723   1.364
 1437SOL     OW 4762   0.078   2.029   0.308
 1437SOL    HW1 4763   0.085   2.116   0.270
 1437SOL    HW2 4764   0.153   1.981   0.274
 1438SOL     OW 4765   1.185   3.199   0.123
 1438SOL    HW1 4766   1.091   3.185   0.113
 1438SOL    HW2 4767   1.202   3.190   0.217
 1439SOL     OW 4768   0.626   2.693   1.434
 1439SOL    HW1 4769   0.683   2.769   1.420
 1439SOL    HW2 4770   0.686   2.619   1.439
 1440SOL     OW 4771   1.483   3.643   0.981
 1440SOL    HW1 4772   1.505   3.705   0.912
 1440SOL    HW2 4773   1.567   3.619   1.020
 1441SOL     OW 4774   0.711   2.426   1.704
 1441SOL    HW1 4775   0.760   2.485   1.761
 1441SOL    HW2 4776   0.735   2.338   1.734
 1442SOL     OW 4777   1.473   3.059   1.630
 1442SOL    HW1 4778   1.461   3.073   1.724
 1442SOL    HW2 4779   1.566   3.076   1.615
 1443SOL     OW 4780   0.377   3.607   1.565
 1443SOL    HW1 4781   0.293   3.648   1.547
 1443SOL    HW2 4782   0.355   3.528   1.615
 1444SOL     OW 4783   1.668   2.743   1.254
 1444SOL    HW1 4784   1.659   2.658   1.212
 1444SOL    HW2 4785   1.657   2.806   1.183
 1445SOL     OW 4786   1.215   2.179   0.460
 1445SOL    HW1 4787   1.279   2.108   0.451
 1445SOL    HW2 4788   1.245   2.229   0.536
 1446SOL     OW 4789   0.588   2.597   0.669
 1446SOL    HW1 4790   0.626   2.684   0.657
 1446SOL    HW2 4791   0.521   2.590   0.602
 1447SOL     OW 4792   1.746   2.237   1.659
 1447SOL    HW1 4793   1.743   2.241   1.563
 1447SOL    HW2 4794   1.677   2.175   1.682
 1448SOL     OW 4795   1.746   2.796   1.511
 1448SOL    HW1 4796   1.738   2.891   1.524
 1448SOL    HW2 4797   1.730   2.783   1.417
 1449SOL     OW 4798   0.911   3.217   0.076
 1449SOL    HW1 4799   0.843   3.211   0.143
 1449SOL    HW2 4800   0.889   3.297   0.028
 1450SOL     OW 4801   0.663   3.649   0.943
 1450SOL    HW1 4802   0.643   3.740   0.920
 1450SOL    HW2 4803   0.758   3.642   0.934
 1451SOL     OW 4804   0.869   2.831   0.854
 1451SOL    HW1 4805   0.918   2.759   0.892
 1451SOL    HW2 4806   0.832   2.877   0.929
 1452SOL     OW 4807   1.077   2.851   0.082
 1452SOL    HW1 4808   1.052   2.881  11.095
 1452SOL    HW2 4809   1.153   2.795   0.067
 1453SOL     OW 4810   1.850   3.416   0.844
 1453SOL    HW1 4811   1.773   3.404   0.789
 1453SOL    HW2 4812   1.841   3.350   0.913
 1454SOL     OW 4813   0.233   3.166   1.860
 1454SOL    HW1 4814   0.151   3.119   1.841
 1454SOL    HW2 4815   0.233   3.177   1.955
 1455SOL     OW 4816   0.113   3.087   0.670
 1455SOL    HW1 4817   0.137   3.048   0.754
 1455SOL    HW2 4818   0.177   3.051   0.608
 1456SOL     OW 4819   0.685   3.268   1.631
 1456SOL    HW1 4820   0.605   3.224   1.660
 1456SOL    HW2 4821   0.679   3.356   1.668
 1457SOL     OW 4822   1.809   2.059   1.231
 1457SOL    HW1 4823   1.842   1.974   1.262
 1457SOL    HW2 4824   1.821   2.056   1.136
 1458SOL     OW 4825   0.433   2.298   0.526
 1458SOL    HW1 4826   0.464   2.225   0.472
 1458SOL    HW2 4827   0.384   2.256   0.596
 1459SOL     OW 4828   1.698   3.349   1.094
 1459SOL    HW1 4829   1.618   3.329   1.045
 1459SOL    HW2 4830   1.704   3.280   1.159
 1460SOL     OW 4831   0.294   2.350   1.249
 1460SOL    HW1 4832   0.369   2.307   1.292
 1460SOL    HW2 4833   0.324   2.367   1.160
 1461SOL     OW 4834   0.829   3.440   0.677
 1461SOL    HW1 4835   0.809   3.498   0.604
 1461SOL    HW2 4836   0.754   3.380   0.680
 1462SOL     OW 4837   1.432   2.090   1.117
 1462SOL    HW1 4838   1.460   2.011   1.162
 1462SOL    HW2 4839   1.380   2.137   1.181
 1463SOL     OW 4840   1.009   1.879   1.139
 1463SOL    HW1 4841   0.954   1.812   1.097
 1463SOL    HW2 4842   1.097   1.841   1.141
 1464SOL     OW 4843   0.771   3.189   0.320
 1464SOL    HW1 4844   0.743   3.099   0.335
 1464SOL    HW2 4845   0.853   3.197   0.368
 1465SOL     OW 4846   0.621   3.417   1.287
 1465SOL    HW1 4847   0.622   3.499   1.336
 1465SOL    HW2 4848   0.708   3.411   1.248
 1466SOL     OW 4849   1.350   1.918   0.165
 1466SOL    HW1 4850   1.371   1.867   0.087
 1466SOL    HW2 4851   1.264   1.888   0.192
 1467SOL     OW 4852   1.296   2.324   0.679
 1467SOL    HW1 4853   1.243   2.404   0.685
 1467SOL    HW2 4854   1.291   2.286   0.767
 1468SOL     OW 4855   1.589   2.059   0.881
 1468SOL    HW1 4856   1.531   2.081   0.954
 1468SOL    HW2 4857   1.587   2.137   0.825
 1469SOL     OW 4858   0.036   2.916   0.287
 1469SOL    HW1 4859   0.131   2.899   0.284
 1469SOL    HW2 4860   0.010   2.889   0.375
 1470SOL     OW 4861   0.888   3.520   0.346
 1470SOL    HW1 4862   0.814   3.500   0.289
 1470SOL    HW2 4863   0.858   3.592   0.401
 1471SOL     OW 4864   0.245   2.493   1.985
 1471SOL    HW1 4865   0.171   2.466   2.040
 1471SOL    HW2 4866   0.216   2.475   1.895
 1472SOL     OW 4867   0.213   2.136   2.853
 1472SOL    HW1 4868   0.249   2.110   2.937
 1472SOL    HW2 4869   0.137   2.079   2.840
 1473SOL     OW 4870   0.006   2.259   2.502
 1473SOL    HW1 4871   4.425   2.292   2.540
 1473SOL    HW2 4872   4.480   2.179   2.456
 1474SOL     OW 4873   0.569   3.155   3.042
 1474SOL    HW1 4874   0.482   3.160   3.002
 1474SOL    HW2 4875   0.584   3.243   3.077
 1475SOL     OW 4876   1.566   3.375   2.570
 1475SOL    HW1 4877   1.523   3.353   2.653
 1475SOL    HW2 4878   1.495   3.379   2.506
 1476SOL     OW 4879   1.132   2.560   2.560
 1476SOL    HW1 4880   1.180   2.642   2.547
 1476SOL    HW2 4881   1.084   2.573   2.642
 1477SOL     OW 4882   1.777   2.464   2.089
 1477SOL    HW1 4883   1.749   2.460   1.997
 1477SOL    HW2 4884   1.738   2.387   2.130
 1478SOL     OW 4885   0.750   3.002   2.906
 1478SOL    HW1 4886   0.683   3.038   2.963
 1478SOL    HW2 4887   0.788   3.078   2.862
 1479SOL     OW 4888   0.871   2.628   3.683
 1479SOL    HW1 4889   0.855   2.698   3.747
 1479SOL    HW2 4890   0.894   2.673   3.602
 1480SOL     OW 4891   0.685   2.862   2.508
 1480SOL    HW1 4892   0.751   2.852   2.576
 1480SOL    HW2 4893   0.616   2.915   2.548
 1481SOL     OW 4894   0.713   3.011   3.679
 1481SOL    HW1 4895   0.760   3.089   3.707
 1481SOL    HW2 4896   0.632   3.044   3.640
 1482SOL     OW 4897   0.334   3.281   2.931
 1482SOL    HW1 4898   0.253   3.260   2.884
 1482SOL    HW2 4899   0.383   3.335   2.869
 1483SOL     OW 4900   1.460   3.363   3.220
 1483SOL    HW1 4901   1.513   3.442   3.230
 1483SOL    HW2 4902   1.393   3.370   3.288
 1484SOL     OW 4903   0.448   2.265   3.347
 1484SOL    HW1 4904   0.527   2.212   3.355
 1484SOL    HW2 4905   0.376   2.203   3.357
 1485SOL     OW 4906   1.603   2.308   2.605
 1485SOL    HW1 4907   1.528   2.329   2.549
 1485SOL    HW2 4908   1.619   2.387   2.656
 1486SOL     OW 4909   0.246   3.553   2.337
 1486SOL    HW1 4910   0.229   3.638   2.377
 1486SOL    HW2 4911   0.317   3.569   2.275
 1487SOL     OW 4912   1.137   3.204   3.556
 1487SOL    HW1 4913   1.177   3.198   3.642
 1487SOL    HW2 4914   1.085   3.124   3.548
 1488SOL     OW 4915   0.255   3.288   2.388
 1488SOL    HW1 4916   0.243   3.382   2.390
 1488SOL    HW2 4917   0.194   3.254   2.453
 1489SOL     OW 4918   0.253   2.945   2.748
 1489SOL    HW1 4919   0.266   2.853   2.771
 1489SOL    HW2 4920   0.191   2.977   2.813
 1490SOL     OW 4921   0.610   3.653   3.292
 1490SOL    HW1 4922   0.527   3.635   3.336
 1490SOL    HW2 4923   0.631   3.743   3.317
 1491SOL     OW 4924   0.574   2.852   2.004
 1491SOL    HW1 4925   0.624   2.892   1.933
 1491SOL    HW2 4926   0.618   2.881   2.084
 1492SOL     OW 4927   1.587   1.982   3.333
 1492SOL    HW1 4928   1.617   2.052   3.274
 1492SOL    HW2 4929   1.576   2.025   3.418
 1493SOL     OW 4930   0.137   2.511   2.435
 1493SOL    HW1 4931   0.091   2.430   2.456
 1493SOL    HW2 4932   0.107   2.574   2.501
 1494SOL     OW 4933   1.843   3.618   2.194
 1494SOL    HW1 4934   1.910   3.591   2.257
 1494SOL    HW2 4935   1.864   3.710   2.175
 1495SOL     OW 4936   0.032   3.466   2.009
 1495SOL    HW1 4937   0.019   3.371   2.002
 1495SOL    HW2 4938   0.036   3.482   2.104
 1496SOL     OW 4939   1.691   2.781   2.506
 1496SOL    HW1 4940   1.770   2.734   2.480
 1496SOL    HW2 4941   1.667   2.832   2.428
 1497SOL     OW 4942   1.647   2.966   2.291
 1497SOL    HW1 4943   1.733   2.969   2.250
 1497SOL    HW2 4944   1.652   3.029   2.363
 1498SOL     OW 4945   0.111   2.629   3.437
 1498SOL    HW1 4946   0.198   2.620   3.400
 1498SOL    HW2 4947   0.105   2.720   3.465
 1499SOL     OW 4948   0.615   3.250   2.599
 1499SOL    HW1 4949   0.569   3.167   2.608
 1499SOL    HW2 4950   0.599   3.277   2.508
 1500SOL     OW 4951   1.287   3.099   3.284
 1500SOL    HW1 4952   1.318   3.031   3.224
 1500SOL    HW2 4953   1.346   3.093   3.359
 1501SOL     OW 4954   0.820   1.864   2.374
 1501SOL    HW1 4955   0.860   1.948   2.352
 1501SOL    HW2 4956   0.726   1.882   2.380
 1502SOL     OW 4957   0.177   2.800   3.141
 1502SOL    HW1 4958   0.268   2.781   3.121
 1502SOL    HW2 4959   0.133   2.795   3.056
 1503SOL     OW 4960   1.531   2.858   2.062
 1503SOL    HW1 4961   1.461   2.801   2.094
 1503SOL    HW2 4962   1.573   2.892   2.141
 1504SOL     OW 4963   1.186   3.672   3.486
 1504SOL    HW1 4964   1.192   3.731   3.411
 1504SOL    HW2 4965   1.202   3.585   3.450
 1505SOL     OW 4966   0.334   2.119   3.666
 1505SOL    HW1 4967   0.379   2.193   3.706
 1505SOL    HW2 4968   0.244   2.124   3.700
 1506SOL     OW 4969   1.468   3.281   2.811
 1506SOL    HW1 4970   1.400   3.297   2.877
 1506SOL    HW2 4971   1.454   3.190   2.785
 1507SOL     OW 4972   1.656   3.608   2.440
 1507SOL    HW1 4973   1.637   3.577   2.351
 1507SOL    HW2 4974   1.633   3.534   2.496
 1508SOL     OW 4975   0.598   2.580   2.131
 1508SOL    HW1 4976   0.598   2.663   2.083
 1508SOL    HW2 4977   0.532   2.593   2.199
 1509SOL     OW 4978   1.277   2.222   2.796
 1509SOL    HW1 4979   1.188   2.188   2.804
 1509SOL    HW2 4980   1.329   2.168   2.856
 1510SOL     OW 4981   1.579   3.534   2.172
 1510SOL    HW1 4982   1.670   3.563   2.164
 1510SOL    HW2 4983   1.551   3.518   2.082
 1511SOL     OW 4984   0.793   2.478   3.312
 1511SOL    HW1 4985   0.766   2.452   3.400
 1511SOL    HW2 4986   0.754   2.412   3.255
 1512SOL     OW 4987   1.393   2.337   3.540
 1512SOL    HW1 4988   1.397   2.380   3.625
 1512SOL    HW2 4989   1.450   2.260   3.550
 1513SOL     OW 4990   0.952   2.748   3.446
 1513SOL    HW1 4991   1.007   2.679   3.409
 1513SOL    HW2 4992   0.905   2.784   3.371
 1514SOL     OW 4993   0.993   2.275   3.098
 1514SOL    HW1 4994   0.905   2.293   3.133
 1514SOL    HW2 4995   0.977   2.229   3.016
 1515SOL     OW 4996   1.053   2.560   2.287
 1515SOL    HW1 4997   1.070   2.554   2.381
 1515SOL    HW2 4998   0.970   2.514   2.274
 1516SOL     OW 4999   0.092   2.693   2.648
 1516SOL    HW1 5000   0.179   2.680   2.687
 1516SOL    HW2 5001   0.033   2.699   2.723
 1517SOL     OW 5002   0.123   3.720   3.440
 1517SOL    HW1 5003   0.115   3.697   3.533
 1517SOL    HW2 5004   0.044   3.682   3.400
 1518SOL     OW 5005   0.897   2.212   2.057
 1518SOL    HW1 5006   0.936   2.274   1.996
 1518SOL    HW2 5007   0.909   2.127   2.015
 1519SOL     OW 5008   1.706   2.438   3.692
 1519SOL    HW1 5009   1.669   2.511   3.644
 1519SOL    HW2 5010   1.732   2.375   3.624
 1520SOL     OW 5011   1.379   3.004   2.403
 1520SOL    HW1 5012   1.457   2.992   2.349
 1520SOL    HW2 5013   1.325   3.066   2.353
 1521SOL     OW 5014   0.553   2.042   2.756
 1521SOL    HW1 5015   0.555   2.073   2.847
 1521SOL    HW2 5016   0.553   2.121   2.703
 1522SOL     OW 5017   1.002   3.306   2.332
 1522SOL    HW1 5018   0.969   3.380   2.282
 1522SOL    HW2 5019   0.980   3.326   2.423
 1523SOL     OW 5020   0.358   3.675   2.722
 1523SOL    HW1 5021   0.399   3.590   2.733
 1523SOL    HW2 5022   0.427   3.738   2.741
 1524SOL     OW 5023   1.801   2.916   2.730
 1524SOL    HW1 5024   1.748   2.895   2.653
 1524SOL    HW2 5025   1.738   2.922   2.802
 1525SOL     OW 5026   1.228   3.401   3.375
 1525SOL    HW1 5027   1.215   3.329   3.436
 1525SOL    HW2 5028   1.161   3.387   3.307
 1526SOL     OW 5029   0.312   2.814   2.120
 1526SOL    HW1 5030   0.395   2.838   2.079
 1526SOL    HW2 5031   0.300   2.722   2.096
 1527SOL     OW 5032   1.481   2.608   2.587
 1527SOL    HW1 5033   1.474   2.567   2.673
 1527SOL    HW2 5034   1.559   2.663   2.593
 1528SOL     OW 5035   0.470   3.126   3.597
 1528SOL    HW1 5036   0.443   3.133   3.505
 1528SOL    HW2 5037   0.388   3.128   3.646
 1529SOL     OW 5038   1.123   3.640   2.092
 1529SOL    HW1 5039   1.048   3.600   2.136
 1529SOL    HW2 5040   1.147   3.577   2.023
 1530SOL     OW 5041   0.199   2.138   3.346
 1530SOL    HW1 5042   0.142   2.214   3.354
 1530SOL    HW2 5043   0.181   2.086   3.425
 1531SOL     OW 5044   1.629   3.244   1.951
 1531SOL    HW1 5045   1.587   3.328   1.936
 1531SOL    HW2 5046   1.561   3.179   1.931
 1532SOL     OW 5047   0.469   3.605   2.175
 1532SOL    HW1 5048   0.513   3.658   2.241
 1532SOL    HW2 5049   0.540   3.567   2.123
 1533SOL     OW 5050   1.400   1.969   2.298
 1533SOL    HW1 5051   1.391   1.944   2.206
 1533SOL    HW2 5052   1.494   1.976   2.312
 1534SOL     OW 5053   0.259   3.654   3.088
 1534SOL    HW1 5054   0.303   3.577   3.124
 1534SOL    HW2 5055   0.220   3.624   3.006
 1535SOL     OW 5056   0.938   3.562   2.759
 1535SOL    HW1 5057   1.016   3.510   2.782
 1535SOL    HW2 5058   0.896   3.511   2.689
 1536SOL     OW 5059   0.396   2.556   2.333
 1536SOL    HW1 5060   0.418   2.463   2.345
 1536SOL    HW2 5061   0.304   2.562   2.358
 1537SOL     OW 5062   1.532   2.091   3.588
 1537SOL    HW1 5063   1.539   2.109   3.682
 1537SOL    HW2 5064   1.468   2.020   3.582
 1538SOL     OW 5065   0.641   1.983   1.963
 1538SOL    HW1 5066   0.702   1.912   1.982
 1538SOL    HW2 5067   0.589   1.951   1.889
 1539SOL     OW 5068   0.765   2.142   3.618
 1539SOL    HW1 5069   0.844   2.087   3.615
 1539SOL    HW2 5070   0.718   2.111   3.695
 1540SOL     OW 5071   0.877   3.385   3.056
 1540SOL    HW1 5072   0.859   3.348   2.969
 1540SOL    HW2 5073   0.946   3.330   3.092
 1541SOL     OW 5074   1.339   2.451   3.294
 1541SOL    HW1 5075   1.370   2.420   3.379
 1541SOL    HW2 5076   1.376   2.539   3.286
 1542SOL     OW 5077   0.818   3.254   2.806
 1542SOL    HW1 5078   0.902   3.242   2.762
 1542SOL    HW2 5079   0.754   3.258   2.735
 1543SOL     OW 5080   0.928   2.371   2.764
 1543SOL    HW1 5081   0.904   2.363   2.672
 1543SOL    HW2 5082   0.959   2.284   2.789
 1544SOL     OW 5083   0.556   1.924   2.359
 1544SOL    HW1 5084   0.475   1.922   2.411
 1544SOL    HW2 5085   0.547   2.002   2.304
 1545SOL     OW 5086   1.428   3.062   1.902
 1545SOL    HW1 5087   1.458   2.986   1.953
 1545SOL    HW2 5088   1.343   3.083   1.939
 1546SOL     OW 5089   0.296   1.907   2.039
 1546SOL    HW1 5090   0.359   1.973   2.012
 1546SOL    HW2 5091   0.348   1.841   2.084
 1547SOL     OW 5092   0.941   2.111   2.319
 1547SOL    HW1 5093   0.915   2.150   2.236
 1547SOL    HW2 5094   1.035   2.125   2.325
 1548SOL     OW 5095   1.080   2.545   3.320
 1548SOL    HW1 5096   1.014   2.476   3.324
 1548SOL    HW2 5097   1.163   2.497   3.314
 1549SOL     OW 5098   1.222   3.433   2.656
 1549SOL    HW1 5099   1.236   3.499   2.588
 1549SOL    HW2 5100   1.291   3.450   2.721
 1550SOL     OW 5101   0.468   3.014   2.595
 1550SOL    HW1 5102   0.400   2.995   2.659
 1550SOL    HW2 5103   0.427   2.999   2.510
 1551SOL     OW 5104   1.267   3.655   2.473
 1551SOL    HW1 5105   1.314   3.716   2.417
 1551SOL    HW2 5106   1.198   3.708   2.514
 1552SOL     OW 5107   1.023   2.400   1.887
 1552SOL    HW1 5108   0.979   2.483   1.867
 1552SOL    HW2 5109   1.088   2.422   1.953
 1553SOL     OW 5110   0.082   2.382   3.274
 1553SOL    HW1 5111   0.144   2.376   3.201
 1553SOL    HW2 5112   0.066   2.476   3.284
 1554SOL     OW 5113   0.559   2.090   3.030
 1554SOL    HW1 5114   0.604   2.014   3.067
 1554SOL    HW2 5115   0.468   2.079   3.056
 1555SOL     OW 5116   0.867   2.321   2.501
 1555SOL    HW1 5117   0.822   2.376   2.437
 1555SOL    HW2 5118   0.889   2.241   2.453
 1556SOL     OW 5119   1.016   1.916   2.611
 1556SOL    HW1 5120   0.958   1.909   2.536
 1556SOL    HW2 5121   0.993   1.841   2.666
 1557SOL     OW 5122   1.438   3.023   2.718
 1557SOL    HW1 5123   1.367   2.959   2.719
 1557SOL    HW2 5124   1.461   3.032   2.626
 1558SOL     OW 5125   1.464   2.471   2.836
 1558SOL    HW1 5126   1.411   2.392   2.838
 1558SOL    HW2 5127   1.524   2.462   2.910
 1559SOL     OW 5128   1.844   2.674   2.249
 1559SOL    HW1 5129   1.900   2.623   2.306
 1559SOL    HW2 5130   1.818   2.613   2.180
 1560SOL     OW 5131   0.492   3.283   2.018
 1560SOL    HW1 5132   0.413   3.255   2.066
 1560SOL    HW2 5133   0.480   3.248   1.930
 1561SOL     OW 5134   1.673   3.127   2.504
 1561SOL    HW1 5135   1.767   3.129   2.519
 1561SOL    HW2 5136   1.643   3.215   2.526
 1562SOL     OW 5137   1.394   2.434   1.934
 1562SOL    HW1 5138   1.332   2.414   2.004
 1562SOL    HW2 5139   1.478   2.402   1.967
 1563SOL     OW 5140   0.525   2.122   2.174
 1563SOL    HW1 5141   0.574   2.077   2.106
 1563SOL    HW2 5142   0.503   2.207   2.137
 1564SOL     OW 5143   1.750   3.104   3.429
 1564SOL    HW1 5144   1.837   3.064   3.426
 1564SOL    HW2 5145   1.766   3.194   3.458
 1565SOL     OW 5146   1.056   3.216   3.195
 1565SOL    HW1 5147   0.981   3.185   3.245
 1565SOL    HW2 5148   1.132   3.174   3.236
 1566SOL     OW 5149   1.609   3.489   3.519
 1566SOL    HW1 5150   1.601   3.522   3.429
 1566SOL    HW2 5151   1.691   3.440   3.519
 1567SOL     OW 5152   1.133   3.070   2.966
 1567SOL    HW1 5153   1.072   3.106   3.030
 1567SOL    HW2 5154   1.102   3.102   2.881
 1568SOL     OW 5155   1.627   2.960   2.938
 1568SOL    HW1 5156   1.621   3.022   3.010
 1568SOL    HW2 5157   1.549   2.977   2.885
 1569SOL     OW 5158   0.917   1.958   3.255
 1569SOL    HW1 5159   0.940   1.938   3.165
 1569SOL    HW2 5160   0.997   1.997   3.292
 1570SOL     OW 5161   0.984   2.976   3.585
 1570SOL    HW1 5162   0.893   2.993   3.609
 1570SOL    HW2 5163   0.981   2.898   3.530
 1571SOL     OW 5164   0.709   2.925   2.234
 1571SOL    HW1 5165   0.696   2.906   2.327
 1571SOL    HW2 5166   0.785   2.871   2.209
 1572SOL     OW 5167   0.432   2.692   3.108
 1572SOL    HW1 5168   0.502   2.705   3.172
 1572SOL    HW2 5169   0.376   2.624   3.147
 1573SOL     OW 5170   1.264   2.237   3.140
 1573SOL    HW1 5171   1.297   2.315   3.185
 1573SOL    HW2 5172   1.174   2.259   3.118
 1574SOL     OW 5173   0.064   3.437   3.207
 1574SOL    HW1 5174   0.038   3.528   3.193
 1574SOL    HW2 5175   0.160   3.440   3.212
 1575SOL     OW 5176   0.339   2.973   2.355
 1575SOL    HW1 5177   0.350   3.048   2.296
 1575SOL    HW2 5178   0.339   2.897   2.298
 1576SOL     OW 5179   0.559   2.391   2.716
 1576SOL    HW1 5180   0.572   2.452   2.643
 1576SOL    HW2 5181   0.621   2.420   2.782
 1577SOL     OW 5182   1.248   3.211   2.252
 1577SOL    HW1 5183   1.303   3.282   2.283
 1577SOL    HW2 5184   1.161   3.232   2.285
 1578SOL     OW 5185   1.285   3.321   3.009
 1578SOL    HW1 5186   1.340   3.324   3.088
 1578SOL    HW2 5187   1.230   3.245   3.022
 1579SOL     OW 5188   1.578   2.483   2.342
 1579SOL    HW1 5189   1.530   2.533   2.408
 1579SOL    HW2 5190   1.627   2.549   2.293
 1580SOL     OW 5191   0.345   3.398   3.173
 1580SOL    HW1 5192   0.332   3.349   3.092
 1580SOL    HW2 5193   0.440   3.406   3.181
 1581SOL     OW 5194   0.489   2.617   3.534
 1581SOL    HW1 5195   0.518   2.656   3.452
 1581SOL    HW2 5196   0.546   2.541   3.547
 1582SOL     OW 5197   1.605   2.643   3.547
 1582SOL    HW1 5198   1.519   2.684   3.541
 1582SOL    HW2 5199   1.657   2.685   3.478
 1583SOL     OW 5200   0.996   1.991   3.615
 1583SOL    HW1 5201   1.055   2.063   3.591
 1583SOL    HW2 5202   1.043   1.912   3.590
 1584SOL     OW 5203   0.496   1.904   3.611
 1584SOL    HW1 5204   0.453   1.847   3.546
 1584SOL    HW2 5205   0.439   1.980   3.619
 1585SOL     OW 5206   0.591   2.736   2.888
 1585SOL    HW1 5207   0.622   2.827   2.889
 1585SOL    HW2 5208   0.534   2.729   2.964
 1586SOL     OW 5209   1.353   2.721   2.887
 1586SOL    HW1 5210   1.268   2.708   2.845
 1586SOL    HW2 5211   1.396   2.636   2.880
 1587SOL     OW 5212   1.202   2.390   2.126
 1587SOL    HW1 5213   1.210   2.312   2.181
 1587SOL    HW2 5214   1.159   2.454   2.183
 1588SOL     OW 5215   0.301   2.050   3.103
 1588SOL    HW1 5216   0.262   2.082   3.185
 1588SOL    HW2 5217   0.284   1.955   3.105
 1589SOL     OW 5218   0.026   3.174   3.149
 1589SOL    HW1 5219   0.069   3.126   3.220
 1589SOL    HW2 5220   0.036   3.266   3.173
 1590SOL     OW 5221   0.723   2.491   2.917
 1590SOL    HW1 5222   0.799   2.476   2.861
 1590SOL    HW2 5223   0.696   2.581   2.896
 1591SOL     OW 5224   1.736   2.822   3.718
 1591SOL    HW1 5225   1.692   2.757   3.663
 1591SOL    HW2 5226   1.675   2.838   3.790
 1592SOL     OW 5227   0.315   1.931   2.480
 1592SOL    HW1 5228   0.288   2.019   2.505
 1592SOL    HW2 5229   0.315   1.882   2.562
 1593SOL     OW 5230   1.619   2.238   2.226
 1593SOL    HW1 5231   1.648   2.175   2.293
 1593SOL    HW2 5232   1.596   2.316   2.276
 1594SOL     OW 5233   1.028   2.620   2.821
 1594SOL    HW1 5234   1.022   2.638   2.915
 1594SOL    HW2 5235   1.002   2.529   2.811
 1595SOL     OW 5236   0.983   3.429   3.581
 1595SOL    HW1 5237   0.967   3.473   3.497
 1595SOL    HW2 5238   1.025   3.347   3.558
 1596SOL     OW 5239   1.853   3.365   3.467
 1596SOL    HW1 5240   1.873   3.392   3.377
 1596SOL    HW2 5241   1.934   3.381   3.515
 1597SOL     OW 5242   0.347   2.797   3.679
 1597SOL    HW1 5243   0.418   2.828   3.735
 1597SOL    HW2 5244   0.387   2.728   3.626
 1598SOL     OW 5245   1.528   2.133   1.990
 1598SOL    HW1 5246   1.463   2.069   2.017
 1598SOL    HW2 5247   1.561   2.170   2.072
 1599SOL     OW 5248   1.289   2.687   1.892
 1599SOL    HW1 5249   1.332   2.602   1.896
 1599SOL    HW2 5250   1.321   2.726   1.810
 1600SOL     OW 5251   1.068   3.199   2.717
 1600SOL    HW1 5252   1.071   3.127   2.654
 1600SOL    HW2 5253   1.127   3.265   2.682
 1601SOL     OW 5254   0.319   2.673   2.805
 1601SOL    HW1 5255   0.413   2.690   2.805
 1601SOL    HW2 5256   0.311   2.581   2.831
 1602SOL     OW 5257   0.326   2.389   2.848
 1602SOL    HW1 5258   0.289   2.302   2.833
 1602SOL    HW2 5259   0.406   2.390   2.795
 1603SOL     OW 5260   1.134   2.237   3.546
 1603SOL    HW1 5261   1.086   2.291   3.608
 1603SOL    HW2 5262   1.221   2.276   3.542
 1604SOL     OW 5263   1.160   2.063   3.333
 1604SOL    HW1 5264   1.149   2.126   3.404
 1604SOL    HW2 5265   1.203   2.112   3.263
 1605SOL     OW 5266   4.491   3.182   2.072
 1605SOL    HW1 5267   4.399   3.199   2.053
 1605SOL    HW2 5268   4.494   3.089   2.092
 1606SOL     OW 5269   0.101   3.633   2.803
 1606SOL    HW1 5270   0.061   3.587   2.729
 1606SOL    HW2 5271   0.189   3.656   2.772
 1607SOL     OW 5272   0.494   3.436   2.769
 1607SOL    HW1 5273   0.562   3.499   2.793
 1607SOL    HW2 5274   0.538   3.374   2.711
 1608SOL     OW 5275   0.979   2.652   3.087
 1608SOL    HW1 5276   1.036   2.631   3.160
 1608SOL    HW2 5277   0.894   2.614   3.111
 1609SOL     OW 5278   0.028   2.424   2.958
 1609SOL    HW1 5279   0.118   2.399   2.933
 1609SOL    HW2 5280   0.010   2.374   3.037
 1610SOL     OW 5281   0.179   2.388   3.579
 1610SOL    HW1 5282   0.261   2.357   3.540
 1610SOL    HW2 5283   0.158   2.467   3.530
 1611SOL     OW 5284   1.378   2.798   3.520
 1611SOL    HW1 5285   1.400   2.891   3.516
 1611SOL    HW2 5286   1.375   2.771   3.428
 1612SOL     OW 5287   0.818   2.432   2.226
 1612SOL    HW1 5288   0.823   2.357   2.166
 1612SOL    HW2 5289   0.744   2.484   2.194
 1613SOL     OW 5290   1.648   2.465   3.041
 1613SOL    HW1 5291   1.638   2.406   3.115
 1613SOL    HW2 5292   1.735   2.446   3.007
 1614SOL     OW 5293   0.275   3.424   3.602
 1614SOL    HW1 5294   0.214   3.475   3.655
 1614SOL    HW2 5295   0.257   3.333   3.626
 1615SOL     OW 5296   0.701   2.313   3.120
 1615SOL    HW1 5297   0.649   2.237   3.090
 1615SOL    HW2 5298   0.697   2.375   3.047
 1616SOL     OW 5299   0.926   3.541   3.331
 1616SOL    HW1 5300   0.900   3.503   3.247
 1616SOL    HW2 5301   0.918   3.635   3.317
 1617SOL     OW 5302   0.470   2.352   2.042
 1617SOL    HW1 5303   0.531   2.420   2.068
 1617SOL    HW2 5304   0.388   2.397   2.027
 1618SOL     OW 5305   0.161   3.004   3.320
 1618SOL    HW1 5306   0.144   2.961   3.403
 1618SOL    HW2 5307   0.168   2.932   3.257
 1619SOL     OW 5308   1.324   2.907   3.083
 1619SOL    HW1 5309   1.345   2.843   3.015
 1619SOL    HW2 5310   1.256   2.962   3.044
 1620SOL     OW 5311   1.314   2.720   2.167
 1620SOL    HW1 5312   1.239   2.688   2.218
 1620SOL    HW2 5313   1.287   2.705   2.076
 1621SOL     OW 5314   1.776   3.602   3.016
 1621SOL    HW1 5315   1.836   3.628   2.946
 1621SOL    HW2 5316   1.750   3.513   2.993
 1622SOL     OW 5317   1.240   3.595   2.972
 1622SOL    HW1 5318   1.323   3.618   2.928
 1622SOL    HW2 5319   1.248   3.502   2.991
 1623SOL     OW 5320   0.069   3.047   2.912
 1623SOL    HW1 5321   0.058   3.076   3.003
 1623SOL    HW2 5322   0.035   3.119   2.859
 1624SOL     OW 5323   0.679   3.531   3.597
 1624SOL    HW1 5324   0.619   3.605   3.588
 1624SOL    HW2 5325   0.745   3.544   3.529
 1625SOL     OW 5326   1.719   2.010   2.371
 1625SOL    HW1 5327   1.788   1.992   2.306
 1625SOL    HW2 5328   1.701   1.925   2.411
 1626SOL     OW 5329   1.392   3.430   2.350
 1626SOL    HW1 5330   1.451   3.463   2.282
 1626SOL    HW2 5331   1.342   3.506   2.378
 1627SOL     OW 5332   0.117   3.669   3.711
 1627SOL    HW1 5333   0.076   3.597   3.759
 1627SOL    HW2 5334   0.180   3.706   3.772
 1628SOL     OW 5335   1.278   2.789   2.533
 1628SOL    HW1 5336   1.352   2.728   2.542
 1628SOL    HW2 5337   1.312   2.861   2.480
 1629SOL     OW 5338   0.809   3.138   3.289
 1629SOL    HW1 5339   0.781   3.178   3.371
 1629SOL    HW2 5340   0.738   3.158   3.227
 1630SOL     OW 5341   0.672   3.485   2.017
 1630SOL    HW1 5342   0.683   3.498   1.923
 1630SOL    HW2 5343   0.617   3.408   2.024
 1631SOL     OW 5344   1.622   3.589   3.253
 1631SOL    HW1 5345   1.674   3.595   3.173
 1631SOL    HW2 5346   1.608   3.680   3.280
 1632SOL     OW 5347   1.804   2.000   2.833
 1632SOL    HW1 5348   1.846   1.924   2.793
 1632SOL    HW2 5349   1.725   2.014   2.781
 1633SOL     OW 5350   0.262   2.180   2.579
 1633SOL    HW1 5351   0.179   2.220   2.553
 1633SOL    HW2 5352   0.253   2.167   2.673
 1634SOL     OW 5353   1.208   3.465   1.894
 1634SOL    HW1 5354   1.197   3.374   1.921
 1634SOL    HW2 5355   1.142   3.478   1.826
 1635SOL     OW 5356   0.827   2.870   3.235
 1635SOL    HW1 5357   0.869   2.865   3.150
 1635SOL    HW2 5358   0.823   2.963   3.255
 1636SOL     OW 5359   0.916   2.773   2.152
 1636SOL    HW1 5360   0.977   2.805   2.086
 1636SOL    HW2 5361   0.965   2.704   2.198
 1637SOL     OW 5362   1.490   3.489   1.906
 1637SOL    HW1 5363   1.396   3.480   1.891
 1637SOL    HW2 5364   1.527   3.495   1.818
 1638SOL     OW 5365   0.373   3.172   3.352
 1638SOL    HW1 5366   0.355   3.251   3.301
 1638SOL    HW2 5367   0.299   3.114   3.334
 1639SOL     OW 5368   1.611   3.146   3.142
 1639SOL    HW1 5369   1.667   3.131   3.218
 1639SOL    HW2 5370   1.549   3.213   3.172
 1640SOL     OW 5371   1.057   2.971   2.570
 1640SOL    HW1 5372   0.985   2.921   2.608
 1640SOL    HW2 5373   1.120   2.905   2.542
 1641SOL     OW 5374   1.022   2.103   2.829
 1641SOL    HW1 5375   1.018   2.056   2.745
 1641SOL    HW2 5376   1.017   2.034   2.895
 1642SOL     OW 5377   0.606   3.351   2.344
 1642SOL    HW1 5378   0.651   3.302   2.275
 1642SOL    HW2 5379   0.527   3.385   2.301
 1643SOL     OW 5380   1.721   2.262   3.248
 1643SOL    HW1 5381   1.797   2.320   3.240
 1643SOL    HW2 5382   1.741   2.188   3.191
 1644SOL     OW 5383   0.252   3.205   2.137
 1644SOL    HW1 5384   0.158   3.201   2.124
 1644SOL    HW2 5385   0.263   3.237   2.226
 1645SOL     OW 5386   0.116   2.869   3.554
 1645SOL    HW1 5387   0.052   2.913   3.610
 1645SOL    HW2 5388   0.194   2.861   3.609
 1646SOL     OW 5389   0.676   2.061   3.361
 1646SOL    HW1 5390   0.759   2.037   3.321
 1646SOL    HW2 5391   0.699   2.090   3.449
 1647SOL     OW 5392   0.073   2.188   1.892
 1647SOL    HW1 5393   4.479   2.202   1.908
 1647SOL    HW2 5394   0.103   2.269   1.851
 1648SOL     OW 5395   1.428   2.720   3.261
 1648SOL    HW1 5396   1.379   2.781   3.206
 1648SOL    HW2 5397   1.517   2.722   3.226
 1649SOL     OW 5398   0.087   2.036   2.164
 1649SOL    HW1 5399   0.081   2.111   2.105
 1649SOL    HW2 5400   0.162   1.986   2.132
 1650SOL     OW 5401   1.178   3.199   1.979
 1650SOL    HW1 5402   1.087   3.169   1.981
 1650SOL    HW2 5403   1.205   3.199   2.071
 1651SOL     OW 5404   0.626   2.693   3.296
 1651SOL    HW1 5405   0.683   2.769   3.282
 1651SOL    HW2 5406   0.686   2.619   3.301
 1652SOL     OW 5407   1.483   3.642   2.843
 1652SOL    HW1 5408   1.504   3.705   2.774
 1652SOL    HW2 5409   1.567   3.620   2.883
 1653SOL     OW 5410   0.711   2.425   3.566
 1653SOL    HW1 5411   0.760   2.485   3.623
 1653SOL    HW2 5412   0.735   2.338   3.596
 1654SOL     OW 5413   1.473   3.059   3.492
 1654SOL    HW1 5414   1.461   3.073   3.586
 1654SOL    HW2 5415   1.566   3.076   3.477
 1655SOL     OW 5416   0.377   3.607   3.427
 1655SOL    HW1 5417   0.293   3.648   3.409
 1655SOL    HW2 5418   0.355   3.528   3.477
 1656SOL     OW 5419   1.668   2.742   3.116
 1656SOL    HW1 5420   1.662   2.657   3.074
 1656SOL    HW2 5421   1.656   2.805   3.045
 1657SOL     OW 5422   1.216   2.181   2.320
 1657SOL    HW1 5423   1.278   2.109   2.312
 1657SOL    HW2 5424   1.245   2.231   2.396
 1658SOL     OW 5425   0.589   2.598   2.533
 1658SOL    HW1 5426   0.627   2.684   2.518
 1658SOL    HW2 5427   0.522   2.589   2.465
 1659SOL     OW 5428   1.760   2.228   3.517
 1659SOL    HW1 5429   1.737   2.249   3.426
 1659SOL    HW2 5430   1.688   2.173   3.547
 1660SOL     OW 5431   1.745   2.796   3.373
 1660SOL    HW1 5432   1.738   2.891   3.385
 1660SOL    HW2 5433   1.729   2.783   3.279
 1661SOL     OW 5434   0.865   3.228   1.901
 1661SOL    HW1 5435   0.825   3.255   1.984
 1661SOL    HW2 5436   0.879   3.310   1.854
 1662SOL     OW 5437   0.663   3.649   2.804
 1662SOL    HW1 5438   0.643   3.740   2.782
 1662SOL    HW2 5439   0.758   3.643   2.796
 1663SOL     OW 5440   0.869   2.832   2.716
 1663SOL    HW1 5441   0.918   2.759   2.754
 1663SOL    HW2 5442   0.832   2.877   2.791
 1664SOL     OW 5443   1.079   2.851   1.951
 1664SOL    HW1 5444   1.057   2.902   1.873
 1664SOL    HW2 5445   1.153   2.797   1.924
 1665SOL     OW 5446   1.850   3.415   2.705
 1665SOL    HW1 5447   1.772   3.404   2.652
 1665SOL    HW2 5448   1.841   3.351   2.775
 1666SOL     OW 5449   0.233   3.166   3.722
 1666SOL    HW1 5450   0.151   3.119   3.703
 1666SOL    HW2 5451   0.233   3.176   3.817
 1667SOL     OW 5452   0.117   3.092   2.530
 1667SOL    HW1 5453   0.135   3.051   2.615
 1667SOL    HW2 5454   0.173   3.046   2.469
 1668SOL     OW 5455   0.685   3.268   3.493
 1668SOL    HW1 5456   0.605   3.224   3.522
 1668SOL    HW2 5457   0.679   3.356   3.530
 1669SOL     OW 5458   1.770   2.041   3.106
 1669SOL    HW1 5459   1.833   1.976   3.138
 1669SOL    HW2 5460   1.775   2.033   3.011
 1670SOL     OW 5461   0.435   2.295   2.387
 1670SOL    HW1 5462   0.461   2.221   2.332
 1670SOL    HW2 5463   0.384   2.255   2.458
 1671SOL     OW 5464   1.699   3.349   2.955
 1671SOL    HW1 5465   1.619   3.329   2.907
 1671SOL    HW2 5466   1.705   3.280   3.021
 1672SOL     OW 5467   0.294   2.350   3.112
 1672SOL    HW1 5468   0.369   2.307   3.154
 1672SOL    HW2 5469   0.324   2.367   3.022
 1673SOL     OW 5470   0.830   3.440   2.538
 1673SOL    HW1 5471   0.811   3.500   2.466
 1673SOL    HW2 5472   0.755   3.381   2.541
 1674SOL     OW 5473   1.432   2.091   2.978
 1674SOL    HW1 5474   1.464   2.013   3.023
 1674SOL    HW2 5475   1.380   2.138   3.043
 1675SOL     OW 5476   1.009   1.879   3.001
 1675SOL    HW1 5477   0.954   1.812   2.959
 1675SOL    HW2 5478   1.096   1.841   3.003
 1676SOL     OW 5479   0.773   3.196   2.180
 1676SOL    HW1 5480   0.744   3.105   2.187
 1676SOL    HW2 5481   0.855   3.199   2.230
 1677SOL     OW 5482   0.621   3.417   3.149
 1677SOL    HW1 5483   0.622   3.499   3.198
 1677SOL    HW2 5484   0.709   3.411   3.110
 1678SOL     OW 5485   1.354   1.915   2.030
 1678SOL    HW1 5486   1.384   1.848   1.969
 1678SOL    HW2 5487   1.266   1.887   2.054
 1679SOL     OW 5488   1.296   2.325   2.542
 1679SOL    HW1 5489   1.243   2.404   2.547
 1679SOL    HW2 5490   1.291   2.286   2.629
 1680SOL     OW 5491   1.563   2.056   2.728
 1680SOL    HW1 5492   1.513   2.082   2.805
 1680SOL    HW2 5493   1.571   2.137   2.677
 1681SOL     OW 5494   0.040   2.912   2.153
 1681SOL    HW1 5495   0.132   2.890   2.140
 1681SOL    HW2 5496   0.021   2.886   2.243
 1682SOL     OW 5497   0.888   3.519   2.202
 1682SOL    HW1 5498   0.814   3.502   2.143
 1682SOL    HW2 5499   0.859   3.592   2.256
 1683SOL     OW 5500   0.245   2.493   3.847
 1683SOL    HW1 5501   0.172   2.467   3.902
 1683SOL    HW2 5502   0.216   2.475   3.757
 1684SOL     OW 5503   0.212   2.136   4.715
 1684SOL    HW1 5504   0.249   2.110   4.799
 1684SOL    HW2 5505   0.137   2.079   4.702
 1685SOL     OW 5506   0.006   2.259   4.364
 1685SOL    HW1 5507   4.425   2.292   4.402
 1685SOL    HW2 5508   4.480   2.179   4.318
 1686SOL     OW 5509   0.569   3.155   4.904
 1686SOL    HW1 5510   0.482   3.160   4.864
 1686SOL    HW2 5511   0.584   3.243   4.939
 1687SOL     OW 5512   1.564   3.375   4.432
 1687SOL    HW1 5513   1.521   3.354   4.515
 1687SOL    HW2 5514   1.493   3.380   4.368
 1688SOL     OW 5515   1.133   2.559   4.423
 1688SOL    HW1 5516   1.179   2.642   4.409
 1688SOL    HW2 5517   1.085   2.572   4.504
 1689SOL     OW 5518   1.777   2.464   3.950
 1689SOL    HW1 5519   1.749   2.459   3.859
 1689SOL    HW2 5520   1.739   2.387   3.992
 1690SOL     OW 5521   0.751   3.002   4.768
 1690SOL    HW1 5522   0.683   3.038   4.825
 1690SOL    HW2 5523   0.788   3.078   4.724
 1691SOL     OW 5524   0.871   2.628   5.546
 1691SOL    HW1 5525   0.856   2.697   5.610
 1691SOL    HW2 5526   0.894   2.674   5.465
 1692SOL     OW 5527   0.685   2.862   4.370
 1692SOL    HW1 5528   0.751   2.853   4.438
 1692SOL    HW2 5529   0.616   2.915   4.410
 1693SOL     OW 5530   0.713   3.011   5.540
 1693SOL    HW1 5531   0.760   3.089   5.569
 1693SOL    HW2 5532   0.632   3.044   5.502
 1694SOL     OW 5533   0.334   3.280   4.793
 1694SOL    HW1 5534   0.252   3.260   4.747
 1694SOL    HW2 5535   0.383   3.335   4.731
 1695SOL     OW 5536   1.459   3.363   5.083
 1695SOL    HW1 5537   1.512   3.442   5.092
 1695SOL    HW2 5538   1.392   3.371   5.150
 1696SOL     OW 5539   0.448   2.265   5.209
 1696SOL    HW1 5540   0.527   2.212   5.216
 1696SOL    HW2 5541   0.376   2.203   5.219
 1697SOL     OW 5542   1.605   2.303   4.459
 1697SOL    HW1 5543   1.527   2.311   4.404
 1697SOL    HW2 5544   1.607   2.385   4.510
 1698SOL     OW 5545   0.246   3.553   4.199
 1698SOL    HW1 5546   0.229   3.638   4.239
 1698SOL    HW2 5547   0.317   3.569   4.137
 1699SOL     OW 5548   1.137   3.204   5.417
 1699SOL    HW1 5549   1.176   3.199   5.505
 1699SOL    HW2 5550   1.085   3.124   5.410
 1700SOL     OW 5551   0.256   3.288   4.250
 1700SOL    HW1 5552   0.243   3.382   4.252
 1700SOL    HW2 5553   0.195   3.254   4.315
 1701SOL     OW 5554   0.254   2.945   4.610
 1701SOL    HW1 5555   0.266   2.853   4.634
 1701SOL    HW2 5556   0.191   2.978   4.675
 1702SOL     OW 5557   0.610   3.653   5.155
 1702SOL    HW1 5558   0.527   3.635   5.198
 1702SOL    HW2 5559   0.631   3.743   5.179
 1703SOL     OW 5560   0.574   2.852   3.866
 1703SOL    HW1 5561   0.624   2.892   3.795
 1703SOL    HW2 5562   0.618   2.881   3.946
 1704SOL     OW 5563   0.137   2.511   4.297
 1704SOL    HW1 5564   0.091   2.430   4.318
 1704SOL    HW2 5565   0.107   2.574   4.363
 1705SOL     OW 5566   1.843   3.618   4.056
 1705SOL    HW1 5567   1.910   3.592   4.119
 1705SOL    HW2 5568   1.864   3.710   4.037
 1706SOL     OW 5569   0.032   3.466   3.871
 1706SOL    HW1 5570   0.019   3.371   3.865
 1706SOL    HW2 5571   0.035   3.483   3.965
 1707SOL     OW 5572   1.691   2.784   4.367
 1707SOL    HW1 5573   1.767   2.735   4.336
 1707SOL    HW2 5574   1.662   2.835   4.291
 1708SOL     OW 5575   1.647   2.967   4.153
 1708SOL    HW1 5576   1.733   2.970   4.111
 1708SOL    HW2 5577   1.652   3.031   4.224
 1709SOL     OW 5578   0.111   2.629   5.299
 1709SOL    HW1 5579   0.199   2.621   5.262
 1709SOL    HW2 5580   0.104   2.720   5.326
 1710SOL     OW 5581   0.615   3.250   4.461
 1710SOL    HW1 5582   0.568   3.167   4.470
 1710SOL    HW2 5583   0.599   3.277   4.370
 1711SOL     OW 5584   1.287   3.100   5.145
 1711SOL    HW1 5585   1.317   3.030   5.086
 1711SOL    HW2 5586   1.345   3.093   5.221
 1712SOL     OW 5587   0.820   1.864   4.236
 1712SOL    HW1 5588   0.860   1.948   4.214
 1712SOL    HW2 5589   0.727   1.882   4.242
 1713SOL     OW 5590   0.177   2.800   5.003
 1713SOL    HW1 5591   0.268   2.781   4.983
 1713SOL    HW2 5592   0.132   2.795   4.918
 1714SOL     OW 5593   1.531   2.858   3.924
 1714SOL    HW1 5594   1.461   2.801   3.955
 1714SOL    HW2 5595   1.572   2.892   4.003
 1715SOL     OW 5596   1.187   3.672   5.348
 1715SOL    HW1 5597   1.192   3.732   5.273
 1715SOL    HW2 5598   1.203   3.586   5.311
 1716SOL     OW 5599   0.334   2.119   5.528
 1716SOL    HW1 5600   0.379   2.193   5.568
 1716SOL    HW2 5601   0.244   2.124   5.562
 1717SOL     OW 5602   1.468   3.281   4.674
 1717SOL    HW1 5603   1.400   3.297   4.739
 1717SOL    HW2 5604   1.453   3.191   4.646
 1718SOL     OW 5605   1.656   3.608   4.302
 1718SOL    HW1 5606   1.637   3.577   4.213
 1718SOL    HW2 5607   1.634   3.534   4.358
 1719SOL     OW 5608   0.598   2.580   3.993
 1719SOL    HW1 5609   0.598   2.663   3.945
 1719SOL    HW2 5610   0.532   2.593   4.061
 1720SOL     OW 5611   1.280   2.229   4.661
 1720SOL    HW1 5612   1.192   2.191   4.670
 1720SOL    HW2 5613   1.336   2.171   4.712
 1721SOL     OW 5614   1.579   3.534   4.034
 1721SOL    HW1 5615   1.670   3.562   4.026
 1721SOL    HW2 5616   1.552   3.517   3.944
 1722SOL     OW 5617   0.795   2.477   5.174
 1722SOL    HW1 5618   0.767   2.452   5.262
 1722SOL    HW2 5619   0.755   2.412   5.117
 1723SOL     OW 5620   1.395   2.335   5.400
 1723SOL    HW1 5621   1.397   2.377   5.486
 1723SOL    HW2 5622   1.451   2.258   5.410
 1724SOL     OW 5623   0.952   2.748   5.308
 1724SOL    HW1 5624   1.008   2.679   5.271
 1724SOL    HW2 5625   0.905   2.784   5.233
 1725SOL     OW 5626   0.993   2.274   4.960
 1725SOL    HW1 5627   0.906   2.293   4.995
 1725SOL    HW2 5628   0.977   2.229   4.878
 1726SOL     OW 5629   1.053   2.560   4.149
 1726SOL    HW1 5630   1.069   2.553   4.243
 1726SOL    HW2 5631   0.970   2.514   4.136
 1727SOL     OW 5632   0.091   2.693   4.511
 1727SOL    HW1 5633   0.178   2.681   4.549
 1727SOL    HW2 5634   0.032   2.699   4.586
 1728SOL     OW 5635   0.123   3.720   5.302
 1728SOL    HW1 5636   0.115   3.697   5.395
 1728SOL    HW2 5637   0.044   3.682   5.262
 1729SOL     OW 5638   0.897   2.212   3.919
 1729SOL    HW1 5639   0.936   2.274   3.858
 1729SOL    HW2 5640   0.908   2.127   3.877
 1730SOL     OW 5641   1.674   2.449   5.552
 1730SOL    HW1 5642   1.680   2.533   5.507
 1730SOL    HW2 5643   1.667   2.384   5.482
 1731SOL     OW 5644   1.379   3.004   4.265
 1731SOL    HW1 5645   1.457   2.992   4.211
 1731SOL    HW2 5646   1.325   3.066   4.216
 1732SOL     OW 5647   0.553   2.041   4.618
 1732SOL    HW1 5648   0.555   2.074   4.708
 1732SOL    HW2 5649   0.553   2.121   4.565
 1733SOL     OW 5650   1.003   3.306   4.194
 1733SOL    HW1 5651   0.969   3.380   4.144
 1733SOL    HW2 5652   0.979   3.326   4.285
 1734SOL     OW 5653   0.358   3.675   4.584
 1734SOL    HW1 5654   0.399   3.590   4.595
 1734SOL    HW2 5655   0.427   3.738   4.603
 1735SOL     OW 5656   1.808   2.926   4.582
 1735SOL    HW1 5657   1.751   2.899   4.511
 1735SOL    HW2 5658   1.750   2.935   4.658
 1736SOL     OW 5659   1.228   3.401   5.236
 1736SOL    HW1 5660   1.215   3.329   5.298
 1736SOL    HW2 5661   1.160   3.389   5.170
 1737SOL     OW 5662   0.313   2.814   3.982
 1737SOL    HW1 5663   0.395   2.838   3.941
 1737SOL    HW2 5664   0.300   2.722   3.958
 1738SOL     OW 5665   1.481   2.609   4.447
 1738SOL    HW1 5666   1.471   2.569   4.533
 1738SOL    HW2 5667   1.557   2.666   4.455
 1739SOL     OW 5668   0.470   3.126   5.459
 1739SOL    HW1 5669   0.444   3.133   5.367
 1739SOL    HW2 5670   0.388   3.127   5.508
 1740SOL     OW 5671   1.123   3.640   3.954
 1740SOL    HW1 5672   1.048   3.600   3.998
 1740SOL    HW2 5673   1.147   3.577   3.885
 1741SOL     OW 5674   0.200   2.138   5.209
 1741SOL    HW1 5675   0.143   2.214   5.215
 1741SOL    HW2 5676   0.181   2.087   5.287
 1742SOL     OW 5677   1.628   3.243   3.814
 1742SOL    HW1 5678   1.587   3.328   3.798
 1742SOL    HW2 5679   1.560   3.179   3.793
 1743SOL     OW 5680   0.469   3.605   4.037
 1743SOL    HW1 5681   0.513   3.658   4.102
 1743SOL    HW2 5682   0.540   3.567   3.985
 1744SOL     OW 5683   1.400   1.970   4.160
 1744SOL    HW1 5684   1.393   1.944   4.069
 1744SOL    HW2 5685   1.495   1.974   4.176
 1745SOL     OW 5686   0.259   3.654   4.950
 1745SOL    HW1 5687   0.303   3.577   4.986
 1745SOL    HW2 5688   0.219   3.624   4.869
 1746SOL     OW 5689   0.938   3.562   4.621
 1746SOL    HW1 5690   1.015   3.510   4.644
 1746SOL    HW2 5691   0.896   3.511   4.551
 1747SOL     OW 5692   0.397   2.555   4.195
 1747SOL    HW1 5693   0.418   2.463   4.208
 1747SOL    HW2 5694   0.305   2.562   4.221
 1748SOL     OW 5695   1.522   2.091   5.471
 1748SOL    HW1 5696   1.544   2.098   5.564
 1748SOL    HW2 5697   1.448   2.031   5.468
 1749SOL     OW 5698   0.641   1.983   3.825
 1749SOL    HW1 5699   0.702   1.912   3.844
 1749SOL    HW2 5700   0.589   1.952   3.751
 1750SOL     OW 5701   0.765   2.141   5.479
 1750SOL    HW1 5702   0.844   2.087   5.477
 1750SOL    HW2 5703   0.718   2.112   5.557
 1751SOL     OW 5704   0.877   3.386   4.918
 1751SOL    HW1 5705   0.859   3.348   4.831
 1751SOL    HW2 5706   0.946   3.330   4.954
 1752SOL     OW 5707   1.342   2.450   5.155
 1752SOL    HW1 5708   1.374   2.418   5.239
 1752SOL    HW2 5709   1.375   2.540   5.150
 1753SOL     OW 5710   0.818   3.254   4.668
 1753SOL    HW1 5711   0.902   3.242   4.623
 1753SOL    HW2 5712   0.754   3.258   4.597
 1754SOL     OW 5713   0.929   2.371   4.625
 1754SOL    HW1 5714   0.904   2.363   4.533
 1754SOL    HW2 5715   0.959   2.284   4.650
 1755SOL     OW 5716   0.556   1.924   4.221
 1755SOL    HW1 5717   0.476   1.922   4.273
 1755SOL    HW2 5718   0.547   2.002   4.166
 1756SOL     OW 5719   1.428   3.062   3.764
 1756SOL    HW1 5720   1.457   2.986   3.815
 1756SOL    HW2 5721   1.342   3.083   3.801
 1757SOL     OW 5722   0.295   1.907   3.901
 1757SOL    HW1 5723   0.359   1.973   3.873
 1757SOL    HW2 5724   0.348   1.841   3.946
 1758SOL     OW 5725   0.941   2.111   4.182
 1758SOL    HW1 5726   0.916   2.150   4.098
 1758SOL    HW2 5727   1.035   2.125   4.187
 1759SOL     OW 5728   1.081   2.544   5.182
 1759SOL    HW1 5729   1.013   2.477   5.186
 1759SOL    HW2 5730   1.163   2.495   5.176
 1760SOL     OW 5731   1.223   3.432   4.518
 1760SOL    HW1 5732   1.236   3.498   4.450
 1760SOL    HW2 5733   1.290   3.452   4.583
 1761SOL     OW 5734   0.469   3.014   4.457
 1761SOL    HW1 5735   0.400   2.995   4.520
 1761SOL    HW2 5736   0.427   2.999   4.372
 1762SOL     OW 5737   1.266   3.655   4.335
 1762SOL    HW1 5738   1.314   3.716   4.279
 1762SOL    HW2 5739   1.198   3.708   4.376
 1763SOL     OW 5740   1.023   2.400   3.749
 1763SOL    HW1 5741   0.979   2.483   3.729
 1763SOL    HW2 5742   1.088   2.422   3.815
 1764SOL     OW 5743   0.083   2.382   5.136
 1764SOL    HW1 5744   0.144   2.376   5.063
 1764SOL    HW2 5745   0.065   2.476   5.145
 1765SOL     OW 5746   0.559   2.090   4.892
 1765SOL    HW1 5747   0.603   2.014   4.929
 1765SOL    HW2 5748   0.468   2.080   4.918
 1766SOL     OW 5749   0.868   2.321   4.363
 1766SOL    HW1 5750   0.822   2.376   4.299
 1766SOL    HW2 5751   0.890   2.241   4.315
 1767SOL     OW 5752   1.014   1.918   4.474
 1767SOL    HW1 5753   0.958   1.910   4.398
 1767SOL    HW2 5754   0.993   1.841   4.528
 1768SOL     OW 5755   1.438   3.024   4.579
 1768SOL    HW1 5756   1.366   2.961   4.580
 1768SOL    HW2 5757   1.461   3.033   4.487
 1769SOL     OW 5758   1.461   2.456   4.692
 1769SOL    HW1 5759   1.390   2.392   4.684
 1769SOL    HW2 5760   1.533   2.406   4.731
 1770SOL     OW 5761   1.844   2.673   4.115
 1770SOL    HW1 5762   1.904   2.621   4.168
 1770SOL    HW2 5763   1.817   2.614   4.044
 1771SOL     OW 5764   0.492   3.283   3.880
 1771SOL    HW1 5765   0.413   3.255   3.928
 1771SOL    HW2 5766   0.479   3.248   3.792
 1772SOL     OW 5767   1.671   3.129   4.365
 1772SOL    HW1 5768   1.765   3.134   4.379
 1772SOL    HW2 5769   1.638   3.216   4.387
 1773SOL     OW 5770   1.394   2.434   3.796
 1773SOL    HW1 5771   1.332   2.414   3.866
 1773SOL    HW2 5772   1.477   2.399   3.828
 1774SOL     OW 5773   0.525   2.122   4.036
 1774SOL    HW1 5774   0.574   2.077   3.968
 1774SOL    HW2 5775   0.503   2.207   3.999
 1775SOL     OW 5776   1.753   3.105   5.296
 1775SOL    HW1 5777   1.840   3.066   5.294
 1775SOL    HW2 5778   1.767   3.196   5.321
 1776SOL     OW 5779   1.056   3.215   5.056
 1776SOL    HW1 5780   0.981   3.185   5.106
 1776SOL    HW2 5781   1.131   3.174   5.098
 1777SOL     OW 5782   1.610   3.488   5.380
 1777SOL    HW1 5783   1.601   3.522   5.291
 1777SOL    HW2 5784   1.693   3.440   5.380
 1778SOL     OW 5785   1.133   3.068   4.827
 1778SOL    HW1 5786   1.072   3.105   4.891
 1778SOL    HW2 5787   1.101   3.102   4.743
 1779SOL     OW 5788   1.630   2.979   4.789
 1779SOL    HW1 5789   1.620   3.043   4.860
 1779SOL    HW2 5790   1.553   2.994   4.734
 1780SOL     OW 5791   0.917   1.958   5.117
 1780SOL    HW1 5792   0.940   1.938   5.027
 1780SOL    HW2 5793   0.997   1.997   5.154
 1781SOL     OW 5794   0.984   2.977   5.446
 1781SOL    HW1 5795   0.893   2.993   5.470
 1781SOL    HW2 5796   0.981   2.899   5.392
 1782SOL     OW 5797   0.709   2.925   4.096
 1782SOL    HW1 5798   0.696   2.906   4.189
 1782SOL    HW2 5799   0.785   2.871   4.071
 1783SOL     OW 5800   0.432   2.691   4.970
 1783SOL    HW1 5801   0.502   2.705   5.034
 1783SOL    HW2 5802   0.376   2.624   5.009
 1784SOL     OW 5803   1.264   2.236   5.003
 1784SOL    HW1 5804   1.297   2.314   5.048
 1784SOL    HW2 5805   1.174   2.258   4.980
 1785SOL     OW 5806   0.064   3.437   5.069
 1785SOL    HW1 5807   0.037   3.528   5.055
 1785SOL    HW2 5808   0.159   3.441   5.074
 1786SOL     OW 5809   0.340   2.973   4.217
 1786SOL    HW1 5810   0.350   3.048   4.158
 1786SOL    HW2 5811   0.339   2.897   4.159
 1787SOL     OW 5812   0.559   2.391   4.578
 1787SOL    HW1 5813   0.572   2.452   4.505
 1787SOL    HW2 5814   0.622   2.420   4.644
 1788SOL     OW 5815   1.248   3.211   4.115
 1788SOL    HW1 5816   1.303   3.282   4.145
 1788SOL    HW2 5817   1.160   3.233   4.148
 1789SOL     OW 5818   1.285   3.321   4.871
 1789SOL    HW1 5819   1.340   3.324   4.950
 1789SOL    HW2 5820   1.228   3.245   4.885
 1790SOL     OW 5821   1.580   2.484   4.204
 1790SOL    HW1 5822   1.530   2.532   4.270
 1790SOL    HW2 5823   1.621   2.552   4.150
 1791SOL     OW 5824   0.345   3.398   5.035
 1791SOL    HW1 5825   0.332   3.349   4.954
 1791SOL    HW2 5826   0.440   3.406   5.043
 1792SOL     OW 5827   0.489   2.617   5.397
 1792SOL    HW1 5828   0.517   2.655   5.314
 1792SOL    HW2 5829   0.546   2.541   5.409
 1793SOL     OW 5830   0.996   1.991   5.477
 1793SOL    HW1 5831   1.055   2.062   5.453
 1793SOL    HW2 5832   1.044   1.911   5.453
 1794SOL     OW 5833   0.496   1.903   5.472
 1794SOL    HW1 5834   0.453   1.848   5.408
 1794SOL    HW2 5835   0.439   1.979   5.481
 1795SOL     OW 5836   0.592   2.736   4.750
 1795SOL    HW1 5837   0.621   2.827   4.751
 1795SOL    HW2 5838   0.534   2.728   4.826
 1796SOL     OW 5839   1.356   2.716   4.751
 1796SOL    HW1 5840   1.269   2.708   4.710
 1796SOL    HW2 5841   1.393   2.628   4.744
 1797SOL     OW 5842   1.202   2.390   3.988
 1797SOL    HW1 5843   1.210   2.312   4.042
 1797SOL    HW2 5844   1.159   2.454   4.045
 1798SOL     OW 5845   0.301   2.050   4.966
 1798SOL    HW1 5846   0.262   2.082   5.047
 1798SOL    HW2 5847   0.284   1.955   4.967
 1799SOL     OW 5848   0.026   3.174   5.011
 1799SOL    HW1 5849   0.069   3.126   5.083
 1799SOL    HW2 5850   0.037   3.266   5.035
 1800SOL     OW 5851   0.723   2.492   4.779
 1800SOL    HW1 5852   0.799   2.476   4.723
 1800SOL    HW2 5853   0.696   2.581   4.758
 1801SOL     OW 5854   1.719   2.815   5.558
 1801SOL    HW1 5855   1.656   2.804   5.488
 1801SOL    HW2 5856   1.666   2.817   5.638
 1802SOL     OW 5857   0.316   1.931   4.342
 1802SOL    HW1 5858   0.288   2.019   4.367
 1802SOL    HW2 5859   0.314   1.882   4.424
 1803SOL     OW 5860   1.621   2.239   4.087
 1803SOL    HW1 5861   1.649   2.173   4.151
 1803SOL    HW2 5862   1.599   2.316   4.140
 1804SOL     OW 5863   1.029   2.620   4.683
 1804SOL    HW1 5864   1.022   2.637   4.777
 1804SOL    HW2 5865   1.002   2.529   4.673
 1805SOL     OW 5866   0.984   3.430   5.443
 1805SOL    HW1 5867   0.967   3.473   5.359
 1805SOL    HW2 5868   1.025   3.347   5.420
 1806SOL     OW 5869   1.853   3.364   5.327
 1806SOL    HW1 5870   1.874   3.391   5.237
 1806SOL    HW2 5871   1.933   3.381   5.376
 1807SOL     OW 5872   0.347   2.798   5.541
 1807SOL    HW1 5873   0.418   2.828   5.598
 1807SOL    HW2 5874   0.387   2.729   5.488
 1808SOL     OW 5875   1.526   2.136   3.852
 1808SOL    HW1 5876   1.463   2.069   3.879
 1808SOL    HW2 5877   1.561   2.170   3.934
 1809SOL     OW 5878   1.290   2.687   3.754
 1809SOL    HW1 5879   1.333   2.602   3.758
 1809SOL    HW2 5880   1.321   2.726   3.672
 1810SOL     OW 5881   1.068   3.199   4.580
 1810SOL    HW1 5882   1.072   3.127   4.517
 1810SOL    HW2 5883   1.127   3.266   4.544
 1811SOL     OW 5884   0.319   2.672   4.667
 1811SOL    HW1 5885   0.413   2.689   4.667
 1811SOL    HW2 5886   0.311   2.580   4.693
 1812SOL     OW 5887   0.327   2.388   4.709
 1812SOL    HW1 5888   0.289   2.302   4.694
 1812SOL    HW2 5889   0.406   2.389   4.656
 1813SOL     OW 5890   1.135   2.237   5.407
 1813SOL    HW1 5891   1.087   2.291   5.470
 1813SOL    HW2 5892   1.221   2.277   5.403
 1814SOL     OW 5893   1.160   2.062   5.195
 1814SOL    HW1 5894   1.149   2.125   5.266
 1814SOL    HW2 5895   1.202   2.113   5.125
 1815SOL     OW 5896   4.491   3.182   3.933
 1815SOL    HW1 5897   4.399   3.199   3.915
 1815SOL    HW2 5898   4.495   3.089   3.954
 1816SOL     OW 5899   0.101   3.633   4.665
 1816SOL    HW1 5900   0.061   3.587   4.591
 1816SOL    HW2 5901   0.189   3.656   4.634
 1817SOL     OW 5902   0.494   3.436   4.631
 1817SOL    HW1 5903   0.562   3.499   4.655
 1817SOL    HW2 5904   0.538   3.374   4.573
 1818SOL     OW 5905   0.979   2.651   4.948
 1818SOL    HW1 5906   1.036   2.630   5.022
 1818SOL    HW2 5907   0.894   2.615   4.972
 1819SOL     OW 5908   0.029   2.424   4.820
 1819SOL    HW1 5909   0.118   2.399   4.796
 1819SOL    HW2 5910   0.010   2.374   4.899
 1820SOL     OW 5911   0.179   2.388   5.441
 1820SOL    HW1 5912   0.261   2.357   5.401
 1820SOL    HW2 5913   0.157   2.467   5.392
 1821SOL     OW 5914   1.391   2.799   5.390
 1821SOL    HW1 5915   1.407   2.892   5.376
 1821SOL    HW2 5916   1.396   2.761   5.303
 1822SOL     OW 5917   0.818   2.432   4.087
 1822SOL    HW1 5918   0.823   2.357   4.028
 1822SOL    HW2 5919   0.744   2.484   4.056
 1823SOL     OW 5920   0.275   3.424   5.464
 1823SOL    HW1 5921   0.214   3.475   5.517
 1823SOL    HW2 5922   0.257   3.333   5.488
 1824SOL     OW 5923   0.702   2.312   4.982
 1824SOL    HW1 5924   0.650   2.238   4.953
 1824SOL    HW2 5925   0.697   2.375   4.909
 1825SOL     OW 5926   0.927   3.541   5.192
 1825SOL    HW1 5927   0.900   3.503   5.108
 1825SOL    HW2 5928   0.918   3.635   5.179
 1826SOL     OW 5929   0.471   2.352   3.904
 1826SOL    HW1 5930   0.531   2.421   3.930
 1826SOL    HW2 5931   0.388   2.397   3.889
 1827SOL     OW 5932   0.162   3.003   5.182
 1827SOL    HW1 5933   0.144   2.960   5.266
 1827SOL    HW2 5934   0.168   2.932   5.119
 1828SOL     OW 5935   1.323   2.907   4.945
 1828SOL    HW1 5936   1.347   2.843   4.878
 1828SOL    HW2 5937   1.255   2.961   4.904
 1829SOL     OW 5938   1.314   2.719   4.029
 1829SOL    HW1 5939   1.239   2.687   4.080
 1829SOL    HW2 5940   1.288   2.705   3.938
 1830SOL     OW 5941   1.776   3.603   4.878
 1830SOL    HW1 5942   1.836   3.629   4.808
 1830SOL    HW2 5943   1.749   3.514   4.855
 1831SOL     OW 5944   1.240   3.595   4.833
 1831SOL    HW1 5945   1.323   3.618   4.790
 1831SOL    HW2 5946   1.248   3.502   4.853
 1832SOL     OW 5947   0.069   3.047   4.774
 1832SOL    HW1 5948   0.058   3.076   4.865
 1832SOL    HW2 5949   0.035   3.119   4.721
 1833SOL     OW 5950   0.679   3.531   5.459
 1833SOL    HW1 5951   0.619   3.605   5.451
 1833SOL    HW2 5952   0.744   3.545   5.390
 1834SOL     OW 5953   1.719   2.012   4.230
 1834SOL    HW1 5954   1.791   1.994   4.170
 1834SOL    HW2 5955   1.702   1.927   4.272
 1835SOL     OW 5956   1.392   3.430   4.212
 1835SOL    HW1 5957   1.451   3.463   4.144
 1835SOL    HW2 5958   1.342   3.506   4.240
 1836SOL     OW 5959   0.117   3.669   5.573
 1836SOL    HW1 5960   0.076   3.597   5.621
 1836SOL    HW2 5961   0.181   3.706   5.634
 1837SOL     OW 5962   1.277   2.789   4.394
 1837SOL    HW1 5963   1.351   2.728   4.401
 1837SOL    HW2 5964   1.311   2.862   4.342
 1838SOL     OW 5965   0.809   3.138   5.151
 1838SOL    HW1 5966   0.781   3.178   5.233
 1838SOL    HW2 5967   0.738   3.158   5.090
 1839SOL     OW 5968   0.672   3.485   3.879
 1839SOL    HW1 5969   0.683   3.498   3.785
 1839SOL    HW2 5970   0.617   3.407   3.886
 1840SOL     OW 5971   1.622   3.589   5.115
 1840SOL    HW1 5972   1.674   3.595   5.035
 1840SOL    HW2 5973   1.608   3.680   5.142
 1841SOL     OW 5974   0.262   2.181   4.441
 1841SOL    HW1 5975   0.179   2.220   4.415
 1841SOL    HW2 5976   0.253   2.167   4.536
 1842SOL     OW 5977   1.208   3.465   3.756
 1842SOL    HW1 5978   1.197   3.374   3.783
 1842SOL    HW2 5979   1.142   3.479   3.688
 1843SOL     OW 5980   0.827   2.870   5.097
 1843SOL    HW1 5981   0.868   2.866   5.011
 1843SOL    HW2 5982   0.823   2.963   5.118
 1844SOL     OW 5983   0.916   2.773   4.015
 1844SOL    HW1 5984   0.977   2.806   3.948
 1844SOL    HW2 5985   0.965   2.704   4.060
 1845SOL     OW 5986   1.490   3.489   3.768
 1845SOL    HW1 5987   1.396   3.480   3.753
 1845SOL    HW2 5988   1.527   3.495   3.680
 1846SOL     OW 5989   0.373   3.172   5.214
 1846SOL    HW1 5990   0.355   3.251   5.163
 1846SOL    HW2 5991   0.299   3.114   5.197
 1847SOL     OW 5992   1.613   3.149   5.005
 1847SOL    HW1 5993   1.669   3.135   5.082
 1847SOL    HW2 5994   1.550   3.215   5.034
 1848SOL     OW 5995   1.057   2.971   4.433
 1848SOL    HW1 5996   0.985   2.922   4.471
 1848SOL    HW2 5997   1.119   2.905   4.403
 1849SOL     OW 5998   1.024   2.103   4.691
 1849SOL    HW1 5999   1.020   2.057   4.608
 1849SOL    HW2 6000   1.019   2.035   4.757
 1850SOL     OW 6001   0.606   3.351   4.206
 1850SOL    HW1 6002   0.651   3.302   4.137
 1850SOL    HW2 6003   0.527   3.385   4.163
 1851SOL     OW 6004   0.253   3.205   3.999
 1851SOL    HW1 6005   0.158   3.201   3.986
 1851SOL    HW2 6006   0.263   3.237   4.088
 1852SOL     OW 6007   0.116   2.868   5.417
 1852SOL    HW1 6008   0.052   2.914   5.472
 1852SOL    HW2 6009   0.194   2.861   5.471
 1853SOL     OW 6010   0.676   2.061   5.223
 1853SOL    HW1 6011   0.759   2.037   5.183
 1853SOL    HW2 6012   0.699   2.090   5.312
 1854SOL     OW 6013   0.073   2.188   3.754
 1854SOL    HW1 6014   4.479   2.202   3.770
 1854SOL    HW2 6015   0.103   2.269   3.713
 1855SOL     OW 6016   1.422   2.719   5.126
 1855SOL    HW1 6017   1.367   2.779   5.075
 1855SOL    HW2 6018   1.510   2.728   5.088
 1856SOL     OW 6019   0.087   2.036   4.026
 1856SOL    HW1 6020   0.081   2.111   3.967
 1856SOL    HW2 6021   0.162   1.986   3.994
 1857SOL     OW 6022   1.178   3.199   3.841
 1857SOL    HW1 6023   1.087   3.169   3.842
 1857SOL    HW2 6024   1.204   3.199   3.933
 1858SOL     OW 6025   0.627   2.693   5.158
 1858SOL    HW1 6026   0.684   2.769   5.144
 1858SOL    HW2 6027   0.687   2.619   5.163
 1859SOL     OW 6028   1.483   3.642   4.705
 1859SOL    HW1 6029   1.504   3.705   4.636
 1859SOL    HW2 6030   1.567   3.620   4.744
 1860SOL     OW 6031   0.711   2.425   5.428
 1860SOL    HW1 6032   0.759   2.485   5.485
 1860SOL    HW2 6033   0.735   2.338   5.458
 1861SOL     OW 6034   1.474   3.062   5.354
 1861SOL    HW1 6035   1.458   3.076   5.447
 1861SOL    HW2 6036   1.566   3.084   5.342
 1862SOL     OW 6037   0.377   3.607   5.289
 1862SOL    HW1 6038   0.293   3.648   5.271
 1862SOL    HW2 6039   0.355   3.528   5.339
 1863SOL     OW 6040   1.647   2.774   4.967
 1863SOL    HW1 6041   1.656   2.701   4.906
 1863SOL    HW2 6042   1.641   2.852   4.911
 1864SOL     OW 6043   1.217   2.182   4.182
 1864SOL    HW1 6044   1.278   2.109   4.174
 1864SOL    HW2 6045   1.247   2.230   4.258
 1865SOL     OW 6046   0.589   2.598   4.395
 1865SOL    HW1 6047   0.627   2.684   4.380
 1865SOL    HW2 6048   0.522   2.589   4.327
 1866SOL     OW 6049   1.726   2.821   5.232
 1866SOL    HW1 6050   1.724   2.913   5.259
 1866SOL    HW2 6051   1.695   2.821   5.142
 1867SOL     OW 6052   0.865   3.228   3.764
 1867SOL    HW1 6053   0.825   3.255   3.846
 1867SOL    HW2 6054   0.879   3.310   3.716
 1868SOL     OW 6055   0.663   3.649   4.666
 1868SOL    HW1 6056   0.643   3.740   4.644
 1868SOL    HW2 6057   0.758   3.643   4.658
 1869SOL     OW 6058   0.869   2.832   4.578
 1869SOL    HW1 6059   0.918   2.759   4.616
 1869SOL    HW2 6060   0.832   2.877   4.653
 1870SOL     OW 6061   1.079   2.851   3.813
 1870SOL    HW1 6062   1.057   2.902   3.735
 1870SOL    HW2 6063   1.153   2.797   3.786
 1871SOL     OW 6064   1.852   3.415   4.567
 1871SOL    HW1 6065   1.772   3.402   4.516
 1871SOL    HW2 6066   1.851   3.344   4.631
 1872SOL     OW 6067   0.233   3.165   5.584
 1872SOL    HW1 6068   0.151   3.119   5.565
 1872SOL    HW2 6069   0.233   3.177   5.679
 1873SOL     OW 6070   0.117   3.093   4.392
 1873SOL    HW1 6071   0.133   3.052   4.477
 1873SOL    HW2 6072   0.173   3.045   4.331
 1874SOL     OW 6073   0.685   3.268   5.355
 1874SOL    HW1 6074   0.605   3.224   5.384
 1874SOL    HW2 6075   0.679   3.356   5.392
 1875SOL     OW 6076   0.435   2.295   4.250
 1875SOL    HW1 6077   0.461   2.221   4.194
 1875SOL    HW2 6078   0.384   2.255   4.320
 1876SOL     OW 6079   1.696   3.352   4.820
 1876SOL    HW1 6080   1.618   3.331   4.767
 1876SOL    HW2 6081   1.701   3.281   4.883
 1877SOL     OW 6082   0.294   2.350   4.973
 1877SOL    HW1 6083   0.369   2.307   5.015
 1877SOL    HW2 6084   0.324   2.367   4.883
 1878SOL     OW 6085   0.830   3.440   4.400
 1878SOL    HW1 6086   0.811   3.500   4.328
 1878SOL    HW2 6087   0.755   3.381   4.402
 1879SOL     OW 6088   1.433   2.087   4.845
 1879SOL    HW1 6089   1.431   1.996   4.875
 1879SOL    HW2 6090   1.378   2.134   4.908
 1880SOL     OW 6091   1.009   1.879   4.863
 1880SOL    HW1 6092   0.955   1.812   4.821
 1880SOL    HW2 6093   1.097   1.840   4.866
 1881SOL     OW 6094   0.773   3.196   4.042
 1881SOL    HW1 6095   0.744   3.105   4.048
 1881SOL    HW2 6096   0.855   3.198   4.092
 1882SOL     OW 6097   0.621   3.417   5.011
 1882SOL    HW1 6098   0.622   3.499   5.060
 1882SOL    HW2 6099   0.708   3.411   4.972
 1883SOL     OW 6100   1.355   1.915   3.891
 1883SOL    HW1 6101   1.385   1.847   3.831
 1883SOL    HW2 6102   1.266   1.887   3.916
 1884SOL     OW 6103   1.299   2.325   4.404
 1884SOL    HW1 6104   1.244   2.403   4.408
 1884SOL    HW2 6105   1.292   2.286   4.491
 1885SOL     OW 6106   1.555   2.044   4.589
 1885SOL    HW1 6107   1.535   2.076   4.677
 1885SOL    HW2 6108   1.582   2.121   4.540
 1886SOL     OW 6109   0.040   2.912   4.015
 1886SOL    HW1 6110   0.132   2.889   4.003
 1886SOL    HW2 6111   0.021   2.886   4.105
 1887SOL     OW 6112   0.888   3.519   4.064
 1887SOL    HW1 6113   0.814   3.502   4.005
 1887SOL    HW2 6114   0.859   3.592   4.118
 1888SOL     OW 6115   0.245   2.492   5.709
 1888SOL    HW1 6116   0.172   2.466   5.764
 1888SOL    HW2 6117   0.215   2.476   5.619
 1889SOL     OW 6118   0.213   2.136   6.577
 1889SOL    HW1 6119   0.249   2.110   6.661
 1889SOL    HW2 6120   0.137   2.079   6.564
 1890SOL     OW 6121   0.006   2.259   6.226
 1890SOL    HW1 6122   4.425   2.292   6.264
 1890SOL    HW2 6123   4.480   2.180   6.179
 1891SOL     OW 6124   0.569   3.155   6.766
 1891SOL    HW1 6125   0.482   3.160   6.726
 1891SOL    HW2 6126   0.584   3.243   6.801
 1892SOL     OW 6127   1.564   3.380   6.297
 1892SOL    HW1 6128   1.522   3.355   6.380
 1892SOL    HW2 6129   1.492   3.382   6.233
 1893SOL     OW 6130   1.130   2.559   6.283
 1893SOL    HW1 6131   1.177   2.642   6.269
 1893SOL    HW2 6132   1.083   2.572   6.365
 1894SOL     OW 6133   0.750   3.002   6.630
 1894SOL    HW1 6134   0.683   3.038   6.688
 1894SOL    HW2 6135   0.788   3.078   6.586
 1895SOL     OW 6136   0.870   2.628   7.407
 1895SOL    HW1 6137   0.856   2.698   7.471
 1895SOL    HW2 6138   0.894   2.673   7.326
 1896SOL     OW 6139   0.684   2.862   6.232
 1896SOL    HW1 6140   0.751   2.852   6.300
 1896SOL    HW2 6141   0.616   2.915   6.272
 1897SOL     OW 6142   0.713   3.011   7.403
 1897SOL    HW1 6143   0.760   3.089   7.431
 1897SOL    HW2 6144   0.632   3.044   7.364
 1898SOL     OW 6145   0.334   3.281   6.655
 1898SOL    HW1 6146   0.253   3.260   6.608
 1898SOL    HW2 6147   0.383   3.335   6.593
 1899SOL     OW 6148   1.459   3.363   6.944
 1899SOL    HW1 6149   1.512   3.442   6.954
 1899SOL    HW2 6150   1.393   3.370   7.012
 1900SOL     OW 6151   0.447   2.265   7.072
 1900SOL    HW1 6152   0.527   2.212   7.079
 1900SOL    HW2 6153   0.376   2.202   7.081
 1901SOL     OW 6154   1.575   2.269   6.360
 1901SOL    HW1 6155   1.494   2.290   6.314
 1901SOL    HW2 6156   1.629   2.348   6.353
 1902SOL     OW 6157   0.246   3.553   6.061
 1902SOL    HW1 6158   0.229   3.638   6.101
 1902SOL    HW2 6159   0.317   3.569   5.999
 1903SOL     OW 6160   1.137   3.204   7.280
 1903SOL    HW1 6161   1.177   3.198   7.366
 1903SOL    HW2 6162   1.085   3.124   7.272
 1904SOL     OW 6163   0.256   3.288   6.112
 1904SOL    HW1 6164   0.243   3.382   6.114
 1904SOL    HW2 6165   0.195   3.253   6.177
 1905SOL     OW 6166   0.253   2.945   6.472
 1905SOL    HW1 6167   0.267   2.853   6.495
 1905SOL    HW2 6168   0.191   2.977   6.537
 1906SOL     OW 6169   0.610   3.653   7.016
 1906SOL    HW1 6170   0.527   3.635   7.060
 1906SOL    HW2 6171   0.631   3.743   7.041
 1907SOL     OW 6172   0.574   2.852   5.728
 1907SOL    HW1 6173   0.624   2.892   5.657
 1907SOL    HW2 6174   0.618   2.881   5.808
 1908SOL     OW 6175   1.593   1.987   7.054
 1908SOL    HW1 6176   1.608   2.066   7.003
 1908SOL    HW2 6177   1.577   2.017   7.143
 1909SOL     OW 6178   0.137   2.511   6.159
 1909SOL    HW1 6179   0.091   2.430   6.180
 1909SOL    HW2 6180   0.107   2.574   6.225
 1910SOL     OW 6181   1.844   3.618   5.918
 1910SOL    HW1 6182   1.911   3.591   5.982
 1910SOL    HW2 6183   1.865   3.710   5.899
 1911SOL     OW 6184   0.032   3.466   5.733
 1911SOL    HW1 6185   0.019   3.371   5.726
 1911SOL    HW2 6186   0.035   3.482   5.827
 1912SOL     OW 6187   1.689   2.828   6.240
 1912SOL    HW1 6188   1.733   2.745   6.222
 1912SOL    HW2 6189   1.672   2.866   6.153
 1913SOL     OW 6190   1.649   2.978   6.005
 1913SOL    HW1 6191   1.717   3.015   5.949
 1913SOL    HW2 6192   1.645   3.037   6.080
 1914SOL     OW 6193   0.111   2.629   7.162
 1914SOL    HW1 6194   0.198   2.620   7.124
 1914SOL    HW2 6195   0.105   2.720   7.189
 1915SOL     OW 6196   0.615   3.250   6.322
 1915SOL    HW1 6197   0.569   3.167   6.332
 1915SOL    HW2 6198   0.599   3.277   6.232
 1916SOL     OW 6199   1.287   3.100   7.008
 1916SOL    HW1 6200   1.318   3.032   6.948
 1916SOL    HW2 6201   1.346   3.094   7.084
 1917SOL     OW 6202   0.820   1.863   6.098
 1917SOL    HW1 6203   0.860   1.948   6.075
 1917SOL    HW2 6204   0.726   1.882   6.104
 1918SOL     OW 6205   0.177   2.800   6.865
 1918SOL    HW1 6206   0.268   2.781   6.846
 1918SOL    HW2 6207   0.133   2.795   6.780
 1919SOL     OW 6208   1.535   2.853   5.782
 1919SOL    HW1 6209   1.460   2.803   5.812
 1919SOL    HW2 6210   1.572   2.891   5.862
 1920SOL     OW 6211   1.186   3.672   7.210
 1920SOL    HW1 6212   1.192   3.731   7.135
 1920SOL    HW2 6213   1.202   3.585   7.174
 1921SOL     OW 6214   0.333   2.119   7.389
 1921SOL    HW1 6215   0.379   2.193   7.430
 1921SOL    HW2 6216   0.244   2.124   7.424
 1922SOL     OW 6217   1.468   3.281   6.536
 1922SOL    HW1 6218   1.400   3.297   6.602
 1922SOL    HW2 6219   1.454   3.190   6.509
 1923SOL     OW 6220   1.657   3.608   6.163
 1923SOL    HW1 6221   1.638   3.576   6.075
 1923SOL    HW2 6222   1.633   3.536   6.221
 1924SOL     OW 6223   0.598   2.580   5.855
 1924SOL    HW1 6224   0.598   2.663   5.807
 1924SOL    HW2 6225   0.532   2.592   5.923
 1925SOL     OW 6226   1.282   2.215   6.517
 1925SOL    HW1 6227   1.195   2.179   6.536
 1925SOL    HW2 6228   1.342   2.163   6.570
 1926SOL     OW 6229   1.580   3.533   5.896
 1926SOL    HW1 6230   1.671   3.563   5.888
 1926SOL    HW2 6231   1.552   3.518   5.805
 1927SOL     OW 6232   0.792   2.478   7.036
 1927SOL    HW1 6233   0.766   2.452   7.124
 1927SOL    HW2 6234   0.753   2.411   6.979
 1928SOL     OW 6235   1.393   2.336   7.264
 1928SOL    HW1 6236   1.396   2.381   7.349
 1928SOL    HW2 6237   1.452   2.262   7.273
 1929SOL     OW 6238   0.952   2.748   7.170
 1929SOL    HW1 6239   1.007   2.679   7.133
 1929SOL    HW2 6240   0.905   2.784   7.095
 1930SOL     OW 6241   0.992   2.275   6.822
 1930SOL    HW1 6242   0.904   2.292   6.855
 1930SOL    HW2 6243   0.978   2.230   6.739
 1931SOL     OW 6244   1.053   2.560   6.011
 1931SOL    HW1 6245   1.070   2.553   6.105
 1931SOL    HW2 6246   0.970   2.514   5.998
 1932SOL     OW 6247   0.092   2.693   6.372
 1932SOL    HW1 6248   0.179   2.680   6.411
 1932SOL    HW2 6249   0.033   2.699   6.448
 1933SOL     OW 6250   0.123   3.720   7.164
 1933SOL    HW1 6251   0.115   3.697   7.257
 1933SOL    HW2 6252   0.044   3.682   7.124
 1934SOL     OW 6253   0.897   2.212   5.781
 1934SOL    HW1 6254   0.936   2.274   5.720
 1934SOL    HW2 6255   0.908   2.126   5.739
 1935SOL     OW 6256   1.703   2.437   7.417
 1935SOL    HW1 6257   1.667   2.510   7.366
 1935SOL    HW2 6258   1.732   2.374   7.351
 1936SOL     OW 6259   1.377   3.004   6.126
 1936SOL    HW1 6260   1.452   2.993   6.068
 1936SOL    HW2 6261   1.321   3.068   6.081
 1937SOL     OW 6262   0.553   2.041   6.480
 1937SOL    HW1 6263   0.555   2.073   6.571
 1937SOL    HW2 6264   0.553   2.121   6.427
 1938SOL     OW 6265   1.002   3.306   6.056
 1938SOL    HW1 6266   0.969   3.381   6.006
 1938SOL    HW2 6267   0.980   3.325   6.147
 1939SOL     OW 6268   0.358   3.675   6.446
 1939SOL    HW1 6269   0.399   3.590   6.457
 1939SOL    HW2 6270   0.427   3.738   6.465
 1940SOL     OW 6271   1.789   2.963   6.457
 1940SOL    HW1 6272   1.743   2.928   6.381
 1940SOL    HW2 6273   1.728   2.953   6.530
 1941SOL     OW 6274   1.227   3.401   7.099
 1941SOL    HW1 6275   1.215   3.329   7.160
 1941SOL    HW2 6276   1.161   3.387   7.031
 1942SOL     OW 6277   0.313   2.814   5.844
 1942SOL    HW1 6278   0.396   2.838   5.803
 1942SOL    HW2 6279   0.300   2.722   5.821
 1943SOL     OW 6280   1.467   2.611   6.327
 1943SOL    HW1 6281   1.447   2.557   6.404
 1943SOL    HW2 6282   1.560   2.629   6.333
 1944SOL     OW 6283   0.470   3.126   7.321
 1944SOL    HW1 6284   0.443   3.133   7.229
 1944SOL    HW2 6285   0.388   3.128   7.370
 1945SOL     OW 6286   1.123   3.640   5.816
 1945SOL    HW1 6287   1.048   3.600   5.860
 1945SOL    HW2 6288   1.147   3.577   5.748
 1946SOL     OW 6289   0.198   2.137   7.070
 1946SOL    HW1 6290   0.142   2.215   7.078
 1946SOL    HW2 6291   0.181   2.087   7.150
 1947SOL     OW 6292   1.628   3.244   5.675
 1947SOL    HW1 6293   1.588   3.329   5.660
 1947SOL    HW2 6294   1.558   3.181   5.655
 1948SOL     OW 6295   0.469   3.605   5.899
 1948SOL    HW1 6296   0.513   3.658   5.965
 1948SOL    HW2 6297   0.540   3.567   5.847
 1949SOL     OW 6298   1.398   1.971   6.014
 1949SOL    HW1 6299   1.383   1.954   5.921
 1949SOL    HW2 6300   1.489   1.946   6.028
 1950SOL     OW 6301   0.259   3.654   6.812
 1950SOL    HW1 6302   0.303   3.577   6.848
 1950SOL    HW2 6303   0.220   3.624   6.730
 1951SOL     OW 6304   0.938   3.562   6.483
 1951SOL    HW1 6305   1.015   3.510   6.507
 1951SOL    HW2 6306   0.896   3.511   6.413
 1952SOL     OW 6307   0.396   2.556   6.057
 1952SOL    HW1 6308   0.418   2.463   6.069
 1952SOL    HW2 6309   0.304   2.563   6.082
 1953SOL     OW 6310   1.531   2.087   7.311
 1953SOL    HW1 6311   1.541   2.107   7.404
 1953SOL    HW2 6312   1.462   2.021   7.308
 1954SOL     OW 6313   0.641   1.983   5.687
 1954SOL    HW1 6314   0.702   1.912   5.706
 1954SOL    HW2 6315   0.589   1.952   5.613
 1955SOL     OW 6316   0.765   2.141   7.341
 1955SOL    HW1 6317   0.844   2.087   7.338
 1955SOL    HW2 6318   0.718   2.112   7.419
 1956SOL     OW 6319   0.877   3.386   6.780
 1956SOL    HW1 6320   0.859   3.348   6.694
 1956SOL    HW2 6321   0.946   3.330   6.817
 1957SOL     OW 6322   1.339   2.452   7.019
 1957SOL    HW1 6323   1.370   2.420   7.103
 1957SOL    HW2 6324   1.377   2.539   7.010
 1958SOL     OW 6325   0.817   3.254   6.530
 1958SOL    HW1 6326   0.902   3.242   6.486
 1958SOL    HW2 6327   0.753   3.258   6.459
 1959SOL     OW 6328   0.928   2.371   6.488
 1959SOL    HW1 6329   0.904   2.362   6.396
 1959SOL    HW2 6330   0.961   2.284   6.513
 1960SOL     OW 6331   0.556   1.924   6.083
 1960SOL    HW1 6332   0.475   1.922   6.135
 1960SOL    HW2 6333   0.547   2.002   6.028
 1961SOL     OW 6334   1.428   3.062   5.626
 1961SOL    HW1 6335   1.454   2.984   5.675
 1961SOL    HW2 6336   1.341   3.084   5.661
 1962SOL     OW 6337   0.295   1.907   5.763
 1962SOL    HW1 6338   0.359   1.974   5.736
 1962SOL    HW2 6339   0.348   1.841   5.808
 1963SOL     OW 6340   0.940   2.111   6.043
 1963SOL    HW1 6341   0.914   2.150   5.960
 1963SOL    HW2 6342   1.034   2.126   6.049
 1964SOL     OW 6343   1.081   2.545   7.044
 1964SOL    HW1 6344   1.015   2.475   7.047
 1964SOL    HW2 6345   1.164   2.498   7.037
 1965SOL     OW 6346   1.223   3.432   6.380
 1965SOL    HW1 6347   1.237   3.499   6.312
 1965SOL    HW2 6348   1.290   3.449   6.445
 1966SOL     OW 6349   0.468   3.014   6.319
 1966SOL    HW1 6350   0.400   2.995   6.383
 1966SOL    HW2 6351   0.427   2.999   6.234
 1967SOL     OW 6352   1.267   3.654   6.197
 1967SOL    HW1 6353   1.314   3.716   6.141
 1967SOL    HW2 6354   1.198   3.707   6.238
 1968SOL     OW 6355   1.023   2.400   5.611
 1968SOL    HW1 6356   0.979   2.482   5.591
 1968SOL    HW2 6357   1.088   2.422   5.678
 1969SOL     OW 6358   0.081   2.382   6.997
 1969SOL    HW1 6359   0.144   2.376   6.925
 1969SOL    HW2 6360   0.067   2.476   7.008
 1970SOL     OW 6361   0.559   2.090   6.754
 1970SOL    HW1 6362   0.604   2.014   6.792
 1970SOL    HW2 6363   0.468   2.079   6.780
 1971SOL     OW 6364   0.867   2.320   6.226
 1971SOL    HW1 6365   0.822   2.376   6.162
 1971SOL    HW2 6366   0.888   2.240   6.177
 1972SOL     OW 6367   1.020   1.914   6.334
 1972SOL    HW1 6368   0.959   1.910   6.260
 1972SOL    HW2 6369   0.995   1.840   6.390
 1973SOL     OW 6370   1.436   3.025   6.442
 1973SOL    HW1 6371   1.369   2.957   6.447
 1973SOL    HW2 6372   1.458   3.030   6.349
 1974SOL     OW 6373   1.453   2.471   6.571
 1974SOL    HW1 6374   1.419   2.382   6.560
 1974SOL    HW2 6375   1.518   2.463   6.641
 1975SOL     OW 6376   0.492   3.283   5.742
 1975SOL    HW1 6377   0.413   3.255   5.790
 1975SOL    HW2 6378   0.479   3.248   5.654
 1976SOL     OW 6379   1.668   3.139   6.214
 1976SOL    HW1 6380   1.761   3.135   6.237
 1976SOL    HW2 6381   1.639   3.225   6.246
 1977SOL     OW 6382   1.393   2.429   5.656
 1977SOL    HW1 6383   1.335   2.411   5.730
 1977SOL    HW2 6384   1.481   2.414   5.690
 1978SOL     OW 6385   0.525   2.121   5.898
 1978SOL    HW1 6386   0.575   2.077   5.830
 1978SOL    HW2 6387   0.503   2.207   5.861
 1979SOL     OW 6388   1.750   3.104   7.153
 1979SOL    HW1 6389   1.837   3.063   7.151
 1979SOL    HW2 6390   1.766   3.194   7.182
 1980SOL     OW 6391   1.056   3.217   6.919
 1980SOL    HW1 6392   0.981   3.185   6.970
 1980SOL    HW2 6393   1.132   3.175   6.960
 1981SOL     OW 6394   1.609   3.489   7.243
 1981SOL    HW1 6395   1.602   3.523   7.153
 1981SOL    HW2 6396   1.691   3.440   7.243
 1982SOL     OW 6397   1.133   3.071   6.690
 1982SOL    HW1 6398   1.071   3.106   6.754
 1982SOL    HW2 6399   1.101   3.103   6.605
 1983SOL     OW 6400   1.620   2.958   6.668
 1983SOL    HW1 6401   1.616   3.021   6.739
 1983SOL    HW2 6402   1.540   2.973   6.617
 1984SOL     OW 6403   0.918   1.958   6.980
 1984SOL    HW1 6404   0.940   1.939   6.889
 1984SOL    HW2 6405   0.997   1.997   7.017
 1985SOL     OW 6406   0.984   2.977   7.309
 1985SOL    HW1 6407   0.893   2.993   7.332
 1985SOL    HW2 6408   0.981   2.898   7.254
 1986SOL     OW 6409   0.710   2.924   5.958
 1986SOL    HW1 6410   0.696   2.905   6.051
 1986SOL    HW2 6411   0.785   2.870   5.933
 1987SOL     OW 6412   0.432   2.692   6.832
 1987SOL    HW1 6413   0.502   2.705   6.896
 1987SOL    HW2 6414   0.376   2.624   6.871
 1988SOL     OW 6415   1.263   2.236   6.867
 1988SOL    HW1 6416   1.297   2.315   6.910
 1988SOL    HW2 6417   1.173   2.259   6.842
 1989SOL     OW 6418   0.064   3.437   6.931
 1989SOL    HW1 6419   0.038   3.528   6.916
 1989SOL    HW2 6420   0.160   3.440   6.936
 1990SOL     OW 6421   0.339   2.973   6.079
 1990SOL    HW1 6422   0.350   3.048   6.020
 1990SOL    HW2 6423   0.339   2.897   6.022
 1991SOL     OW 6424   0.559   2.391   6.440
 1991SOL    HW1 6425   0.571   2.452   6.367
 1991SOL    HW2 6426   0.622   2.420   6.506
 1992SOL     OW 6427   1.248   3.212   5.976
 1992SOL    HW1 6428   1.303   3.283   6.007
 1992SOL    HW2 6429   1.160   3.233   6.009
 1993SOL     OW 6430   1.285   3.321   6.733
 1993SOL    HW1 6431   1.340   3.324   6.812
 1993SOL    HW2 6432   1.230   3.244   6.745
 1994SOL     OW 6433   1.511   2.535   6.059
 1994SOL    HW1 6434   1.481   2.548   6.149
 1994SOL    HW2 6435   1.541   2.622   6.032
 1995SOL     OW 6436   0.345   3.398   6.897
 1995SOL    HW1 6437   0.332   3.349   6.816
 1995SOL    HW2 6438   0.440   3.406   6.905
 1996SOL     OW 6439   0.488   2.616   7.258
 1996SOL    HW1 6440   0.519   2.656   7.176
 1996SOL    HW2 6441   0.547   2.541   7.272
 1997SOL     OW 6442   1.605   2.643   7.270
 1997SOL    HW1 6443   1.519   2.684   7.264
 1997SOL    HW2 6444   1.657   2.685   7.201
 1998SOL     OW 6445   0.996   1.991   7.339
 1998SOL    HW1 6446   1.055   2.063   7.316
 1998SOL    HW2 6447   1.044   1.912   7.314
 1999SOL     OW 6448   0.496   1.903   7.335
 1999SOL    HW1 6449   0.453   1.847   7.270
 1999SOL    HW2 6450   0.439   1.979   7.343
 2000SOL     OW 6451   0.591   2.736   6.611
 2000SOL    HW1 6452   0.622   2.827   6.613
 2000SOL    HW2 6453   0.534   2.729   6.688
 2001SOL     OW 6454   1.350   2.724   6.613
 2001SOL    HW1 6455   1.266   2.710   6.569
 2001SOL    HW2 6456   1.394   2.639   6.609
 2002SOL     OW 6457   1.203   2.391   5.850
 2002SOL    HW1 6458   1.210   2.313   5.905
 2002SOL    HW2 6459   1.161   2.456   5.906
 2003SOL     OW 6460   0.300   2.049   6.828
 2003SOL    HW1 6461   0.262   2.082   6.909
 2003SOL    HW2 6462   0.284   1.955   6.829
 2004SOL     OW 6463   0.026   3.174   6.873
 2004SOL    HW1 6464   0.068   3.126   6.944
 2004SOL    HW2 6465   0.036   3.266   6.897
 2005SOL     OW 6466   0.723   2.491   6.641
 2005SOL    HW1 6467   0.800   2.475   6.586
 2005SOL    HW2 6468   0.696   2.581   6.620
 2006SOL     OW 6469   1.736   2.823   7.441
 2006SOL    HW1 6470   1.692   2.757   7.387
 2006SOL    HW2 6471   1.676   2.838   7.514
 2007SOL     OW 6472   0.315   1.931   6.204
 2007SOL    HW1 6473   0.288   2.019   6.229
 2007SOL    HW2 6474   0.314   1.882   6.286
 2008SOL     OW 6475   1.027   2.621   6.544
 2008SOL    HW1 6476   1.022   2.638   6.638
 2008SOL    HW2 6477   1.002   2.529   6.536
 2009SOL     OW 6478   0.983   3.429   7.305
 2009SOL    HW1 6479   0.967   3.472   7.221
 2009SOL    HW2 6480   1.025   3.347   7.282
 2010SOL     OW 6481   1.853   3.365   7.191
 2010SOL    HW1 6482   1.873   3.392   7.101
 2010SOL    HW2 6483   1.934   3.381   7.240
 2011SOL     OW 6484   0.347   2.797   7.403
 2011SOL    HW1 6485   0.418   2.828   7.459
 2011SOL    HW2 6486   0.387   2.728   7.350
 2012SOL     OW 6487   1.289   2.684   5.614
 2012SOL    HW1 6488   1.329   2.597   5.617
 2012SOL    HW2 6489   1.326   2.724   5.534
 2013SOL     OW 6490   1.067   3.199   6.441
 2013SOL    HW1 6491   1.071   3.127   6.378
 2013SOL    HW2 6492   1.127   3.265   6.405
 2014SOL     OW 6493   0.319   2.673   6.529
 2014SOL    HW1 6494   0.413   2.690   6.529
 2014SOL    HW2 6495   0.311   2.581   6.555
 2015SOL     OW 6496   0.326   2.389   6.572
 2015SOL    HW1 6497   0.289   2.302   6.557
 2015SOL    HW2 6498   0.406   2.390   6.519
 2016SOL     OW 6499   1.134   2.236   7.271
 2016SOL    HW1 6500   1.086   2.290   7.333
 2016SOL    HW2 6501   1.221   2.275   7.266
 2017SOL     OW 6502   1.160   2.062   7.057
 2017SOL    HW1 6503   1.149   2.125   7.129
 2017SOL    HW2 6504   1.202   2.112   6.987
 2018SOL     OW 6505   4.491   3.182   5.795
 2018SOL    HW1 6506   4.399   3.199   5.777
 2018SOL    HW2 6507   4.494   3.089   5.816
 2019SOL     OW 6508   0.101   3.633   6.527
 2019SOL    HW1 6509   0.061   3.587   6.453
 2019SOL    HW2 6510   0.189   3.656   6.496
 2020SOL     OW 6511   0.494   3.436   6.493
 2020SOL    HW1 6512   0.562   3.499   6.517
 2020SOL    HW2 6513   0.538   3.374   6.435
 2021SOL     OW 6514   0.978   2.653   6.811
 2021SOL    HW1 6515   1.037   2.631   6.884
 2021SOL    HW2 6516   0.895   2.613   6.835
 2022SOL     OW 6517   0.028   2.424   6.681
 2022SOL    HW1 6518   0.118   2.399   6.657
 2022SOL    HW2 6519   0.011   2.374   6.761
 2023SOL     OW 6520   0.180   2.388   7.303
 2023SOL    HW1 6521   0.262   2.357   7.264
 2023SOL    HW2 6522   0.158   2.467   7.254
 2024SOL     OW 6523   1.378   2.798   7.244
 2024SOL    HW1 6524   1.399   2.892   7.240
 2024SOL    HW2 6525   1.375   2.771   7.152
 2025SOL     OW 6526   0.818   2.431   5.950
 2025SOL    HW1 6527   0.822   2.357   5.890
 2025SOL    HW2 6528   0.744   2.484   5.919
 2026SOL     OW 6529   1.647   2.466   6.769
 2026SOL    HW1 6530   1.637   2.404   6.841
 2026SOL    HW2 6531   1.732   2.446   6.731
 2027SOL     OW 6532   0.275   3.424   7.326
 2027SOL    HW1 6533   0.214   3.475   7.379
 2027SOL    HW2 6534   0.257   3.333   7.350
 2028SOL     OW 6535   0.700   2.312   6.844
 2028SOL    HW1 6536   0.649   2.237   6.814
 2028SOL    HW2 6537   0.696   2.375   6.771
 2029SOL     OW 6538   0.925   3.541   7.055
 2029SOL    HW1 6539   0.900   3.503   6.971
 2029SOL    HW2 6540   0.917   3.636   7.041
 2030SOL     OW 6541   0.471   2.351   5.766
 2030SOL    HW1 6542   0.532   2.420   5.792
 2030SOL    HW2 6543   0.388   2.397   5.751
 2031SOL     OW 6544   0.161   3.004   7.043
 2031SOL    HW1 6545   0.144   2.961   7.127
 2031SOL    HW2 6546   0.168   2.932   6.981
 2032SOL     OW 6547   1.323   2.909   6.808
 2032SOL    HW1 6548   1.344   2.844   6.741
 2032SOL    HW2 6549   1.255   2.963   6.769
 2033SOL     OW 6550   1.313   2.733   5.887
 2033SOL    HW1 6551   1.248   2.692   5.945
 2033SOL    HW2 6552   1.283   2.712   5.799
 2034SOL     OW 6553   1.776   3.602   6.739
 2034SOL    HW1 6554   1.835   3.628   6.669
 2034SOL    HW2 6555   1.750   3.512   6.717
 2035SOL     OW 6556   1.240   3.595   6.695
 2035SOL    HW1 6557   1.323   3.617   6.652
 2035SOL    HW2 6558   1.248   3.502   6.715
 2036SOL     OW 6559   0.069   3.047   6.636
 2036SOL    HW1 6560   0.057   3.077   6.727
 2036SOL    HW2 6561   0.035   3.119   6.583
 2037SOL     OW 6562   0.679   3.531   7.322
 2037SOL    HW1 6563   0.620   3.605   7.312
 2037SOL    HW2 6564   0.745   3.544   7.253
 2038SOL     OW 6565   1.392   3.430   6.074
 2038SOL    HW1 6566   1.451   3.464   6.006
 2038SOL    HW2 6567   1.342   3.506   6.102
 2039SOL     OW 6568   0.117   3.669   7.435
 2039SOL    HW1 6569   0.076   3.597   7.484
 2039SOL    HW2 6570   0.180   3.706   7.496
 2040SOL     OW 6571   1.271   2.791   6.257
 2040SOL    HW1 6572   1.346   2.735   6.277
 2040SOL    HW2 6573   1.309   2.862   6.205
 2041SOL     OW 6574   0.809   3.138   7.012
 2041SOL    HW1 6575   0.782   3.178   7.095
 2041SOL    HW2 6576   0.738   3.157   6.951
 2042SOL     OW 6577   0.672   3.485   5.741
 2042SOL    HW1 6578   0.683   3.498   5.647
 2042SOL    HW2 6579   0.617   3.407   5.748
 2043SOL     OW 6580   1.622   3.589   6.977
 2043SOL    HW1 6581   1.674   3.595   6.897
 2043SOL    HW2 6582   1.608   3.680   7.004
 2044SOL     OW 6583   1.824   2.039   6.590
 2044SOL    HW1 6584   1.866   1.958   6.559
 2044SOL    HW2 6585   1.752   2.053   6.530
 2045SOL     OW 6586   0.262   2.180   6.303
 2045SOL    HW1 6587   0.178   2.220   6.277
 2045SOL    HW2 6588   0.253   2.167   6.397
 2046SOL     OW 6589   1.209   3.465   5.618
 2046SOL    HW1 6590   1.197   3.374   5.645
 2046SOL    HW2 6591   1.143   3.479   5.550
 2047SOL     OW 6592   0.826   2.869   6.960
 2047SOL    HW1 6593   0.869   2.864   6.874
 2047SOL    HW2 6594   0.823   2.963   6.979
 2048SOL     OW 6595   0.917   2.773   5.875
 2048SOL    HW1 6596   0.978   2.805   5.809
 2048SOL    HW2 6597   0.966   2.705   5.922
 2049SOL     OW 6598   1.491   3.488   5.629
 2049SOL    HW1 6599   1.396   3.480   5.615
 2049SOL    HW2 6600   1.528   3.494   5.541
 2050SOL     OW 6601   0.373   3.172   7.076
 2050SOL    HW1 6602   0.355   3.251   7.025
 2050SOL    HW2 6603   0.299   3.114   7.058
 2051SOL     OW 6604   1.611   3.148   6.867
 2051SOL    HW1 6605   1.667   3.131   6.943
 2051SOL    HW2 6606   1.549   3.215   6.897
 2052SOL     OW 6607   1.056   2.972   6.294
 2052SOL    HW1 6608   0.984   2.921   6.332
 2052SOL    HW2 6609   1.120   2.906   6.268
 2053SOL     OW 6610   1.022   2.102   6.554
 2053SOL    HW1 6611   1.020   2.056   6.471
 2053SOL    HW2 6612   1.017   2.033   6.620
 2054SOL     OW 6613   0.606   3.351   6.067
 2054SOL    HW1 6614   0.651   3.302   5.999
 2054SOL    HW2 6615   0.527   3.385   6.025
 2055SOL     OW 6616   1.725   2.263   6.973
 2055SOL    HW1 6617   1.798   2.326   6.970
 2055SOL    HW2 6618   1.758   2.186   6.927
 2056SOL     OW 6619   0.253   3.205   5.861
 2056SOL    HW1 6620   0.158   3.201   5.848
 2056SOL    HW2 6621   0.263   3.237   5.950
 2057SOL     OW 6622   0.116   2.869   7.278
 2057SOL    HW1 6623   0.053   2.913   7.334
 2057SOL    HW2 6624   0.195   2.861   7.333
 2058SOL     OW 6625   0.676   2.060   7.085
 2058SOL    HW1 6626   0.760   2.037   7.045
 2058SOL    HW2 6627   0.699   2.090   7.173
 2059SOL     OW 6628   0.072   2.187   5.616
 2059SOL    HW1 6629   4.479   2.202   5.632
 2059SOL    HW2 6630   0.103   2.269   5.575
 2060SOL     OW 6631   1.428   2.721   6.985
 2060SOL    HW1 6632   1.379   2.781   6.930
 2060SOL    HW2 6633   1.517   2.722   6.949
 2061SOL     OW 6634   0.087   2.036   5.889
 2061SOL    HW1 6635   0.080   2.111   5.830
 2061SOL    HW2 6636   0.162   1.986   5.856
 2062SOL     OW 6637   1.178   3.198   5.702
 2062SOL    HW1 6638   1.087   3.169   5.704
 2062SOL    HW2 6639   1.205   3.199   5.794
 2063SOL     OW 6640   0.626   2.693   7.021
 2063SOL    HW1 6641   0.683   2.769   7.006
 2063SOL    HW2 6642   0.686   2.619   7.025
 2064SOL     OW 6643   1.483   3.643   6.567
 2064SOL    HW1 6644   1.505   3.705   6.499
 2064SOL    HW2 6645   1.567   3.620   6.607
 2065SOL     OW 6646   0.710   2.426   7.290
 2065SOL    HW1 6647   0.760   2.485   7.347
 2065SOL    HW2 6648   0.735   2.338   7.320
 2066SOL     OW 6649   1.473   3.059   7.216
 2066SOL    HW1 6650   1.460   3.073   7.310
 2066SOL    HW2 6651   1.566   3.076   7.202
 2067SOL     OW 6652   0.377   3.607   7.151
 2067SOL    HW1 6653   0.293   3.648   7.133
 2067SOL    HW2 6654   0.355   3.528   7.201
 2068SOL     OW 6655   1.668   2.741   6.842
 2068SOL    HW1 6656   1.662   2.656   6.800
 2068SOL    HW2 6657   1.656   2.804   6.770
 2069SOL     OW 6658   1.214   2.183   6.043
 2069SOL    HW1 6659   1.277   2.111   6.034
 2069SOL    HW2 6660   1.244   2.231   6.120
 2070SOL     OW 6661   0.589   2.597   6.256
 2070SOL    HW1 6662   0.627   2.684   6.242
 2070SOL    HW2 6663   0.522   2.589   6.188
 2071SOL     OW 6664   1.761   2.226   7.248
 2071SOL    HW1 6665   1.754   2.241   7.154
 2071SOL    HW2 6666   1.688   2.169   7.270
 2072SOL     OW 6667   1.747   2.796   7.097
 2072SOL    HW1 6668   1.737   2.891   7.109
 2072SOL    HW2 6669   1.730   2.782   7.004
 2073SOL     OW 6670   0.866   3.228   5.626
 2073SOL    HW1 6671   0.826   3.254   5.709
 2073SOL    HW2 6672   0.879   3.310   5.579
 2074SOL     OW 6673   0.663   3.649   6.528
 2074SOL    HW1 6674   0.643   3.740   6.506
 2074SOL    HW2 6675   0.758   3.642   6.520
 2075SOL     OW 6676   0.869   2.832   6.439
 2075SOL    HW1 6677   0.918   2.759   6.477
 2075SOL    HW2 6678   0.832   2.877   6.515
 2076SOL     OW 6679   1.080   2.851   5.673
 2076SOL    HW1 6680   1.057   2.901   5.595
 2076SOL    HW2 6681   1.153   2.795   5.645
 2077SOL     OW 6682   1.850   3.415   6.429
 2077SOL    HW1 6683   1.770   3.405   6.377
 2077SOL    HW2 6684   1.839   3.353   6.501
 2078SOL     OW 6685   0.233   3.166   7.446
 2078SOL    HW1 6686   0.152   3.118   7.428
 2078SOL    HW2 6687   0.233   3.177   7.541
 2079SOL     OW 6688   0.117   3.093   6.254
 2079SOL    HW1 6689   0.134   3.051   6.339
 2079SOL    HW2 6690   0.173   3.046   6.193
 2080SOL     OW 6691   0.685   3.268   7.217
 2080SOL    HW1 6692   0.605   3.224   7.246
 2080SOL    HW2 6693   0.679   3.356   7.254
 2081SOL     OW 6694   1.826   2.048   6.854
 2081SOL    HW1 6695   1.844   1.955   6.870
 2081SOL    HW2 6696   1.825   2.056   6.759
 2082SOL     OW 6697   0.435   2.295   6.111
 2082SOL    HW1 6698   0.461   2.221   6.056
 2082SOL    HW2 6699   0.384   2.255   6.182
 2083SOL     OW 6700   1.700   3.348   6.678
 2083SOL    HW1 6701   1.619   3.328   6.630
 2083SOL    HW2 6702   1.706   3.280   6.745
 2084SOL     OW 6703   0.294   2.350   6.836
 2084SOL    HW1 6704   0.369   2.307   6.878
 2084SOL    HW2 6705   0.324   2.367   6.746
 2085SOL     OW 6706   0.830   3.440   6.262
 2085SOL    HW1 6707   0.810   3.499   6.190
 2085SOL    HW2 6708   0.755   3.380   6.265
 2086SOL     OW 6709   1.428   2.086   6.709
 2086SOL    HW1 6710   1.452   2.006   6.757
 2086SOL    HW2 6711   1.376   2.136   6.771
 2087SOL     OW 6712   1.008   1.878   6.725
 2087SOL    HW1 6713   0.954   1.811   6.684
 2087SOL    HW2 6714   1.096   1.841   6.727
 2088SOL     OW 6715   0.774   3.195   5.903
 2088SOL    HW1 6716   0.745   3.104   5.910
 2088SOL    HW2 6717   0.855   3.198   5.954
 2089SOL     OW 6718   0.621   3.417   6.873
 2089SOL    HW1 6719   0.622   3.499   6.922
 2089SOL    HW2 6720   0.709   3.411   6.834
 2090SOL     OW 6721   1.348   1.909   5.750
 2090SOL    HW1 6722   1.378   1.844   5.687
 2090SOL    HW2 6723   1.261   1.879   5.776
 2091SOL     OW 6724   1.296   2.322   6.268
 2091SOL    HW1 6725   1.241   2.401   6.271
 2091SOL    HW2 6726   1.287   2.283   6.355
 2092SOL     OW 6727   0.040   2.912   5.877
 2092SOL    HW1 6728   0.132   2.890   5.865
 2092SOL    HW2 6729   0.021   2.886   5.967
 2093SOL     OW 6730   0.888   3.519   5.925
 2093SOL    HW1 6731   0.814   3.502   5.867
 2093SOL    HW2 6732   0.859   3.592   5.980
 2094SOL     OW 6733   0.245   2.493   7.571
 2094SOL    HW1 6734   0.171   2.467   7.626
 2094SOL    HW2 6735   0.216   2.475   7.481
 2095SOL     OW 6736   0.213   2.136   8.439
 2095SOL    HW1 6737   0.249   2.110   8.523
 2095SOL    HW2 6738   0.138   2.079   8.426
 2096SOL     OW 6739   0.006   2.259   8.088
 2096SOL    HW1 6740   4.425   2.292   8.126
 2096SOL    HW2 6741   4.481   2.179   8.042
 2097SOL     OW 6742   0.569   3.155   8.628
 2097SOL    HW1 6743   0.482   3.160   8.588
 2097SOL    HW2 6744   0.584   3.243   8.663
 2098SOL     OW 6745   1.566   3.375   8.156
 2098SOL    HW1 6746   1.523   3.353   8.239
 2098SOL    HW2 6747   1.495   3.378   8.092
 2099SOL     OW 6748   1.131   2.560   8.146
 2099SOL    HW1 6749   1.180   2.642   8.133
 2099SOL    HW2 6750   1.084   2.573   8.228
 2100SOL     OW 6751   1.774   2.466   7.674
 2100SOL    HW1 6752   1.748   2.459   7.583
 2100SOL    HW2 6753   1.740   2.387   7.715
 2101SOL     OW 6754   0.750   3.002   8.492
 2101SOL    HW1 6755   0.683   3.038   8.549
 2101SOL    HW2 6756   0.788   3.078   8.448
 2102SOL     OW 6757   0.870   2.628   9.269
 2102SOL    HW1 6758   0.856   2.698   9.333
 2102SOL    HW2 6759   0.894   2.674   9.188
 2103SOL     OW 6760   0.684   2.862   8.094
 2103SOL    HW1 6761   0.751   2.852   8.162
 2103SOL    HW2 6762   0.616   2.915   8.135
 2104SOL     OW 6763   0.713   3.011   9.265
 2104SOL    HW1 6764   0.760   3.089   9.293
 2104SOL    HW2 6765   0.632   3.044   9.226
 2105SOL     OW 6766   0.334   3.281   8.517
 2105SOL    HW1 6767   0.253   3.260   8.470
 2105SOL    HW2 6768   0.383   3.335   8.455
 2106SOL     OW 6769   1.460   3.363   8.806
 2106SOL    HW1 6770   1.513   3.442   8.816
 2106SOL    HW2 6771   1.393   3.370   8.874
 2107SOL     OW 6772   0.447   2.265   8.933
 2107SOL    HW1 6773   0.527   2.212   8.941
 2107SOL    HW2 6774   0.376   2.203   8.943
 2108SOL     OW 6775   1.607   2.305   8.191
 2108SOL    HW1 6776   1.533   2.325   8.133
 2108SOL    HW2 6777   1.620   2.386   8.241
 2109SOL     OW 6778   0.246   3.553   7.922
 2109SOL    HW1 6779   0.230   3.638   7.963
 2109SOL    HW2 6780   0.317   3.569   7.861
 2110SOL     OW 6781   1.137   3.204   9.142
 2110SOL    HW1 6782   1.177   3.198   9.228
 2110SOL    HW2 6783   1.085   3.124   9.134
 2111SOL     OW 6784   0.255   3.288   7.974
 2111SOL    HW1 6785   0.243   3.382   7.976
 2111SOL    HW2 6786   0.194   3.254   8.040
 2112SOL     OW 6787   0.252   2.945   8.334
 2112SOL    HW1 6788   0.267   2.853   8.357
 2112SOL    HW2 6789   0.190   2.977   8.399
 2113SOL     OW 6790   0.610   3.653   8.878
 2113SOL    HW1 6791   0.527   3.635   8.922
 2113SOL    HW2 6792   0.631   3.743   8.903
 2114SOL     OW 6793   0.574   2.852   7.590
 2114SOL    HW1 6794   0.624   2.892   7.519
 2114SOL    HW2 6795   0.618   2.881   7.670
 2115SOL     OW 6796   1.591   1.987   8.912
 2115SOL    HW1 6797   1.616   2.066   8.864
 2115SOL    HW2 6798   1.576   2.017   9.002
 2116SOL     OW 6799   0.136   2.511   8.021
 2116SOL    HW1 6800   0.091   2.430   8.043
 2116SOL    HW2 6801   0.107   2.574   8.087
 2117SOL     OW 6802   1.843   3.618   7.780
 2117SOL    HW1 6803   1.910   3.591   7.843
 2117SOL    HW2 6804   1.864   3.710   7.761
 2118SOL     OW 6805   0.032   3.466   7.595
 2118SOL    HW1 6806   0.019   3.371   7.589
 2118SOL    HW2 6807   0.036   3.482   7.690
 2119SOL     OW 6808   1.692   2.781   8.092
 2119SOL    HW1 6809   1.770   2.733   8.065
 2119SOL    HW2 6810   1.667   2.832   8.014
 2120SOL     OW 6811   1.647   2.966   7.877
 2120SOL    HW1 6812   1.733   2.969   7.836
 2120SOL    HW2 6813   1.653   3.029   7.949
 2121SOL     OW 6814   0.111   2.629   9.023
 2121SOL    HW1 6815   0.198   2.620   8.986
 2121SOL    HW2 6816   0.105   2.720   9.051
 2122SOL     OW 6817   0.615   3.250   8.184
 2122SOL    HW1 6818   0.569   3.167   8.194
 2122SOL    HW2 6819   0.599   3.277   8.094
 2123SOL     OW 6820   1.287   3.099   8.870
 2123SOL    HW1 6821   1.318   3.031   8.810
 2123SOL    HW2 6822   1.346   3.093   8.945
 2124SOL     OW 6823   0.820   1.864   7.959
 2124SOL    HW1 6824   0.860   1.948   7.938
 2124SOL    HW2 6825   0.726   1.882   7.966
 2125SOL     OW 6826   0.177   2.800   8.727
 2125SOL    HW1 6827   0.268   2.781   8.708
 2125SOL    HW2 6828   0.133   2.795   8.642
 2126SOL     OW 6829   1.531   2.858   7.647
 2126SOL    HW1 6830   1.462   2.801   7.679
 2126SOL    HW2 6831   1.573   2.892   7.727
 2127SOL     OW 6832   1.186   3.672   9.072
 2127SOL    HW1 6833   1.192   3.731   8.997
 2127SOL    HW2 6834   1.202   3.585   9.036
 2128SOL     OW 6835   0.333   2.119   9.251
 2128SOL    HW1 6836   0.379   2.193   9.292
 2128SOL    HW2 6837   0.244   2.124   9.286
 2129SOL     OW 6838   1.468   3.281   8.397
 2129SOL    HW1 6839   1.400   3.297   8.463
 2129SOL    HW2 6840   1.454   3.190   8.371
 2130SOL     OW 6841   1.656   3.608   8.025
 2130SOL    HW1 6842   1.637   3.577   7.937
 2130SOL    HW2 6843   1.633   3.534   8.082
 2131SOL     OW 6844   0.598   2.580   7.717
 2131SOL    HW1 6845   0.598   2.663   7.669
 2131SOL    HW2 6846   0.532   2.593   7.785
 2132SOL     OW 6847   1.278   2.221   8.381
 2132SOL    HW1 6848   1.189   2.187   8.391
 2132SOL    HW2 6849   1.331   2.167   8.440
 2133SOL     OW 6850   1.579   3.535   7.758
 2133SOL    HW1 6851   1.670   3.563   7.750
 2133SOL    HW2 6852   1.551   3.518   7.668
 2134SOL     OW 6853   0.793   2.478   8.898
 2134SOL    HW1 6854   0.766   2.452   8.986
 2134SOL    HW2 6855   0.754   2.412   8.841
 2135SOL     OW 6856   1.392   2.336   9.126
 2135SOL    HW1 6857   1.397   2.380   9.211
 2135SOL    HW2 6858   1.453   2.263   9.133
 2136SOL     OW 6859   0.952   2.748   9.032
 2136SOL    HW1 6860   1.007   2.679   8.995
 2136SOL    HW2 6861   0.905   2.784   8.957
 2137SOL     OW 6862   0.992   2.275   8.684
 2137SOL    HW1 6863   0.905   2.293   8.718
 2137SOL    HW2 6864   0.977   2.229   8.602
 2138SOL     OW 6865   1.053   2.561   7.873
 2138SOL    HW1 6866   1.070   2.554   7.967
 2138SOL    HW2 6867   0.970   2.514   7.860
 2139SOL     OW 6868   0.092   2.692   8.234
 2139SOL    HW1 6869   0.179   2.680   8.273
 2139SOL    HW2 6870   0.033   2.699   8.309
 2140SOL     OW 6871   0.123   3.720   9.026
 2140SOL    HW1 6872   0.115   3.697   9.119
 2140SOL    HW2 6873   0.044   3.682   8.986
 2141SOL     OW 6874   0.897   2.212   7.643
 2141SOL    HW1 6875   0.936   2.275   7.582
 2141SOL    HW2 6876   0.910   2.127   7.601
 2142SOL     OW 6877   1.712   2.446   9.280
 2142SOL    HW1 6878   1.672   2.518   9.230
 2142SOL    HW2 6879   1.724   2.376   9.215
 2143SOL     OW 6880   1.379   3.004   7.989
 2143SOL    HW1 6881   1.457   2.992   7.936
 2143SOL    HW2 6882   1.326   3.066   7.939
 2144SOL     OW 6883   0.553   2.042   8.342
 2144SOL    HW1 6884   0.555   2.073   8.433
 2144SOL    HW2 6885   0.553   2.121   8.289
 2145SOL     OW 6886   1.002   3.306   7.918
 2145SOL    HW1 6887   0.969   3.380   7.868
 2145SOL    HW2 6888   0.980   3.326   8.009
 2146SOL     OW 6889   0.358   3.675   8.308
 2146SOL    HW1 6890   0.399   3.590   8.319
 2146SOL    HW2 6891   0.427   3.738   8.327
 2147SOL     OW 6892   1.801   2.916   8.316
 2147SOL    HW1 6893   1.749   2.894   8.239
 2147SOL    HW2 6894   1.738   2.923   8.388
 2148SOL     OW 6895   1.228   3.401   8.961
 2148SOL    HW1 6896   1.215   3.329   9.022
 2148SOL    HW2 6897   1.161   3.387   8.893
 2149SOL     OW 6898   0.312   2.814   7.706
 2149SOL    HW1 6899   0.396   2.838   7.665
 2149SOL    HW2 6900   0.300   2.722   7.683
 2150SOL     OW 6901   1.481   2.609   8.173
 2150SOL    HW1 6902   1.474   2.566   8.259
 2150SOL    HW2 6903   1.559   2.663   8.179
 2151SOL     OW 6904   0.470   3.126   9.183
 2151SOL    HW1 6905   0.443   3.133   9.091
 2151SOL    HW2 6906   0.388   3.128   9.232
 2152SOL     OW 6907   1.123   3.640   7.677
 2152SOL    HW1 6908   1.048   3.600   7.722
 2152SOL    HW2 6909   1.147   3.577   7.609
 2153SOL     OW 6910   0.199   2.138   8.932
 2153SOL    HW1 6911   0.142   2.214   8.940
 2153SOL    HW2 6912   0.181   2.087   9.011
 2154SOL     OW 6913   1.629   3.244   7.537
 2154SOL    HW1 6914   1.587   3.328   7.522
 2154SOL    HW2 6915   1.561   3.179   7.517
 2155SOL     OW 6916   0.469   3.605   7.761
 2155SOL    HW1 6917   0.513   3.658   7.827
 2155SOL    HW2 6918   0.540   3.567   7.709
 2156SOL     OW 6919   1.401   1.969   7.885
 2156SOL    HW1 6920   1.392   1.944   7.793
 2156SOL    HW2 6921   1.495   1.978   7.898
 2157SOL     OW 6922   0.259   3.654   8.674
 2157SOL    HW1 6923   0.303   3.577   8.710
 2157SOL    HW2 6924   0.220   3.624   8.593
 2158SOL     OW 6925   0.938   3.562   8.345
 2158SOL    HW1 6926   1.016   3.510   8.368
 2158SOL    HW2 6927   0.896   3.511   8.275
 2159SOL     OW 6928   0.396   2.556   7.919
 2159SOL    HW1 6929   0.418   2.463   7.931
 2159SOL    HW2 6930   0.304   2.563   7.944
 2160SOL     OW 6931   1.528   2.083   9.173
 2160SOL    HW1 6932   1.537   2.104   9.266
 2160SOL    HW2 6933   1.460   2.015   9.170
 2161SOL     OW 6934   0.640   1.983   7.549
 2161SOL    HW1 6935   0.702   1.913   7.568
 2161SOL    HW2 6936   0.589   1.951   7.475
 2162SOL     OW 6937   0.765   2.141   9.203
 2162SOL    HW1 6938   0.844   2.087   9.200
 2162SOL    HW2 6939   0.718   2.112   9.281
 2163SOL     OW 6940   0.877   3.385   8.642
 2163SOL    HW1 6941   0.859   3.348   8.556
 2163SOL    HW2 6942   0.946   3.330   8.678
 2164SOL     OW 6943   1.338   2.452   8.881
 2164SOL    HW1 6944   1.370   2.419   8.965
 2164SOL    HW2 6945   1.377   2.539   8.872
 2165SOL     OW 6946   0.817   3.254   8.392
 2165SOL    HW1 6947   0.902   3.242   8.348
 2165SOL    HW2 6948   0.754   3.258   8.321
 2166SOL     OW 6949   0.928   2.371   8.350
 2166SOL    HW1 6950   0.904   2.363   8.258
 2166SOL    HW2 6951   0.959   2.284   8.375
 2167SOL     OW 6952   0.556   1.924   7.945
 2167SOL    HW1 6953   0.475   1.922   7.997
 2167SOL    HW2 6954   0.547   2.002   7.890
 2168SOL     OW 6955   1.428   3.062   7.488
 2168SOL    HW1 6956   1.458   2.986   7.539
 2168SOL    HW2 6957   1.343   3.083   7.525
 2169SOL     OW 6958   0.296   1.907   7.625
 2169SOL    HW1 6959   0.359   1.973   7.598
 2169SOL    HW2 6960   0.348   1.841   7.671
 2170SOL     OW 6961   0.941   2.111   7.905
 2170SOL    HW1 6962   0.916   2.151   7.822
 2170SOL    HW2 6963   1.035   2.125   7.911
 2171SOL     OW 6964   1.080   2.545   8.906
 2171SOL    HW1 6965   1.015   2.475   8.910
 2171SOL    HW2 6966   1.164   2.498   8.900
 2172SOL     OW 6967   1.222   3.433   8.242
 2172SOL    HW1 6968   1.237   3.499   8.174
 2172SOL    HW2 6969   1.291   3.449   8.307
 2173SOL     OW 6970   0.468   3.014   8.181
 2173SOL    HW1 6971   0.400   2.995   8.244
 2173SOL    HW2 6972   0.427   2.999   8.096
 2174SOL     OW 6973   1.267   3.655   8.059
 2174SOL    HW1 6974   1.314   3.716   8.002
 2174SOL    HW2 6975   1.198   3.708   8.100
 2175SOL     OW 6976   1.022   2.400   7.473
 2175SOL    HW1 6977   0.979   2.483   7.453
 2175SOL    HW2 6978   1.088   2.422   7.539
 2176SOL     OW 6979   0.081   2.382   8.859
 2176SOL    HW1 6980   0.144   2.376   8.787
 2176SOL    HW2 6981   0.067   2.476   8.870
 2177SOL     OW 6982   0.559   2.090   8.616
 2177SOL    HW1 6983   0.604   2.014   8.654
 2177SOL    HW2 6984   0.468   2.079   8.642
 2178SOL     OW 6985   0.867   2.321   8.087
 2178SOL    HW1 6986   0.822   2.375   8.023
 2178SOL    HW2 6987   0.889   2.241   8.039
 2179SOL     OW 6988   1.016   1.916   8.198
 2179SOL    HW1 6989   0.958   1.909   8.122
 2179SOL    HW2 6990   0.993   1.841   8.252
 2180SOL     OW 6991   1.438   3.023   8.304
 2180SOL    HW1 6992   1.368   2.959   8.305
 2180SOL    HW2 6993   1.461   3.032   8.212
 2181SOL     OW 6994   1.464   2.470   8.421
 2181SOL    HW1 6995   1.411   2.391   8.422
 2181SOL    HW2 6996   1.522   2.462   8.497
 2182SOL     OW 6997   1.844   2.675   7.835
 2182SOL    HW1 6998   1.900   2.623   7.892
 2182SOL    HW2 6999   1.817   2.614   7.766
 2183SOL     OW 7000   0.491   3.283   7.604
 2183SOL    HW1 7001   0.413   3.255   7.652
 2183SOL    HW2 7002   0.480   3.248   7.516
 2184SOL     OW 7003   1.673   3.127   8.090
 2184SOL    HW1 7004   1.767   3.129   8.105
 2184SOL    HW2 7005   1.644   3.216   8.112
 2185SOL     OW 7006   1.394   2.435   7.519
 2185SOL    HW1 7007   1.333   2.414   7.590
 2185SOL    HW2 7008   1.479   2.404   7.551
 2186SOL     OW 7009   0.524   2.122   7.761
 2186SOL    HW1 7010   0.574   2.077   7.692
 2186SOL    HW2 7011   0.503   2.207   7.723
 2187SOL     OW 7012   1.750   3.104   9.015
 2187SOL    HW1 7013   1.837   3.064   9.012
 2187SOL    HW2 7014   1.766   3.193   9.044
 2188SOL     OW 7015   1.056   3.216   8.781
 2188SOL    HW1 7016   0.981   3.185   8.831
 2188SOL    HW2 7017   1.132   3.174   8.822
 2189SOL     OW 7018   1.609   3.489   9.105
 2189SOL    HW1 7019   1.602   3.522   9.015
 2189SOL    HW2 7020   1.691   3.440   9.105
 2190SOL     OW 7021   1.133   3.070   8.552
 2190SOL    HW1 7022   1.072   3.106   8.616
 2190SOL    HW2 7023   1.101   3.102   8.467
 2191SOL     OW 7024   1.627   2.960   8.523
 2191SOL    HW1 7025   1.621   3.022   8.596
 2191SOL    HW2 7026   1.549   2.977   8.471
 2192SOL     OW 7027   0.917   1.958   8.841
 2192SOL    HW1 7028   0.940   1.938   8.751
 2192SOL    HW2 7029   0.997   1.997   8.878
 2193SOL     OW 7030   0.984   2.977   9.171
 2193SOL    HW1 7031   0.893   2.993   9.194
 2193SOL    HW2 7032   0.981   2.898   9.116
 2194SOL     OW 7033   0.709   2.925   7.820
 2194SOL    HW1 7034   0.696   2.906   7.913
 2194SOL    HW2 7035   0.785   2.871   7.795
 2195SOL     OW 7036   0.432   2.692   8.694
 2195SOL    HW1 7037   0.502   2.705   8.758
 2195SOL    HW2 7038   0.377   2.624   8.733
 2196SOL     OW 7039   1.264   2.237   8.726
 2196SOL    HW1 7040   1.297   2.315   8.772
 2196SOL    HW2 7041   1.174   2.259   8.704
 2197SOL     OW 7042   0.064   3.437   8.793
 2197SOL    HW1 7043   0.038   3.528   8.779
 2197SOL    HW2 7044   0.160   3.440   8.798
 2198SOL     OW 7045   0.339   2.973   7.941
 2198SOL    HW1 7046   0.351   3.048   7.882
 2198SOL    HW2 7047   0.339   2.897   7.884
 2199SOL     OW 7048   0.559   2.391   8.302
 2199SOL    HW1 7049   0.571   2.452   8.229
 2199SOL    HW2 7050   0.621   2.420   8.368
 2200SOL     OW 7051   1.248   3.211   7.838
 2200SOL    HW1 7052   1.303   3.282   7.869
 2200SOL    HW2 7053   1.161   3.232   7.871
 2201SOL     OW 7054   1.285   3.321   8.595
 2201SOL    HW1 7055   1.340   3.324   8.673
 2201SOL    HW2 7056   1.230   3.244   8.608
 2202SOL     OW 7057   1.578   2.482   7.929
 2202SOL    HW1 7058   1.530   2.533   7.994
 2202SOL    HW2 7059   1.626   2.547   7.878
 2203SOL     OW 7060   0.345   3.398   8.759
 2203SOL    HW1 7061   0.332   3.349   8.678
 2203SOL    HW2 7062   0.440   3.406   8.767
 2204SOL     OW 7063   0.489   2.616   9.120
 2204SOL    HW1 7064   0.519   2.655   9.038
 2204SOL    HW2 7065   0.547   2.541   9.134
 2205SOL     OW 7066   1.604   2.646   9.134
 2205SOL    HW1 7067   1.518   2.686   9.126
 2205SOL    HW2 7068   1.656   2.685   9.064
 2206SOL     OW 7069   0.996   1.991   9.201
 2206SOL    HW1 7070   1.054   2.063   9.177
 2206SOL    HW2 7071   1.043   1.912   9.176
 2207SOL     OW 7072   0.496   1.903   9.196
 2207SOL    HW1 7073   0.453   1.847   9.132
 2207SOL    HW2 7074   0.439   1.979   9.205
 2208SOL     OW 7075   0.591   2.736   8.474
 2208SOL    HW1 7076   0.622   2.827   8.475
 2208SOL    HW2 7077   0.535   2.729   8.550
 2209SOL     OW 7078   1.353   2.721   8.473
 2209SOL    HW1 7079   1.268   2.708   8.431
 2209SOL    HW2 7080   1.397   2.636   8.466
 2210SOL     OW 7081   1.202   2.390   7.712
 2210SOL    HW1 7082   1.210   2.312   7.767
 2210SOL    HW2 7083   1.159   2.454   7.769
 2211SOL     OW 7084   0.301   2.050   8.690
 2211SOL    HW1 7085   0.262   2.082   8.771
 2211SOL    HW2 7086   0.284   1.955   8.691
 2212SOL     OW 7087   0.025   3.174   8.735
 2212SOL    HW1 7088   0.068   3.126   8.806
 2212SOL    HW2 7089   0.036   3.266   8.758
 2213SOL     OW 7090   0.723   2.491   8.503
 2213SOL    HW1 7091   0.799   2.475   8.448
 2213SOL    HW2 7092   0.696   2.581   8.482
 2214SOL     OW 7093   1.736   2.823   9.303
 2214SOL    HW1 7094   1.692   2.758   9.249
 2214SOL    HW2 7095   1.676   2.838   9.376
 2215SOL     OW 7096   0.315   1.931   8.066
 2215SOL    HW1 7097   0.288   2.019   8.091
 2215SOL    HW2 7098   0.315   1.882   8.148
 2216SOL     OW 7099   1.618   2.237   7.812
 2216SOL    HW1 7100   1.648   2.174   7.877
 2216SOL    HW2 7101   1.596   2.316   7.863
 2217SOL     OW 7102   1.028   2.620   8.407
 2217SOL    HW1 7103   1.022   2.638   8.501
 2217SOL    HW2 7104   1.002   2.529   8.398
 2218SOL     OW 7105   0.983   3.429   9.167
 2218SOL    HW1 7106   0.967   3.472   9.083
 2218SOL    HW2 7107   1.025   3.347   9.144
 2219SOL     OW 7108   1.853   3.365   9.053
 2219SOL    HW1 7109   1.873   3.392   8.963
 2219SOL    HW2 7110   1.934   3.381   9.101
 2220SOL     OW 7111   0.347   2.797   9.265
 2220SOL    HW1 7112   0.418   2.828   9.321
 2220SOL    HW2 7113   0.387   2.728   9.212
 2221SOL     OW 7114   1.527   2.134   7.575
 2221SOL    HW1 7115   1.462   2.069   7.602
 2221SOL    HW2 7116   1.561   2.170   7.656
 2222SOL     OW 7117   1.289   2.687   7.478
 2222SOL    HW1 7118   1.332   2.602   7.482
 2222SOL    HW2 7119   1.321   2.726   7.396
 2223SOL     OW 7120   1.067   3.199   8.303
 2223SOL    HW1 7121   1.071   3.127   8.240
 2223SOL    HW2 7122   1.127   3.265   8.268
 2224SOL     OW 7123   0.319   2.673   8.391
 2224SOL    HW1 7124   0.413   2.690   8.391
 2224SOL    HW2 7125   0.311   2.581   8.417
 2225SOL     OW 7126   0.326   2.389   8.434
 2225SOL    HW1 7127   0.289   2.302   8.419
 2225SOL    HW2 7128   0.406   2.390   8.381
 2226SOL     OW 7129   1.133   2.236   9.132
 2226SOL    HW1 7130   1.086   2.291   9.195
 2226SOL    HW2 7131   1.221   2.275   9.128
 2227SOL     OW 7132   1.160   2.062   8.919
 2227SOL    HW1 7133   1.149   2.126   8.990
 2227SOL    HW2 7134   1.203   2.112   8.849
 2228SOL     OW 7135   4.491   3.182   7.658
 2228SOL    HW1 7136   4.399   3.199   7.639
 2228SOL    HW2 7137   4.495   3.089   7.678
 2229SOL     OW 7138   0.101   3.633   8.388
 2229SOL    HW1 7139   0.061   3.587   8.315
 2229SOL    HW2 7140   0.189   3.656   8.358
 2230SOL     OW 7141   0.494   3.436   8.355
 2230SOL    HW1 7142   0.562   3.499   8.379
 2230SOL    HW2 7143   0.538   3.374   8.297
 2231SOL     OW 7144   0.978   2.652   8.673
 2231SOL    HW1 7145   1.036   2.631   8.746
 2231SOL    HW2 7146   0.894   2.614   8.697
 2232SOL     OW 7147   0.028   2.423   8.543
 2232SOL    HW1 7148   0.117   2.399   8.519
 2232SOL    HW2 7149   0.011   2.375   8.624
 2233SOL     OW 7150   0.179   2.388   9.165
 2233SOL    HW1 7151   0.261   2.357   9.126
 2233SOL    HW2 7152   0.158   2.467   9.116
 2234SOL     OW 7153   1.377   2.799   9.105
 2234SOL    HW1 7154   1.399   2.892   9.102
 2234SOL    HW2 7155   1.374   2.771   9.014
 2235SOL     OW 7156   0.818   2.431   7.812
 2235SOL    HW1 7157   0.823   2.357   7.752
 2235SOL    HW2 7158   0.744   2.484   7.780
 2236SOL     OW 7159   1.641   2.466   8.632
 2236SOL    HW1 7160   1.633   2.404   8.704
 2236SOL    HW2 7161   1.730   2.454   8.598
 2237SOL     OW 7162   0.275   3.424   9.188
 2237SOL    HW1 7163   0.214   3.475   9.241
 2237SOL    HW2 7164   0.257   3.333   9.212
 2238SOL     OW 7165   0.700   2.313   8.706
 2238SOL    HW1 7166   0.649   2.237   8.676
 2238SOL    HW2 7167   0.697   2.375   8.633
 2239SOL     OW 7168   0.925   3.541   8.917
 2239SOL    HW1 7169   0.900   3.503   8.833
 2239SOL    HW2 7170   0.918   3.636   8.903
 2240SOL     OW 7171   0.470   2.352   7.628
 2240SOL    HW1 7172   0.531   2.420   7.654
 2240SOL    HW2 7173   0.388   2.397   7.613
 2241SOL     OW 7174   0.161   3.004   8.906
 2241SOL    HW1 7175   0.144   2.961   8.989
 2241SOL    HW2 7176   0.168   2.932   8.843
 2242SOL     OW 7177   1.324   2.907   8.669
 2242SOL    HW1 7178   1.345   2.843   8.601
 2242SOL    HW2 7179   1.256   2.962   8.630
 2243SOL     OW 7180   1.313   2.720   7.753
 2243SOL    HW1 7181   1.239   2.688   7.804
 2243SOL    HW2 7182   1.288   2.705   7.662
 2244SOL     OW 7183   1.776   3.602   8.602
 2244SOL    HW1 7184   1.836   3.628   8.532
 2244SOL    HW2 7185   1.750   3.513   8.579
 2245SOL     OW 7186   1.240   3.595   8.558
 2245SOL    HW1 7187   1.323   3.618   8.514
 2245SOL    HW2 7188   1.248   3.502   8.577
 2246SOL     OW 7189   0.069   3.047   8.498
 2246SOL    HW1 7190   0.057   3.076   8.589
 2246SOL    HW2 7191   0.035   3.119   8.445
 2247SOL     OW 7192   0.679   3.531   9.183
 2247SOL    HW1 7193   0.620   3.605   9.174
 2247SOL    HW2 7194   0.745   3.544   9.115
 2248SOL     OW 7195   1.719   2.010   7.954
 2248SOL    HW1 7196   1.791   1.996   7.893
 2248SOL    HW2 7197   1.703   1.925   7.995
 2249SOL     OW 7198   1.392   3.430   7.936
 2249SOL    HW1 7199   1.451   3.463   7.868
 2249SOL    HW2 7200   1.342   3.506   7.964
 2250SOL     OW 7201   0.117   3.669   9.296
 2250SOL    HW1 7202   0.076   3.597   9.346
 2250SOL    HW2 7203   0.180   3.706   9.357
 2251SOL     OW 7204   1.278   2.789   8.119
 2251SOL    HW1 7205   1.351   2.728   8.128
 2251SOL    HW2 7206   1.312   2.861   8.066
 2252SOL     OW 7207   0.809   3.138   8.875
 2252SOL    HW1 7208   0.782   3.178   8.957
 2252SOL    HW2 7209   0.738   3.158   8.813
 2253SOL     OW 7210   0.672   3.485   7.603
 2253SOL    HW1 7211   0.683   3.498   7.509
 2253SOL    HW2 7212   0.617   3.408   7.610
 2254SOL     OW 7213   1.622   3.589   8.839
 2254SOL    HW1 7214   1.674   3.595   8.759
 2254SOL    HW2 7215   1.608   3.680   8.866
 2255SOL     OW 7216   1.850   2.044   8.414
 2255SOL    HW1 7217   1.883   1.958   8.390
 2255SOL    HW2 7218   1.764   2.049   8.372
 2256SOL     OW 7219   0.262   2.180   8.165
 2256SOL    HW1 7220   0.179   2.220   8.139
 2256SOL    HW2 7221   0.253   2.167   8.259
 2257SOL     OW 7222   1.208   3.465   7.480
 2257SOL    HW1 7223   1.197   3.374   7.507
 2257SOL    HW2 7224   1.142   3.478   7.412
 2258SOL     OW 7225   0.826   2.870   8.821
 2258SOL    HW1 7226   0.869   2.865   8.736
 2258SOL    HW2 7227   0.823   2.963   8.841
 2259SOL     OW 7228   0.916   2.773   7.738
 2259SOL    HW1 7229   0.977   2.805   7.672
 2259SOL    HW2 7230   0.965   2.704   7.784
 2260SOL     OW 7231   1.490   3.490   7.492
 2260SOL    HW1 7232   1.395   3.480   7.477
 2260SOL    HW2 7233   1.527   3.495   7.404
 2261SOL     OW 7234   0.373   3.172   8.938
 2261SOL    HW1 7235   0.355   3.251   8.887
 2261SOL    HW2 7236   0.299   3.114   8.920
 2262SOL     OW 7237   1.611   3.146   8.728
 2262SOL    HW1 7238   1.667   3.130   8.804
 2262SOL    HW2 7239   1.549   3.213   8.758
 2263SOL     OW 7240   1.057   2.971   8.156
 2263SOL    HW1 7241   0.985   2.921   8.194
 2263SOL    HW2 7242   1.120   2.905   8.128
 2264SOL     OW 7243   1.022   2.103   8.415
 2264SOL    HW1 7244   1.018   2.056   8.331
 2264SOL    HW2 7245   1.018   2.035   8.481
 2265SOL     OW 7246   0.606   3.351   7.930
 2265SOL    HW1 7247   0.652   3.302   7.861
 2265SOL    HW2 7248   0.528   3.385   7.887
 2266SOL     OW 7249   1.720   2.262   8.822
 2266SOL    HW1 7250   1.799   2.315   8.833
 2266SOL    HW2 7251   1.749   2.187   8.770
 2267SOL     OW 7252   0.252   3.205   7.723
 2267SOL    HW1 7253   0.158   3.201   7.710
 2267SOL    HW2 7254   0.263   3.237   7.812
 2268SOL     OW 7255   0.116   2.869   9.140
 2268SOL    HW1 7256   0.053   2.913   9.196
 2268SOL    HW2 7257   0.194   2.861   9.195
 2269SOL     OW 7258   0.676   2.061   8.947
 2269SOL    HW1 7259   0.759   2.037   8.907
 2269SOL    HW2 7260   0.699   2.090   9.035
 2270SOL     OW 7261   0.072   2.188   7.478
 2270SOL    HW1 7262   4.479   2.203   7.494
 2270SOL    HW2 7263   0.103   2.269   7.437
 2271SOL     OW 7264   1.428   2.721   8.847
 2271SOL    HW1 7265   1.379   2.782   8.792
 2271SOL    HW2 7266   1.517   2.722   8.812
 2272SOL     OW 7267   0.087   2.035   7.750
 2272SOL    HW1 7268   0.081   2.111   7.691
 2272SOL    HW2 7269   0.162   1.986   7.718
 2273SOL     OW 7270   1.178   3.199   7.565
 2273SOL    HW1 7271   1.087   3.169   7.567
 2273SOL    HW2 7272   1.205   3.199   7.657
 2274SOL     OW 7273   0.626   2.693   8.883
 2274SOL    HW1 7274   0.683   2.769   8.868
 2274SOL    HW2 7275   0.686   2.619   8.887
 2275SOL     OW 7276   1.483   3.643   8.429
 2275SOL    HW1 7277   1.505   3.705   8.360
 2275SOL    HW2 7278   1.567   3.619   8.468
 2276SOL     OW 7279   0.710   2.426   9.152
 2276SOL    HW1 7280   0.760   2.485   9.209
 2276SOL    HW2 7281   0.735   2.338   9.182
 2277SOL     OW 7282   1.473   3.059   9.078
 2277SOL    HW1 7283   1.460   3.073   9.172
 2277SOL    HW2 7284   1.566   3.076   9.064
 2278SOL     OW 7285   0.377   3.607   9.013
 2278SOL    HW1 7286   0.293   3.648   8.995
 2278SOL    HW2 7287   0.355   3.528   9.063
 2279SOL     OW 7288   1.668   2.743   8.703
 2279SOL    HW1 7289   1.660   2.657   8.661
 2279SOL    HW2 7290   1.657   2.805   8.631
 2280SOL     OW 7291   1.216   2.181   7.905
 2280SOL    HW1 7292   1.278   2.109   7.898
 2280SOL    HW2 7293   1.245   2.230   7.982
 2281SOL     OW 7294   0.589   2.598   8.119
 2281SOL    HW1 7295   0.627   2.684   8.104
 2281SOL    HW2 7296   0.522   2.589   8.050
 2282SOL     OW 7297   1.740   2.241   9.111
 2282SOL    HW1 7298   1.762   2.232   9.018
 2282SOL    HW2 7299   1.671   2.177   9.126
 2283SOL     OW 7300   1.747   2.795   8.959
 2283SOL    HW1 7301   1.739   2.889   8.972
 2283SOL    HW2 7302   1.730   2.782   8.865
 2284SOL     OW 7303   0.864   3.228   7.487
 2284SOL    HW1 7304   0.825   3.255   7.570
 2284SOL    HW2 7305   0.879   3.310   7.440
 2285SOL     OW 7306   0.663   3.649   8.390
 2285SOL    HW1 7307   0.643   3.740   8.368
 2285SOL    HW2 7308   0.758   3.642   8.382
 2286SOL     OW 7309   0.869   2.832   8.302
 2286SOL    HW1 7310   0.918   2.759   8.340
 2286SOL    HW2 7311   0.832   2.877   8.377
 2287SOL     OW 7312   1.078   2.851   7.537
 2287SOL    HW1 7313   1.057   2.902   7.459
 2287SOL    HW2 7314   1.152   2.797   7.511
 2288SOL     OW 7315   1.850   3.415   8.291
 2288SOL    HW1 7316   1.772   3.404   8.238
 2288SOL    HW2 7317   1.841   3.351   8.361
 2289SOL     OW 7318   0.233   3.166   9.308
 2289SOL    HW1 7319   0.151   3.119   9.290
 2289SOL    HW2 7320   0.233   3.177   9.403
 2290SOL     OW 7321   0.116   3.092   8.117
 2290SOL    HW1 7322   0.135   3.051   8.201
 2290SOL    HW2 7323   0.173   3.046   8.055
 2291SOL     OW 7324   0.685   3.268   9.079
 2291SOL    HW1 7325   0.605   3.224   9.108
 2291SOL    HW2 7326   0.679   3.356   9.116
 2292SOL     OW 7327   1.809   2.056   8.679
 2292SOL    HW1 7328   1.843   1.972   8.708
 2292SOL    HW2 7329   1.821   2.056   8.584
 2293SOL     OW 7330   0.435   2.295   7.973
 2293SOL    HW1 7331   0.461   2.221   7.918
 2293SOL    HW2 7332   0.384   2.255   8.044
 2294SOL     OW 7333   1.698   3.349   8.541
 2294SOL    HW1 7334   1.619   3.329   8.493
 2294SOL    HW2 7335   1.705   3.280   8.607
 2295SOL     OW 7336   0.294   2.350   8.698
 2295SOL    HW1 7337   0.369   2.307   8.740
 2295SOL    HW2 7338   0.324   2.367   8.608
 2296SOL     OW 7339   0.830   3.440   8.124
 2296SOL    HW1 7340   0.811   3.499   8.052
 2296SOL    HW2 7341   0.755   3.381   8.127
 2297SOL     OW 7342   1.432   2.090   8.564
 2297SOL    HW1 7343   1.462   2.012   8.611
 2297SOL    HW2 7344   1.380   2.138   8.629
 2298SOL     OW 7345   1.009   1.879   8.587
 2298SOL    HW1 7346   0.955   1.812   8.545
 2298SOL    HW2 7347   1.097   1.841   8.589
 2299SOL     OW 7348   0.773   3.196   7.766
 2299SOL    HW1 7349   0.744   3.105   7.773
 2299SOL    HW2 7350   0.855   3.199   7.816
 2300SOL     OW 7351   0.621   3.417   8.735
 2300SOL    HW1 7352   0.622   3.499   8.784
 2300SOL    HW2 7353   0.709   3.411   8.697
 2301SOL     OW 7354   1.354   1.915   7.616
 2301SOL    HW1 7355   1.384   1.848   7.555
 2301SOL    HW2 7356   1.266   1.887   7.641
 2302SOL     OW 7357   1.296   2.324   8.127
 2302SOL    HW1 7358   1.243   2.404   8.133
 2302SOL    HW2 7359   1.291   2.286   8.215
 2303SOL     OW 7360   1.589   2.059   8.329
 2303SOL    HW1 7361   1.531   2.081   8.402
 2303SOL    HW2 7362   1.587   2.136   8.273
 2304SOL     OW 7363   0.040   2.912   7.739
 2304SOL    HW1 7364   0.132   2.890   7.726
 2304SOL    HW2 7365   0.021   2.886   7.829
 2305SOL     OW 7366   0.888   3.519   7.788
 2305SOL    HW1 7367   0.814   3.502   7.729
 2305SOL    HW2 7368   0.859   3.592   7.842
 2306SOL     OW 7369   0.245   2.493   9.433
 2306SOL    HW1 7370   0.171   2.466   9.488
 2306SOL    HW2 7371   0.216   2.475   9.343
 2307SOL     OW 7372   0.214   2.136  10.300
 2307SOL    HW1 7373   0.249   2.110  10.386
 2307SOL    HW2 7374   0.137   2.081  10.289
 2308SOL     OW 7375   0.006   2.259   9.950
 2308SOL    HW1 7376   4.425   2.292   9.988
 2308SOL    HW2 7377   4.481   2.179   9.904
 2309SOL     OW 7378   0.569   3.155  10.491
 2309SOL    HW1 7379   0.483   3.159  10.449
 2309SOL    HW2 7380   0.583   3.243  10.524
 2310SOL     OW 7381   1.566   3.375  10.018
 2310SOL    HW1 7382   1.523   3.353  10.101
 2310SOL    HW2 7383   1.495   3.379   9.954
 2311SOL     OW 7384   1.131   2.560  10.008
 2311SOL    HW1 7385   1.180   2.642   9.995
 2311SOL    HW2 7386   1.084   2.573  10.090
 2312SOL     OW 7387   1.775   2.465   9.538
 2312SOL    HW1 7388   1.750   2.461   9.446
 2312SOL    HW2 7389   1.739   2.385   9.577
 2313SOL     OW 7390   0.751   3.002  10.355
 2313SOL    HW1 7391   0.683   3.039  10.412
 2313SOL    HW2 7392   0.788   3.078  10.310
 2314SOL     OW 7393   0.856   2.636   0.024
 2314SOL    HW1 7394   0.865   2.690   0.102
 2314SOL    HW2 7395   0.890   2.691  11.053
 2315SOL     OW 7396   0.685   2.863   9.956
 2315SOL    HW1 7397   0.751   2.852  10.024
 2315SOL    HW2 7398   0.616   2.915   9.996
 2316SOL     OW 7399   0.335   3.279  10.377
 2316SOL    HW1 7400   0.253   3.259  10.332
 2316SOL    HW2 7401   0.383   3.334  10.315
 2317SOL     OW 7402   1.463   3.361  10.664
 2317SOL    HW1 7403   1.521   3.437  10.671
 2317SOL    HW2 7404   1.398   3.375  10.733
 2318SOL     OW 7405   0.452   2.261  10.779
 2318SOL    HW1 7406   0.530   2.207  10.790
 2318SOL    HW2 7407   0.380   2.206  10.809
 2319SOL     OW 7408   1.606   2.306  10.054
 2319SOL    HW1 7409   1.532   2.326   9.996
 2319SOL    HW2 7410   1.620   2.387  10.104
 2320SOL     OW 7411   0.246   3.553   9.784
 2320SOL    HW1 7412   0.230   3.638   9.825
 2320SOL    HW2 7413   0.318   3.569   9.723
 2321SOL     OW 7414   0.256   3.288   9.836
 2321SOL    HW1 7415   0.243   3.382   9.838
 2321SOL    HW2 7416   0.194   3.254   9.901
 2322SOL     OW 7417   0.253   2.945  10.197
 2322SOL    HW1 7418   0.266   2.853  10.219
 2322SOL    HW2 7419   0.191   2.977  10.262
 2323SOL     OW 7420   0.608   3.652  10.737
 2323SOL    HW1 7421   0.528   3.633  10.787
 2323SOL    HW2 7422   0.631   3.742  10.761
 2324SOL     OW 7423   0.574   2.852   9.452
 2324SOL    HW1 7424   0.624   2.892   9.381
 2324SOL    HW2 7425   0.618   2.881   9.532
 2325SOL     OW 7426   1.591   1.982  10.779
 2325SOL    HW1 7427   1.610   2.060  10.727
 2325SOL    HW2 7428   1.608   2.007  10.869
 2326SOL     OW 7429   0.136   2.511   9.883
 2326SOL    HW1 7430   0.091   2.430   9.904
 2326SOL    HW2 7431   0.107   2.574   9.949
 2327SOL     OW 7432   1.843   3.618   9.642
 2327SOL    HW1 7433   1.910   3.591   9.705
 2327SOL    HW2 7434   1.864   3.710   9.623
 2328SOL     OW 7435   0.032   3.466   9.457
 2328SOL    HW1 7436   0.019   3.371   9.451
 2328SOL    HW2 7437   0.036   3.483   9.552
 2329SOL     OW 7438   1.691   2.781   9.953
 2329SOL    HW1 7439   1.770   2.734   9.928
 2329SOL    HW2 7440   1.667   2.831   9.876
 2330SOL     OW 7441   1.647   2.966   9.739
 2330SOL    HW1 7442   1.733   2.969   9.698
 2330SOL    HW2 7443   1.653   3.029   9.811
 2331SOL     OW 7444   0.101   2.627  10.909
 2331SOL    HW1 7445   0.187   2.608  10.870
 2331SOL    HW2 7446   0.100   2.722  10.916
 2332SOL     OW 7447   0.615   3.250  10.047
 2332SOL    HW1 7448   0.568   3.167  10.056
 2332SOL    HW2 7449   0.599   3.277   9.956
 2333SOL     OW 7450   1.289   3.097  10.753
 2333SOL    HW1 7451   1.315   3.037  10.684
 2333SOL    HW2 7452   1.347   3.076  10.827
 2334SOL     OW 7453   0.820   1.864   9.822
 2334SOL    HW1 7454   0.860   1.948   9.800
 2334SOL    HW2 7455   0.727   1.882   9.828
 2335SOL     OW 7456   0.174   2.799  10.589
 2335SOL    HW1 7457   0.265   2.779  10.572
 2335SOL    HW2 7458   0.131   2.794  10.504
 2336SOL     OW 7459   1.531   2.858   9.510
 2336SOL    HW1 7460   1.462   2.801   9.541
 2336SOL    HW2 7461   1.573   2.892   9.589
 2337SOL     OW 7462   1.198   3.670  10.929
 2337SOL    HW1 7463   1.193   3.735  10.859
 2337SOL    HW2 7464   1.208   3.587  10.883
 2338SOL     OW 7465   0.341   2.126   0.009
 2338SOL    HW1 7466   0.387   2.201   0.049
 2338SOL    HW2 7467   0.249   2.150   0.013
 2339SOL     OW 7468   1.468   3.281  10.259
 2339SOL    HW1 7469   1.400   3.298  10.324
 2339SOL    HW2 7470   1.455   3.190  10.232
 2340SOL     OW 7471   1.656   3.608   9.887
 2340SOL    HW1 7472   1.637   3.577   9.799
 2340SOL    HW2 7473   1.634   3.535   9.944
 2341SOL     OW 7474   0.598   2.580   9.579
 2341SOL    HW1 7475   0.598   2.663   9.531
 2341SOL    HW2 7476   0.532   2.593   9.647
 2342SOL     OW 7477   1.278   2.222  10.244
 2342SOL    HW1 7478   1.189   2.187  10.252
 2342SOL    HW2 7479   1.331   2.167  10.302
 2343SOL     OW 7480   1.579   3.534   9.620
 2343SOL    HW1 7481   1.670   3.562   9.612
 2343SOL    HW2 7482   1.551   3.517   9.530
 2344SOL     OW 7483   0.796   2.476  10.759
 2344SOL    HW1 7484   0.767   2.452  10.847
 2344SOL    HW2 7485   0.757   2.410  10.702
 2345SOL     OW 7486   0.966   2.763  10.906
 2345SOL    HW1 7487   1.015   2.693  10.865
 2345SOL    HW2 7488   0.916   2.803  10.834
 2346SOL     OW 7489   0.993   2.275  10.546
 2346SOL    HW1 7490   0.905   2.293  10.579
 2346SOL    HW2 7491   0.979   2.229  10.463
 2347SOL     OW 7492   1.053   2.561   9.735
 2347SOL    HW1 7493   1.070   2.553   9.829
 2347SOL    HW2 7494   0.970   2.514   9.722
 2348SOL     OW 7495   0.092   2.693  10.096
 2348SOL    HW1 7496   0.178   2.680  10.135
 2348SOL    HW2 7497   0.032   2.698  10.171
 2349SOL     OW 7498   0.117   3.710  10.900
 2349SOL    HW1 7499   0.111   3.650  10.974
 2349SOL    HW2 7500   0.049   3.681  10.840
 2350SOL     OW 7501   0.897   2.212   9.505
 2350SOL    HW1 7502   0.936   2.275   9.444
 2350SOL    HW2 7503   0.909   2.127   9.463
 2351SOL     OW 7504   1.379   3.004   9.851
 2351SOL    HW1 7505   1.457   2.992   9.798
 2351SOL    HW2 7506   1.326   3.066   9.801
 2352SOL     OW 7507   0.554   2.041  10.205
 2352SOL    HW1 7508   0.554   2.073  10.295
 2352SOL    HW2 7509   0.553   2.120  10.152
 2353SOL     OW 7510   1.002   3.306   9.780
 2353SOL    HW1 7511   0.969   3.380   9.730
 2353SOL    HW2 7512   0.980   3.326   9.871
 2354SOL     OW 7513   0.357   3.676  10.171
 2354SOL    HW1 7514   0.399   3.590  10.181
 2354SOL    HW2 7515   0.427   3.739  10.189
 2355SOL     OW 7516   1.801   2.915  10.178
 2355SOL    HW1 7517   1.748   2.894  10.102
 2355SOL    HW2 7518   1.738   2.922  10.250
 2356SOL     OW 7519   1.231   3.398  10.820
 2356SOL    HW1 7520   1.239   3.309  10.855
 2356SOL    HW2 7521   1.162   3.392  10.754
 2357SOL     OW 7522   0.312   2.814   9.568
 2357SOL    HW1 7523   0.395   2.838   9.527
 2357SOL    HW2 7524   0.300   2.722   9.545
 2358SOL     OW 7525   1.480   2.609  10.035
 2358SOL    HW1 7526   1.474   2.567  10.121
 2358SOL    HW2 7527   1.559   2.663  10.041
 2359SOL     OW 7528   0.457   3.128  11.051
 2359SOL    HW1 7529   0.426   3.145  10.962
 2359SOL    HW2 7530   0.392   3.067  11.088
 2360SOL     OW 7531   1.123   3.640   9.539
 2360SOL    HW1 7532   1.048   3.600   9.584
 2360SOL    HW2 7533   1.147   3.577   9.471
 2361SOL     OW 7534   0.195   2.138  10.797
 2361SOL    HW1 7535   0.142   2.217  10.804
 2361SOL    HW2 7536   0.186   2.094  10.882
 2362SOL     OW 7537   1.629   3.244   9.399
 2362SOL    HW1 7538   1.587   3.328   9.384
 2362SOL    HW2 7539   1.561   3.179   9.379
 2363SOL     OW 7540   0.469   3.605   9.623
 2363SOL    HW1 7541   0.513   3.658   9.688
 2363SOL    HW2 7542   0.540   3.567   9.571
 2364SOL     OW 7543   1.400   1.969   9.747
 2364SOL    HW1 7544   1.391   1.944   9.655
 2364SOL    HW2 7545   1.495   1.977   9.760
 2365SOL     OW 7546   0.255   3.653  10.540
 2365SOL    HW1 7547   0.301   3.578  10.577
 2365SOL    HW2 7548   0.222   3.622  10.455
 2366SOL     OW 7549   0.939   3.561  10.208
 2366SOL    HW1 7550   1.018   3.511  10.228
 2366SOL    HW2 7551   0.896   3.511  10.138
 2367SOL     OW 7552   0.396   2.556   9.781
 2367SOL    HW1 7553   0.418   2.463   9.794
 2367SOL    HW2 7554   0.304   2.562   9.806
 2368SOL     OW 7555   0.641   1.983   9.411
 2368SOL    HW1 7556   0.702   1.913   9.429
 2368SOL    HW2 7557   0.589   1.951   9.337
 2369SOL     OW 7558   0.767   2.141  11.047
 2369SOL    HW1 7559   0.832   2.083  11.085
 2369SOL    HW2 7560   0.702   2.154   0.017
 2370SOL     OW 7561   0.876   3.385  10.504
 2370SOL    HW1 7562   0.859   3.349  10.417
 2370SOL    HW2 7563   0.948   3.332  10.538
 2371SOL     OW 7564   1.343   2.454  10.756
 2371SOL    HW1 7565   1.397   2.434  10.832
 2371SOL    HW2 7566   1.369   2.542  10.730
 2372SOL     OW 7567   0.818   3.254  10.253
 2372SOL    HW1 7568   0.902   3.242  10.209
 2372SOL    HW2 7569   0.754   3.258  10.182
 2373SOL     OW 7570   0.928   2.371  10.212
 2373SOL    HW1 7571   0.904   2.363  10.119
 2373SOL    HW2 7572   0.959   2.284  10.237
 2374SOL     OW 7573   0.556   1.924   9.807
 2374SOL    HW1 7574   0.476   1.922   9.859
 2374SOL    HW2 7575   0.547   2.002   9.752
 2375SOL     OW 7576   1.428   3.062   9.350
 2375SOL    HW1 7577   1.458   2.986   9.401
 2375SOL    HW2 7578   1.343   3.083   9.387
 2376SOL     OW 7579   0.296   1.907   9.487
 2376SOL    HW1 7580   0.359   1.973   9.460
 2376SOL    HW2 7581   0.348   1.841   9.532
 2377SOL     OW 7582   0.941   2.111   9.767
 2377SOL    HW1 7583   0.915   2.150   9.684
 2377SOL    HW2 7584   1.035   2.125   9.773
 2378SOL     OW 7585   1.079   2.552  10.771
 2378SOL    HW1 7586   1.010   2.486  10.775
 2378SOL    HW2 7587   1.160   2.501  10.772
 2379SOL     OW 7588   1.221   3.434  10.105
 2379SOL    HW1 7589   1.236   3.499  10.036
 2379SOL    HW2 7590   1.290   3.450  10.169
 2380SOL     OW 7591   0.468   3.014  10.043
 2380SOL    HW1 7592   0.400   2.995  10.107
 2380SOL    HW2 7593   0.427   2.999   9.958
 2381SOL     OW 7594   1.266   3.654   9.921
 2381SOL    HW1 7595   1.314   3.716   9.864
 2381SOL    HW2 7596   1.199   3.708   9.962
 2382SOL     OW 7597   1.022   2.400   9.335
 2382SOL    HW1 7598   0.979   2.483   9.315
 2382SOL    HW2 7599   1.088   2.422   9.401
 2383SOL     OW 7600   0.074   2.382  10.718
 2383SOL    HW1 7601   0.143   2.379  10.652
 2383SOL    HW2 7602   0.070   2.474  10.744
 2384SOL     OW 7603   0.559   2.090  10.478
 2384SOL    HW1 7604   0.602   2.014  10.518
 2384SOL    HW2 7605   0.467   2.082  10.505
 2385SOL     OW 7606   0.867   2.321   9.949
 2385SOL    HW1 7607   0.822   2.376   9.885
 2385SOL    HW2 7608   0.889   2.241   9.901
 2386SOL     OW 7609   1.016   1.917  10.060
 2386SOL    HW1 7610   0.958   1.910   9.984
 2386SOL    HW2 7611   0.993   1.841  10.114
 2387SOL     OW 7612   1.437   3.024  10.166
 2387SOL    HW1 7613   1.368   2.958  10.167
 2387SOL    HW2 7614   1.461   3.033  10.074
 2388SOL     OW 7615   1.464   2.472  10.283
 2388SOL    HW1 7616   1.412   2.392  10.284
 2388SOL    HW2 7617   1.523   2.463  10.358
 2389SOL     OW 7618   1.844   2.675   9.695
 2389SOL    HW1 7619   1.899   2.623   9.754
 2389SOL    HW2 7620   1.817   2.614   9.627
 2390SOL     OW 7621   0.492   3.283   9.466
 2390SOL    HW1 7622   0.413   3.255   9.514
 2390SOL    HW2 7623   0.480   3.248   9.378
 2391SOL     OW 7624   1.672   3.127   9.953
 2391SOL    HW1 7625   1.767   3.128   9.967
 2391SOL    HW2 7626   1.643   3.216   9.974
 2392SOL     OW 7627   1.394   2.434   9.382
 2392SOL    HW1 7628   1.332   2.414   9.452
 2392SOL    HW2 7629   1.478   2.400   9.414
 2393SOL     OW 7630   0.525   2.122   9.622
 2393SOL    HW1 7631   0.574   2.077   9.554
 2393SOL    HW2 7632   0.503   2.207   9.585
 2394SOL     OW 7633   1.757   3.093  10.856
 2394SOL    HW1 7634   1.848   3.063  10.861
 2394SOL    HW2 7635   1.757   3.178  10.898
 2395SOL     OW 7636   1.060   3.216  10.649
 2395SOL    HW1 7637   0.982   3.183  10.693
 2395SOL    HW2 7638   1.133   3.168  10.689
 2396SOL     OW 7639   1.133   3.073  10.413
 2396SOL    HW1 7640   1.066   3.105  10.473
 2396SOL    HW2 7641   1.105   3.103  10.327
 2397SOL     OW 7642   1.628   2.960  10.386
 2397SOL    HW1 7643   1.623   3.021  10.459
 2397SOL    HW2 7644   1.549   2.978  10.335
 2398SOL     OW 7645   0.918   1.961  10.701
 2398SOL    HW1 7646   0.942   1.941  10.610
 2398SOL    HW2 7647   0.996   2.001  10.738
 2399SOL     OW 7648   0.709   2.925   9.682
 2399SOL    HW1 7649   0.696   2.906   9.775
 2399SOL    HW2 7650   0.785   2.871   9.657
 2400SOL     OW 7651   0.429   2.689  10.558
 2400SOL    HW1 7652   0.499   2.699  10.622
 2400SOL    HW2 7653   0.372   2.622  10.595
 2401SOL     OW 7654   1.265   2.240  10.593
 2401SOL    HW1 7655   1.297   2.318  10.638
 2401SOL    HW2 7656   1.175   2.262  10.568
 2402SOL     OW 7657   0.065   3.441  10.662
 2402SOL    HW1 7658   0.042   3.528  10.630
 2402SOL    HW2 7659   0.161   3.440  10.662
 2403SOL     OW 7660   0.340   2.973   9.803
 2403SOL    HW1 7661   0.350   3.048   9.744
 2403SOL    HW2 7662   0.339   2.897   9.746
 2404SOL     OW 7663   0.559   2.391  10.164
 2404SOL    HW1 7664   0.572   2.451  10.091
 2404SOL    HW2 7665   0.621   2.420  10.230
 2405SOL     OW 7666   1.248   3.211   9.700
 2405SOL    HW1 7667   1.303   3.282   9.731
 2405SOL    HW2 7668   1.160   3.232   9.733
 2406SOL     OW 7669   1.284   3.323  10.456
 2406SOL    HW1 7670   1.342   3.326  10.532
 2406SOL    HW2 7671   1.231   3.245  10.468
 2407SOL     OW 7672   1.578   2.482   9.791
 2407SOL    HW1 7673   1.530   2.533   9.856
 2407SOL    HW2 7674   1.626   2.547   9.740
 2408SOL     OW 7675   0.344   3.394  10.620
 2408SOL    HW1 7676   0.332   3.347  10.538
 2408SOL    HW2 7677   0.439   3.406  10.627
 2409SOL     OW 7678   0.495   2.604  10.973
 2409SOL    HW1 7679   0.534   2.643  10.895
 2409SOL    HW2 7680   0.549   2.528  10.991
 2410SOL     OW 7681   1.596   2.617  10.962
 2410SOL    HW1 7682   1.520   2.674  10.957
 2410SOL    HW2 7683   1.668   2.667  10.923
 2411SOL     OW 7684   0.590   2.736  10.337
 2411SOL    HW1 7685   0.620   2.827  10.338
 2411SOL    HW2 7686   0.533   2.728  10.413
 2412SOL     OW 7687   1.353   2.724  10.341
 2412SOL    HW1 7688   1.269   2.712  10.297
 2412SOL    HW2 7689   1.397   2.639  10.332
 2413SOL     OW 7690   1.201   2.390   9.574
 2413SOL    HW1 7691   1.210   2.312   9.628
 2413SOL    HW2 7692   1.159   2.454   9.631
 2414SOL     OW 7693   0.299   2.051  10.552
 2414SOL    HW1 7694   0.262   2.084  10.634
 2414SOL    HW2 7695   0.282   1.956  10.555
 2415SOL     OW 7696   0.027   3.178  10.596
 2415SOL    HW1 7697   0.068   3.127  10.667
 2415SOL    HW2 7698   0.035   3.269  10.624
 2416SOL     OW 7699   0.724   2.492  10.365
 2416SOL    HW1 7700   0.799   2.476  10.308
 2416SOL    HW2 7701   0.695   2.581  10.343
 2417SOL     OW 7702   0.315   1.931   9.928
 2417SOL    HW1 7703   0.288   2.019   9.953
 2417SOL    HW2 7704   0.314   1.882  10.010
 2418SOL     OW 7705   1.618   2.237   9.674
 2418SOL    HW1 7706   1.648   2.175   9.740
 2418SOL    HW2 7707   1.596   2.316   9.725
 2419SOL     OW 7708   1.028   2.621  10.269
 2419SOL    HW1 7709   1.022   2.638  10.363
 2419SOL    HW2 7710   1.002   2.529  10.259
 2420SOL     OW 7711   0.974   3.436  11.003
 2420SOL    HW1 7712   0.959   3.485  10.923
 2420SOL    HW2 7713   0.996   3.347  10.974
 2421SOL     OW 7714   1.853   3.352  10.911
 2421SOL    HW1 7715   1.873   3.388  10.825
 2421SOL    HW2 7716   1.919   3.389  10.969
 2422SOL     OW 7717   0.349   2.797  11.088
 2422SOL    HW1 7718   0.419   2.826   0.047
 2422SOL    HW2 7719   0.387   2.724  11.041
 2423SOL     OW 7720   1.526   2.135   9.437
 2423SOL    HW1 7721   1.462   2.069   9.464
 2423SOL    HW2 7722   1.561   2.170   9.518
 2424SOL     OW 7723   1.289   2.687   9.340
 2424SOL    HW1 7724   1.332   2.602   9.344
 2424SOL    HW2 7725   1.321   2.726   9.258
 2425SOL     OW 7726   1.068   3.199  10.166
 2425SOL    HW1 7727   1.072   3.127  10.102
 2425SOL    HW2 7728   1.127   3.265  10.130
 2426SOL     OW 7729   0.318   2.672  10.254
 2426SOL    HW1 7730   0.413   2.689  10.253
 2426SOL    HW2 7731   0.311   2.580  10.280
 2427SOL     OW 7732   0.327   2.389  10.297
 2427SOL    HW1 7733   0.289   2.302  10.283
 2427SOL    HW2 7734   0.406   2.389  10.243
 2428SOL     OW 7735   1.157   2.067  10.783
 2428SOL    HW1 7736   1.172   2.121  10.860
 2428SOL    HW2 7737   1.199   2.114  10.712
 2429SOL     OW 7738   4.491   3.182   9.519
 2429SOL    HW1 7739   4.399   3.199   9.501
 2429SOL    HW2 7740   4.495   3.089   9.540
 2430SOL     OW 7741   0.100   3.631  10.250
 2430SOL    HW1 7742   0.061   3.586  10.175
 2430SOL    HW2 7743   0.188   3.655  10.220
 2431SOL     OW 7744   0.495   3.436  10.217
 2431SOL    HW1 7745   0.563   3.500  10.240
 2431SOL    HW2 7746   0.538   3.375  10.158
 2432SOL     OW 7747   0.978   2.654  10.535
 2432SOL    HW1 7748   1.035   2.635  10.609
 2432SOL    HW2 7749   0.894   2.613  10.558
 2433SOL     OW 7750   0.027   2.421  10.404
 2433SOL    HW1 7751   0.118   2.399  10.383
 2433SOL    HW2 7752   0.012   2.383  10.490
 2434SOL     OW 7753   0.818   2.431   9.674
 2434SOL    HW1 7754   0.823   2.357   9.613
 2434SOL    HW2 7755   0.744   2.484   9.642
 2435SOL     OW 7756   1.644   2.465  10.491
 2435SOL    HW1 7757   1.638   2.406  10.565
 2435SOL    HW2 7758   1.733   2.451  10.456
 2436SOL     OW 7759   0.262   3.437  11.052
 2436SOL    HW1 7760   0.207   3.456   0.028
 2436SOL    HW2 7761   0.246   3.345  11.033
 2437SOL     OW 7762   0.707   2.311  10.566
 2437SOL    HW1 7763   0.651   2.238  10.540
 2437SOL    HW2 7764   0.700   2.373  10.494
 2438SOL     OW 7765   0.939   3.543  10.755
 2438SOL    HW1 7766   0.904   3.507  10.673
 2438SOL    HW2 7767   0.921   3.637  10.748
 2439SOL     OW 7768   0.470   2.352   9.490
 2439SOL    HW1 7769   0.531   2.420   9.516
 2439SOL    HW2 7770   0.388   2.397   9.475
 2440SOL     OW 7771   0.163   3.006  10.764
 2440SOL    HW1 7772   0.136   2.970  10.848
 2440SOL    HW2 7773   0.167   2.931  10.705
 2441SOL     OW 7774   1.322   2.914  10.537
 2441SOL    HW1 7775   1.347   2.848  10.473
 2441SOL    HW2 7776   1.255   2.966  10.494
 2442SOL     OW 7777   1.313   2.720   9.615
 2442SOL    HW1 7778   1.239   2.688   9.666
 2442SOL    HW2 7779   1.288   2.705   9.524
 2443SOL     OW 7780   1.778   3.603  10.463
 2443SOL    HW1 7781   1.837   3.629  10.392
 2443SOL    HW2 7782   1.752   3.514  10.441
 2444SOL     OW 7783   1.240   3.596  10.419
 2444SOL    HW1 7784   1.322   3.619  10.376
 2444SOL    HW2 7785   1.248   3.503  10.437
 2445SOL     OW 7786   0.069   3.047  10.361
 2445SOL    HW1 7787   0.058   3.078  10.451
 2445SOL    HW2 7788   0.035   3.119  10.307
 2446SOL     OW 7789   1.722   2.012   9.819
 2446SOL    HW1 7790   1.791   1.996   9.754
 2446SOL    HW2 7791   1.705   1.926   9.857
 2447SOL     OW 7792   1.392   3.430   9.798
 2447SOL    HW1 7793   1.451   3.463   9.730
 2447SOL    HW2 7794   1.342   3.506   9.826
 2448SOL     OW 7795   1.278   2.789   9.982
 2448SOL    HW1 7796   1.351   2.728   9.990
 2448SOL    HW2 7797   1.312   2.861   9.928
 2449SOL     OW 7798   0.813   3.138  10.735
 2449SOL    HW1 7799   0.782   3.172  10.819
 2449SOL    HW2 7800   0.743   3.160  10.674
 2450SOL     OW 7801   0.672   3.485   9.465
 2450SOL    HW1 7802   0.683   3.498   9.371
 2450SOL    HW2 7803   0.617   3.407   9.472
 2451SOL     OW 7804   1.617   3.584  10.691
 2451SOL    HW1 7805   1.675   3.597  10.616
 2451SOL    HW2 7806   1.602   3.671  10.726
 2452SOL     OW 7807   1.845   2.045  10.279
 2452SOL    HW1 7808   1.881   1.960  10.256
 2452SOL    HW2 7809   1.760   2.048  10.236
 2453SOL     OW 7810   0.262   2.180  10.027
 2453SOL    HW1 7811   0.179   2.220  10.001
 2453SOL    HW2 7812   0.254   2.167  10.121
 2454SOL     OW 7813   1.208   3.465   9.343
 2454SOL    HW1 7814   1.197   3.374   9.369
 2454SOL    HW2 7815   1.142   3.478   9.274
 2455SOL     OW 7816   0.827   2.869  10.689
 2455SOL    HW1 7817   0.870   2.859  10.603
 2455SOL    HW2 7818   0.825   2.963  10.704
 2456SOL     OW 7819   0.916   2.773   9.600
 2456SOL    HW1 7820   0.977   2.805   9.534
 2456SOL    HW2 7821   0.965   2.704   9.646
 2457SOL     OW 7822   1.490   3.489   9.354
 2457SOL    HW1 7823   1.396   3.480   9.339
 2457SOL    HW2 7824   1.527   3.495   9.266
 2458SOL     OW 7825   0.365   3.181  10.808
 2458SOL    HW1 7826   0.352   3.254  10.747
 2458SOL    HW2 7827   0.296   3.118  10.785
 2459SOL     OW 7828   1.615   3.144  10.594
 2459SOL    HW1 7829   1.668   3.125  10.671
 2459SOL    HW2 7830   1.556   3.215  10.622
 2460SOL     OW 7831   1.057   2.971  10.019
 2460SOL    HW1 7832   0.985   2.920  10.056
 2460SOL    HW2 7833   1.120   2.905   9.990
 2461SOL     OW 7834   1.023   2.103  10.277
 2461SOL    HW1 7835   1.018   2.056  10.193
 2461SOL    HW2 7836   1.018   2.034  10.343
 2462SOL     OW 7837   0.606   3.351   9.792
 2462SOL    HW1 7838   0.651   3.302   9.724
 2462SOL    HW2 7839   0.528   3.385   9.749
 2463SOL     OW 7840   1.722   2.257  10.693
 2463SOL    HW1 7841   1.797   2.318  10.697
 2463SOL    HW2 7842   1.753   2.185  10.638
 2464SOL     OW 7843   0.253   3.205   9.585
 2464SOL    HW1 7844   0.158   3.201   9.572
 2464SOL    HW2 7845   0.263   3.237   9.674
 2465SOL     OW 7846   0.112   2.885  11.000
 2465SOL    HW1 7847   0.056   2.893  11.077
 2465SOL    HW2 7848   0.198   2.864  11.034
 2466SOL     OW 7849   0.677   2.058  10.801
 2466SOL    HW1 7850   0.759   2.034  10.758
 2466SOL    HW2 7851   0.704   2.093  10.886
 2467SOL     OW 7852   0.073   2.188   9.340
 2467SOL    HW1 7853   4.479   2.202   9.356
 2467SOL    HW2 7854   0.103   2.269   9.299
 2468SOL     OW 7855   1.426   2.712  10.709
 2468SOL    HW1 7856   1.379   2.781  10.663
 2468SOL    HW2 7857   1.517   2.720  10.678
 2469SOL     OW 7858   0.087   2.035   9.612
 2469SOL    HW1 7859   0.081   2.111   9.553
 2469SOL    HW2 7860   0.162   1.986   9.580
 2470SOL     OW 7861   1.178   3.199   9.427
 2470SOL    HW1 7862   1.087   3.169   9.429
 2470SOL    HW2 7863   1.205   3.199   9.519
 2471SOL     OW 7864   0.628   2.690  10.743
 2471SOL    HW1 7865   0.684   2.766  10.730
 2471SOL    HW2 7866   0.689   2.616  10.746
 2472SOL     OW 7867   1.482   3.642  10.291
 2472SOL    HW1 7868   1.506   3.705  10.223
 2472SOL    HW2 7869   1.566   3.619  10.332
 2473SOL     OW 7870   0.713   2.430  11.013
 2473SOL    HW1 7871   0.756   2.498  11.065
 2473SOL    HW2 7872   0.757   2.349  11.040
 2474SOL     OW 7873   0.382   3.605  10.876
 2474SOL    HW1 7874   0.305   3.661  10.865
 2474SOL    HW2 7875   0.354   3.537  10.937
 2475SOL     OW 7876   1.669   2.744  10.567
 2475SOL    HW1 7877   1.661   2.659  10.525
 2475SOL    HW2 7878   1.659   2.807  10.496
 2476SOL     OW 7879   1.216   2.181   9.767
 2476SOL    HW1 7880   1.278   2.109   9.760
 2476SOL    HW2 7881   1.245   2.231   9.844
 2477SOL     OW 7882   0.589   2.598   9.981
 2477SOL    HW1 7883   0.627   2.684   9.966
 2477SOL    HW2 7884   0.522   2.589   9.913
 2478SOL     OW 7885   1.743   2.177  10.964
 2478SOL    HW1 7886   1.731   2.217  10.878
 2478SOL    HW2 7887   1.666   2.203  11.014
 2479SOL     OW 7888   1.747   2.802  10.825
 2479SOL    HW1 7889   1.737   2.896  10.838
 2479SOL    HW2 7890   1.730   2.788  10.732
 2480SOL     OW 7891   0.864   3.228   9.349
 2480SOL    HW1 7892   0.825   3.255   9.432
 2480SOL    HW2 7893   0.879   3.310   9.302
 2481SOL     OW 7894   0.663   3.649  10.252
 2481SOL    HW1 7895   0.643   3.740  10.230
 2481SOL    HW2 7896   0.758   3.643  10.243
 2482SOL     OW 7897   0.869   2.832  10.164
 2482SOL    HW1 7898   0.918   2.759  10.201
 2482SOL    HW2 7899   0.832   2.877  10.240
 2483SOL     OW 7900   1.078   2.851   9.399
 2483SOL    HW1 7901   1.057   2.902   9.321
 2483SOL    HW2 7902   1.153   2.796   9.373
 2484SOL     OW 7903   1.851   3.415  10.153
 2484SOL    HW1 7904   1.772   3.404  10.100
 2484SOL    HW2 7905   1.841   3.352  10.224
 2485SOL     OW 7906   0.117   3.092   9.979
 2485SOL    HW1 7907   0.134   3.051  10.063
 2485SOL    HW2 7908   0.173   3.046   9.917
 2486SOL     OW 7909   0.681   3.260  10.943
 2486SOL    HW1 7910   0.612   3.207  10.983
 2486SOL    HW2 7911   0.638   3.342  10.921
 2487SOL     OW 7912   1.815   2.051  10.548
 2487SOL    HW1 7913   1.832   1.958  10.564
 2487SOL    HW2 7914   1.827   2.062  10.453
 2488SOL     OW 7915   0.435   2.295   9.835
 2488SOL    HW1 7916   0.461   2.221   9.780
 2488SOL    HW2 7917   0.384   2.255   9.906
 2489SOL     OW 7918   1.701   3.349  10.403
 2489SOL    HW1 7919   1.620   3.328  10.356
 2489SOL    HW2 7920   1.709   3.281  10.469
 2490SOL     OW 7921   0.292   2.351  10.562
 2490SOL    HW1 7922   0.364   2.311  10.610
 2490SOL    HW2 7923   0.326   2.365  10.474
 2491SOL     OW 7924   0.830   3.440   9.986
 2491SOL    HW1 7925   0.812   3.500   9.914
 2491SOL    HW2 7926   0.755   3.381   9.988
 2492SOL     OW 7927   1.431   2.090  10.427
 2492SOL    HW1 7928   1.456   2.009  10.471
 2492SOL    HW2 7929   1.380   2.138  10.493
 2493SOL     OW 7930   1.009   1.879  10.449
 2493SOL    HW1 7931   0.955   1.813  10.405
 2493SOL    HW2 7932   1.096   1.841  10.451
 2494SOL     OW 7933   0.773   3.196   9.628
 2494SOL    HW1 7934   0.744   3.105   9.634
 2494SOL    HW2 7935   0.855   3.198   9.678
 2495SOL     OW 7936   0.621   3.415  10.600
 2495SOL    HW1 7937   0.620   3.499  10.645
 2495SOL    HW2 7938   0.707   3.410  10.560
 2496SOL     OW 7939   1.354   1.915   9.478
 2496SOL    HW1 7940   1.385   1.848   9.417
 2496SOL    HW2 7941   1.266   1.887   9.502
 2497SOL     OW 7942   1.296   2.324   9.989
 2497SOL    HW1 7943   1.243   2.404   9.995
 2497SOL    HW2 7944   1.291   2.286  10.077
 2498SOL     OW 7945   1.586   2.058  10.190
 2498SOL    HW1 7946   1.529   2.081  10.263
 2498SOL    HW2 7947   1.586   2.136  10.134
 2499SOL     OW 7948   0.040   2.912   9.601
 2499SOL    HW1 7949   0.132   2.889   9.588
 2499SOL    HW2 7950   0.021   2.886   9.691
 2500SOL     OW 7951   0.888   3.519   9.650
 2500SOL    HW1 7952   0.814   3.502   9.591
 2500SOL    HW2 7953   0.859   3.592   9.704
 2501SOL     OW 7954   0.201   4.284   0.089
 2501SOL    HW1 7955   0.142   4.305   0.161
 2501SOL    HW2 7956   0.229   4.369   0.055
 2502SOL     OW 7957   0.208   3.992   0.990
 2502SOL    HW1 7958   0.243   3.966   1.076
 2502SOL    HW2 7959   0.133   3.934   0.976
 2503SOL     OW 7960   4.497   4.103   0.628
 2503SOL    HW1 7961   4.412   4.127   0.665
 2503SOL    HW2 7962   4.483   4.015   0.593
 2504SOL     OW 7963   1.727   4.330   0.234
 2504SOL    HW1 7964   1.752   4.311   0.144
 2504SOL    HW2 7965   1.718   4.244   0.275
 2505SOL     OW 7966   0.737   0.276   0.686
 2505SOL    HW1 7967   0.722   0.208   0.752
 2505SOL    HW2 7968   0.652   0.288   0.644
 2506SOL     OW 7969   0.449   4.117   1.488
 2506SOL    HW1 7970   0.530   4.066   1.487
 2506SOL    HW2 7971   0.379   4.052   1.497
 2507SOL     OW 7972   1.614   4.169   0.743
 2507SOL    HW1 7973   1.555   4.197   0.673
 2507SOL    HW2 7974   1.601   4.234   0.812
 2508SOL     OW 7975   1.596   3.849   1.466
 2508SOL    HW1 7976   1.611   3.930   1.417
 2508SOL    HW2 7977   1.578   3.878   1.556
 2509SOL     OW 7978   0.157   4.322   0.639
 2509SOL    HW1 7979   0.097   4.248   0.628
 2509SOL    HW2 7980   0.114   4.394   0.592
 2510SOL     OW 7981   0.131   0.004   1.586
 2510SOL    HW1 7982   0.225   4.484   1.580
 2510SOL    HW2 7983   0.123   0.092   1.550
 2511SOL     OW 7984   0.821   3.729   0.512
 2511SOL    HW1 7985   0.858   3.815   0.493
 2511SOL    HW2 7986   0.727   3.745   0.518
 2512SOL     OW 7987   0.329   3.980   1.803
 2512SOL    HW1 7988   0.370   4.060   1.836
 2512SOL    HW2 7989   0.238   3.984   1.833
 2513SOL     OW 7990   1.277   4.079   0.934
 2513SOL    HW1 7991   1.187   4.045   0.944
 2513SOL    HW2 7992   1.329   4.025   0.993
 2514SOL     OW 7993   0.833   4.296   1.443
 2514SOL    HW1 7994   0.794   4.301   1.530
 2514SOL    HW2 7995   0.763   4.264   1.387
 2515SOL     OW 7996   1.394   4.200   1.677
 2515SOL    HW1 7997   1.399   4.245   1.761
 2515SOL    HW2 7998   1.450   4.123   1.687
 2516SOL     OW 7999   1.000   4.155   1.232
 2516SOL    HW1 8000   0.932   4.178   1.295
 2516SOL    HW2 8001   0.957   4.096   1.171
 2517SOL     OW 8002   1.060   4.405   0.418
 2517SOL    HW1 8003   1.054   4.466   0.491
 2517SOL    HW2 8004   0.969   4.382   0.399
 2518SOL     OW 8005   0.058   0.076   0.855
 2518SOL    HW1 8006   0.141   0.031   0.866
 2518SOL    HW2 8007   0.050   0.088   0.760
 2519SOL     OW 8008   0.892   4.074   0.210
 2519SOL    HW1 8009   0.933   4.134   0.148
 2519SOL    HW2 8010   0.904   3.987   0.172
 2520SOL     OW 8011   1.712   4.301   1.831
 2520SOL    HW1 8012   1.730   4.387   1.794
 2520SOL    HW2 8013   1.732   4.239   1.761
 2521SOL     OW 8014   0.553   3.901   0.894
 2521SOL    HW1 8015   0.555   3.933   0.985
 2521SOL    HW2 8016   0.547   3.980   0.841
 2522SOL     OW 8017   1.489   4.468   0.741
 2522SOL    HW1 8018   1.478   4.412   0.818
 2522SOL    HW2 8019   1.531   0.047   0.776
 2523SOL     OW 8020   0.189   4.002   1.484
 2523SOL    HW1 8021   0.142   4.084   1.496
 2523SOL    HW2 8022   0.181   3.957   1.568
 2524SOL     OW 8023   1.402   3.829   0.434
 2524SOL    HW1 8024   1.395   3.808   0.340
 2524SOL    HW2 8025   1.496   3.838   0.450
 2525SOL     OW 8026   0.344   4.378   0.401
 2525SOL    HW1 8027   0.388   4.304   0.442
 2525SOL    HW2 8028   0.304   4.426   0.474
 2526SOL     OW 8029   1.531   3.949   1.725
 2526SOL    HW1 8030   1.540   3.970   1.818
 2526SOL    HW2 8031   1.463   3.882   1.722
 2527SOL     OW 8032   0.620   3.834   0.122
 2527SOL    HW1 8033   0.706   3.793   0.120
 2527SOL    HW2 8034   0.578   3.806   0.040
 2528SOL     OW 8035   0.764   4.002   1.755
 2528SOL    HW1 8036   0.844   3.949   1.752
 2528SOL    HW2 8037   0.718   3.971   1.833
 2529SOL     OW 8038   1.339   4.314   1.431
 2529SOL    HW1 8039   1.361   4.276   1.516
 2529SOL    HW2 8040   1.389   4.395   1.427
 2530SOL     OW 8041   0.927   4.232   0.898
 2530SOL    HW1 8042   0.903   4.217   0.807
 2530SOL    HW2 8043   0.966   4.149   0.926
 2531SOL     OW 8044   0.556   3.786   0.500
 2531SOL    HW1 8045   0.475   3.783   0.550
 2531SOL    HW2 8046   0.548   3.865   0.446
 2532SOL     OW 8047   0.284   3.772   0.191
 2532SOL    HW1 8048   0.331   3.823   0.125
 2532SOL    HW2 8049   0.348   3.709   0.222
 2533SOL     OW 8050   0.941   3.977   0.463
 2533SOL    HW1 8051   0.916   4.014   0.379
 2533SOL    HW2 8052   1.036   3.989   0.468
 2534SOL     OW 8053   1.073   4.394   1.533
 2534SOL    HW1 8054   0.992   4.363   1.492
 2534SOL    HW2 8055   1.143   4.362   1.477
 2535SOL     OW 8056   1.009   4.262   0.041
 2535SOL    HW1 8057   1.030   4.308  11.060
 2535SOL    HW2 8058   1.088   4.269   0.094
 2536SOL     OW 8059   0.078   4.254   1.401
 2536SOL    HW1 8060   0.159   4.267   1.352
 2536SOL    HW2 8061   0.051   4.343   1.425
 2537SOL     OW 8062   0.559   3.951   1.167
 2537SOL    HW1 8063   0.601   3.874   1.205
 2537SOL    HW2 8064   0.468   3.945   1.195
 2538SOL     OW 8065   0.866   4.190   0.639
 2538SOL    HW1 8066   0.844   4.256   0.574
 2538SOL    HW2 8067   0.886   4.112   0.587
 2539SOL     OW 8068   1.015   3.778   0.749
 2539SOL    HW1 8069   0.957   3.771   0.673
 2539SOL    HW2 8070   0.993   3.703   0.804
 2540SOL     OW 8071   1.478   4.308   0.960
 2540SOL    HW1 8072   1.412   4.241   0.979
 2540SOL    HW2 8073   1.526   4.318   1.042
 2541SOL     OW 8074   1.403   4.291   0.074
 2541SOL    HW1 8075   1.335   4.274   0.139
 2541SOL    HW2 8076   1.462   4.216   0.081
 2542SOL     OW 8077   0.528   3.991   0.324
 2542SOL    HW1 8078   0.557   3.931   0.256
 2542SOL    HW2 8079   0.507   4.072   0.278
 2543SOL     OW 8080   0.917   3.821   1.393
 2543SOL    HW1 8081   0.941   3.799   1.302
 2543SOL    HW2 8082   0.997   3.859   1.430
 2544SOL     OW 8083   0.449   0.004   1.271
 2544SOL    HW1 8084   0.506   4.495   1.347
 2544SOL    HW2 8085   0.413   4.417   1.257
 2545SOL     OW 8086   1.265   4.099   1.278
 2545SOL    HW1 8087   1.298   4.177   1.323
 2545SOL    HW2 8088   1.176   4.122   1.252
 2546SOL     OW 8089   0.553   4.249   0.864
 2546SOL    HW1 8090   0.573   4.281   0.776
 2546SOL    HW2 8091   0.620   4.288   0.920
 2547SOL     OW 8092   1.572   4.333   0.485
 2547SOL    HW1 8093   1.537   4.401   0.543
 2547SOL    HW2 8094   1.620   4.382   0.418
 2548SOL     OW 8095   0.996   3.853   1.754
 2548SOL    HW1 8096   1.055   3.925   1.732
 2548SOL    HW2 8097   1.043   3.774   1.729
 2549SOL     OW 8098   0.496   3.766   1.749
 2549SOL    HW1 8099   0.453   3.710   1.685
 2549SOL    HW2 8100   0.437   3.841   1.758
 2550SOL     OW 8101   1.207   4.247   0.259
 2550SOL    HW1 8102   1.219   4.169   0.313
 2550SOL    HW2 8103   1.161   4.309   0.316
 2551SOL     OW 8104   0.298   3.921   1.244
 2551SOL    HW1 8105   0.256   3.948   1.326
 2551SOL    HW2 8106   0.285   3.826   1.242
 2552SOL     OW 8107   0.736   4.360   1.039
 2552SOL    HW1 8108   0.809   4.320   0.991
 2552SOL    HW2 8109   0.750   4.454   1.030
 2553SOL     OW 8110   1.754   0.129   1.851
 2553SOL    HW1 8111   1.683   0.147   1.789
 2553SOL    HW2 8112   1.715   0.146   1.937
 2554SOL     OW 8113   0.316   3.793   0.619
 2554SOL    HW1 8114   0.289   3.881   0.644
 2554SOL    HW2 8115   0.314   3.743   0.701
 2555SOL     OW 8116   1.619   4.092   0.363
 2555SOL    HW1 8117   1.649   4.028   0.428
 2555SOL    HW2 8118   1.592   4.167   0.415
 2556SOL     OW 8119   1.530   4.022   0.112
 2556SOL    HW1 8120   1.473   3.947   0.127
 2556SOL    HW2 8121   1.566   4.042   0.198
 2557SOL     OW 8122   0.320   0.012   0.905
 2557SOL    HW1 8123   0.398   0.067   0.914
 2557SOL    HW2 8124   0.338   4.436   0.959
 2558SOL     OW 8125   0.330   4.236   1.012
 2558SOL    HW1 8126   0.286   4.154   0.989
 2558SOL    HW2 8127   0.406   4.240   0.954
 2559SOL     OW 8128   1.137   4.090   1.688
 2559SOL    HW1 8129   1.084   4.149   1.741
 2559SOL    HW2 8130   1.221   4.136   1.680
 2560SOL     OW 8131   1.160   3.924   1.469
 2560SOL    HW1 8132   1.150   3.984   1.543
 2560SOL    HW2 8133   1.202   3.975   1.401
 2561SOL     OW 8134   0.016   4.272   1.096
 2561SOL    HW1 8135   0.107   4.266   1.067
 2561SOL    HW2 8136   0.018   4.235   1.185
 2562SOL     OW 8137   0.171   4.236   1.685
 2562SOL    HW1 8138   0.263   4.221   1.662
 2562SOL    HW2 8139   0.150   4.319   1.644
 2563SOL     OW 8140   0.813   4.312   0.326
 2563SOL    HW1 8141   0.826   4.225   0.288
 2563SOL    HW2 8142   0.721   4.313   0.353
 2564SOL     OW 8143   1.634   4.315   1.183
 2564SOL    HW1 8144   1.632   4.257   1.260
 2564SOL    HW2 8145   1.723   4.305   1.149
 2565SOL     OW 8146   0.671   4.191   1.253
 2565SOL    HW1 8147   0.635   4.109   1.220
 2565SOL    HW2 8148   0.683   4.245   1.174
 2566SOL     OW 8149   0.469   4.214   0.178
 2566SOL    HW1 8150   0.517   4.296   0.185
 2566SOL    HW2 8151   0.377   4.240   0.181
 2567SOL     OW 8152   0.921   3.814   0.098
 2567SOL    HW1 8153   0.968   3.776   0.024
 2567SOL    HW2 8154   0.961   3.773   0.175
 2568SOL     OW 8155   1.722   3.874   0.509
 2568SOL    HW1 8156   1.792   3.861   0.446
 2568SOL    HW2 8157   1.706   3.788   0.547
 2569SOL     OW 8158   1.277   0.134   0.680
 2569SOL    HW1 8159   1.334   0.061   0.702
 2569SOL    HW2 8160   1.326   0.182   0.612
 2570SOL     OW 8161   1.840   3.895   0.966
 2570SOL    HW1 8162   1.869   3.807   0.940
 2570SOL    HW2 8163   1.754   3.905   0.926
 2571SOL     OW 8164   0.269   4.041   0.721
 2571SOL    HW1 8165   0.192   4.092   0.693
 2571SOL    HW2 8166   0.255   4.026   0.814
 2572SOL     OW 8167   1.061   0.292   0.740
 2572SOL    HW1 8168   0.986   0.272   0.683
 2572SOL    HW2 8169   1.129   0.232   0.712
 2573SOL     OW 8170   1.022   3.964   0.964
 2573SOL    HW1 8171   1.018   3.915   0.881
 2573SOL    HW2 8172   1.017   3.897   1.032
 2574SOL     OW 8173   1.724   4.114   1.380
 2574SOL    HW1 8174   1.795   4.178   1.379
 2574SOL    HW2 8175   1.754   4.043   1.323
 2575SOL     OW 8176   0.675   3.923   1.499
 2575SOL    HW1 8177   0.759   3.900   1.458
 2575SOL    HW2 8178   0.698   3.953   1.587
 2576SOL     OW 8179   0.062   4.063   0.002
 2576SOL    HW1 8180   4.472   4.075   0.032
 2576SOL    HW2 8181   0.105   4.146   0.022
 2577SOL     OW 8182   0.081   3.895   0.312
 2577SOL    HW1 8183   0.077   3.971   0.254
 2577SOL    HW2 8184   0.155   3.844   0.279
 2578SOL     OW 8185   0.726   4.276   1.695
 2578SOL    HW1 8186   0.725   4.325   1.777
 2578SOL    HW2 8187   0.743   4.186   1.720
 2579SOL     OW 8188   1.216   4.038   0.455
 2579SOL    HW1 8189   1.280   3.967   0.447
 2579SOL    HW2 8190   1.245   4.087   0.531
 2580SOL     OW 8191   1.755   4.093   1.652
 2580SOL    HW1 8192   1.741   4.104   1.558
 2580SOL    HW2 8193   1.685   4.034   1.679
 2581SOL     OW 8194   1.101   0.205   0.050
 2581SOL    HW1 8195   1.092   0.294   0.015
 2581SOL    HW2 8196   1.189   0.178   0.024
 2582SOL     OW 8197   1.814   3.906   1.237
 2582SOL    HW1 8198   1.820   3.812   1.250
 2582SOL    HW2 8199   1.822   3.918   1.142
 2583SOL     OW 8200   0.450   4.160   0.535
 2583SOL    HW1 8201   0.472   4.086   0.479
 2583SOL    HW2 8202   0.393   4.123   0.602
 2584SOL     OW 8203   0.323   4.263   1.279
 2584SOL    HW1 8204   0.376   4.195   1.321
 2584SOL    HW2 8205   0.329   4.245   1.186
 2585SOL     OW 8206   1.431   3.950   1.117
 2585SOL    HW1 8207   1.451   3.867   1.160
 2585SOL    HW2 8208   1.380   4.000   1.182
 2586SOL     OW 8209   1.009   3.741   1.140
 2586SOL    HW1 8210   0.954   3.674   1.098
 2586SOL    HW2 8211   1.096   3.703   1.141
 2587SOL     OW 8212   1.350   3.781   0.164
 2587SOL    HW1 8213   1.372   3.726   0.089
 2587SOL    HW2 8214   1.264   3.751   0.191
 2588SOL     OW 8215   1.298   4.173   0.678
 2588SOL    HW1 8216   1.270   4.263   0.690
 2588SOL    HW2 8217   1.297   4.135   0.766
 2589SOL     OW 8218   1.585   3.923   0.880
 2589SOL    HW1 8219   1.528   3.947   0.953
 2589SOL    HW2 8220   1.586   4.000   0.823
 2590SOL     OW 8221   0.223   4.273   1.971
 2590SOL    HW1 8222   0.160   4.300   2.038
 2590SOL    HW2 8223   0.209   4.334   1.899
 2591SOL     OW 8224   0.209   3.992   2.852
 2591SOL    HW1 8225   0.243   3.965   2.937
 2591SOL    HW2 8226   0.133   3.935   2.838
 2592SOL     OW 8227   4.497   4.103   2.492
 2592SOL    HW1 8228   4.412   4.131   2.526
 2592SOL    HW2 8229   4.480   4.019   2.451
 2593SOL     OW 8230   1.722   4.335   2.102
 2593SOL    HW1 8231   1.726   4.326   2.007
 2593SOL    HW2 8232   1.728   4.245   2.135
 2594SOL     OW 8233   0.729   0.277   2.547
 2594SOL    HW1 8234   0.716   0.212   2.615
 2594SOL    HW2 8235   0.642   0.290   2.509
 2595SOL     OW 8236   0.449   4.117   3.350
 2595SOL    HW1 8237   0.530   4.066   3.349
 2595SOL    HW2 8238   0.379   4.052   3.359
 2596SOL     OW 8239   1.614   4.169   2.604
 2596SOL    HW1 8240   1.552   4.195   2.536
 2596SOL    HW2 8241   1.601   4.233   2.674
 2597SOL     OW 8242   1.596   3.849   3.328
 2597SOL    HW1 8243   1.611   3.930   3.280
 2597SOL    HW2 8244   1.578   3.878   3.418
 2598SOL     OW 8245   0.157   4.324   2.502
 2598SOL    HW1 8246   0.099   4.250   2.489
 2598SOL    HW2 8247   0.115   4.397   2.456
 2599SOL     OW 8248   0.131   0.004   3.448
 2599SOL    HW1 8249   0.225   4.485   3.442
 2599SOL    HW2 8250   0.122   0.092   3.412
 2600SOL     OW 8251   0.820   3.727   2.374
 2600SOL    HW1 8252   0.859   3.811   2.352
 2600SOL    HW2 8253   0.727   3.745   2.380
 2601SOL     OW 8254   0.329   3.980   3.665
 2601SOL    HW1 8255   0.370   4.060   3.698
 2601SOL    HW2 8256   0.238   3.984   3.695
 2602SOL     OW 8257   1.277   4.078   2.796
 2602SOL    HW1 8258   1.187   4.045   2.806
 2602SOL    HW2 8259   1.329   4.025   2.855
 2603SOL     OW 8260   0.833   4.295   3.305
 2603SOL    HW1 8261   0.794   4.300   3.392
 2603SOL    HW2 8262   0.763   4.263   3.249
 2604SOL     OW 8263   1.394   4.200   3.538
 2604SOL    HW1 8264   1.399   4.245   3.623
 2604SOL    HW2 8265   1.451   4.123   3.549
 2605SOL     OW 8266   1.000   4.155   3.094
 2605SOL    HW1 8267   0.933   4.179   3.158
 2605SOL    HW2 8268   0.956   4.096   3.033
 2606SOL     OW 8269   1.055   4.412   2.274
 2606SOL    HW1 8270   1.049   4.460   2.357
 2606SOL    HW2 8271   0.971   4.369   2.265
 2607SOL     OW 8272   0.061   0.084   2.716
 2607SOL    HW1 8273   0.142   0.035   2.728
 2607SOL    HW2 8274   0.045   0.081   2.622
 2608SOL     OW 8275   0.896   4.066   2.051
 2608SOL    HW1 8276   0.936   4.129   1.991
 2608SOL    HW2 8277   0.910   3.981   2.009
 2609SOL     OW 8278   1.711   4.301   3.694
 2609SOL    HW1 8279   1.730   4.387   3.657
 2609SOL    HW2 8280   1.732   4.240   3.623
 2610SOL     OW 8281   0.553   3.902   2.756
 2610SOL    HW1 8282   0.555   3.933   2.847
 2610SOL    HW2 8283   0.547   3.981   2.703
 2611SOL     OW 8284   1.493   4.469   2.601
 2611SOL    HW1 8285   1.479   4.412   2.677
 2611SOL    HW2 8286   1.533   0.048   2.637
 2612SOL     OW 8287   0.189   4.002   3.346
 2612SOL    HW1 8288   0.142   4.085   3.357
 2612SOL    HW2 8289   0.181   3.958   3.430
 2613SOL     OW 8290   1.400   3.829   2.298
 2613SOL    HW1 8291   1.392   3.805   2.206
 2613SOL    HW2 8292   1.495   3.838   2.312
 2614SOL     OW 8293   0.345   4.383   2.263
 2614SOL    HW1 8294   0.386   4.306   2.303
 2614SOL    HW2 8295   0.305   4.430   2.336
 2615SOL     OW 8296   1.531   3.949   3.587
 2615SOL    HW1 8297   1.541   3.970   3.679
 2615SOL    HW2 8298   1.463   3.882   3.584
 2616SOL     OW 8299   0.640   3.845   1.963
 2616SOL    HW1 8300   0.701   3.774   1.982
 2616SOL    HW2 8301   0.589   3.814   1.888
 2617SOL     OW 8302   0.764   4.002   3.617
 2617SOL    HW1 8303   0.843   3.949   3.614
 2617SOL    HW2 8304   0.718   3.971   3.695
 2618SOL     OW 8305   1.339   4.314   3.293
 2618SOL    HW1 8306   1.361   4.277   3.378
 2618SOL    HW2 8307   1.389   4.395   3.289
 2619SOL     OW 8308   0.926   4.232   2.757
 2619SOL    HW1 8309   0.903   4.216   2.666
 2619SOL    HW2 8310   0.965   4.150   2.787
 2620SOL     OW 8311   0.556   3.787   2.359
 2620SOL    HW1 8312   0.475   3.784   2.411
 2620SOL    HW2 8313   0.546   3.865   2.303
 2621SOL     OW 8314   0.294   3.769   2.039
 2621SOL    HW1 8315   0.357   3.835   2.009
 2621SOL    HW2 8316   0.348   3.704   2.084
 2622SOL     OW 8317   0.941   3.975   2.319
 2622SOL    HW1 8318   0.916   4.011   2.234
 2622SOL    HW2 8319   1.035   3.988   2.325
 2623SOL     OW 8320   1.073   4.394   3.396
 2623SOL    HW1 8321   0.992   4.363   3.354
 2623SOL    HW2 8322   1.143   4.362   3.339
 2624SOL     OW 8323   1.026   4.262   1.891
 2624SOL    HW1 8324   1.011   4.350   1.856
 2624SOL    HW2 8325   1.090   4.274   1.961
 2625SOL     OW 8326   0.078   4.254   3.263
 2625SOL    HW1 8327   0.159   4.267   3.214
 2625SOL    HW2 8328   0.050   4.343   3.287
 2626SOL     OW 8329   0.559   3.951   3.029
 2626SOL    HW1 8330   0.601   3.874   3.067
 2626SOL    HW2 8331   0.467   3.945   3.056
 2627SOL     OW 8332   0.868   4.189   2.497
 2627SOL    HW1 8333   0.839   4.250   2.429
 2627SOL    HW2 8334   0.888   4.109   2.449
 2628SOL     OW 8335   1.015   3.778   2.610
 2628SOL    HW1 8336   0.957   3.770   2.535
 2628SOL    HW2 8337   0.993   3.702   2.665
 2629SOL     OW 8338   1.479   4.307   2.820
 2629SOL    HW1 8339   1.412   4.241   2.840
 2629SOL    HW2 8340   1.527   4.318   2.902
 2630SOL     OW 8341   1.405   4.296   1.935
 2630SOL    HW1 8342   1.342   4.267   2.001
 2630SOL    HW2 8343   1.487   4.255   1.961
 2631SOL     OW 8344   0.526   3.986   2.173
 2631SOL    HW1 8345   0.573   3.939   2.104
 2631SOL    HW2 8346   0.510   4.073   2.137
 2632SOL     OW 8347   0.917   3.821   3.255
 2632SOL    HW1 8348   0.941   3.799   3.164
 2632SOL    HW2 8349   0.997   3.859   3.292
 2633SOL     OW 8350   0.449   0.004   3.132
 2633SOL    HW1 8351   0.506   4.495   3.209
 2633SOL    HW2 8352   0.413   4.417   3.119
 2634SOL     OW 8353   1.265   4.099   3.140
 2634SOL    HW1 8354   1.298   4.177   3.185
 2634SOL    HW2 8355   1.176   4.122   3.114
 2635SOL     OW 8356   0.553   4.248   2.726
 2635SOL    HW1 8357   0.572   4.281   2.638
 2635SOL    HW2 8358   0.620   4.288   2.781
 2636SOL     OW 8359   1.566   4.333   2.346
 2636SOL    HW1 8360   1.544   4.400   2.411
 2636SOL    HW2 8361   1.625   4.378   2.285
 2637SOL     OW 8362   0.996   3.853   3.616
 2637SOL    HW1 8363   1.055   3.925   3.594
 2637SOL    HW2 8364   1.043   3.774   3.591
 2638SOL     OW 8365   0.496   3.766   3.611
 2638SOL    HW1 8366   0.453   3.710   3.547
 2638SOL    HW2 8367   0.437   3.841   3.620
 2639SOL     OW 8368   1.207   4.252   2.122
 2639SOL    HW1 8369   1.218   4.172   2.175
 2639SOL    HW2 8370   1.160   4.312   2.179
 2640SOL     OW 8371   0.297   3.921   3.106
 2640SOL    HW1 8372   0.256   3.948   3.188
 2640SOL    HW2 8373   0.285   3.826   3.104
 2641SOL     OW 8374   0.736   4.360   2.900
 2641SOL    HW1 8375   0.809   4.321   2.852
 2641SOL    HW2 8376   0.750   4.454   2.893
 2642SOL     OW 8377   1.753   0.128   3.713
 2642SOL    HW1 8378   1.683   0.148   3.651
 2642SOL    HW2 8379   1.715   0.146   3.798
 2643SOL     OW 8380   0.315   3.792   2.479
 2643SOL    HW1 8381   0.288   3.880   2.505
 2643SOL    HW2 8382   0.314   3.742   2.561
 2644SOL     OW 8383   1.615   4.090   2.228
 2644SOL    HW1 8384   1.647   4.029   2.295
 2644SOL    HW2 8385   1.589   4.168   2.277
 2645SOL     OW 8386   1.523   3.999   1.988
 2645SOL    HW1 8387   1.461   3.931   2.014
 2645SOL    HW2 8388   1.560   4.031   2.071
 2646SOL     OW 8389   0.321   0.012   2.768
 2646SOL    HW1 8390   0.400   0.066   2.777
 2646SOL    HW2 8391   0.340   4.435   2.822
 2647SOL     OW 8392   0.330   4.236   2.875
 2647SOL    HW1 8393   0.286   4.154   2.852
 2647SOL    HW2 8394   0.406   4.240   2.816
 2648SOL     OW 8395   1.137   4.090   3.550
 2648SOL    HW1 8396   1.084   4.149   3.603
 2648SOL    HW2 8397   1.221   4.135   3.542
 2649SOL     OW 8398   1.160   3.924   3.331
 2649SOL    HW1 8399   1.150   3.984   3.405
 2649SOL    HW2 8400   1.202   3.975   3.263
 2650SOL     OW 8401   0.017   4.272   2.958
 2650SOL    HW1 8402   0.108   4.266   2.928
 2650SOL    HW2 8403   0.018   4.235   3.046
 2651SOL     OW 8404   0.172   4.236   3.546
 2651SOL    HW1 8405   0.264   4.221   3.524
 2651SOL    HW2 8406   0.150   4.319   3.506
 2652SOL     OW 8407   0.820   4.278   2.219
 2652SOL    HW1 8408   0.826   4.206   2.156
 2652SOL    HW2 8409   0.732   4.313   2.208
 2653SOL     OW 8410   1.634   4.315   3.045
 2653SOL    HW1 8411   1.631   4.258   3.122
 2653SOL    HW2 8412   1.723   4.304   3.010
 2654SOL     OW 8413   0.671   4.191   3.114
 2654SOL    HW1 8414   0.635   4.109   3.081
 2654SOL    HW2 8415   0.683   4.245   3.036
 2655SOL     OW 8416   0.483   4.225   2.048
 2655SOL    HW1 8417   0.506   4.309   2.089
 2655SOL    HW2 8418   0.390   4.235   2.026
 2656SOL     OW 8419   1.724   3.874   2.372
 2656SOL    HW1 8420   1.794   3.858   2.309
 2656SOL    HW2 8421   1.706   3.788   2.410
 2657SOL     OW 8422   1.279   0.135   2.541
 2657SOL    HW1 8423   1.337   0.061   2.560
 2657SOL    HW2 8424   1.329   0.189   2.479
 2658SOL     OW 8425   1.840   3.895   2.828
 2658SOL    HW1 8426   1.869   3.807   2.802
 2658SOL    HW2 8427   1.754   3.905   2.788
 2659SOL     OW 8428   0.267   4.040   2.582
 2659SOL    HW1 8429   0.189   4.088   2.554
 2659SOL    HW2 8430   0.255   4.026   2.676
 2660SOL     OW 8431   0.901   0.090   2.069
 2660SOL    HW1 8432   0.983   0.126   2.034
 2660SOL    HW2 8433   0.923   0.058   2.156
 2661SOL     OW 8434   1.065   0.291   2.612
 2661SOL    HW1 8435   0.997   0.289   2.544
 2661SOL    HW2 8436   1.131   0.229   2.581
 2662SOL     OW 8437   1.022   3.964   2.825
 2662SOL    HW1 8438   1.018   3.915   2.743
 2662SOL    HW2 8439   1.017   3.897   2.893
 2663SOL     OW 8440   1.724   4.114   3.243
 2663SOL    HW1 8441   1.795   4.178   3.241
 2663SOL    HW2 8442   1.754   4.044   3.185
 2664SOL     OW 8443   0.675   3.923   3.361
 2664SOL    HW1 8444   0.759   3.900   3.320
 2664SOL    HW2 8445   0.698   3.953   3.449
 2665SOL     OW 8446   0.066   4.045   1.905
 2665SOL    HW1 8447   4.475   4.069   1.890
 2665SOL    HW2 8448   0.113   4.128   1.904
 2666SOL     OW 8449   0.087   3.900   2.164
 2666SOL    HW1 8450   0.075   3.966   2.096
 2666SOL    HW2 8451   0.162   3.848   2.134
 2667SOL     OW 8452   0.726   4.276   3.556
 2667SOL    HW1 8453   0.725   4.325   3.639
 2667SOL    HW2 8454   0.743   4.186   3.582
 2668SOL     OW 8455   1.217   4.042   2.315
 2668SOL    HW1 8456   1.279   3.968   2.309
 2668SOL    HW2 8457   1.246   4.090   2.393
 2669SOL     OW 8458   1.755   4.093   3.514
 2669SOL    HW1 8459   1.741   4.104   3.420
 2669SOL    HW2 8460   1.685   4.034   3.541
 2670SOL     OW 8461   1.113   0.223   1.963
 2670SOL    HW1 8462   1.107   0.267   1.878
 2670SOL    HW2 8463   1.202   0.187   1.965
 2671SOL     OW 8464   1.814   3.906   3.099
 2671SOL    HW1 8465   1.820   3.812   3.112
 2671SOL    HW2 8466   1.822   3.918   3.004
 2672SOL     OW 8467   0.448   4.158   2.394
 2672SOL    HW1 8468   0.467   4.082   2.339
 2672SOL    HW2 8469   0.391   4.124   2.463
 2673SOL     OW 8470   0.323   4.263   3.142
 2673SOL    HW1 8471   0.376   4.195   3.183
 2673SOL    HW2 8472   0.329   4.245   3.048
 2674SOL     OW 8473   1.431   3.950   2.979
 2674SOL    HW1 8474   1.451   3.867   3.023
 2674SOL    HW2 8475   1.380   4.000   3.043
 2675SOL     OW 8476   1.009   3.741   3.001
 2675SOL    HW1 8477   0.954   3.675   2.960
 2675SOL    HW2 8478   1.096   3.703   3.003
 2676SOL     OW 8479   1.354   3.776   2.029
 2676SOL    HW1 8480   1.385   3.708   1.969
 2676SOL    HW2 8481   1.266   3.749   2.053
 2677SOL     OW 8482   1.299   4.174   2.541
 2677SOL    HW1 8483   1.269   4.264   2.555
 2677SOL    HW2 8484   1.297   4.135   2.628
 2678SOL     OW 8485   1.585   3.923   2.742
 2678SOL    HW1 8486   1.528   3.947   2.815
 2678SOL    HW2 8487   1.586   4.000   2.685
 2679SOL     OW 8488   0.223   4.273   3.833
 2679SOL    HW1 8489   0.160   4.299   3.900
 2679SOL    HW2 8490   0.209   4.335   3.761
 2680SOL     OW 8491   0.209   3.992   4.714
 2680SOL    HW1 8492   0.243   3.965   4.799
 2680SOL    HW2 8493   0.133   3.935   4.700
 2681SOL     OW 8494   4.497   4.103   4.354
 2681SOL    HW1 8495   4.412   4.131   4.388
 2681SOL    HW2 8496   4.479   4.019   4.312
 2682SOL     OW 8497   1.721   4.335   3.965
 2682SOL    HW1 8498   1.726   4.326   3.869
 2682SOL    HW2 8499   1.728   4.245   3.997
 2683SOL     OW 8500   0.729   0.277   4.409
 2683SOL    HW1 8501   0.716   0.212   4.477
 2683SOL    HW2 8502   0.642   0.289   4.370
 2684SOL     OW 8503   0.449   4.117   5.212
 2684SOL    HW1 8504   0.530   4.066   5.211
 2684SOL    HW2 8505   0.379   4.052   5.221
 2685SOL     OW 8506   1.614   4.169   4.466
 2685SOL    HW1 8507   1.552   4.196   4.397
 2685SOL    HW2 8508   1.601   4.234   4.535
 2686SOL     OW 8509   1.596   3.849   5.191
 2686SOL    HW1 8510   1.611   3.930   5.141
 2686SOL    HW2 8511   1.578   3.879   5.280
 2687SOL     OW 8512   0.157   4.324   4.364
 2687SOL    HW1 8513   0.099   4.250   4.351
 2687SOL    HW2 8514   0.115   4.397   4.318
 2688SOL     OW 8515   0.131   0.004   5.311
 2688SOL    HW1 8516   0.225   4.485   5.304
 2688SOL    HW2 8517   0.123   0.092   5.275
 2689SOL     OW 8518   0.820   3.727   4.236
 2689SOL    HW1 8519   0.860   3.811   4.214
 2689SOL    HW2 8520   0.727   3.745   4.242
 2690SOL     OW 8521   0.329   3.979   5.527
 2690SOL    HW1 8522   0.369   4.060   5.560
 2690SOL    HW2 8523   0.239   3.984   5.557
 2691SOL     OW 8524   1.277   4.078   4.658
 2691SOL    HW1 8525   1.187   4.045   4.668
 2691SOL    HW2 8526   1.329   4.025   4.717
 2692SOL     OW 8527   0.833   4.295   5.167
 2692SOL    HW1 8528   0.794   4.300   5.254
 2692SOL    HW2 8529   0.763   4.264   5.111
 2693SOL     OW 8530   1.394   4.200   5.400
 2693SOL    HW1 8531   1.399   4.245   5.485
 2693SOL    HW2 8532   1.451   4.123   5.411
 2694SOL     OW 8533   1.000   4.155   4.956
 2694SOL    HW1 8534   0.932   4.179   5.020
 2694SOL    HW2 8535   0.956   4.096   4.895
 2695SOL     OW 8536   1.055   4.412   4.136
 2695SOL    HW1 8537   1.049   4.460   4.219
 2695SOL    HW2 8538   0.970   4.369   4.127
 2696SOL     OW 8539   0.061   0.084   4.578
 2696SOL    HW1 8540   0.142   0.035   4.590
 2696SOL    HW2 8541   0.045   0.081   4.484
 2697SOL     OW 8542   0.896   4.066   3.913
 2697SOL    HW1 8543   0.936   4.129   3.853
 2697SOL    HW2 8544   0.910   3.981   3.871
 2698SOL     OW 8545   1.711   4.301   5.555
 2698SOL    HW1 8546   1.730   4.387   5.518
 2698SOL    HW2 8547   1.732   4.240   5.485
 2699SOL     OW 8548   0.553   3.901   4.618
 2699SOL    HW1 8549   0.555   3.933   4.708
 2699SOL    HW2 8550   0.547   3.981   4.565
 2700SOL     OW 8551   1.492   4.469   4.464
 2700SOL    HW1 8552   1.479   4.412   4.540
 2700SOL    HW2 8553   1.533   0.048   4.499
 2701SOL     OW 8554   0.189   4.002   5.208
 2701SOL    HW1 8555   0.142   4.084   5.219
 2701SOL    HW2 8556   0.181   3.958   5.292
 2702SOL     OW 8557   1.400   3.829   4.160
 2702SOL    HW1 8558   1.392   3.804   4.068
 2702SOL    HW2 8559   1.494   3.839   4.174
 2703SOL     OW 8560   0.346   4.383   4.125
 2703SOL    HW1 8561   0.386   4.306   4.165
 2703SOL    HW2 8562   0.305   4.430   4.198
 2704SOL     OW 8563   1.531   3.949   5.449
 2704SOL    HW1 8564   1.541   3.970   5.541
 2704SOL    HW2 8565   1.462   3.883   5.446
 2705SOL     OW 8566   0.640   3.845   3.825
 2705SOL    HW1 8567   0.701   3.774   3.844
 2705SOL    HW2 8568   0.589   3.814   3.751
 2706SOL     OW 8569   0.764   4.002   5.479
 2706SOL    HW1 8570   0.843   3.949   5.476
 2706SOL    HW2 8571   0.718   3.971   5.557
 2707SOL     OW 8572   1.339   4.314   5.155
 2707SOL    HW1 8573   1.361   4.277   5.240
 2707SOL    HW2 8574   1.389   4.395   5.150
 2708SOL     OW 8575   0.926   4.232   4.619
 2708SOL    HW1 8576   0.903   4.216   4.528
 2708SOL    HW2 8577   0.965   4.150   4.648
 2709SOL     OW 8578   0.556   3.787   4.221
 2709SOL    HW1 8579   0.475   3.784   4.273
 2709SOL    HW2 8580   0.546   3.865   4.165
 2710SOL     OW 8581   0.294   3.769   3.901
 2710SOL    HW1 8582   0.356   3.835   3.871
 2710SOL    HW2 8583   0.348   3.704   3.946
 2711SOL     OW 8584   0.941   3.974   4.181
 2711SOL    HW1 8585   0.916   4.011   4.096
 2711SOL    HW2 8586   1.035   3.988   4.187
 2712SOL     OW 8587   1.073   4.394   5.258
 2712SOL    HW1 8588   0.992   4.363   5.216
 2712SOL    HW2 8589   1.143   4.362   5.201
 2713SOL     OW 8590   1.026   4.262   3.753
 2713SOL    HW1 8591   1.011   4.350   3.718
 2713SOL    HW2 8592   1.090   4.274   3.823
 2714SOL     OW 8593   0.079   4.254   5.126
 2714SOL    HW1 8594   0.159   4.267   5.076
 2714SOL    HW2 8595   0.050   4.343   5.148
 2715SOL     OW 8596   0.559   3.951   4.891
 2715SOL    HW1 8597   0.601   3.874   4.929
 2715SOL    HW2 8598   0.467   3.945   4.918
 2716SOL     OW 8599   0.868   4.189   4.359
 2716SOL    HW1 8600   0.839   4.250   4.291
 2716SOL    HW2 8601   0.888   4.109   4.311
 2717SOL     OW 8602   1.016   3.778   4.472
 2717SOL    HW1 8603   0.957   3.771   4.397
 2717SOL    HW2 8604   0.993   3.702   4.527
 2718SOL     OW 8605   1.479   4.307   4.683
 2718SOL    HW1 8606   1.412   4.241   4.702
 2718SOL    HW2 8607   1.527   4.318   4.764
 2719SOL     OW 8608   1.405   4.296   3.797
 2719SOL    HW1 8609   1.342   4.267   3.863
 2719SOL    HW2 8610   1.488   4.256   3.823
 2720SOL     OW 8611   0.526   3.986   4.035
 2720SOL    HW1 8612   0.573   3.939   3.966
 2720SOL    HW2 8613   0.510   4.073   3.999
 2721SOL     OW 8614   0.917   3.821   5.117
 2721SOL    HW1 8615   0.941   3.799   5.027
 2721SOL    HW2 8616   0.997   3.859   5.154
 2722SOL     OW 8617   0.449   0.004   4.994
 2722SOL    HW1 8618   0.506   4.495   5.071
 2722SOL    HW2 8619   0.413   4.417   4.981
 2723SOL     OW 8620   1.265   4.099   5.002
 2723SOL    HW1 8621   1.298   4.177   5.047
 2723SOL    HW2 8622   1.176   4.122   4.976
 2724SOL     OW 8623   0.553   4.248   4.588
 2724SOL    HW1 8624   0.572   4.281   4.500
 2724SOL    HW2 8625   0.620   4.288   4.643
 2725SOL     OW 8626   1.566   4.333   4.208
 2725SOL    HW1 8627   1.544   4.400   4.273
 2725SOL    HW2 8628   1.625   4.377   4.147
 2726SOL     OW 8629   0.996   3.853   5.478
 2726SOL    HW1 8630   1.055   3.925   5.456
 2726SOL    HW2 8631   1.043   3.774   5.453
 2727SOL     OW 8632   0.496   3.766   5.473
 2727SOL    HW1 8633   0.452   3.710   5.409
 2727SOL    HW2 8634   0.437   3.841   5.482
 2728SOL     OW 8635   1.208   4.251   3.984
 2728SOL    HW1 8636   1.218   4.172   4.037
 2728SOL    HW2 8637   1.160   4.312   4.041
 2729SOL     OW 8638   0.297   3.921   4.968
 2729SOL    HW1 8639   0.256   3.948   5.050
 2729SOL    HW2 8640   0.285   3.826   4.966
 2730SOL     OW 8641   0.736   4.360   4.762
 2730SOL    HW1 8642   0.809   4.321   4.714
 2730SOL    HW2 8643   0.750   4.454   4.755
 2731SOL     OW 8644   1.753   0.129   5.575
 2731SOL    HW1 8645   1.683   0.148   5.512
 2731SOL    HW2 8646   1.715   0.146   5.660
 2732SOL     OW 8647   0.315   3.792   4.341
 2732SOL    HW1 8648   0.288   3.880   4.367
 2732SOL    HW2 8649   0.314   3.742   4.423
 2733SOL     OW 8650   1.615   4.090   4.090
 2733SOL    HW1 8651   1.647   4.029   4.157
 2733SOL    HW2 8652   1.589   4.168   4.139
 2734SOL     OW 8653   1.523   3.999   3.850
 2734SOL    HW1 8654   1.461   3.931   3.876
 2734SOL    HW2 8655   1.560   4.031   3.933
 2735SOL     OW 8656   0.322   0.012   4.631
 2735SOL    HW1 8657   0.400   0.066   4.639
 2735SOL    HW2 8658   0.340   4.435   4.684
 2736SOL     OW 8659   0.331   4.236   4.737
 2736SOL    HW1 8660   0.286   4.154   4.713
 2736SOL    HW2 8661   0.406   4.240   4.678
 2737SOL     OW 8662   1.138   4.090   5.412
 2737SOL    HW1 8663   1.084   4.149   5.465
 2737SOL    HW2 8664   1.221   4.135   5.403
 2738SOL     OW 8665   1.160   3.923   5.193
 2738SOL    HW1 8666   1.150   3.984   5.267
 2738SOL    HW2 8667   1.202   3.975   5.125
 2739SOL     OW 8668   0.017   4.272   4.820
 2739SOL    HW1 8669   0.108   4.266   4.790
 2739SOL    HW2 8670   0.018   4.234   4.908
 2740SOL     OW 8671   0.172   4.236   5.409
 2740SOL    HW1 8672   0.264   4.221   5.386
 2740SOL    HW2 8673   0.150   4.319   5.367
 2741SOL     OW 8674   0.820   4.278   4.081
 2741SOL    HW1 8675   0.825   4.206   4.018
 2741SOL    HW2 8676   0.732   4.313   4.070
 2742SOL     OW 8677   1.634   4.314   4.907
 2742SOL    HW1 8678   1.631   4.257   4.984
 2742SOL    HW2 8679   1.723   4.304   4.872
 2743SOL     OW 8680   0.672   4.191   4.976
 2743SOL    HW1 8681   0.636   4.109   4.943
 2743SOL    HW2 8682   0.683   4.245   4.898
 2744SOL     OW 8683   0.483   4.225   3.910
 2744SOL    HW1 8684   0.506   4.309   3.950
 2744SOL    HW2 8685   0.390   4.235   3.888
 2745SOL     OW 8686   1.724   3.874   4.234
 2745SOL    HW1 8687   1.794   3.859   4.171
 2745SOL    HW2 8688   1.706   3.788   4.272
 2746SOL     OW 8689   1.279   0.135   4.403
 2746SOL    HW1 8690   1.337   0.061   4.422
 2746SOL    HW2 8691   1.329   0.189   4.341
 2747SOL     OW 8692   1.840   3.895   4.691
 2747SOL    HW1 8693   1.869   3.807   4.664
 2747SOL    HW2 8694   1.754   3.905   4.650
 2748SOL     OW 8695   0.267   4.040   4.444
 2748SOL    HW1 8696   0.189   4.088   4.416
 2748SOL    HW2 8697   0.255   4.026   4.538
 2749SOL     OW 8698   0.901   0.090   3.931
 2749SOL    HW1 8699   0.983   0.126   3.896
 2749SOL    HW2 8700   0.924   0.058   4.018
 2750SOL     OW 8701   1.065   0.291   4.474
 2750SOL    HW1 8702   0.997   0.290   4.406
 2750SOL    HW2 8703   1.131   0.229   4.443
 2751SOL     OW 8704   1.022   3.964   4.687
 2751SOL    HW1 8705   1.018   3.915   4.605
 2751SOL    HW2 8706   1.017   3.897   4.755
 2752SOL     OW 8707   1.724   4.114   5.105
 2752SOL    HW1 8708   1.795   4.178   5.103
 2752SOL    HW2 8709   1.754   4.044   5.047
 2753SOL     OW 8710   0.675   3.922   5.223
 2753SOL    HW1 8711   0.759   3.900   5.183
 2753SOL    HW2 8712   0.698   3.953   5.311
 2754SOL     OW 8713   0.066   4.045   3.767
 2754SOL    HW1 8714   4.475   4.070   3.751
 2754SOL    HW2 8715   0.113   4.128   3.767
 2755SOL     OW 8716   0.087   3.900   4.026
 2755SOL    HW1 8717   0.075   3.966   3.958
 2755SOL    HW2 8718   0.162   3.849   3.996
 2756SOL     OW 8719   0.726   4.276   5.419
 2756SOL    HW1 8720   0.725   4.325   5.501
 2756SOL    HW2 8721   0.743   4.186   5.444
 2757SOL     OW 8722   1.217   4.041   4.177
 2757SOL    HW1 8723   1.279   3.968   4.171
 2757SOL    HW2 8724   1.245   4.090   4.255
 2758SOL     OW 8725   1.755   4.092   5.376
 2758SOL    HW1 8726   1.741   4.104   5.282
 2758SOL    HW2 8727   1.684   4.034   5.403
 2759SOL     OW 8728   1.113   0.223   3.825
 2759SOL    HW1 8729   1.107   0.268   3.740
 2759SOL    HW2 8730   1.202   0.187   3.827
 2760SOL     OW 8731   1.813   3.906   4.961
 2760SOL    HW1 8732   1.821   3.811   4.974
 2760SOL    HW2 8733   1.822   3.918   4.867
 2761SOL     OW 8734   0.448   4.158   4.256
 2761SOL    HW1 8735   0.467   4.082   4.201
 2761SOL    HW2 8736   0.391   4.124   4.325
 2762SOL     OW 8737   0.323   4.263   5.003
 2762SOL    HW1 8738   0.376   4.195   5.045
 2762SOL    HW2 8739   0.329   4.245   4.910
 2763SOL     OW 8740   1.431   3.950   4.841
 2763SOL    HW1 8741   1.452   3.868   4.886
 2763SOL    HW2 8742   1.380   4.000   4.905
 2764SOL     OW 8743   1.009   3.741   4.864
 2764SOL    HW1 8744   0.954   3.675   4.822
 2764SOL    HW2 8745   1.096   3.703   4.865
 2765SOL     OW 8746   1.354   3.777   3.891
 2765SOL    HW1 8747   1.385   3.709   3.831
 2765SOL    HW2 8748   1.266   3.749   3.915
 2766SOL     OW 8749   1.298   4.174   4.403
 2766SOL    HW1 8750   1.269   4.264   4.416
 2766SOL    HW2 8751   1.297   4.135   4.490
 2767SOL     OW 8752   1.585   3.923   4.604
 2767SOL    HW1 8753   1.528   3.947   4.676
 2767SOL    HW2 8754   1.586   4.000   4.547
 2768SOL     OW 8755   0.223   4.273   5.695
 2768SOL    HW1 8756   0.160   4.300   5.762
 2768SOL    HW2 8757   0.209   4.334   5.623
 2769SOL     OW 8758   0.209   3.992   6.576
 2769SOL    HW1 8759   0.243   3.965   6.661
 2769SOL    HW2 8760   0.133   3.935   6.562
 2770SOL     OW 8761   4.497   4.103   6.216
 2770SOL    HW1 8762   4.412   4.131   6.250
 2770SOL    HW2 8763   4.480   4.019   6.174
 2771SOL     OW 8764   1.722   4.335   5.826
 2771SOL    HW1 8765   1.726   4.326   5.731
 2771SOL    HW2 8766   1.728   4.245   5.859
 2772SOL     OW 8767   0.729   0.277   6.271
 2772SOL    HW1 8768   0.716   0.212   6.339
 2772SOL    HW2 8769   0.643   0.289   6.232
 2773SOL     OW 8770   0.449   4.117   7.074
 2773SOL    HW1 8771   0.530   4.066   7.073
 2773SOL    HW2 8772   0.379   4.052   7.083
 2774SOL     OW 8773   1.614   4.169   6.328
 2774SOL    HW1 8774   1.551   4.195   6.260
 2774SOL    HW2 8775   1.601   4.233   6.398
 2775SOL     OW 8776   1.596   3.849   7.052
 2775SOL    HW1 8777   1.611   3.931   7.004
 2775SOL    HW2 8778   1.578   3.878   7.142
 2776SOL     OW 8779   0.157   4.324   6.226
 2776SOL    HW1 8780   0.099   4.250   6.213
 2776SOL    HW2 8781   0.115   4.397   6.180
 2777SOL     OW 8782   0.131   0.004   7.173
 2777SOL    HW1 8783   0.225   4.484   7.166
 2777SOL    HW2 8784   0.123   0.092   7.137
 2778SOL     OW 8785   0.820   3.727   6.098
 2778SOL    HW1 8786   0.859   3.811   6.076
 2778SOL    HW2 8787   0.726   3.745   6.104
 2779SOL     OW 8788   0.329   3.980   7.389
 2779SOL    HW1 8789   0.370   4.060   7.422
 2779SOL    HW2 8790   0.238   3.984   7.419
 2780SOL     OW 8791   1.277   4.078   6.520
 2780SOL    HW1 8792   1.187   4.045   6.530
 2780SOL    HW2 8793   1.329   4.024   6.579
 2781SOL     OW 8794   0.833   4.295   7.029
 2781SOL    HW1 8795   0.794   4.300   7.116
 2781SOL    HW2 8796   0.763   4.264   6.973
 2782SOL     OW 8797   1.394   4.200   7.262
 2782SOL    HW1 8798   1.399   4.245   7.347
 2782SOL    HW2 8799   1.450   4.123   7.273
 2783SOL     OW 8800   1.000   4.155   6.818
 2783SOL    HW1 8801   0.933   4.179   6.882
 2783SOL    HW2 8802   0.956   4.096   6.757
 2784SOL     OW 8803   1.055   4.412   5.998
 2784SOL    HW1 8804   1.049   4.460   6.081
 2784SOL    HW2 8805   0.970   4.369   5.989
 2785SOL     OW 8806   0.061   0.084   6.440
 2785SOL    HW1 8807   0.142   0.035   6.452
 2785SOL    HW2 8808   0.045   0.081   6.346
 2786SOL     OW 8809   0.896   4.066   5.775
 2786SOL    HW1 8810   0.936   4.129   5.715
 2786SOL    HW2 8811   0.910   3.981   5.733
 2787SOL     OW 8812   1.712   4.300   7.417
 2787SOL    HW1 8813   1.730   4.387   7.380
 2787SOL    HW2 8814   1.732   4.239   7.347
 2788SOL     OW 8815   0.553   3.902   6.480
 2788SOL    HW1 8816   0.555   3.933   6.571
 2788SOL    HW2 8817   0.547   3.981   6.427
 2789SOL     OW 8818   1.493   4.469   6.325
 2789SOL    HW1 8819   1.479   4.412   6.401
 2789SOL    HW2 8820   1.533   0.048   6.361
 2790SOL     OW 8821   0.189   4.002   7.070
 2790SOL    HW1 8822   0.142   4.084   7.082
 2790SOL    HW2 8823   0.181   3.957   7.154
 2791SOL     OW 8824   1.400   3.829   6.022
 2791SOL    HW1 8825   1.392   3.805   5.930
 2791SOL    HW2 8826   1.495   3.839   6.036
 2792SOL     OW 8827   0.346   4.383   5.987
 2792SOL    HW1 8828   0.386   4.306   6.027
 2792SOL    HW2 8829   0.305   4.430   6.060
 2793SOL     OW 8830   1.531   3.949   7.311
 2793SOL    HW1 8831   1.540   3.970   7.404
 2793SOL    HW2 8832   1.463   3.882   7.308
 2794SOL     OW 8833   0.641   3.845   5.687
 2794SOL    HW1 8834   0.701   3.773   5.706
 2794SOL    HW2 8835   0.589   3.814   5.612
 2795SOL     OW 8836   0.764   4.002   7.341
 2795SOL    HW1 8837   0.843   3.949   7.338
 2795SOL    HW2 8838   0.718   3.971   7.419
 2796SOL     OW 8839   1.339   4.314   7.017
 2796SOL    HW1 8840   1.361   4.276   7.102
 2796SOL    HW2 8841   1.389   4.395   7.013
 2797SOL     OW 8842   0.926   4.232   6.481
 2797SOL    HW1 8843   0.903   4.216   6.390
 2797SOL    HW2 8844   0.965   4.150   6.511
 2798SOL     OW 8845   0.556   3.787   6.083
 2798SOL    HW1 8846   0.475   3.784   6.135
 2798SOL    HW2 8847   0.546   3.865   6.027
 2799SOL     OW 8848   0.294   3.769   5.763
 2799SOL    HW1 8849   0.356   3.835   5.733
 2799SOL    HW2 8850   0.348   3.704   5.808
 2800SOL     OW 8851   0.941   3.975   6.043
 2800SOL    HW1 8852   0.916   4.011   5.958
 2800SOL    HW2 8853   1.035   3.988   6.049
 2801SOL     OW 8854   1.073   4.394   7.119
 2801SOL    HW1 8855   0.992   4.363   7.078
 2801SOL    HW2 8856   1.143   4.362   7.063
 2802SOL     OW 8857   1.026   4.262   5.615
 2802SOL    HW1 8858   1.011   4.350   5.580
 2802SOL    HW2 8859   1.090   4.274   5.685
 2803SOL     OW 8860   0.079   4.254   6.988
 2803SOL    HW1 8861   0.159   4.267   6.938
 2803SOL    HW2 8862   0.050   4.343   7.010
 2804SOL     OW 8863   0.559   3.951   6.753
 2804SOL    HW1 8864   0.601   3.874   6.791
 2804SOL    HW2 8865   0.467   3.945   6.780
 2805SOL     OW 8866   0.869   4.189   6.221
 2805SOL    HW1 8867   0.839   4.250   6.153
 2805SOL    HW2 8868   0.888   4.109   6.173
 2806SOL     OW 8869   1.016   3.777   6.334
 2806SOL    HW1 8870   0.957   3.770   6.259
 2806SOL    HW2 8871   0.993   3.702   6.389
 2807SOL     OW 8872   1.479   4.307   6.544
 2807SOL    HW1 8873   1.412   4.241   6.564
 2807SOL    HW2 8874   1.527   4.318   6.626
 2808SOL     OW 8875   1.405   4.296   5.659
 2808SOL    HW1 8876   1.342   4.267   5.725
 2808SOL    HW2 8877   1.488   4.256   5.685
 2809SOL     OW 8878   0.526   3.986   5.897
 2809SOL    HW1 8879   0.573   3.939   5.828
 2809SOL    HW2 8880   0.510   4.073   5.861
 2810SOL     OW 8881   0.917   3.821   6.978
 2810SOL    HW1 8882   0.941   3.799   6.888
 2810SOL    HW2 8883   0.997   3.859   7.016
 2811SOL     OW 8884   0.449   0.004   6.856
 2811SOL    HW1 8885   0.506   4.495   6.933
 2811SOL    HW2 8886   0.413   4.417   6.843
 2812SOL     OW 8887   1.265   4.099   6.864
 2812SOL    HW1 8888   1.298   4.177   6.909
 2812SOL    HW2 8889   1.176   4.122   6.838
 2813SOL     OW 8890   0.553   4.248   6.450
 2813SOL    HW1 8891   0.572   4.281   6.362
 2813SOL    HW2 8892   0.620   4.288   6.505
 2814SOL     OW 8893   1.565   4.333   6.070
 2814SOL    HW1 8894   1.544   4.400   6.135
 2814SOL    HW2 8895   1.625   4.377   6.009
 2815SOL     OW 8896   0.996   3.853   7.340
 2815SOL    HW1 8897   1.055   3.925   7.318
 2815SOL    HW2 8898   1.043   3.774   7.315
 2816SOL     OW 8899   0.496   3.766   7.335
 2816SOL    HW1 8900   0.453   3.710   7.271
 2816SOL    HW2 8901   0.437   3.841   7.344
 2817SOL     OW 8902   1.208   4.252   5.846
 2817SOL    HW1 8903   1.218   4.172   5.899
 2817SOL    HW2 8904   1.160   4.312   5.903
 2818SOL     OW 8905   0.297   3.921   6.830
 2818SOL    HW1 8906   0.256   3.948   6.912
 2818SOL    HW2 8907   0.285   3.826   6.828
 2819SOL     OW 8908   0.736   4.360   6.624
 2819SOL    HW1 8909   0.809   4.321   6.576
 2819SOL    HW2 8910   0.750   4.454   6.617
 2820SOL     OW 8911   1.754   0.130   7.437
 2820SOL    HW1 8912   1.683   0.147   7.375
 2820SOL    HW2 8913   1.715   0.146   7.523
 2821SOL     OW 8914   0.315   3.792   6.203
 2821SOL    HW1 8915   0.288   3.880   6.229
 2821SOL    HW2 8916   0.314   3.742   6.285
 2822SOL     OW 8917   1.615   4.090   5.952
 2822SOL    HW1 8918   1.647   4.029   6.019
 2822SOL    HW2 8919   1.589   4.168   6.001
 2823SOL     OW 8920   1.523   3.999   5.712
 2823SOL    HW1 8921   1.461   3.931   5.739
 2823SOL    HW2 8922   1.560   4.031   5.794
 2824SOL     OW 8923   0.321   0.012   6.493
 2824SOL    HW1 8924   0.400   0.066   6.501
 2824SOL    HW2 8925   0.340   4.435   6.546
 2825SOL     OW 8926   0.331   4.236   6.599
 2825SOL    HW1 8927   0.286   4.154   6.576
 2825SOL    HW2 8928   0.406   4.240   6.540
 2826SOL     OW 8929   1.137   4.090   7.274
 2826SOL    HW1 8930   1.084   4.149   7.327
 2826SOL    HW2 8931   1.221   4.136   7.266
 2827SOL     OW 8932   1.160   3.924   7.055
 2827SOL    HW1 8933   1.150   3.984   7.128
 2827SOL    HW2 8934   1.202   3.975   6.987
 2828SOL     OW 8935   0.017   4.272   6.682
 2828SOL    HW1 8936   0.108   4.266   6.652
 2828SOL    HW2 8937   0.018   4.235   6.770
 2829SOL     OW 8938   0.172   4.236   7.271
 2829SOL    HW1 8939   0.263   4.221   7.248
 2829SOL    HW2 8940   0.150   4.319   7.229
 2830SOL     OW 8941   0.820   4.278   5.943
 2830SOL    HW1 8942   0.826   4.206   5.880
 2830SOL    HW2 8943   0.732   4.313   5.932
 2831SOL     OW 8944   1.634   4.315   6.769
 2831SOL    HW1 8945   1.631   4.258   6.846
 2831SOL    HW2 8946   1.723   4.305   6.734
 2832SOL     OW 8947   0.671   4.191   6.838
 2832SOL    HW1 8948   0.636   4.109   6.805
 2832SOL    HW2 8949   0.683   4.245   6.760
 2833SOL     OW 8950   0.483   4.225   5.772
 2833SOL    HW1 8951   0.506   4.309   5.813
 2833SOL    HW2 8952   0.390   4.235   5.750
 2834SOL     OW 8953   1.723   3.874   6.096
 2834SOL    HW1 8954   1.794   3.859   6.033
 2834SOL    HW2 8955   1.706   3.788   6.134
 2835SOL     OW 8956   1.280   0.135   6.265
 2835SOL    HW1 8957   1.337   0.061   6.285
 2835SOL    HW2 8958   1.329   0.188   6.202
 2836SOL     OW 8959   1.840   3.894   6.552
 2836SOL    HW1 8960   1.869   3.807   6.526
 2836SOL    HW2 8961   1.754   3.905   6.512
 2837SOL     OW 8962   0.267   4.040   6.306
 2837SOL    HW1 8963   0.189   4.088   6.278
 2837SOL    HW2 8964   0.255   4.026   6.400
 2838SOL     OW 8965   0.901   0.090   5.793
 2838SOL    HW1 8966   0.983   0.126   5.758
 2838SOL    HW2 8967   0.924   0.058   5.880
 2839SOL     OW 8968   1.065   0.292   6.335
 2839SOL    HW1 8969   0.998   0.290   6.268
 2839SOL    HW2 8970   1.131   0.229   6.305
 2840SOL     OW 8971   1.022   3.964   6.549
 2840SOL    HW1 8972   1.018   3.915   6.467
 2840SOL    HW2 8973   1.017   3.897   6.617
 2841SOL     OW 8974   1.724   4.114   6.966
 2841SOL    HW1 8975   1.795   4.178   6.965
 2841SOL    HW2 8976   1.754   4.044   6.909
 2842SOL     OW 8977   0.675   3.923   7.085
 2842SOL    HW1 8978   0.759   3.900   7.044
 2842SOL    HW2 8979   0.698   3.953   7.173
 2843SOL     OW 8980   0.066   4.045   5.629
 2843SOL    HW1 8981   4.475   4.069   5.613
 2843SOL    HW2 8982   0.113   4.128   5.628
 2844SOL     OW 8983   0.087   3.900   5.888
 2844SOL    HW1 8984   0.075   3.966   5.820
 2844SOL    HW2 8985   0.162   3.849   5.858
 2845SOL     OW 8986   0.726   4.276   7.281
 2845SOL    HW1 8987   0.725   4.325   7.363
 2845SOL    HW2 8988   0.743   4.186   7.306
 2846SOL     OW 8989   1.217   4.042   6.039
 2846SOL    HW1 8990   1.279   3.968   6.033
 2846SOL    HW2 8991   1.246   4.090   6.117
 2847SOL     OW 8992   1.755   4.093   7.237
 2847SOL    HW1 8993   1.741   4.104   7.143
 2847SOL    HW2 8994   1.685   4.034   7.265
 2848SOL     OW 8995   1.113   0.223   5.687
 2848SOL    HW1 8996   1.107   0.267   5.602
 2848SOL    HW2 8997   1.202   0.187   5.688
 2849SOL     OW 8998   1.814   3.906   6.823
 2849SOL    HW1 8999   1.820   3.812   6.836
 2849SOL    HW2 9000   1.822   3.918   6.728
 2850SOL     OW 9001   0.448   4.158   6.118
 2850SOL    HW1 9002   0.467   4.082   6.063
 2850SOL    HW2 9003   0.391   4.124   6.187
 2851SOL     OW 9004   0.323   4.263   6.865
 2851SOL    HW1 9005   0.376   4.195   6.907
 2851SOL    HW2 9006   0.329   4.245   6.772
 2852SOL     OW 9007   1.431   3.950   6.703
 2852SOL    HW1 9008   1.451   3.867   6.747
 2852SOL    HW2 9009   1.380   4.000   6.767
 2853SOL     OW 9010   1.009   3.741   6.725
 2853SOL    HW1 9011   0.954   3.675   6.684
 2853SOL    HW2 9012   1.096   3.703   6.727
 2854SOL     OW 9013   1.354   3.777   5.753
 2854SOL    HW1 9014   1.383   3.710   5.691
 2854SOL    HW2 9015   1.266   3.749   5.778
 2855SOL     OW 9016   1.299   4.174   6.265
 2855SOL    HW1 9017   1.269   4.264   6.279
 2855SOL    HW2 9018   1.297   4.135   6.352
 2856SOL     OW 9019   1.585   3.923   6.466
 2856SOL    HW1 9020   1.528   3.947   6.539
 2856SOL    HW2 9021   1.586   4.000   6.409
 2857SOL     OW 9022   0.223   4.273   7.557
 2857SOL    HW1 9023   0.160   4.300   7.624
 2857SOL    HW2 9024   0.209   4.334   7.485
 2858SOL     OW 9025   0.209   3.992   8.438
 2858SOL    HW1 9026   0.243   3.965   8.523
 2858SOL    HW2 9027   0.133   3.935   8.424
 2859SOL     OW 9028   4.497   4.103   8.078
 2859SOL    HW1 9029   4.412   4.131   8.112
 2859SOL    HW2 9030   4.480   4.019   8.037
 2860SOL     OW 9031   1.723   4.335   7.688
 2860SOL    HW1 9032   1.726   4.326   7.593
 2860SOL    HW2 9033   1.728   4.245   7.721
 2861SOL     OW 9034   0.729   0.277   8.133
 2861SOL    HW1 9035   0.716   0.212   8.201
 2861SOL    HW2 9036   0.642   0.289   8.094
 2862SOL     OW 9037   0.449   4.117   8.936
 2862SOL    HW1 9038   0.530   4.066   8.935
 2862SOL    HW2 9039   0.379   4.052   8.945
 2863SOL     OW 9040   1.614   4.169   8.190
 2863SOL    HW1 9041   1.551   4.195   8.122
 2863SOL    HW2 9042   1.601   4.233   8.260
 2864SOL     OW 9043   1.596   3.849   8.914
 2864SOL    HW1 9044   1.611   3.930   8.866
 2864SOL    HW2 9045   1.578   3.878   9.004
 2865SOL     OW 9046   0.157   4.324   8.088
 2865SOL    HW1 9047   0.099   4.250   8.075
 2865SOL    HW2 9048   0.115   4.397   8.042
 2866SOL     OW 9049   0.131   0.004   9.034
 2866SOL    HW1 9050   0.225   4.485   9.028
 2866SOL    HW2 9051   0.122   0.092   8.998
 2867SOL     OW 9052   0.820   3.727   7.960
 2867SOL    HW1 9053   0.859   3.811   7.938
 2867SOL    HW2 9054   0.726   3.745   7.966
 2868SOL     OW 9055   0.329   3.980   9.251
 2868SOL    HW1 9056   0.370   4.060   9.284
 2868SOL    HW2 9057   0.238   3.984   9.281
 2869SOL     OW 9058   1.277   4.078   8.382
 2869SOL    HW1 9059   1.187   4.045   8.392
 2869SOL    HW2 9060   1.329   4.025   8.441
 2870SOL     OW 9061   0.833   4.295   8.891
 2870SOL    HW1 9062   0.794   4.300   8.978
 2870SOL    HW2 9063   0.763   4.263   8.835
 2871SOL     OW 9064   1.394   4.200   9.124
 2871SOL    HW1 9065   1.399   4.245   9.209
 2871SOL    HW2 9066   1.450   4.123   9.135
 2872SOL     OW 9067   1.000   4.155   8.680
 2872SOL    HW1 9068   0.933   4.179   8.744
 2872SOL    HW2 9069   0.956   4.096   8.619
 2873SOL     OW 9070   1.055   4.412   7.860
 2873SOL    HW1 9071   1.049   4.460   7.943
 2873SOL    HW2 9072   0.971   4.369   7.851
 2874SOL     OW 9073   0.061   0.084   8.302
 2874SOL    HW1 9074   0.142   0.035   8.314
 2874SOL    HW2 9075   0.045   0.081   8.208
 2875SOL     OW 9076   0.896   4.066   7.637
 2875SOL    HW1 9077   0.936   4.129   7.577
 2875SOL    HW2 9078   0.910   3.981   7.595
 2876SOL     OW 9079   1.712   4.301   9.279
 2876SOL    HW1 9080   1.730   4.387   9.242
 2876SOL    HW2 9081   1.732   4.239   9.209
 2877SOL     OW 9082   0.553   3.902   8.342
 2877SOL    HW1 9083   0.555   3.933   8.433
 2877SOL    HW2 9084   0.547   3.981   8.289
 2878SOL     OW 9085   1.493   4.469   8.187
 2878SOL    HW1 9086   1.479   4.412   8.263
 2878SOL    HW2 9087   1.533   0.048   8.224
 2879SOL     OW 9088   0.189   4.002   8.932
 2879SOL    HW1 9089   0.142   4.085   8.944
 2879SOL    HW2 9090   0.181   3.958   9.016
 2880SOL     OW 9091   1.400   3.829   7.884
 2880SOL    HW1 9092   1.392   3.804   7.792
 2880SOL    HW2 9093   1.495   3.838   7.898
 2881SOL     OW 9094   0.346   4.383   7.849
 2881SOL    HW1 9095   0.386   4.306   7.889
 2881SOL    HW2 9096   0.305   4.430   7.922
 2882SOL     OW 9097   1.531   3.949   9.173
 2882SOL    HW1 9098   1.541   3.970   9.266
 2882SOL    HW2 9099   1.463   3.882   9.170
 2883SOL     OW 9100   0.641   3.845   7.549
 2883SOL    HW1 9101   0.701   3.773   7.568
 2883SOL    HW2 9102   0.589   3.814   7.474
 2884SOL     OW 9103   0.764   4.002   9.203
 2884SOL    HW1 9104   0.843   3.949   9.200
 2884SOL    HW2 9105   0.718   3.971   9.281
 2885SOL     OW 9106   1.339   4.314   8.879
 2885SOL    HW1 9107   1.361   4.276   8.964
 2885SOL    HW2 9108   1.389   4.395   8.875
 2886SOL     OW 9109   0.926   4.232   8.343
 2886SOL    HW1 9110   0.903   4.216   8.252
 2886SOL    HW2 9111   0.965   4.150   8.373
 2887SOL     OW 9112   0.556   3.787   7.945
 2887SOL    HW1 9113   0.475   3.784   7.997
 2887SOL    HW2 9114   0.546   3.865   7.889
 2888SOL     OW 9115   0.294   3.769   7.625
 2888SOL    HW1 9116   0.357   3.835   7.595
 2888SOL    HW2 9117   0.348   3.704   7.670
 2889SOL     OW 9118   0.941   3.975   7.905
 2889SOL    HW1 9119   0.916   4.011   7.820
 2889SOL    HW2 9120   1.035   3.988   7.911
 2890SOL     OW 9121   1.073   4.394   8.981
 2890SOL    HW1 9122   0.992   4.363   8.940
 2890SOL    HW2 9123   1.143   4.362   8.924
 2891SOL     OW 9124   1.026   4.262   7.477
 2891SOL    HW1 9125   1.011   4.350   7.443
 2891SOL    HW2 9126   1.090   4.274   7.548
 2892SOL     OW 9127   0.078   4.254   8.849
 2892SOL    HW1 9128   0.159   4.267   8.800
 2892SOL    HW2 9129   0.051   4.343   8.873
 2893SOL     OW 9130   0.559   3.951   8.615
 2893SOL    HW1 9131   0.601   3.874   8.654
 2893SOL    HW2 9132   0.467   3.945   8.643
 2894SOL     OW 9133   0.868   4.189   8.083
 2894SOL    HW1 9134   0.839   4.250   8.015
 2894SOL    HW2 9135   0.888   4.109   8.035
 2895SOL     OW 9136   1.015   3.778   8.196
 2895SOL    HW1 9137   0.957   3.770   8.121
 2895SOL    HW2 9138   0.993   3.702   8.251
 2896SOL     OW 9139   1.479   4.307   8.406
 2896SOL    HW1 9140   1.412   4.241   8.426
 2896SOL    HW2 9141   1.527   4.318   8.488
 2897SOL     OW 9142   1.405   4.296   7.521
 2897SOL    HW1 9143   1.342   4.267   7.587
 2897SOL    HW2 9144   1.487   4.255   7.547
 2898SOL     OW 9145   0.526   3.986   7.759
 2898SOL    HW1 9146   0.573   3.939   7.690
 2898SOL    HW2 9147   0.510   4.073   7.723
 2899SOL     OW 9148   0.917   3.821   8.840
 2899SOL    HW1 9149   0.941   3.799   8.750
 2899SOL    HW2 9150   0.997   3.859   8.878
 2900SOL     OW 9151   0.449   0.004   8.719
 2900SOL    HW1 9152   0.506   4.495   8.795
 2900SOL    HW2 9153   0.413   4.417   8.705
 2901SOL     OW 9154   1.265   4.099   8.726
 2901SOL    HW1 9155   1.298   4.177   8.771
 2901SOL    HW2 9156   1.176   4.122   8.700
 2902SOL     OW 9157   0.553   4.248   8.312
 2902SOL    HW1 9158   0.572   4.281   8.224
 2902SOL    HW2 9159   0.620   4.288   8.367
 2903SOL     OW 9160   1.565   4.334   7.932
 2903SOL    HW1 9161   1.544   4.400   7.997
 2903SOL    HW2 9162   1.625   4.378   7.872
 2904SOL     OW 9163   0.996   3.853   9.202
 2904SOL    HW1 9164   1.055   3.925   9.180
 2904SOL    HW2 9165   1.043   3.774   9.177
 2905SOL     OW 9166   0.496   3.766   9.197
 2905SOL    HW1 9167   0.453   3.710   9.132
 2905SOL    HW2 9168   0.437   3.841   9.206
 2906SOL     OW 9169   1.207   4.252   7.708
 2906SOL    HW1 9170   1.218   4.172   7.761
 2906SOL    HW2 9171   1.160   4.312   7.765
 2907SOL     OW 9172   0.297   3.921   8.692
 2907SOL    HW1 9173   0.256   3.948   8.774
 2907SOL    HW2 9174   0.285   3.826   8.690
 2908SOL     OW 9175   0.736   4.360   8.486
 2908SOL    HW1 9176   0.809   4.321   8.438
 2908SOL    HW2 9177   0.750   4.454   8.479
 2909SOL     OW 9178   1.754   0.129   9.298
 2909SOL    HW1 9179   1.683   0.147   9.237
 2909SOL    HW2 9180   1.715   0.146   9.385
 2910SOL     OW 9181   0.315   3.792   8.065
 2910SOL    HW1 9182   0.288   3.880   8.091
 2910SOL    HW2 9183   0.314   3.742   8.147
 2911SOL     OW 9184   1.616   4.090   7.814
 2911SOL    HW1 9185   1.647   4.029   7.881
 2911SOL    HW2 9186   1.589   4.168   7.863
 2912SOL     OW 9187   1.523   3.999   7.574
 2912SOL    HW1 9188   1.461   3.931   7.600
 2912SOL    HW2 9189   1.560   4.031   7.657
 2913SOL     OW 9190   0.321   0.012   8.354
 2913SOL    HW1 9191   0.400   0.066   8.363
 2913SOL    HW2 9192   0.340   4.435   8.408
 2914SOL     OW 9193   0.330   4.236   8.461
 2914SOL    HW1 9194   0.286   4.154   8.438
 2914SOL    HW2 9195   0.406   4.240   8.402
 2915SOL     OW 9196   1.137   4.090   9.136
 2915SOL    HW1 9197   1.084   4.149   9.189
 2915SOL    HW2 9198   1.221   4.136   9.128
 2916SOL     OW 9199   1.160   3.924   8.917
 2916SOL    HW1 9200   1.150   3.984   8.991
 2916SOL    HW2 9201   1.202   3.975   8.849
 2917SOL     OW 9202   0.017   4.272   8.544
 2917SOL    HW1 9203   0.108   4.266   8.515
 2917SOL    HW2 9204   0.018   4.236   8.632
 2918SOL     OW 9205   0.171   4.235   9.132
 2918SOL    HW1 9206   0.264   4.221   9.111
 2918SOL    HW2 9207   0.150   4.319   9.092
 2919SOL     OW 9208   0.820   4.278   7.805
 2919SOL    HW1 9209   0.826   4.206   7.742
 2919SOL    HW2 9210   0.732   4.313   7.794
 2920SOL     OW 9211   1.634   4.315   8.631
 2920SOL    HW1 9212   1.631   4.258   8.707
 2920SOL    HW2 9213   1.723   4.304   8.596
 2921SOL     OW 9214   0.671   4.191   8.700
 2921SOL    HW1 9215   0.635   4.109   8.667
 2921SOL    HW2 9216   0.683   4.245   8.622
 2922SOL     OW 9217   0.483   4.225   7.634
 2922SOL    HW1 9218   0.506   4.309   7.675
 2922SOL    HW2 9219   0.390   4.235   7.612
 2923SOL     OW 9220   1.724   3.874   7.958
 2923SOL    HW1 9221   1.794   3.858   7.895
 2923SOL    HW2 9222   1.706   3.788   7.996
 2924SOL     OW 9223   1.279   0.135   8.127
 2924SOL    HW1 9224   1.337   0.061   8.146
 2924SOL    HW2 9225   1.329   0.189   8.065
 2925SOL     OW 9226   1.840   3.895   8.414
 2925SOL    HW1 9227   1.869   3.807   8.388
 2925SOL    HW2 9228   1.754   3.905   8.374
 2926SOL     OW 9229   0.267   4.040   8.168
 2926SOL    HW1 9230   0.189   4.088   8.140
 2926SOL    HW2 9231   0.255   4.026   8.262
 2927SOL     OW 9232   0.901   0.090   7.655
 2927SOL    HW1 9233   0.983   0.126   7.620
 2927SOL    HW2 9234   0.923   0.058   7.742
 2928SOL     OW 9235   1.065   0.292   8.197
 2928SOL    HW1 9236   0.997   0.289   8.130
 2928SOL    HW2 9237   1.131   0.229   8.167
 2929SOL     OW 9238   1.022   3.964   8.411
 2929SOL    HW1 9239   1.018   3.915   8.329
 2929SOL    HW2 9240   1.017   3.897   8.479
 2930SOL     OW 9241   1.724   4.114   8.828
 2930SOL    HW1 9242   1.795   4.178   8.827
 2930SOL    HW2 9243   1.754   4.044   8.771
 2931SOL     OW 9244   0.675   3.923   8.947
 2931SOL    HW1 9245   0.759   3.900   8.906
 2931SOL    HW2 9246   0.698   3.953   9.035
 2932SOL     OW 9247   0.066   4.045   7.491
 2932SOL    HW1 9248   4.475   4.069   7.475
 2932SOL    HW2 9249   0.113   4.128   7.490
 2933SOL     OW 9250   0.087   3.900   7.750
 2933SOL    HW1 9251   0.075   3.966   7.682
 2933SOL    HW2 9252   0.162   3.848   7.720
 2934SOL     OW 9253   0.726   4.276   9.143
 2934SOL    HW1 9254   0.725   4.325   9.225
 2934SOL    HW2 9255   0.743   4.186   9.168
 2935SOL     OW 9256   1.217   4.042   7.901
 2935SOL    HW1 9257   1.279   3.968   7.895
 2935SOL    HW2 9258   1.246   4.090   7.979
 2936SOL     OW 9259   1.755   4.093   9.099
 2936SOL    HW1 9260   1.741   4.104   9.005
 2936SOL    HW2 9261   1.685   4.034   9.127
 2937SOL     OW 9262   1.113   0.223   7.549
 2937SOL    HW1 9263   1.107   0.267   7.464
 2937SOL    HW2 9264   1.202   0.187   7.550
 2938SOL     OW 9265   1.814   3.906   8.685
 2938SOL    HW1 9266   1.820   3.812   8.698
 2938SOL    HW2 9267   1.822   3.918   8.590
 2939SOL     OW 9268   0.448   4.158   7.980
 2939SOL    HW1 9269   0.467   4.082   7.925
 2939SOL    HW2 9270   0.391   4.124   8.049
 2940SOL     OW 9271   0.323   4.263   8.728
 2940SOL    HW1 9272   0.376   4.195   8.769
 2940SOL    HW2 9273   0.329   4.245   8.634
 2941SOL     OW 9274   1.431   3.950   8.565
 2941SOL    HW1 9275   1.451   3.867   8.609
 2941SOL    HW2 9276   1.380   4.000   8.629
 2942SOL     OW 9277   1.009   3.741   8.587
 2942SOL    HW1 9278   0.954   3.675   8.546
 2942SOL    HW2 9279   1.096   3.703   8.589
 2943SOL     OW 9280   1.354   3.776   7.615
 2943SOL    HW1 9281   1.385   3.708   7.556
 2943SOL    HW2 9282   1.266   3.749   7.639
 2944SOL     OW 9283   1.299   4.174   8.127
 2944SOL    HW1 9284   1.269   4.264   8.141
 2944SOL    HW2 9285   1.297   4.135   8.214
 2945SOL     OW 9286   1.585   3.923   8.328
 2945SOL    HW1 9287   1.528   3.947   8.401
 2945SOL    HW2 9288   1.586   4.000   8.271
 2946SOL     OW 9289   0.223   4.273   9.419
 2946SOL    HW1 9290   0.160   4.300   9.486
 2946SOL    HW2 9291   0.209   4.335   9.347
 2947SOL     OW 9292   0.211   3.992  10.299
 2947SOL    HW1 9293   0.245   3.967  10.385
 2947SOL    HW2 9294   0.133   3.937  10.288
 2948SOL     OW 9295   4.496   4.103   9.940
 2948SOL    HW1 9296   4.412   4.131   9.974
 2948SOL    HW2 9297   4.479   4.019   9.899
 2949SOL     OW 9298   1.722   4.335   9.550
 2949SOL    HW1 9299   1.726   4.326   9.455
 2949SOL    HW2 9300   1.728   4.245   9.583
 2950SOL     OW 9301   0.729   0.277   9.995
 2950SOL    HW1 9302   0.716   0.213  10.064
 2950SOL    HW2 9303   0.642   0.290   9.957
 2951SOL     OW 9304   0.449   4.122  10.783
 2951SOL    HW1 9305   0.529   4.069  10.790
 2951SOL    HW2 9306   0.380   4.063  10.812
 2952SOL     OW 9307   1.614   4.169  10.052
 2952SOL    HW1 9308   1.551   4.195   9.984
 2952SOL    HW2 9309   1.601   4.234  10.122
 2953SOL     OW 9310   1.590   3.842  10.776
 2953SOL    HW1 9311   1.612   3.922  10.729
 2953SOL    HW2 9312   1.593   3.867  10.868
 2954SOL     OW 9313   0.158   4.323   9.949
 2954SOL    HW1 9314   0.098   4.249   9.936
 2954SOL    HW2 9315   0.115   4.396   9.904
 2955SOL     OW 9316   0.103   4.500  10.929
 2955SOL    HW1 9317   0.196   4.480  10.941
 2955SOL    HW2 9318   0.102   0.087  10.889
 2956SOL     OW 9319   0.820   3.727   9.822
 2956SOL    HW1 9320   0.860   3.811   9.800
 2956SOL    HW2 9321   0.726   3.745   9.828
 2957SOL     OW 9322   0.342   3.986   0.009
 2957SOL    HW1 9323   0.384   4.066   0.040
 2957SOL    HW2 9324   0.248   4.005   0.012
 2958SOL     OW 9325   1.277   4.078  10.244
 2958SOL    HW1 9326   1.188   4.045  10.254
 2958SOL    HW2 9327   1.329   4.024  10.303
 2959SOL     OW 9328   0.827   4.296  10.759
 2959SOL    HW1 9329   0.781   4.307  10.842
 2959SOL    HW2 9330   0.760   4.261  10.699
 2960SOL     OW 9331   1.000   4.155  10.544
 2960SOL    HW1 9332   0.929   4.178  10.603
 2960SOL    HW2 9333   0.959   4.098  10.478
 2961SOL     OW 9334   1.056   4.412   9.722
 2961SOL    HW1 9335   1.049   4.460   9.805
 2961SOL    HW2 9336   0.971   4.369   9.713
 2962SOL     OW 9337   0.060   0.082  10.164
 2962SOL    HW1 9338   0.142   0.035  10.178
 2962SOL    HW2 9339   0.047   0.082  10.069
 2963SOL     OW 9340   0.896   4.066   9.499
 2963SOL    HW1 9341   0.936   4.129   9.439
 2963SOL    HW2 9342   0.911   3.981   9.457
 2964SOL     OW 9343   0.553   3.902  10.204
 2964SOL    HW1 9344   0.554   3.933  10.295
 2964SOL    HW2 9345   0.549   3.981  10.152
 2965SOL     OW 9346   1.493   4.469  10.049
 2965SOL    HW1 9347   1.479   4.412  10.125
 2965SOL    HW2 9348   1.533   0.048  10.085
 2966SOL     OW 9349   0.191   4.000  10.796
 2966SOL    HW1 9350   0.146   4.084  10.803
 2966SOL    HW2 9351   0.181   3.960  10.883
 2967SOL     OW 9352   1.400   3.829   9.746
 2967SOL    HW1 9353   1.392   3.805   9.654
 2967SOL    HW2 9354   1.495   3.838   9.760
 2968SOL     OW 9355   0.345   4.383   9.710
 2968SOL    HW1 9356   0.385   4.306   9.750
 2968SOL    HW2 9357   0.305   4.430   9.783
 2969SOL     OW 9358   0.640   3.845   9.411
 2969SOL    HW1 9359   0.701   3.774   9.430
 2969SOL    HW2 9360   0.589   3.814   9.336
 2970SOL     OW 9361   0.767   4.007  11.046
 2970SOL    HW1 9362   0.834   3.947  11.080
 2970SOL    HW2 9363   0.701   4.011   0.015
 2971SOL     OW 9364   1.350   4.311  10.742
 2971SOL    HW1 9365   1.364   4.295  10.836
 2971SOL    HW2 9366   1.384   4.399  10.728
 2972SOL     OW 9367   0.928   4.233  10.205
 2972SOL    HW1 9368   0.903   4.217  10.113
 2972SOL    HW2 9369   0.965   4.150  10.234
 2973SOL     OW 9370   0.556   3.787   9.807
 2973SOL    HW1 9371   0.475   3.784   9.859
 2973SOL    HW2 9372   0.546   3.864   9.751
 2974SOL     OW 9373   0.294   3.769   9.487
 2974SOL    HW1 9374   0.357   3.835   9.457
 2974SOL    HW2 9375   0.348   3.704   9.532
 2975SOL     OW 9376   0.941   3.974   9.767
 2975SOL    HW1 9377   0.916   4.010   9.682
 2975SOL    HW2 9378   1.035   3.988   9.773
 2976SOL     OW 9379   1.078   4.362  10.844
 2976SOL    HW1 9380   0.991   4.357  10.805
 2976SOL    HW2 9381   1.138   4.352  10.771
 2977SOL     OW 9382   1.026   4.262   9.339
 2977SOL    HW1 9383   1.011   4.350   9.305
 2977SOL    HW2 9384   1.090   4.274   9.410
 2978SOL     OW 9385   0.088   4.252  10.726
 2978SOL    HW1 9386   0.158   4.260  10.661
 2978SOL    HW2 9387   0.051   4.340  10.732
 2979SOL     OW 9388   0.557   3.951  10.476
 2979SOL    HW1 9389   0.600   3.876  10.518
 2979SOL    HW2 9390   0.466   3.945  10.505
 2980SOL     OW 9391   0.869   4.190   9.945
 2980SOL    HW1 9392   0.839   4.251   9.878
 2980SOL    HW2 9393   0.888   4.109   9.897
 2981SOL     OW 9394   1.015   3.778  10.059
 2981SOL    HW1 9395   0.957   3.771   9.983
 2981SOL    HW2 9396   0.993   3.702  10.113
 2982SOL     OW 9397   1.479   4.307  10.268
 2982SOL    HW1 9398   1.413   4.240  10.288
 2982SOL    HW2 9399   1.527   4.318  10.350
 2983SOL     OW 9400   1.405   4.296   9.383
 2983SOL    HW1 9401   1.342   4.267   9.449
 2983SOL    HW2 9402   1.487   4.255   9.409
 2984SOL     OW 9403   0.526   3.985   9.621
 2984SOL    HW1 9404   0.573   3.939   9.552
 2984SOL    HW2 9405   0.510   4.073   9.585
 2985SOL     OW 9406   0.918   3.823  10.700
 2985SOL    HW1 9407   0.943   3.802  10.610
 2985SOL    HW2 9408   0.997   3.863  10.738
 2986SOL     OW 9409   0.448   4.495  10.566
 2986SOL    HW1 9410   0.498   4.495  10.648
 2986SOL    HW2 9411   0.398   4.412  10.568
 2987SOL     OW 9412   1.266   4.098  10.590
 2987SOL    HW1 9413   1.302   4.175  10.634
 2987SOL    HW2 9414   1.177   4.124  10.564
 2988SOL     OW 9415   0.559   4.243  10.169
 2988SOL    HW1 9416   0.577   4.282  10.084
 2988SOL    HW2 9417   0.622   4.285  10.228
 2989SOL     OW 9418   1.565   4.334   9.794
 2989SOL    HW1 9419   1.544   4.400   9.860
 2989SOL    HW2 9420   1.625   4.378   9.734
 2990SOL     OW 9421   0.498   0.004  11.009
 2990SOL    HW1 9422   0.484   0.054  10.929
 2990SOL    HW2 9423   0.502   4.413  10.979
 2991SOL     OW 9424   1.207   4.252   9.570
 2991SOL    HW1 9425   1.218   4.172   9.623
 2991SOL    HW2 9426   1.160   4.312   9.627
 2992SOL     OW 9427   0.297   3.919  10.554
 2992SOL    HW1 9428   0.260   3.949  10.637
 2992SOL    HW2 9429   0.283   3.825  10.553
 2993SOL     OW 9430   0.735   4.359  10.347
 2993SOL    HW1 9431   0.809   4.322  10.299
 2993SOL    HW2 9432   0.748   4.454  10.341
 2994SOL     OW 9433   0.315   3.792   9.927
 2994SOL    HW1 9434   0.289   3.880   9.952
 2994SOL    HW2 9435   0.314   3.742  10.009
 2995SOL     OW 9436   1.615   4.090   9.676
 2995SOL    HW1 9437   1.647   4.029   9.743
 2995SOL    HW2 9438   1.589   4.168   9.725
 2996SOL     OW 9439   1.523   3.999   9.436
 2996SOL    HW1 9440   1.461   3.931   9.462
 2996SOL    HW2 9441   1.560   4.031   9.519
 2997SOL     OW 9442   0.321   0.012  10.216
 2997SOL    HW1 9443   0.399   0.066  10.228
 2997SOL    HW2 9444   0.338   4.434  10.269
 2998SOL     OW 9445   0.331   4.237  10.308
 2998SOL    HW1 9446   0.287   4.154  10.287
 2998SOL    HW2 9447   0.408   4.238  10.251
 2999SOL     OW 9448   1.157   3.928  10.783
 2999SOL    HW1 9449   1.165   3.988  10.858
 2999SOL    HW2 9450   1.200   3.975  10.711
 3000SOL     OW 9451   0.018   4.271  10.403
 3000SOL    HW1 9452   0.109   4.271  10.374
 3000SOL    HW2 9453   0.021   4.233  10.491
 3001SOL     OW 9454   1.341   0.207  10.978
 3001SOL    HW1 9455   1.411   0.253  11.024
 3001SOL    HW2 9456   1.384   0.161  10.906
 3002SOL     OW 9457   0.821   4.278   9.667
 3002SOL    HW1 9458   0.825   4.206   9.604
 3002SOL    HW2 9459   0.732   4.313   9.656
 3003SOL     OW 9460   1.634   4.314  10.493
 3003SOL    HW1 9461   1.632   4.256  10.569
 3003SOL    HW2 9462   1.723   4.306  10.459
 3004SOL     OW 9463   0.682   4.185  10.560
 3004SOL    HW1 9464   0.638   4.107  10.528
 3004SOL    HW2 9465   0.685   4.244  10.484
 3005SOL     OW 9466   0.483   4.225   9.496
 3005SOL    HW1 9467   0.506   4.308   9.537
 3005SOL    HW2 9468   0.390   4.235   9.474
 3006SOL     OW 9469   1.723   3.874   9.820
 3006SOL    HW1 9470   1.793   3.858   9.757
 3006SOL    HW2 9471   1.706   3.788   9.858
 3007SOL     OW 9472   1.279   0.135   9.988
 3007SOL    HW1 9473   1.337   0.061  10.008
 3007SOL    HW2 9474   1.329   0.189   9.927
 3008SOL     OW 9475   1.840   3.895  10.277
 3008SOL    HW1 9476   1.869   3.807  10.251
 3008SOL    HW2 9477   1.754   3.905  10.236
 3009SOL     OW 9478   0.268   4.040  10.029
 3009SOL    HW1 9479   0.190   4.089  10.002
 3009SOL    HW2 9480   0.255   4.025  10.123
 3010SOL     OW 9481   0.901   0.090   9.516
 3010SOL    HW1 9482   0.983   0.126   9.482
 3010SOL    HW2 9483   0.923   0.058   9.604
 3011SOL     OW 9484   1.065   0.292  10.059
 3011SOL    HW1 9485   0.997   0.288   9.992
 3011SOL    HW2 9486   1.131   0.229  10.029
 3012SOL     OW 9487   1.022   3.964  10.274
 3012SOL    HW1 9488   1.018   3.916  10.191
 3012SOL    HW2 9489   1.017   3.897  10.342
 3013SOL     OW 9490   1.719   4.115  10.694
 3013SOL    HW1 9491   1.791   4.178  10.696
 3013SOL    HW2 9492   1.750   4.045  10.635
 3014SOL     OW 9493   0.676   3.919  10.801
 3014SOL    HW1 9494   0.758   3.896  10.758
 3014SOL    HW2 9495   0.703   3.958  10.885
 3015SOL     OW 9496   0.066   4.045   9.353
 3015SOL    HW1 9497   4.475   4.070   9.337
 3015SOL    HW2 9498   0.114   4.128   9.353
 3016SOL     OW 9499   0.087   3.900   9.612
 3016SOL    HW1 9500   0.075   3.966   9.544
 3016SOL    HW2 9501   0.162   3.848   9.582
 3017SOL     OW 9502   0.724   4.290  11.018
 3017SOL    HW1 9503   0.769   4.340  11.086
 3017SOL    HW2 9504   0.759   4.201  11.027
 3018SOL     OW 9505   1.217   4.041   9.763
 3018SOL    HW1 9506   1.279   3.968   9.757
 3018SOL    HW2 9507   1.246   4.090   9.841
 3019SOL     OW 9508   1.751   4.053  10.963
 3019SOL    HW1 9509   1.728   4.083  10.875
 3019SOL    HW2 9510   1.669   4.061  11.013
 3020SOL     OW 9511   1.113   0.224   9.411
 3020SOL    HW1 9512   1.107   0.267   9.326
 3020SOL    HW2 9513   1.202   0.187   9.413
 3021SOL     OW 9514   1.807   3.906  10.547
 3021SOL    HW1 9515   1.818   3.812  10.560
 3021SOL    HW2 9516   1.818   3.920  10.453
 3022SOL     OW 9517   0.447   4.158   9.841
 3022SOL    HW1 9518   0.467   4.082   9.787
 3022SOL    HW2 9519   0.392   4.124   9.911
 3023SOL     OW 9520   0.311   4.245  10.571
 3023SOL    HW1 9521   0.370   4.183  10.614
 3023SOL    HW2 9522   0.329   4.235  10.478
 3024SOL     OW 9523   1.431   3.949  10.427
 3024SOL    HW1 9524   1.456   3.868  10.472
 3024SOL    HW2 9525   1.381   3.998  10.492
 3025SOL     OW 9526   1.009   3.741  10.449
 3025SOL    HW1 9527   0.955   3.676  10.405
 3025SOL    HW2 9528   1.096   3.703  10.451
 3026SOL     OW 9529   1.354   3.777   9.477
 3026SOL    HW1 9530   1.385   3.708   9.417
 3026SOL    HW2 9531   1.266   3.749   9.501
 3027SOL     OW 9532   1.298   4.174   9.989
 3027SOL    HW1 9533   1.269   4.264  10.002
 3027SOL    HW2 9534   1.297   4.135  10.076
 3028SOL     OW 9535   1.585   3.922  10.189
 3028SOL    HW1 9536   1.528   3.946  10.262
 3028SOL    HW2 9537   1.586   4.000  10.133
 3029SOL     OW 9538   2.076   0.609   0.110
 3029SOL    HW1 9539   1.995   0.618   0.159
 3029SOL    HW2 9540   2.060   0.655   0.027
 3030SOL     OW 9541   2.068   0.302   0.990
 3030SOL    HW1 9542   2.099   0.270   1.075
 3030SOL    HW2 9543   1.986   0.254   0.975
 3031SOL     OW 9544   1.867   0.389   0.635
 3031SOL    HW1 9545   1.781   0.408   0.673
 3031SOL    HW2 9546   1.852   0.316   0.576
 3032SOL     OW 9547   2.430   1.293   1.179
 3032SOL    HW1 9548   2.342   1.295   1.141
 3032SOL    HW2 9549   2.445   1.381   1.212
 3033SOL     OW 9550   3.428   1.513   0.708
 3033SOL    HW1 9551   3.385   1.490   0.791
 3033SOL    HW2 9552   3.357   1.515   0.644
 3034SOL     OW 9553   3.000   0.698   0.694
 3034SOL    HW1 9554   3.045   0.782   0.687
 3034SOL    HW2 9555   2.948   0.704   0.774
 3035SOL     OW 9556   3.643   0.600   0.211
 3035SOL    HW1 9557   3.579   0.615   0.141
 3035SOL    HW2 9558   3.604   0.530   0.264
 3036SOL     OW 9559   2.613   1.140   1.044
 3036SOL    HW1 9560   2.546   1.176   1.102
 3036SOL    HW2 9561   2.651   1.216   1.000
 3037SOL     OW 9562   2.732   0.768   1.823
 3037SOL    HW1 9563   2.718   0.838   1.887
 3037SOL    HW2 9564   2.755   0.813   1.742
 3038SOL     OW 9565   2.548   0.999   0.645
 3038SOL    HW1 9566   2.614   0.989   0.714
 3038SOL    HW2 9567   2.479   1.052   0.685
 3039SOL     OW 9568   2.574   1.150   1.815
 3039SOL    HW1 9569   2.622   1.228   1.844
 3039SOL    HW2 9570   2.493   1.184   1.778
 3040SOL     OW 9571   2.192   1.420   1.069
 3040SOL    HW1 9572   2.118   1.381   1.023
 3040SOL    HW2 9573   2.240   1.468   1.001
 3041SOL     OW 9574   3.322   1.501   1.358
 3041SOL    HW1 9575   3.375   1.580   1.368
 3041SOL    HW2 9576   3.255   1.509   1.427
 3042SOL     OW 9577   2.306   0.393   1.484
 3042SOL    HW1 9578   2.388   0.344   1.488
 3042SOL    HW2 9579   2.238   0.328   1.499
 3043SOL     OW 9580   3.469   0.443   0.739
 3043SOL    HW1 9581   3.386   0.459   0.693
 3043SOL    HW2 9582   3.482   0.521   0.793
 3044SOL     OW 9583   2.078   1.713   0.470
 3044SOL    HW1 9584   2.101   1.786   0.527
 3044SOL    HW2 9585   2.154   1.704   0.412
 3045SOL     OW 9586   2.999   1.342   1.694
 3045SOL    HW1 9587   3.039   1.336   1.781
 3045SOL    HW2 9588   2.947   1.262   1.687
 3046SOL     OW 9589   2.091   1.442   0.535
 3046SOL    HW1 9590   2.070   1.535   0.535
 3046SOL    HW2 9591   2.031   1.404   0.600
 3047SOL     OW 9592   2.126   1.091   0.893
 3047SOL    HW1 9593   2.120   1.003   0.931
 3047SOL    HW2 9594   2.067   1.144   0.946
 3048SOL     OW 9595   2.466   1.790   1.419
 3048SOL    HW1 9596   2.387   1.771   1.469
 3048SOL    HW2 9597   2.495   1.876   1.452
 3049SOL     OW 9598   2.442   0.990   0.147
 3049SOL    HW1 9599   2.489   1.038   0.079
 3049SOL    HW2 9600   2.482   1.018   0.229
 3050SOL     OW 9601   3.440   0.118   1.467
 3050SOL    HW1 9602   3.473   0.185   1.408
 3050SOL    HW2 9603   3.429   0.162   1.551
 3051SOL     OW 9604   1.980   0.654   0.560
 3051SOL    HW1 9605   1.948   0.567   0.582
 3051SOL    HW2 9606   1.971   0.704   0.641
 3052SOL     OW 9607   3.705   1.757   0.330
 3052SOL    HW1 9608   3.772   1.728   0.393
 3052SOL    HW2 9609   3.727   1.849   0.312
 3053SOL     OW 9610   1.914   1.599   0.118
 3053SOL    HW1 9611   1.885   1.511   0.143
 3053SOL    HW2 9612   1.884   1.656   0.189
 3054SOL     OW 9613   3.551   0.919   0.645
 3054SOL    HW1 9614   3.635   0.878   0.624
 3054SOL    HW2 9615   3.530   0.971   0.567
 3055SOL     OW 9616   3.510   1.103   0.431
 3055SOL    HW1 9617   3.593   1.112   0.384
 3055SOL    HW2 9618   3.516   1.166   0.503
 3056SOL     OW 9619   1.984   0.747   1.582
 3056SOL    HW1 9620   2.075   0.776   1.588
 3056SOL    HW2 9621   1.932   0.827   1.588
 3057SOL     OW 9622   2.479   1.387   0.734
 3057SOL    HW1 9623   2.434   1.304   0.744
 3057SOL    HW2 9624   2.461   1.414   0.644
 3058SOL     OW 9625   3.149   1.237   1.421
 3058SOL    HW1 9626   3.180   1.169   1.362
 3058SOL    HW2 9627   3.207   1.232   1.497
 3059SOL     OW 9628   2.682   0.013   0.556
 3059SOL    HW1 9629   2.721   0.089   0.514
 3059SOL    HW2 9630   2.588   0.027   0.549
 3060SOL     OW 9631   2.051   0.963   1.277
 3060SOL    HW1 9632   2.136   0.923   1.260
 3060SOL    HW2 9633   1.990   0.914   1.221
 3061SOL     OW 9634   3.374   1.006   0.206
 3061SOL    HW1 9635   3.309   0.946   0.244
 3061SOL    HW2 9636   3.426   1.035   0.281
 3062SOL     OW 9637   3.047   1.810   1.624
 3062SOL    HW1 9638   3.056   1.869   1.550
 3062SOL    HW2 9639   3.065   1.723   1.587
 3063SOL     OW 9640   2.178   0.252   1.779
 3063SOL    HW1 9641   2.241   0.315   1.812
 3063SOL    HW2 9642   2.104   0.258   1.839
 3064SOL     OW 9643   3.329   1.419   0.949
 3064SOL    HW1 9644   3.262   1.435   1.015
 3064SOL    HW2 9645   3.316   1.328   0.922
 3065SOL     OW 9646   3.516   1.748   0.579
 3065SOL    HW1 9647   3.499   1.716   0.490
 3065SOL    HW2 9648   3.495   1.673   0.635
 3066SOL     OW 9649   2.451   0.715   0.264
 3066SOL    HW1 9650   2.459   0.801   0.222
 3066SOL    HW2 9651   2.388   0.729   0.335
 3067SOL     OW 9652   3.152   0.369   0.933
 3067SOL    HW1 9653   3.062   0.339   0.923
 3067SOL    HW2 9654   3.192   0.306   0.994
 3068SOL     OW 9655   3.443   1.672   0.313
 3068SOL    HW1 9656   3.535   1.699   0.306
 3068SOL    HW2 9657   3.416   1.654   0.223
 3069SOL     OW 9658   2.657   0.621   1.453
 3069SOL    HW1 9659   2.629   0.594   1.540
 3069SOL    HW2 9660   2.622   0.554   1.395
 3070SOL     OW 9661   3.250   0.481   1.676
 3070SOL    HW1 9662   3.254   0.526   1.761
 3070SOL    HW2 9663   3.316   0.413   1.682
 3071SOL     OW 9664   2.814   0.887   1.585
 3071SOL    HW1 9665   2.868   0.817   1.548
 3071SOL    HW2 9666   2.765   0.921   1.510
 3072SOL     OW 9667   2.860   0.417   1.232
 3072SOL    HW1 9668   2.770   0.424   1.265
 3072SOL    HW2 9669   2.852   0.366   1.152
 3073SOL     OW 9670   2.912   0.702   0.426
 3073SOL    HW1 9671   2.932   0.693   0.520
 3073SOL    HW2 9672   2.829   0.656   0.415
 3074SOL     OW 9673   1.951   0.822   0.775
 3074SOL    HW1 9674   2.031   0.815   0.828
 3074SOL    HW2 9675   1.905   0.898   0.811
 3075SOL     OW 9676   1.983   1.817   1.570
 3075SOL    HW1 9677   1.976   1.813   1.665
 3075SOL    HW2 9678   1.941   1.900   1.546
 3076SOL     OW 9679   2.735   0.362   0.198
 3076SOL    HW1 9680   2.790   0.417   0.142
 3076SOL    HW2 9681   2.772   0.275   0.190
 3077SOL     OW 9682   3.565   0.571   1.829
 3077SOL    HW1 9683   3.529   0.645   1.779
 3077SOL    HW2 9684   3.600   0.513   1.762
 3078SOL     OW 9685   3.242   1.142   0.540
 3078SOL    HW1 9686   3.320   1.130   0.486
 3078SOL    HW2 9687   3.188   1.204   0.491
 3079SOL     OW 9688   2.399   0.207   0.901
 3079SOL    HW1 9689   2.420   0.225   0.993
 3079SOL    HW2 9690   2.394   0.294   0.860
 3080SOL     OW 9691   2.863   1.442   0.472
 3080SOL    HW1 9692   2.829   1.517   0.423
 3080SOL    HW2 9693   2.843   1.463   0.564
 3081SOL     OW 9694   2.219   1.797   0.872
 3081SOL    HW1 9695   2.247   1.706   0.874
 3081SOL    HW2 9696   2.297   1.847   0.898
 3082SOL     OW 9697   3.661   1.056   0.871
 3082SOL    HW1 9698   3.608   1.036   0.794
 3082SOL    HW2 9699   3.598   1.061   0.943
 3083SOL     OW 9700   3.089   1.539   1.513
 3083SOL    HW1 9701   3.077   1.467   1.575
 3083SOL    HW2 9702   3.024   1.524   1.445
 3084SOL     OW 9703   2.175   0.961   0.278
 3084SOL    HW1 9704   2.253   0.983   0.228
 3084SOL    HW2 9705   2.150   0.874   0.245
 3085SOL     OW 9706   3.344   0.744   0.721
 3085SOL    HW1 9707   3.335   0.704   0.808
 3085SOL    HW2 9708   3.420   0.801   0.728
 3086SOL     OW 9709   2.330   1.266   1.737
 3086SOL    HW1 9710   2.304   1.270   1.646
 3086SOL    HW2 9711   2.248   1.262   1.786
 3087SOL     OW 9712   2.970   1.780   0.227
 3087SOL    HW1 9713   2.909   1.729   0.280
 3087SOL    HW2 9714   3.013   1.715   0.171
 3088SOL     OW 9715   2.049   0.268   1.516
 3088SOL    HW1 9716   1.983   0.337   1.505
 3088SOL    HW2 9717   2.070   0.270   1.609
 3089SOL     OW 9718   3.489   1.373   0.090
 3089SOL    HW1 9719   3.447   1.458   0.078
 3089SOL    HW2 9720   3.424   1.310   0.060
 3090SOL     OW 9721   2.324   1.731   0.328
 3090SOL    HW1 9722   2.367   1.795   0.385
 3090SOL    HW2 9723   2.394   1.701   0.269
 3091SOL     OW 9724   3.287   0.146   0.425
 3091SOL    HW1 9725   3.268   0.107   0.339
 3091SOL    HW2 9726   3.381   0.136   0.436
 3092SOL     OW 9727   2.119   1.788   1.232
 3092SOL    HW1 9728   2.167   1.717   1.274
 3092SOL    HW2 9729   2.106   1.758   1.142
 3093SOL     OW 9730   2.795   1.699   0.899
 3093SOL    HW1 9731   2.874   1.650   0.922
 3093SOL    HW2 9732   2.756   1.649   0.827
 3094SOL     OW 9733   2.256   0.692   0.470
 3094SOL    HW1 9734   2.277   0.600   0.487
 3094SOL    HW2 9735   2.163   0.699   0.493
 3095SOL     OW 9736   3.386   0.233   1.723
 3095SOL    HW1 9737   3.386   0.255   1.816
 3095SOL    HW2 9738   3.306   0.182   1.710
 3096SOL     OW 9739   2.462   0.090   0.126
 3096SOL    HW1 9740   2.556   0.076   0.132
 3096SOL    HW2 9741   2.446   0.102   0.032
 3097SOL     OW 9742   2.630   0.271   1.756
 3097SOL    HW1 9743   2.698   0.204   1.757
 3097SOL    HW2 9744   2.591   0.267   1.843
 3098SOL     OW 9745   2.739   1.523   1.193
 3098SOL    HW1 9746   2.722   1.485   1.107
 3098SOL    HW2 9747   2.808   1.469   1.231
 3099SOL     OW 9748   3.202   0.590   1.428
 3099SOL    HW1 9749   3.229   0.562   1.515
 3099SOL    HW2 9750   3.236   0.679   1.419
 3100SOL     OW 9751   2.679   1.393   0.943
 3100SOL    HW1 9752   2.764   1.380   0.900
 3100SOL    HW2 9753   2.616   1.394   0.871
 3101SOL     OW 9754   2.789   0.522   0.897
 3101SOL    HW1 9755   2.771   0.522   0.803
 3101SOL    HW2 9756   2.822   0.434   0.915
 3102SOL     OW 9757   2.419   0.079   0.527
 3102SOL    HW1 9758   2.332   0.050   0.555
 3102SOL    HW2 9759   2.403   0.139   0.455
 3103SOL     OW 9760   3.285   1.197   0.027
 3103SOL    HW1 9761   3.315   1.126   0.084
 3103SOL    HW2 9762   3.202   1.226   0.066
 3104SOL     OW 9763   2.145   0.053   0.202
 3104SOL    HW1 9764   2.218   0.097   0.158
 3104SOL    HW2 9765   2.186   0.003   0.272
 3105SOL     OW 9766   2.817   0.225   0.443
 3105SOL    HW1 9767   2.768   0.292   0.397
 3105SOL    HW2 9768   2.906   0.260   0.449
 3106SOL     OW 9769   2.942   0.683   1.459
 3106SOL    HW1 9770   2.872   0.618   1.458
 3106SOL    HW2 9771   3.023   0.633   1.448
 3107SOL     OW 9772   3.082   1.572   0.795
 3107SOL    HW1 9773   3.099   1.637   0.726
 3107SOL    HW2 9774   3.152   1.585   0.859
 3108SOL     OW 9775   2.336   1.152   0.734
 3108SOL    HW1 9776   2.268   1.132   0.798
 3108SOL    HW2 9777   2.292   1.141   0.649
 3109SOL     OW 9778   3.129   1.793   0.608
 3109SOL    HW1 9779   3.177   1.855   0.553
 3109SOL    HW2 9780   3.063   1.847   0.652
 3110SOL     OW 9781   2.882   0.527   0.040
 3110SOL    HW1 9782   2.845   0.613   0.020
 3110SOL    HW2 9783   2.955   0.546   0.099
 3111SOL     OW 9784   1.947   0.549   1.396
 3111SOL    HW1 9785   2.038   0.553   1.366
 3111SOL    HW2 9786   1.939   0.621   1.459
 3112SOL     OW 9787   2.422   0.247   1.169
 3112SOL    HW1 9788   2.447   0.165   1.212
 3112SOL    HW2 9789   2.330   0.259   1.191
 3113SOL     OW 9790   2.721   0.513   0.631
 3113SOL    HW1 9791   2.686   0.543   0.547
 3113SOL    HW2 9792   2.682   0.427   0.645
 3114SOL     OW 9793   2.812   0.024   0.795
 3114SOL    HW1 9794   2.767   0.021   0.710
 3114SOL    HW2 9795   2.838   4.433   0.812
 3115SOL     OW 9796   3.300   1.162   0.856
 3115SOL    HW1 9797   3.231   1.096   0.856
 3115SOL    HW2 9798   3.325   1.170   0.764
 3116SOL     OW 9799   3.326   0.608   0.969
 3116SOL    HW1 9800   3.270   0.530   0.970
 3116SOL    HW2 9801   3.382   0.598   1.046
 3117SOL     OW 9802   3.711   0.810   0.377
 3117SOL    HW1 9803   3.763   0.761   0.441
 3117SOL    HW2 9804   3.684   0.745   0.312
 3118SOL     OW 9805   2.356   1.425   0.172
 3118SOL    HW1 9806   2.279   1.399   0.223
 3118SOL    HW2 9807   2.352   1.369   0.094
 3119SOL     OW 9808   3.536   1.264   0.644
 3119SOL    HW1 9809   3.630   1.265   0.659
 3119SOL    HW2 9810   3.508   1.353   0.665
 3120SOL     OW 9811   3.254   0.570   0.079
 3120SOL    HW1 9812   3.190   0.555   0.148
 3120SOL    HW2 9813   3.313   0.495   0.085
 3121SOL     OW 9814   2.382   0.261   0.324
 3121SOL    HW1 9815   2.415   0.201   0.258
 3121SOL    HW2 9816   2.363   0.342   0.276
 3122SOL     OW 9817   3.612   1.241   1.568
 3122SOL    HW1 9818   3.699   1.202   1.563
 3122SOL    HW2 9819   3.628   1.331   1.597
 3123SOL     OW 9820   2.918   1.355   1.334
 3123SOL    HW1 9821   2.843   1.323   1.383
 3123SOL    HW2 9822   2.994   1.313   1.374
 3124SOL     OW 9823   3.471   1.627   1.656
 3124SOL    HW1 9824   3.464   1.661   1.567
 3124SOL    HW2 9825   3.553   1.577   1.657
 3125SOL     OW 9826   2.996   1.209   1.104
 3125SOL    HW1 9827   2.934   1.244   1.168
 3125SOL    HW2 9828   2.963   1.240   1.019
 3126SOL     OW 9829   3.486   1.096   1.077
 3126SOL    HW1 9830   3.481   1.159   1.149
 3126SOL    HW2 9831   3.409   1.114   1.024
 3127SOL     OW 9832   2.760   0.137   1.385
 3127SOL    HW1 9833   2.783   0.090   1.304
 3127SOL    HW2 9834   2.844   0.155   1.426
 3128SOL     OW 9835   2.846   1.115   1.723
 3128SOL    HW1 9836   2.755   1.131   1.746
 3128SOL    HW2 9837   2.844   1.037   1.668
 3129SOL     OW 9838   2.574   1.060   0.374
 3129SOL    HW1 9839   2.560   1.041   0.467
 3129SOL    HW2 9840   2.649   1.005   0.350
 3130SOL     OW 9841   2.283   0.818   1.251
 3130SOL    HW1 9842   2.351   0.827   1.318
 3130SOL    HW2 9843   2.248   0.730   1.264
 3131SOL     OW 9844   3.130   0.374   1.275
 3131SOL    HW1 9845   3.162   0.453   1.319
 3131SOL    HW2 9846   3.040   0.396   1.250
 3132SOL     OW 9847   1.931   1.570   1.350
 3132SOL    HW1 9848   1.900   1.652   1.311
 3132SOL    HW2 9849   2.026   1.579   1.353
 3133SOL     OW 9850   2.204   1.124   0.497
 3133SOL    HW1 9851   2.204   1.198   0.436
 3133SOL    HW2 9852   2.199   1.046   0.442
 3134SOL     OW 9853   2.416   0.525   0.857
 3134SOL    HW1 9854   2.427   0.585   0.783
 3134SOL    HW2 9855   2.481   0.552   0.921
 3135SOL     OW 9856   3.109   1.346   0.397
 3135SOL    HW1 9857   3.164   1.419   0.425
 3135SOL    HW2 9858   3.021   1.369   0.428
 3136SOL     OW 9859   3.147   1.459   1.147
 3136SOL    HW1 9860   3.202   1.462   1.226
 3136SOL    HW2 9861   3.092   1.382   1.160
 3137SOL     OW 9862   3.445   0.628   0.477
 3137SOL    HW1 9863   3.393   0.663   0.550
 3137SOL    HW2 9864   3.477   0.705   0.430
 3138SOL     OW 9865   2.210   1.528   1.314
 3138SOL    HW1 9866   2.195   1.484   1.230
 3138SOL    HW2 9867   2.305   1.538   1.319
 3139SOL     OW 9868   2.280   0.742   1.604
 3139SOL    HW1 9869   2.339   0.789   1.545
 3139SOL    HW2 9870   2.325   0.660   1.623
 3140SOL     OW 9871   3.467   0.779   1.684
 3140SOL    HW1 9872   3.381   0.822   1.678
 3140SOL    HW2 9873   3.519   0.821   1.615
 3141SOL     OW 9874   2.861   0.088   1.714
 3141SOL    HW1 9875   2.902   0.166   1.677
 3141SOL    HW2 9876   2.884   0.017   1.654
 3142SOL     OW 9877   2.362   0.042   1.763
 3142SOL    HW1 9878   2.371   0.011   1.673
 3142SOL    HW2 9879   2.295   0.110   1.759
 3143SOL     OW 9880   2.445   0.874   1.030
 3143SOL    HW1 9881   2.477   0.965   1.033
 3143SOL    HW2 9882   2.389   0.866   1.108
 3144SOL     OW 9883   3.214   0.858   1.025
 3144SOL    HW1 9884   3.129   0.845   0.984
 3144SOL    HW2 9885   3.258   0.774   1.016
 3145SOL     OW 9886   3.056   0.532   0.263
 3145SOL    HW1 9887   3.067   0.455   0.318
 3145SOL    HW2 9888   3.015   0.597   0.320
 3146SOL     OW 9889   2.152   0.231   1.243
 3146SOL    HW1 9890   2.104   0.248   1.324
 3146SOL    HW2 9891   2.191   0.145   1.255
 3147SOL     OW 9892   1.908   1.309   1.275
 3147SOL    HW1 9893   1.941   1.257   1.347
 3147SOL    HW2 9894   1.914   1.400   1.306
 3148SOL     OW 9895   2.583   0.629   1.053
 3148SOL    HW1 9896   2.659   0.613   0.997
 3148SOL    HW2 9897   2.556   0.719   1.031
 3149SOL     OW 9898   3.599   0.959   1.855
 3149SOL    HW1 9899   3.554   0.895   1.801
 3149SOL    HW2 9900   3.539   0.975   1.928
 3150SOL     OW 9901   2.161   0.052   0.652
 3150SOL    HW1 9902   2.147   0.147   0.653
 3150SOL    HW2 9903   2.171   0.028   0.744
 3151SOL     OW 9904   3.488   0.384   0.355
 3151SOL    HW1 9905   3.509   0.316   0.419
 3151SOL    HW2 9906   3.460   0.459   0.408
 3152SOL     OW 9907   2.893   0.763   0.960
 3152SOL    HW1 9908   2.885   0.779   1.054
 3152SOL    HW2 9909   2.864   0.673   0.948
 3153SOL     OW 9910   2.845   1.567   1.720
 3153SOL    HW1 9911   2.829   1.610   1.636
 3153SOL    HW2 9912   2.887   1.484   1.696
 3154SOL     OW 9913   3.715   1.503   1.605
 3154SOL    HW1 9914   3.735   1.530   1.515
 3154SOL    HW2 9915   3.796   1.519   1.653
 3155SOL     OW 9916   2.216   0.917   1.809
 3155SOL    HW1 9917   2.297   0.936   1.856
 3155SOL    HW2 9918   2.241   0.853   1.742
 3156SOL     OW 9919   3.388   0.301   0.106
 3156SOL    HW1 9920   3.335   0.224   0.126
 3156SOL    HW2 9921   3.429   0.324   0.189
 3157SOL     OW 9922   3.147   0.818   0.032
 3157SOL    HW1 9923   3.191   0.733   0.041
 3157SOL    HW2 9924   3.184   0.856  11.052
 3158SOL     OW 9925   2.928   1.337   0.854
 3158SOL    HW1 9926   2.933   1.265   0.792
 3158SOL    HW2 9927   2.988   1.402   0.820
 3159SOL     OW 9928   2.170   0.810   0.946
 3159SOL    HW1 9929   2.263   0.832   0.940
 3159SOL    HW2 9930   2.169   0.720   0.979
 3160SOL     OW 9931   2.197   0.535   1.014
 3160SOL    HW1 9932   2.154   0.451   0.996
 3160SOL    HW2 9933   2.274   0.535   0.956
 3161SOL     OW 9934   2.999   0.371   1.701
 3161SOL    HW1 9935   2.947   0.434   1.750
 3161SOL    HW2 9936   3.083   0.415   1.687
 3162SOL     OW 9937   3.015   0.215   1.474
 3162SOL    HW1 9938   3.011   0.279   1.545
 3162SOL    HW2 9939   3.059   0.261   1.403
 3163SOL     OW 9940   1.871   1.327   0.194
 3163SOL    HW1 9941   1.785   1.339   0.155
 3163SOL    HW2 9942   1.870   1.236   0.226
 3164SOL     OW 9943   1.950   1.788   0.938
 3164SOL    HW1 9944   1.918   1.709   0.894
 3164SOL    HW2 9945   2.041   1.796   0.911
 3165SOL     OW 9946   2.359   1.568   0.904
 3165SOL    HW1 9947   2.428   1.632   0.926
 3165SOL    HW2 9948   2.403   1.505   0.847
 3166SOL     OW 9949   2.840   0.792   1.226
 3166SOL    HW1 9950   2.898   0.771   1.299
 3166SOL    HW2 9951   2.757   0.749   1.248
 3167SOL     OW 9952   1.894   0.545   1.119
 3167SOL    HW1 9953   1.971   0.527   1.065
 3167SOL    HW2 9954   1.929   0.548   1.209
 3168SOL     OW 9955   2.046   0.523   1.724
 3168SOL    HW1 9956   2.124   0.504   1.671
 3168SOL    HW2 9957   2.006   0.599   1.681
 3169SOL     OW 9958   3.242   0.936   1.657
 3169SOL    HW1 9959   3.262   1.029   1.654
 3169SOL    HW2 9960   3.237   0.909   1.566
 3170SOL     OW 9961   2.673   0.577   0.362
 3170SOL    HW1 9962   2.680   0.502   0.302
 3170SOL    HW2 9963   2.598   0.627   0.328
 3171SOL     OW 9964   3.500   0.602   1.182
 3171SOL    HW1 9965   3.491   0.543   1.257
 3171SOL    HW2 9966   3.588   0.584   1.149
 3172SOL     OW 9967   2.108   1.546   1.729
 3172SOL    HW1 9968   2.083   1.610   1.796
 3172SOL    HW2 9969   2.109   1.462   1.774
 3173SOL     OW 9970   2.571   0.457   1.260
 3173SOL    HW1 9971   2.520   0.381   1.232
 3173SOL    HW2 9972   2.567   0.518   1.187
 3174SOL     OW 9973   2.786   1.678   1.470
 3174SOL    HW1 9974   2.762   1.641   1.385
 3174SOL    HW2 9975   2.784   1.773   1.456
 3175SOL     OW 9976   2.320   0.483   0.174
 3175SOL    HW1 9977   2.380   0.554   0.197
 3175SOL    HW2 9978   2.235   0.526   0.163
 3176SOL     OW 9979   2.006   1.142   1.474
 3176SOL    HW1 9980   2.007   1.092   1.556
 3176SOL    HW2 9981   2.023   1.076   1.406
 3177SOL     OW 9982   3.185   1.045   1.221
 3177SOL    HW1 9983   3.207   0.981   1.153
 3177SOL    HW2 9984   3.117   1.100   1.181
 3178SOL     OW 9985   3.171   0.851   0.310
 3178SOL    HW1 9986   3.096   0.819   0.360
 3178SOL    HW2 9987   3.148   0.836   0.219
 3179SOL     OW 9988   3.639   1.740   1.154
 3179SOL    HW1 9989   3.699   1.766   1.084
 3179SOL    HW2 9990   3.612   1.651   1.131
 3180SOL     OW 9991   3.103   1.733   1.109
 3180SOL    HW1 9992   3.185   1.755   1.066
 3180SOL    HW2 9993   3.111   1.639   1.128
 3181SOL     OW 9994   1.950   1.264   1.012
 3181SOL    HW1 9995   1.933   1.280   1.105
 3181SOL    HW2 9996   1.875   1.213   0.982
 3182SOL     OW 9997   2.542   1.666   1.733
 3182SOL    HW1 9998   2.488   1.745   1.730
 3182SOL    HW2 9999   2.611   1.681   1.668
 3183SOL     OW10000   2.740   0.066   0.130
 3183SOL    HW110001   2.826   0.094   0.099
 3183SOL    HW210002   2.759   0.005   0.201
 3184SOL     OW10003   3.581   0.133   0.489
 3184SOL    HW110004   3.651   0.144   0.425
 3184SOL    HW210005   3.609   0.060   0.544
 3185SOL     OW10006   3.253   1.568   0.488
 3185SOL    HW110007   3.314   1.600   0.422
 3185SOL    HW210008   3.205   1.646   0.517
 3186SOL     OW10009   2.000   1.801   1.846
 3186SOL    HW110010   1.950   1.730   1.886
 3186SOL    HW210011   2.034   1.851   1.920
 3187SOL     OW10012   3.142   0.930   0.674
 3187SOL    HW110013   3.214   0.868   0.680
 3187SOL    HW210014   3.175   1.001   0.620
 3188SOL     OW10015   2.671   1.275   1.426
 3188SOL    HW110016   2.643   1.315   1.508
 3188SOL    HW210017   2.600   1.294   1.365
 3189SOL     OW10018   2.532   1.626   0.170
 3189SOL    HW110019   2.560   1.628   0.078
 3189SOL    HW210020   2.476   1.549   0.177
 3190SOL     OW10021   3.484   1.727   1.391
 3190SOL    HW110022   3.536   1.733   1.311
 3190SOL    HW210023   3.470   1.818   1.417
 3191SOL     OW10024   3.702   0.153   0.965
 3191SOL    HW110025   3.732   0.073   0.922
 3191SOL    HW210026   3.615   0.169   0.928
 3192SOL     OW10027   2.123   0.320   0.714
 3192SOL    HW110028   2.037   0.354   0.689
 3192SOL    HW210029   2.119   0.314   0.810
 3193SOL     OW10030   3.086   1.600   0.055
 3193SOL    HW110031   3.073   1.507   0.074
 3193SOL    HW210032   3.022   1.619  11.086
 3194SOL     OW10033   2.685   1.006   1.374
 3194SOL    HW110034   2.729   0.999   1.290
 3194SOL    HW210035   2.684   1.100   1.393
 3195SOL     OW10036   2.776   0.905   0.280
 3195SOL    HW110037   2.842   0.946   0.224
 3195SOL    HW210038   2.825   0.843   0.333
 3196SOL     OW10039   3.360   1.622   0.049
 3196SOL    HW110040   3.264   1.615   0.048
 3196SOL    HW210041   3.384   1.636  11.057
 3197SOL     OW10042   2.231   1.303   1.491
 3197SOL    HW110043   2.217   1.381   1.437
 3197SOL    HW210044   2.153   1.249   1.477
 3198SOL     OW10045   3.471   1.284   1.280
 3198SOL    HW110046   3.530   1.269   1.355
 3198SOL    HW210047   3.411   1.351   1.311
 3199SOL     OW10048   2.918   1.109   0.708
 3199SOL    HW110049   2.847   1.057   0.747
 3199SOL    HW210050   2.983   1.043   0.682
 3200SOL     OW10051   2.872   0.244   1.006
 3200SOL    HW110052   2.871   0.220   0.913
 3200SOL    HW210053   2.860   0.161   1.052
 3201SOL     OW10054   2.467   1.490   0.481
 3201SOL    HW110055   2.511   1.438   0.414
 3201SOL    HW210056   2.392   1.529   0.435
 3202SOL     OW10057   3.586   0.395   1.375
 3202SOL    HW110058   3.660   0.455   1.375
 3202SOL    HW210059   3.614   0.323   1.318
 3203SOL     OW10060   2.130   1.334   0.295
 3203SOL    HW110061   2.044   1.336   0.253
 3203SOL    HW210062   2.117   1.376   0.380
 3204SOL     OW10063   1.975   1.026   1.721
 3204SOL    HW110064   1.899   1.001   1.774
 3204SOL    HW210065   2.050   0.986   1.767
 3205SOL     OW10066   2.519   0.206   1.502
 3205SOL    HW110067   2.597   0.181   1.454
 3205SOL    HW210068   2.550   0.229   1.589
 3206SOL     OW10069   1.938   0.335   0.055
 3206SOL    HW110070   1.867   0.312  11.095
 3206SOL    HW210071   1.953   0.428   0.041
 3207SOL     OW10072   3.289   0.858   1.398
 3207SOL    HW110073   3.240   0.919   1.343
 3207SOL    HW210074   3.378   0.860   1.363
 3208SOL     OW10075   1.926   0.187   0.319
 3208SOL    HW110076   1.920   0.250   0.247
 3208SOL    HW210077   1.997   0.128   0.293
 3209SOL     OW10078   3.047   1.337   0.122
 3209SOL    HW110079   2.953   1.322   0.113
 3209SOL    HW210080   3.064   1.328   0.216
 3210SOL     OW10081   2.482   0.830   1.435
 3210SOL    HW110082   2.538   0.906   1.420
 3210SOL    HW210083   2.543   0.757   1.443
 3211SOL     OW10084   3.345   1.781   0.981
 3211SOL    HW110085   3.368   1.843   0.912
 3211SOL    HW210086   3.429   1.756   1.020
 3212SOL     OW10087   2.578   0.561   1.704
 3212SOL    HW110088   2.620   0.624   1.763
 3212SOL    HW210089   2.604   0.475   1.737
 3213SOL     OW10090   3.335   1.197   1.630
 3213SOL    HW110091   3.322   1.211   1.724
 3213SOL    HW210092   3.428   1.214   1.615
 3214SOL     OW10093   2.242   1.734   1.567
 3214SOL    HW110094   2.155   1.769   1.545
 3214SOL    HW210095   2.223   1.650   1.609
 3215SOL     OW10096   3.528   0.880   1.255
 3215SOL    HW110097   3.523   0.795   1.212
 3215SOL    HW210098   3.519   0.944   1.184
 3216SOL     OW10099   3.079   0.329   0.447
 3216SOL    HW110100   3.148   0.264   0.434
 3216SOL    HW210101   3.105   0.376   0.526
 3217SOL     OW10102   2.444   0.736   0.674
 3217SOL    HW110103   2.488   0.820   0.660
 3217SOL    HW210104   2.380   0.729   0.603
 3218SOL     OW10105   3.620   0.371   1.644
 3218SOL    HW110106   3.605   0.384   1.550
 3218SOL    HW210107   3.544   0.322   1.674
 3219SOL     OW10108   3.610   0.933   1.511
 3219SOL    HW110109   3.601   1.028   1.524
 3219SOL    HW210110   3.593   0.920   1.418
 3220SOL     OW10111   2.773   1.355   0.077
 3220SOL    HW110112   2.704   1.350   0.143
 3220SOL    HW210113   2.752   1.433   0.026
 3221SOL     OW10114   2.518   1.807   0.942
 3221SOL    HW110115   2.521   1.888   0.992
 3221SOL    HW210116   2.610   1.780   0.934
 3222SOL     OW10117   2.731   0.969   0.854
 3222SOL    HW110118   2.781   0.897   0.891
 3222SOL    HW210119   2.693   1.015   0.930
 3223SOL     OW10120   2.940   0.989   0.082
 3223SOL    HW110121   2.913   1.017  11.095
 3223SOL    HW210122   3.016   0.933   0.067
 3224SOL     OW10123   3.713   1.555   0.844
 3224SOL    HW110124   3.635   1.542   0.790
 3224SOL    HW210125   3.708   1.487   0.911
 3225SOL     OW10126   2.088   1.299   1.855
 3225SOL    HW110127   2.022   1.238   1.823
 3225SOL    HW210128   2.067   1.311   1.948
 3226SOL     OW10129   1.949   1.231   0.666
 3226SOL    HW110130   1.953   1.184   0.750
 3226SOL    HW210131   2.019   1.193   0.614
 3227SOL     OW10132   2.544   1.405   1.628
 3227SOL    HW110133   2.466   1.362   1.661
 3227SOL    HW210134   2.541   1.493   1.666
 3228SOL     OW10135   3.666   0.178   1.238
 3228SOL    HW110136   3.663   0.084   1.257
 3228SOL    HW210137   3.684   0.183   1.144
 3229SOL     OW10138   2.298   0.432   0.530
 3229SOL    HW110139   2.320   0.362   0.469
 3229SOL    HW210140   2.243   0.390   0.596
 3230SOL     OW10141   3.559   1.488   1.095
 3230SOL    HW110142   3.480   1.466   1.045
 3230SOL    HW210143   3.567   1.418   1.159
 3231SOL     OW10144   2.195   0.560   1.293
 3231SOL    HW110145   2.249   0.502   1.347
 3231SOL    HW210146   2.214   0.533   1.203
 3232SOL     OW10147   2.690   1.578   0.677
 3232SOL    HW110148   2.670   1.633   0.601
 3232SOL    HW210149   2.617   1.516   0.681
 3233SOL     OW10150   3.293   0.218   1.116
 3233SOL    HW110151   3.328   0.146   1.168
 3233SOL    HW210152   3.243   0.270   1.178
 3234SOL     OW10153   2.857   0.004   1.153
 3234SOL    HW110154   2.817   4.417   1.148
 3234SOL    HW210155   2.951   4.487   1.164
 3235SOL     OW10156   2.632   1.327   0.321
 3235SOL    HW110157   2.604   1.237   0.336
 3235SOL    HW210158   2.715   1.335   0.367
 3236SOL     OW10159   2.483   1.554   1.283
 3236SOL    HW110160   2.483   1.636   1.331
 3236SOL    HW210161   2.572   1.547   1.249
 3237SOL     OW10162   3.218   0.057   0.170
 3237SOL    HW110163   3.253   4.487   0.113
 3237SOL    HW210164   3.135   0.023   0.201
 3238SOL     OW10165   3.178   0.464   0.674
 3238SOL    HW110166   3.120   0.540   0.674
 3238SOL    HW210167   3.164   0.423   0.759
 3239SOL     OW10168   3.448   0.197   0.869
 3239SOL    HW110169   3.390   0.213   0.943
 3239SOL    HW210170   3.450   0.281   0.822
 3240SOL     OW10171   1.904   1.069   0.302
 3240SOL    HW110172   1.999   1.063   0.297
 3240SOL    HW210173   1.876   0.980   0.326
 3241SOL     OW10174   2.749   1.657   0.347
 3241SOL    HW110175   2.675   1.637   0.290
 3241SOL    HW210176   2.719   1.730   0.401
 3242SOL     OW10177   2.088   0.625   1.985
 3242SOL    HW110178   2.001   0.618   2.026
 3242SOL    HW210179   2.074   0.597   1.895
 3243SOL     OW10180   2.068   0.302   2.852
 3243SOL    HW110181   2.099   0.270   2.937
 3243SOL    HW210182   1.986   0.254   2.838
 3244SOL     OW10183   1.868   0.390   2.498
 3244SOL    HW110184   1.782   0.407   2.535
 3244SOL    HW210185   1.853   0.318   2.437
 3245SOL     OW10186   2.430   1.293   3.041
 3245SOL    HW110187   2.343   1.297   3.002
 3245SOL    HW210188   2.445   1.382   3.074
 3246SOL     OW10189   3.428   1.513   2.570
 3246SOL    HW110190   3.385   1.491   2.653
 3246SOL    HW210191   3.357   1.516   2.506
 3247SOL     OW10192   3.001   0.697   2.557
 3247SOL    HW110193   3.045   0.781   2.548
 3247SOL    HW210194   2.949   0.705   2.637
 3248SOL     OW10195   3.635   0.603   2.088
 3248SOL    HW110196   3.611   0.596   1.995
 3248SOL    HW210197   3.599   0.525   2.128
 3249SOL     OW10198   2.613   1.140   2.907
 3249SOL    HW110199   2.545   1.176   2.964
 3249SOL    HW210200   2.650   1.216   2.862
 3250SOL     OW10201   2.732   0.768   3.685
 3250SOL    HW110202   2.718   0.838   3.748
 3250SOL    HW210203   2.755   0.813   3.604
 3251SOL     OW10204   2.548   0.999   2.507
 3251SOL    HW110205   2.613   0.989   2.576
 3251SOL    HW210206   2.479   1.052   2.546
 3252SOL     OW10207   2.574   1.150   3.677
 3252SOL    HW110208   2.622   1.228   3.706
 3252SOL    HW210209   2.493   1.184   3.640
 3253SOL     OW10210   2.193   1.420   2.930
 3253SOL    HW110211   2.118   1.382   2.884
 3253SOL    HW210212   2.238   1.472   2.864
 3254SOL     OW10213   3.322   1.501   3.220
 3254SOL    HW110214   3.375   1.580   3.230
 3254SOL    HW210215   3.255   1.508   3.289
 3255SOL     OW10216   2.306   0.393   3.347
 3255SOL    HW110217   2.388   0.344   3.350
 3255SOL    HW210218   2.238   0.328   3.362
 3256SOL     OW10219   3.470   0.443   2.601
 3256SOL    HW110220   3.389   0.462   2.552
 3256SOL    HW210221   3.484   0.520   2.655
 3257SOL     OW10222   2.083   1.724   2.340
 3257SOL    HW110223   2.119   1.763   2.420
 3257SOL    HW210224   2.158   1.710   2.283
 3258SOL     OW10225   2.999   1.342   3.556
 3258SOL    HW110226   3.040   1.336   3.643
 3258SOL    HW210227   2.947   1.262   3.548
 3259SOL     OW10228   2.088   1.444   2.397
 3259SOL    HW110229   2.064   1.536   2.406
 3259SOL    HW210230   2.033   1.398   2.461
 3260SOL     OW10231   2.125   1.091   2.753
 3260SOL    HW110232   2.120   1.003   2.792
 3260SOL    HW210233   2.067   1.144   2.807
 3261SOL     OW10234   2.468   1.792   3.285
 3261SOL    HW110235   2.389   1.773   3.334
 3261SOL    HW210236   2.493   1.880   3.313
 3262SOL     OW10237   2.444   0.984   1.999
 3262SOL    HW110238   2.492   1.030   1.930
 3262SOL    HW210239   2.483   1.015   2.081
 3263SOL     OW10240   3.440   0.117   3.329
 3263SOL    HW110241   3.474   0.185   3.270
 3263SOL    HW210242   3.429   0.162   3.413
 3264SOL     OW10243   1.980   0.655   2.422
 3264SOL    HW110244   1.949   0.567   2.445
 3264SOL    HW210245   1.972   0.704   2.504
 3265SOL     OW10246   3.705   1.756   2.194
 3265SOL    HW110247   3.771   1.729   2.257
 3265SOL    HW210248   3.725   1.848   2.175
 3266SOL     OW10249   1.900   1.593   1.982
 3266SOL    HW110250   1.881   1.501   2.000
 3266SOL    HW210251   1.873   1.639   2.062
 3267SOL     OW10252   3.553   0.921   2.507
 3267SOL    HW110253   3.635   0.876   2.484
 3267SOL    HW210254   3.530   0.970   2.428
 3268SOL     OW10255   3.510   1.105   2.290
 3268SOL    HW110256   3.596   1.108   2.250
 3268SOL    HW210257   3.515   1.167   2.363
 3269SOL     OW10258   1.984   0.747   3.445
 3269SOL    HW110259   2.075   0.776   3.450
 3269SOL    HW210260   1.932   0.827   3.451
 3270SOL     OW10261   2.477   1.389   2.596
 3270SOL    HW110262   2.432   1.305   2.606
 3270SOL    HW210263   2.461   1.416   2.506
 3271SOL     OW10264   3.149   1.237   3.284
 3271SOL    HW110265   3.180   1.169   3.224
 3271SOL    HW210266   3.208   1.231   3.359
 3272SOL     OW10267   2.682   0.019   2.417
 3272SOL    HW110268   2.719   0.102   2.390
 3272SOL    HW210269   2.587   0.031   2.409
 3273SOL     OW10270   2.051   0.963   3.139
 3273SOL    HW110271   2.136   0.923   3.123
 3273SOL    HW210272   1.991   0.914   3.082
 3274SOL     OW10273   3.394   0.996   2.062
 3274SOL    HW110274   3.323   0.939   2.094
 3274SOL    HW210275   3.435   1.030   2.141
 3275SOL     OW10276   3.047   1.809   3.486
 3275SOL    HW110277   3.055   1.869   3.411
 3275SOL    HW210278   3.064   1.723   3.449
 3276SOL     OW10279   2.178   0.252   3.641
 3276SOL    HW110280   2.241   0.316   3.674
 3276SOL    HW210281   2.104   0.258   3.701
 3277SOL     OW10282   3.330   1.419   2.811
 3277SOL    HW110283   3.262   1.435   2.877
 3277SOL    HW210284   3.316   1.328   2.785
 3278SOL     OW10285   3.518   1.746   2.439
 3278SOL    HW110286   3.499   1.715   2.351
 3278SOL    HW210287   3.496   1.673   2.497
 3279SOL     OW10288   2.453   0.722   2.129
 3279SOL    HW110289   2.456   0.805   2.082
 3279SOL    HW210290   2.388   0.735   2.198
 3280SOL     OW10291   3.155   0.371   2.794
 3280SOL    HW110292   3.066   0.341   2.777
 3280SOL    HW210293   3.191   0.306   2.855
 3281SOL     OW10294   3.441   1.672   2.172
 3281SOL    HW110295   3.532   1.700   2.164
 3281SOL    HW210296   3.413   1.656   2.082
 3282SOL     OW10297   2.657   0.621   3.315
 3282SOL    HW110298   2.629   0.594   3.403
 3282SOL    HW210299   2.622   0.554   3.257
 3283SOL     OW10300   3.250   0.481   3.538
 3283SOL    HW110301   3.254   0.526   3.623
 3283SOL    HW210302   3.316   0.413   3.543
 3284SOL     OW10303   2.814   0.887   3.447
 3284SOL    HW110304   2.868   0.817   3.410
 3284SOL    HW210305   2.766   0.921   3.372
 3285SOL     OW10306   2.860   0.417   3.095
 3285SOL    HW110307   2.770   0.424   3.126
 3285SOL    HW210308   2.854   0.363   3.016
 3286SOL     OW10309   2.913   0.698   2.287
 3286SOL    HW110310   2.931   0.689   2.381
 3286SOL    HW210311   2.829   0.654   2.275
 3287SOL     OW10312   1.950   0.822   2.639
 3287SOL    HW110313   2.031   0.815   2.691
 3287SOL    HW210314   1.906   0.899   2.673
 3288SOL     OW10315   1.989   1.811   3.433
 3288SOL    HW110316   1.973   1.806   3.528
 3288SOL    HW210317   1.920   1.870   3.401
 3289SOL     OW10318   2.719   0.371   2.050
 3289SOL    HW110319   2.786   0.404   1.991
 3289SOL    HW210320   2.730   0.276   2.050
 3290SOL     OW10321   3.565   0.571   3.691
 3290SOL    HW110322   3.529   0.645   3.642
 3290SOL    HW210323   3.600   0.513   3.624
 3291SOL     OW10324   3.242   1.143   2.402
 3291SOL    HW110325   3.320   1.131   2.349
 3291SOL    HW210326   3.188   1.205   2.352
 3292SOL     OW10327   2.397   0.207   2.764
 3292SOL    HW110328   2.420   0.225   2.855
 3292SOL    HW210329   2.392   0.294   2.723
 3293SOL     OW10330   2.865   1.444   2.332
 3293SOL    HW110331   2.830   1.518   2.282
 3293SOL    HW210332   2.843   1.464   2.423
 3294SOL     OW10333   2.220   1.810   2.697
 3294SOL    HW110334   2.260   1.725   2.715
 3294SOL    HW210335   2.288   1.874   2.718
 3295SOL     OW10336   3.661   1.057   2.732
 3295SOL    HW110337   3.609   1.035   2.655
 3295SOL    HW210338   3.598   1.062   2.804
 3296SOL     OW10339   3.089   1.539   3.375
 3296SOL    HW110340   3.077   1.467   3.437
 3296SOL    HW210341   3.024   1.524   3.307
 3297SOL     OW10342   2.179   0.958   2.114
 3297SOL    HW110343   2.261   0.978   2.069
 3297SOL    HW210344   2.149   0.876   2.076
 3298SOL     OW10345   3.344   0.746   2.584
 3298SOL    HW110346   3.335   0.704   2.670
 3298SOL    HW210347   3.421   0.802   2.592
 3299SOL     OW10348   2.330   1.266   3.600
 3299SOL    HW110349   2.303   1.271   3.508
 3299SOL    HW210350   2.248   1.263   3.649
 3300SOL     OW10351   2.986   1.777   2.093
 3300SOL    HW110352   2.910   1.738   2.136
 3300SOL    HW210353   3.009   1.715   2.024
 3301SOL     OW10354   2.048   0.268   3.378
 3301SOL    HW110355   1.983   0.337   3.367
 3301SOL    HW210356   2.070   0.270   3.471
 3302SOL     OW10357   3.491   1.381   1.950
 3302SOL    HW110358   3.449   1.466   1.936
 3302SOL    HW210359   3.422   1.317   1.931
 3303SOL     OW10360   2.330   1.717   2.208
 3303SOL    HW110361   2.367   1.794   2.251
 3303SOL    HW210362   2.388   1.701   2.134
 3304SOL     OW10363   3.289   0.146   2.281
 3304SOL    HW110364   3.272   0.089   2.206
 3304SOL    HW210365   3.382   0.133   2.300
 3305SOL     OW10366   2.109   1.789   3.087
 3305SOL    HW110367   2.165   1.725   3.133
 3305SOL    HW210368   2.106   1.757   2.997
 3306SOL     OW10369   2.803   1.698   2.759
 3306SOL    HW110370   2.881   1.647   2.781
 3306SOL    HW210371   2.760   1.648   2.689
 3307SOL     OW10372   2.257   0.693   2.335
 3307SOL    HW110373   2.278   0.601   2.351
 3307SOL    HW210374   2.163   0.700   2.353
 3308SOL     OW10375   3.386   0.234   3.585
 3308SOL    HW110376   3.386   0.255   3.678
 3308SOL    HW210377   3.306   0.182   3.572
 3309SOL     OW10378   2.494   0.122   1.987
 3309SOL    HW110379   2.582   0.085   1.996
 3309SOL    HW210380   2.460   0.082   1.907
 3310SOL     OW10381   2.630   0.271   3.618
 3310SOL    HW110382   2.698   0.204   3.619
 3310SOL    HW210383   2.591   0.267   3.705
 3311SOL     OW10384   2.739   1.523   3.056
 3311SOL    HW110385   2.722   1.486   2.969
 3311SOL    HW210386   2.808   1.468   3.092
 3312SOL     OW10387   3.202   0.590   3.290
 3312SOL    HW110388   3.229   0.562   3.377
 3312SOL    HW210389   3.236   0.679   3.281
 3313SOL     OW10390   2.679   1.392   2.805
 3313SOL    HW110391   2.764   1.380   2.762
 3313SOL    HW210392   2.616   1.396   2.734
 3314SOL     OW10393   2.787   0.523   2.759
 3314SOL    HW110394   2.771   0.521   2.664
 3314SOL    HW210395   2.819   0.436   2.780
 3315SOL     OW10396   2.418   0.082   2.386
 3315SOL    HW110397   2.332   0.048   2.410
 3315SOL    HW210398   2.401   0.142   2.313
 3316SOL     OW10399   3.290   1.199   1.902
 3316SOL    HW110400   3.319   1.124   1.953
 3316SOL    HW210401   3.205   1.221   1.939
 3317SOL     OW10402   2.156   0.064   2.067
 3317SOL    HW110403   2.232   0.120   2.052
 3317SOL    HW210404   2.185   0.000   2.132
 3318SOL     OW10405   2.819   0.239   2.325
 3318SOL    HW110406   2.766   0.304   2.277
 3318SOL    HW210407   2.908   0.273   2.320
 3319SOL     OW10408   2.942   0.683   3.321
 3319SOL    HW110409   2.872   0.618   3.320
 3319SOL    HW210410   3.022   0.632   3.310
 3320SOL     OW10411   3.084   1.571   2.656
 3320SOL    HW110412   3.099   1.637   2.588
 3320SOL    HW210413   3.153   1.587   2.721
 3321SOL     OW10414   2.333   1.152   2.592
 3321SOL    HW110415   2.266   1.132   2.656
 3321SOL    HW210416   2.291   1.137   2.507
 3322SOL     OW10417   3.129   1.793   2.473
 3322SOL    HW110418   3.175   1.855   2.417
 3322SOL    HW210419   3.060   1.845   2.515
 3323SOL     OW10420   2.889   0.543   1.882
 3323SOL    HW110421   2.842   0.625   1.867
 3323SOL    HW210422   2.948   0.563   1.955
 3324SOL     OW10423   1.948   0.549   3.259
 3324SOL    HW110424   2.038   0.553   3.228
 3324SOL    HW210425   1.939   0.621   3.321
 3325SOL     OW10426   2.422   0.247   3.032
 3325SOL    HW110427   2.448   0.165   3.075
 3325SOL    HW210428   2.330   0.259   3.054
 3326SOL     OW10429   2.726   0.505   2.490
 3326SOL    HW110430   2.688   0.541   2.410
 3326SOL    HW210431   2.678   0.423   2.505
 3327SOL     OW10432   2.814   0.015   2.658
 3327SOL    HW110433   2.770   0.018   2.573
 3327SOL    HW210434   2.831   4.423   2.673
 3328SOL     OW10435   3.300   1.161   2.718
 3328SOL    HW110436   3.230   1.096   2.719
 3328SOL    HW210437   3.323   1.170   2.626
 3329SOL     OW10438   3.326   0.608   2.831
 3329SOL    HW110439   3.270   0.530   2.832
 3329SOL    HW210440   3.382   0.598   2.908
 3330SOL     OW10441   3.705   0.814   2.246
 3330SOL    HW110442   3.762   0.764   2.304
 3330SOL    HW210443   3.679   0.751   2.179
 3331SOL     OW10444   2.352   1.421   2.014
 3331SOL    HW110445   2.277   1.393   2.067
 3331SOL    HW210446   2.342   1.374   1.932
 3332SOL     OW10447   3.536   1.265   2.504
 3332SOL    HW110448   3.630   1.265   2.520
 3332SOL    HW210449   3.507   1.353   2.526
 3333SOL     OW10450   3.257   0.572   1.931
 3333SOL    HW110451   3.194   0.556   2.002
 3333SOL    HW210452   3.342   0.556   1.971
 3334SOL     OW10453   2.379   0.265   2.183
 3334SOL    HW110454   2.431   0.216   2.119
 3334SOL    HW210455   2.360   0.348   2.140
 3335SOL     OW10456   3.612   1.241   3.430
 3335SOL    HW110457   3.699   1.202   3.425
 3335SOL    HW210458   3.628   1.331   3.459
 3336SOL     OW10459   2.918   1.355   3.196
 3336SOL    HW110460   2.843   1.323   3.246
 3336SOL    HW210461   2.994   1.312   3.236
 3337SOL     OW10462   3.471   1.627   3.519
 3337SOL    HW110463   3.464   1.661   3.429
 3337SOL    HW210464   3.553   1.577   3.519
 3338SOL     OW10465   2.996   1.209   2.966
 3338SOL    HW110466   2.933   1.244   3.029
 3338SOL    HW210467   2.964   1.240   2.881
 3339SOL     OW10468   3.487   1.096   2.939
 3339SOL    HW110469   3.481   1.159   3.011
 3339SOL    HW210470   3.409   1.114   2.886
 3340SOL     OW10471   2.760   0.136   3.247
 3340SOL    HW110472   2.783   0.090   3.166
 3340SOL    HW210473   2.844   0.155   3.288
 3341SOL     OW10474   2.846   1.115   3.585
 3341SOL    HW110475   2.755   1.131   3.608
 3341SOL    HW210476   2.844   1.037   3.530
 3342SOL     OW10477   2.571   1.063   2.233
 3342SOL    HW110478   2.557   1.044   2.325
 3342SOL    HW210479   2.647   1.009   2.209
 3343SOL     OW10480   2.283   0.818   3.113
 3343SOL    HW110481   2.351   0.827   3.180
 3343SOL    HW210482   2.248   0.730   3.126
 3344SOL     OW10483   3.130   0.374   3.137
 3344SOL    HW110484   3.162   0.453   3.181
 3344SOL    HW210485   3.040   0.396   3.112
 3345SOL     OW10486   1.932   1.570   3.213
 3345SOL    HW110487   1.902   1.649   3.168
 3345SOL    HW210488   2.027   1.578   3.214
 3346SOL     OW10489   2.204   1.114   2.352
 3346SOL    HW110490   2.210   1.187   2.290
 3346SOL    HW210491   2.202   1.036   2.296
 3347SOL     OW10492   2.415   0.525   2.719
 3347SOL    HW110493   2.427   0.585   2.646
 3347SOL    HW210494   2.481   0.552   2.783
 3348SOL     OW10495   3.110   1.349   2.251
 3348SOL    HW110496   3.166   1.420   2.283
 3348SOL    HW210497   3.023   1.370   2.285
 3349SOL     OW10498   3.147   1.459   3.009
 3349SOL    HW110499   3.202   1.462   3.088
 3349SOL    HW210500   3.092   1.382   3.021
 3350SOL     OW10501   3.441   0.623   2.341
 3350SOL    HW110502   3.393   0.668   2.410
 3350SOL    HW210503   3.485   0.692   2.293
 3351SOL     OW10504   2.210   1.527   3.176
 3351SOL    HW110505   2.196   1.484   3.092
 3351SOL    HW210506   2.305   1.539   3.181
 3352SOL     OW10507   2.280   0.742   3.466
 3352SOL    HW110508   2.339   0.789   3.407
 3352SOL    HW210509   2.325   0.660   3.485
 3353SOL     OW10510   3.467   0.779   3.546
 3353SOL    HW110511   3.381   0.822   3.539
 3353SOL    HW210512   3.519   0.821   3.477
 3354SOL     OW10513   2.861   0.087   3.576
 3354SOL    HW110514   2.902   0.165   3.539
 3354SOL    HW210515   2.884   0.017   3.516
 3355SOL     OW10516   2.362   0.042   3.625
 3355SOL    HW110517   2.371   0.012   3.535
 3355SOL    HW210518   2.295   0.110   3.621
 3356SOL     OW10519   2.445   0.875   2.893
 3356SOL    HW110520   2.477   0.965   2.895
 3356SOL    HW210521   2.389   0.867   2.970
 3357SOL     OW10522   3.214   0.858   2.887
 3357SOL    HW110523   3.128   0.845   2.846
 3357SOL    HW210524   3.258   0.774   2.878
 3358SOL     OW10525   3.061   0.536   2.120
 3358SOL    HW110526   3.069   0.457   2.173
 3358SOL    HW210527   3.018   0.599   2.178
 3359SOL     OW10528   2.151   0.231   3.105
 3359SOL    HW110529   2.104   0.248   3.186
 3359SOL    HW210530   2.191   0.145   3.117
 3360SOL     OW10531   1.907   1.310   3.137
 3360SOL    HW110532   1.941   1.257   3.209
 3360SOL    HW210533   1.914   1.400   3.168
 3361SOL     OW10534   2.583   0.630   2.915
 3361SOL    HW110535   2.659   0.614   2.859
 3361SOL    HW210536   2.555   0.719   2.893
 3362SOL     OW10537   3.599   0.959   3.717
 3362SOL    HW110538   3.554   0.895   3.663
 3362SOL    HW210539   3.539   0.975   3.790
 3363SOL     OW10540   2.156   0.048   2.514
 3363SOL    HW110541   2.145   0.143   2.514
 3363SOL    HW210542   2.168   0.025   2.606
 3364SOL     OW10543   3.483   0.383   2.219
 3364SOL    HW110544   3.507   0.317   2.283
 3364SOL    HW210545   3.458   0.460   2.270
 3365SOL     OW10546   2.894   0.764   2.822
 3365SOL    HW110547   2.886   0.779   2.917
 3365SOL    HW210548   2.863   0.674   2.810
 3366SOL     OW10549   2.844   1.567   3.581
 3366SOL    HW110550   2.829   1.610   3.497
 3366SOL    HW210551   2.887   1.484   3.558
 3367SOL     OW10552   3.715   1.503   3.467
 3367SOL    HW110553   3.735   1.530   3.377
 3367SOL    HW210554   3.796   1.519   3.515
 3368SOL     OW10555   2.216   0.917   3.671
 3368SOL    HW110556   2.297   0.936   3.718
 3368SOL    HW210557   2.241   0.853   3.604
 3369SOL     OW10558   3.390   0.262   1.990
 3369SOL    HW110559   3.321   0.205   2.022
 3369SOL    HW210560   3.422   0.309   2.067
 3370SOL     OW10561   3.151   0.826   1.891
 3370SOL    HW110562   3.192   0.740   1.894
 3370SOL    HW210563   3.182   0.865   1.809
 3371SOL     OW10564   2.929   1.337   2.717
 3371SOL    HW110565   2.933   1.265   2.654
 3371SOL    HW210566   2.989   1.403   2.681
 3372SOL     OW10567   2.170   0.810   2.808
 3372SOL    HW110568   2.263   0.832   2.802
 3372SOL    HW210569   2.169   0.720   2.841
 3373SOL     OW10570   2.197   0.535   2.876
 3373SOL    HW110571   2.154   0.451   2.858
 3373SOL    HW210572   2.273   0.535   2.818
 3374SOL     OW10573   2.999   0.371   3.563
 3374SOL    HW110574   2.947   0.434   3.612
 3374SOL    HW210575   3.083   0.415   3.549
 3375SOL     OW10576   3.015   0.215   3.336
 3375SOL    HW110577   3.011   0.278   3.407
 3375SOL    HW210578   3.059   0.261   3.264
 3376SOL     OW10579   1.868   1.319   2.056
 3376SOL    HW110580   1.781   1.335   2.019
 3376SOL    HW210581   1.865   1.230   2.090
 3377SOL     OW10582   1.961   1.779   2.793
 3377SOL    HW110583   1.930   1.698   2.751
 3377SOL    HW210584   2.047   1.794   2.754
 3378SOL     OW10585   2.352   1.573   2.763
 3378SOL    HW110586   2.421   1.634   2.790
 3378SOL    HW210587   2.396   1.509   2.708
 3379SOL     OW10588   2.840   0.792   3.088
 3379SOL    HW110589   2.898   0.771   3.161
 3379SOL    HW210590   2.757   0.749   3.110
 3380SOL     OW10591   1.894   0.545   2.981
 3380SOL    HW110592   1.971   0.527   2.926
 3380SOL    HW210593   1.929   0.548   3.070
 3381SOL     OW10594   2.046   0.523   3.586
 3381SOL    HW110595   2.124   0.504   3.533
 3381SOL    HW210596   2.006   0.598   3.543
 3382SOL     OW10597   3.242   0.936   3.519
 3382SOL    HW110598   3.262   1.029   3.516
 3382SOL    HW210599   3.237   0.909   3.428
 3383SOL     OW10600   2.672   0.578   2.222
 3383SOL    HW110601   2.678   0.506   2.158
 3383SOL    HW210602   2.599   0.631   2.192
 3384SOL     OW10603   3.500   0.602   3.045
 3384SOL    HW110604   3.490   0.543   3.119
 3384SOL    HW210605   3.588   0.584   3.011
 3385SOL     OW10606   2.108   1.548   3.594
 3385SOL    HW110607   2.079   1.608   3.662
 3385SOL    HW210608   2.109   1.462   3.637
 3386SOL     OW10609   2.571   0.457   3.123
 3386SOL    HW110610   2.520   0.381   3.093
 3386SOL    HW210611   2.567   0.518   3.049
 3387SOL     OW10612   2.786   1.678   3.332
 3387SOL    HW110613   2.762   1.640   3.247
 3387SOL    HW210614   2.783   1.773   3.317
 3388SOL     OW10615   2.324   0.492   2.044
 3388SOL    HW110616   2.383   0.563   2.067
 3388SOL    HW210617   2.239   0.534   2.031
 3389SOL     OW10618   2.006   1.142   3.336
 3389SOL    HW110619   2.007   1.092   3.418
 3389SOL    HW210620   2.022   1.076   3.268
 3390SOL     OW10621   3.185   1.045   3.083
 3390SOL    HW110622   3.207   0.981   3.015
 3390SOL    HW210623   3.117   1.100   3.043
 3391SOL     OW10624   3.177   0.857   2.167
 3391SOL    HW110625   3.103   0.827   2.220
 3391SOL    HW210626   3.148   0.844   2.076
 3392SOL     OW10627   3.640   1.739   3.016
 3392SOL    HW110628   3.699   1.766   2.946
 3392SOL    HW210629   3.612   1.651   2.993
 3393SOL     OW10630   3.103   1.733   2.972
 3393SOL    HW110631   3.185   1.755   2.928
 3393SOL    HW210632   3.110   1.639   2.991
 3394SOL     OW10633   1.950   1.264   2.874
 3394SOL    HW110634   1.933   1.280   2.967
 3394SOL    HW210635   1.875   1.213   2.844
 3395SOL     OW10636   2.542   1.667   3.596
 3395SOL    HW110637   2.486   1.744   3.586
 3395SOL    HW210638   2.611   1.679   3.530
 3396SOL     OW10639   3.581   0.128   2.348
 3396SOL    HW110640   3.650   0.141   2.282
 3396SOL    HW210641   3.615   0.059   2.405
 3397SOL     OW10642   3.254   1.568   2.350
 3397SOL    HW110643   3.313   1.601   2.282
 3397SOL    HW210644   3.204   1.644   2.378
 3398SOL     OW10645   1.990   1.806   3.706
 3398SOL    HW110646   1.943   1.735   3.750
 3398SOL    HW210647   2.043   1.846   3.774
 3399SOL     OW10648   3.141   0.929   2.535
 3399SOL    HW110649   3.214   0.868   2.542
 3399SOL    HW210650   3.175   1.001   2.481
 3400SOL     OW10651   2.671   1.275   3.288
 3400SOL    HW110652   2.643   1.315   3.371
 3400SOL    HW210653   2.601   1.296   3.226
 3401SOL     OW10654   2.532   1.624   2.016
 3401SOL    HW110655   2.545   1.636   1.922
 3401SOL    HW210656   2.476   1.547   2.023
 3402SOL     OW10657   3.484   1.727   3.253
 3402SOL    HW110658   3.536   1.733   3.173
 3402SOL    HW210659   3.470   1.818   3.280
 3403SOL     OW10660   3.702   0.152   2.827
 3403SOL    HW110661   3.733   0.074   2.782
 3403SOL    HW210662   3.615   0.168   2.790
 3404SOL     OW10663   2.123   0.318   2.576
 3404SOL    HW110664   2.038   0.354   2.551
 3404SOL    HW210665   2.119   0.312   2.671
 3405SOL     OW10666   3.070   1.603   1.894
 3405SOL    HW110667   3.059   1.512   1.921
 3405SOL    HW210668   3.004   1.617   1.826
 3406SOL     OW10669   2.685   1.006   3.236
 3406SOL    HW110670   2.729   0.999   3.151
 3406SOL    HW210671   2.684   1.100   3.255
 3407SOL     OW10672   2.778   0.910   2.152
 3407SOL    HW110673   2.839   0.943   2.086
 3407SOL    HW210674   2.826   0.842   2.198
 3408SOL     OW10675   3.352   1.627   1.906
 3408SOL    HW110676   3.258   1.618   1.891
 3408SOL    HW210677   3.389   1.633   1.818
 3409SOL     OW10678   2.230   1.304   3.354
 3409SOL    HW110679   2.218   1.381   3.299
 3409SOL    HW210680   2.153   1.249   3.339
 3410SOL     OW10681   3.472   1.284   3.142
 3410SOL    HW110682   3.529   1.269   3.217
 3410SOL    HW210683   3.411   1.351   3.172
 3411SOL     OW10684   2.919   1.109   2.570
 3411SOL    HW110685   2.847   1.059   2.608
 3411SOL    HW210686   2.983   1.043   2.543
 3412SOL     OW10687   2.864   0.247   2.874
 3412SOL    HW110688   2.871   0.230   2.780
 3412SOL    HW210689   2.855   0.160   2.913
 3413SOL     OW10690   2.466   1.489   2.342
 3413SOL    HW110691   2.510   1.439   2.274
 3413SOL    HW210692   2.401   1.542   2.296
 3414SOL     OW10693   3.586   0.394   3.237
 3414SOL    HW110694   3.660   0.455   3.237
 3414SOL    HW210695   3.614   0.323   3.180
 3415SOL     OW10696   2.123   1.344   2.152
 3415SOL    HW110697   2.030   1.341   2.129
 3415SOL    HW210698   2.125   1.383   2.240
 3416SOL     OW10699   1.976   1.026   3.584
 3416SOL    HW110700   1.899   1.001   3.636
 3416SOL    HW210701   2.050   0.986   3.629
 3417SOL     OW10702   2.519   0.205   3.364
 3417SOL    HW110703   2.597   0.181   3.316
 3417SOL    HW210704   2.550   0.229   3.451
 3418SOL     OW10705   1.945   0.331   1.910
 3418SOL    HW110706   1.875   0.277   1.874
 3418SOL    HW210707   1.954   0.403   1.847
 3419SOL     OW10708   3.289   0.858   3.260
 3419SOL    HW110709   3.240   0.919   3.205
 3419SOL    HW210710   3.378   0.860   3.224
 3420SOL     OW10711   1.924   0.188   2.174
 3420SOL    HW110712   1.926   0.256   2.107
 3420SOL    HW210713   1.998   0.131   2.154
 3421SOL     OW10714   3.040   1.337   1.979
 3421SOL    HW110715   2.950   1.306   1.981
 3421SOL    HW210716   3.067   1.338   2.071
 3422SOL     OW10717   2.482   0.830   3.297
 3422SOL    HW110718   2.538   0.906   3.281
 3422SOL    HW210719   2.543   0.757   3.305
 3423SOL     OW10720   3.345   1.780   2.843
 3423SOL    HW110721   3.367   1.843   2.774
 3423SOL    HW210722   3.429   1.757   2.882
 3424SOL     OW10723   2.578   0.561   3.566
 3424SOL    HW110724   2.620   0.624   3.624
 3424SOL    HW210725   2.604   0.475   3.599
 3425SOL     OW10726   3.335   1.197   3.493
 3425SOL    HW110727   3.322   1.211   3.586
 3425SOL    HW210728   3.428   1.214   3.478
 3426SOL     OW10729   2.245   1.733   3.431
 3426SOL    HW110730   2.159   1.768   3.409
 3426SOL    HW210731   2.227   1.649   3.473
 3427SOL     OW10732   3.528   0.880   3.117
 3427SOL    HW110733   3.523   0.795   3.074
 3427SOL    HW210734   3.518   0.944   3.046
 3428SOL     OW10735   3.082   0.333   2.308
 3428SOL    HW110736   3.149   0.266   2.295
 3428SOL    HW210737   3.110   0.380   2.386
 3429SOL     OW10738   2.446   0.735   2.536
 3429SOL    HW110739   2.489   0.820   2.521
 3429SOL    HW210740   2.382   0.728   2.466
 3430SOL     OW10741   3.620   0.370   3.506
 3430SOL    HW110742   3.605   0.384   3.412
 3430SOL    HW210743   3.544   0.322   3.536
 3431SOL     OW10744   3.610   0.933   3.373
 3431SOL    HW110745   3.601   1.028   3.386
 3431SOL    HW210746   3.593   0.920   3.280
 3432SOL     OW10747   2.725   1.366   1.900
 3432SOL    HW110748   2.687   1.392   1.984
 3432SOL    HW210749   2.741   1.449   1.855
 3433SOL     OW10750   2.531   1.772   2.800
 3433SOL    HW110751   2.514   1.863   2.778
 3433SOL    HW210752   2.626   1.764   2.800
 3434SOL     OW10753   2.731   0.970   2.716
 3434SOL    HW110754   2.781   0.898   2.754
 3434SOL    HW210755   2.693   1.015   2.792
 3435SOL     OW10756   2.941   0.989   1.951
 3435SOL    HW110757   2.918   1.040   1.873
 3435SOL    HW210758   3.014   0.934   1.924
 3436SOL     OW10759   3.713   1.555   2.706
 3436SOL    HW110760   3.634   1.542   2.653
 3436SOL    HW210761   3.707   1.487   2.773
 3437SOL     OW10762   2.087   1.299   3.718
 3437SOL    HW110763   2.022   1.237   3.683
 3437SOL    HW210764   2.061   1.312   3.809
 3438SOL     OW10765   1.950   1.231   2.526
 3438SOL    HW110766   1.956   1.186   2.611
 3438SOL    HW210767   2.017   1.188   2.472
 3439SOL     OW10768   2.545   1.405   3.491
 3439SOL    HW110769   2.465   1.361   3.523
 3439SOL    HW210770   2.541   1.493   3.530
 3440SOL     OW10771   3.666   0.178   3.100
 3440SOL    HW110772   3.663   0.084   3.119
 3440SOL    HW210773   3.684   0.183   3.006
 3441SOL     OW10774   2.300   0.432   2.394
 3441SOL    HW110775   2.320   0.364   2.330
 3441SOL    HW210776   2.243   0.389   2.458
 3442SOL     OW10777   3.560   1.488   2.956
 3442SOL    HW110778   3.480   1.467   2.907
 3442SOL    HW210779   3.567   1.418   3.021
 3443SOL     OW10780   2.195   0.560   3.155
 3443SOL    HW110781   2.250   0.502   3.208
 3443SOL    HW210782   2.213   0.533   3.065
 3444SOL     OW10783   2.692   1.577   2.538
 3444SOL    HW110784   2.671   1.634   2.463
 3444SOL    HW210785   2.617   1.518   2.544
 3445SOL     OW10786   3.293   0.217   2.978
 3445SOL    HW110787   3.328   0.145   3.031
 3445SOL    HW210788   3.242   0.270   3.040
 3446SOL     OW10789   2.857   0.002   3.015
 3446SOL    HW110790   2.818   4.414   3.010
 3446SOL    HW210791   2.951   4.487   3.024
 3447SOL     OW10792   2.636   1.333   2.179
 3447SOL    HW110793   2.606   1.243   2.187
 3447SOL    HW210794   2.717   1.336   2.230
 3448SOL     OW10795   2.483   1.554   3.147
 3448SOL    HW110796   2.483   1.637   3.195
 3448SOL    HW210797   2.571   1.548   3.110
 3449SOL     OW10798   3.200   0.051   2.020
 3449SOL    HW110799   3.238   4.475   1.976
 3449SOL    HW210800   3.124   0.017   2.066
 3450SOL     OW10801   3.177   0.465   2.534
 3450SOL    HW110802   3.120   0.542   2.535
 3450SOL    HW210803   3.166   0.425   2.621
 3451SOL     OW10804   3.447   0.198   2.731
 3451SOL    HW110805   3.389   0.214   2.805
 3451SOL    HW210806   3.450   0.281   2.684
 3452SOL     OW10807   1.905   1.068   2.169
 3452SOL    HW110808   1.999   1.060   2.151
 3452SOL    HW210809   1.877   0.980   2.191
 3453SOL     OW10810   2.748   1.657   2.202
 3453SOL    HW110811   2.675   1.639   2.142
 3453SOL    HW210812   2.718   1.730   2.255
 3454SOL     OW10813   2.088   0.624   3.847
 3454SOL    HW110814   2.001   0.618   3.888
 3454SOL    HW210815   2.075   0.597   3.757
 3455SOL     OW10816   2.067   0.302   4.715
 3455SOL    HW110817   2.099   0.270   4.799
 3455SOL    HW210818   1.986   0.254   4.700
 3456SOL     OW10819   1.868   0.390   4.360
 3456SOL    HW110820   1.782   0.407   4.397
 3456SOL    HW210821   1.853   0.317   4.299
 3457SOL     OW10822   2.423   1.270   4.892
 3457SOL    HW110823   2.338   1.278   4.850
 3457SOL    HW210824   2.446   1.359   4.919
 3458SOL     OW10825   3.427   1.513   4.432
 3458SOL    HW110826   3.385   1.491   4.515
 3458SOL    HW210827   3.355   1.517   4.369
 3459SOL     OW10828   3.001   0.697   4.419
 3459SOL    HW110829   3.045   0.781   4.410
 3459SOL    HW210830   2.949   0.705   4.499
 3460SOL     OW10831   3.635   0.603   3.950
 3460SOL    HW110832   3.611   0.596   3.857
 3460SOL    HW210833   3.599   0.525   3.990
 3461SOL     OW10834   2.621   1.137   4.766
 3461SOL    HW110835   2.548   1.168   4.820
 3461SOL    HW210836   2.654   1.216   4.723
 3462SOL     OW10837   2.732   0.768   5.547
 3462SOL    HW110838   2.718   0.839   5.609
 3462SOL    HW210839   2.755   0.813   5.465
 3463SOL     OW10840   2.548   0.999   4.368
 3463SOL    HW110841   2.614   0.989   4.437
 3463SOL    HW210842   2.479   1.052   4.409
 3464SOL     OW10843   2.578   1.151   5.542
 3464SOL    HW110844   2.625   1.229   5.570
 3464SOL    HW210845   2.495   1.184   5.507
 3465SOL     OW10846   2.199   1.397   4.771
 3465SOL    HW110847   2.116   1.362   4.740
 3465SOL    HW210848   2.229   1.454   4.700
 3466SOL     OW10849   3.323   1.500   5.081
 3466SOL    HW110850   3.374   1.580   5.089
 3466SOL    HW210851   3.256   1.507   5.150
 3467SOL     OW10852   2.306   0.393   5.209
 3467SOL    HW110853   2.388   0.344   5.212
 3467SOL    HW210854   2.238   0.328   5.223
 3468SOL     OW10855   3.470   0.443   4.463
 3468SOL    HW110856   3.389   0.462   4.414
 3468SOL    HW210857   3.484   0.520   4.517
 3469SOL     OW10858   2.080   1.717   4.192
 3469SOL    HW110859   2.097   1.792   4.248
 3469SOL    HW210860   2.158   1.708   4.138
 3470SOL     OW10861   3.001   1.340   5.417
 3470SOL    HW110862   3.039   1.335   5.505
 3470SOL    HW210863   2.949   1.260   5.410
 3471SOL     OW10864   2.092   1.444   4.265
 3471SOL    HW110865   2.070   1.537   4.267
 3471SOL    HW210866   2.031   1.404   4.328
 3472SOL     OW10867   2.124   1.090   4.616
 3472SOL    HW110868   2.121   1.001   4.652
 3472SOL    HW210869   2.066   1.140   4.672
 3473SOL     OW10870   2.444   0.984   3.861
 3473SOL    HW110871   2.492   1.030   3.792
 3473SOL    HW210872   2.483   1.015   3.943
 3474SOL     OW10873   3.440   0.117   5.191
 3474SOL    HW110874   3.474   0.184   5.131
 3474SOL    HW210875   3.429   0.163   5.275
 3475SOL     OW10876   1.980   0.655   4.285
 3475SOL    HW110877   1.949   0.567   4.307
 3475SOL    HW210878   1.971   0.705   4.366
 3476SOL     OW10879   3.705   1.757   4.056
 3476SOL    HW110880   3.771   1.729   4.119
 3476SOL    HW210881   3.726   1.848   4.037
 3477SOL     OW10882   1.902   1.593   3.845
 3477SOL    HW110883   1.881   1.501   3.863
 3477SOL    HW210884   1.874   1.640   3.924
 3478SOL     OW10885   3.553   0.921   4.368
 3478SOL    HW110886   3.634   0.876   4.345
 3478SOL    HW210887   3.529   0.971   4.290
 3479SOL     OW10888   3.510   1.105   4.153
 3479SOL    HW110889   3.597   1.108   4.112
 3479SOL    HW210890   3.515   1.167   4.225
 3480SOL     OW10891   1.984   0.746   5.307
 3480SOL    HW110892   2.075   0.776   5.312
 3480SOL    HW210893   1.933   0.827   5.313
 3481SOL     OW10894   2.471   1.387   4.457
 3481SOL    HW110895   2.427   1.302   4.466
 3481SOL    HW210896   2.456   1.412   4.366
 3482SOL     OW10897   3.152   1.236   5.146
 3482SOL    HW110898   3.182   1.168   5.086
 3482SOL    HW210899   3.210   1.229   5.222
 3483SOL     OW10900   2.682   0.019   4.279
 3483SOL    HW110901   2.719   0.102   4.252
 3483SOL    HW210902   2.587   0.031   4.271
 3484SOL     OW10903   2.049   0.962   4.998
 3484SOL    HW110904   2.136   0.923   4.984
 3484SOL    HW210905   1.991   0.913   4.940
 3485SOL     OW10906   3.394   0.996   3.924
 3485SOL    HW110907   3.324   0.939   3.956
 3485SOL    HW210908   3.435   1.030   4.003
 3486SOL     OW10909   3.026   1.804   5.328
 3486SOL    HW110910   3.059   1.874   5.271
 3486SOL    HW210911   3.071   1.726   5.298
 3487SOL     OW10912   2.178   0.252   5.503
 3487SOL    HW110913   2.241   0.316   5.535
 3487SOL    HW210914   2.104   0.258   5.564
 3488SOL     OW10915   3.333   1.417   4.675
 3488SOL    HW110916   3.264   1.434   4.739
 3488SOL    HW210917   3.319   1.327   4.647
 3489SOL     OW10918   3.518   1.746   4.302
 3489SOL    HW110919   3.499   1.715   4.213
 3489SOL    HW210920   3.495   1.673   4.359
 3490SOL     OW10921   2.453   0.722   3.991
 3490SOL    HW110922   2.456   0.805   3.944
 3490SOL    HW210923   2.388   0.735   4.060
 3491SOL     OW10924   3.155   0.371   4.656
 3491SOL    HW110925   3.066   0.341   4.639
 3491SOL    HW210926   3.190   0.306   4.717
 3492SOL     OW10927   3.441   1.673   4.034
 3492SOL    HW110928   3.532   1.701   4.026
 3492SOL    HW210929   3.413   1.656   3.944
 3493SOL     OW10930   2.657   0.621   5.177
 3493SOL    HW110931   2.629   0.593   5.265
 3493SOL    HW210932   2.622   0.554   5.119
 3494SOL     OW10933   3.250   0.482   5.400
 3494SOL    HW110934   3.254   0.526   5.485
 3494SOL    HW210935   3.316   0.413   5.405
 3495SOL     OW10936   2.814   0.886   5.309
 3495SOL    HW110937   2.869   0.816   5.272
 3495SOL    HW210938   2.765   0.920   5.234
 3496SOL     OW10939   2.860   0.417   4.957
 3496SOL    HW110940   2.770   0.424   4.988
 3496SOL    HW210941   2.854   0.363   4.878
 3497SOL     OW10942   2.913   0.698   4.149
 3497SOL    HW110943   2.931   0.689   4.243
 3497SOL    HW210944   2.829   0.653   4.137
 3498SOL     OW10945   1.950   0.821   4.501
 3498SOL    HW110946   2.030   0.815   4.553
 3498SOL    HW210947   1.905   0.899   4.535
 3499SOL     OW10948   2.719   0.371   3.912
 3499SOL    HW110949   2.786   0.404   3.853
 3499SOL    HW210950   2.731   0.276   3.912
 3500SOL     OW10951   3.564   0.571   5.553
 3500SOL    HW110952   3.529   0.646   5.503
 3500SOL    HW210953   3.600   0.513   5.486
 3501SOL     OW10954   3.241   1.142   4.264
 3501SOL    HW110955   3.320   1.131   4.211
 3501SOL    HW210956   3.188   1.205   4.215
 3502SOL     OW10957   2.397   0.207   4.626
 3502SOL    HW110958   2.420   0.225   4.717
 3502SOL    HW210959   2.392   0.293   4.585
 3503SOL     OW10960   2.865   1.442   4.193
 3503SOL    HW110961   2.831   1.518   4.144
 3503SOL    HW210962   2.844   1.462   4.284
 3504SOL     OW10963   2.251   1.812   4.556
 3504SOL    HW110964   2.268   1.718   4.564
 3504SOL    HW210965   2.312   1.852   4.617
 3505SOL     OW10966   3.661   1.057   4.594
 3505SOL    HW110967   3.609   1.035   4.517
 3505SOL    HW210968   3.598   1.062   4.666
 3506SOL     OW10969   3.090   1.536   5.234
 3506SOL    HW110970   3.078   1.468   5.300
 3506SOL    HW210971   3.034   1.509   5.161
 3507SOL     OW10972   2.179   0.958   3.976
 3507SOL    HW110973   2.261   0.978   3.931
 3507SOL    HW210974   2.149   0.876   3.938
 3508SOL     OW10975   3.344   0.746   4.446
 3508SOL    HW110976   3.335   0.704   4.532
 3508SOL    HW210977   3.421   0.802   4.454
 3509SOL     OW10978   2.332   1.264   5.475
 3509SOL    HW110979   2.305   1.260   5.383
 3509SOL    HW210980   2.250   1.266   5.524
 3510SOL     OW10981   2.985   1.779   3.953
 3510SOL    HW110982   2.911   1.738   3.998
 3510SOL    HW210983   3.009   1.715   3.885
 3511SOL     OW10984   2.048   0.268   5.240
 3511SOL    HW110985   1.983   0.337   5.228
 3511SOL    HW210986   2.070   0.270   5.333
 3512SOL     OW10987   3.491   1.381   3.812
 3512SOL    HW110988   3.449   1.466   3.798
 3512SOL    HW210989   3.423   1.317   3.793
 3513SOL     OW10990   2.327   1.736   4.045
 3513SOL    HW110991   2.372   1.794   4.106
 3513SOL    HW210992   2.397   1.700   3.990
 3514SOL     OW10993   3.289   0.146   4.143
 3514SOL    HW110994   3.272   0.089   4.068
 3514SOL    HW210995   3.382   0.133   4.162
 3515SOL     OW10996   2.811   1.696   4.609
 3515SOL    HW110997   2.879   1.638   4.644
 3515SOL    HW210998   2.766   1.643   4.543
 3516SOL     OW10999   2.257   0.693   4.197
 3516SOL    HW111000   2.278   0.601   4.213
 3516SOL    HW211001   2.163   0.700   4.215
 3517SOL     OW11002   3.386   0.234   5.447
 3517SOL    HW111003   3.386   0.255   5.540
 3517SOL    HW211004   3.306   0.182   5.434
 3518SOL     OW11005   2.494   0.121   3.849
 3518SOL    HW111006   2.582   0.085   3.858
 3518SOL    HW211007   2.460   0.081   3.769
 3519SOL     OW11008   2.630   0.271   5.480
 3519SOL    HW111009   2.698   0.204   5.480
 3519SOL    HW211010   2.591   0.266   5.567
 3520SOL     OW11011   2.733   1.522   4.941
 3520SOL    HW111012   2.718   1.503   4.848
 3520SOL    HW211013   2.807   1.465   4.965
 3521SOL     OW11014   3.202   0.590   5.152
 3521SOL    HW111015   3.229   0.562   5.239
 3521SOL    HW211016   3.236   0.679   5.143
 3522SOL     OW11017   2.674   1.392   4.665
 3522SOL    HW111018   2.761   1.383   4.626
 3522SOL    HW211019   2.614   1.394   4.591
 3523SOL     OW11020   2.787   0.523   4.621
 3523SOL    HW111021   2.770   0.521   4.526
 3523SOL    HW211022   2.819   0.436   4.642
 3524SOL     OW11023   2.418   0.082   4.248
 3524SOL    HW111024   2.332   0.048   4.271
 3524SOL    HW211025   2.401   0.142   4.175
 3525SOL     OW11026   3.290   1.199   3.765
 3525SOL    HW111027   3.320   1.124   3.815
 3525SOL    HW211028   3.205   1.221   3.802
 3526SOL     OW11029   2.155   0.064   3.929
 3526SOL    HW111030   2.232   0.119   3.913
 3526SOL    HW211031   2.185   0.000   3.994
 3527SOL     OW11032   2.819   0.240   4.187
 3527SOL    HW111033   2.767   0.304   4.139
 3527SOL    HW211034   2.908   0.273   4.182
 3528SOL     OW11035   2.942   0.683   5.183
 3528SOL    HW111036   2.872   0.617   5.182
 3528SOL    HW211037   3.023   0.632   5.171
 3529SOL     OW11038   3.090   1.564   4.515
 3529SOL    HW111039   3.098   1.633   4.449
 3529SOL    HW211040   3.152   1.588   4.583
 3530SOL     OW11041   2.332   1.150   4.454
 3530SOL    HW111042   2.264   1.130   4.519
 3530SOL    HW211043   2.290   1.135   4.369
 3531SOL     OW11044   3.127   1.791   4.334
 3531SOL    HW111045   3.172   1.857   4.281
 3531SOL    HW211046   3.056   1.838   4.376
 3532SOL     OW11047   2.889   0.543   3.744
 3532SOL    HW111048   2.841   0.625   3.729
 3532SOL    HW211049   2.948   0.563   3.817
 3533SOL     OW11050   1.948   0.548   5.121
 3533SOL    HW111051   2.038   0.553   5.090
 3533SOL    HW211052   1.939   0.621   5.183
 3534SOL     OW11053   2.423   0.247   4.894
 3534SOL    HW111054   2.448   0.165   4.937
 3534SOL    HW211055   2.330   0.259   4.916
 3535SOL     OW11056   2.726   0.505   4.352
 3535SOL    HW111057   2.688   0.541   4.272
 3535SOL    HW211058   2.678   0.423   4.367
 3536SOL     OW11059   2.814   0.015   4.520
 3536SOL    HW111060   2.770   0.018   4.435
 3536SOL    HW211061   2.831   4.422   4.535
 3537SOL     OW11062   3.300   1.161   4.580
 3537SOL    HW111063   3.229   1.096   4.581
 3537SOL    HW211064   3.323   1.170   4.488
 3538SOL     OW11065   3.326   0.608   4.693
 3538SOL    HW111066   3.271   0.530   4.694
 3538SOL    HW211067   3.382   0.598   4.770
 3539SOL     OW11068   3.705   0.814   4.108
 3539SOL    HW111069   3.762   0.764   4.166
 3539SOL    HW211070   3.679   0.751   4.041
 3540SOL     OW11071   2.350   1.421   3.879
 3540SOL    HW111072   2.275   1.392   3.930
 3540SOL    HW211073   2.342   1.374   3.796
 3541SOL     OW11074   3.535   1.265   4.366
 3541SOL    HW111075   3.630   1.266   4.382
 3541SOL    HW211076   3.506   1.353   4.388
 3542SOL     OW11077   3.257   0.572   3.793
 3542SOL    HW111078   3.194   0.556   3.864
 3542SOL    HW211079   3.342   0.556   3.833
 3543SOL     OW11080   2.379   0.265   4.045
 3543SOL    HW111081   2.431   0.216   3.981
 3543SOL    HW211082   2.360   0.348   4.002
 3544SOL     OW11083   3.613   1.241   5.292
 3544SOL    HW111084   3.700   1.202   5.287
 3544SOL    HW211085   3.628   1.331   5.321
 3545SOL     OW11086   2.923   1.355   5.062
 3545SOL    HW111087   2.848   1.321   5.111
 3545SOL    HW211088   2.998   1.309   5.100
 3546SOL     OW11089   3.470   1.626   5.380
 3546SOL    HW111090   3.464   1.660   5.291
 3546SOL    HW211091   3.553   1.577   5.381
 3547SOL     OW11092   2.995   1.208   4.828
 3547SOL    HW111093   2.932   1.243   4.891
 3547SOL    HW211094   2.964   1.239   4.743
 3548SOL     OW11095   3.487   1.096   4.801
 3548SOL    HW111096   3.481   1.159   4.873
 3548SOL    HW211097   3.410   1.114   4.747
 3549SOL     OW11098   2.760   0.136   5.109
 3549SOL    HW111099   2.783   0.090   5.028
 3549SOL    HW211100   2.844   0.155   5.150
 3550SOL     OW11101   2.846   1.115   5.448
 3550SOL    HW111102   2.755   1.131   5.471
 3550SOL    HW211103   2.844   1.037   5.392
 3551SOL     OW11104   2.572   1.063   4.095
 3551SOL    HW111105   2.557   1.044   4.187
 3551SOL    HW211106   2.647   1.009   4.071
 3552SOL     OW11107   2.283   0.818   4.976
 3552SOL    HW111108   2.351   0.827   5.042
 3552SOL    HW211109   2.248   0.730   4.989
 3553SOL     OW11110   3.130   0.374   4.999
 3553SOL    HW111111   3.162   0.453   5.042
 3553SOL    HW211112   3.040   0.396   4.974
 3554SOL     OW11113   2.205   1.113   4.213
 3554SOL    HW111114   2.207   1.187   4.152
 3554SOL    HW211115   2.203   1.036   4.158
 3555SOL     OW11116   2.415   0.525   4.581
 3555SOL    HW111117   2.427   0.585   4.508
 3555SOL    HW211118   2.481   0.552   4.645
 3556SOL     OW11119   3.110   1.349   4.113
 3556SOL    HW111120   3.166   1.421   4.145
 3556SOL    HW211121   3.023   1.370   4.147
 3557SOL     OW11122   3.149   1.455   4.870
 3557SOL    HW111123   3.203   1.459   4.948
 3557SOL    HW211124   3.093   1.378   4.882
 3558SOL     OW11125   3.441   0.623   4.203
 3558SOL    HW111126   3.393   0.668   4.272
 3558SOL    HW211127   3.484   0.692   4.154
 3559SOL     OW11128   2.192   1.454   5.032
 3559SOL    HW111129   2.191   1.438   4.938
 3559SOL    HW211130   2.261   1.520   5.044
 3560SOL     OW11131   2.280   0.742   5.328
 3560SOL    HW111132   2.339   0.789   5.269
 3560SOL    HW211133   2.325   0.660   5.346
 3561SOL     OW11134   3.467   0.780   5.408
 3561SOL    HW111135   3.381   0.822   5.401
 3561SOL    HW211136   3.520   0.821   5.339
 3562SOL     OW11137   2.860   0.088   5.438
 3562SOL    HW111138   2.902   0.165   5.401
 3562SOL    HW211139   2.884   0.017   5.378
 3563SOL     OW11140   2.361   0.042   5.487
 3563SOL    HW111141   2.372   0.012   5.397
 3563SOL    HW211142   2.295   0.110   5.482
 3564SOL     OW11143   2.444   0.874   4.754
 3564SOL    HW111144   2.477   0.963   4.756
 3564SOL    HW211145   2.389   0.867   4.832
 3565SOL     OW11146   3.214   0.858   4.749
 3565SOL    HW111147   3.129   0.845   4.708
 3565SOL    HW211148   3.258   0.773   4.740
 3566SOL     OW11149   3.061   0.536   3.982
 3566SOL    HW111150   3.069   0.457   4.035
 3566SOL    HW211151   3.018   0.599   4.040
 3567SOL     OW11152   2.152   0.231   4.967
 3567SOL    HW111153   2.104   0.247   5.048
 3567SOL    HW211154   2.191   0.145   4.979
 3568SOL     OW11155   1.916   1.334   5.016
 3568SOL    HW111156   1.934   1.262   5.077
 3568SOL    HW211157   1.992   1.392   5.024
 3569SOL     OW11158   2.583   0.630   4.778
 3569SOL    HW111159   2.659   0.614   4.721
 3569SOL    HW211160   2.555   0.719   4.755
 3570SOL     OW11161   3.599   0.959   5.579
 3570SOL    HW111162   3.554   0.895   5.525
 3570SOL    HW211163   3.539   0.975   5.652
 3571SOL     OW11164   2.155   0.048   4.376
 3571SOL    HW111165   2.145   0.143   4.376
 3571SOL    HW211166   2.168   0.025   4.468
 3572SOL     OW11167   3.483   0.383   4.081
 3572SOL    HW111168   3.507   0.317   4.145
 3572SOL    HW211169   3.458   0.460   4.132
 3573SOL     OW11170   2.894   0.764   4.684
 3573SOL    HW111171   2.886   0.779   4.779
 3573SOL    HW211172   2.863   0.674   4.672
 3574SOL     OW11173   2.847   1.562   5.451
 3574SOL    HW111174   2.825   1.606   5.369
 3574SOL    HW211175   2.889   1.480   5.424
 3575SOL     OW11176   3.715   1.503   5.329
 3575SOL    HW111177   3.734   1.530   5.240
 3575SOL    HW211178   3.796   1.519   5.377
 3576SOL     OW11179   2.215   0.916   5.533
 3576SOL    HW111180   2.296   0.937   5.579
 3576SOL    HW211181   2.241   0.853   5.466
 3577SOL     OW11182   3.390   0.262   3.852
 3577SOL    HW111183   3.321   0.205   3.884
 3577SOL    HW211184   3.422   0.308   3.929
 3578SOL     OW11185   3.150   0.826   3.753
 3578SOL    HW111186   3.192   0.740   3.756
 3578SOL    HW211187   3.182   0.865   3.671
 3579SOL     OW11188   2.927   1.338   4.580
 3579SOL    HW111189   2.931   1.266   4.518
 3579SOL    HW211190   2.989   1.403   4.546
 3580SOL     OW11191   2.170   0.810   4.670
 3580SOL    HW111192   2.263   0.832   4.664
 3580SOL    HW211193   2.169   0.720   4.702
 3581SOL     OW11194   2.197   0.535   4.738
 3581SOL    HW111195   2.154   0.451   4.720
 3581SOL    HW211196   2.274   0.535   4.681
 3582SOL     OW11197   2.999   0.371   5.425
 3582SOL    HW111198   2.946   0.434   5.474
 3582SOL    HW211199   3.083   0.415   5.411
 3583SOL     OW11200   3.015   0.215   5.198
 3583SOL    HW111201   3.011   0.279   5.269
 3583SOL    HW211202   3.058   0.261   5.127
 3584SOL     OW11203   1.870   1.319   3.917
 3584SOL    HW111204   1.782   1.334   3.881
 3584SOL    HW211205   1.865   1.230   3.952
 3585SOL     OW11206   2.376   1.576   4.629
 3585SOL    HW111207   2.456   1.612   4.666
 3585SOL    HW211208   2.405   1.509   4.567
 3586SOL     OW11209   2.840   0.791   4.950
 3586SOL    HW111210   2.898   0.770   5.023
 3586SOL    HW211211   2.757   0.749   4.971
 3587SOL     OW11212   1.894   0.545   4.843
 3587SOL    HW111213   1.970   0.527   4.788
 3587SOL    HW211214   1.929   0.547   4.932
 3588SOL     OW11215   2.047   0.522   5.448
 3588SOL    HW111216   2.125   0.504   5.395
 3588SOL    HW211217   2.007   0.598   5.405
 3589SOL     OW11218   3.241   0.936   5.382
 3589SOL    HW111219   3.262   1.029   5.378
 3589SOL    HW211220   3.237   0.909   5.290
 3590SOL     OW11221   2.672   0.577   4.084
 3590SOL    HW111222   2.678   0.506   4.020
 3590SOL    HW211223   2.599   0.631   4.054
 3591SOL     OW11224   3.500   0.602   4.907
 3591SOL    HW111225   3.490   0.543   4.981
 3591SOL    HW211226   3.588   0.584   4.873
 3592SOL     OW11227   2.086   1.542   5.441
 3592SOL    HW111228   2.093   1.620   5.495
 3592SOL    HW211229   2.108   1.470   5.500
 3593SOL     OW11230   2.570   0.457   4.985
 3593SOL    HW111231   2.520   0.381   4.955
 3593SOL    HW211232   2.567   0.518   4.911
 3594SOL     OW11233   2.792   1.672   5.203
 3594SOL    HW111234   2.788   1.634   5.115
 3594SOL    HW211235   2.866   1.733   5.200
 3595SOL     OW11236   2.324   0.492   3.906
 3595SOL    HW111237   2.383   0.563   3.929
 3595SOL    HW211238   2.239   0.534   3.893
 3596SOL     OW11239   1.995   1.136   5.196
 3596SOL    HW111240   1.998   1.086   5.278
 3596SOL    HW211241   2.015   1.071   5.128
 3597SOL     OW11242   3.185   1.044   4.945
 3597SOL    HW111243   3.207   0.981   4.877
 3597SOL    HW211244   3.117   1.099   4.906
 3598SOL     OW11245   3.177   0.856   4.028
 3598SOL    HW111246   3.103   0.828   4.082
 3598SOL    HW211247   3.148   0.843   3.938
 3599SOL     OW11248   3.639   1.740   4.878
 3599SOL    HW111249   3.699   1.766   4.808
 3599SOL    HW211250   3.612   1.651   4.855
 3600SOL     OW11251   3.122   1.733   4.848
 3600SOL    HW111252   3.198   1.751   4.794
 3600SOL    HW211253   3.121   1.637   4.857
 3601SOL     OW11254   1.954   1.255   4.751
 3601SOL    HW111255   1.924   1.277   4.839
 3601SOL    HW211256   1.876   1.220   4.708
 3602SOL     OW11257   2.541   1.658   5.418
 3602SOL    HW111258   2.494   1.740   5.430
 3602SOL    HW211259   2.618   1.681   5.365
 3603SOL     OW11260   3.581   0.129   4.210
 3603SOL    HW111261   3.650   0.141   4.144
 3603SOL    HW211262   3.615   0.059   4.267
 3604SOL     OW11263   3.253   1.568   4.211
 3604SOL    HW111264   3.312   1.603   4.144
 3604SOL    HW211265   3.204   1.644   4.241
 3605SOL     OW11266   2.026   1.800   5.551
 3605SOL    HW111267   1.967   1.751   5.606
 3605SOL    HW211268   2.064   1.867   5.608
 3606SOL     OW11269   3.141   0.929   4.397
 3606SOL    HW111270   3.214   0.868   4.404
 3606SOL    HW211271   3.175   1.001   4.343
 3607SOL     OW11272   2.679   1.270   5.154
 3607SOL    HW111273   2.647   1.309   5.235
 3607SOL    HW211274   2.614   1.293   5.089
 3608SOL     OW11275   2.530   1.624   3.880
 3608SOL    HW111276   2.544   1.637   3.786
 3608SOL    HW211277   2.475   1.546   3.885
 3609SOL     OW11278   3.485   1.727   5.116
 3609SOL    HW111279   3.535   1.733   5.034
 3609SOL    HW211280   3.471   1.817   5.142
 3610SOL     OW11281   3.702   0.152   4.689
 3610SOL    HW111282   3.733   0.074   4.644
 3610SOL    HW211283   3.615   0.168   4.652
 3611SOL     OW11284   2.123   0.317   4.438
 3611SOL    HW111285   2.038   0.354   4.413
 3611SOL    HW211286   2.119   0.312   4.533
 3612SOL     OW11287   3.070   1.603   3.756
 3612SOL    HW111288   3.059   1.512   3.783
 3612SOL    HW211289   3.005   1.616   3.688
 3613SOL     OW11290   2.685   1.004   5.097
 3613SOL    HW111291   2.730   0.997   5.013
 3613SOL    HW211292   2.687   1.097   5.119
 3614SOL     OW11293   2.778   0.910   4.014
 3614SOL    HW111294   2.839   0.943   3.948
 3614SOL    HW211295   2.826   0.842   4.060
 3615SOL     OW11296   3.352   1.627   3.768
 3615SOL    HW111297   3.258   1.618   3.753
 3615SOL    HW211298   3.389   1.633   3.680
 3616SOL     OW11299   2.232   1.272   5.228
 3616SOL    HW111300   2.226   1.341   5.162
 3616SOL    HW211301   2.152   1.221   5.217
 3617SOL     OW11302   3.472   1.283   5.004
 3617SOL    HW111303   3.530   1.269   5.079
 3617SOL    HW211304   3.411   1.351   5.033
 3618SOL     OW11305   2.919   1.109   4.433
 3618SOL    HW111306   2.847   1.058   4.470
 3618SOL    HW211307   2.983   1.044   4.405
 3619SOL     OW11308   2.864   0.247   4.736
 3619SOL    HW111309   2.871   0.230   4.642
 3619SOL    HW211310   2.855   0.160   4.775
 3620SOL     OW11311   2.466   1.488   4.203
 3620SOL    HW111312   2.515   1.438   4.138
 3620SOL    HW211313   2.390   1.522   4.156
 3621SOL     OW11314   3.586   0.394   5.100
 3621SOL    HW111315   3.660   0.455   5.099
 3621SOL    HW211316   3.614   0.323   5.043
 3622SOL     OW11317   2.123   1.345   4.019
 3622SOL    HW111318   2.031   1.341   3.993
 3622SOL    HW211319   2.122   1.382   4.107
 3623SOL     OW11320   1.975   1.025   5.445
 3623SOL    HW111321   1.899   1.001   5.498
 3623SOL    HW211322   2.050   0.986   5.491
 3624SOL     OW11323   2.519   0.205   5.227
 3624SOL    HW111324   2.597   0.181   5.178
 3624SOL    HW211325   2.551   0.229   5.313
 3625SOL     OW11326   1.945   0.331   3.771
 3625SOL    HW111327   1.875   0.277   3.735
 3625SOL    HW211328   1.954   0.403   3.709
 3626SOL     OW11329   3.289   0.858   5.122
 3626SOL    HW111330   3.240   0.919   5.067
 3626SOL    HW211331   3.378   0.860   5.086
 3627SOL     OW11332   1.924   0.188   4.036
 3627SOL    HW111333   1.926   0.256   3.969
 3627SOL    HW211334   1.998   0.131   4.015
 3628SOL     OW11335   3.040   1.337   3.841
 3628SOL    HW111336   2.950   1.305   3.844
 3628SOL    HW211337   3.068   1.338   3.933
 3629SOL     OW11338   2.482   0.830   5.159
 3629SOL    HW111339   2.538   0.906   5.143
 3629SOL    HW211340   2.543   0.756   5.167
 3630SOL     OW11341   3.350   1.778   4.700
 3630SOL    HW111342   3.372   1.841   4.630
 3630SOL    HW211343   3.435   1.758   4.740
 3631SOL     OW11344   2.577   0.561   5.428
 3631SOL    HW111345   2.620   0.624   5.487
 3631SOL    HW211346   2.604   0.475   5.461
 3632SOL     OW11347   3.336   1.196   5.355
 3632SOL    HW111348   3.323   1.211   5.448
 3632SOL    HW211349   3.429   1.214   5.340
 3633SOL     OW11350   3.528   0.880   4.979
 3633SOL    HW111351   3.523   0.795   4.936
 3633SOL    HW211352   3.518   0.944   4.909
 3634SOL     OW11353   3.082   0.332   4.170
 3634SOL    HW111354   3.149   0.266   4.157
 3634SOL    HW211355   3.110   0.380   4.248
 3635SOL     OW11356   2.446   0.736   4.399
 3635SOL    HW111357   2.489   0.820   4.383
 3635SOL    HW211358   2.382   0.728   4.328
 3636SOL     OW11359   3.620   0.371   5.368
 3636SOL    HW111360   3.605   0.384   5.275
 3636SOL    HW211361   3.544   0.322   5.398
 3637SOL     OW11362   3.610   0.933   5.235
 3637SOL    HW111363   3.601   1.028   5.248
 3637SOL    HW211364   3.593   0.920   5.142
 3638SOL     OW11365   2.724   1.366   3.762
 3638SOL    HW111366   2.688   1.393   3.847
 3638SOL    HW211367   2.742   1.448   3.716
 3639SOL     OW11368   2.731   0.967   4.576
 3639SOL    HW111369   2.782   0.896   4.615
 3639SOL    HW211370   2.696   1.015   4.652
 3640SOL     OW11371   2.941   0.990   3.813
 3640SOL    HW111372   2.918   1.040   3.735
 3640SOL    HW211373   3.014   0.935   3.786
 3641SOL     OW11374   3.713   1.555   4.568
 3641SOL    HW111375   3.634   1.542   4.514
 3641SOL    HW211376   3.706   1.488   4.636
 3642SOL     OW11377   2.087   1.298   5.586
 3642SOL    HW111378   2.027   1.237   5.543
 3642SOL    HW211379   2.046   1.316   5.670
 3643SOL     OW11380   1.949   1.222   4.383
 3643SOL    HW111381   1.957   1.181   4.469
 3643SOL    HW211382   2.021   1.184   4.332
 3644SOL     OW11383   2.539   1.398   5.346
 3644SOL    HW111384   2.463   1.359   5.390
 3644SOL    HW211385   2.540   1.489   5.375
 3645SOL     OW11386   3.666   0.178   4.962
 3645SOL    HW111387   3.663   0.084   4.981
 3645SOL    HW211388   3.684   0.183   4.868
 3646SOL     OW11389   2.300   0.432   4.256
 3646SOL    HW111390   2.320   0.364   4.192
 3646SOL    HW211391   2.243   0.389   4.320
 3647SOL     OW11392   3.561   1.488   4.818
 3647SOL    HW111393   3.482   1.467   4.769
 3647SOL    HW211394   3.568   1.417   4.883
 3648SOL     OW11395   2.195   0.560   5.017
 3648SOL    HW111396   2.250   0.503   5.070
 3648SOL    HW211397   2.213   0.534   4.926
 3649SOL     OW11398   2.690   1.571   4.395
 3649SOL    HW111399   2.674   1.636   4.326
 3649SOL    HW211400   2.613   1.515   4.393
 3650SOL     OW11401   3.293   0.217   4.840
 3650SOL    HW111402   3.328   0.145   4.893
 3650SOL    HW211403   3.242   0.270   4.902
 3651SOL     OW11404   2.857   0.002   4.878
 3651SOL    HW111405   2.818   4.414   4.872
 3651SOL    HW211406   2.951   4.487   4.886
 3652SOL     OW11407   2.635   1.334   4.042
 3652SOL    HW111408   2.607   1.243   4.049
 3652SOL    HW211409   2.717   1.337   4.092
 3653SOL     OW11410   3.201   0.051   3.883
 3653SOL    HW111411   3.238   4.475   3.838
 3653SOL    HW211412   3.124   0.017   3.928
 3654SOL     OW11413   3.177   0.465   4.396
 3654SOL    HW111414   3.120   0.542   4.397
 3654SOL    HW211415   3.166   0.425   4.483
 3655SOL     OW11416   3.447   0.198   4.593
 3655SOL    HW111417   3.389   0.214   4.667
 3655SOL    HW211418   3.450   0.281   4.546
 3656SOL     OW11419   1.905   1.068   4.030
 3656SOL    HW111420   1.999   1.060   4.012
 3656SOL    HW211421   1.877   0.980   4.053
 3657SOL     OW11422   2.750   1.656   4.062
 3657SOL    HW111423   2.675   1.638   4.004
 3657SOL    HW211424   2.721   1.729   4.117
 3658SOL     OW11425   2.088   0.624   5.709
 3658SOL    HW111426   2.001   0.617   5.749
 3658SOL    HW211427   2.075   0.597   5.619
 3659SOL     OW11428   2.067   0.302   6.577
 3659SOL    HW111429   2.099   0.270   6.661
 3659SOL    HW211430   1.986   0.254   6.562
 3660SOL     OW11431   1.868   0.390   6.222
 3660SOL    HW111432   1.782   0.407   6.259
 3660SOL    HW211433   1.854   0.318   6.161
 3661SOL     OW11434   2.430   1.294   6.764
 3661SOL    HW111435   2.341   1.296   6.728
 3661SOL    HW211436   2.445   1.383   6.797
 3662SOL     OW11437   3.428   1.513   6.294
 3662SOL    HW111438   3.385   1.491   6.376
 3662SOL    HW211439   3.358   1.516   6.229
 3663SOL     OW11440   3.001   0.697   6.281
 3663SOL    HW111441   3.044   0.782   6.272
 3663SOL    HW211442   2.949   0.705   6.361
 3664SOL     OW11443   3.634   0.604   5.812
 3664SOL    HW111444   3.611   0.596   5.719
 3664SOL    HW211445   3.599   0.524   5.852
 3665SOL     OW11446   2.612   1.140   6.631
 3665SOL    HW111447   2.545   1.176   6.688
 3665SOL    HW211448   2.652   1.216   6.589
 3666SOL     OW11449   2.732   0.768   7.409
 3666SOL    HW111450   2.718   0.839   7.473
 3666SOL    HW211451   2.756   0.813   7.328
 3667SOL     OW11452   2.548   1.000   6.232
 3667SOL    HW111453   2.614   0.989   6.301
 3667SOL    HW211454   2.479   1.051   6.273
 3668SOL     OW11455   2.574   1.150   7.401
 3668SOL    HW111456   2.622   1.228   7.430
 3668SOL    HW211457   2.493   1.183   7.364
 3669SOL     OW11458   2.190   1.420   6.657
 3669SOL    HW111459   2.117   1.382   6.609
 3669SOL    HW211460   2.238   1.470   6.592
 3670SOL     OW11461   3.321   1.501   6.944
 3670SOL    HW111462   3.375   1.580   6.953
 3670SOL    HW211463   3.256   1.509   7.013
 3671SOL     OW11464   2.306   0.394   7.071
 3671SOL    HW111465   2.388   0.344   7.074
 3671SOL    HW211466   2.238   0.328   7.085
 3672SOL     OW11467   3.470   0.442   6.325
 3672SOL    HW111468   3.390   0.462   6.276
 3672SOL    HW211469   3.484   0.520   6.378
 3673SOL     OW11470   2.999   1.342   7.280
 3673SOL    HW111471   3.040   1.336   7.366
 3673SOL    HW211472   2.947   1.262   7.272
 3674SOL     OW11473   2.075   1.455   6.140
 3674SOL    HW111474   2.037   1.523   6.195
 3674SOL    HW211475   2.038   1.373   6.175
 3675SOL     OW11476   2.127   1.091   6.479
 3675SOL    HW111477   2.122   1.003   6.517
 3675SOL    HW211478   2.067   1.143   6.532
 3676SOL     OW11479   2.468   1.791   7.010
 3676SOL    HW111480   2.388   1.773   7.059
 3676SOL    HW211481   2.493   1.880   7.037
 3677SOL     OW11482   2.444   0.984   5.723
 3677SOL    HW111483   2.492   1.030   5.654
 3677SOL    HW211484   2.483   1.015   5.804
 3678SOL     OW11485   3.440   0.117   7.053
 3678SOL    HW111486   3.474   0.184   6.993
 3678SOL    HW211487   3.429   0.163   7.137
 3679SOL     OW11488   1.981   0.654   6.147
 3679SOL    HW111489   1.949   0.566   6.169
 3679SOL    HW211490   1.972   0.703   6.228
 3680SOL     OW11491   3.705   1.757   5.918
 3680SOL    HW111492   3.771   1.730   5.981
 3680SOL    HW211493   3.725   1.848   5.899
 3681SOL     OW11494   3.553   0.921   6.231
 3681SOL    HW111495   3.635   0.876   6.208
 3681SOL    HW211496   3.530   0.970   6.152
 3682SOL     OW11497   3.510   1.105   6.015
 3682SOL    HW111498   3.596   1.108   5.974
 3682SOL    HW211499   3.515   1.167   6.087
 3683SOL     OW11500   1.984   0.747   7.168
 3683SOL    HW111501   2.075   0.776   7.174
 3683SOL    HW211502   1.932   0.827   7.174
 3684SOL     OW11503   2.477   1.388   6.313
 3684SOL    HW111504   2.438   1.305   6.338
 3684SOL    HW211505   2.448   1.402   6.223
 3685SOL     OW11506   3.149   1.237   7.007
 3685SOL    HW111507   3.180   1.169   6.948
 3685SOL    HW211508   3.208   1.232   7.083
 3686SOL     OW11509   2.682   0.019   6.142
 3686SOL    HW111510   2.719   0.102   6.114
 3686SOL    HW211511   2.587   0.031   6.134
 3687SOL     OW11512   2.051   0.963   6.862
 3687SOL    HW111513   2.136   0.923   6.846
 3687SOL    HW211514   1.990   0.913   6.808
 3688SOL     OW11515   3.393   0.996   5.786
 3688SOL    HW111516   3.323   0.939   5.818
 3688SOL    HW211517   3.435   1.030   5.865
 3689SOL     OW11518   3.046   1.809   7.210
 3689SOL    HW111519   3.056   1.869   7.136
 3689SOL    HW211520   3.064   1.723   7.173
 3690SOL     OW11521   2.178   0.252   7.365
 3690SOL    HW111522   2.241   0.315   7.398
 3690SOL    HW211523   2.104   0.258   7.426
 3691SOL     OW11524   3.328   1.420   6.534
 3691SOL    HW111525   3.262   1.435   6.601
 3691SOL    HW211526   3.316   1.328   6.508
 3692SOL     OW11527   3.518   1.746   6.163
 3692SOL    HW111528   3.499   1.715   6.075
 3692SOL    HW211529   3.496   1.672   6.220
 3693SOL     OW11530   2.453   0.723   5.853
 3693SOL    HW111531   2.456   0.805   5.805
 3693SOL    HW211532   2.387   0.736   5.921
 3694SOL     OW11533   3.155   0.371   6.518
 3694SOL    HW111534   3.066   0.341   6.501
 3694SOL    HW211535   3.191   0.307   6.579
 3695SOL     OW11536   3.442   1.671   5.896
 3695SOL    HW111537   3.533   1.700   5.888
 3695SOL    HW211538   3.414   1.655   5.806
 3696SOL     OW11539   2.657   0.621   7.039
 3696SOL    HW111540   2.629   0.594   7.127
 3696SOL    HW211541   2.622   0.554   6.981
 3697SOL     OW11542   3.250   0.482   7.262
 3697SOL    HW111543   3.255   0.526   7.347
 3697SOL    HW211544   3.316   0.413   7.267
 3698SOL     OW11545   2.815   0.887   7.171
 3698SOL    HW111546   2.868   0.817   7.134
 3698SOL    HW211547   2.765   0.921   7.096
 3699SOL     OW11548   2.860   0.417   6.819
 3699SOL    HW111549   2.770   0.423   6.850
 3699SOL    HW211550   2.854   0.363   6.740
 3700SOL     OW11551   2.913   0.698   6.011
 3700SOL    HW111552   2.931   0.689   6.105
 3700SOL    HW211553   2.829   0.654   5.999
 3701SOL     OW11554   1.951   0.822   6.363
 3701SOL    HW111555   2.031   0.815   6.415
 3701SOL    HW211556   1.906   0.899   6.397
 3702SOL     OW11557   1.989   1.839   7.160
 3702SOL    HW111558   1.987   1.824   7.255
 3702SOL    HW211559   1.898   1.856   7.136
 3703SOL     OW11560   2.719   0.371   5.776
 3703SOL    HW111561   2.786   0.404   5.715
 3703SOL    HW211562   2.731   0.276   5.774
 3704SOL     OW11563   3.564   0.571   7.415
 3704SOL    HW111564   3.529   0.645   7.365
 3704SOL    HW211565   3.600   0.513   7.348
 3705SOL     OW11566   3.242   1.142   6.125
 3705SOL    HW111567   3.321   1.129   6.073
 3705SOL    HW211568   3.190   1.204   6.074
 3706SOL     OW11569   2.397   0.207   6.489
 3706SOL    HW111570   2.419   0.225   6.580
 3706SOL    HW211571   2.393   0.293   6.447
 3707SOL     OW11572   2.882   1.447   6.068
 3707SOL    HW111573   2.826   1.499   6.011
 3707SOL    HW211574   2.858   1.474   6.157
 3708SOL     OW11575   3.661   1.057   6.457
 3708SOL    HW111576   3.609   1.035   6.379
 3708SOL    HW211577   3.598   1.062   6.528
 3709SOL     OW11578   3.089   1.539   7.099
 3709SOL    HW111579   3.077   1.467   7.161
 3709SOL    HW211580   3.024   1.524   7.031
 3710SOL     OW11581   2.179   0.957   5.839
 3710SOL    HW111582   2.260   0.978   5.793
 3710SOL    HW211583   2.149   0.876   5.799
 3711SOL     OW11584   3.343   0.747   6.309
 3711SOL    HW111585   3.335   0.704   6.394
 3711SOL    HW211586   3.421   0.802   6.316
 3712SOL     OW11587   2.330   1.266   7.324
 3712SOL    HW111588   2.304   1.270   7.232
 3712SOL    HW211589   2.248   1.263   7.373
 3713SOL     OW11590   2.994   1.771   5.823
 3713SOL    HW111591   2.899   1.775   5.820
 3713SOL    HW211592   3.019   1.714   5.751
 3714SOL     OW11593   2.049   0.268   7.102
 3714SOL    HW111594   1.983   0.337   7.091
 3714SOL    HW211595   2.070   0.270   7.195
 3715SOL     OW11596   3.491   1.381   5.675
 3715SOL    HW111597   3.449   1.466   5.661
 3715SOL    HW211598   3.423   1.317   5.655
 3716SOL     OW11599   3.288   0.146   6.005
 3716SOL    HW111600   3.271   0.089   5.930
 3716SOL    HW211601   3.381   0.133   6.024
 3717SOL     OW11602   2.107   1.782   6.819
 3717SOL    HW111603   2.166   1.722   6.865
 3717SOL    HW211604   2.105   1.749   6.729
 3718SOL     OW11605   2.801   1.698   6.485
 3718SOL    HW111606   2.877   1.646   6.510
 3718SOL    HW211607   2.758   1.647   6.417
 3719SOL     OW11608   2.257   0.693   6.061
 3719SOL    HW111609   2.278   0.601   6.075
 3719SOL    HW211610   2.163   0.699   6.077
 3720SOL     OW11611   3.385   0.234   7.309
 3720SOL    HW111612   3.386   0.255   7.402
 3720SOL    HW211613   3.306   0.182   7.296
 3721SOL     OW11614   2.494   0.122   5.711
 3721SOL    HW111615   2.582   0.085   5.720
 3721SOL    HW211616   2.460   0.081   5.631
 3722SOL     OW11617   2.630   0.271   7.342
 3722SOL    HW111618   2.698   0.204   7.342
 3722SOL    HW211619   2.590   0.266   7.429
 3723SOL     OW11620   2.739   1.524   6.779
 3723SOL    HW111621   2.722   1.485   6.694
 3723SOL    HW211622   2.808   1.469   6.817
 3724SOL     OW11623   3.202   0.590   7.014
 3724SOL    HW111624   3.229   0.561   7.101
 3724SOL    HW211625   3.236   0.679   7.005
 3725SOL     OW11626   2.680   1.392   6.529
 3725SOL    HW111627   2.765   1.378   6.487
 3725SOL    HW211628   2.617   1.388   6.457
 3726SOL     OW11629   2.787   0.524   6.483
 3726SOL    HW111630   2.770   0.521   6.388
 3726SOL    HW211631   2.819   0.436   6.504
 3727SOL     OW11632   2.418   0.083   6.111
 3727SOL    HW111633   2.332   0.048   6.133
 3727SOL    HW211634   2.401   0.142   6.038
 3728SOL     OW11635   3.290   1.200   5.626
 3728SOL    HW111636   3.319   1.124   5.677
 3728SOL    HW211637   3.204   1.221   5.662
 3729SOL     OW11638   2.155   0.064   5.791
 3729SOL    HW111639   2.232   0.119   5.774
 3729SOL    HW211640   2.185   0.001   5.856
 3730SOL     OW11641   2.819   0.240   6.050
 3730SOL    HW111642   2.767   0.303   5.999
 3730SOL    HW211643   2.908   0.273   6.044
 3731SOL     OW11644   2.942   0.683   7.045
 3731SOL    HW111645   2.872   0.617   7.044
 3731SOL    HW211646   3.023   0.633   7.034
 3732SOL     OW11647   3.081   1.573   6.380
 3732SOL    HW111648   3.100   1.636   6.311
 3732SOL    HW211649   3.151   1.585   6.444
 3733SOL     OW11650   2.333   1.154   6.317
 3733SOL    HW111651   2.266   1.132   6.382
 3733SOL    HW211652   2.291   1.138   6.232
 3734SOL     OW11653   3.132   1.787   6.195
 3734SOL    HW111654   3.178   1.850   6.139
 3734SOL    HW211655   3.072   1.841   6.246
 3735SOL     OW11656   2.889   0.543   5.606
 3735SOL    HW111657   2.841   0.625   5.590
 3735SOL    HW211658   2.948   0.563   5.679
 3736SOL     OW11659   1.948   0.549   6.982
 3736SOL    HW111660   2.038   0.553   6.952
 3736SOL    HW211661   1.939   0.621   7.045
 3737SOL     OW11662   2.423   0.247   6.756
 3737SOL    HW111663   2.448   0.165   6.799
 3737SOL    HW211664   2.330   0.259   6.778
 3738SOL     OW11665   2.725   0.506   6.214
 3738SOL    HW111666   2.689   0.540   6.133
 3738SOL    HW211667   2.678   0.424   6.229
 3739SOL     OW11668   2.814   0.016   6.382
 3739SOL    HW111669   2.770   0.018   6.297
 3739SOL    HW211670   2.831   4.423   6.398
 3740SOL     OW11671   3.299   1.162   6.442
 3740SOL    HW111672   3.231   1.094   6.442
 3740SOL    HW211673   3.325   1.171   6.351
 3741SOL     OW11674   3.326   0.608   6.555
 3741SOL    HW111675   3.271   0.530   6.556
 3741SOL    HW211676   3.382   0.598   6.632
 3742SOL     OW11677   3.705   0.814   5.970
 3742SOL    HW111678   3.762   0.763   6.028
 3742SOL    HW211679   3.678   0.751   5.903
 3743SOL     OW11680   2.341   1.432   5.744
 3743SOL    HW111681   2.271   1.390   5.793
 3743SOL    HW211682   2.350   1.379   5.664
 3744SOL     OW11683   3.535   1.264   6.229
 3744SOL    HW111684   3.630   1.265   6.244
 3744SOL    HW211685   3.507   1.353   6.250
 3745SOL     OW11686   3.257   0.573   5.655
 3745SOL    HW111687   3.194   0.556   5.726
 3745SOL    HW211688   3.342   0.556   5.695
 3746SOL     OW11689   2.379   0.265   5.907
 3746SOL    HW111690   2.431   0.216   5.843
 3746SOL    HW211691   2.360   0.348   5.864
 3747SOL     OW11692   3.612   1.241   7.154
 3747SOL    HW111693   3.699   1.202   7.150
 3747SOL    HW211694   3.628   1.331   7.183
 3748SOL     OW11695   2.918   1.355   6.919
 3748SOL    HW111696   2.843   1.323   6.969
 3748SOL    HW211697   2.994   1.313   6.960
 3749SOL     OW11698   3.471   1.627   7.242
 3749SOL    HW111699   3.463   1.661   7.153
 3749SOL    HW211700   3.553   1.578   7.243
 3750SOL     OW11701   2.996   1.209   6.690
 3750SOL    HW111702   2.934   1.244   6.755
 3750SOL    HW211703   2.962   1.239   6.606
 3751SOL     OW11704   3.486   1.096   6.663
 3751SOL    HW111705   3.481   1.159   6.735
 3751SOL    HW211706   3.409   1.114   6.610
 3752SOL     OW11707   2.760   0.136   6.970
 3752SOL    HW111708   2.783   0.090   6.890
 3752SOL    HW211709   2.844   0.155   7.012
 3753SOL     OW11710   2.846   1.115   7.309
 3753SOL    HW111711   2.754   1.131   7.332
 3753SOL    HW211712   2.844   1.037   7.254
 3754SOL     OW11713   2.569   1.061   5.957
 3754SOL    HW111714   2.556   1.042   6.050
 3754SOL    HW211715   2.645   1.009   5.932
 3755SOL     OW11716   2.283   0.818   6.837
 3755SOL    HW111717   2.351   0.827   6.904
 3755SOL    HW211718   2.248   0.730   6.850
 3756SOL     OW11719   3.130   0.374   6.861
 3756SOL    HW111720   3.162   0.453   6.905
 3756SOL    HW211721   3.040   0.396   6.836
 3757SOL     OW11722   1.933   1.571   6.940
 3757SOL    HW111723   1.904   1.649   6.893
 3757SOL    HW211724   2.028   1.575   6.938
 3758SOL     OW11725   2.205   1.117   6.075
 3758SOL    HW111726   2.204   1.187   6.009
 3758SOL    HW211727   2.205   1.036   6.024
 3759SOL     OW11728   2.415   0.525   6.444
 3759SOL    HW111729   2.427   0.585   6.370
 3759SOL    HW211730   2.482   0.552   6.507
 3760SOL     OW11731   3.114   1.347   5.973
 3760SOL    HW111732   3.172   1.418   6.002
 3760SOL    HW211733   3.029   1.369   6.011
 3761SOL     OW11734   3.147   1.459   6.734
 3761SOL    HW111735   3.203   1.462   6.811
 3761SOL    HW211736   3.093   1.381   6.746
 3762SOL     OW11737   3.441   0.622   6.066
 3762SOL    HW111738   3.393   0.669   6.134
 3762SOL    HW211739   3.485   0.691   6.016
 3763SOL     OW11740   2.210   1.526   6.903
 3763SOL    HW111741   2.195   1.483   6.818
 3763SOL    HW211742   2.305   1.537   6.907
 3764SOL     OW11743   2.280   0.742   7.190
 3764SOL    HW111744   2.339   0.788   7.131
 3764SOL    HW211745   2.324   0.659   7.208
 3765SOL     OW11746   3.467   0.780   7.270
 3765SOL    HW111747   3.381   0.822   7.264
 3765SOL    HW211748   3.519   0.821   7.202
 3766SOL     OW11749   2.861   0.088   7.300
 3766SOL    HW111750   2.902   0.166   7.263
 3766SOL    HW211751   2.884   0.017   7.240
 3767SOL     OW11752   2.362   0.042   7.349
 3767SOL    HW111753   2.371   0.011   7.259
 3767SOL    HW211754   2.295   0.110   7.345
 3768SOL     OW11755   2.445   0.875   6.617
 3768SOL    HW111756   2.478   0.965   6.621
 3768SOL    HW211757   2.389   0.866   6.694
 3769SOL     OW11758   3.214   0.858   6.611
 3769SOL    HW111759   3.129   0.845   6.569
 3769SOL    HW211760   3.259   0.774   6.602
 3770SOL     OW11761   3.062   0.536   5.844
 3770SOL    HW111762   3.069   0.457   5.897
 3770SOL    HW211763   3.019   0.599   5.902
 3771SOL     OW11764   2.152   0.231   6.829
 3771SOL    HW111765   2.104   0.247   6.911
 3771SOL    HW211766   2.191   0.145   6.841
 3772SOL     OW11767   1.910   1.310   6.859
 3772SOL    HW111768   1.941   1.256   6.932
 3772SOL    HW211769   1.915   1.400   6.893
 3773SOL     OW11770   2.583   0.630   6.640
 3773SOL    HW111771   2.659   0.613   6.583
 3773SOL    HW211772   2.556   0.719   6.617
 3774SOL     OW11773   3.598   0.960   7.441
 3774SOL    HW111774   3.554   0.895   7.387
 3774SOL    HW211775   3.539   0.975   7.514
 3775SOL     OW11776   2.155   0.048   6.238
 3775SOL    HW111777   2.145   0.143   6.238
 3775SOL    HW211778   2.167   0.025   6.330
 3776SOL     OW11779   3.483   0.383   5.943
 3776SOL    HW111780   3.507   0.317   6.007
 3776SOL    HW211781   3.458   0.459   5.995
 3777SOL     OW11782   2.893   0.764   6.546
 3777SOL    HW111783   2.886   0.779   6.641
 3777SOL    HW211784   2.863   0.674   6.534
 3778SOL     OW11785   2.843   1.566   7.306
 3778SOL    HW111786   2.829   1.610   7.222
 3778SOL    HW211787   2.887   1.484   7.283
 3779SOL     OW11788   3.715   1.503   7.191
 3779SOL    HW111789   3.735   1.530   7.101
 3779SOL    HW211790   3.796   1.519   7.239
 3780SOL     OW11791   2.216   0.917   7.394
 3780SOL    HW111792   2.297   0.935   7.442
 3780SOL    HW211793   2.241   0.853   7.328
 3781SOL     OW11794   3.390   0.262   5.714
 3781SOL    HW111795   3.321   0.205   5.746
 3781SOL    HW211796   3.421   0.308   5.791
 3782SOL     OW11797   3.151   0.826   5.615
 3782SOL    HW111798   3.193   0.740   5.618
 3782SOL    HW211799   3.182   0.865   5.534
 3783SOL     OW11800   2.927   1.338   6.439
 3783SOL    HW111801   2.933   1.265   6.377
 3783SOL    HW211802   2.989   1.402   6.405
 3784SOL     OW11803   2.170   0.810   6.532
 3784SOL    HW111804   2.263   0.831   6.526
 3784SOL    HW211805   2.168   0.720   6.564
 3785SOL     OW11806   2.197   0.535   6.600
 3785SOL    HW111807   2.153   0.452   6.582
 3785SOL    HW211808   2.273   0.535   6.542
 3786SOL     OW11809   2.999   0.371   7.287
 3786SOL    HW111810   2.947   0.434   7.336
 3786SOL    HW211811   3.083   0.415   7.273
 3787SOL     OW11812   3.015   0.215   7.060
 3787SOL    HW111813   3.011   0.279   7.131
 3787SOL    HW211814   3.059   0.261   6.989
 3788SOL     OW11815   1.877   1.318   5.779
 3788SOL    HW111816   1.793   1.345   5.743
 3788SOL    HW211817   1.862   1.230   5.812
 3789SOL     OW11818   1.947   1.791   6.525
 3789SOL    HW111819   1.912   1.712   6.485
 3789SOL    HW211820   2.025   1.811   6.474
 3790SOL     OW11821   2.355   1.567   6.496
 3790SOL    HW111822   2.416   1.638   6.515
 3790SOL    HW211823   2.402   1.510   6.435
 3791SOL     OW11824   2.839   0.793   6.812
 3791SOL    HW111825   2.897   0.771   6.885
 3791SOL    HW211826   2.757   0.748   6.833
 3792SOL     OW11827   1.894   0.546   6.705
 3792SOL    HW111828   1.970   0.526   6.650
 3792SOL    HW211829   1.929   0.548   6.794
 3793SOL     OW11830   2.046   0.523   7.310
 3793SOL    HW111831   2.124   0.504   7.257
 3793SOL    HW211832   2.006   0.598   7.267
 3794SOL     OW11833   3.241   0.936   7.243
 3794SOL    HW111834   3.262   1.029   7.240
 3794SOL    HW211835   3.237   0.909   7.152
 3795SOL     OW11836   2.672   0.578   5.946
 3795SOL    HW111837   2.678   0.507   5.883
 3795SOL    HW211838   2.599   0.631   5.916
 3796SOL     OW11839   3.500   0.602   6.769
 3796SOL    HW111840   3.491   0.543   6.843
 3796SOL    HW211841   3.588   0.584   6.735
 3797SOL     OW11842   2.106   1.549   7.313
 3797SOL    HW111843   2.079   1.612   7.379
 3797SOL    HW211844   2.108   1.465   7.360
 3798SOL     OW11845   2.571   0.457   6.847
 3798SOL    HW111846   2.520   0.381   6.818
 3798SOL    HW211847   2.567   0.518   6.773
 3799SOL     OW11848   2.785   1.679   7.056
 3799SOL    HW111849   2.762   1.641   6.971
 3799SOL    HW211850   2.783   1.773   7.042
 3800SOL     OW11851   2.324   0.492   5.769
 3800SOL    HW111852   2.383   0.564   5.791
 3800SOL    HW211853   2.239   0.535   5.756
 3801SOL     OW11854   2.006   1.142   7.060
 3801SOL    HW111855   2.007   1.092   7.142
 3801SOL    HW211856   2.023   1.076   6.992
 3802SOL     OW11857   3.185   1.045   6.807
 3802SOL    HW111858   3.207   0.981   6.739
 3802SOL    HW211859   3.117   1.100   6.767
 3803SOL     OW11860   3.176   0.857   5.891
 3803SOL    HW111861   3.102   0.827   5.943
 3803SOL    HW211862   3.149   0.844   5.800
 3804SOL     OW11863   3.640   1.739   6.741
 3804SOL    HW111864   3.699   1.766   6.670
 3804SOL    HW211865   3.613   1.651   6.717
 3805SOL     OW11866   3.102   1.731   6.694
 3805SOL    HW111867   3.184   1.755   6.651
 3805SOL    HW211868   3.112   1.638   6.714
 3806SOL     OW11869   1.949   1.266   6.596
 3806SOL    HW111870   1.933   1.280   6.689
 3806SOL    HW211871   1.875   1.212   6.567
 3807SOL     OW11872   2.541   1.668   7.321
 3807SOL    HW111873   2.485   1.744   7.309
 3807SOL    HW211874   2.610   1.680   7.255
 3808SOL     OW11875   3.582   0.129   6.073
 3808SOL    HW111876   3.650   0.141   6.006
 3808SOL    HW211877   3.615   0.059   6.128
 3809SOL     OW11878   3.256   1.566   6.073
 3809SOL    HW111879   3.314   1.600   6.005
 3809SOL    HW211880   3.205   1.642   6.101
 3810SOL     OW11881   1.996   1.795   7.427
 3810SOL    HW111882   1.944   1.728   7.472
 3810SOL    HW211883   2.045   1.838   7.496
 3811SOL     OW11884   3.141   0.930   6.260
 3811SOL    HW111885   3.214   0.868   6.267
 3811SOL    HW211886   3.175   1.001   6.205
 3812SOL     OW11887   2.671   1.276   7.012
 3812SOL    HW111888   2.643   1.315   7.095
 3812SOL    HW211889   2.599   1.294   6.951
 3813SOL     OW11890   3.484   1.727   6.977
 3813SOL    HW111891   3.536   1.733   6.897
 3813SOL    HW211892   3.470   1.818   7.003
 3814SOL     OW11893   3.702   0.152   6.551
 3814SOL    HW111894   3.733   0.074   6.506
 3814SOL    HW211895   3.615   0.168   6.514
 3815SOL     OW11896   2.123   0.318   6.300
 3815SOL    HW111897   2.038   0.354   6.275
 3815SOL    HW211898   2.119   0.312   6.396
 3816SOL     OW11899   3.071   1.605   5.616
 3816SOL    HW111900   3.062   1.514   5.644
 3816SOL    HW211901   3.002   1.617   5.550
 3817SOL     OW11902   2.685   1.006   6.961
 3817SOL    HW111903   2.730   0.998   6.877
 3817SOL    HW211904   2.684   1.100   6.979
 3818SOL     OW11905   2.779   0.913   5.878
 3818SOL    HW111906   2.839   0.944   5.811
 3818SOL    HW211907   2.826   0.843   5.923
 3819SOL     OW11908   3.352   1.626   5.630
 3819SOL    HW111909   3.258   1.618   5.615
 3819SOL    HW211910   3.390   1.632   5.542
 3820SOL     OW11911   2.231   1.302   7.078
 3820SOL    HW111912   2.218   1.380   7.024
 3820SOL    HW211913   2.154   1.248   7.063
 3821SOL     OW11914   3.471   1.284   6.866
 3821SOL    HW111915   3.530   1.269   6.940
 3821SOL    HW211916   3.411   1.351   6.897
 3822SOL     OW11917   2.918   1.109   6.294
 3822SOL    HW111918   2.847   1.057   6.332
 3822SOL    HW211919   2.983   1.044   6.267
 3823SOL     OW11920   2.864   0.247   6.598
 3823SOL    HW111921   2.870   0.230   6.504
 3823SOL    HW211922   2.855   0.160   6.637
 3824SOL     OW11923   3.586   0.395   6.961
 3824SOL    HW111924   3.660   0.455   6.961
 3824SOL    HW211925   3.614   0.323   6.904
 3825SOL     OW11926   2.123   1.343   5.894
 3825SOL    HW111927   2.034   1.341   5.860
 3825SOL    HW211928   2.117   1.393   5.975
 3826SOL     OW11929   1.975   1.027   7.308
 3826SOL    HW111930   1.899   1.002   7.360
 3826SOL    HW211931   2.050   0.987   7.353
 3827SOL     OW11932   2.519   0.206   7.088
 3827SOL    HW111933   2.597   0.181   7.040
 3827SOL    HW211934   2.551   0.229   7.175
 3828SOL     OW11935   1.945   0.332   5.634
 3828SOL    HW111936   1.875   0.277   5.597
 3828SOL    HW211937   1.954   0.404   5.571
 3829SOL     OW11938   3.289   0.858   6.984
 3829SOL    HW111939   3.240   0.919   6.929
 3829SOL    HW211940   3.378   0.860   6.949
 3830SOL     OW11941   1.924   0.188   5.899
 3830SOL    HW111942   1.925   0.256   5.831
 3830SOL    HW211943   1.998   0.132   5.878
 3831SOL     OW11944   3.039   1.338   5.701
 3831SOL    HW111945   2.947   1.311   5.703
 3831SOL    HW211946   3.066   1.336   5.793
 3832SOL     OW11947   2.482   0.830   7.021
 3832SOL    HW111948   2.538   0.906   7.006
 3832SOL    HW211949   2.542   0.757   7.029
 3833SOL     OW11950   3.344   1.781   6.567
 3833SOL    HW111951   3.366   1.843   6.498
 3833SOL    HW211952   3.429   1.757   6.606
 3834SOL     OW11953   2.578   0.561   7.290
 3834SOL    HW111954   2.621   0.623   7.349
 3834SOL    HW211955   2.604   0.475   7.323
 3835SOL     OW11956   3.335   1.197   7.216
 3835SOL    HW111957   3.323   1.211   7.310
 3835SOL    HW211958   3.428   1.214   7.201
 3836SOL     OW11959   2.241   1.738   7.153
 3836SOL    HW111960   2.157   1.778   7.134
 3836SOL    HW211961   2.219   1.654   7.194
 3837SOL     OW11962   3.528   0.880   6.841
 3837SOL    HW111963   3.523   0.795   6.798
 3837SOL    HW211964   3.519   0.943   6.770
 3838SOL     OW11965   3.082   0.333   6.032
 3838SOL    HW111966   3.149   0.266   6.018
 3838SOL    HW211967   3.110   0.380   6.110
 3839SOL     OW11968   2.445   0.736   6.261
 3839SOL    HW111969   2.489   0.820   6.244
 3839SOL    HW211970   2.381   0.727   6.191
 3840SOL     OW11971   3.620   0.371   7.230
 3840SOL    HW111972   3.605   0.384   7.136
 3840SOL    HW211973   3.544   0.322   7.260
 3841SOL     OW11974   3.610   0.933   7.097
 3841SOL    HW111975   3.601   1.028   7.110
 3841SOL    HW211976   3.593   0.920   7.004
 3842SOL     OW11977   2.723   1.369   5.627
 3842SOL    HW111978   2.680   1.399   5.707
 3842SOL    HW211979   2.736   1.449   5.576
 3843SOL     OW11980   2.525   1.782   6.536
 3843SOL    HW111981   2.512   1.863   6.585
 3843SOL    HW211982   2.620   1.770   6.534
 3844SOL     OW11983   2.730   0.969   6.441
 3844SOL    HW111984   2.781   0.897   6.477
 3844SOL    HW211985   2.693   1.013   6.517
 3845SOL     OW11986   2.941   0.989   5.676
 3845SOL    HW111987   2.918   1.040   5.598
 3845SOL    HW211988   3.014   0.934   5.648
 3846SOL     OW11989   3.714   1.555   6.430
 3846SOL    HW111990   3.635   1.542   6.376
 3846SOL    HW211991   3.708   1.486   6.497
 3847SOL     OW11992   2.087   1.300   7.441
 3847SOL    HW111993   2.023   1.238   7.408
 3847SOL    HW211994   2.063   1.313   7.533
 3848SOL     OW11995   1.960   1.228   6.245
 3848SOL    HW111996   1.956   1.187   6.331
 3848SOL    HW211997   2.017   1.170   6.194
 3849SOL     OW11998   2.544   1.406   7.215
 3849SOL    HW111999   2.465   1.362   7.247
 3849SOL    HW212000   2.540   1.493   7.254
 3850SOL     OW12001   3.665   0.178   6.824
 3850SOL    HW112002   3.664   0.084   6.843
 3850SOL    HW212003   3.684   0.183   6.730
 3851SOL     OW12004   2.300   0.432   6.118
 3851SOL    HW112005   2.320   0.365   6.054
 3851SOL    HW212006   2.243   0.389   6.182
 3852SOL     OW12007   3.559   1.488   6.681
 3852SOL    HW112008   3.480   1.467   6.631
 3852SOL    HW212009   3.567   1.417   6.744
 3853SOL     OW12010   2.195   0.560   6.879
 3853SOL    HW112011   2.250   0.502   6.932
 3853SOL    HW212012   2.213   0.533   6.789
 3854SOL     OW12013   2.687   1.568   6.265
 3854SOL    HW112014   2.660   1.592   6.176
 3854SOL    HW212015   2.617   1.512   6.297
 3855SOL     OW12016   3.293   0.217   6.702
 3855SOL    HW112017   3.328   0.145   6.754
 3855SOL    HW212018   3.242   0.270   6.764
 3856SOL     OW12019   2.857   0.002   6.739
 3856SOL    HW112020   2.818   4.414   6.734
 3856SOL    HW212021   2.951   4.486   6.748
 3857SOL     OW12022   2.655   1.338   5.913
 3857SOL    HW112023   2.598   1.262   5.905
 3857SOL    HW212024   2.734   1.305   5.956
 3858SOL     OW12025   2.483   1.555   6.871
 3858SOL    HW112026   2.483   1.637   6.921
 3858SOL    HW212027   2.571   1.548   6.835
 3859SOL     OW12028   3.201   0.051   5.745
 3859SOL    HW112029   3.239   4.476   5.700
 3859SOL    HW212030   3.124   0.016   5.790
 3860SOL     OW12031   3.177   0.465   6.258
 3860SOL    HW112032   3.120   0.542   6.260
 3860SOL    HW212033   3.166   0.425   6.344
 3861SOL     OW12034   3.447   0.198   6.455
 3861SOL    HW112035   3.390   0.214   6.529
 3861SOL    HW212036   3.450   0.281   6.408
 3862SOL     OW12037   1.902   1.066   5.897
 3862SOL    HW112038   1.995   1.060   5.874
 3862SOL    HW212039   1.877   0.976   5.918
 3863SOL     OW12040   2.088   0.625   7.571
 3863SOL    HW112041   2.002   0.618   7.612
 3863SOL    HW212042   2.075   0.597   7.481
 3864SOL     OW12043   2.067   0.302   8.439
 3864SOL    HW112044   2.099   0.270   8.523
 3864SOL    HW212045   1.986   0.254   8.424
 3865SOL     OW12046   1.868   0.390   8.084
 3865SOL    HW112047   1.782   0.407   8.121
 3865SOL    HW212048   1.853   0.318   8.023
 3866SOL     OW12049   2.431   1.293   8.627
 3866SOL    HW112050   2.343   1.295   8.589
 3866SOL    HW212051   2.445   1.382   8.660
 3867SOL     OW12052   3.428   1.513   8.156
 3867SOL    HW112053   3.386   1.490   8.239
 3867SOL    HW212054   3.357   1.516   8.092
 3868SOL     OW12055   3.001   0.697   8.143
 3868SOL    HW112056   3.044   0.781   8.134
 3868SOL    HW212057   2.949   0.704   8.223
 3869SOL     OW12058   3.635   0.604   7.674
 3869SOL    HW112059   3.611   0.596   7.581
 3869SOL    HW212060   3.599   0.525   7.714
 3870SOL     OW12061   2.613   1.140   8.493
 3870SOL    HW112062   2.546   1.177   8.550
 3870SOL    HW212063   2.651   1.217   8.448
 3871SOL     OW12064   2.732   0.768   9.271
 3871SOL    HW112065   2.718   0.839   9.334
 3871SOL    HW212066   2.755   0.813   9.190
 3872SOL     OW12067   2.548   1.000   8.093
 3872SOL    HW112068   2.613   0.989   8.162
 3872SOL    HW212069   2.479   1.052   8.133
 3873SOL     OW12070   2.574   1.150   9.263
 3873SOL    HW112071   2.622   1.228   9.292
 3873SOL    HW212072   2.493   1.184   9.226
 3874SOL     OW12073   2.192   1.420   8.517
 3874SOL    HW112074   2.118   1.381   8.471
 3874SOL    HW212075   2.239   1.468   8.449
 3875SOL     OW12076   3.321   1.501   8.806
 3875SOL    HW112077   3.375   1.580   8.816
 3875SOL    HW212078   3.255   1.508   8.875
 3876SOL     OW12079   2.306   0.393   8.933
 3876SOL    HW112080   2.388   0.344   8.936
 3876SOL    HW212081   2.238   0.328   8.947
 3877SOL     OW12082   3.470   0.442   8.187
 3877SOL    HW112083   3.389   0.462   8.138
 3877SOL    HW212084   3.484   0.520   8.241
 3878SOL     OW12085   2.081   1.719   7.922
 3878SOL    HW112086   2.103   1.796   7.975
 3878SOL    HW212087   2.157   1.707   7.865
 3879SOL     OW12088   2.999   1.342   9.142
 3879SOL    HW112089   3.040   1.336   9.228
 3879SOL    HW212090   2.947   1.262   9.134
 3880SOL     OW12091   2.094   1.444   7.985
 3880SOL    HW112092   2.071   1.537   7.990
 3880SOL    HW212093   2.035   1.402   8.048
 3881SOL     OW12094   2.126   1.091   8.340
 3881SOL    HW112095   2.121   1.003   8.378
 3881SOL    HW212096   2.067   1.144   8.393
 3882SOL     OW12097   2.475   1.784   8.878
 3882SOL    HW112098   2.391   1.769   8.923
 3882SOL    HW212099   2.496   1.875   8.896
 3883SOL     OW12100   2.443   0.984   7.585
 3883SOL    HW112101   2.491   1.030   7.516
 3883SOL    HW212102   2.483   1.015   7.667
 3884SOL     OW12103   3.440   0.117   8.915
 3884SOL    HW112104   3.474   0.184   8.856
 3884SOL    HW212105   3.429   0.162   8.999
 3885SOL     OW12106   1.980   0.655   8.008
 3885SOL    HW112107   1.949   0.567   8.030
 3885SOL    HW212108   1.972   0.704   8.090
 3886SOL     OW12109   3.705   1.756   7.780
 3886SOL    HW112110   3.772   1.729   7.843
 3886SOL    HW212111   3.725   1.848   7.761
 3887SOL     OW12112   1.898   1.591   7.570
 3887SOL    HW112113   1.878   1.500   7.590
 3887SOL    HW212114   1.872   1.639   7.649
 3888SOL     OW12115   3.553   0.921   8.093
 3888SOL    HW112116   3.635   0.876   8.070
 3888SOL    HW212117   3.530   0.970   8.014
 3889SOL     OW12118   3.510   1.105   7.876
 3889SOL    HW112119   3.596   1.108   7.836
 3889SOL    HW212120   3.515   1.167   7.949
 3890SOL     OW12121   1.984   0.747   9.030
 3890SOL    HW112122   2.075   0.776   9.036
 3890SOL    HW212123   1.932   0.827   9.036
 3891SOL     OW12124   2.479   1.387   8.182
 3891SOL    HW112125   2.433   1.303   8.191
 3891SOL    HW212126   2.462   1.414   8.091
 3892SOL     OW12127   3.149   1.237   8.869
 3892SOL    HW112128   3.180   1.169   8.810
 3892SOL    HW212129   3.207   1.232   8.945
 3893SOL     OW12130   2.682   0.019   8.004
 3893SOL    HW112131   2.719   0.102   7.976
 3893SOL    HW212132   2.587   0.031   7.995
 3894SOL     OW12133   2.051   0.963   8.725
 3894SOL    HW112134   2.136   0.923   8.708
 3894SOL    HW212135   1.990   0.914   8.669
 3895SOL     OW12136   3.393   0.996   7.648
 3895SOL    HW112137   3.323   0.939   7.680
 3895SOL    HW212138   3.435   1.030   7.727
 3896SOL     OW12139   3.047   1.810   9.072
 3896SOL    HW112140   3.056   1.869   8.998
 3896SOL    HW212141   3.064   1.723   9.036
 3897SOL     OW12142   2.178   0.252   9.227
 3897SOL    HW112143   2.241   0.316   9.260
 3897SOL    HW212144   2.104   0.258   9.288
 3898SOL     OW12145   3.329   1.419   8.397
 3898SOL    HW112146   3.262   1.435   8.463
 3898SOL    HW212147   3.316   1.328   8.370
 3899SOL     OW12148   3.517   1.747   8.026
 3899SOL    HW112149   3.499   1.715   7.937
 3899SOL    HW212150   3.496   1.673   8.083
 3900SOL     OW12151   2.453   0.722   7.715
 3900SOL    HW112152   2.456   0.805   7.668
 3900SOL    HW212153   2.388   0.735   7.784
 3901SOL     OW12154   3.155   0.371   8.380
 3901SOL    HW112155   3.066   0.341   8.363
 3901SOL    HW212156   3.191   0.307   8.441
 3902SOL     OW12157   3.441   1.672   7.758
 3902SOL    HW112158   3.532   1.700   7.750
 3902SOL    HW212159   3.414   1.655   7.668
 3903SOL     OW12160   2.657   0.621   8.901
 3903SOL    HW112161   2.629   0.594   8.989
 3903SOL    HW212162   2.622   0.554   8.843
 3904SOL     OW12163   3.250   0.482   9.124
 3904SOL    HW112164   3.254   0.526   9.209
 3904SOL    HW212165   3.316   0.413   9.129
 3905SOL     OW12166   2.815   0.887   9.033
 3905SOL    HW112167   2.868   0.817   8.996
 3905SOL    HW212168   2.765   0.921   8.958
 3906SOL     OW12169   2.860   0.417   8.681
 3906SOL    HW112170   2.770   0.424   8.712
 3906SOL    HW212171   2.854   0.363   8.602
 3907SOL     OW12172   2.913   0.698   7.873
 3907SOL    HW112173   2.931   0.689   7.967
 3907SOL    HW212174   2.829   0.654   7.861
 3908SOL     OW12175   1.951   0.822   8.225
 3908SOL    HW112176   2.031   0.815   8.277
 3908SOL    HW212177   1.906   0.899   8.260
 3909SOL     OW12178   1.991   1.830   9.022
 3909SOL    HW112179   1.981   1.816   9.116
 3909SOL    HW212180   1.915   1.883   8.997
 3910SOL     OW12181   2.719   0.371   7.637
 3910SOL    HW112182   2.786   0.404   7.577
 3910SOL    HW212183   2.730   0.276   7.636
 3911SOL     OW12184   3.564   0.571   9.277
 3911SOL    HW112185   3.529   0.645   9.227
 3911SOL    HW212186   3.600   0.513   9.210
 3912SOL     OW12187   3.242   1.143   7.988
 3912SOL    HW112188   3.321   1.131   7.935
 3912SOL    HW212189   3.188   1.204   7.938
 3913SOL     OW12190   2.397   0.207   8.350
 3913SOL    HW112191   2.420   0.225   8.442
 3913SOL    HW212192   2.392   0.293   8.309
 3914SOL     OW12193   2.865   1.443   7.918
 3914SOL    HW112194   2.831   1.518   7.869
 3914SOL    HW212195   2.845   1.463   8.009
 3915SOL     OW12196   2.217   1.800   8.311
 3915SOL    HW112197   2.242   1.707   8.312
 3915SOL    HW212198   2.297   1.846   8.337
 3916SOL     OW12199   3.661   1.058   8.318
 3916SOL    HW112200   3.609   1.035   8.241
 3916SOL    HW212201   3.598   1.062   8.390
 3917SOL     OW12202   3.090   1.539   8.961
 3917SOL    HW112203   3.077   1.467   9.022
 3917SOL    HW212204   3.023   1.525   8.894
 3918SOL     OW12205   2.178   0.958   7.700
 3918SOL    HW112206   2.261   0.977   7.655
 3918SOL    HW212207   2.149   0.876   7.663
 3919SOL     OW12208   3.344   0.746   8.170
 3919SOL    HW112209   3.335   0.704   8.256
 3919SOL    HW212210   3.421   0.802   8.178
 3920SOL     OW12211   2.330   1.266   9.186
 3920SOL    HW112212   2.303   1.270   9.094
 3920SOL    HW212213   2.248   1.263   9.235
 3921SOL     OW12214   2.985   1.778   7.678
 3921SOL    HW112215   2.910   1.737   7.722
 3921SOL    HW212216   3.009   1.715   7.609
 3922SOL     OW12217   2.049   0.268   8.964
 3922SOL    HW112218   1.983   0.337   8.953
 3922SOL    HW212219   2.070   0.270   9.057
 3923SOL     OW12220   3.491   1.381   7.537
 3923SOL    HW112221   3.449   1.466   7.522
 3923SOL    HW212222   3.422   1.317   7.517
 3924SOL     OW12223   2.328   1.732   7.772
 3924SOL    HW112224   2.373   1.793   7.831
 3924SOL    HW212225   2.398   1.698   7.716
 3925SOL     OW12226   3.289   0.146   7.867
 3925SOL    HW112227   3.272   0.089   7.792
 3925SOL    HW212228   3.382   0.133   7.886
 3926SOL     OW12229   2.105   1.784   8.681
 3926SOL    HW112230   2.164   1.720   8.723
 3926SOL    HW212231   2.105   1.759   8.589
 3927SOL     OW12232   2.794   1.697   8.346
 3927SOL    HW112233   2.873   1.649   8.370
 3927SOL    HW212234   2.757   1.647   8.273
 3928SOL     OW12235   2.257   0.693   7.921
 3928SOL    HW112236   2.278   0.601   7.937
 3928SOL    HW212237   2.163   0.700   7.939
 3929SOL     OW12238   3.386   0.234   9.171
 3929SOL    HW112239   3.386   0.255   9.264
 3929SOL    HW212240   3.306   0.182   9.158
 3930SOL     OW12241   2.495   0.122   7.572
 3930SOL    HW112242   2.582   0.085   7.582
 3930SOL    HW212243   2.460   0.082   7.493
 3931SOL     OW12244   2.630   0.271   9.204
 3931SOL    HW112245   2.698   0.204   9.205
 3931SOL    HW212246   2.590   0.266   9.291
 3932SOL     OW12247   2.739   1.524   8.641
 3932SOL    HW112248   2.722   1.484   8.555
 3932SOL    HW212249   2.808   1.469   8.679
 3933SOL     OW12250   3.202   0.590   8.876
 3933SOL    HW112251   3.229   0.561   8.963
 3933SOL    HW212252   3.236   0.679   8.867
 3934SOL     OW12253   2.679   1.394   8.391
 3934SOL    HW112254   2.763   1.380   8.348
 3934SOL    HW212255   2.615   1.394   8.319
 3935SOL     OW12256   2.787   0.524   8.345
 3935SOL    HW112257   2.770   0.521   8.250
 3935SOL    HW212258   2.819   0.436   8.366
 3936SOL     OW12259   2.418   0.082   7.972
 3936SOL    HW112260   2.332   0.048   7.995
 3936SOL    HW212261   2.401   0.142   7.899
 3937SOL     OW12262   3.290   1.199   7.488
 3937SOL    HW112263   3.320   1.124   7.539
 3937SOL    HW212264   3.205   1.221   7.525
 3938SOL     OW12265   2.156   0.065   7.653
 3938SOL    HW112266   2.232   0.120   7.638
 3938SOL    HW212267   2.185   0.000   7.718
 3939SOL     OW12268   2.819   0.240   7.911
 3939SOL    HW112269   2.767   0.303   7.863
 3939SOL    HW212270   2.908   0.273   7.906
 3940SOL     OW12271   2.942   0.683   8.907
 3940SOL    HW112272   2.872   0.618   8.906
 3940SOL    HW212273   3.022   0.632   8.896
 3941SOL     OW12274   3.082   1.572   8.242
 3941SOL    HW112275   3.099   1.637   8.175
 3941SOL    HW212276   3.152   1.585   8.307
 3942SOL     OW12277   2.333   1.152   8.178
 3942SOL    HW112278   2.266   1.132   8.243
 3942SOL    HW212279   2.291   1.137   8.093
 3943SOL     OW12280   3.129   1.793   8.058
 3943SOL    HW112281   3.177   1.854   8.002
 3943SOL    HW212282   3.062   1.846   8.101
 3944SOL     OW12283   2.889   0.543   7.468
 3944SOL    HW112284   2.842   0.625   7.453
 3944SOL    HW212285   2.948   0.563   7.541
 3945SOL     OW12286   1.948   0.549   8.844
 3945SOL    HW112287   2.038   0.553   8.814
 3945SOL    HW212288   1.939   0.621   8.907
 3946SOL     OW12289   2.422   0.247   8.618
 3946SOL    HW112290   2.447   0.165   8.661
 3946SOL    HW212291   2.330   0.259   8.640
 3947SOL     OW12292   2.726   0.505   8.076
 3947SOL    HW112293   2.688   0.541   7.996
 3947SOL    HW212294   2.678   0.423   8.091
 3948SOL     OW12295   2.814   0.016   8.244
 3948SOL    HW112296   2.770   0.018   8.159
 3948SOL    HW212297   2.831   4.423   8.260
 3949SOL     OW12298   3.299   1.162   8.304
 3949SOL    HW112299   3.230   1.096   8.305
 3949SOL    HW212300   3.323   1.170   8.212
 3950SOL     OW12301   3.326   0.608   8.417
 3950SOL    HW112302   3.271   0.530   8.418
 3950SOL    HW212303   3.382   0.598   8.494
 3951SOL     OW12304   3.705   0.814   7.832
 3951SOL    HW112305   3.762   0.764   7.890
 3951SOL    HW212306   3.678   0.751   7.765
 3952SOL     OW12307   2.351   1.421   7.602
 3952SOL    HW112308   2.275   1.392   7.653
 3952SOL    HW212309   2.343   1.374   7.519
 3953SOL     OW12310   3.536   1.265   8.090
 3953SOL    HW112311   3.630   1.265   8.106
 3953SOL    HW212312   3.507   1.353   8.113
 3954SOL     OW12313   3.257   0.573   7.518
 3954SOL    HW112314   3.194   0.556   7.588
 3954SOL    HW212315   3.342   0.556   7.557
 3955SOL     OW12316   2.379   0.265   7.769
 3955SOL    HW112317   2.431   0.216   7.705
 3955SOL    HW212318   2.360   0.348   7.726
 3956SOL     OW12319   3.612   1.241   9.016
 3956SOL    HW112320   3.699   1.202   9.011
 3956SOL    HW212321   3.628   1.331   9.045
 3957SOL     OW12322   2.918   1.355   8.781
 3957SOL    HW112323   2.843   1.323   8.831
 3957SOL    HW212324   2.994   1.313   8.822
 3958SOL     OW12325   3.471   1.627   9.105
 3958SOL    HW112326   3.464   1.661   9.015
 3958SOL    HW212327   3.553   1.578   9.105
 3959SOL     OW12328   2.996   1.209   8.552
 3959SOL    HW112329   2.934   1.244   8.616
 3959SOL    HW212330   2.963   1.240   8.467
 3960SOL     OW12331   3.486   1.096   8.525
 3960SOL    HW112332   3.481   1.159   8.597
 3960SOL    HW212333   3.409   1.114   8.472
 3961SOL     OW12334   2.760   0.136   8.832
 3961SOL    HW112335   2.783   0.090   8.752
 3961SOL    HW212336   2.844   0.155   8.874
 3962SOL     OW12337   2.846   1.115   9.171
 3962SOL    HW112338   2.755   1.131   9.194
 3962SOL    HW212339   2.844   1.037   9.116
 3963SOL     OW12340   2.572   1.063   7.819
 3963SOL    HW112341   2.557   1.044   7.911
 3963SOL    HW212342   2.647   1.009   7.795
 3964SOL     OW12343   2.283   0.818   8.699
 3964SOL    HW112344   2.351   0.827   8.766
 3964SOL    HW212345   2.248   0.730   8.712
 3965SOL     OW12346   3.130   0.374   8.723
 3965SOL    HW112347   3.162   0.453   8.767
 3965SOL    HW212348   3.040   0.396   8.698
 3966SOL     OW12349   1.931   1.570   8.800
 3966SOL    HW112350   1.901   1.650   8.756
 3966SOL    HW212351   2.027   1.577   8.800
 3967SOL     OW12352   2.206   1.114   7.937
 3967SOL    HW112353   2.208   1.186   7.875
 3967SOL    HW212354   2.203   1.035   7.883
 3968SOL     OW12355   2.415   0.525   8.305
 3968SOL    HW112356   2.427   0.585   8.232
 3968SOL    HW212357   2.481   0.552   8.369
 3969SOL     OW12358   3.110   1.349   7.837
 3969SOL    HW112359   3.166   1.420   7.869
 3969SOL    HW212360   3.023   1.370   7.871
 3970SOL     OW12361   3.147   1.459   8.595
 3970SOL    HW112362   3.202   1.462   8.674
 3970SOL    HW212363   3.092   1.382   8.607
 3971SOL     OW12364   3.441   0.623   7.927
 3971SOL    HW112365   3.393   0.669   7.996
 3971SOL    HW212366   3.485   0.692   7.879
 3972SOL     OW12367   2.210   1.525   8.763
 3972SOL    HW112368   2.196   1.483   8.679
 3972SOL    HW212369   2.305   1.537   8.768
 3973SOL     OW12370   2.280   0.742   9.052
 3973SOL    HW112371   2.339   0.789   8.993
 3973SOL    HW212372   2.325   0.659   9.070
 3974SOL     OW12373   3.467   0.780   9.132
 3974SOL    HW112374   3.381   0.822   9.125
 3974SOL    HW212375   3.519   0.821   9.063
 3975SOL     OW12376   2.861   0.088   9.162
 3975SOL    HW112377   2.902   0.165   9.125
 3975SOL    HW212378   2.884   0.017   9.102
 3976SOL     OW12379   2.362   0.042   9.211
 3976SOL    HW112380   2.371   0.011   9.121
 3976SOL    HW212381   2.295   0.110   9.207
 3977SOL     OW12382   2.445   0.875   8.479
 3977SOL    HW112383   2.477   0.965   8.481
 3977SOL    HW212384   2.389   0.867   8.556
 3978SOL     OW12385   3.214   0.858   8.473
 3978SOL    HW112386   3.128   0.845   8.432
 3978SOL    HW212387   3.258   0.774   8.464
 3979SOL     OW12388   3.061   0.536   7.706
 3979SOL    HW112389   3.069   0.457   7.759
 3979SOL    HW212390   3.018   0.599   7.764
 3980SOL     OW12391   2.152   0.231   8.691
 3980SOL    HW112392   2.104   0.248   8.773
 3980SOL    HW212393   2.191   0.145   8.703
 3981SOL     OW12394   1.908   1.310   8.723
 3981SOL    HW112395   1.941   1.257   8.795
 3981SOL    HW212396   1.913   1.400   8.755
 3982SOL     OW12397   2.583   0.630   8.502
 3982SOL    HW112398   2.659   0.614   8.445
 3982SOL    HW212399   2.555   0.719   8.479
 3983SOL     OW12400   3.599   0.960   9.303
 3983SOL    HW112401   3.554   0.895   9.249
 3983SOL    HW212402   3.539   0.975   9.376
 3984SOL     OW12403   2.156   0.048   8.100
 3984SOL    HW112404   2.145   0.143   8.100
 3984SOL    HW212405   2.168   0.026   8.192
 3985SOL     OW12406   3.483   0.383   7.805
 3985SOL    HW112407   3.507   0.317   7.869
 3985SOL    HW212408   3.458   0.460   7.857
 3986SOL     OW12409   2.894   0.764   8.408
 3986SOL    HW112410   2.886   0.779   8.503
 3986SOL    HW212411   2.863   0.674   8.396
 3987SOL     OW12412   2.845   1.566   9.168
 3987SOL    HW112413   2.829   1.610   9.084
 3987SOL    HW212414   2.888   1.484   9.144
 3988SOL     OW12415   3.715   1.503   9.053
 3988SOL    HW112416   3.735   1.530   8.963
 3988SOL    HW212417   3.796   1.519   9.101
 3989SOL     OW12418   2.216   0.917   9.257
 3989SOL    HW112419   2.297   0.935   9.304
 3989SOL    HW212420   2.241   0.853   9.190
 3990SOL     OW12421   3.390   0.262   7.576
 3990SOL    HW112422   3.321   0.205   7.608
 3990SOL    HW212423   3.421   0.308   7.653
 3991SOL     OW12424   3.150   0.826   7.477
 3991SOL    HW112425   3.192   0.740   7.480
 3991SOL    HW212426   3.182   0.865   7.395
 3992SOL     OW12427   2.928   1.337   8.303
 3992SOL    HW112428   2.932   1.265   8.241
 3992SOL    HW212429   2.988   1.403   8.268
 3993SOL     OW12430   2.170   0.810   8.394
 3993SOL    HW112431   2.263   0.832   8.388
 3993SOL    HW212432   2.169   0.720   8.427
 3994SOL     OW12433   2.197   0.535   8.462
 3994SOL    HW112434   2.154   0.451   8.444
 3994SOL    HW212435   2.273   0.535   8.404
 3995SOL     OW12436   2.999   0.371   9.149
 3995SOL    HW112437   2.947   0.434   9.198
 3995SOL    HW212438   3.083   0.415   9.135
 3996SOL     OW12439   3.015   0.215   8.922
 3996SOL    HW112440   3.011   0.278   8.993
 3996SOL    HW212441   3.059   0.261   8.851
 3997SOL     OW12442   1.869   1.318   7.642
 3997SOL    HW112443   1.782   1.334   7.605
 3997SOL    HW212444   1.865   1.229   7.677
 3998SOL     OW12445   1.950   1.788   8.385
 3998SOL    HW112446   1.918   1.709   8.341
 3998SOL    HW212447   2.040   1.797   8.355
 3999SOL     OW12448   2.356   1.569   8.350
 3999SOL    HW112449   2.424   1.632   8.372
 3999SOL    HW212450   2.400   1.505   8.293
 4000SOL     OW12451   2.840   0.792   8.674
 4000SOL    HW112452   2.898   0.771   8.747
 4000SOL    HW212453   2.757   0.749   8.695
 4001SOL     OW12454   1.894   0.545   8.567
 4001SOL    HW112455   1.971   0.527   8.512
 4001SOL    HW212456   1.929   0.547   8.656
 4002SOL     OW12457   2.046   0.523   9.172
 4002SOL    HW112458   2.124   0.504   9.119
 4002SOL    HW212459   2.006   0.598   9.129
 4003SOL     OW12460   3.241   0.936   9.105
 4003SOL    HW112461   3.262   1.029   9.102
 4003SOL    HW212462   3.237   0.909   9.014
 4004SOL     OW12463   2.672   0.578   7.808
 4004SOL    HW112464   2.678   0.506   7.745
 4004SOL    HW212465   2.599   0.631   7.777
 4005SOL     OW12466   3.500   0.602   8.631
 4005SOL    HW112467   3.490   0.543   8.705
 4005SOL    HW212468   3.588   0.584   8.597
 4006SOL     OW12469   2.107   1.548   9.178
 4006SOL    HW112470   2.080   1.611   9.245
 4006SOL    HW212471   2.108   1.464   9.223
 4007SOL     OW12472   2.571   0.457   8.709
 4007SOL    HW112473   2.520   0.381   8.680
 4007SOL    HW212474   2.567   0.518   8.635
 4008SOL     OW12475   2.789   1.677   8.918
 4008SOL    HW112476   2.762   1.640   8.834
 4008SOL    HW212477   2.785   1.772   8.905
 4009SOL     OW12478   2.323   0.492   7.630
 4009SOL    HW112479   2.383   0.563   7.653
 4009SOL    HW212480   2.239   0.535   7.617
 4010SOL     OW12481   2.006   1.142   8.922
 4010SOL    HW112482   2.007   1.092   9.004
 4010SOL    HW212483   2.022   1.076   8.854
 4011SOL     OW12484   3.185   1.045   8.669
 4011SOL    HW112485   3.207   0.981   8.601
 4011SOL    HW212486   3.118   1.100   8.629
 4012SOL     OW12487   3.177   0.857   7.753
 4012SOL    HW112488   3.103   0.827   7.806
 4012SOL    HW212489   3.148   0.844   7.662
 4013SOL     OW12490   3.639   1.740   8.602
 4013SOL    HW112491   3.699   1.766   8.532
 4013SOL    HW212492   3.612   1.651   8.579
 4014SOL     OW12493   3.103   1.733   8.557
 4014SOL    HW112494   3.185   1.755   8.514
 4014SOL    HW212495   3.111   1.640   8.577
 4015SOL     OW12496   1.950   1.264   8.460
 4015SOL    HW112497   1.933   1.280   8.553
 4015SOL    HW212498   1.875   1.213   8.430
 4016SOL     OW12499   2.542   1.667   9.182
 4016SOL    HW112500   2.486   1.744   9.177
 4016SOL    HW212501   2.607   1.680   9.113
 4017SOL     OW12502   3.582   0.128   7.934
 4017SOL    HW112503   3.650   0.141   7.868
 4017SOL    HW212504   3.615   0.059   7.991
 4018SOL     OW12505   3.254   1.567   7.936
 4018SOL    HW112506   3.313   1.601   7.868
 4018SOL    HW212507   3.204   1.644   7.964
 4019SOL     OW12508   1.999   1.802   9.294
 4019SOL    HW112509   1.949   1.733   9.339
 4019SOL    HW212510   2.047   1.846   9.364
 4020SOL     OW12511   3.141   0.930   8.121
 4020SOL    HW112512   3.214   0.868   8.128
 4020SOL    HW212513   3.175   1.001   8.067
 4021SOL     OW12514   2.671   1.275   8.874
 4021SOL    HW112515   2.643   1.315   8.957
 4021SOL    HW212516   2.600   1.294   8.813
 4022SOL     OW12517   2.531   1.624   7.604
 4022SOL    HW112518   2.545   1.637   7.510
 4022SOL    HW212519   2.476   1.546   7.609
 4023SOL     OW12520   3.484   1.727   8.839
 4023SOL    HW112521   3.536   1.733   8.759
 4023SOL    HW212522   3.470   1.818   8.865
 4024SOL     OW12523   3.702   0.152   8.413
 4024SOL    HW112524   3.733   0.074   8.368
 4024SOL    HW212525   3.615   0.168   8.376
 4025SOL     OW12526   2.123   0.318   8.162
 4025SOL    HW112527   2.038   0.354   8.137
 4025SOL    HW212528   2.119   0.312   8.258
 4026SOL     OW12529   3.070   1.604   7.480
 4026SOL    HW112530   3.059   1.512   7.507
 4026SOL    HW212531   3.004   1.616   7.412
 4027SOL     OW12532   2.685   1.006   8.823
 4027SOL    HW112533   2.729   0.999   8.738
 4027SOL    HW212534   2.684   1.100   8.841
 4028SOL     OW12535   2.778   0.911   7.738
 4028SOL    HW112536   2.840   0.943   7.672
 4028SOL    HW212537   2.826   0.842   7.784
 4029SOL     OW12538   3.352   1.627   7.492
 4029SOL    HW112539   3.258   1.618   7.477
 4029SOL    HW212540   3.389   1.633   7.404
 4030SOL     OW12541   2.231   1.302   8.940
 4030SOL    HW112542   2.218   1.380   8.885
 4030SOL    HW212543   2.154   1.248   8.925
 4031SOL     OW12544   3.471   1.284   8.728
 4031SOL    HW112545   3.530   1.269   8.803
 4031SOL    HW212546   3.411   1.351   8.758
 4032SOL     OW12547   2.919   1.109   8.157
 4032SOL    HW112548   2.847   1.058   8.194
 4032SOL    HW212549   2.983   1.043   8.129
 4033SOL     OW12550   2.864   0.247   8.459
 4033SOL    HW112551   2.871   0.229   8.366
 4033SOL    HW212552   2.855   0.160   8.499
 4034SOL     OW12553   2.468   1.490   7.928
 4034SOL    HW112554   2.515   1.438   7.862
 4034SOL    HW212555   2.392   1.525   7.881
 4035SOL     OW12556   3.586   0.395   8.823
 4035SOL    HW112557   3.660   0.455   8.823
 4035SOL    HW212558   3.614   0.323   8.767
 4036SOL     OW12559   2.123   1.344   7.740
 4036SOL    HW112560   2.031   1.340   7.716
 4036SOL    HW212561   2.123   1.382   7.828
 4037SOL     OW12562   1.976   1.026   9.170
 4037SOL    HW112563   1.899   1.001   9.222
 4037SOL    HW212564   2.050   0.986   9.215
 4038SOL     OW12565   2.519   0.205   8.950
 4038SOL    HW112566   2.597   0.181   8.902
 4038SOL    HW212567   2.550   0.229   9.037
 4039SOL     OW12568   1.945   0.332   7.496
 4039SOL    HW112569   1.875   0.276   7.460
 4039SOL    HW212570   1.954   0.403   7.433
 4040SOL     OW12571   3.289   0.858   8.846
 4040SOL    HW112572   3.240   0.919   8.791
 4040SOL    HW212573   3.378   0.860   8.811
 4041SOL     OW12574   1.924   0.188   7.761
 4041SOL    HW112575   1.926   0.256   7.693
 4041SOL    HW212576   1.998   0.132   7.740
 4042SOL     OW12577   3.040   1.337   7.565
 4042SOL    HW112578   2.950   1.304   7.567
 4042SOL    HW212579   3.068   1.338   7.657
 4043SOL     OW12580   2.482   0.830   8.883
 4043SOL    HW112581   2.538   0.906   8.868
 4043SOL    HW212582   2.542   0.757   8.891
 4044SOL     OW12583   3.345   1.781   8.429
 4044SOL    HW112584   3.368   1.843   8.360
 4044SOL    HW212585   3.429   1.756   8.468
 4045SOL     OW12586   2.578   0.561   9.152
 4045SOL    HW112587   2.620   0.623   9.211
 4045SOL    HW212588   2.604   0.475   9.185
 4046SOL     OW12589   3.335   1.197   9.078
 4046SOL    HW112590   3.322   1.211   9.172
 4046SOL    HW212591   3.428   1.214   9.063
 4047SOL     OW12592   2.242   1.732   9.014
 4047SOL    HW112593   2.156   1.771   8.995
 4047SOL    HW212594   2.222   1.649   9.056
 4048SOL     OW12595   3.528   0.880   8.703
 4048SOL    HW112596   3.523   0.795   8.660
 4048SOL    HW212597   3.519   0.944   8.632
 4049SOL     OW12598   3.082   0.333   7.894
 4049SOL    HW112599   3.149   0.266   7.880
 4049SOL    HW212600   3.110   0.380   7.972
 4050SOL     OW12601   2.446   0.736   8.123
 4050SOL    HW112602   2.489   0.820   8.107
 4050SOL    HW212603   2.382   0.728   8.052
 4051SOL     OW12604   3.620   0.371   9.092
 4051SOL    HW112605   3.605   0.384   8.998
 4051SOL    HW212606   3.544   0.322   9.122
 4052SOL     OW12607   3.610   0.933   8.959
 4052SOL    HW112608   3.601   1.028   8.972
 4052SOL    HW212609   3.593   0.920   8.866
 4053SOL     OW12610   2.723   1.366   7.486
 4053SOL    HW112611   2.687   1.393   7.570
 4053SOL    HW212612   2.741   1.448   7.440
 4054SOL     OW12613   2.523   1.797   8.384
 4054SOL    HW112614   2.533   1.884   8.423
 4054SOL    HW212615   2.613   1.763   8.377
 4055SOL     OW12616   2.731   0.970   8.302
 4055SOL    HW112617   2.781   0.897   8.339
 4055SOL    HW212618   2.693   1.015   8.378
 4056SOL     OW12619   2.941   0.990   7.537
 4056SOL    HW112620   2.919   1.040   7.459
 4056SOL    HW212621   3.014   0.935   7.510
 4057SOL     OW12622   3.713   1.555   8.292
 4057SOL    HW112623   3.634   1.542   8.239
 4057SOL    HW212624   3.709   1.487   8.359
 4058SOL     OW12625   2.087   1.299   9.303
 4058SOL    HW112626   2.022   1.238   9.270
 4058SOL    HW212627   2.063   1.312   9.395
 4059SOL     OW12628   1.950   1.232   8.113
 4059SOL    HW112629   1.953   1.186   8.197
 4059SOL    HW212630   2.017   1.189   8.059
 4060SOL     OW12631   2.544   1.405   9.077
 4060SOL    HW112632   2.465   1.362   9.109
 4060SOL    HW212633   2.541   1.493   9.116
 4061SOL     OW12634   3.665   0.178   8.686
 4061SOL    HW112635   3.664   0.084   8.705
 4061SOL    HW212636   3.684   0.183   8.592
 4062SOL     OW12637   2.300   0.432   7.980
 4062SOL    HW112638   2.320   0.364   7.916
 4062SOL    HW212639   2.243   0.389   8.044
 4063SOL     OW12640   3.559   1.488   8.542
 4063SOL    HW112641   3.480   1.466   8.493
 4063SOL    HW212642   3.567   1.418   8.607
 4064SOL     OW12643   2.195   0.560   8.741
 4064SOL    HW112644   2.250   0.502   8.794
 4064SOL    HW212645   2.213   0.533   8.651
 4065SOL     OW12646   2.690   1.578   8.124
 4065SOL    HW112647   2.672   1.634   8.048
 4065SOL    HW212648   2.617   1.517   8.127
 4066SOL     OW12649   3.293   0.217   8.564
 4066SOL    HW112650   3.328   0.145   8.616
 4066SOL    HW212651   3.242   0.270   8.626
 4067SOL     OW12652   2.857   0.002   8.601
 4067SOL    HW112653   2.818   4.415   8.596
 4067SOL    HW212654   2.951   4.486   8.610
 4068SOL     OW12655   2.635   1.334   7.766
 4068SOL    HW112656   2.606   1.243   7.773
 4068SOL    HW212657   2.717   1.336   7.816
 4069SOL     OW12658   2.483   1.554   8.731
 4069SOL    HW112659   2.484   1.634   8.784
 4069SOL    HW212660   2.572   1.547   8.696
 4070SOL     OW12661   3.200   0.051   7.607
 4070SOL    HW112662   3.238   4.476   7.562
 4070SOL    HW212663   3.124   0.017   7.652
 4071SOL     OW12664   3.177   0.465   8.120
 4071SOL    HW112665   3.120   0.542   8.121
 4071SOL    HW212666   3.166   0.425   8.206
 4072SOL     OW12667   3.447   0.198   8.317
 4072SOL    HW112668   3.390   0.213   8.391
 4072SOL    HW212669   3.450   0.281   8.270
 4073SOL     OW12670   1.906   1.068   7.755
 4073SOL    HW112671   1.999   1.059   7.736
 4073SOL    HW212672   1.877   0.979   7.778
 4074SOL     OW12673   2.749   1.656   7.788
 4074SOL    HW112674   2.675   1.639   7.730
 4074SOL    HW212675   2.720   1.731   7.842
 4075SOL     OW12676   2.088   0.625   9.433
 4075SOL    HW112677   2.002   0.618   9.474
 4075SOL    HW212678   2.075   0.597   9.343
 4076SOL     OW12679   2.068   0.302  10.300
 4076SOL    HW112680   2.099   0.270  10.385
 4076SOL    HW212681   1.986   0.254  10.285
 4077SOL     OW12682   1.868   0.390   9.945
 4077SOL    HW112683   1.782   0.407   9.983
 4077SOL    HW212684   1.853   0.318   9.885
 4078SOL     OW12685   2.431   1.292  10.491
 4078SOL    HW112686   2.344   1.294  10.451
 4078SOL    HW212687   2.444   1.382  10.521
 4079SOL     OW12688   3.429   1.513  10.018
 4079SOL    HW112689   3.386   1.491  10.101
 4079SOL    HW212690   3.357   1.516   9.954
 4080SOL     OW12691   3.001   0.697  10.005
 4080SOL    HW112692   3.045   0.781   9.996
 4080SOL    HW212693   2.949   0.704  10.085
 4081SOL     OW12694   3.635   0.604   9.536
 4081SOL    HW112695   3.611   0.596   9.443
 4081SOL    HW212696   3.599   0.525   9.576
 4082SOL     OW12697   2.615   1.141  10.356
 4082SOL    HW112698   2.547   1.177  10.413
 4082SOL    HW212699   2.651   1.217  10.310
 4083SOL     OW12700   2.722   0.769   0.024
 4083SOL    HW112701   2.728   0.824   0.102
 4083SOL    HW212702   2.754   0.825  11.053
 4084SOL     OW12703   2.548   1.000   9.954
 4084SOL    HW112704   2.613   0.989  10.024
 4084SOL    HW212705   2.479   1.052   9.994
 4085SOL     OW12706   2.194   1.418  10.377
 4085SOL    HW112707   2.119   1.381  10.332
 4085SOL    HW212708   2.241   1.468  10.310
 4086SOL     OW12709   3.324   1.500  10.664
 4086SOL    HW112710   3.383   1.575  10.671
 4086SOL    HW212711   3.261   1.513  10.734
 4087SOL     OW12712   2.314   0.392  10.779
 4087SOL    HW112713   2.391   0.336  10.789
 4087SOL    HW212714   2.242   0.341  10.817
 4088SOL     OW12715   3.470   0.442  10.049
 4088SOL    HW112716   3.389   0.462  10.000
 4088SOL    HW212717   3.484   0.520  10.102
 4089SOL     OW12718   2.078   1.706   9.772
 4089SOL    HW112719   2.102   1.775   9.834
 4089SOL    HW212720   2.155   1.696   9.716
 4090SOL     OW12721   2.096   1.439   9.849
 4090SOL    HW112722   2.072   1.532   9.846
 4090SOL    HW212723   2.035   1.400   9.911
 4091SOL     OW12724   2.126   1.091  10.203
 4091SOL    HW112725   2.120   1.003  10.241
 4091SOL    HW212726   2.067   1.144  10.255
 4092SOL     OW12727   2.465   1.790  10.731
 4092SOL    HW112728   2.389   1.771  10.785
 4092SOL    HW212729   2.492   1.878  10.758
 4093SOL     OW12730   2.444   0.984   9.447
 4093SOL    HW112731   2.492   1.030   9.378
 4093SOL    HW212732   2.483   1.015   9.528
 4094SOL     OW12733   3.413   0.138  10.788
 4094SOL    HW112734   3.455   0.194  10.723
 4094SOL    HW212735   3.481   0.125  10.855
 4095SOL     OW12736   1.980   0.655   9.870
 4095SOL    HW112737   1.949   0.567   9.892
 4095SOL    HW212738   1.972   0.704   9.952
 4096SOL     OW12739   3.705   1.756   9.642
 4096SOL    HW112740   3.771   1.729   9.705
 4096SOL    HW212741   3.725   1.848   9.623
 4097SOL     OW12742   1.901   1.592   9.431
 4097SOL    HW112743   1.880   1.501   9.450
 4097SOL    HW212744   1.872   1.640   9.509
 4098SOL     OW12745   3.553   0.920   9.955
 4098SOL    HW112746   3.635   0.876   9.932
 4098SOL    HW212747   3.530   0.970   9.876
 4099SOL     OW12748   3.510   1.105   9.739
 4099SOL    HW112749   3.596   1.108   9.698
 4099SOL    HW212750   3.515   1.167   9.811
 4100SOL     OW12751   1.992   0.725  10.920
 4100SOL    HW112752   2.084   0.745  10.904
 4100SOL    HW212753   1.947   0.809  10.912
 4101SOL     OW12754   2.479   1.387  10.044
 4101SOL    HW112755   2.433   1.303  10.053
 4101SOL    HW212756   2.462   1.414   9.954
 4102SOL     OW12757   3.152   1.236  10.753
 4102SOL    HW112758   3.177   1.175  10.683
 4102SOL    HW212759   3.209   1.213  10.826
 4103SOL     OW12760   2.682   0.019   9.866
 4103SOL    HW112761   2.719   0.102   9.838
 4103SOL    HW212762   2.587   0.031   9.858
 4104SOL     OW12763   2.051   0.962  10.581
 4104SOL    HW112764   2.136   0.920  10.565
 4104SOL    HW212765   1.989   0.910  10.530
 4105SOL     OW12766   3.393   0.996   9.510
 4105SOL    HW112767   3.323   0.939   9.542
 4105SOL    HW212768   3.435   1.030   9.589
 4106SOL     OW12769   3.059   1.807  10.929
 4106SOL    HW112770   3.055   1.872  10.859
 4106SOL    HW212771   3.070   1.723  10.883
 4107SOL     OW12772   2.198   0.281  11.085
 4107SOL    HW112773   2.253   0.344   0.032
 4107SOL    HW212774   2.115   0.283   0.031
 4108SOL     OW12775   3.330   1.419  10.258
 4108SOL    HW112776   3.262   1.436  10.324
 4108SOL    HW212777   3.316   1.328  10.232
 4109SOL     OW12778   3.517   1.747   9.887
 4109SOL    HW112779   3.499   1.715   9.799
 4109SOL    HW212780   3.496   1.673   9.945
 4110SOL     OW12781   2.453   0.722   9.577
 4110SOL    HW112782   2.456   0.805   9.530
 4110SOL    HW212783   2.388   0.735   9.646
 4111SOL     OW12784   3.155   0.370  10.242
 4111SOL    HW112785   3.066   0.341  10.225
 4111SOL    HW212786   3.190   0.307  10.304
 4112SOL     OW12787   3.441   1.672   9.620
 4112SOL    HW112788   3.532   1.700   9.612
 4112SOL    HW212789   3.413   1.655   9.530
 4113SOL     OW12790   2.658   0.620  10.763
 4113SOL    HW112791   2.626   0.594  10.850
 4113SOL    HW212792   2.624   0.553  10.704
 4114SOL     OW12793   2.828   0.902  10.907
 4114SOL    HW112794   2.876   0.830  10.866
 4114SOL    HW212795   2.776   0.939  10.836
 4115SOL     OW12796   2.861   0.420  10.540
 4115SOL    HW112797   2.771   0.425  10.572
 4115SOL    HW212798   2.855   0.364  10.463
 4116SOL     OW12799   2.913   0.698   9.735
 4116SOL    HW112800   2.931   0.689   9.829
 4116SOL    HW212801   2.829   0.654   9.723
 4117SOL     OW12802   1.951   0.822  10.087
 4117SOL    HW112803   2.031   0.815  10.139
 4117SOL    HW212804   1.906   0.899  10.122
 4118SOL     OW12805   1.993   1.842  10.900
 4118SOL    HW112806   1.964   1.811  10.986
 4118SOL    HW212807   1.913   1.852  10.849
 4119SOL     OW12808   2.719   0.371   9.499
 4119SOL    HW112809   2.786   0.404   9.439
 4119SOL    HW212810   2.730   0.276   9.498
 4120SOL     OW12811   3.241   1.143   9.850
 4120SOL    HW112812   3.320   1.131   9.797
 4120SOL    HW212813   3.188   1.204   9.800
 4121SOL     OW12814   2.399   0.208  10.213
 4121SOL    HW112815   2.420   0.226  10.304
 4121SOL    HW212816   2.393   0.294  10.172
 4122SOL     OW12817   2.865   1.444   9.780
 4122SOL    HW112818   2.831   1.518   9.730
 4122SOL    HW212819   2.844   1.464   9.871
 4123SOL     OW12820   2.219   1.799  10.187
 4123SOL    HW112821   2.248   1.708  10.187
 4123SOL    HW212822   2.297   1.849  10.213
 4124SOL     OW12823   3.661   1.057  10.180
 4124SOL    HW112824   3.609   1.035  10.103
 4124SOL    HW212825   3.598   1.062  10.252
 4125SOL     OW12826   3.092   1.534  10.822
 4125SOL    HW112827   3.102   1.445  10.853
 4125SOL    HW212828   3.024   1.529  10.754
 4126SOL     OW12829   2.179   0.958   9.562
 4126SOL    HW112830   2.261   0.978   9.517
 4126SOL    HW212831   2.149   0.876   9.524
 4127SOL     OW12832   3.344   0.746  10.033
 4127SOL    HW112833   3.335   0.704  10.118
 4127SOL    HW212834   3.421   0.802  10.040
 4128SOL     OW12835   2.313   1.265  11.054
 4128SOL    HW112836   2.284   1.280  10.964
 4128SOL    HW212837   2.257   1.194  11.086
 4129SOL     OW12838   2.985   1.778   9.540
 4129SOL    HW112839   2.910   1.737   9.584
 4129SOL    HW212840   3.009   1.715   9.472
 4130SOL     OW12841   2.058   0.265  10.822
 4130SOL    HW112842   1.989   0.331  10.817
 4130SOL    HW212843   2.084   0.264  10.914
 4131SOL     OW12844   3.491   1.381   9.399
 4131SOL    HW112845   3.449   1.466   9.384
 4131SOL    HW212846   3.422   1.317   9.379
 4132SOL     OW12847   2.328   1.729   9.632
 4132SOL    HW112848   2.371   1.790   9.692
 4132SOL    HW212849   2.397   1.697   9.576
 4133SOL     OW12850   3.289   0.146   9.729
 4133SOL    HW112851   3.272   0.089   9.654
 4133SOL    HW212852   3.381   0.133   9.748
 4134SOL     OW12853   2.105   1.785  10.548
 4134SOL    HW112854   2.164   1.723  10.590
 4134SOL    HW212855   2.113   1.766  10.454
 4135SOL     OW12856   2.798   1.698  10.210
 4135SOL    HW112857   2.878   1.649  10.229
 4135SOL    HW212858   2.756   1.650  10.140
 4136SOL     OW12859   2.257   0.693   9.784
 4136SOL    HW112860   2.278   0.601   9.799
 4136SOL    HW212861   2.163   0.699   9.802
 4137SOL     OW12862   2.495   0.122   9.434
 4137SOL    HW112863   2.582   0.085   9.444
 4137SOL    HW212864   2.460   0.082   9.355
 4138SOL     OW12865   2.618   0.267  11.048
 4138SOL    HW112866   2.689   0.206  11.068
 4138SOL    HW212867   2.592   0.303   0.033
 4139SOL     OW12868   2.738   1.523  10.504
 4139SOL    HW112869   2.722   1.486  10.417
 4139SOL    HW212870   2.810   1.471  10.539
 4140SOL     OW12871   3.206   0.592  10.754
 4140SOL    HW112872   3.257   0.574  10.832
 4140SOL    HW212873   3.230   0.681  10.729
 4141SOL     OW12874   2.679   1.393  10.253
 4141SOL    HW112875   2.764   1.381  10.210
 4141SOL    HW212876   2.616   1.395  10.181
 4142SOL     OW12877   2.787   0.524  10.207
 4142SOL    HW112878   2.770   0.521  10.112
 4142SOL    HW212879   2.819   0.436  10.228
 4143SOL     OW12880   2.418   0.082   9.834
 4143SOL    HW112881   2.332   0.048   9.858
 4143SOL    HW212882   2.401   0.142   9.761
 4144SOL     OW12883   3.290   1.199   9.350
 4144SOL    HW112884   3.320   1.124   9.401
 4144SOL    HW212885   3.205   1.221   9.387
 4145SOL     OW12886   2.156   0.064   9.515
 4145SOL    HW112887   2.232   0.119   9.500
 4145SOL    HW212888   2.185   0.000   9.580
 4146SOL     OW12889   2.819   0.240   9.773
 4146SOL    HW112890   2.767   0.303   9.725
 4146SOL    HW212891   2.908   0.273   9.768
 4147SOL     OW12892   2.940   0.689  10.772
 4147SOL    HW112893   2.868   0.626  10.772
 4147SOL    HW212894   3.019   0.635  10.769
 4148SOL     OW12895   3.082   1.572  10.105
 4148SOL    HW112896   3.098   1.637  10.037
 4148SOL    HW212897   3.152   1.587  10.169
 4149SOL     OW12898   2.333   1.152  10.040
 4149SOL    HW112899   2.266   1.131  10.105
 4149SOL    HW212900   2.291   1.137   9.956
 4150SOL     OW12901   3.128   1.793   9.921
 4150SOL    HW112902   3.176   1.855   9.865
 4150SOL    HW212903   3.060   1.845   9.963
 4151SOL     OW12904   2.889   0.543   9.330
 4151SOL    HW112905   2.842   0.625   9.315
 4151SOL    HW212906   2.948   0.563   9.403
 4152SOL     OW12907   1.947   0.546  10.712
 4152SOL    HW112908   2.037   0.553  10.681
 4152SOL    HW212909   1.941   0.609  10.784
 4153SOL     OW12910   2.422   0.247  10.481
 4153SOL    HW112911   2.441   0.161  10.517
 4153SOL    HW212912   2.330   0.263  10.504
 4154SOL     OW12913   2.726   0.505   9.938
 4154SOL    HW112914   2.688   0.541   9.858
 4154SOL    HW212915   2.678   0.423   9.953
 4155SOL     OW12916   2.815   0.015  10.106
 4155SOL    HW112917   2.770   0.018  10.021
 4155SOL    HW212918   2.831   4.422  10.121
 4156SOL     OW12919   3.299   1.162  10.166
 4156SOL    HW112920   3.231   1.095  10.166
 4156SOL    HW212921   3.324   1.171  10.074
 4157SOL     OW12922   3.326   0.609  10.279
 4157SOL    HW112923   3.270   0.531  10.280
 4157SOL    HW212924   3.382   0.599  10.356
 4158SOL     OW12925   3.705   0.814   9.694
 4158SOL    HW112926   3.762   0.764   9.752
 4158SOL    HW212927   3.679   0.751   9.627
 4159SOL     OW12928   2.351   1.421   9.463
 4159SOL    HW112929   2.276   1.392   9.515
 4159SOL    HW212930   2.342   1.374   9.380
 4160SOL     OW12931   3.536   1.265   9.952
 4160SOL    HW112932   3.630   1.265   9.968
 4160SOL    HW212933   3.507   1.353   9.974
 4161SOL     OW12934   3.257   0.573   9.379
 4161SOL    HW112935   3.194   0.556   9.450
 4161SOL    HW212936   3.342   0.556   9.419
 4162SOL     OW12937   2.379   0.265   9.631
 4162SOL    HW112938   2.431   0.216   9.567
 4162SOL    HW212939   2.360   0.348   9.588
 4163SOL     OW12940   3.619   1.229  10.858
 4163SOL    HW112941   3.711   1.202  10.857
 4163SOL    HW212942   3.620   1.315  10.901
 4164SOL     OW12943   2.922   1.356  10.651
 4164SOL    HW112944   2.844   1.321  10.694
 4164SOL    HW212945   2.994   1.306  10.689
 4165SOL     OW12946   2.997   1.213  10.414
 4165SOL    HW112947   2.927   1.241  10.472
 4165SOL    HW212948   2.968   1.240  10.327
 4166SOL     OW12949   3.487   1.097  10.388
 4166SOL    HW112950   3.483   1.159  10.460
 4166SOL    HW212951   3.409   1.115  10.336
 4167SOL     OW12952   2.755   0.128  10.696
 4167SOL    HW112953   2.781   0.089  10.612
 4167SOL    HW212954   2.837   0.156  10.736
 4168SOL     OW12955   2.572   1.063   9.681
 4168SOL    HW112956   2.557   1.044   9.773
 4168SOL    HW212957   2.647   1.009   9.657
 4169SOL     OW12958   2.284   0.817  10.561
 4169SOL    HW112959   2.352   0.826  10.628
 4169SOL    HW212960   2.249   0.730  10.574
 4170SOL     OW12961   3.133   0.383  10.583
 4170SOL    HW112962   3.163   0.460  10.632
 4170SOL    HW212963   3.043   0.405  10.558
 4171SOL     OW12964   1.932   1.574  10.663
 4171SOL    HW112965   1.903   1.649  10.610
 4171SOL    HW212966   2.027   1.578  10.660
 4172SOL     OW12967   2.206   1.113   9.800
 4172SOL    HW112968   2.209   1.186   9.738
 4172SOL    HW212969   2.203   1.035   9.744
 4173SOL     OW12970   2.415   0.525  10.168
 4173SOL    HW112971   2.427   0.585  10.094
 4173SOL    HW212972   2.482   0.552  10.231
 4174SOL     OW12973   3.110   1.349   9.699
 4174SOL    HW112974   3.166   1.420   9.731
 4174SOL    HW212975   3.023   1.370   9.733
 4175SOL     OW12976   3.146   1.461  10.455
 4175SOL    HW112977   3.203   1.463  10.532
 4175SOL    HW212978   3.094   1.382  10.466
 4176SOL     OW12979   3.441   0.623   9.789
 4176SOL    HW112980   3.393   0.669   9.858
 4176SOL    HW212981   3.485   0.692   9.740
 4177SOL     OW12982   2.209   1.524  10.623
 4177SOL    HW112983   2.195   1.481  10.539
 4177SOL    HW212984   2.304   1.537  10.628
 4178SOL     OW12985   2.278   0.733  10.904
 4178SOL    HW112986   2.343   0.775  10.848
 4178SOL    HW212987   2.312   0.645  10.918
 4179SOL     OW12988   3.461   0.755  10.966
 4179SOL    HW112989   3.383   0.809  10.957
 4179SOL    HW212990   3.531   0.806  10.924
 4180SOL     OW12991   2.445   0.874  10.340
 4180SOL    HW112992   2.476   0.965  10.343
 4180SOL    HW212993   2.389   0.866  10.417
 4181SOL     OW12994   3.214   0.861  10.341
 4181SOL    HW112995   3.130   0.848  10.298
 4181SOL    HW212996   3.259   0.777  10.331
 4182SOL     OW12997   3.061   0.536   9.568
 4182SOL    HW112998   3.069   0.457   9.621
 4182SOL    HW212999   3.018   0.599   9.626
 4183SOL     OW13000   2.150   0.230  10.551
 4183SOL    HW113001   2.112   0.247  10.637
 4183SOL    HW213002   2.190   0.143  10.560
 4184SOL     OW13003   1.915   1.313  10.582
 4184SOL    HW113004   1.941   1.257  10.656
 4184SOL    HW213005   1.914   1.401  10.619
 4185SOL     OW13006   2.583   0.630  10.364
 4185SOL    HW113007   2.659   0.614  10.307
 4185SOL    HW213008   2.555   0.719  10.342
 4186SOL     OW13009   2.156   0.048   9.962
 4186SOL    HW113010   2.145   0.144   9.962
 4186SOL    HW213011   2.169   0.025  10.054
 4187SOL     OW13012   3.483   0.383   9.667
 4187SOL    HW113013   3.507   0.317   9.731
 4187SOL    HW213014   3.458   0.460   9.719
 4188SOL     OW13015   2.893   0.764  10.270
 4188SOL    HW113016   2.886   0.779  10.365
 4188SOL    HW213017   2.863   0.674  10.258
 4189SOL     OW13018   2.833   1.572  11.004
 4189SOL    HW113019   2.819   1.623  10.924
 4189SOL    HW213020   2.862   1.486  10.973
 4190SOL     OW13021   3.715   1.489  10.911
 4190SOL    HW113022   3.735   1.526  10.825
 4190SOL    HW213023   3.781   1.529  10.969
 4191SOL     OW13024   2.224   0.919  11.093
 4191SOL    HW113025   2.308   0.934   0.038
 4191SOL    HW213026   2.243   0.852  11.027
 4192SOL     OW13027   3.390   0.262   9.438
 4192SOL    HW113028   3.321   0.205   9.470
 4192SOL    HW213029   3.422   0.308   9.515
 4193SOL     OW13030   3.151   0.826   9.339
 4193SOL    HW113031   3.192   0.740   9.342
 4193SOL    HW213032   3.182   0.865   9.257
 4194SOL     OW13033   2.929   1.337  10.165
 4194SOL    HW113034   2.933   1.265  10.102
 4194SOL    HW213035   2.989   1.403  10.130
 4195SOL     OW13036   2.170   0.810  10.256
 4195SOL    HW113037   2.263   0.831  10.249
 4195SOL    HW213038   2.168   0.720  10.289
 4196SOL     OW13039   2.196   0.535  10.323
 4196SOL    HW113040   2.153   0.451  10.305
 4196SOL    HW213041   2.273   0.535  10.266
 4197SOL     OW13042   3.005   0.217  10.767
 4197SOL    HW113043   3.045   0.241  10.850
 4197SOL    HW213044   3.052   0.269  10.702
 4198SOL     OW13045   1.869   1.319   9.504
 4198SOL    HW113046   1.782   1.334   9.468
 4198SOL    HW213047   1.865   1.230   9.539
 4199SOL     OW13048   1.948   1.791  10.246
 4199SOL    HW113049   1.918   1.711  10.203
 4199SOL    HW213050   2.041   1.797  10.223
 4200SOL     OW13051   2.359   1.568  10.213
 4200SOL    HW113052   2.426   1.634  10.231
 4200SOL    HW213053   2.402   1.505  10.156
 4201SOL     OW13054   2.839   0.795  10.537
 4201SOL    HW113055   2.896   0.774  10.610
 4201SOL    HW213056   2.758   0.748  10.555
 4202SOL     OW13057   1.895   0.546  10.431
 4202SOL    HW113058   1.972   0.528  10.377
 4202SOL    HW213059   1.929   0.547  10.521
 4203SOL     OW13060   2.672   0.578   9.670
 4203SOL    HW113061   2.678   0.506   9.607
 4203SOL    HW213062   2.599   0.631   9.640
 4204SOL     OW13063   3.500   0.601  10.492
 4204SOL    HW113064   3.491   0.545  10.569
 4204SOL    HW213065   3.588   0.584  10.459
 4205SOL     OW13066   2.121   1.561  11.051
 4205SOL    HW113067   2.058   1.589   0.018
 4205SOL    HW213068   2.133   1.468  11.068
 4206SOL     OW13069   2.575   0.455  10.570
 4206SOL    HW113070   2.522   0.380  10.543
 4206SOL    HW213071   2.569   0.516  10.497
 4207SOL     OW13072   2.799   1.680  10.756
 4207SOL    HW113073   2.768   1.645  10.672
 4207SOL    HW213074   2.787   1.775  10.747
 4208SOL     OW13075   2.323   0.492   9.492
 4208SOL    HW113076   2.383   0.563   9.515
 4208SOL    HW213077   2.239   0.535   9.479
 4209SOL     OW13078   2.015   1.139  10.779
 4209SOL    HW113079   2.007   1.086  10.859
 4209SOL    HW213080   2.027   1.075  10.709
 4210SOL     OW13081   3.183   1.051  10.538
 4210SOL    HW113082   3.208   0.985  10.473
 4210SOL    HW213083   3.117   1.104  10.494
 4211SOL     OW13084   3.177   0.857   9.615
 4211SOL    HW113085   3.103   0.827   9.667
 4211SOL    HW213086   3.149   0.844   9.524
 4212SOL     OW13087   3.642   1.741  10.465
 4212SOL    HW113088   3.701   1.766  10.393
 4212SOL    HW213089   3.614   1.653  10.442
 4213SOL     OW13090   3.103   1.734  10.420
 4213SOL    HW113091   3.185   1.757  10.376
 4213SOL    HW213092   3.111   1.640  10.438
 4214SOL     OW13093   1.949   1.266  10.320
 4214SOL    HW113094   1.935   1.281  10.413
 4214SOL    HW213095   1.875   1.213  10.292
 4215SOL     OW13096   3.582   0.128   9.796
 4215SOL    HW113097   3.650   0.141   9.730
 4215SOL    HW213098   3.616   0.059   9.853
 4216SOL     OW13099   3.253   1.568   9.798
 4216SOL    HW113100   3.313   1.601   9.731
 4216SOL    HW213101   3.204   1.644   9.826
 4217SOL     OW13102   3.141   0.930   9.984
 4217SOL    HW113103   3.214   0.868   9.990
 4217SOL    HW213104   3.175   1.001   9.930
 4218SOL     OW13105   2.674   1.276  10.735
 4218SOL    HW113106   2.643   1.310  10.819
 4218SOL    HW213107   2.604   1.296  10.674
 4219SOL     OW13108   2.531   1.623   9.466
 4219SOL    HW113109   2.545   1.637   9.372
 4219SOL    HW213110   2.476   1.545   9.471
 4220SOL     OW13111   3.479   1.722  10.692
 4220SOL    HW113112   3.537   1.735  10.617
 4220SOL    HW213113   3.463   1.810  10.726
 4221SOL     OW13114   3.701   0.153  10.276
 4221SOL    HW113115   3.733   0.074  10.232
 4221SOL    HW213116   3.615   0.168  10.238
 4222SOL     OW13117   2.123   0.318  10.024
 4222SOL    HW113118   2.038   0.354   9.999
 4222SOL    HW213119   2.119   0.312  10.119
 4223SOL     OW13120   3.070   1.603   9.342
 4223SOL    HW113121   3.060   1.512   9.369
 4223SOL    HW213122   3.004   1.616   9.274
 4224SOL     OW13123   2.687   1.006  10.691
 4224SOL    HW113124   2.730   0.993  10.606
 4224SOL    HW213125   2.687   1.100  10.703
 4225SOL     OW13126   2.778   0.911   9.601
 4225SOL    HW113127   2.840   0.943   9.534
 4225SOL    HW213128   2.826   0.842   9.646
 4226SOL     OW13129   3.352   1.627   9.354
 4226SOL    HW113130   3.258   1.618   9.339
 4226SOL    HW213131   3.389   1.633   9.266
 4227SOL     OW13132   2.226   1.312  10.808
 4227SOL    HW113133   2.214   1.384  10.747
 4227SOL    HW213134   2.154   1.251  10.788
 4228SOL     OW13135   3.475   1.281  10.594
 4228SOL    HW113136   3.529   1.263  10.671
 4228SOL    HW213137   3.417   1.353  10.622
 4229SOL     OW13138   2.919   1.109  10.019
 4229SOL    HW113139   2.847   1.058  10.056
 4229SOL    HW213140   2.982   1.043   9.991
 4230SOL     OW13141   2.865   0.248  10.321
 4230SOL    HW113142   2.871   0.230  10.227
 4230SOL    HW213143   2.855   0.161  10.361
 4231SOL     OW13144   2.468   1.489   9.790
 4231SOL    HW113145   2.515   1.438   9.724
 4231SOL    HW213146   2.393   1.526   9.743
 4232SOL     OW13147   3.583   0.394  10.691
 4232SOL    HW113148   3.657   0.455  10.693
 4232SOL    HW213149   3.611   0.324  10.632
 4233SOL     OW13150   2.123   1.344   9.601
 4233SOL    HW113151   2.031   1.341   9.578
 4233SOL    HW213152   2.124   1.380   9.690
 4234SOL     OW13153   1.981   1.012  11.016
 4234SOL    HW113154   1.913   1.005  11.083
 4234SOL    HW213155   2.061   0.981  11.059
 4235SOL     OW13156   2.510   0.182  10.811
 4235SOL    HW113157   2.588   0.162  10.760
 4235SOL    HW213158   2.543   0.220  10.892
 4236SOL     OW13159   1.945   0.331   9.358
 4236SOL    HW113160   1.875   0.277   9.322
 4236SOL    HW213161   1.954   0.403   9.295
 4237SOL     OW13162   3.289   0.851  10.710
 4237SOL    HW113163   3.240   0.919  10.664
 4237SOL    HW213164   3.378   0.858  10.676
 4238SOL     OW13165   1.924   0.188   9.622
 4238SOL    HW113166   1.926   0.256   9.555
 4238SOL    HW213167   1.998   0.131   9.602
 4239SOL     OW13168   3.040   1.337   9.427
 4239SOL    HW113169   2.950   1.305   9.429
 4239SOL    HW213170   3.067   1.337   9.519
 4240SOL     OW13171   2.483   0.829  10.745
 4240SOL    HW113172   2.540   0.905  10.731
 4240SOL    HW213173   2.544   0.755  10.753
 4241SOL     OW13174   3.344   1.781  10.291
 4241SOL    HW113175   3.368   1.843  10.222
 4241SOL    HW213176   3.427   1.755  10.330
 4242SOL     OW13177   2.574   0.567  11.014
 4242SOL    HW113178   2.615   0.637  11.065
 4242SOL    HW213179   2.619   0.488  11.042
 4243SOL     OW13180   2.247   1.736  10.880
 4243SOL    HW113181   2.168   1.787  10.866
 4243SOL    HW213182   2.220   1.664  10.937
 4244SOL     OW13183   3.529   0.881  10.568
 4244SOL    HW113184   3.523   0.796  10.524
 4244SOL    HW213185   3.520   0.945  10.497
 4245SOL     OW13186   3.082   0.333   9.756
 4245SOL    HW113187   3.150   0.266   9.742
 4245SOL    HW213188   3.110   0.380   9.834
 4246SOL     OW13189   2.446   0.736   9.985
 4246SOL    HW113190   2.489   0.820   9.969
 4246SOL    HW213191   2.382   0.728   9.914
 4247SOL     OW13192   3.607   0.312  10.957
 4247SOL    HW113193   3.590   0.351  10.871
 4247SOL    HW213194   3.531   0.335  11.009
 4248SOL     OW13195   3.613   0.935  10.825
 4248SOL    HW113196   3.603   1.029  10.839
 4248SOL    HW213197   3.594   0.922  10.732
 4249SOL     OW13198   2.725   1.366   9.348
 4249SOL    HW113199   2.687   1.394   9.432
 4249SOL    HW213200   2.742   1.448   9.302
 4250SOL     OW13201   2.514   1.799  10.248
 4250SOL    HW113202   2.502   1.871  10.310
 4250SOL    HW213203   2.609   1.786  10.244
 4251SOL     OW13204   2.730   0.970  10.164
 4251SOL    HW113205   2.781   0.897  10.201
 4251SOL    HW213206   2.693   1.015  10.241
 4252SOL     OW13207   2.941   0.990   9.399
 4252SOL    HW113208   2.918   1.040   9.321
 4252SOL    HW213209   3.014   0.935   9.372
 4253SOL     OW13210   3.714   1.554  10.153
 4253SOL    HW113211   3.635   1.542  10.101
 4253SOL    HW213212   3.709   1.487  10.221
 4254SOL     OW13213   1.948   1.231   9.975
 4254SOL    HW113214   1.952   1.185  10.059
 4254SOL    HW213215   2.016   1.189   9.922
 4255SOL     OW13216   2.541   1.397  10.944
 4255SOL    HW113217   2.471   1.345  10.982
 4255SOL    HW213218   2.500   1.479  10.920
 4256SOL     OW13219   3.659   0.176  10.549
 4256SOL    HW113220   3.676   0.084  10.568
 4256SOL    HW213221   3.678   0.185  10.455
 4257SOL     OW13222   2.300   0.432   9.842
 4257SOL    HW113223   2.320   0.364   9.778
 4257SOL    HW213224   2.243   0.389   9.906
 4258SOL     OW13225   3.560   1.489  10.405
 4258SOL    HW113226   3.481   1.466  10.357
 4258SOL    HW213227   3.571   1.419  10.469
 4259SOL     OW13228   2.193   0.561  10.602
 4259SOL    HW113229   2.247   0.502  10.655
 4259SOL    HW213230   2.210   0.534  10.512
 4260SOL     OW13231   2.691   1.579   9.987
 4260SOL    HW113232   2.673   1.637   9.913
 4260SOL    HW213233   2.617   1.518   9.988
 4261SOL     OW13234   3.292   0.218  10.427
 4261SOL    HW113235   3.331   0.149  10.481
 4261SOL    HW213236   3.243   0.272  10.489
 4262SOL     OW13237   2.856   0.003  10.462
 4262SOL    HW113238   2.817   4.416  10.455
 4262SOL    HW213239   2.950   4.488  10.470
 4263SOL     OW13240   2.635   1.334   9.628
 4263SOL    HW113241   2.606   1.243   9.635
 4263SOL    HW213242   2.717   1.335   9.677
 4264SOL     OW13243   2.483   1.553  10.598
 4264SOL    HW113244   2.481   1.638  10.642
 4264SOL    HW213245   2.571   1.547  10.560
 4265SOL     OW13246   3.201   0.051   9.469
 4265SOL    HW113247   3.238   4.476   9.424
 4265SOL    HW213248   3.124   0.017   9.514
 4266SOL     OW13249   3.177   0.465   9.982
 4266SOL    HW113250   3.120   0.542   9.984
 4266SOL    HW213251   3.166   0.425  10.068
 4267SOL     OW13252   3.447   0.198  10.179
 4267SOL    HW113253   3.389   0.213  10.253
 4267SOL    HW213254   3.450   0.281  10.132
 4268SOL     OW13255   1.906   1.068   9.617
 4268SOL    HW113256   1.999   1.059   9.599
 4268SOL    HW213257   1.877   0.980   9.640
 4269SOL     OW13258   2.749   1.656   9.650
 4269SOL    HW113259   2.675   1.639   9.591
 4269SOL    HW213260   2.720   1.730   9.704
 4270SOL     OW13261   2.067   2.525   0.115
 4270SOL    HW113262   1.983   2.494   0.148
 4270SOL    HW213263   2.106   2.450   0.071
 4271SOL     OW13264   1.857   2.254   0.625
 4271SOL    HW113265   1.777   2.273   0.675
 4271SOL    HW213266   1.840   2.168   0.586
 4272SOL     OW13267   2.429   3.155   1.179
 4272SOL    HW113268   2.343   3.159   1.139
 4272SOL    HW213269   2.445   3.243   1.212
 4273SOL     OW13270   3.428   3.374   0.708
 4273SOL    HW113271   3.385   3.352   0.790
 4273SOL    HW213272   3.357   3.377   0.644
 4274SOL     OW13273   2.993   2.560   0.698
 4274SOL    HW113274   3.042   2.641   0.685
 4274SOL    HW213275   2.947   2.571   0.781
 4275SOL     OW13276   3.640   2.462   0.213
 4275SOL    HW113277   3.579   2.475   0.140
 4275SOL    HW213278   3.602   2.390   0.264
 4276SOL     OW13279   2.611   3.001   1.044
 4276SOL    HW113280   2.544   3.038   1.101
 4276SOL    HW213281   2.649   3.077   1.000
 4277SOL     OW13282   2.731   2.631   1.822
 4277SOL    HW113283   2.723   2.701   1.886
 4277SOL    HW213284   2.755   2.675   1.741
 4278SOL     OW13285   2.550   2.865   0.645
 4278SOL    HW113286   2.614   2.853   0.714
 4278SOL    HW213287   2.480   2.917   0.685
 4279SOL     OW13288   2.575   3.013   1.814
 4279SOL    HW113289   2.622   3.091   1.843
 4279SOL    HW213290   2.493   3.047   1.777
 4280SOL     OW13291   2.193   3.283   1.067
 4280SOL    HW113292   2.119   3.244   1.020
 4280SOL    HW213293   2.240   3.334   1.001
 4281SOL     OW13294   3.322   3.363   1.358
 4281SOL    HW113295   3.375   3.442   1.367
 4281SOL    HW213296   3.255   3.371   1.427
 4282SOL     OW13297   3.471   2.307   0.742
 4282SOL    HW113298   3.395   2.327   0.688
 4282SOL    HW213299   3.481   2.384   0.798
 4283SOL     OW13300   2.080   3.576   0.472
 4283SOL    HW113301   2.101   3.653   0.525
 4283SOL    HW213302   2.152   3.570   0.409
 4284SOL     OW13303   2.999   3.204   1.694
 4284SOL    HW113304   3.040   3.198   1.780
 4284SOL    HW213305   2.947   3.124   1.686
 4285SOL     OW13306   2.090   3.305   0.534
 4285SOL    HW113307   2.074   3.399   0.534
 4285SOL    HW213308   2.030   3.270   0.600
 4286SOL     OW13309   2.125   2.958   0.891
 4286SOL    HW113310   2.119   2.869   0.926
 4286SOL    HW213311   2.064   3.009   0.945
 4287SOL     OW13312   2.469   3.653   1.428
 4287SOL    HW113313   2.388   3.635   1.475
 4287SOL    HW213314   2.493   3.742   1.454
 4288SOL     OW13315   2.444   2.850   0.146
 4288SOL    HW113316   2.489   2.903   0.080
 4288SOL    HW213317   2.483   2.876   0.229
 4289SOL     OW13318   3.457   1.987   1.466
 4289SOL    HW113319   3.474   2.068   1.418
 4289SOL    HW213320   3.440   2.016   1.556
 4290SOL     OW13321   1.987   2.506   0.562
 4290SOL    HW113322   1.946   2.422   0.581
 4290SOL    HW213323   1.972   2.558   0.641
 4291SOL     OW13324   3.706   3.619   0.330
 4291SOL    HW113325   3.772   3.591   0.392
 4291SOL    HW213326   3.727   3.711   0.312
 4292SOL     OW13327   1.912   3.461   0.118
 4292SOL    HW113328   1.884   3.373   0.145
 4292SOL    HW213329   1.885   3.518   0.190
 4293SOL     OW13330   3.549   2.779   0.644
 4293SOL    HW113331   3.634   2.739   0.625
 4293SOL    HW213332   3.529   2.832   0.567
 4294SOL     OW13333   3.510   2.965   0.432
 4294SOL    HW113334   3.593   2.973   0.385
 4294SOL    HW213335   3.516   3.028   0.503
 4295SOL     OW13336   1.984   2.602   1.581
 4295SOL    HW113337   2.074   2.627   1.604
 4295SOL    HW213338   1.933   2.681   1.597
 4296SOL     OW13339   2.478   3.252   0.735
 4296SOL    HW113340   2.433   3.168   0.745
 4296SOL    HW213341   2.460   3.278   0.645
 4297SOL     OW13342   3.149   3.099   1.422
 4297SOL    HW113343   3.180   3.031   1.362
 4297SOL    HW213344   3.208   3.093   1.497
 4298SOL     OW13345   2.676   1.867   0.508
 4298SOL    HW113346   2.717   1.952   0.490
 4298SOL    HW213347   2.583   1.886   0.516
 4299SOL     OW13348   2.051   2.827   1.275
 4299SOL    HW113349   2.135   2.785   1.257
 4299SOL    HW213350   1.987   2.778   1.223
 4300SOL     OW13351   3.373   2.869   0.206
 4300SOL    HW113352   3.309   2.808   0.244
 4300SOL    HW213353   3.426   2.897   0.280
 4301SOL     OW13354   3.046   3.672   1.624
 4301SOL    HW113355   3.054   3.732   1.550
 4301SOL    HW213356   3.064   3.585   1.587
 4302SOL     OW13357   3.329   3.282   0.949
 4302SOL    HW113358   3.262   3.297   1.015
 4302SOL    HW213359   3.316   3.190   0.923
 4303SOL     OW13360   3.518   3.609   0.579
 4303SOL    HW113361   3.499   3.578   0.490
 4303SOL    HW213362   3.496   3.534   0.635
 4304SOL     OW13363   2.466   2.585   0.274
 4304SOL    HW113364   2.464   2.663   0.219
 4304SOL    HW213365   2.393   2.595   0.334
 4305SOL     OW13366   3.141   2.220   0.933
 4305SOL    HW113367   3.052   2.186   0.942
 4305SOL    HW213368   3.193   2.167   0.992
 4306SOL     OW13369   3.444   3.534   0.313
 4306SOL    HW113370   3.535   3.561   0.306
 4306SOL    HW213371   3.416   3.516   0.223
 4307SOL     OW13372   2.652   2.482   1.449
 4307SOL    HW113373   2.629   2.454   1.538
 4307SOL    HW213374   2.624   2.410   1.393
 4308SOL     OW13375   3.255   2.336   1.678
 4308SOL    HW113376   3.259   2.381   1.763
 4308SOL    HW213377   3.314   2.261   1.688
 4309SOL     OW13378   2.814   2.748   1.584
 4309SOL    HW113379   2.869   2.679   1.546
 4309SOL    HW213380   2.766   2.784   1.510
 4310SOL     OW13381   2.860   2.271   1.234
 4310SOL    HW113382   2.771   2.290   1.263
 4310SOL    HW213383   2.848   2.227   1.149
 4311SOL     OW13384   2.914   2.564   0.426
 4311SOL    HW113385   2.932   2.558   0.520
 4311SOL    HW213386   2.830   2.519   0.415
 4312SOL     OW13387   1.951   2.683   0.772
 4312SOL    HW113388   2.032   2.680   0.823
 4312SOL    HW213389   1.903   2.758   0.808
 4313SOL     OW13390   1.987   3.724   1.581
 4313SOL    HW113391   1.990   3.700   1.674
 4313SOL    HW213392   1.900   3.697   1.552
 4314SOL     OW13393   2.751   2.215   0.209
 4314SOL    HW113394   2.795   2.276   0.150
 4314SOL    HW213395   2.768   2.128   0.172
 4315SOL     OW13396   3.568   2.434   1.829
 4315SOL    HW113397   3.532   2.507   1.780
 4315SOL    HW213398   3.597   2.372   1.761
 4316SOL     OW13399   3.241   3.003   0.541
 4316SOL    HW113400   3.320   2.991   0.487
 4316SOL    HW213401   3.188   3.065   0.492
 4317SOL     OW13402   2.863   3.305   0.472
 4317SOL    HW113403   2.829   3.379   0.423
 4317SOL    HW213404   2.841   3.325   0.563
 4318SOL     OW13405   2.216   3.674   0.867
 4318SOL    HW113406   2.259   3.588   0.873
 4318SOL    HW213407   2.286   3.737   0.885
 4319SOL     OW13408   3.661   2.917   0.871
 4319SOL    HW113409   3.607   2.900   0.794
 4319SOL    HW213410   3.598   2.923   0.943
 4320SOL     OW13411   3.089   3.401   1.513
 4320SOL    HW113412   3.077   3.329   1.574
 4320SOL    HW213413   3.024   3.386   1.445
 4321SOL     OW13414   2.169   2.817   0.272
 4321SOL    HW113415   2.249   2.838   0.222
 4321SOL    HW213416   2.140   2.733   0.237
 4322SOL     OW13417   3.343   2.605   0.723
 4322SOL    HW113418   3.337   2.567   0.811
 4322SOL    HW213419   3.420   2.662   0.727
 4323SOL     OW13420   2.330   3.129   1.737
 4323SOL    HW113421   2.303   3.133   1.646
 4323SOL    HW213422   2.248   3.125   1.786
 4324SOL     OW13423   2.970   3.643   0.226
 4324SOL    HW113424   2.908   3.593   0.280
 4324SOL    HW213425   3.013   3.577   0.171
 4325SOL     OW13426   1.976   2.097   1.509
 4325SOL    HW113427   1.956   2.190   1.498
 4325SOL    HW213428   2.070   2.094   1.525
 4326SOL     OW13429   3.489   3.235   0.090
 4326SOL    HW113430   3.447   3.320   0.079
 4326SOL    HW213431   3.424   3.172   0.059
 4327SOL     OW13432   2.329   3.594   0.327
 4327SOL    HW113433   2.369   3.656   0.388
 4327SOL    HW213434   2.401   3.567   0.270
 4328SOL     OW13435   3.264   1.970   0.434
 4328SOL    HW113436   3.257   1.948   0.341
 4328SOL    HW213437   3.358   1.975   0.451
 4329SOL     OW13438   2.119   3.653   1.230
 4329SOL    HW113439   2.169   3.583   1.273
 4329SOL    HW213440   2.108   3.622   1.140
 4330SOL     OW13441   2.800   3.561   0.897
 4330SOL    HW113442   2.879   3.511   0.919
 4330SOL    HW213443   2.758   3.511   0.828
 4331SOL     OW13444   2.253   2.556   0.461
 4331SOL    HW113445   2.268   2.465   0.437
 4331SOL    HW213446   2.163   2.559   0.492
 4332SOL     OW13447   3.393   2.087   1.725
 4332SOL    HW113448   3.404   2.107   1.818
 4332SOL    HW213449   3.324   2.020   1.722
 4333SOL     OW13450   2.461   1.973   0.116
 4333SOL    HW113451   2.547   1.944   0.146
 4333SOL    HW213452   2.453   1.933   0.029
 4334SOL     OW13453   2.627   2.143   1.755
 4334SOL    HW113454   2.706   2.089   1.751
 4334SOL    HW213455   2.579   2.111   1.831
 4335SOL     OW13456   2.737   3.384   1.194
 4335SOL    HW113457   2.721   3.348   1.107
 4335SOL    HW213458   2.808   3.330   1.230
 4336SOL     OW13459   3.201   2.452   1.433
 4336SOL    HW113460   3.232   2.420   1.518
 4336SOL    HW213461   3.239   2.539   1.424
 4337SOL     OW13462   2.679   3.253   0.944
 4337SOL    HW113463   2.763   3.242   0.900
 4337SOL    HW213464   2.615   3.258   0.872
 4338SOL     OW13465   2.785   2.369   0.901
 4338SOL    HW113466   2.760   2.361   0.809
 4338SOL    HW213467   2.818   2.282   0.925
 4339SOL     OW13468   2.407   1.933   0.498
 4339SOL    HW113469   2.329   1.923   0.553
 4339SOL    HW213470   2.399   2.020   0.459
 4340SOL     OW13471   3.284   3.059   0.027
 4340SOL    HW113472   3.314   2.988   0.084
 4340SOL    HW213473   3.202   3.088   0.066
 4341SOL     OW13474   2.158   1.910   0.192
 4341SOL    HW113475   2.225   1.951   0.137
 4341SOL    HW213476   2.202   1.834   0.231
 4342SOL     OW13477   2.803   2.110   0.460
 4342SOL    HW113478   2.778   2.155   0.379
 4342SOL    HW213479   2.897   2.124   0.467
 4343SOL     OW13480   2.942   2.545   1.456
 4343SOL    HW113481   2.877   2.475   1.462
 4343SOL    HW213482   3.026   2.499   1.450
 4344SOL     OW13483   3.083   3.434   0.795
 4344SOL    HW113484   3.098   3.498   0.726
 4344SOL    HW213485   3.153   3.448   0.858
 4345SOL     OW13486   2.335   3.014   0.732
 4345SOL    HW113487   2.267   2.996   0.796
 4345SOL    HW213488   2.292   3.002   0.647
 4346SOL     OW13489   3.129   3.655   0.609
 4346SOL    HW113490   3.177   3.716   0.554
 4346SOL    HW213491   3.062   3.709   0.652
 4347SOL     OW13492   2.870   2.396   0.044
 4347SOL    HW113493   2.837   2.485   0.030
 4347SOL    HW213494   2.952   2.409   0.093
 4348SOL     OW13495   1.949   2.411   1.394
 4348SOL    HW113496   2.044   2.399   1.404
 4348SOL    HW213497   1.927   2.480   1.456
 4349SOL     OW13498   2.469   2.039   1.147
 4349SOL    HW113499   2.474   1.982   1.223
 4349SOL    HW213500   2.386   2.085   1.157
 4350SOL     OW13501   2.723   2.317   0.639
 4350SOL    HW113502   2.686   2.378   0.575
 4350SOL    HW213503   2.749   2.240   0.589
 4351SOL     OW13504   2.878   1.914   0.750
 4351SOL    HW113505   2.819   1.907   0.675
 4351SOL    HW213506   2.854   1.840   0.806
 4352SOL     OW13507   3.300   3.024   0.857
 4352SOL    HW113508   3.230   2.959   0.857
 4352SOL    HW213509   3.325   3.033   0.765
 4353SOL     OW13510   3.328   2.470   0.972
 4353SOL    HW113511   3.274   2.391   0.976
 4353SOL    HW213512   3.386   2.463   1.048
 4354SOL     OW13513   3.711   2.673   0.377
 4354SOL    HW113514   3.763   2.623   0.440
 4354SOL    HW213515   3.684   2.607   0.312
 4355SOL     OW13516   2.355   3.287   0.170
 4355SOL    HW113517   2.280   3.261   0.223
 4355SOL    HW213518   2.352   3.229   0.093
 4356SOL     OW13519   3.536   3.125   0.645
 4356SOL    HW113520   3.630   3.126   0.659
 4356SOL    HW213521   3.507   3.214   0.665
 4357SOL     OW13522   3.253   2.432   0.082
 4357SOL    HW113523   3.191   2.415   0.153
 4357SOL    HW213524   3.312   2.357   0.082
 4358SOL     OW13525   3.612   3.103   1.568
 4358SOL    HW113526   3.699   3.064   1.564
 4358SOL    HW213527   3.628   3.193   1.597
 4359SOL     OW13528   2.919   3.216   1.333
 4359SOL    HW113529   2.843   3.185   1.383
 4359SOL    HW213530   2.994   3.174   1.374
 4360SOL     OW13531   3.471   3.489   1.656
 4360SOL    HW113532   3.463   3.523   1.567
 4360SOL    HW213533   3.553   3.440   1.657
 4361SOL     OW13534   2.995   3.070   1.104
 4361SOL    HW113535   2.934   3.106   1.168
 4361SOL    HW213536   2.964   3.102   1.019
 4362SOL     OW13537   3.486   2.958   1.077
 4362SOL    HW113538   3.481   3.021   1.149
 4362SOL    HW213539   3.409   2.977   1.023
 4363SOL     OW13540   2.788   1.953   1.394
 4363SOL    HW113541   2.809   1.937   1.302
 4363SOL    HW213542   2.867   1.994   1.430
 4364SOL     OW13543   2.846   2.977   1.722
 4364SOL    HW113544   2.755   2.993   1.745
 4364SOL    HW213545   2.844   2.899   1.667
 4365SOL     OW13546   2.574   2.922   0.374
 4365SOL    HW113547   2.560   2.904   0.467
 4365SOL    HW213548   2.648   2.867   0.350
 4366SOL     OW13549   2.281   2.674   1.250
 4366SOL    HW113550   2.351   2.694   1.313
 4366SOL    HW213551   2.260   2.582   1.266
 4367SOL     OW13552   3.128   2.238   1.278
 4367SOL    HW113553   3.160   2.316   1.324
 4367SOL    HW213554   3.037   2.259   1.256
 4368SOL     OW13555   1.934   3.436   1.356
 4368SOL    HW113556   1.905   3.507   1.298
 4368SOL    HW213557   2.030   3.437   1.348
 4369SOL     OW13558   2.205   2.983   0.494
 4369SOL    HW113559   2.204   3.056   0.433
 4369SOL    HW213560   2.198   2.905   0.439
 4370SOL     OW13561   3.108   3.208   0.398
 4370SOL    HW113562   3.164   3.281   0.425
 4370SOL    HW213563   3.021   3.232   0.428
 4371SOL     OW13564   3.147   3.321   1.147
 4371SOL    HW113565   3.203   3.324   1.225
 4371SOL    HW213566   3.092   3.244   1.160
 4372SOL     OW13567   3.444   2.487   0.480
 4372SOL    HW113568   3.393   2.528   0.550
 4372SOL    HW213569   3.478   2.561   0.429
 4373SOL     OW13570   2.208   3.392   1.312
 4373SOL    HW113571   2.196   3.347   1.228
 4373SOL    HW213572   2.302   3.403   1.320
 4374SOL     OW13573   2.281   2.625   1.603
 4374SOL    HW113574   2.342   2.667   1.542
 4374SOL    HW213575   2.330   2.551   1.639
 4375SOL     OW13576   3.467   2.642   1.684
 4375SOL    HW113577   3.381   2.684   1.678
 4375SOL    HW213578   3.519   2.684   1.616
 4376SOL     OW13579   2.856   1.991   1.749
 4376SOL    HW113580   2.917   2.063   1.729
 4376SOL    HW213581   2.905   1.912   1.727
 4377SOL     OW13582   2.362   1.889   1.751
 4377SOL    HW113583   2.320   1.832   1.687
 4377SOL    HW213584   2.308   1.968   1.752
 4378SOL     OW13585   2.439   2.739   1.025
 4378SOL    HW113586   2.481   2.826   1.026
 4378SOL    HW213587   2.389   2.736   1.106
 4379SOL     OW13588   3.214   2.721   1.025
 4379SOL    HW113589   3.129   2.707   0.985
 4379SOL    HW213590   3.258   2.636   1.017
 4380SOL     OW13591   3.060   2.385   0.269
 4380SOL    HW113592   3.070   2.309   0.326
 4380SOL    HW213593   3.018   2.451   0.324
 4381SOL     OW13594   1.911   3.173   1.276
 4381SOL    HW113595   1.941   3.118   1.347
 4381SOL    HW213596   1.914   3.262   1.311
 4382SOL     OW13597   2.592   2.504   1.065
 4382SOL    HW113598   2.645   2.472   0.992
 4382SOL    HW213599   2.546   2.580   1.029
 4383SOL     OW13600   3.599   2.822   1.855
 4383SOL    HW113601   3.555   2.756   1.801
 4383SOL    HW213602   3.539   2.837   1.928
 4384SOL     OW13603   2.164   1.916   0.636
 4384SOL    HW113604   2.118   1.996   0.662
 4384SOL    HW213605   2.177   1.869   0.718
 4385SOL     OW13606   3.485   2.240   0.361
 4385SOL    HW113607   3.510   2.174   0.426
 4385SOL    HW213608   3.460   2.317   0.414
 4386SOL     OW13609   2.891   2.618   0.958
 4386SOL    HW113610   2.885   2.638   1.051
 4386SOL    HW213611   2.858   2.529   0.950
 4387SOL     OW13612   2.843   3.428   1.719
 4387SOL    HW113613   2.828   3.472   1.636
 4387SOL    HW213614   2.887   3.347   1.696
 4388SOL     OW13615   3.715   3.365   1.605
 4388SOL    HW113616   3.735   3.392   1.515
 4388SOL    HW213617   3.796   3.381   1.653
 4389SOL     OW13618   2.218   2.790   1.812
 4389SOL    HW113619   2.301   2.803   1.858
 4389SOL    HW213620   2.241   2.733   1.739
 4390SOL     OW13621   3.391   2.162   0.113
 4390SOL    HW113622   3.336   2.085   0.128
 4390SOL    HW213623   3.428   2.182   0.198
 4391SOL     OW13624   3.147   2.680   0.032
 4391SOL    HW113625   3.191   2.595   0.042
 4391SOL    HW213626   3.190   2.720  11.057
 4392SOL     OW13627   2.929   3.199   0.855
 4392SOL    HW113628   2.933   3.127   0.792
 4392SOL    HW213629   2.989   3.265   0.820
 4393SOL     OW13630   2.171   2.681   0.942
 4393SOL    HW113631   2.264   2.701   0.932
 4393SOL    HW213632   2.169   2.601   0.994
 4394SOL     OW13633   2.996   2.237   1.683
 4394SOL    HW113634   2.948   2.291   1.746
 4394SOL    HW213635   3.083   2.276   1.680
 4395SOL     OW13636   3.026   2.063   1.471
 4395SOL    HW113637   3.013   2.125   1.542
 4395SOL    HW213638   3.067   2.114   1.401
 4396SOL     OW13639   1.871   3.188   0.195
 4396SOL    HW113640   1.785   3.201   0.156
 4396SOL    HW213641   1.870   3.098   0.227
 4397SOL     OW13642   1.952   3.646   0.941
 4397SOL    HW113643   1.922   3.568   0.895
 4397SOL    HW213644   2.042   3.660   0.909
 4398SOL     OW13645   2.356   3.436   0.905
 4398SOL    HW113646   2.425   3.498   0.930
 4398SOL    HW213647   2.399   3.374   0.847
 4399SOL     OW13648   2.841   2.656   1.224
 4399SOL    HW113649   2.893   2.631   1.300
 4399SOL    HW213650   2.758   2.611   1.236
 4400SOL     OW13651   1.900   2.423   1.120
 4400SOL    HW113652   1.932   2.344   1.077
 4400SOL    HW213653   1.925   2.412   1.212
 4401SOL     OW13654   3.241   2.798   1.658
 4401SOL    HW113655   3.262   2.891   1.654
 4401SOL    HW213656   3.238   2.771   1.566
 4402SOL     OW13657   2.677   2.434   0.373
 4402SOL    HW113658   2.685   2.363   0.310
 4402SOL    HW213659   2.604   2.487   0.341
 4403SOL     OW13660   3.503   2.463   1.183
 4403SOL    HW113661   3.493   2.405   1.258
 4403SOL    HW213662   3.590   2.444   1.149
 4404SOL     OW13663   2.103   3.412   1.725
 4404SOL    HW113664   2.081   3.477   1.792
 4404SOL    HW213665   2.108   3.329   1.772
 4405SOL     OW13666   2.582   2.310   1.251
 4405SOL    HW113667   2.541   2.234   1.209
 4405SOL    HW213668   2.577   2.379   1.185
 4406SOL     OW13669   2.786   3.541   1.470
 4406SOL    HW113670   2.762   3.503   1.385
 4406SOL    HW213671   2.780   3.636   1.456
 4407SOL     OW13672   2.006   3.003   1.475
 4407SOL    HW113673   2.006   2.953   1.556
 4407SOL    HW213674   2.022   2.938   1.407
 4408SOL     OW13675   3.185   2.907   1.221
 4408SOL    HW113676   3.207   2.844   1.153
 4408SOL    HW213677   3.117   2.962   1.182
 4409SOL     OW13678   3.171   2.713   0.310
 4409SOL    HW113679   3.095   2.680   0.359
 4409SOL    HW213680   3.148   2.698   0.218
 4410SOL     OW13681   3.640   3.602   1.155
 4410SOL    HW113682   3.699   3.628   1.084
 4410SOL    HW213683   3.613   3.513   1.131
 4411SOL     OW13684   3.102   3.595   1.109
 4411SOL    HW113685   3.185   3.618   1.066
 4411SOL    HW213686   3.110   3.502   1.128
 4412SOL     OW13687   1.946   3.129   1.011
 4412SOL    HW113688   1.931   3.143   1.105
 4412SOL    HW213689   1.873   3.074   0.983
 4413SOL     OW13690   2.540   3.531   1.734
 4413SOL    HW113691   2.483   3.607   1.727
 4413SOL    HW213692   2.607   3.544   1.668
 4414SOL     OW13693   2.784   1.955   0.103
 4414SOL    HW113694   2.828   1.916   0.027
 4414SOL    HW213695   2.825   1.914   0.179
 4415SOL     OW13696   3.580   2.013   0.507
 4415SOL    HW113697   3.652   1.999   0.445
 4415SOL    HW213698   3.566   1.928   0.547
 4416SOL     OW13699   3.253   3.430   0.488
 4416SOL    HW113700   3.314   3.462   0.422
 4416SOL    HW213701   3.205   3.507   0.517
 4417SOL     OW13702   2.001   3.657   1.842
 4417SOL    HW113703   1.950   3.591   1.890
 4417SOL    HW213704   2.046   3.706   1.911
 4418SOL     OW13705   3.140   2.788   0.671
 4418SOL    HW113706   3.214   2.727   0.678
 4418SOL    HW213707   3.173   2.860   0.618
 4419SOL     OW13708   2.672   3.138   1.427
 4419SOL    HW113709   2.643   3.178   1.509
 4419SOL    HW213710   2.602   3.159   1.365
 4420SOL     OW13711   2.535   3.486   0.170
 4420SOL    HW113712   2.556   3.492   0.077
 4420SOL    HW213713   2.478   3.409   0.177
 4421SOL     OW13714   3.484   3.589   1.391
 4421SOL    HW113715   3.536   3.595   1.311
 4421SOL    HW213716   3.470   3.680   1.417
 4422SOL     OW13717   3.704   2.033   0.966
 4422SOL    HW113718   3.734   1.946   0.941
 4422SOL    HW213719   3.618   2.042   0.926
 4423SOL     OW13720   3.086   3.462   0.055
 4423SOL    HW113721   3.073   3.369   0.075
 4423SOL    HW213722   3.021   3.481  11.087
 4424SOL     OW13723   2.686   2.869   1.374
 4424SOL    HW113724   2.733   2.861   1.291
 4424SOL    HW213725   2.685   2.963   1.392
 4425SOL     OW13726   2.776   2.768   0.279
 4425SOL    HW113727   2.842   2.809   0.223
 4425SOL    HW213728   2.826   2.706   0.333
 4426SOL     OW13729   3.360   3.484   0.049
 4426SOL    HW113730   3.264   3.477   0.048
 4426SOL    HW213731   3.383   3.498  11.057
 4427SOL     OW13732   2.230   3.166   1.492
 4427SOL    HW113733   2.217   3.242   1.435
 4427SOL    HW213734   2.153   3.111   1.477
 4428SOL     OW13735   3.471   3.145   1.280
 4428SOL    HW113736   3.530   3.131   1.354
 4428SOL    HW213737   3.411   3.213   1.311
 4429SOL     OW13738   2.919   2.970   0.709
 4429SOL    HW113739   2.847   2.920   0.747
 4429SOL    HW213740   2.983   2.905   0.681
 4430SOL     OW13741   2.885   2.103   0.966
 4430SOL    HW113742   2.881   2.055   0.883
 4430SOL    HW213743   2.879   2.034   1.033
 4431SOL     OW13744   2.466   3.352   0.481
 4431SOL    HW113745   2.509   3.300   0.413
 4431SOL    HW213746   2.394   3.396   0.436
 4432SOL     OW13747   3.586   2.254   1.380
 4432SOL    HW113748   3.658   2.317   1.380
 4432SOL    HW213749   3.616   2.183   1.323
 4433SOL     OW13750   2.130   3.196   0.294
 4433SOL    HW113751   2.044   3.198   0.253
 4433SOL    HW213752   2.118   3.238   0.379
 4434SOL     OW13753   1.974   2.888   1.722
 4434SOL    HW113754   1.898   2.863   1.774
 4434SOL    HW213755   2.048   2.850   1.770
 4435SOL     OW13756   2.548   2.040   1.499
 4435SOL    HW113757   2.635   2.021   1.462
 4435SOL    HW213758   2.566   2.084   1.582
 4436SOL     OW13759   1.926   2.202   0.077
 4436SOL    HW113760   1.865   2.187   0.005
 4436SOL    HW213761   2.007   2.231   0.033
 4437SOL     OW13762   3.289   2.720   1.399
 4437SOL    HW113763   3.240   2.781   1.344
 4437SOL    HW213764   3.378   2.722   1.363
 4438SOL     OW13765   1.930   2.019   0.302
 4438SOL    HW113766   1.910   2.093   0.244
 4438SOL    HW213767   2.012   1.983   0.268
 4439SOL     OW13768   3.047   3.199   0.123
 4439SOL    HW113769   2.953   3.184   0.114
 4439SOL    HW213770   3.064   3.190   0.217
 4440SOL     OW13771   2.483   2.695   1.429
 4440SOL    HW113772   2.540   2.771   1.415
 4440SOL    HW213773   2.544   2.621   1.438
 4441SOL     OW13774   3.344   3.643   0.981
 4441SOL    HW113775   3.367   3.706   0.912
 4441SOL    HW213776   3.429   3.618   1.019
 4442SOL     OW13777   2.578   2.423   1.702
 4442SOL    HW113778   2.622   2.484   1.760
 4442SOL    HW213779   2.601   2.337   1.736
 4443SOL     OW13780   3.335   3.059   1.630
 4443SOL    HW113781   3.323   3.073   1.724
 4443SOL    HW213782   3.428   3.076   1.615
 4444SOL     OW13783   2.237   3.602   1.565
 4444SOL    HW113784   2.153   3.646   1.550
 4444SOL    HW213785   2.213   3.519   1.607
 4445SOL     OW13786   3.528   2.742   1.255
 4445SOL    HW113787   3.524   2.657   1.212
 4445SOL    HW213788   3.519   2.805   1.184
 4446SOL     OW13789   3.076   2.178   0.461
 4446SOL    HW113790   3.141   2.108   0.451
 4446SOL    HW213791   3.106   2.228   0.536
 4447SOL     OW13792   2.453   2.602   0.656
 4447SOL    HW113793   2.490   2.689   0.646
 4447SOL    HW213794   2.384   2.597   0.590
 4448SOL     OW13795   3.621   2.225   1.652
 4448SOL    HW113796   3.605   2.241   1.559
 4448SOL    HW213797   3.549   2.168   1.679
 4449SOL     OW13798   3.609   2.795   1.511
 4449SOL    HW113799   3.601   2.890   1.524
 4449SOL    HW213800   3.593   2.782   1.418
 4450SOL     OW13801   2.773   3.217   0.076
 4450SOL    HW113802   2.705   3.212   0.143
 4450SOL    HW213803   2.752   3.296   0.027
 4451SOL     OW13804   2.524   3.649   0.942
 4451SOL    HW113805   2.505   3.740   0.920
 4451SOL    HW213806   2.619   3.642   0.935
 4452SOL     OW13807   2.731   2.831   0.854
 4452SOL    HW113808   2.779   2.757   0.892
 4452SOL    HW213809   2.695   2.877   0.930
 4453SOL     OW13810   2.940   2.851   0.083
 4453SOL    HW113811   2.915   2.884  11.096
 4453SOL    HW213812   3.015   2.794   0.066
 4454SOL     OW13813   3.714   3.417   0.844
 4454SOL    HW113814   3.635   3.404   0.790
 4454SOL    HW213815   3.708   3.348   0.911
 4455SOL     OW13816   2.087   3.163   1.854
 4455SOL    HW113817   2.023   3.100   1.821
 4455SOL    HW213818   2.062   3.176   1.946
 4456SOL     OW13819   1.947   3.094   0.667
 4456SOL    HW113820   1.955   3.046   0.749
 4456SOL    HW213821   2.016   3.058   0.611
 4457SOL     OW13822   2.544   3.268   1.629
 4457SOL    HW113823   2.465   3.225   1.661
 4457SOL    HW213824   2.541   3.356   1.667
 4458SOL     OW13825   3.674   2.045   1.237
 4458SOL    HW113826   3.682   1.950   1.250
 4458SOL    HW213827   3.685   2.057   1.143
 4459SOL     OW13828   3.559   3.350   1.095
 4459SOL    HW113829   3.480   3.329   1.045
 4459SOL    HW213830   3.567   3.280   1.159
 4460SOL     OW13831   2.691   3.440   0.677
 4460SOL    HW113832   2.671   3.498   0.603
 4460SOL    HW213833   2.616   3.380   0.681
 4461SOL     OW13834   3.293   2.089   1.117
 4461SOL    HW113835   3.315   2.007   1.161
 4461SOL    HW213836   3.242   2.139   1.181
 4462SOL     OW13837   2.873   1.879   1.137
 4462SOL    HW113838   2.818   1.811   1.097
 4462SOL    HW213839   2.960   1.841   1.140
 4463SOL     OW13840   2.632   3.189   0.320
 4463SOL    HW113841   2.604   3.099   0.335
 4463SOL    HW213842   2.715   3.197   0.368
 4464SOL     OW13843   2.482   3.417   1.286
 4464SOL    HW113844   2.483   3.499   1.335
 4464SOL    HW213845   2.569   3.410   1.249
 4465SOL     OW13846   3.213   1.919   0.165
 4465SOL    HW113847   3.235   1.865   0.089
 4465SOL    HW213848   3.126   1.889   0.191
 4466SOL     OW13849   3.158   2.324   0.679
 4466SOL    HW113850   3.106   2.404   0.685
 4466SOL    HW213851   3.153   2.286   0.767
 4467SOL     OW13852   3.448   2.060   0.880
 4467SOL    HW113853   3.390   2.083   0.953
 4467SOL    HW213854   3.447   2.138   0.824
 4468SOL     OW13855   1.903   2.929   0.303
 4468SOL    HW113856   1.998   2.923   0.295
 4468SOL    HW213857   1.875   2.841   0.329
 4469SOL     OW13858   2.749   3.520   0.347
 4469SOL    HW113859   2.676   3.500   0.289
 4469SOL    HW213860   2.719   3.593   0.401
 4470SOL     OW13861   2.077   2.540   2.000
 4470SOL    HW113862   1.990   2.512   2.025
 4470SOL    HW213863   2.103   2.481   1.930
 4471SOL     OW13864   1.993   2.152   2.941
 4471SOL    HW113865   2.055   2.090   2.978
 4471SOL    HW213866   1.929   2.098   2.894
 4472SOL     OW13867   1.850   2.248   2.490
 4472SOL    HW113868   1.770   2.272   2.537
 4472SOL    HW213869   1.832   2.161   2.454
 4473SOL     OW13870   2.429   3.155   3.041
 4473SOL    HW113871   2.342   3.160   3.001
 4473SOL    HW213872   2.445   3.243   3.074
 4474SOL     OW13873   3.428   3.375   2.570
 4474SOL    HW113874   3.385   3.353   2.653
 4474SOL    HW213875   3.357   3.378   2.506
 4475SOL     OW13876   2.994   2.560   2.557
 4475SOL    HW113877   3.041   2.643   2.548
 4475SOL    HW213878   2.947   2.568   2.640
 4476SOL     OW13879   3.635   2.464   2.089
 4476SOL    HW113880   3.611   2.458   1.996
 4476SOL    HW213881   3.595   2.387   2.129
 4477SOL     OW13882   2.611   3.001   2.904
 4477SOL    HW113883   2.544   3.036   2.962
 4477SOL    HW213884   2.649   3.077   2.862
 4478SOL     OW13885   2.734   2.631   3.686
 4478SOL    HW113886   2.721   2.701   3.750
 4478SOL    HW213887   2.757   2.677   3.605
 4479SOL     OW13888   2.548   2.862   2.507
 4479SOL    HW113889   2.615   2.853   2.575
 4479SOL    HW213890   2.481   2.918   2.546
 4480SOL     OW13891   2.574   3.012   3.677
 4480SOL    HW113892   2.622   3.089   3.706
 4480SOL    HW213893   2.493   3.046   3.640
 4481SOL     OW13894   2.193   3.283   2.929
 4481SOL    HW113895   2.119   3.245   2.882
 4481SOL    HW213896   2.240   3.334   2.864
 4482SOL     OW13897   3.322   3.363   3.220
 4482SOL    HW113898   3.375   3.442   3.229
 4482SOL    HW213899   3.255   3.371   3.289
 4483SOL     OW13900   3.471   2.307   2.604
 4483SOL    HW113901   3.395   2.327   2.548
 4483SOL    HW213902   3.479   2.385   2.660
 4484SOL     OW13903   2.081   3.577   2.332
 4484SOL    HW113904   2.102   3.653   2.387
 4484SOL    HW213905   2.155   3.569   2.272
 4485SOL     OW13906   2.999   3.204   3.556
 4485SOL    HW113907   3.040   3.198   3.642
 4485SOL    HW213908   2.947   3.124   3.548
 4486SOL     OW13909   2.095   3.305   2.399
 4486SOL    HW113910   2.076   3.399   2.400
 4486SOL    HW213911   2.034   3.267   2.463
 4487SOL     OW13912   2.125   2.958   2.752
 4487SOL    HW113913   2.119   2.870   2.787
 4487SOL    HW213914   2.065   3.010   2.806
 4488SOL     OW13915   2.469   3.653   3.290
 4488SOL    HW113916   2.388   3.635   3.337
 4488SOL    HW213917   2.493   3.742   3.316
 4489SOL     OW13918   2.447   2.844   1.993
 4489SOL    HW113919   2.495   2.894   1.927
 4489SOL    HW213920   2.483   2.874   2.076
 4490SOL     OW13921   3.458   1.987   3.328
 4490SOL    HW113922   3.473   2.068   3.279
 4490SOL    HW213923   3.440   2.017   3.418
 4491SOL     OW13924   1.966   2.504   2.424
 4491SOL    HW113925   1.935   2.417   2.447
 4491SOL    HW213926   1.964   2.554   2.506
 4492SOL     OW13927   3.705   3.618   2.194
 4492SOL    HW113928   3.771   3.591   2.257
 4492SOL    HW213929   3.725   3.710   2.175
 4493SOL     OW13930   1.898   3.454   1.984
 4493SOL    HW113931   1.878   3.363   2.005
 4493SOL    HW213932   1.873   3.502   2.063
 4494SOL     OW13933   3.551   2.781   2.507
 4494SOL    HW113934   3.634   2.738   2.485
 4494SOL    HW213935   3.529   2.831   2.428
 4495SOL     OW13936   3.510   2.967   2.291
 4495SOL    HW113937   3.596   2.970   2.250
 4495SOL    HW213938   3.515   3.029   2.363
 4496SOL     OW13939   1.986   2.600   3.445
 4496SOL    HW113940   2.076   2.623   3.469
 4496SOL    HW213941   1.936   2.680   3.461
 4497SOL     OW13942   2.477   3.251   2.597
 4497SOL    HW113943   2.432   3.167   2.606
 4497SOL    HW213944   2.461   3.278   2.507
 4498SOL     OW13945   3.149   3.099   3.284
 4498SOL    HW113946   3.180   3.031   3.224
 4498SOL    HW213947   3.208   3.093   3.359
 4499SOL     OW13948   2.671   1.866   2.366
 4499SOL    HW113949   2.715   1.948   2.347
 4499SOL    HW213950   2.578   1.889   2.372
 4500SOL     OW13951   2.050   2.828   3.137
 4500SOL    HW113952   2.134   2.789   3.116
 4500SOL    HW213953   1.987   2.778   3.084
 4501SOL     OW13954   3.393   2.858   2.062
 4501SOL    HW113955   3.324   2.801   2.094
 4501SOL    HW213956   3.435   2.892   2.141
 4502SOL     OW13957   3.046   3.672   3.486
 4502SOL    HW113958   3.054   3.732   3.412
 4502SOL    HW213959   3.064   3.585   3.449
 4503SOL     OW13960   3.329   3.281   2.811
 4503SOL    HW113961   3.262   3.297   2.877
 4503SOL    HW213962   3.316   3.190   2.785
 4504SOL     OW13963   3.518   3.608   2.440
 4504SOL    HW113964   3.499   3.577   2.351
 4504SOL    HW213965   3.496   3.534   2.497
 4505SOL     OW13966   2.465   2.586   2.130
 4505SOL    HW113967   2.481   2.657   2.068
 4505SOL    HW213968   2.378   2.604   2.166
 4506SOL     OW13969   3.142   2.220   2.795
 4506SOL    HW113970   3.052   2.188   2.804
 4506SOL    HW213971   3.193   2.166   2.855
 4507SOL     OW13972   3.441   3.534   2.172
 4507SOL    HW113973   3.532   3.562   2.164
 4507SOL    HW213974   3.414   3.517   2.082
 4508SOL     OW13975   2.643   2.462   3.306
 4508SOL    HW113976   2.630   2.454   3.400
 4508SOL    HW213977   2.594   2.389   3.268
 4509SOL     OW13978   3.255   2.336   3.540
 4509SOL    HW113979   3.259   2.380   3.625
 4509SOL    HW213980   3.314   2.261   3.549
 4510SOL     OW13981   2.813   2.747   3.446
 4510SOL    HW113982   2.868   2.678   3.407
 4510SOL    HW213983   2.766   2.784   3.371
 4511SOL     OW13984   2.863   2.273   3.096
 4511SOL    HW113985   2.784   2.320   3.122
 4511SOL    HW213986   2.842   2.235   3.011
 4512SOL     OW13987   2.913   2.559   2.287
 4512SOL    HW113988   2.932   2.553   2.381
 4512SOL    HW213989   2.829   2.513   2.277
 4513SOL     OW13990   1.950   2.684   2.636
 4513SOL    HW113991   2.031   2.680   2.687
 4513SOL    HW213992   1.903   2.760   2.671
 4514SOL     OW13993   1.987   3.723   3.443
 4514SOL    HW113994   1.990   3.699   3.536
 4514SOL    HW213995   1.899   3.697   3.415
 4515SOL     OW13996   2.758   2.215   2.059
 4515SOL    HW113997   2.801   2.273   1.997
 4515SOL    HW213998   2.750   2.132   2.013
 4516SOL     OW13999   3.568   2.434   3.691
 4516SOL    HW114000   3.532   2.507   3.642
 4516SOL    HW214001   3.597   2.372   3.624
 4517SOL     OW14002   3.241   3.004   2.402
 4517SOL    HW114003   3.320   2.992   2.350
 4517SOL    HW214004   3.188   3.066   2.352
 4518SOL     OW14005   2.440   2.024   2.730
 4518SOL    HW114006   2.444   2.035   2.825
 4518SOL    HW214007   2.442   2.113   2.696
 4519SOL     OW14008   2.864   3.305   2.332
 4519SOL    HW114009   2.831   3.380   2.282
 4519SOL    HW214010   2.844   3.326   2.423
 4520SOL     OW14011   2.216   3.673   2.728
 4520SOL    HW114012   2.260   3.588   2.735
 4520SOL    HW214013   2.285   3.737   2.747
 4521SOL     OW14014   3.661   2.919   2.732
 4521SOL    HW114015   3.608   2.897   2.655
 4521SOL    HW214016   3.598   2.924   2.804
 4522SOL     OW14017   3.089   3.401   3.375
 4522SOL    HW114018   3.077   3.329   3.437
 4522SOL    HW214019   3.024   3.386   3.307
 4523SOL     OW14020   2.186   2.802   2.120
 4523SOL    HW114021   2.260   2.826   2.064
 4523SOL    HW214022   2.145   2.728   2.075
 4524SOL     OW14023   3.343   2.608   2.586
 4524SOL    HW114024   3.336   2.567   2.672
 4524SOL    HW214025   3.420   2.663   2.592
 4525SOL     OW14026   2.330   3.129   3.599
 4525SOL    HW114027   2.304   3.133   3.508
 4525SOL    HW214028   2.248   3.125   3.648
 4526SOL     OW14029   2.985   3.640   2.091
 4526SOL    HW114030   2.910   3.600   2.136
 4526SOL    HW214031   3.009   3.577   2.024
 4527SOL     OW14032   1.975   2.095   3.361
 4527SOL    HW114033   1.920   2.171   3.379
 4527SOL    HW214034   1.995   2.060   3.448
 4528SOL     OW14035   3.491   3.243   1.951
 4528SOL    HW114036   3.449   3.328   1.936
 4528SOL    HW214037   3.422   3.179   1.931
 4529SOL     OW14038   2.327   3.598   2.182
 4529SOL    HW114039   2.371   3.655   2.245
 4529SOL    HW214040   2.397   3.565   2.126
 4530SOL     OW14041   3.263   1.969   2.298
 4530SOL    HW114042   3.253   1.944   2.207
 4530SOL    HW214043   3.357   1.975   2.312
 4531SOL     OW14044   2.118   3.652   3.092
 4531SOL    HW114045   2.169   3.583   3.136
 4531SOL    HW214046   2.108   3.622   3.002
 4532SOL     OW14047   2.800   3.561   2.760
 4532SOL    HW114048   2.879   3.511   2.781
 4532SOL    HW214049   2.758   3.511   2.690
 4533SOL     OW14050   3.393   2.087   3.587
 4533SOL    HW114051   3.404   2.107   3.680
 4533SOL    HW214052   3.325   2.019   3.584
 4534SOL     OW14053   2.513   1.991   1.956
 4534SOL    HW114054   2.561   1.919   1.999
 4534SOL    HW214055   2.458   1.947   1.891
 4535SOL     OW14056   2.630   2.140   3.618
 4535SOL    HW114057   2.708   2.085   3.614
 4535SOL    HW214058   2.582   2.108   3.694
 4536SOL     OW14059   2.737   3.384   3.057
 4536SOL    HW114060   2.721   3.347   2.970
 4536SOL    HW214061   2.808   3.330   3.093
 4537SOL     OW14062   3.199   2.454   3.296
 4537SOL    HW114063   3.231   2.421   3.380
 4537SOL    HW214064   3.238   2.540   3.287
 4538SOL     OW14065   2.679   3.253   2.805
 4538SOL    HW114066   2.764   3.242   2.762
 4538SOL    HW214067   2.616   3.258   2.734
 4539SOL     OW14068   2.803   2.367   2.774
 4539SOL    HW114069   2.758   2.366   2.690
 4539SOL    HW214070   2.831   2.276   2.787
 4540SOL     OW14071   2.401   1.942   2.361
 4540SOL    HW114072   2.365   1.945   2.450
 4540SOL    HW214073   2.375   2.025   2.322
 4541SOL     OW14074   3.290   3.061   1.902
 4541SOL    HW114075   3.320   2.986   1.953
 4541SOL    HW214076   3.205   3.083   1.940
 4542SOL     OW14077   2.802   2.109   2.317
 4542SOL    HW114078   2.780   2.149   2.233
 4542SOL    HW214079   2.896   2.122   2.325
 4543SOL     OW14080   2.938   2.542   3.316
 4543SOL    HW114081   2.879   2.467   3.326
 4543SOL    HW214082   3.025   2.503   3.311
 4544SOL     OW14083   3.083   3.433   2.656
 4544SOL    HW114084   3.098   3.499   2.589
 4544SOL    HW214085   3.152   3.448   2.721
 4545SOL     OW14086   2.333   3.013   2.590
 4545SOL    HW114087   2.265   2.997   2.654
 4545SOL    HW214088   2.291   2.998   2.505
 4546SOL     OW14089   3.129   3.655   2.473
 4546SOL    HW114090   3.176   3.716   2.416
 4546SOL    HW214091   3.061   3.708   2.515
 4547SOL     OW14092   2.886   2.400   1.886
 4547SOL    HW114093   2.842   2.484   1.868
 4547SOL    HW214094   2.951   2.422   1.954
 4548SOL     OW14095   1.941   2.422   3.249
 4548SOL    HW114096   2.032   2.395   3.255
 4548SOL    HW214097   1.930   2.489   3.316
 4549SOL     OW14098   2.436   2.027   3.002
 4549SOL    HW114099   2.456   1.971   3.077
 4549SOL    HW214100   2.359   2.077   3.028
 4550SOL     OW14101   2.735   2.317   2.499
 4550SOL    HW114102   2.693   2.375   2.435
 4550SOL    HW214103   2.758   2.238   2.449
 4551SOL     OW14104   2.881   1.914   2.611
 4551SOL    HW114105   2.820   1.910   2.537
 4551SOL    HW214106   2.857   1.840   2.666
 4552SOL     OW14107   3.300   3.024   2.719
 4552SOL    HW114108   3.230   2.958   2.719
 4552SOL    HW214109   3.324   3.032   2.626
 4553SOL     OW14110   3.328   2.470   2.833
 4553SOL    HW114111   3.273   2.391   2.837
 4553SOL    HW214112   3.386   2.462   2.909
 4554SOL     OW14113   3.706   2.675   2.246
 4554SOL    HW114114   3.763   2.625   2.304
 4554SOL    HW214115   3.679   2.612   2.179
 4555SOL     OW14116   2.351   3.283   2.016
 4555SOL    HW114117   2.276   3.254   2.067
 4555SOL    HW214118   2.342   3.236   1.933
 4556SOL     OW14119   3.536   3.126   2.504
 4556SOL    HW114120   3.630   3.127   2.520
 4556SOL    HW214121   3.507   3.215   2.527
 4557SOL     OW14122   3.256   2.434   1.934
 4557SOL    HW114123   3.194   2.414   2.004
 4557SOL    HW214124   3.340   2.402   1.966
 4558SOL     OW14125   3.612   3.103   3.430
 4558SOL    HW114126   3.699   3.064   3.426
 4558SOL    HW214127   3.628   3.193   3.459
 4559SOL     OW14128   2.919   3.217   3.195
 4559SOL    HW114129   2.844   3.185   3.245
 4559SOL    HW214130   2.994   3.174   3.236
 4560SOL     OW14131   3.471   3.489   3.518
 4560SOL    HW114132   3.463   3.522   3.429
 4560SOL    HW214133   3.553   3.440   3.519
 4561SOL     OW14134   2.995   3.070   2.966
 4561SOL    HW114135   2.934   3.106   3.030
 4561SOL    HW214136   2.964   3.103   2.881
 4562SOL     OW14137   3.486   2.958   2.939
 4562SOL    HW114138   3.481   3.021   3.011
 4562SOL    HW214139   3.409   2.976   2.886
 4563SOL     OW14140   2.787   1.954   3.257
 4563SOL    HW114141   2.806   1.937   3.165
 4563SOL    HW214142   2.866   1.994   3.292
 4564SOL     OW14143   2.846   2.977   3.584
 4564SOL    HW114144   2.755   2.993   3.607
 4564SOL    HW214145   2.843   2.898   3.529
 4565SOL     OW14146   2.571   2.924   2.231
 4565SOL    HW114147   2.557   2.906   2.324
 4565SOL    HW214148   2.646   2.870   2.207
 4566SOL     OW14149   2.283   2.677   3.113
 4566SOL    HW114150   2.354   2.695   3.175
 4566SOL    HW214151   2.240   2.599   3.148
 4567SOL     OW14152   3.131   2.237   3.141
 4567SOL    HW114153   3.161   2.316   3.186
 4567SOL    HW214154   3.041   2.256   3.117
 4568SOL     OW14155   1.934   3.436   3.218
 4568SOL    HW114156   1.905   3.507   3.161
 4568SOL    HW214157   2.030   3.437   3.210
 4569SOL     OW14158   2.208   2.972   2.347
 4569SOL    HW114159   2.212   3.049   2.291
 4569SOL    HW214160   2.204   2.898   2.286
 4570SOL     OW14161   2.524   2.446   2.710
 4570SOL    HW114162   2.502   2.483   2.624
 4570SOL    HW214163   2.467   2.493   2.771
 4571SOL     OW14164   3.110   3.211   2.251
 4571SOL    HW114165   3.166   3.282   2.283
 4571SOL    HW214166   3.023   3.232   2.285
 4572SOL     OW14167   3.148   3.321   3.009
 4572SOL    HW114168   3.203   3.325   3.087
 4572SOL    HW214169   3.093   3.244   3.022
 4573SOL     OW14170   3.441   2.483   2.343
 4573SOL    HW114171   3.393   2.532   2.410
 4573SOL    HW214172   3.485   2.551   2.291
 4574SOL     OW14173   2.207   3.392   3.174
 4574SOL    HW114174   2.196   3.347   3.090
 4574SOL    HW214175   2.302   3.403   3.182
 4575SOL     OW14176   2.282   2.610   3.460
 4575SOL    HW114177   2.347   2.657   3.408
 4575SOL    HW214178   2.316   2.521   3.468
 4576SOL     OW14179   3.467   2.642   3.546
 4576SOL    HW114180   3.381   2.684   3.540
 4576SOL    HW214181   3.519   2.684   3.478
 4577SOL     OW14182   2.859   1.991   3.614
 4577SOL    HW114183   2.918   2.062   3.590
 4577SOL    HW214184   2.906   1.911   3.590
 4578SOL     OW14185   2.355   1.899   3.612
 4578SOL    HW114186   2.316   1.839   3.548
 4578SOL    HW214187   2.295   1.974   3.613
 4579SOL     OW14188   2.441   2.725   2.889
 4579SOL    HW114189   2.481   2.812   2.883
 4579SOL    HW214190   2.390   2.727   2.970
 4580SOL     OW14191   3.214   2.720   2.887
 4580SOL    HW114192   3.128   2.706   2.847
 4580SOL    HW214193   3.258   2.636   2.879
 4581SOL     OW14194   3.063   2.390   2.126
 4581SOL    HW114195   3.071   2.312   2.180
 4581SOL    HW214196   3.020   2.454   2.183
 4582SOL     OW14197   1.911   3.173   3.137
 4582SOL    HW114198   1.941   3.118   3.209
 4582SOL    HW214199   1.915   3.262   3.172
 4583SOL     OW14200   2.626   2.519   2.967
 4583SOL    HW114201   2.652   2.467   2.891
 4583SOL    HW214202   2.573   2.590   2.931
 4584SOL     OW14203   3.599   2.822   3.717
 4584SOL    HW114204   3.555   2.756   3.663
 4584SOL    HW214205   3.539   2.837   3.790
 4585SOL     OW14206   3.482   2.239   2.225
 4585SOL    HW114207   3.509   2.174   2.290
 4585SOL    HW214208   3.458   2.316   2.277
 4586SOL     OW14209   2.893   2.622   2.820
 4586SOL    HW114210   2.886   2.642   2.913
 4586SOL    HW214211   2.862   2.532   2.813
 4587SOL     OW14212   2.843   3.428   3.582
 4587SOL    HW114213   2.828   3.472   3.498
 4587SOL    HW214214   2.887   3.347   3.558
 4588SOL     OW14215   3.715   3.365   3.467
 4588SOL    HW114216   3.735   3.392   3.377
 4588SOL    HW214217   3.796   3.381   3.515
 4589SOL     OW14218   2.218   2.782   3.667
 4589SOL    HW114219   2.298   2.798   3.718
 4589SOL    HW214220   2.245   2.721   3.599
 4590SOL     OW14221   3.389   2.134   1.989
 4590SOL    HW114222   3.325   2.069   2.016
 4590SOL    HW214223   3.423   2.170   2.071
 4591SOL     OW14224   3.151   2.687   1.891
 4591SOL    HW114225   3.194   2.602   1.896
 4591SOL    HW214226   3.183   2.726   1.810
 4592SOL     OW14227   2.929   3.199   2.717
 4592SOL    HW114228   2.933   3.127   2.655
 4592SOL    HW214229   2.989   3.265   2.682
 4593SOL     OW14230   2.168   2.683   2.806
 4593SOL    HW114231   2.263   2.699   2.804
 4593SOL    HW214232   2.159   2.600   2.852
 4594SOL     OW14233   2.995   2.238   3.545
 4594SOL    HW114234   2.948   2.292   3.609
 4594SOL    HW214235   3.083   2.277   3.541
 4595SOL     OW14236   3.026   2.063   3.334
 4595SOL    HW114237   3.013   2.126   3.404
 4595SOL    HW214238   3.067   2.113   3.263
 4596SOL     OW14239   1.868   3.180   2.056
 4596SOL    HW114240   1.782   3.196   2.019
 4596SOL    HW214241   1.863   3.091   2.091
 4597SOL     OW14242   1.952   3.646   2.802
 4597SOL    HW114243   1.922   3.567   2.757
 4597SOL    HW214244   2.041   3.659   2.770
 4598SOL     OW14245   2.356   3.436   2.767
 4598SOL    HW114246   2.424   3.498   2.791
 4598SOL    HW214247   2.400   3.374   2.710
 4599SOL     OW14248   2.841   2.662   3.087
 4599SOL    HW114249   2.885   2.629   3.165
 4599SOL    HW214250   2.762   2.607   3.079
 4600SOL     OW14251   1.909   2.406   2.977
 4600SOL    HW114252   1.941   2.320   2.951
 4600SOL    HW214253   1.926   2.411   3.071
 4601SOL     OW14254   3.241   2.798   3.519
 4601SOL    HW114255   3.262   2.891   3.516
 4601SOL    HW214256   3.238   2.771   3.427
 4602SOL     OW14257   2.675   2.429   2.230
 4602SOL    HW114258   2.684   2.359   2.166
 4602SOL    HW214259   2.603   2.483   2.196
 4603SOL     OW14260   3.503   2.463   3.045
 4603SOL    HW114261   3.493   2.404   3.120
 4603SOL    HW214262   3.590   2.445   3.011
 4604SOL     OW14263   2.103   3.412   3.587
 4604SOL    HW114264   2.081   3.477   3.653
 4604SOL    HW214265   2.107   3.329   3.634
 4605SOL     OW14266   2.786   3.541   3.332
 4605SOL    HW114267   2.762   3.503   3.247
 4605SOL    HW214268   2.781   3.636   3.318
 4606SOL     OW14269   2.005   3.004   3.337
 4606SOL    HW114270   2.006   2.954   3.419
 4606SOL    HW214271   2.022   2.938   3.269
 4607SOL     OW14272   3.185   2.907   3.083
 4607SOL    HW114273   3.207   2.843   3.015
 4607SOL    HW214274   3.117   2.962   3.044
 4608SOL     OW14275   3.176   2.720   2.167
 4608SOL    HW114276   3.102   2.688   2.219
 4608SOL    HW214277   3.149   2.705   2.076
 4609SOL     OW14278   3.640   3.602   3.017
 4609SOL    HW114279   3.699   3.628   2.946
 4609SOL    HW214280   3.612   3.513   2.993
 4610SOL     OW14281   3.102   3.595   2.971
 4610SOL    HW114282   3.185   3.618   2.928
 4610SOL    HW214283   3.110   3.502   2.990
 4611SOL     OW14284   1.947   3.129   2.873
 4611SOL    HW114285   1.932   3.143   2.967
 4611SOL    HW214286   1.873   3.075   2.845
 4612SOL     OW14287   2.540   3.531   3.596
 4612SOL    HW114288   2.483   3.607   3.589
 4612SOL    HW214289   2.608   3.544   3.530
 4613SOL     OW14290   3.582   2.013   2.369
 4613SOL    HW114291   3.654   1.997   2.308
 4613SOL    HW214292   3.566   1.928   2.409
 4614SOL     OW14293   3.253   3.430   2.350
 4614SOL    HW114294   3.313   3.463   2.282
 4614SOL    HW214295   3.204   3.506   2.378
 4615SOL     OW14296   2.001   3.657   3.704
 4615SOL    HW114297   1.950   3.591   3.752
 4615SOL    HW214298   2.047   3.706   3.773
 4616SOL     OW14299   3.140   2.790   2.534
 4616SOL    HW114300   3.213   2.729   2.543
 4616SOL    HW214301   3.174   2.861   2.481
 4617SOL     OW14302   2.672   3.138   3.288
 4617SOL    HW114303   2.644   3.177   3.371
 4617SOL    HW214304   2.602   3.159   3.227
 4618SOL     OW14305   2.532   3.485   2.017
 4618SOL    HW114306   2.544   3.499   1.923
 4618SOL    HW214307   2.476   3.407   2.024
 4619SOL     OW14308   3.484   3.589   3.253
 4619SOL    HW114309   3.536   3.595   3.173
 4619SOL    HW214310   3.470   3.680   3.279
 4620SOL     OW14311   3.704   2.034   2.829
 4620SOL    HW114312   3.734   1.946   2.803
 4620SOL    HW214313   3.618   2.043   2.789
 4621SOL     OW14314   3.070   3.466   1.895
 4621SOL    HW114315   3.059   3.374   1.921
 4621SOL    HW214316   3.005   3.479   1.826
 4622SOL     OW14317   2.685   2.869   3.237
 4622SOL    HW114318   2.734   2.857   3.156
 4622SOL    HW214319   2.686   2.963   3.253
 4623SOL     OW14320   2.778   2.772   2.152
 4623SOL    HW114321   2.839   2.804   2.086
 4623SOL    HW214322   2.826   2.704   2.198
 4624SOL     OW14323   3.352   3.489   1.906
 4624SOL    HW114324   3.258   3.480   1.891
 4624SOL    HW214325   3.389   3.495   1.818
 4625SOL     OW14326   2.230   3.166   3.353
 4625SOL    HW114327   2.216   3.242   3.298
 4625SOL    HW214328   2.153   3.111   3.339
 4626SOL     OW14329   3.471   3.146   3.142
 4626SOL    HW114330   3.530   3.131   3.216
 4626SOL    HW214331   3.411   3.213   3.172
 4627SOL     OW14332   2.918   2.970   2.571
 4627SOL    HW114333   2.847   2.919   2.609
 4627SOL    HW214334   2.983   2.905   2.543
 4628SOL     OW14335   2.887   2.101   2.828
 4628SOL    HW114336   2.883   2.053   2.745
 4628SOL    HW214337   2.880   2.033   2.895
 4629SOL     OW14338   2.467   3.350   2.342
 4629SOL    HW114339   2.514   3.300   2.276
 4629SOL    HW214340   2.394   3.390   2.295
 4630SOL     OW14341   3.586   2.254   3.242
 4630SOL    HW114342   3.658   2.317   3.242
 4630SOL    HW214343   3.616   2.183   3.186
 4631SOL     OW14344   2.123   3.204   2.154
 4631SOL    HW114345   2.030   3.202   2.129
 4631SOL    HW214346   2.124   3.243   2.241
 4632SOL     OW14347   1.975   2.888   3.584
 4632SOL    HW114348   1.899   2.863   3.637
 4632SOL    HW214349   2.049   2.848   3.629
 4633SOL     OW14350   2.547   2.049   3.356
 4633SOL    HW114351   2.633   2.025   3.321
 4633SOL    HW214352   2.565   2.089   3.440
 4634SOL     OW14353   1.900   2.187   1.914
 4634SOL    HW114354   1.826   2.147   1.868
 4634SOL    HW214355   1.915   2.269   1.868
 4635SOL     OW14356   3.290   2.720   3.261
 4635SOL    HW114357   3.240   2.781   3.206
 4635SOL    HW214358   3.378   2.722   3.225
 4636SOL     OW14359   1.929   2.020   2.165
 4636SOL    HW114360   1.905   2.086   2.100
 4636SOL    HW214361   2.018   2.043   2.191
 4637SOL     OW14362   3.040   3.199   1.979
 4637SOL    HW114363   2.950   3.168   1.981
 4637SOL    HW214364   3.068   3.200   2.071
 4638SOL     OW14365   2.486   2.691   3.291
 4638SOL    HW114366   2.542   2.767   3.279
 4638SOL    HW214367   2.546   2.616   3.294
 4639SOL     OW14368   3.344   3.643   2.843
 4639SOL    HW114369   3.367   3.706   2.775
 4639SOL    HW214370   3.429   3.619   2.882
 4640SOL     OW14371   2.589   2.426   3.565
 4640SOL    HW114372   2.631   2.489   3.624
 4640SOL    HW214373   2.614   2.341   3.600
 4641SOL     OW14374   3.335   3.059   3.492
 4641SOL    HW114375   3.323   3.073   3.586
 4641SOL    HW214376   3.428   3.076   3.477
 4642SOL     OW14377   2.237   3.602   3.427
 4642SOL    HW114378   2.153   3.646   3.412
 4642SOL    HW214379   2.213   3.519   3.469
 4643SOL     OW14380   3.528   2.742   3.117
 4643SOL    HW114381   3.524   2.656   3.074
 4643SOL    HW214382   3.519   2.805   3.046
 4644SOL     OW14383   3.078   2.181   2.320
 4644SOL    HW114384   3.140   2.109   2.313
 4644SOL    HW214385   3.107   2.230   2.396
 4645SOL     OW14386   2.437   2.608   2.510
 4645SOL    HW114387   2.487   2.690   2.505
 4645SOL    HW214388   2.359   2.625   2.458
 4646SOL     OW14389   3.621   2.225   3.514
 4646SOL    HW114390   3.605   2.241   3.421
 4646SOL    HW214391   3.549   2.168   3.541
 4647SOL     OW14392   3.609   2.795   3.373
 4647SOL    HW114393   3.601   2.890   3.386
 4647SOL    HW214394   3.593   2.782   3.280
 4648SOL     OW14395   2.724   3.228   1.900
 4648SOL    HW114396   2.687   3.257   1.984
 4648SOL    HW214397   2.742   3.310   1.853
 4649SOL     OW14398   2.524   3.649   2.803
 4649SOL    HW114399   2.505   3.741   2.782
 4649SOL    HW214400   2.619   3.642   2.797
 4650SOL     OW14401   2.729   2.830   2.716
 4650SOL    HW114402   2.779   2.757   2.753
 4650SOL    HW214403   2.696   2.877   2.792
 4651SOL     OW14404   2.939   2.850   1.950
 4651SOL    HW114405   2.919   2.902   1.872
 4651SOL    HW214406   3.014   2.796   1.924
 4652SOL     OW14407   3.714   3.416   2.705
 4652SOL    HW114408   3.635   3.404   2.653
 4652SOL    HW214409   3.708   3.349   2.773
 4653SOL     OW14410   2.087   3.163   3.716
 4653SOL    HW114411   2.023   3.099   3.685
 4653SOL    HW214412   2.066   3.175   3.809
 4654SOL     OW14413   1.947   3.095   2.528
 4654SOL    HW114414   1.951   3.048   2.611
 4654SOL    HW214415   2.013   3.053   2.473
 4655SOL     OW14416   2.544   3.268   3.491
 4655SOL    HW114417   2.466   3.224   3.524
 4655SOL    HW214418   2.541   3.356   3.529
 4656SOL     OW14419   3.674   2.045   3.100
 4656SOL    HW114420   3.681   1.950   3.113
 4656SOL    HW214421   3.685   2.057   3.005
 4657SOL     OW14422   3.559   3.350   2.956
 4657SOL    HW114423   3.480   3.329   2.907
 4657SOL    HW214424   3.568   3.280   3.021
 4658SOL     OW14425   2.692   3.440   2.538
 4658SOL    HW114426   2.673   3.500   2.465
 4658SOL    HW214427   2.616   3.381   2.540
 4659SOL     OW14428   3.294   2.088   2.979
 4659SOL    HW114429   3.313   2.005   3.023
 4659SOL    HW214430   3.244   2.138   3.043
 4660SOL     OW14431   2.872   1.879   3.001
 4660SOL    HW114432   2.816   1.812   2.960
 4660SOL    HW214433   2.959   1.839   3.002
 4661SOL     OW14434   2.635   3.195   2.180
 4661SOL    HW114435   2.606   3.104   2.186
 4661SOL    HW214436   2.717   3.198   2.230
 4662SOL     OW14437   2.482   3.417   3.148
 4662SOL    HW114438   2.483   3.499   3.197
 4662SOL    HW214439   2.570   3.410   3.111
 4663SOL     OW14440   3.216   1.915   2.030
 4663SOL    HW114441   3.247   1.847   1.970
 4663SOL    HW214442   3.128   1.887   2.054
 4664SOL     OW14443   3.159   2.324   2.541
 4664SOL    HW114444   3.105   2.403   2.546
 4664SOL    HW214445   3.153   2.286   2.629
 4665SOL     OW14446   3.448   2.060   2.742
 4665SOL    HW114447   3.390   2.083   2.815
 4665SOL    HW214448   3.447   2.138   2.686
 4666SOL     OW14449   1.904   2.929   2.171
 4666SOL    HW114450   1.997   2.922   2.153
 4666SOL    HW214451   1.876   2.840   2.193
 4667SOL     OW14452   2.749   3.519   2.202
 4667SOL    HW114453   2.675   3.502   2.144
 4667SOL    HW214454   2.720   3.593   2.256
 4668SOL     OW14455   2.060   2.531   3.858
 4668SOL    HW114456   1.972   2.505   3.885
 4668SOL    HW214457   2.079   2.476   3.782
 4669SOL     OW14458   1.857   2.256   4.351
 4669SOL    HW114459   1.773   2.273   4.394
 4669SOL    HW214460   1.848   2.169   4.313
 4670SOL     OW14461   2.429   3.154   4.901
 4670SOL    HW114462   2.343   3.162   4.860
 4670SOL    HW214463   2.448   3.242   4.935
 4671SOL     OW14464   3.428   3.375   4.432
 4671SOL    HW114465   3.385   3.352   4.515
 4671SOL    HW214466   3.356   3.378   4.369
 4672SOL     OW14467   3.004   2.559   4.395
 4672SOL    HW114468   3.045   2.645   4.403
 4672SOL    HW214469   2.953   2.549   4.476
 4673SOL     OW14470   3.634   2.464   3.951
 4673SOL    HW114471   3.610   2.458   3.858
 4673SOL    HW214472   3.595   2.386   3.991
 4674SOL     OW14473   2.647   3.021   4.784
 4674SOL    HW114474   2.562   3.035   4.826
 4674SOL    HW214475   2.665   3.102   4.737
 4675SOL     OW14476   2.742   2.663   5.569
 4675SOL    HW114477   2.685   2.731   5.606
 4675SOL    HW214478   2.758   2.691   5.479
 4676SOL     OW14479   2.549   2.867   4.369
 4676SOL    HW114480   2.616   2.855   4.436
 4676SOL    HW214481   2.481   2.919   4.411
 4677SOL     OW14482   2.588   3.015   5.516
 4677SOL    HW114483   2.624   3.095   5.554
 4677SOL    HW214484   2.496   3.035   5.501
 4678SOL     OW14485   2.194   3.279   4.791
 4678SOL    HW114486   2.117   3.245   4.746
 4678SOL    HW214487   2.239   3.333   4.725
 4679SOL     OW14488   3.322   3.363   5.082
 4679SOL    HW114489   3.375   3.442   5.092
 4679SOL    HW214490   3.255   3.369   5.150
 4680SOL     OW14491   3.471   2.308   4.467
 4680SOL    HW114492   3.397   2.327   4.409
 4680SOL    HW214493   3.483   2.387   4.518
 4681SOL     OW14494   2.082   3.577   4.194
 4681SOL    HW114495   2.102   3.652   4.249
 4681SOL    HW214496   2.156   3.570   4.134
 4682SOL     OW14497   2.999   3.205   5.418
 4682SOL    HW114498   3.039   3.199   5.505
 4682SOL    HW214499   2.947   3.124   5.410
 4683SOL     OW14500   2.096   3.305   4.261
 4683SOL    HW114501   2.077   3.399   4.261
 4683SOL    HW214502   2.034   3.268   4.324
 4684SOL     OW14503   2.468   3.654   5.150
 4684SOL    HW114504   2.388   3.636   5.199
 4684SOL    HW214505   2.493   3.743   5.178
 4685SOL     OW14506   2.444   2.843   3.858
 4685SOL    HW114507   2.492   2.891   3.791
 4685SOL    HW214508   2.482   2.873   3.941
 4686SOL     OW14509   3.461   1.986   5.193
 4686SOL    HW114510   3.470   2.067   5.142
 4686SOL    HW214511   3.441   2.015   5.282
 4687SOL     OW14512   1.985   2.507   4.286
 4687SOL    HW114513   1.947   2.420   4.303
 4687SOL    HW214514   1.967   2.556   4.367
 4688SOL     OW14515   3.705   3.619   4.056
 4688SOL    HW114516   3.771   3.591   4.119
 4688SOL    HW214517   3.725   3.710   4.037
 4689SOL     OW14518   1.897   3.454   3.846
 4689SOL    HW114519   1.878   3.363   3.867
 4689SOL    HW214520   1.872   3.502   3.925
 4690SOL     OW14521   3.551   2.781   4.368
 4690SOL    HW114522   3.634   2.738   4.347
 4690SOL    HW214523   3.529   2.831   4.290
 4691SOL     OW14524   3.510   2.967   4.153
 4691SOL    HW114525   3.597   2.970   4.112
 4691SOL    HW214526   3.516   3.029   4.225
 4692SOL     OW14527   2.477   3.252   4.458
 4692SOL    HW114528   2.434   3.167   4.467
 4692SOL    HW214529   2.461   3.278   4.368
 4693SOL     OW14530   3.151   3.101   5.145
 4693SOL    HW114531   3.181   3.031   5.086
 4693SOL    HW214532   3.208   3.094   5.221
 4694SOL     OW14533   2.674   1.862   4.227
 4694SOL    HW114534   2.718   1.945   4.209
 4694SOL    HW214535   2.582   1.885   4.238
 4695SOL     OW14536   3.393   2.858   3.924
 4695SOL    HW114537   3.324   2.801   3.956
 4695SOL    HW214538   3.435   2.892   4.003
 4696SOL     OW14539   3.047   3.672   5.348
 4696SOL    HW114540   3.054   3.731   5.273
 4696SOL    HW214541   3.064   3.585   5.312
 4697SOL     OW14542   3.329   3.281   4.673
 4697SOL    HW114543   3.262   3.297   4.739
 4697SOL    HW214544   3.316   3.190   4.647
 4698SOL     OW14545   3.518   3.608   4.302
 4698SOL    HW114546   3.499   3.576   4.213
 4698SOL    HW214547   3.496   3.534   4.359
 4699SOL     OW14548   2.464   2.583   3.991
 4699SOL    HW114549   2.464   2.661   3.936
 4699SOL    HW214550   2.391   2.597   4.051
 4700SOL     OW14551   3.146   2.223   4.664
 4700SOL    HW114552   3.060   2.181   4.659
 4700SOL    HW214553   3.198   2.163   4.718
 4701SOL     OW14554   3.441   3.534   4.034
 4701SOL    HW114555   3.532   3.562   4.026
 4701SOL    HW214556   3.414   3.517   3.944
 4702SOL     OW14557   3.259   2.335   5.396
 4702SOL    HW114558   3.256   2.381   5.480
 4702SOL    HW214559   3.316   2.260   5.411
 4703SOL     OW14560   2.828   2.750   5.307
 4703SOL    HW114561   2.880   2.677   5.274
 4703SOL    HW214562   2.794   2.793   5.229
 4704SOL     OW14563   2.912   2.562   4.139
 4704SOL    HW114564   2.937   2.557   4.231
 4704SOL    HW214565   2.829   2.515   4.134
 4705SOL     OW14566   1.944   2.677   4.503
 4705SOL    HW114567   2.026   2.673   4.553
 4705SOL    HW214568   1.898   2.752   4.541
 4706SOL     OW14569   1.987   3.721   5.305
 4706SOL    HW114570   1.990   3.697   5.398
 4706SOL    HW214571   1.898   3.699   5.278
 4707SOL     OW14572   2.760   2.213   3.918
 4707SOL    HW114573   2.801   2.275   3.858
 4707SOL    HW214574   2.766   2.128   3.873
 4708SOL     OW14575   3.574   2.435   5.552
 4708SOL    HW114576   3.534   2.507   5.504
 4708SOL    HW214577   3.599   2.372   5.484
 4709SOL     OW14578   3.242   3.005   4.264
 4709SOL    HW114579   3.321   2.994   4.210
 4709SOL    HW214580   3.188   3.067   4.214
 4710SOL     OW14581   2.864   3.305   4.193
 4710SOL    HW114582   2.830   3.380   4.145
 4710SOL    HW214583   2.845   3.325   4.285
 4711SOL     OW14584   2.216   3.674   4.590
 4711SOL    HW114585   2.260   3.589   4.597
 4711SOL    HW214586   2.285   3.737   4.609
 4712SOL     OW14587   3.661   2.919   4.594
 4712SOL    HW114588   3.608   2.898   4.517
 4712SOL    HW214589   3.598   2.924   4.666
 4713SOL     OW14590   3.089   3.401   5.237
 4713SOL    HW114591   3.077   3.329   5.299
 4713SOL    HW214592   3.025   3.385   5.168
 4714SOL     OW14593   2.174   2.818   3.975
 4714SOL    HW114594   2.256   2.835   3.929
 4714SOL    HW214595   2.142   2.736   3.938
 4715SOL     OW14596   3.344   2.607   4.448
 4715SOL    HW114597   3.337   2.568   4.535
 4715SOL    HW214598   3.421   2.664   4.453
 4716SOL     OW14599   2.331   3.132   5.467
 4716SOL    HW114600   2.309   3.132   5.374
 4716SOL    HW214601   2.247   3.133   5.512
 4717SOL     OW14602   2.985   3.640   3.953
 4717SOL    HW114603   2.911   3.600   3.998
 4717SOL    HW214604   3.009   3.577   3.885
 4718SOL     OW14605   3.491   3.243   3.813
 4718SOL    HW114606   3.449   3.328   3.798
 4718SOL    HW214607   3.422   3.179   3.793
 4719SOL     OW14608   2.327   3.598   4.044
 4719SOL    HW114609   2.371   3.655   4.107
 4719SOL    HW214610   2.397   3.565   3.988
 4720SOL     OW14611   3.262   1.971   4.160
 4720SOL    HW114612   3.253   1.944   4.069
 4720SOL    HW214613   3.356   1.974   4.175
 4721SOL     OW14614   2.117   3.652   4.955
 4721SOL    HW114615   2.169   3.584   4.998
 4721SOL    HW214616   2.109   3.622   4.865
 4722SOL     OW14617   2.799   3.562   4.622
 4722SOL    HW114618   2.876   3.511   4.646
 4722SOL    HW214619   2.757   3.512   4.552
 4723SOL     OW14620   2.250   2.563   4.178
 4723SOL    HW114621   2.264   2.474   4.146
 4723SOL    HW214622   2.159   2.563   4.210
 4724SOL     OW14623   3.394   2.088   5.449
 4724SOL    HW114624   3.405   2.106   5.542
 4724SOL    HW214625   3.319   2.028   5.445
 4725SOL     OW14626   2.498   1.991   3.821
 4725SOL    HW114627   2.553   1.922   3.859
 4725SOL    HW214628   2.452   1.949   3.749
 4726SOL     OW14629   2.738   3.387   4.918
 4726SOL    HW114630   2.722   3.351   4.831
 4726SOL    HW214631   2.807   3.331   4.954
 4727SOL     OW14632   3.214   2.452   5.152
 4727SOL    HW114633   3.242   2.419   5.237
 4727SOL    HW214634   3.251   2.540   5.146
 4728SOL     OW14635   2.679   3.265   4.664
 4728SOL    HW114636   2.764   3.248   4.622
 4728SOL    HW214637   2.616   3.264   4.592
 4729SOL     OW14638   2.845   2.389   4.564
 4729SOL    HW114639   2.793   2.367   4.486
 4729SOL    HW214640   2.842   2.309   4.618
 4730SOL     OW14641   2.406   1.934   4.221
 4730SOL    HW114642   2.326   1.927   4.274
 4730SOL    HW214643   2.407   2.024   4.190
 4731SOL     OW14644   3.290   3.061   3.764
 4731SOL    HW114645   3.320   2.986   3.815
 4731SOL    HW214646   3.205   3.083   3.802
 4732SOL     OW14647   2.160   1.904   3.903
 4732SOL    HW114648   2.229   1.962   3.871
 4732SOL    HW214649   2.206   1.834   3.949
 4733SOL     OW14650   2.802   2.107   4.175
 4733SOL    HW114651   2.782   2.147   4.090
 4733SOL    HW214652   2.896   2.119   4.186
 4734SOL     OW14653   2.958   2.526   5.214
 4734SOL    HW114654   2.936   2.453   5.271
 4734SOL    HW214655   3.049   2.509   5.187
 4735SOL     OW14656   3.084   3.432   4.517
 4735SOL    HW114657   3.099   3.499   4.450
 4735SOL    HW214658   3.152   3.448   4.583
 4736SOL     OW14659   2.330   3.016   4.457
 4736SOL    HW114660   2.262   3.001   4.523
 4736SOL    HW214661   2.287   2.998   4.373
 4737SOL     OW14662   3.129   3.655   4.335
 4737SOL    HW114663   3.176   3.716   4.278
 4737SOL    HW214664   3.061   3.708   4.376
 4738SOL     OW14665   2.885   2.401   3.749
 4738SOL    HW114666   2.843   2.485   3.731
 4738SOL    HW214667   2.951   2.420   3.816
 4739SOL     OW14668   2.708   2.309   4.344
 4739SOL    HW114669   2.677   2.368   4.275
 4739SOL    HW214670   2.737   2.231   4.297
 4740SOL     OW14671   2.897   1.904   4.460
 4740SOL    HW114672   2.824   1.906   4.398
 4740SOL    HW214673   2.872   1.839   4.525
 4741SOL     OW14674   3.300   3.023   4.580
 4741SOL    HW114675   3.228   2.960   4.581
 4741SOL    HW214676   3.324   3.032   4.488
 4742SOL     OW14677   3.327   2.471   4.697
 4742SOL    HW114678   3.277   2.389   4.696
 4742SOL    HW214679   3.386   2.463   4.772
 4743SOL     OW14680   3.706   2.675   4.108
 4743SOL    HW114681   3.763   2.625   4.166
 4743SOL    HW214682   3.679   2.612   4.041
 4744SOL     OW14683   2.351   3.283   3.878
 4744SOL    HW114684   2.276   3.254   3.929
 4744SOL    HW214685   2.343   3.236   3.795
 4745SOL     OW14686   3.536   3.126   4.366
 4745SOL    HW114687   3.630   3.127   4.382
 4745SOL    HW214688   3.507   3.215   4.389
 4746SOL     OW14689   3.256   2.434   3.795
 4746SOL    HW114690   3.194   2.414   3.865
 4746SOL    HW214691   3.340   2.402   3.827
 4747SOL     OW14692   3.612   3.103   5.291
 4747SOL    HW114693   3.699   3.063   5.288
 4747SOL    HW214694   3.628   3.193   5.320
 4748SOL     OW14695   2.920   3.219   5.057
 4748SOL    HW114696   2.844   3.192   5.108
 4748SOL    HW214697   2.994   3.175   5.098
 4749SOL     OW14698   3.472   3.490   5.381
 4749SOL    HW114699   3.464   3.523   5.292
 4749SOL    HW214700   3.553   3.440   5.381
 4750SOL     OW14701   2.995   3.067   4.828
 4750SOL    HW114702   2.932   3.099   4.893
 4750SOL    HW214703   2.959   3.097   4.744
 4751SOL     OW14704   3.486   2.958   4.801
 4751SOL    HW114705   3.481   3.021   4.873
 4751SOL    HW214706   3.409   2.977   4.747
 4752SOL     OW14707   2.850   2.977   5.448
 4752SOL    HW114708   2.757   2.991   5.468
 4752SOL    HW214709   2.851   2.898   5.394
 4753SOL     OW14710   2.570   2.924   4.094
 4753SOL    HW114711   2.558   2.907   4.187
 4753SOL    HW214712   2.646   2.871   4.069
 4754SOL     OW14713   3.134   2.242   4.999
 4754SOL    HW114714   3.166   2.314   5.052
 4754SOL    HW214715   3.086   2.284   4.928
 4755SOL     OW14716   1.934   3.431   5.076
 4755SOL    HW114717   1.904   3.505   5.022
 4755SOL    HW214718   2.029   3.434   5.070
 4756SOL     OW14719   2.199   2.970   4.219
 4756SOL    HW114720   2.207   3.045   4.160
 4756SOL    HW214721   2.199   2.894   4.162
 4757SOL     OW14722   3.110   3.211   4.113
 4757SOL    HW114723   3.165   3.282   4.145
 4757SOL    HW214724   3.023   3.232   4.147
 4758SOL     OW14725   3.147   3.321   4.871
 4758SOL    HW114726   3.202   3.324   4.949
 4758SOL    HW214727   3.089   3.247   4.885
 4759SOL     OW14728   3.442   2.483   4.206
 4759SOL    HW114729   3.393   2.532   4.272
 4759SOL    HW214730   3.485   2.550   4.153
 4760SOL     OW14731   2.208   3.390   5.036
 4760SOL    HW114732   2.197   3.345   4.952
 4760SOL    HW214733   2.302   3.401   5.045
 4761SOL     OW14734   3.469   2.641   5.408
 4761SOL    HW114735   3.382   2.682   5.404
 4761SOL    HW214736   3.519   2.684   5.340
 4762SOL     OW14737   2.898   1.960   5.531
 4762SOL    HW114738   2.916   2.045   5.493
 4762SOL    HW214739   2.936   1.897   5.470
 4763SOL     OW14740   3.209   2.719   4.747
 4763SOL    HW114741   3.128   2.706   4.697
 4763SOL    HW214742   3.255   2.636   4.740
 4764SOL     OW14743   3.064   2.388   3.986
 4764SOL    HW114744   3.072   2.312   4.043
 4764SOL    HW214745   3.020   2.454   4.041
 4765SOL     OW14746   1.919   3.164   5.000
 4765SOL    HW114747   1.945   3.116   5.078
 4765SOL    HW214748   1.918   3.256   5.027
 4766SOL     OW14749   3.599   2.822   5.579
 4766SOL    HW114750   3.555   2.756   5.525
 4766SOL    HW214751   3.539   2.838   5.651
 4767SOL     OW14752   2.152   1.934   4.346
 4767SOL    HW114753   2.121   2.017   4.380
 4767SOL    HW214754   2.177   1.884   4.424
 4768SOL     OW14755   3.483   2.239   4.087
 4768SOL    HW114756   3.509   2.173   4.152
 4768SOL    HW214757   3.459   2.316   4.139
 4769SOL     OW14758   2.930   2.635   4.676
 4769SOL    HW114759   2.917   2.647   4.770
 4769SOL    HW214760   2.895   2.548   4.658
 4770SOL     OW14761   2.843   3.428   5.443
 4770SOL    HW114762   2.828   3.472   5.360
 4770SOL    HW214763   2.887   3.346   5.420
 4771SOL     OW14764   3.715   3.365   5.329
 4771SOL    HW114765   3.735   3.392   5.239
 4771SOL    HW214766   3.796   3.381   5.377
 4772SOL     OW14767   3.389   2.134   3.851
 4772SOL    HW114768   3.325   2.069   3.878
 4772SOL    HW214769   3.423   2.170   3.933
 4773SOL     OW14770   3.151   2.687   3.753
 4773SOL    HW114771   3.194   2.602   3.757
 4773SOL    HW214772   3.183   2.726   3.672
 4774SOL     OW14773   2.927   3.201   4.578
 4774SOL    HW114774   2.932   3.128   4.516
 4774SOL    HW214775   2.988   3.266   4.544
 4775SOL     OW14776   2.998   2.240   5.391
 4775SOL    HW114777   2.953   2.296   5.454
 4775SOL    HW214778   3.088   2.271   5.391
 4776SOL     OW14779   3.061   2.050   5.199
 4776SOL    HW114780   3.020   2.109   5.262
 4776SOL    HW214781   3.085   2.106   5.125
 4777SOL     OW14782   1.868   3.180   3.919
 4777SOL    HW114783   1.781   3.196   3.882
 4777SOL    HW214784   1.864   3.091   3.953
 4778SOL     OW14785   1.952   3.646   4.664
 4778SOL    HW114786   1.922   3.567   4.619
 4778SOL    HW214787   2.041   3.659   4.632
 4779SOL     OW14788   2.355   3.436   4.629
 4779SOL    HW114789   2.424   3.498   4.655
 4779SOL    HW214790   2.400   3.374   4.572
 4780SOL     OW14791   3.242   2.797   5.381
 4780SOL    HW114792   3.261   2.891   5.379
 4780SOL    HW214793   3.237   2.771   5.290
 4781SOL     OW14794   2.673   2.429   4.089
 4781SOL    HW114795   2.682   2.358   4.025
 4781SOL    HW214796   2.602   2.483   4.056
 4782SOL     OW14797   3.503   2.463   4.906
 4782SOL    HW114798   3.494   2.405   4.982
 4782SOL    HW214799   3.590   2.444   4.872
 4783SOL     OW14800   2.100   3.412   5.447
 4783SOL    HW114801   2.081   3.477   5.514
 4783SOL    HW214802   2.106   3.329   5.496
 4784SOL     OW14803   2.786   3.542   5.194
 4784SOL    HW114804   2.763   3.502   5.110
 4784SOL    HW214805   2.780   3.636   5.179
 4785SOL     OW14806   2.008   2.996   5.212
 4785SOL    HW114807   2.009   2.969   5.304
 4785SOL    HW214808   2.030   2.917   5.164
 4786SOL     OW14809   3.186   2.906   4.944
 4786SOL    HW114810   3.206   2.843   4.875
 4786SOL    HW214811   3.118   2.962   4.906
 4787SOL     OW14812   3.176   2.719   4.028
 4787SOL    HW114813   3.101   2.688   4.080
 4787SOL    HW214814   3.150   2.705   3.937
 4788SOL     OW14815   3.640   3.601   4.879
 4788SOL    HW114816   3.699   3.628   4.808
 4788SOL    HW214817   3.612   3.513   4.855
 4789SOL     OW14818   3.102   3.595   4.833
 4789SOL    HW114819   3.185   3.617   4.790
 4789SOL    HW214820   3.110   3.502   4.853
 4790SOL     OW14821   1.953   3.143   4.727
 4790SOL    HW114822   1.936   3.146   4.821
 4790SOL    HW214823   1.904   3.067   4.696
 4791SOL     OW14824   2.541   3.535   5.463
 4791SOL    HW114825   2.485   3.613   5.452
 4791SOL    HW214826   2.608   3.544   5.395
 4792SOL     OW14827   3.583   2.013   4.231
 4792SOL    HW114828   3.654   1.997   4.170
 4792SOL    HW214829   3.566   1.928   4.271
 4793SOL     OW14830   3.253   3.430   4.211
 4793SOL    HW114831   3.313   3.463   4.144
 4793SOL    HW214832   3.204   3.506   4.240
 4794SOL     OW14833   2.000   3.656   5.567
 4794SOL    HW114834   1.950   3.590   5.615
 4794SOL    HW214835   2.046   3.706   5.635
 4795SOL     OW14836   3.143   2.793   4.399
 4795SOL    HW114837   3.215   2.731   4.405
 4795SOL    HW214838   3.176   2.864   4.344
 4796SOL     OW14839   2.670   3.157   5.154
 4796SOL    HW114840   2.638   3.195   5.236
 4796SOL    HW214841   2.598   3.168   5.092
 4797SOL     OW14842   2.532   3.485   3.879
 4797SOL    HW114843   2.544   3.499   3.785
 4797SOL    HW214844   2.476   3.408   3.886
 4798SOL     OW14845   3.484   3.589   5.116
 4798SOL    HW114846   3.536   3.595   5.035
 4798SOL    HW214847   3.470   3.680   5.142
 4799SOL     OW14848   3.705   2.033   4.691
 4799SOL    HW114849   3.734   1.946   4.665
 4799SOL    HW214850   3.619   2.042   4.650
 4800SOL     OW14851   3.070   3.466   3.757
 4800SOL    HW114852   3.059   3.374   3.783
 4800SOL    HW214853   3.005   3.479   3.688
 4801SOL     OW14854   2.754   2.908   5.092
 4801SOL    HW114855   2.738   2.921   4.998
 4801SOL    HW214856   2.727   2.990   5.132
 4802SOL     OW14857   2.778   2.774   4.012
 4802SOL    HW114858   2.839   2.807   3.946
 4802SOL    HW214859   2.825   2.704   4.057
 4803SOL     OW14860   3.352   3.489   3.768
 4803SOL    HW114861   3.258   3.480   3.753
 4803SOL    HW214862   3.389   3.495   3.680
 4804SOL     OW14863   2.231   3.165   5.218
 4804SOL    HW114864   2.218   3.242   5.162
 4804SOL    HW214865   2.153   3.112   5.204
 4805SOL     OW14866   3.473   3.146   5.004
 4805SOL    HW114867   3.529   3.130   5.080
 4805SOL    HW214868   3.411   3.213   5.034
 4806SOL     OW14869   2.921   2.974   4.430
 4806SOL    HW114870   2.849   2.925   4.470
 4806SOL    HW214871   2.984   2.906   4.405
 4807SOL     OW14872   2.466   3.350   4.204
 4807SOL    HW114873   2.514   3.300   4.137
 4807SOL    HW214874   2.394   3.390   4.156
 4808SOL     OW14875   3.585   2.256   5.103
 4808SOL    HW114876   3.658   2.318   5.103
 4808SOL    HW214877   3.615   2.184   5.047
 4809SOL     OW14878   2.123   3.206   4.015
 4809SOL    HW114879   2.030   3.203   3.991
 4809SOL    HW214880   2.124   3.244   4.102
 4810SOL     OW14881   1.971   2.904   5.471
 4810SOL    HW114882   1.886   2.870   5.500
 4810SOL    HW214883   2.033   2.833   5.491
 4811SOL     OW14884   1.916   2.191   3.787
 4811SOL    HW114885   1.836   2.180   3.736
 4811SOL    HW214886   1.971   2.247   3.734
 4812SOL     OW14887   3.291   2.720   5.121
 4812SOL    HW114888   3.241   2.782   5.067
 4812SOL    HW214889   3.380   2.724   5.086
 4813SOL     OW14890   1.932   2.017   4.024
 4813SOL    HW114891   1.911   2.089   3.965
 4813SOL    HW214892   2.014   1.982   3.991
 4814SOL     OW14893   3.040   3.199   3.841
 4814SOL    HW114894   2.950   3.167   3.844
 4814SOL    HW214895   3.068   3.200   3.933
 4815SOL     OW14896   3.344   3.643   4.705
 4815SOL    HW114897   3.367   3.706   4.637
 4815SOL    HW214898   3.429   3.618   4.744
 4816SOL     OW14899   3.334   3.059   5.355
 4816SOL    HW114900   3.322   3.073   5.449
 4816SOL    HW214901   3.428   3.076   5.340
 4817SOL     OW14902   2.237   3.602   5.289
 4817SOL    HW114903   2.153   3.645   5.274
 4817SOL    HW214904   2.215   3.518   5.330
 4818SOL     OW14905   3.530   2.742   4.979
 4818SOL    HW114906   3.525   2.657   4.936
 4818SOL    HW214907   3.519   2.806   4.908
 4819SOL     OW14908   3.078   2.181   4.181
 4819SOL    HW114909   3.139   2.109   4.174
 4819SOL    HW214910   3.107   2.230   4.258
 4820SOL     OW14911   2.441   2.608   4.383
 4820SOL    HW114912   2.487   2.691   4.369
 4820SOL    HW214913   2.380   2.602   4.310
 4821SOL     OW14914   3.621   2.225   5.374
 4821SOL    HW114915   3.604   2.241   5.281
 4821SOL    HW214916   3.549   2.168   5.402
 4822SOL     OW14917   3.610   2.796   5.235
 4822SOL    HW114918   3.600   2.890   5.248
 4822SOL    HW214919   3.593   2.782   5.142
 4823SOL     OW14920   2.724   3.228   3.762
 4823SOL    HW114921   2.687   3.256   3.846
 4823SOL    HW214922   2.742   3.310   3.715
 4824SOL     OW14923   2.523   3.649   4.665
 4824SOL    HW114924   2.505   3.741   4.644
 4824SOL    HW214925   2.618   3.641   4.659
 4825SOL     OW14926   2.732   2.838   4.577
 4825SOL    HW114927   2.786   2.766   4.612
 4825SOL    HW214928   2.691   2.877   4.654
 4826SOL     OW14929   2.940   2.851   3.812
 4826SOL    HW114930   2.919   2.902   3.733
 4826SOL    HW214931   3.015   2.796   3.786
 4827SOL     OW14932   3.713   3.416   4.568
 4827SOL    HW114933   3.634   3.404   4.515
 4827SOL    HW214934   3.707   3.349   4.636
 4828SOL     OW14935   2.087   3.164   5.579
 4828SOL    HW114936   2.029   3.091   5.558
 4828SOL    HW214937   2.081   3.172   5.674
 4829SOL     OW14938   1.944   3.100   4.390
 4829SOL    HW114939   1.929   3.044   4.466
 4829SOL    HW214940   2.007   3.051   4.336
 4830SOL     OW14941   2.537   3.278   5.353
 4830SOL    HW114942   2.467   3.226   5.393
 4830SOL    HW214943   2.533   3.363   5.398
 4831SOL     OW14944   3.676   2.046   4.962
 4831SOL    HW114945   3.680   1.951   4.975
 4831SOL    HW214946   3.686   2.057   4.867
 4832SOL     OW14947   3.560   3.350   4.818
 4832SOL    HW114948   3.480   3.329   4.769
 4832SOL    HW214949   3.567   3.280   4.883
 4833SOL     OW14950   2.692   3.442   4.399
 4833SOL    HW114951   2.673   3.501   4.325
 4833SOL    HW214952   2.617   3.383   4.401
 4834SOL     OW14953   3.296   2.082   4.842
 4834SOL    HW114954   3.306   1.993   4.876
 4834SOL    HW214955   3.250   2.129   4.911
 4835SOL     OW14956   2.635   3.195   4.042
 4835SOL    HW114957   2.607   3.104   4.049
 4835SOL    HW214958   2.717   3.198   4.092
 4836SOL     OW14959   2.482   3.418   5.008
 4836SOL    HW114960   2.483   3.499   5.058
 4836SOL    HW214961   2.570   3.410   4.972
 4837SOL     OW14962   3.216   1.915   3.891
 4837SOL    HW114963   3.247   1.846   3.832
 4837SOL    HW214964   3.128   1.887   3.915
 4838SOL     OW14965   3.161   2.322   4.404
 4838SOL    HW114966   3.110   2.403   4.403
 4838SOL    HW214967   3.154   2.290   4.493
 4839SOL     OW14968   3.450   2.060   4.604
 4839SOL    HW114969   3.393   2.082   4.678
 4839SOL    HW214970   3.448   2.138   4.548
 4840SOL     OW14971   1.905   2.929   4.033
 4840SOL    HW114972   1.998   2.920   4.011
 4840SOL    HW214973   1.877   2.840   4.056
 4841SOL     OW14974   2.749   3.519   4.064
 4841SOL    HW114975   2.675   3.502   4.006
 4841SOL    HW214976   2.720   3.593   4.118
 4842SOL     OW14977   2.075   2.527   5.636
 4842SOL    HW114978   2.003   2.501   5.694
 4842SOL    HW214979   2.133   2.451   5.634
 4843SOL     OW14980   2.429   3.155   6.765
 4843SOL    HW114981   2.342   3.162   6.725
 4843SOL    HW214982   2.447   3.243   6.799
 4844SOL     OW14983   3.428   3.375   6.294
 4844SOL    HW114984   3.385   3.353   6.377
 4844SOL    HW214985   3.357   3.379   6.230
 4845SOL     OW14986   2.999   2.550   6.304
 4845SOL    HW114987   3.038   2.631   6.271
 4845SOL    HW214988   2.960   2.575   6.387
 4846SOL     OW14989   3.633   2.464   5.814
 4846SOL    HW114990   3.611   2.458   5.721
 4846SOL    HW214991   3.594   2.386   5.853
 4847SOL     OW14992   2.609   3.001   6.628
 4847SOL    HW114993   2.543   3.039   6.686
 4847SOL    HW214994   2.649   3.076   6.584
 4848SOL     OW14995   2.733   2.631   7.409
 4848SOL    HW114996   2.721   2.700   7.474
 4848SOL    HW214997   2.757   2.677   7.329
 4849SOL     OW14998   2.566   2.931   6.255
 4849SOL    HW114999   2.626   2.888   6.315
 4849SOL    HW215000   2.497   2.966   6.312
 4850SOL     OW15001   2.575   3.012   7.400
 4850SOL    HW115002   2.622   3.090   7.430
 4850SOL    HW215003   2.493   3.047   7.363
 4851SOL     OW15004   2.195   3.282   6.654
 4851SOL    HW115005   2.119   3.246   6.610
 4851SOL    HW215006   2.240   3.334   6.587
 4852SOL     OW15007   3.322   3.363   6.944
 4852SOL    HW115008   3.375   3.442   6.953
 4852SOL    HW215009   3.255   3.371   7.013
 4853SOL     OW15010   3.471   2.307   6.329
 4853SOL    HW115011   3.395   2.326   6.273
 4853SOL    HW215012   3.482   2.386   6.382
 4854SOL     OW15013   2.083   3.575   6.056
 4854SOL    HW115014   2.103   3.651   6.111
 4854SOL    HW215015   2.157   3.569   5.995
 4855SOL     OW15016   2.999   3.204   7.280
 4855SOL    HW115017   3.040   3.198   7.366
 4855SOL    HW215018   2.947   3.124   7.272
 4856SOL     OW15019   2.089   3.303   6.118
 4856SOL    HW115020   2.079   3.398   6.115
 4856SOL    HW215021   2.024   3.274   6.182
 4857SOL     OW15022   2.109   2.955   6.471
 4857SOL    HW115023   2.124   2.874   6.522
 4857SOL    HW215024   2.061   3.012   6.531
 4858SOL     OW15025   2.469   3.653   7.014
 4858SOL    HW115026   2.388   3.635   7.061
 4858SOL    HW215027   2.493   3.742   7.040
 4859SOL     OW15028   3.457   1.987   7.052
 4859SOL    HW115029   3.474   2.068   7.003
 4859SOL    HW215030   3.440   2.017   7.141
 4860SOL     OW15031   3.705   3.619   5.918
 4860SOL    HW115032   3.771   3.591   5.981
 4860SOL    HW215033   3.725   3.710   5.899
 4861SOL     OW15034   1.894   3.453   5.709
 4861SOL    HW115035   1.873   3.363   5.731
 4861SOL    HW215036   1.873   3.503   5.788
 4862SOL     OW15037   3.552   2.782   6.231
 4862SOL    HW115038   3.633   2.736   6.208
 4862SOL    HW215039   3.529   2.831   6.153
 4863SOL     OW15040   3.509   2.966   6.016
 4863SOL    HW115041   3.595   2.969   5.974
 4863SOL    HW215042   3.515   3.029   6.088
 4864SOL     OW15043   1.985   2.603   7.170
 4864SOL    HW115044   2.074   2.627   7.194
 4864SOL    HW215045   1.933   2.682   7.185
 4865SOL     OW15046   2.477   3.259   6.320
 4865SOL    HW115047   2.424   3.180   6.329
 4865SOL    HW215048   2.464   3.286   6.229
 4866SOL     OW15049   3.149   3.099   7.008
 4866SOL    HW115050   3.180   3.031   6.948
 4866SOL    HW215051   3.208   3.093   7.083
 4867SOL     OW15052   2.050   2.827   6.859
 4867SOL    HW115053   2.135   2.788   6.837
 4867SOL    HW215054   1.987   2.782   6.803
 4868SOL     OW15055   3.397   2.858   5.784
 4868SOL    HW115056   3.329   2.797   5.814
 4868SOL    HW215057   3.436   2.892   5.865
 4869SOL     OW15058   3.046   3.672   7.210
 4869SOL    HW115059   3.054   3.732   7.136
 4869SOL    HW215060   3.064   3.585   7.173
 4870SOL     OW15061   3.329   3.282   6.535
 4870SOL    HW115062   3.262   3.297   6.601
 4870SOL    HW215063   3.317   3.191   6.509
 4871SOL     OW15064   3.518   3.608   6.163
 4871SOL    HW115065   3.499   3.577   6.075
 4871SOL    HW215066   3.496   3.534   6.220
 4872SOL     OW15067   3.140   2.223   6.525
 4872SOL    HW115068   3.050   2.191   6.537
 4872SOL    HW215069   3.193   2.167   6.582
 4873SOL     OW15070   3.441   3.534   5.896
 4873SOL    HW115071   3.532   3.562   5.888
 4873SOL    HW215072   3.413   3.517   5.806
 4874SOL     OW15073   2.643   2.461   7.029
 4874SOL    HW115074   2.631   2.454   7.124
 4874SOL    HW215075   2.591   2.388   6.994
 4875SOL     OW15076   3.255   2.336   7.264
 4875SOL    HW115077   3.259   2.380   7.349
 4875SOL    HW215078   3.314   2.261   7.273
 4876SOL     OW15079   2.813   2.747   7.170
 4876SOL    HW115080   2.868   2.678   7.131
 4876SOL    HW215081   2.767   2.785   7.095
 4877SOL     OW15082   2.867   2.274   6.811
 4877SOL    HW115083   2.782   2.309   6.837
 4877SOL    HW215084   2.850   2.228   6.729
 4878SOL     OW15085   1.915   2.718   6.437
 4878SOL    HW115086   2.010   2.714   6.453
 4878SOL    HW215087   1.894   2.811   6.445
 4879SOL     OW15088   1.987   3.723   7.167
 4879SOL    HW115089   1.990   3.700   7.260
 4879SOL    HW215090   1.900   3.697   7.139
 4880SOL     OW15091   3.568   2.434   7.415
 4880SOL    HW115092   3.531   2.507   7.366
 4880SOL    HW215093   3.597   2.372   7.348
 4881SOL     OW15094   3.240   3.002   6.125
 4881SOL    HW115095   3.320   2.992   6.074
 4881SOL    HW215096   3.188   3.066   6.077
 4882SOL     OW15097   2.867   3.307   6.057
 4882SOL    HW115098   2.832   3.380   6.007
 4882SOL    HW215099   2.844   3.327   6.148
 4883SOL     OW15100   2.216   3.674   6.452
 4883SOL    HW115101   2.260   3.589   6.459
 4883SOL    HW215102   2.285   3.738   6.471
 4884SOL     OW15103   3.661   2.919   6.456
 4884SOL    HW115104   3.609   2.897   6.379
 4884SOL    HW215105   3.598   2.924   6.528
 4885SOL     OW15106   3.089   3.401   7.099
 4885SOL    HW115107   3.077   3.329   7.160
 4885SOL    HW215108   3.024   3.387   7.031
 4886SOL     OW15109   3.341   2.611   6.311
 4886SOL    HW115110   3.336   2.568   6.396
 4886SOL    HW215111   3.420   2.665   6.316
 4887SOL     OW15112   2.330   3.128   7.323
 4887SOL    HW115113   2.303   3.133   7.232
 4887SOL    HW215114   2.248   3.125   7.372
 4888SOL     OW15115   2.985   3.640   5.816
 4888SOL    HW115116   2.911   3.600   5.860
 4888SOL    HW215117   3.009   3.577   5.748
 4889SOL     OW15118   3.490   3.243   5.675
 4889SOL    HW115119   3.448   3.328   5.660
 4889SOL    HW215120   3.422   3.179   5.656
 4890SOL     OW15121   2.326   3.599   5.905
 4890SOL    HW115122   2.371   3.655   5.969
 4890SOL    HW215123   2.397   3.565   5.850
 4891SOL     OW15124   3.269   1.962   6.025
 4891SOL    HW115125   3.257   1.942   5.932
 4891SOL    HW215126   3.363   1.969   6.037
 4892SOL     OW15127   2.118   3.652   6.816
 4892SOL    HW115128   2.169   3.583   6.860
 4892SOL    HW215129   2.109   3.622   6.726
 4893SOL     OW15130   2.801   3.561   6.484
 4893SOL    HW115131   2.880   3.511   6.505
 4893SOL    HW215132   2.759   3.512   6.414
 4894SOL     OW15133   3.394   2.087   7.311
 4894SOL    HW115134   3.404   2.107   7.404
 4894SOL    HW215135   3.325   2.020   7.308
 4895SOL     OW15136   2.468   1.987   5.667
 4895SOL    HW115137   2.550   1.990   5.717
 4895SOL    HW215138   2.493   2.011   5.578
 4896SOL     OW15139   2.627   2.140   7.342
 4896SOL    HW115140   2.706   2.086   7.339
 4896SOL    HW215141   2.580   2.109   7.419
 4897SOL     OW15142   2.737   3.384   6.780
 4897SOL    HW115143   2.721   3.348   6.693
 4897SOL    HW215144   2.808   3.330   6.816
 4898SOL     OW15145   3.198   2.454   7.020
 4898SOL    HW115146   3.231   2.422   7.104
 4898SOL    HW215147   3.239   2.540   7.011
 4899SOL     OW15148   2.679   3.253   6.529
 4899SOL    HW115149   2.764   3.241   6.486
 4899SOL    HW215150   2.616   3.259   6.457
 4900SOL     OW15151   3.291   3.061   5.627
 4900SOL    HW115152   3.321   2.984   5.675
 4900SOL    HW215153   3.202   3.076   5.660
 4901SOL     OW15154   2.938   2.541   7.041
 4901SOL    HW115155   2.880   2.466   7.050
 4901SOL    HW215156   3.026   2.503   7.036
 4902SOL     OW15157   3.082   3.434   6.381
 4902SOL    HW115158   3.098   3.499   6.312
 4902SOL    HW215159   3.153   3.449   6.444
 4903SOL     OW15160   2.315   3.037   6.323
 4903SOL    HW115161   2.244   3.014   6.383
 4903SOL    HW215162   2.314   2.966   6.258
 4904SOL     OW15163   3.129   3.655   6.197
 4904SOL    HW115164   3.176   3.716   6.140
 4904SOL    HW215165   3.061   3.708   6.238
 4905SOL     OW15166   2.916   2.433   5.562
 4905SOL    HW115167   2.858   2.509   5.566
 4905SOL    HW215168   2.941   2.416   5.652
 4906SOL     OW15169   1.948   2.427   6.969
 4906SOL    HW115170   2.029   2.387   6.998
 4906SOL    HW215171   1.932   2.498   7.032
 4907SOL     OW15172   2.431   1.994   6.698
 4907SOL    HW115173   2.458   1.971   6.787
 4907SOL    HW215174   2.358   2.055   6.710
 4908SOL     OW15175   2.920   1.899   6.343
 4908SOL    HW115176   2.858   1.907   6.270
 4908SOL    HW215177   2.884   1.829   6.397
 4909SOL     OW15178   3.301   3.024   6.443
 4909SOL    HW115179   3.229   2.961   6.442
 4909SOL    HW215180   3.326   3.032   6.351
 4910SOL     OW15181   3.328   2.471   6.558
 4910SOL    HW115182   3.274   2.392   6.560
 4910SOL    HW215183   3.386   2.462   6.634
 4911SOL     OW15184   3.706   2.675   5.970
 4911SOL    HW115185   3.763   2.625   6.028
 4911SOL    HW215186   3.678   2.613   5.903
 4912SOL     OW15187   2.354   3.282   5.741
 4912SOL    HW115188   2.275   3.255   5.788
 4912SOL    HW215189   2.352   3.230   5.660
 4913SOL     OW15190   3.535   3.126   6.230
 4913SOL    HW115191   3.630   3.127   6.244
 4913SOL    HW215192   3.507   3.215   6.251
 4914SOL     OW15193   3.260   2.434   5.649
 4914SOL    HW115194   3.194   2.417   5.717
 4914SOL    HW215195   3.341   2.399   5.686
 4915SOL     OW15196   3.612   3.103   7.154
 4915SOL    HW115197   3.699   3.064   7.150
 4915SOL    HW215198   3.628   3.193   7.183
 4916SOL     OW15199   2.919   3.216   6.919
 4916SOL    HW115200   2.844   3.185   6.969
 4916SOL    HW215201   2.994   3.174   6.960
 4917SOL     OW15202   3.471   3.489   7.242
 4917SOL    HW115203   3.463   3.522   7.153
 4917SOL    HW215204   3.553   3.440   7.243
 4918SOL     OW15205   2.994   3.069   6.689
 4918SOL    HW115206   2.934   3.107   6.753
 4918SOL    HW215207   2.964   3.102   6.605
 4919SOL     OW15208   3.486   2.958   6.663
 4919SOL    HW115209   3.481   3.021   6.735
 4919SOL    HW215210   3.409   2.977   6.609
 4920SOL     OW15211   2.787   1.955   6.981
 4920SOL    HW115212   2.808   1.935   6.890
 4920SOL    HW215213   2.866   1.995   7.016
 4921SOL     OW15214   2.846   2.977   7.308
 4921SOL    HW115215   2.755   2.993   7.331
 4921SOL    HW215216   2.843   2.898   7.253
 4922SOL     OW15217   2.282   2.669   6.850
 4922SOL    HW115218   2.357   2.688   6.907
 4922SOL    HW215219   2.233   2.602   6.897
 4923SOL     OW15220   3.132   2.236   6.867
 4923SOL    HW115221   3.162   2.316   6.911
 4923SOL    HW215222   3.043   2.256   6.839
 4924SOL     OW15223   1.935   3.436   6.942
 4924SOL    HW115224   1.906   3.508   6.885
 4924SOL    HW215225   2.030   3.436   6.934
 4925SOL     OW15226   3.111   3.210   5.978
 4925SOL    HW115227   3.167   3.282   6.008
 4925SOL    HW215228   3.024   3.232   6.010
 4926SOL     OW15229   3.147   3.321   6.734
 4926SOL    HW115230   3.203   3.325   6.811
 4926SOL    HW215231   3.092   3.244   6.747
 4927SOL     OW15232   3.442   2.483   6.069
 4927SOL    HW115233   3.392   2.534   6.133
 4927SOL    HW215234   3.482   2.548   6.012
 4928SOL     OW15235   2.208   3.392   6.898
 4928SOL    HW115236   2.196   3.347   6.814
 4928SOL    HW215237   2.302   3.403   6.907
 4929SOL     OW15238   2.281   2.620   7.186
 4929SOL    HW115239   2.347   2.664   7.132
 4929SOL    HW215240   2.321   2.535   7.208
 4930SOL     OW15241   3.467   2.642   7.270
 4930SOL    HW115242   3.381   2.684   7.264
 4930SOL    HW215243   3.519   2.684   7.202
 4931SOL     OW15244   2.857   1.991   7.337
 4931SOL    HW115245   2.917   2.063   7.315
 4931SOL    HW215246   2.905   1.912   7.313
 4932SOL     OW15247   2.352   1.903   7.336
 4932SOL    HW115248   2.312   1.844   7.272
 4932SOL    HW215249   2.295   1.981   7.335
 4933SOL     OW15250   2.454   2.731   6.632
 4933SOL    HW115251   2.486   2.821   6.624
 4933SOL    HW215252   2.394   2.734   6.706
 4934SOL     OW15253   3.215   2.720   6.612
 4934SOL    HW115254   3.132   2.707   6.566
 4934SOL    HW215255   3.260   2.636   6.604
 4935SOL     OW15256   3.084   2.398   5.851
 4935SOL    HW115257   3.095   2.319   5.903
 4935SOL    HW215258   3.068   2.468   5.915
 4936SOL     OW15259   1.911   3.173   6.862
 4936SOL    HW115260   1.941   3.117   6.934
 4936SOL    HW215261   1.914   3.262   6.898
 4937SOL     OW15262   2.619   2.510   6.644
 4937SOL    HW115263   2.602   2.467   6.560
 4937SOL    HW215264   2.564   2.588   6.643
 4938SOL     OW15265   3.599   2.821   7.441
 4938SOL    HW115266   3.554   2.756   7.387
 4938SOL    HW215267   3.539   2.837   7.514
 4939SOL     OW15268   3.485   2.239   5.950
 4939SOL    HW115269   3.510   2.174   6.015
 4939SOL    HW215270   3.459   2.316   6.001
 4940SOL     OW15271   2.893   2.617   6.553
 4940SOL    HW115272   2.894   2.651   6.642
 4940SOL    HW215273   2.842   2.536   6.559
 4941SOL     OW15274   2.843   3.428   7.306
 4941SOL    HW115275   2.828   3.472   7.222
 4941SOL    HW215276   2.887   3.347   7.282
 4942SOL     OW15277   3.715   3.365   7.191
 4942SOL    HW115278   3.735   3.392   7.101
 4942SOL    HW215279   3.796   3.381   7.239
 4943SOL     OW15280   2.219   2.786   7.396
 4943SOL    HW115281   2.301   2.801   7.443
 4943SOL    HW215282   2.242   2.727   7.325
 4944SOL     OW15283   3.393   2.134   5.713
 4944SOL    HW115284   3.326   2.072   5.740
 4944SOL    HW215285   3.425   2.172   5.795
 4945SOL     OW15286   3.154   2.689   5.618
 4945SOL    HW115287   3.189   2.600   5.616
 4945SOL    HW215288   3.181   2.727   5.535
 4946SOL     OW15289   2.930   3.199   6.443
 4946SOL    HW115290   2.934   3.126   6.380
 4946SOL    HW215291   2.989   3.265   6.406
 4947SOL     OW15292   2.168   2.706   6.570
 4947SOL    HW115293   2.258   2.713   6.539
 4947SOL    HW215294   2.167   2.625   6.621
 4948SOL     OW15295   2.995   2.238   7.269
 4948SOL    HW115296   2.948   2.292   7.333
 4948SOL    HW215297   3.083   2.276   7.266
 4949SOL     OW15298   3.025   2.063   7.057
 4949SOL    HW115299   3.013   2.126   7.128
 4949SOL    HW215300   3.068   2.113   6.988
 4950SOL     OW15301   1.853   3.160   5.790
 4950SOL    HW115302   1.772   3.193   5.751
 4950SOL    HW215303   1.858   3.069   5.761
 4951SOL     OW15304   1.952   3.645   6.526
 4951SOL    HW115305   1.922   3.567   6.480
 4951SOL    HW215306   2.041   3.659   6.494
 4952SOL     OW15307   2.355   3.438   6.492
 4952SOL    HW115308   2.424   3.500   6.517
 4952SOL    HW215309   2.399   3.377   6.433
 4953SOL     OW15310   2.841   2.665   6.814
 4953SOL    HW115311   2.890   2.633   6.891
 4953SOL    HW215312   2.762   2.612   6.812
 4954SOL     OW15313   1.909   2.410   6.700
 4954SOL    HW115314   1.959   2.332   6.674
 4954SOL    HW215315   1.927   2.420   6.793
 4955SOL     OW15316   3.241   2.798   7.243
 4955SOL    HW115317   3.262   2.891   7.240
 4955SOL    HW215318   3.238   2.771   7.151
 4956SOL     OW15319   3.503   2.463   6.769
 4956SOL    HW115320   3.494   2.404   6.844
 4956SOL    HW215321   3.590   2.444   6.735
 4957SOL     OW15322   2.103   3.412   7.311
 4957SOL    HW115323   2.081   3.476   7.378
 4957SOL    HW215324   2.107   3.329   7.358
 4958SOL     OW15325   2.786   3.541   7.056
 4958SOL    HW115326   2.762   3.503   6.971
 4958SOL    HW215327   2.781   3.636   7.042
 4959SOL     OW15328   2.006   3.003   7.061
 4959SOL    HW115329   2.006   2.953   7.143
 4959SOL    HW215330   2.022   2.937   6.993
 4960SOL     OW15331   3.185   2.907   6.807
 4960SOL    HW115332   3.207   2.843   6.740
 4960SOL    HW215333   3.117   2.961   6.768
 4961SOL     OW15334   3.178   2.715   5.889
 4961SOL    HW115335   3.095   2.742   5.927
 4961SOL    HW215336   3.159   2.702   5.796
 4962SOL     OW15337   3.640   3.602   6.741
 4962SOL    HW115338   3.699   3.628   6.670
 4962SOL    HW215339   3.613   3.513   6.717
 4963SOL     OW15340   3.102   3.595   6.696
 4963SOL    HW115341   3.185   3.618   6.652
 4963SOL    HW215342   3.110   3.502   6.714
 4964SOL     OW15343   1.955   3.137   6.599
 4964SOL    HW115344   1.934   3.146   6.693
 4964SOL    HW215345   1.881   3.088   6.563
 4965SOL     OW15346   2.540   3.531   7.320
 4965SOL    HW115347   2.483   3.607   7.313
 4965SOL    HW215348   2.607   3.544   7.254
 4966SOL     OW15349   3.583   2.012   6.093
 4966SOL    HW115350   3.654   1.997   6.032
 4966SOL    HW215351   3.567   1.927   6.134
 4967SOL     OW15352   3.254   3.430   6.075
 4967SOL    HW115353   3.313   3.463   6.006
 4967SOL    HW215354   3.204   3.506   6.102
 4968SOL     OW15355   2.001   3.657   7.428
 4968SOL    HW115356   1.950   3.591   7.476
 4968SOL    HW215357   2.047   3.706   7.497
 4969SOL     OW15358   3.135   2.785   6.250
 4969SOL    HW115359   3.208   2.725   6.263
 4969SOL    HW215360   3.171   2.858   6.200
 4970SOL     OW15361   2.672   3.139   7.013
 4970SOL    HW115362   2.644   3.178   7.095
 4970SOL    HW215363   2.602   3.160   6.951
 4971SOL     OW15364   2.531   3.487   5.742
 4971SOL    HW115365   2.544   3.501   5.649
 4971SOL    HW215366   2.477   3.409   5.748
 4972SOL     OW15367   3.484   3.589   6.977
 4972SOL    HW115368   3.536   3.595   6.897
 4972SOL    HW215369   3.470   3.680   7.003
 4973SOL     OW15370   3.704   2.033   6.553
 4973SOL    HW115371   3.734   1.946   6.527
 4973SOL    HW215372   3.618   2.043   6.513
 4974SOL     OW15373   3.070   3.466   5.619
 4974SOL    HW115374   3.058   3.375   5.646
 4974SOL    HW215375   3.005   3.478   5.550
 4975SOL     OW15376   2.686   2.870   6.962
 4975SOL    HW115377   2.734   2.860   6.879
 4975SOL    HW215378   2.686   2.965   6.977
 4976SOL     OW15379   3.352   3.490   5.630
 4976SOL    HW115380   3.257   3.480   5.615
 4976SOL    HW215381   3.389   3.495   5.542
 4977SOL     OW15382   2.231   3.165   7.077
 4977SOL    HW115383   2.216   3.242   7.022
 4977SOL    HW215384   2.153   3.111   7.063
 4978SOL     OW15385   3.471   3.145   6.866
 4978SOL    HW115386   3.530   3.131   6.940
 4978SOL    HW215387   3.411   3.213   6.896
 4979SOL     OW15388   2.922   2.969   6.299
 4979SOL    HW115389   2.848   2.919   6.333
 4979SOL    HW215390   2.984   2.902   6.269
 4980SOL     OW15391   2.895   2.094   6.566
 4980SOL    HW115392   2.900   2.052   6.480
 4980SOL    HW215393   2.884   2.022   6.628
 4981SOL     OW15394   2.468   3.357   6.066
 4981SOL    HW115395   2.517   3.305   6.002
 4981SOL    HW215396   2.394   3.391   6.016
 4982SOL     OW15397   3.586   2.254   6.967
 4982SOL    HW115398   3.658   2.317   6.966
 4982SOL    HW215399   3.616   2.183   6.910
 4983SOL     OW15400   2.111   3.214   5.862
 4983SOL    HW115401   2.017   3.204   5.852
 4983SOL    HW215402   2.123   3.241   5.953
 4984SOL     OW15403   1.975   2.889   7.309
 4984SOL    HW115404   1.898   2.864   7.360
 4984SOL    HW215405   2.049   2.850   7.356
 4985SOL     OW15406   2.547   2.049   7.079
 4985SOL    HW115407   2.634   2.024   7.046
 4985SOL    HW215408   2.564   2.088   7.165
 4986SOL     OW15409   1.882   2.184   5.572
 4986SOL    HW115410   1.805   2.203   5.626
 4986SOL    HW215411   1.921   2.270   5.555
 4987SOL     OW15412   3.290   2.720   6.985
 4987SOL    HW115413   3.240   2.781   6.930
 4987SOL    HW215414   3.378   2.722   6.949
 4988SOL     OW15415   3.040   3.201   5.704
 4988SOL    HW115416   2.960   3.149   5.704
 4988SOL    HW215417   3.069   3.200   5.795
 4989SOL     OW15418   2.489   2.692   7.020
 4989SOL    HW115419   2.546   2.768   7.006
 4989SOL    HW215420   2.549   2.618   7.024
 4990SOL     OW15421   3.344   3.643   6.567
 4990SOL    HW115422   3.366   3.706   6.498
 4990SOL    HW215423   3.429   3.619   6.605
 4991SOL     OW15424   2.584   2.426   7.289
 4991SOL    HW115425   2.627   2.489   7.348
 4991SOL    HW215426   2.609   2.340   7.325
 4992SOL     OW15427   3.335   3.059   7.216
 4992SOL    HW115428   3.323   3.073   7.310
 4992SOL    HW215429   3.428   3.076   7.201
 4993SOL     OW15430   2.237   3.602   7.151
 4993SOL    HW115431   2.153   3.646   7.136
 4993SOL    HW215432   2.213   3.519   7.193
 4994SOL     OW15433   3.528   2.742   6.841
 4994SOL    HW115434   3.524   2.657   6.798
 4994SOL    HW215435   3.519   2.805   6.770
 4995SOL     OW15436   3.126   2.201   6.037
 4995SOL    HW115437   3.172   2.118   6.039
 4995SOL    HW215438   3.143   2.241   6.122
 4996SOL     OW15439   3.621   2.225   7.238
 4996SOL    HW115440   3.606   2.241   7.145
 4996SOL    HW215441   3.549   2.168   7.265
 4997SOL     OW15442   3.609   2.795   7.098
 4997SOL    HW115443   3.601   2.890   7.110
 4997SOL    HW215444   3.593   2.782   7.004
 4998SOL     OW15445   2.712   3.237   5.621
 4998SOL    HW115446   2.687   3.271   5.707
 4998SOL    HW215447   2.743   3.314   5.573
 4999SOL     OW15448   2.524   3.650   6.528
 4999SOL    HW115449   2.506   3.741   6.506
 4999SOL    HW215450   2.619   3.642   6.521
 5000SOL     OW15451   2.733   2.827   6.446
 5000SOL    HW115452   2.780   2.752   6.484
 5000SOL    HW215453   2.697   2.873   6.522
 5001SOL     OW15454   2.967   2.885   5.684
 5001SOL    HW115455   2.920   2.911   5.605
 5001SOL    HW215456   3.018   2.808   5.658
 5002SOL     OW15457   3.713   3.417   6.429
 5002SOL    HW115458   3.635   3.404   6.376
 5002SOL    HW215459   3.708   3.348   6.496
 5003SOL     OW15460   2.087   3.163   7.440
 5003SOL    HW115461   2.023   3.099   7.407
 5003SOL    HW215462   2.062   3.176   7.532
 5004SOL     OW15463   1.940   3.099   6.253
 5004SOL    HW115464   1.927   3.051   6.335
 5004SOL    HW215465   2.028   3.074   6.225
 5005SOL     OW15466   2.544   3.268   7.215
 5005SOL    HW115467   2.465   3.225   7.248
 5005SOL    HW215468   2.541   3.356   7.253
 5006SOL     OW15469   3.673   2.044   6.824
 5006SOL    HW115470   3.682   1.950   6.836
 5006SOL    HW215471   3.684   2.057   6.729
 5007SOL     OW15472   3.559   3.350   6.681
 5007SOL    HW115473   3.480   3.329   6.631
 5007SOL    HW215474   3.567   3.280   6.745
 5008SOL     OW15475   2.693   3.441   6.263
 5008SOL    HW115476   2.673   3.497   6.188
 5008SOL    HW215477   2.619   3.381   6.269
 5009SOL     OW15478   3.295   2.088   6.703
 5009SOL    HW115479   3.316   2.006   6.748
 5009SOL    HW215480   3.244   2.137   6.768
 5010SOL     OW15481   2.870   1.871   6.729
 5010SOL    HW115482   2.817   1.803   6.687
 5010SOL    HW215483   2.959   1.835   6.729
 5011SOL     OW15484   2.634   3.205   5.905
 5011SOL    HW115485   2.612   3.116   5.879
 5011SOL    HW215486   2.716   3.197   5.954
 5012SOL     OW15487   2.482   3.417   6.872
 5012SOL    HW115488   2.483   3.499   6.921
 5012SOL    HW215489   2.570   3.410   6.835
 5013SOL     OW15490   3.220   1.917   5.755
 5013SOL    HW115491   3.249   1.852   5.691
 5013SOL    HW215492   3.132   1.889   5.780
 5014SOL     OW15493   3.167   2.328   6.275
 5014SOL    HW115494   3.111   2.405   6.279
 5014SOL    HW215495   3.157   2.287   6.361
 5015SOL     OW15496   3.448   2.060   6.466
 5015SOL    HW115497   3.390   2.083   6.539
 5015SOL    HW215498   3.448   2.138   6.410
 5016SOL     OW15499   2.749   3.520   5.927
 5016SOL    HW115500   2.675   3.502   5.869
 5016SOL    HW215501   2.721   3.593   5.981
 5017SOL     OW15502   2.062   2.533   7.576
 5017SOL    HW115503   1.979   2.509   7.616
 5017SOL    HW215504   2.065   2.483   7.494
 5018SOL     OW15505   1.859   2.251   8.078
 5018SOL    HW115506   1.777   2.270   8.124
 5018SOL    HW215507   1.844   2.164   8.039
 5019SOL     OW15508   2.429   3.155   8.627
 5019SOL    HW115509   2.342   3.159   8.587
 5019SOL    HW215510   2.445   3.243   8.660
 5020SOL     OW15511   3.428   3.375   8.156
 5020SOL    HW115512   3.385   3.353   8.239
 5020SOL    HW215513   3.357   3.378   8.092
 5021SOL     OW15514   2.993   2.559   8.146
 5021SOL    HW115515   3.041   2.641   8.132
 5021SOL    HW215516   2.948   2.572   8.230
 5022SOL     OW15517   3.634   2.464   7.675
 5022SOL    HW115518   3.610   2.458   7.582
 5022SOL    HW215519   3.595   2.386   7.715
 5023SOL     OW15520   2.611   3.001   8.491
 5023SOL    HW115521   2.544   3.037   8.549
 5023SOL    HW215522   2.649   3.077   8.448
 5024SOL     OW15523   2.731   2.631   9.271
 5024SOL    HW115524   2.723   2.701   9.336
 5024SOL    HW215525   2.755   2.676   9.190
 5025SOL     OW15526   2.548   2.862   8.094
 5025SOL    HW115527   2.614   2.852   8.163
 5025SOL    HW215528   2.480   2.916   8.133
 5026SOL     OW15529   2.575   3.013   9.262
 5026SOL    HW115530   2.622   3.091   9.291
 5026SOL    HW215531   2.493   3.047   9.225
 5027SOL     OW15532   2.193   3.283   8.515
 5027SOL    HW115533   2.119   3.244   8.468
 5027SOL    HW215534   2.240   3.334   8.449
 5028SOL     OW15535   3.322   3.363   8.806
 5028SOL    HW115536   3.375   3.442   8.815
 5028SOL    HW215537   3.255   3.371   8.875
 5029SOL     OW15538   3.471   2.307   8.190
 5029SOL    HW115539   3.397   2.328   8.133
 5029SOL    HW215540   3.481   2.385   8.246
 5030SOL     OW15541   2.081   3.577   7.918
 5030SOL    HW115542   2.102   3.653   7.973
 5030SOL    HW215543   2.155   3.569   7.858
 5031SOL     OW15544   2.999   3.204   9.142
 5031SOL    HW115545   3.040   3.198   9.228
 5031SOL    HW215546   2.947   3.124   9.134
 5032SOL     OW15547   2.095   3.305   7.985
 5032SOL    HW115548   2.075   3.398   7.987
 5032SOL    HW215549   2.035   3.267   8.049
 5033SOL     OW15550   2.125   2.957   8.339
 5033SOL    HW115551   2.119   2.869   8.375
 5033SOL    HW215552   2.065   3.009   8.392
 5034SOL     OW15553   2.469   3.653   8.876
 5034SOL    HW115554   2.388   3.635   8.923
 5034SOL    HW215555   2.493   3.742   8.902
 5035SOL     OW15556   2.446   2.843   7.580
 5035SOL    HW115557   2.494   2.893   7.514
 5035SOL    HW215558   2.483   2.874   7.664
 5036SOL     OW15559   3.457   1.988   8.914
 5036SOL    HW115560   3.474   2.068   8.866
 5036SOL    HW215561   3.440   2.016   9.004
 5037SOL     OW15562   1.967   2.505   8.010
 5037SOL    HW115563   1.939   2.417   8.034
 5037SOL    HW215564   1.965   2.554   8.092
 5038SOL     OW15565   3.705   3.619   7.780
 5038SOL    HW115566   3.771   3.591   7.843
 5038SOL    HW215567   3.725   3.710   7.761
 5039SOL     OW15568   1.898   3.454   7.570
 5039SOL    HW115569   1.878   3.363   7.590
 5039SOL    HW215570   1.873   3.502   7.649
 5040SOL     OW15571   3.551   2.781   8.092
 5040SOL    HW115572   3.634   2.738   8.071
 5040SOL    HW215573   3.529   2.831   8.014
 5041SOL     OW15574   3.510   2.967   7.877
 5041SOL    HW115575   3.596   2.970   7.836
 5041SOL    HW215576   3.516   3.029   7.949
 5042SOL     OW15577   1.988   2.598   9.024
 5042SOL    HW115578   2.075   2.628   9.051
 5042SOL    HW215579   1.931   2.674   9.039
 5043SOL     OW15580   2.477   3.251   8.183
 5043SOL    HW115581   2.432   3.167   8.192
 5043SOL    HW215582   2.461   3.278   8.093
 5044SOL     OW15583   3.149   3.099   8.870
 5044SOL    HW115584   3.180   3.031   8.810
 5044SOL    HW215585   3.208   3.093   8.945
 5045SOL     OW15586   2.678   1.865   7.957
 5045SOL    HW115587   2.720   1.949   7.935
 5045SOL    HW215588   2.585   1.886   7.963
 5046SOL     OW15589   2.050   2.829   8.722
 5046SOL    HW115590   2.134   2.787   8.703
 5046SOL    HW215591   1.987   2.776   8.672
 5047SOL     OW15592   3.393   2.858   7.648
 5047SOL    HW115593   3.324   2.801   7.680
 5047SOL    HW215594   3.435   2.892   7.727
 5048SOL     OW15595   3.046   3.672   9.072
 5048SOL    HW115596   3.054   3.732   8.998
 5048SOL    HW215597   3.064   3.585   9.035
 5049SOL     OW15598   3.329   3.281   8.397
 5049SOL    HW115599   3.262   3.297   8.463
 5049SOL    HW215600   3.316   3.190   8.371
 5050SOL     OW15601   3.518   3.608   8.026
 5050SOL    HW115602   3.499   3.577   7.937
 5050SOL    HW215603   3.496   3.534   8.082
 5051SOL     OW15604   2.471   2.582   7.706
 5051SOL    HW115605   2.473   2.662   7.654
 5051SOL    HW215606   2.388   2.585   7.752
 5052SOL     OW15607   3.140   2.220   8.381
 5052SOL    HW115608   3.051   2.186   8.390
 5052SOL    HW215609   3.193   2.166   8.440
 5053SOL     OW15610   3.441   3.534   7.758
 5053SOL    HW115611   3.532   3.562   7.750
 5053SOL    HW215612   3.414   3.517   7.668
 5054SOL     OW15613   2.648   2.462   8.888
 5054SOL    HW115614   2.633   2.453   8.982
 5054SOL    HW215615   2.600   2.389   8.850
 5055SOL     OW15616   3.255   2.336   9.126
 5055SOL    HW115617   3.259   2.380   9.211
 5055SOL    HW215618   3.314   2.261   9.136
 5056SOL     OW15619   2.813   2.746   9.032
 5056SOL    HW115620   2.868   2.679   8.993
 5056SOL    HW215621   2.766   2.784   8.957
 5057SOL     OW15622   2.864   2.274   8.681
 5057SOL    HW115623   2.787   2.323   8.709
 5057SOL    HW215624   2.839   2.234   8.598
 5058SOL     OW15625   2.913   2.560   7.873
 5058SOL    HW115626   2.930   2.554   7.967
 5058SOL    HW215627   2.830   2.515   7.860
 5059SOL     OW15628   1.951   2.683   8.224
 5059SOL    HW115629   2.032   2.679   8.274
 5059SOL    HW215630   1.905   2.759   8.258
 5060SOL     OW15631   1.987   3.723   9.029
 5060SOL    HW115632   1.990   3.700   9.122
 5060SOL    HW215633   1.900   3.697   9.001
 5061SOL     OW15634   2.761   2.211   7.643
 5061SOL    HW115635   2.800   2.274   7.583
 5061SOL    HW215636   2.767   2.127   7.598
 5062SOL     OW15637   3.568   2.434   9.277
 5062SOL    HW115638   3.531   2.507   9.228
 5062SOL    HW215639   3.597   2.372   9.210
 5063SOL     OW15640   3.241   3.004   7.988
 5063SOL    HW115641   3.320   2.992   7.936
 5063SOL    HW215642   3.188   3.066   7.939
 5064SOL     OW15643   2.864   3.305   7.918
 5064SOL    HW115644   2.831   3.380   7.868
 5064SOL    HW215645   2.843   3.326   8.009
 5065SOL     OW15646   2.216   3.673   8.314
 5065SOL    HW115647   2.260   3.588   8.321
 5065SOL    HW215648   2.285   3.737   8.333
 5066SOL     OW15649   3.661   2.919   8.318
 5066SOL    HW115650   3.608   2.898   8.241
 5066SOL    HW215651   3.598   2.924   8.390
 5067SOL     OW15652   3.089   3.401   8.961
 5067SOL    HW115653   3.077   3.329   9.022
 5067SOL    HW215654   3.024   3.386   8.893
 5068SOL     OW15655   2.182   2.807   7.704
 5068SOL    HW115656   2.260   2.827   7.651
 5068SOL    HW215657   2.142   2.732   7.660
 5069SOL     OW15658   3.343   2.608   8.172
 5069SOL    HW115659   3.337   2.567   8.259
 5069SOL    HW215660   3.420   2.663   8.177
 5070SOL     OW15661   2.330   3.128   9.185
 5070SOL    HW115662   2.303   3.133   9.094
 5070SOL    HW215663   2.248   3.125   9.234
 5071SOL     OW15664   2.985   3.640   7.678
 5071SOL    HW115665   2.910   3.600   7.722
 5071SOL    HW215666   3.009   3.577   7.610
 5072SOL     OW15667   1.962   2.109   8.963
 5072SOL    HW115668   2.003   2.181   8.913
 5072SOL    HW215669   2.034   2.049   8.981
 5073SOL     OW15670   3.491   3.243   7.537
 5073SOL    HW115671   3.449   3.328   7.522
 5073SOL    HW215672   3.422   3.179   7.517
 5074SOL     OW15673   2.327   3.599   7.768
 5074SOL    HW115674   2.371   3.655   7.831
 5074SOL    HW215675   2.397   3.565   7.712
 5075SOL     OW15676   3.263   1.969   7.884
 5075SOL    HW115677   3.254   1.944   7.792
 5075SOL    HW215678   3.357   1.975   7.898
 5076SOL     OW15679   2.119   3.653   8.678
 5076SOL    HW115680   2.169   3.583   8.721
 5076SOL    HW215681   2.108   3.622   8.588
 5077SOL     OW15682   2.800   3.561   8.346
 5077SOL    HW115683   2.879   3.511   8.367
 5077SOL    HW215684   2.758   3.511   8.276
 5078SOL     OW15685   3.393   2.087   9.173
 5078SOL    HW115686   3.404   2.107   9.266
 5078SOL    HW215687   3.325   2.020   9.170
 5079SOL     OW15688   2.499   1.989   7.545
 5079SOL    HW115689   2.554   1.918   7.579
 5079SOL    HW215690   2.450   1.950   7.473
 5080SOL     OW15691   2.624   2.142   9.201
 5080SOL    HW115692   2.703   2.088   9.202
 5080SOL    HW215693   2.574   2.114   9.277
 5081SOL     OW15694   2.737   3.384   8.642
 5081SOL    HW115695   2.721   3.347   8.556
 5081SOL    HW215696   2.808   3.330   8.679
 5082SOL     OW15697   3.199   2.454   8.882
 5082SOL    HW115698   3.231   2.421   8.966
 5082SOL    HW215699   3.238   2.540   8.873
 5083SOL     OW15700   2.679   3.254   8.391
 5083SOL    HW115701   2.764   3.242   8.348
 5083SOL    HW215702   2.616   3.258   8.320
 5084SOL     OW15703   2.782   2.366   8.353
 5084SOL    HW115704   2.757   2.361   8.260
 5084SOL    HW215705   2.819   2.280   8.372
 5085SOL     OW15706   2.410   1.935   7.941
 5085SOL    HW115707   2.332   1.931   7.995
 5085SOL    HW215708   2.410   2.024   7.905
 5086SOL     OW15709   3.290   3.061   7.488
 5086SOL    HW115710   3.320   2.986   7.539
 5086SOL    HW215711   3.205   3.083   7.526
 5087SOL     OW15712   2.155   1.892   7.629
 5087SOL    HW115713   2.222   1.951   7.596
 5087SOL    HW215714   2.204   1.824   7.675
 5088SOL     OW15715   2.802   2.111   7.904
 5088SOL    HW115716   2.779   2.150   7.819
 5088SOL    HW215717   2.896   2.125   7.911
 5089SOL     OW15718   2.939   2.543   8.901
 5089SOL    HW115719   2.879   2.469   8.914
 5089SOL    HW215720   3.026   2.503   8.897
 5090SOL     OW15721   3.083   3.433   8.242
 5090SOL    HW115722   3.098   3.499   8.174
 5090SOL    HW215723   3.152   3.449   8.307
 5091SOL     OW15724   2.333   3.014   8.176
 5091SOL    HW115725   2.265   2.996   8.241
 5091SOL    HW215726   2.291   2.998   8.092
 5092SOL     OW15727   3.129   3.655   8.059
 5092SOL    HW115728   3.176   3.716   8.002
 5092SOL    HW215729   3.061   3.708   8.100
 5093SOL     OW15730   2.885   2.400   7.473
 5093SOL    HW115731   2.842   2.484   7.455
 5093SOL    HW215732   2.950   2.421   7.540
 5094SOL     OW15733   1.964   2.403   8.836
 5094SOL    HW115734   2.053   2.375   8.858
 5094SOL    HW215735   1.946   2.474   8.898
 5095SOL     OW15736   2.723   2.317   8.088
 5095SOL    HW115737   2.683   2.378   8.025
 5095SOL    HW215738   2.749   2.242   8.035
 5096SOL     OW15739   2.876   1.915   8.199
 5096SOL    HW115740   2.820   1.907   8.122
 5096SOL    HW215741   2.853   1.839   8.253
 5097SOL     OW15742   3.300   3.024   8.305
 5097SOL    HW115743   3.230   2.958   8.306
 5097SOL    HW215744   3.324   3.032   8.213
 5098SOL     OW15745   3.328   2.470   8.420
 5098SOL    HW115746   3.274   2.391   8.423
 5098SOL    HW215747   3.386   2.462   8.496
 5099SOL     OW15748   3.705   2.675   7.832
 5099SOL    HW115749   3.763   2.625   7.890
 5099SOL    HW215750   3.679   2.612   7.765
 5100SOL     OW15751   2.351   3.283   7.602
 5100SOL    HW115752   2.276   3.254   7.654
 5100SOL    HW215753   2.342   3.236   7.519
 5101SOL     OW15754   3.536   3.126   8.091
 5101SOL    HW115755   3.630   3.127   8.106
 5101SOL    HW215756   3.507   3.215   8.113
 5102SOL     OW15757   3.256   2.434   7.519
 5102SOL    HW115758   3.194   2.414   7.590
 5102SOL    HW215759   3.340   2.403   7.551
 5103SOL     OW15760   3.612   3.103   9.016
 5103SOL    HW115761   3.699   3.064   9.012
 5103SOL    HW215762   3.628   3.193   9.045
 5104SOL     OW15763   2.919   3.217   8.781
 5104SOL    HW115764   2.843   3.185   8.831
 5104SOL    HW215765   2.994   3.174   8.822
 5105SOL     OW15766   3.471   3.489   9.104
 5105SOL    HW115767   3.463   3.522   9.015
 5105SOL    HW215768   3.553   3.440   9.105
 5106SOL     OW15769   2.995   3.070   8.552
 5106SOL    HW115770   2.934   3.106   8.616
 5106SOL    HW215771   2.964   3.102   8.467
 5107SOL     OW15772   3.486   2.958   8.525
 5107SOL    HW115773   3.481   3.021   8.597
 5107SOL    HW215774   3.409   2.977   8.472
 5108SOL     OW15775   2.791   1.952   8.843
 5108SOL    HW115776   2.811   1.935   8.750
 5108SOL    HW215777   2.870   1.993   8.878
 5109SOL     OW15778   2.846   2.976   9.170
 5109SOL    HW115779   2.755   2.993   9.193
 5109SOL    HW215780   2.843   2.898   9.115
 5110SOL     OW15781   2.571   2.924   7.818
 5110SOL    HW115782   2.556   2.906   7.911
 5110SOL    HW215783   2.646   2.870   7.794
 5111SOL     OW15784   2.282   2.677   8.700
 5111SOL    HW115785   2.352   2.693   8.763
 5111SOL    HW215786   2.248   2.591   8.723
 5112SOL     OW15787   3.132   2.237   8.727
 5112SOL    HW115788   3.162   2.316   8.772
 5112SOL    HW215789   3.041   2.256   8.703
 5113SOL     OW15790   1.934   3.436   8.804
 5113SOL    HW115791   1.905   3.507   8.747
 5113SOL    HW215792   2.030   3.437   8.796
 5114SOL     OW15793   2.208   2.973   7.933
 5114SOL    HW115794   2.211   3.050   7.876
 5114SOL    HW215795   2.203   2.898   7.873
 5115SOL     OW15796   3.110   3.211   7.837
 5115SOL    HW115797   3.166   3.282   7.869
 5115SOL    HW215798   3.023   3.232   7.871
 5116SOL     OW15799   3.147   3.321   8.595
 5116SOL    HW115800   3.203   3.324   8.673
 5116SOL    HW215801   3.092   3.244   8.608
 5117SOL     OW15802   3.442   2.483   7.930
 5117SOL    HW115803   3.393   2.532   7.995
 5117SOL    HW215804   3.485   2.549   7.877
 5118SOL     OW15805   2.207   3.392   8.760
 5118SOL    HW115806   2.196   3.347   8.676
 5118SOL    HW215807   2.302   3.403   8.768
 5119SOL     OW15808   2.283   2.631   9.058
 5119SOL    HW115809   2.345   2.669   8.996
 5119SOL    HW215810   2.329   2.557   9.097
 5120SOL     OW15811   3.467   2.642   9.132
 5120SOL    HW115812   3.381   2.684   9.126
 5120SOL    HW215813   3.519   2.684   9.064
 5121SOL     OW15814   2.856   1.992   9.200
 5121SOL    HW115815   2.915   2.063   9.177
 5121SOL    HW215816   2.903   1.912   9.177
 5122SOL     OW15817   2.361   1.890   9.196
 5122SOL    HW115818   2.318   1.832   9.132
 5122SOL    HW215819   2.308   1.969   9.197
 5123SOL     OW15820   2.438   2.735   8.474
 5123SOL    HW115821   2.482   2.820   8.475
 5123SOL    HW215822   2.389   2.733   8.556
 5124SOL     OW15823   3.214   2.721   8.473
 5124SOL    HW115824   3.128   2.707   8.433
 5124SOL    HW215825   3.258   2.636   8.465
 5125SOL     OW15826   3.063   2.389   7.712
 5125SOL    HW115827   3.071   2.311   7.767
 5125SOL    HW215828   3.020   2.454   7.768
 5126SOL     OW15829   1.912   3.173   8.723
 5126SOL    HW115830   1.942   3.118   8.795
 5126SOL    HW215831   1.915   3.262   8.758
 5127SOL     OW15832   2.619   2.516   8.539
 5127SOL    HW115833   2.653   2.465   8.466
 5127SOL    HW215834   2.557   2.577   8.500
 5128SOL     OW15835   3.599   2.822   9.303
 5128SOL    HW115836   3.554   2.756   9.249
 5128SOL    HW215837   3.539   2.837   9.376
 5129SOL     OW15838   2.169   1.934   8.078
 5129SOL    HW115839   2.146   2.023   8.104
 5129SOL    HW215840   2.173   1.886   8.161
 5130SOL     OW15841   3.482   2.239   7.811
 5130SOL    HW115842   3.509   2.174   7.876
 5130SOL    HW215843   3.458   2.316   7.863
 5131SOL     OW15844   2.892   2.618   8.405
 5131SOL    HW115845   2.886   2.640   8.497
 5131SOL    HW215846   2.855   2.530   8.398
 5132SOL     OW15847   2.843   3.428   9.168
 5132SOL    HW115848   2.828   3.472   9.084
 5132SOL    HW215849   2.887   3.347   9.144
 5133SOL     OW15850   3.715   3.365   9.053
 5133SOL    HW115851   3.735   3.392   8.963
 5133SOL    HW215852   3.796   3.381   9.101
 5134SOL     OW15853   2.217   2.793   9.266
 5134SOL    HW115854   2.301   2.807   9.311
 5134SOL    HW215855   2.239   2.737   9.192
 5135SOL     OW15856   3.389   2.134   7.575
 5135SOL    HW115857   3.325   2.069   7.602
 5135SOL    HW215858   3.423   2.170   7.657
 5136SOL     OW15859   3.151   2.687   7.477
 5136SOL    HW115860   3.194   2.602   7.481
 5136SOL    HW215861   3.183   2.726   7.396
 5137SOL     OW15862   2.929   3.199   8.303
 5137SOL    HW115863   2.933   3.127   8.241
 5137SOL    HW215864   2.989   3.265   8.268
 5138SOL     OW15865   2.173   2.679   8.391
 5138SOL    HW115866   2.266   2.700   8.388
 5138SOL    HW215867   2.168   2.595   8.437
 5139SOL     OW15868   2.995   2.238   9.131
 5139SOL    HW115869   2.948   2.292   9.195
 5139SOL    HW215870   3.083   2.277   9.128
 5140SOL     OW15871   3.027   2.063   8.919
 5140SOL    HW115872   3.014   2.126   8.990
 5140SOL    HW215873   3.069   2.114   8.850
 5141SOL     OW15874   1.869   3.180   7.642
 5141SOL    HW115875   1.782   3.196   7.605
 5141SOL    HW215876   1.864   3.091   7.677
 5142SOL     OW15877   1.952   3.646   8.388
 5142SOL    HW115878   1.922   3.567   8.343
 5142SOL    HW215879   2.041   3.659   8.356
 5143SOL     OW15880   2.356   3.436   8.353
 5143SOL    HW115881   2.425   3.498   8.377
 5143SOL    HW215882   2.400   3.373   8.296
 5144SOL     OW15883   2.840   2.660   8.670
 5144SOL    HW115884   2.884   2.628   8.749
 5144SOL    HW215885   2.759   2.609   8.666
 5145SOL     OW15886   1.902   2.424   8.568
 5145SOL    HW115887   1.936   2.346   8.523
 5145SOL    HW215888   1.929   2.413   8.659
 5146SOL     OW15889   3.241   2.798   9.105
 5146SOL    HW115890   3.262   2.891   9.102
 5146SOL    HW215891   3.238   2.771   9.013
 5147SOL     OW15892   2.678   2.429   7.814
 5147SOL    HW115893   2.683   2.356   7.752
 5147SOL    HW215894   2.606   2.483   7.782
 5148SOL     OW15895   3.503   2.463   8.631
 5148SOL    HW115896   3.494   2.404   8.706
 5148SOL    HW215897   3.590   2.444   8.597
 5149SOL     OW15898   2.103   3.412   9.173
 5149SOL    HW115899   2.080   3.477   9.240
 5149SOL    HW215900   2.107   3.329   9.220
 5150SOL     OW15901   2.786   3.541   8.918
 5150SOL    HW115902   2.762   3.503   8.833
 5150SOL    HW215903   2.781   3.636   8.904
 5151SOL     OW15904   2.006   3.004   8.923
 5151SOL    HW115905   2.006   2.953   9.004
 5151SOL    HW215906   2.022   2.939   8.855
 5152SOL     OW15907   3.185   2.907   8.669
 5152SOL    HW115908   3.207   2.843   8.601
 5152SOL    HW215909   3.117   2.962   8.630
 5153SOL     OW15910   3.176   2.719   7.752
 5153SOL    HW115911   3.102   2.689   7.804
 5153SOL    HW215912   3.149   2.705   7.662
 5154SOL     OW15913   3.640   3.602   8.603
 5154SOL    HW115914   3.699   3.628   8.532
 5154SOL    HW215915   3.613   3.513   8.579
 5155SOL     OW15916   3.102   3.595   8.557
 5155SOL    HW115917   3.185   3.618   8.514
 5155SOL    HW215918   3.110   3.502   8.576
 5156SOL     OW15919   1.947   3.129   8.459
 5156SOL    HW115920   1.932   3.143   8.552
 5156SOL    HW215921   1.874   3.074   8.431
 5157SOL     OW15922   2.540   3.531   9.182
 5157SOL    HW115923   2.483   3.607   9.175
 5157SOL    HW215924   2.607   3.544   9.116
 5158SOL     OW15925   3.582   2.013   7.955
 5158SOL    HW115926   3.654   1.997   7.893
 5158SOL    HW215927   3.566   1.928   7.995
 5159SOL     OW15928   3.254   3.429   7.936
 5159SOL    HW115929   3.313   3.463   7.868
 5159SOL    HW215930   3.204   3.506   7.964
 5160SOL     OW15931   2.002   3.657   9.290
 5160SOL    HW115932   1.951   3.591   9.338
 5160SOL    HW215933   2.047   3.706   9.358
 5161SOL     OW15934   3.139   2.788   8.118
 5161SOL    HW115935   3.213   2.728   8.128
 5161SOL    HW215936   3.174   2.860   8.066
 5162SOL     OW15937   2.672   3.138   8.874
 5162SOL    HW115938   2.643   3.177   8.957
 5162SOL    HW215939   2.602   3.159   8.812
 5163SOL     OW15940   2.532   3.485   7.603
 5163SOL    HW115941   2.544   3.499   7.509
 5163SOL    HW215942   2.476   3.407   7.610
 5164SOL     OW15943   3.484   3.589   8.839
 5164SOL    HW115944   3.536   3.595   8.759
 5164SOL    HW215945   3.470   3.680   8.865
 5165SOL     OW15946   3.704   2.033   8.415
 5165SOL    HW115947   3.734   1.946   8.389
 5165SOL    HW215948   3.618   2.042   8.374
 5166SOL     OW15949   3.070   3.466   7.481
 5166SOL    HW115950   3.059   3.374   7.507
 5166SOL    HW215951   3.005   3.479   7.412
 5167SOL     OW15952   2.685   2.868   8.823
 5167SOL    HW115953   2.732   2.858   8.740
 5167SOL    HW215954   2.685   2.963   8.839
 5168SOL     OW15955   2.778   2.774   7.738
 5168SOL    HW115956   2.840   2.806   7.672
 5168SOL    HW215957   2.826   2.704   7.784
 5169SOL     OW15958   3.352   3.489   7.492
 5169SOL    HW115959   3.258   3.480   7.477
 5169SOL    HW215960   3.390   3.495   7.404
 5170SOL     OW15961   2.230   3.166   8.939
 5170SOL    HW115962   2.216   3.242   8.884
 5170SOL    HW215963   2.153   3.111   8.925
 5171SOL     OW15964   3.471   3.146   8.728
 5171SOL    HW115965   3.530   3.131   8.802
 5171SOL    HW215966   3.411   3.213   8.758
 5172SOL     OW15967   2.919   2.970   8.157
 5172SOL    HW115968   2.847   2.920   8.195
 5172SOL    HW215969   2.982   2.905   8.128
 5173SOL     OW15970   2.884   2.102   8.413
 5173SOL    HW115971   2.881   2.054   8.330
 5173SOL    HW215972   2.881   2.034   8.480
 5174SOL     OW15973   2.467   3.351   7.928
 5174SOL    HW115974   2.514   3.300   7.862
 5174SOL    HW215975   2.393   3.390   7.882
 5175SOL     OW15976   3.586   2.254   8.828
 5175SOL    HW115977   3.658   2.317   8.828
 5175SOL    HW215978   3.616   2.183   8.771
 5176SOL     OW15979   2.123   3.204   7.740
 5176SOL    HW115980   2.030   3.202   7.715
 5176SOL    HW215981   2.124   3.243   7.827
 5177SOL     OW15982   1.975   2.889   9.171
 5177SOL    HW115983   1.897   2.864   9.221
 5177SOL    HW215984   2.048   2.852   9.219
 5178SOL     OW15985   2.553   2.044   8.943
 5178SOL    HW115986   2.638   2.018   8.909
 5178SOL    HW215987   2.572   2.083   9.029
 5179SOL     OW15988   1.920   2.191   7.506
 5179SOL    HW115989   1.841   2.187   7.451
 5179SOL    HW215990   1.988   2.225   7.447
 5180SOL     OW15991   3.289   2.720   8.847
 5180SOL    HW115992   3.240   2.781   8.792
 5180SOL    HW215993   3.378   2.722   8.811
 5181SOL     OW15994   1.930   2.016   7.749
 5181SOL    HW115995   1.910   2.090   7.692
 5181SOL    HW215996   2.012   1.980   7.714
 5182SOL     OW15997   3.040   3.199   7.565
 5182SOL    HW115998   2.950   3.168   7.568
 5182SOL    HW215999   3.068   3.200   7.657
 5183SOL     OW16000   2.486   2.689   8.878
 5183SOL    HW116001   2.541   2.767   8.865
 5183SOL    HW216002   2.547   2.616   8.880
 5184SOL     OW16003   3.344   3.643   8.429
 5184SOL    HW116004   3.367   3.706   8.361
 5184SOL    HW216005   3.429   3.619   8.468
 5185SOL     OW16006   2.582   2.426   9.145
 5185SOL    HW116007   2.623   2.485   9.207
 5185SOL    HW216008   2.596   2.338   9.182
 5186SOL     OW16009   3.335   3.059   9.078
 5186SOL    HW116010   3.323   3.073   9.172
 5186SOL    HW216011   3.428   3.076   9.063
 5187SOL     OW16012   2.237   3.602   9.013
 5187SOL    HW116013   2.153   3.646   8.998
 5187SOL    HW216014   2.213   3.519   9.055
 5188SOL     OW16015   3.528   2.742   8.703
 5188SOL    HW116016   3.524   2.657   8.660
 5188SOL    HW216017   3.519   2.805   8.632
 5189SOL     OW16018   3.077   2.180   7.906
 5189SOL    HW116019   3.140   2.109   7.898
 5189SOL    HW216020   3.107   2.230   7.982
 5190SOL     OW16021   2.453   2.598   8.090
 5190SOL    HW116022   2.499   2.682   8.089
 5190SOL    HW216023   2.366   2.619   8.058
 5191SOL     OW16024   3.621   2.225   9.100
 5191SOL    HW116025   3.605   2.241   9.007
 5191SOL    HW216026   3.549   2.168   9.127
 5192SOL     OW16027   3.609   2.795   8.959
 5192SOL    HW116028   3.601   2.890   8.972
 5192SOL    HW216029   3.592   2.782   8.866
 5193SOL     OW16030   2.724   3.228   7.486
 5193SOL    HW116031   2.687   3.256   7.570
 5193SOL    HW216032   2.742   3.310   7.439
 5194SOL     OW16033   2.524   3.649   8.389
 5194SOL    HW116034   2.505   3.741   8.368
 5194SOL    HW216035   2.619   3.642   8.383
 5195SOL     OW16036   2.731   2.831   8.302
 5195SOL    HW116037   2.778   2.757   8.340
 5195SOL    HW216038   2.695   2.877   8.378
 5196SOL     OW16039   2.940   2.850   7.536
 5196SOL    HW116040   2.919   2.902   7.458
 5196SOL    HW216041   3.015   2.796   7.510
 5197SOL     OW16042   3.714   3.416   8.291
 5197SOL    HW116043   3.635   3.404   8.239
 5197SOL    HW216044   3.708   3.349   8.359
 5198SOL     OW16045   2.087   3.163   9.302
 5198SOL    HW116046   2.023   3.100   9.269
 5198SOL    HW216047   2.062   3.176   9.394
 5199SOL     OW16048   1.947   3.095   8.114
 5199SOL    HW116049   1.951   3.047   8.197
 5199SOL    HW216050   2.013   3.053   8.059
 5200SOL     OW16051   2.544   3.268   9.077
 5200SOL    HW116052   2.465   3.225   9.109
 5200SOL    HW216053   2.541   3.356   9.115
 5201SOL     OW16054   3.673   2.045   8.685
 5201SOL    HW116055   3.682   1.950   8.699
 5201SOL    HW216056   3.684   2.057   8.591
 5202SOL     OW16057   3.560   3.350   8.542
 5202SOL    HW116058   3.480   3.329   8.493
 5202SOL    HW216059   3.568   3.280   8.607
 5203SOL     OW16060   2.692   3.440   8.124
 5203SOL    HW116061   2.673   3.499   8.051
 5203SOL    HW216062   2.617   3.381   8.127
 5204SOL     OW16063   3.294   2.088   8.564
 5204SOL    HW116064   3.316   2.006   8.608
 5204SOL    HW216065   3.244   2.138   8.629
 5205SOL     OW16066   2.872   1.879   8.585
 5205SOL    HW116067   2.818   1.809   8.547
 5205SOL    HW216068   2.960   1.841   8.588
 5206SOL     OW16069   2.635   3.195   7.766
 5206SOL    HW116070   2.606   3.104   7.773
 5206SOL    HW216071   2.717   3.198   7.816
 5207SOL     OW16072   2.482   3.417   8.734
 5207SOL    HW116073   2.483   3.499   8.783
 5207SOL    HW216074   2.570   3.410   8.697
 5208SOL     OW16075   3.216   1.915   7.616
 5208SOL    HW116076   3.247   1.847   7.556
 5208SOL    HW216077   3.128   1.887   7.640
 5209SOL     OW16078   3.157   2.324   8.127
 5209SOL    HW116079   3.105   2.404   8.133
 5209SOL    HW216080   3.153   2.286   8.215
 5210SOL     OW16081   3.448   2.060   8.328
 5210SOL    HW116082   3.390   2.083   8.401
 5210SOL    HW216083   3.447   2.138   8.272
 5211SOL     OW16084   1.904   2.929   7.757
 5211SOL    HW116085   1.998   2.921   7.739
 5211SOL    HW216086   1.876   2.840   7.779
 5212SOL     OW16087   2.749   3.519   7.788
 5212SOL    HW116088   2.675   3.502   7.730
 5212SOL    HW216089   2.720   3.593   7.842
 5213SOL     OW16090   2.073   2.538   9.443
 5213SOL    HW116091   1.989   2.510   9.479
 5213SOL    HW216092   2.077   2.496   9.357
 5214SOL     OW16093   1.855   2.243   9.943
 5214SOL    HW116094   1.776   2.267   9.991
 5214SOL    HW216095   1.832   2.161   9.900
 5215SOL     OW16096   2.429   3.154  10.490
 5215SOL    HW116097   2.343   3.158  10.449
 5215SOL    HW216098   2.444   3.243  10.523
 5216SOL     OW16099   3.428   3.375  10.018
 5216SOL    HW116100   3.386   3.353  10.101
 5216SOL    HW216101   3.357   3.378   9.954
 5217SOL     OW16102   2.995   2.560  10.005
 5217SOL    HW116103   3.042   2.643   9.996
 5217SOL    HW216104   2.948   2.568  10.088
 5218SOL     OW16105   3.634   2.464   9.537
 5218SOL    HW116106   3.611   2.458   9.444
 5218SOL    HW216107   3.595   2.386   9.577
 5219SOL     OW16108   2.612   3.001  10.354
 5219SOL    HW116109   2.544   3.037  10.411
 5219SOL    HW216110   2.649   3.078  10.310
 5220SOL     OW16111   2.720   2.636   0.024
 5220SOL    HW116112   2.723   2.690   0.103
 5220SOL    HW216113   2.754   2.693  11.055
 5221SOL     OW16114   2.549   2.865   9.954
 5221SOL    HW116115   2.615   2.854  10.023
 5221SOL    HW216116   2.481   2.920   9.994
 5222SOL     OW16117   2.195   3.280  10.376
 5222SOL    HW116118   2.119   3.244  10.330
 5222SOL    HW216119   2.240   3.333  10.309
 5223SOL     OW16120   3.324   3.362  10.664
 5223SOL    HW116121   3.383   3.437  10.670
 5223SOL    HW216122   3.260   3.375  10.734
 5224SOL     OW16123   3.471   2.308  10.052
 5224SOL    HW116124   3.395   2.327   9.996
 5224SOL    HW216125   3.480   2.385  10.107
 5225SOL     OW16126   2.081   3.577   9.780
 5225SOL    HW116127   2.102   3.653   9.835
 5225SOL    HW216128   2.155   3.570   9.720
 5226SOL     OW16129   2.095   3.305   9.847
 5226SOL    HW116130   2.075   3.398   9.848
 5226SOL    HW216131   2.035   3.267   9.911
 5227SOL     OW16132   2.126   2.958  10.201
 5227SOL    HW116133   2.118   2.870  10.237
 5227SOL    HW216134   2.066   3.011  10.254
 5228SOL     OW16135   2.468   3.651  10.737
 5228SOL    HW116136   2.389   3.632  10.787
 5228SOL    HW216137   2.492   3.740  10.762
 5229SOL     OW16138   2.448   2.844   9.441
 5229SOL    HW116139   2.496   2.894   9.375
 5229SOL    HW216140   2.483   2.874   9.524
 5230SOL     OW16141   3.450   1.981  10.777
 5230SOL    HW116142   3.473   2.059  10.726
 5230SOL    HW216143   3.465   2.007  10.868
 5231SOL     OW16144   1.963   2.506   9.872
 5231SOL    HW116145   1.937   2.418   9.897
 5231SOL    HW216146   1.963   2.555   9.954
 5232SOL     OW16147   3.705   3.618   9.642
 5232SOL    HW116148   3.771   3.591   9.705
 5232SOL    HW216149   3.725   3.710   9.623
 5233SOL     OW16150   1.898   3.454   9.432
 5233SOL    HW116151   1.878   3.363   9.453
 5233SOL    HW216152   1.873   3.502   9.511
 5234SOL     OW16153   3.551   2.781   9.954
 5234SOL    HW116154   3.634   2.738   9.934
 5234SOL    HW216155   3.530   2.831   9.876
 5235SOL     OW16156   3.510   2.967   9.739
 5235SOL    HW116157   3.596   2.970   9.698
 5235SOL    HW216158   3.516   3.029   9.811
 5236SOL     OW16159   1.979   2.603  10.884
 5236SOL    HW116160   2.063   2.614  10.929
 5236SOL    HW216161   1.931   2.684  10.903
 5237SOL     OW16162   2.477   3.251  10.045
 5237SOL    HW116163   2.431   3.167  10.054
 5237SOL    HW216164   2.461   3.278   9.955
 5238SOL     OW16165   3.151   3.097  10.753
 5238SOL    HW116166   3.177   3.037  10.683
 5238SOL    HW216167   3.210   3.076  10.826
 5239SOL     OW16168   2.676   1.864   9.818
 5239SOL    HW116169   2.718   1.947   9.797
 5239SOL    HW216170   2.583   1.885   9.825
 5240SOL     OW16171   2.052   2.828  10.577
 5240SOL    HW116172   2.135   2.783  10.559
 5240SOL    HW216173   1.985   2.772  10.538
 5241SOL     OW16174   3.393   2.858   9.510
 5241SOL    HW116175   3.323   2.802   9.542
 5241SOL    HW216176   3.435   2.892   9.589
 5242SOL     OW16177   3.059   3.670  10.929
 5242SOL    HW116178   3.055   3.735  10.860
 5242SOL    HW216179   3.070   3.586  10.883
 5243SOL     OW16180   3.330   3.281  10.259
 5243SOL    HW116181   3.262   3.298  10.324
 5243SOL    HW216182   3.316   3.190  10.232
 5244SOL     OW16183   3.517   3.608   9.887
 5244SOL    HW116184   3.499   3.577   9.799
 5244SOL    HW216185   3.496   3.535   9.944
 5245SOL     OW16186   2.466   2.586   9.577
 5245SOL    HW116187   2.480   2.659   9.516
 5245SOL    HW216188   2.380   2.603   9.615
 5246SOL     OW16189   3.142   2.221  10.244
 5246SOL    HW116190   3.053   2.188  10.251
 5246SOL    HW216191   3.193   2.166  10.303
 5247SOL     OW16192   3.441   3.534   9.620
 5247SOL    HW116193   3.532   3.562   9.612
 5247SOL    HW216194   3.414   3.517   9.530
 5248SOL     OW16195   2.648   2.459  10.754
 5248SOL    HW116196   2.629   2.451  10.848
 5248SOL    HW216197   2.590   2.394  10.713
 5249SOL     OW16198   2.828   2.762  10.905
 5249SOL    HW116199   2.876   2.692  10.862
 5249SOL    HW216200   2.777   2.803  10.834
 5250SOL     OW16201   2.863   2.274  10.545
 5250SOL    HW116202   2.785   2.323  10.570
 5250SOL    HW216203   2.842   2.238  10.458
 5251SOL     OW16204   2.912   2.559   9.735
 5251SOL    HW116205   2.932   2.553   9.829
 5251SOL    HW216206   2.829   2.513   9.725
 5252SOL     OW16207   1.950   2.684  10.085
 5252SOL    HW116208   2.031   2.680  10.135
 5252SOL    HW216209   1.904   2.760  10.120
 5253SOL     OW16210   1.988   3.717  10.901
 5253SOL    HW116211   1.975   3.675  10.986
 5253SOL    HW216212   1.907   3.701  10.854
 5254SOL     OW16213   2.758   2.214   9.505
 5254SOL    HW116214   2.799   2.275   9.444
 5254SOL    HW216215   2.764   2.129   9.460
 5255SOL     OW16216   3.241   3.004   9.850
 5255SOL    HW116217   3.320   2.992   9.797
 5255SOL    HW216218   3.188   3.066   9.800
 5256SOL     OW16219   2.864   3.305   9.780
 5256SOL    HW116220   2.831   3.380   9.730
 5256SOL    HW216221   2.843   3.326   9.871
 5257SOL     OW16222   2.216   3.673  10.176
 5257SOL    HW116223   2.259   3.588  10.183
 5257SOL    HW216224   2.284   3.737  10.196
 5258SOL     OW16225   3.661   2.918  10.180
 5258SOL    HW116226   3.608   2.897  10.104
 5258SOL    HW216227   3.598   2.924  10.252
 5259SOL     OW16228   3.092   3.397  10.821
 5259SOL    HW116229   3.102   3.307  10.853
 5259SOL    HW216230   3.024   3.391  10.754
 5260SOL     OW16231   2.186   2.802   9.570
 5260SOL    HW116232   2.260   2.826   9.513
 5260SOL    HW216233   2.144   2.729   9.524
 5261SOL     OW16234   3.342   2.608  10.034
 5261SOL    HW116235   3.336   2.567  10.120
 5261SOL    HW216236   3.421   2.663  10.040
 5262SOL     OW16237   2.312   3.126  11.053
 5262SOL    HW116238   2.283   3.142  10.963
 5262SOL    HW216239   2.260   3.052  11.083
 5263SOL     OW16240   2.985   3.640   9.540
 5263SOL    HW116241   2.910   3.600   9.584
 5263SOL    HW216242   3.009   3.577   9.472
 5264SOL     OW16243   3.491   3.243   9.399
 5264SOL    HW116244   3.449   3.328   9.384
 5264SOL    HW216245   3.422   3.179   9.379
 5265SOL     OW16246   2.327   3.599   9.630
 5265SOL    HW116247   2.371   3.655   9.693
 5265SOL    HW216248   2.397   3.565   9.574
 5266SOL     OW16249   3.263   1.969   9.746
 5266SOL    HW116250   3.254   1.944   9.655
 5266SOL    HW216251   3.357   1.975   9.761
 5267SOL     OW16252   2.118   3.654  10.542
 5267SOL    HW116253   2.167   3.587  10.590
 5267SOL    HW216254   2.110   3.619  10.453
 5268SOL     OW16255   2.801   3.561  10.208
 5268SOL    HW116256   2.881   3.512  10.227
 5268SOL    HW216257   2.758   3.511  10.138
 5269SOL     OW16258   2.497   1.991   9.407
 5269SOL    HW116259   2.555   1.925   9.446
 5269SOL    HW216260   2.453   1.945   9.336
 5270SOL     OW16261   2.626   2.139  11.046
 5270SOL    HW116262   2.697   2.082  11.078
 5270SOL    HW216263   2.566   2.147   0.020
 5271SOL     OW16264   2.737   3.384  10.504
 5271SOL    HW116265   2.721   3.348  10.417
 5271SOL    HW216266   2.810   3.332  10.538
 5272SOL     OW16267   3.202   2.456  10.757
 5272SOL    HW116268   3.258   2.435  10.832
 5272SOL    HW216269   3.230   2.543  10.730
 5273SOL     OW16270   2.679   3.254  10.253
 5273SOL    HW116271   2.764   3.242  10.210
 5273SOL    HW216272   2.616   3.258  10.182
 5274SOL     OW16273   2.803   2.366  10.223
 5274SOL    HW116274   2.760   2.367  10.138
 5274SOL    HW216275   2.831   2.276  10.235
 5275SOL     OW16276   2.405   1.931   9.803
 5275SOL    HW116277   2.329   1.919   9.860
 5275SOL    HW216278   2.398   2.021   9.772
 5276SOL     OW16279   3.290   3.061   9.350
 5276SOL    HW116280   3.320   2.986   9.401
 5276SOL    HW216281   3.205   3.083   9.388
 5277SOL     OW16282   2.160   1.906   9.501
 5277SOL    HW116283   2.227   1.973   9.490
 5277SOL    HW216284   2.206   1.832   9.540
 5278SOL     OW16285   2.802   2.108   9.764
 5278SOL    HW116286   2.779   2.150   9.681
 5278SOL    HW216287   2.896   2.123   9.773
 5279SOL     OW16288   2.937   2.549  10.767
 5279SOL    HW116289   2.873   2.478  10.776
 5279SOL    HW216290   3.022   2.505  10.768
 5280SOL     OW16291   3.082   3.434  10.105
 5280SOL    HW116292   3.098   3.499  10.036
 5280SOL    HW216293   3.152   3.449  10.169
 5281SOL     OW16294   2.333   3.014  10.038
 5281SOL    HW116295   2.265   2.997  10.103
 5281SOL    HW216296   2.291   2.998   9.954
 5282SOL     OW16297   3.128   3.654   9.920
 5282SOL    HW116298   3.176   3.715   9.864
 5282SOL    HW216299   3.061   3.708   9.962
 5283SOL     OW16300   2.886   2.401   9.335
 5283SOL    HW116301   2.842   2.484   9.317
 5283SOL    HW216302   2.950   2.421   9.402
 5284SOL     OW16303   1.949   2.419  10.693
 5284SOL    HW116304   2.033   2.382  10.721
 5284SOL    HW216305   1.933   2.491  10.754
 5285SOL     OW16306   2.443   1.989  10.433
 5285SOL    HW116307   2.460   1.969  10.525
 5285SOL    HW216308   2.366   2.046  10.435
 5286SOL     OW16309   2.741   2.318   9.949
 5286SOL    HW116310   2.691   2.374   9.890
 5286SOL    HW216311   2.760   2.240   9.897
 5287SOL     OW16312   2.880   1.913  10.059
 5287SOL    HW116313   2.819   1.909   9.985
 5287SOL    HW216314   2.855   1.839  10.115
 5288SOL     OW16315   3.299   3.024  10.167
 5288SOL    HW116316   3.231   2.957  10.167
 5288SOL    HW216317   3.324   3.033  10.075
 5289SOL     OW16318   3.327   2.472  10.281
 5289SOL    HW116319   3.273   2.392  10.284
 5289SOL    HW216320   3.386   2.463  10.357
 5290SOL     OW16321   3.705   2.675   9.694
 5290SOL    HW116322   3.762   2.625   9.752
 5290SOL    HW216323   3.679   2.612   9.627
 5291SOL     OW16324   2.351   3.282   9.464
 5291SOL    HW116325   2.276   3.254   9.516
 5291SOL    HW216326   2.342   3.236   9.381
 5292SOL     OW16327   3.535   3.126   9.953
 5292SOL    HW116328   3.630   3.126   9.968
 5292SOL    HW216329   3.507   3.215   9.975
 5293SOL     OW16330   3.256   2.434   9.382
 5293SOL    HW116331   3.194   2.414   9.452
 5293SOL    HW216332   3.340   2.403   9.414
 5294SOL     OW16333   3.619   3.091  10.858
 5294SOL    HW116334   3.711   3.064  10.857
 5294SOL    HW216335   3.620   3.177  10.900
 5295SOL     OW16336   2.923   3.216  10.649
 5295SOL    HW116337   2.844   3.183  10.693
 5295SOL    HW216338   2.995   3.168  10.689
 5296SOL     OW16339   2.996   3.074  10.413
 5296SOL    HW116340   2.928   3.105  10.473
 5296SOL    HW216341   2.967   3.103  10.327
 5297SOL     OW16342   3.487   2.959  10.388
 5297SOL    HW116343   3.483   3.021  10.461
 5297SOL    HW216344   3.409   2.978  10.336
 5298SOL     OW16345   2.787   1.957  10.702
 5298SOL    HW116346   2.808   1.940  10.610
 5298SOL    HW216347   2.865   1.999  10.737
 5299SOL     OW16348   2.571   2.924   9.679
 5299SOL    HW116349   2.558   2.907   9.772
 5299SOL    HW216350   2.646   2.870   9.655
 5300SOL     OW16351   2.281   2.668  10.565
 5300SOL    HW116352   2.354   2.688  10.624
 5300SOL    HW216353   2.234   2.597  10.608
 5301SOL     OW16354   3.131   2.239  10.594
 5301SOL    HW116355   3.161   2.318  10.638
 5301SOL    HW216356   3.042   2.258  10.567
 5302SOL     OW16357   1.934   3.440  10.666
 5302SOL    HW116358   1.906   3.510  10.607
 5302SOL    HW216359   2.030   3.437  10.657
 5303SOL     OW16360   2.209   2.972   9.795
 5303SOL    HW116361   2.211   3.049   9.739
 5303SOL    HW216362   2.204   2.898   9.735
 5304SOL     OW16363   2.522   2.446  10.154
 5304SOL    HW116364   2.502   2.485  10.069
 5304SOL    HW216365   2.462   2.488  10.215
 5305SOL     OW16366   3.110   3.211   9.699
 5305SOL    HW116367   3.165   3.282   9.731
 5305SOL    HW216368   3.023   3.232   9.733
 5306SOL     OW16369   3.147   3.323  10.456
 5306SOL    HW116370   3.204   3.326  10.532
 5306SOL    HW216371   3.094   3.244  10.468
 5307SOL     OW16372   3.441   2.483   9.791
 5307SOL    HW116373   3.393   2.532   9.857
 5307SOL    HW216374   3.485   2.551   9.739
 5308SOL     OW16375   2.206   3.390  10.620
 5308SOL    HW116376   2.195   3.345  10.536
 5308SOL    HW216377   2.301   3.402  10.628
 5309SOL     OW16378   2.287   2.596  10.908
 5309SOL    HW116379   2.351   2.640  10.852
 5309SOL    HW216380   2.331   2.516  10.937
 5310SOL     OW16381   3.460   2.618  10.965
 5310SOL    HW116382   3.382   2.673  10.952
 5310SOL    HW216383   3.531   2.668  10.925
 5311SOL     OW16384   2.440   2.725  10.338
 5311SOL    HW116385   2.479   2.812  10.333
 5311SOL    HW216386   2.389   2.726  10.419
 5312SOL     OW16387   3.214   2.723  10.341
 5312SOL    HW116388   3.129   2.710  10.298
 5312SOL    HW216389   3.259   2.639  10.331
 5313SOL     OW16390   3.063   2.390   9.574
 5313SOL    HW116391   3.072   2.312   9.629
 5313SOL    HW216392   3.020   2.454   9.631
 5314SOL     OW16393   1.917   3.176  10.583
 5314SOL    HW116394   1.941   3.118  10.656
 5314SOL    HW216395   1.914   3.263  10.622
 5315SOL     OW16396   2.626   2.518  10.413
 5315SOL    HW116397   2.650   2.466  10.336
 5315SOL    HW216398   2.571   2.588  10.377
 5316SOL     OW16399   2.163   1.899   9.943
 5316SOL    HW116400   2.105   1.973   9.959
 5316SOL    HW216401   2.178   1.860  10.029
 5317SOL     OW16402   3.482   2.239   9.673
 5317SOL    HW116403   3.509   2.174   9.738
 5317SOL    HW216404   3.458   2.316   9.725
 5318SOL     OW16405   2.892   2.622  10.267
 5318SOL    HW116406   2.885   2.642  10.360
 5318SOL    HW216407   2.861   2.532  10.260
 5319SOL     OW16408   2.834   3.435  11.004
 5319SOL    HW116409   2.820   3.485  10.923
 5319SOL    HW216410   2.861   3.348  10.973
 5320SOL     OW16411   3.715   3.351  10.911
 5320SOL    HW116412   3.735   3.388  10.825
 5320SOL    HW216413   3.779   3.392  10.970
 5321SOL     OW16414   2.230   2.799  11.082
 5321SOL    HW116415   2.310   2.803   0.034
 5321SOL    HW216416   2.243   2.723  11.025
 5322SOL     OW16417   3.389   2.134   9.437
 5322SOL    HW116418   3.325   2.069   9.464
 5322SOL    HW216419   3.423   2.170   9.519
 5323SOL     OW16420   3.150   2.687   9.339
 5323SOL    HW116421   3.194   2.602   9.344
 5323SOL    HW216422   3.183   2.726   9.258
 5324SOL     OW16423   2.930   3.198  10.165
 5324SOL    HW116424   2.933   3.127  10.102
 5324SOL    HW216425   2.989   3.265  10.130
 5325SOL     OW16426   2.170   2.681  10.254
 5325SOL    HW116427   2.264   2.699  10.250
 5325SOL    HW216428   2.162   2.602  10.307
 5326SOL     OW16429   3.022   2.068  10.784
 5326SOL    HW116430   3.038   2.123  10.861
 5326SOL    HW216431   3.063   2.114  10.712
 5327SOL     OW16432   1.868   3.180   9.503
 5327SOL    HW116433   1.782   3.196   9.467
 5327SOL    HW216434   1.863   3.091   9.539
 5328SOL     OW16435   1.951   3.646  10.249
 5328SOL    HW116436   1.922   3.567  10.203
 5328SOL    HW216437   2.041   3.660  10.218
 5329SOL     OW16438   2.356   3.437  10.214
 5329SOL    HW116439   2.425   3.499  10.238
 5329SOL    HW216440   2.400   3.374  10.157
 5330SOL     OW16441   2.840   2.664  10.534
 5330SOL    HW116442   2.884   2.633  10.613
 5330SOL    HW216443   2.762   2.608  10.526
 5331SOL     OW16444   1.906   2.416  10.423
 5331SOL    HW116445   1.948   2.338  10.387
 5331SOL    HW216446   1.928   2.415  10.516
 5332SOL     OW16447   2.675   2.430   9.675
 5332SOL    HW116448   2.683   2.359   9.611
 5332SOL    HW216449   2.604   2.484   9.642
 5333SOL     OW16450   3.503   2.463  10.492
 5333SOL    HW116451   3.494   2.405  10.568
 5333SOL    HW216452   3.591   2.446  10.458
 5334SOL     OW16453   2.114   3.425  11.047
 5334SOL    HW116454   2.055   3.452   0.017
 5334SOL    HW216455   2.137   3.334  11.069
 5335SOL     OW16456   2.800   3.543  10.755
 5335SOL    HW116457   2.766   3.507  10.673
 5335SOL    HW216458   2.784   3.637  10.748
 5336SOL     OW16459   2.015   3.000  10.781
 5336SOL    HW116460   2.007   2.947  10.860
 5336SOL    HW216461   2.028   2.937  10.710
 5337SOL     OW16462   3.183   2.914  10.538
 5337SOL    HW116463   3.208   2.848  10.473
 5337SOL    HW216464   3.116   2.966  10.494
 5338SOL     OW16465   3.176   2.719   9.615
 5338SOL    HW116466   3.102   2.688   9.667
 5338SOL    HW216467   3.149   2.705   9.524
 5339SOL     OW16468   3.642   3.603  10.464
 5339SOL    HW116469   3.701   3.629  10.393
 5339SOL    HW216470   3.614   3.514  10.442
 5340SOL     OW16471   3.102   3.596  10.419
 5340SOL    HW116472   3.184   3.619  10.376
 5340SOL    HW216473   3.110   3.502  10.437
 5341SOL     OW16474   1.947   3.130  10.320
 5341SOL    HW116475   1.935   3.144  10.414
 5341SOL    HW216476   1.873   3.075  10.294
 5342SOL     OW16477   3.582   2.013   9.817
 5342SOL    HW116478   3.654   1.997   9.756
 5342SOL    HW216479   3.566   1.928   9.857
 5343SOL     OW16480   3.253   3.430   9.798
 5343SOL    HW116481   3.313   3.463   9.730
 5343SOL    HW216482   3.204   3.506   9.826
 5344SOL     OW16483   3.140   2.790   9.983
 5344SOL    HW116484   3.213   2.729   9.991
 5344SOL    HW216485   3.174   2.862   9.929
 5345SOL     OW16486   2.675   3.139  10.735
 5345SOL    HW116487   2.644   3.172  10.819
 5345SOL    HW216488   2.605   3.160  10.673
 5346SOL     OW16489   2.532   3.485   9.466
 5346SOL    HW116490   2.544   3.498   9.372
 5346SOL    HW216491   2.476   3.407   9.472
 5347SOL     OW16492   3.479   3.583  10.691
 5347SOL    HW116493   3.538   3.597  10.617
 5347SOL    HW216494   3.464   3.671  10.726
 5348SOL     OW16495   3.704   2.034  10.277
 5348SOL    HW116496   3.734   1.947  10.252
 5348SOL    HW216497   3.618   2.043  10.237
 5349SOL     OW16498   3.070   3.466   9.343
 5349SOL    HW116499   3.059   3.374   9.369
 5349SOL    HW216500   3.005   3.479   9.274
 5350SOL     OW16501   2.687   2.868  10.690
 5350SOL    HW116502   2.734   2.853  10.608
 5350SOL    HW216503   2.688   2.963  10.701
 5351SOL     OW16504   2.778   2.772   9.600
 5351SOL    HW116505   2.839   2.804   9.534
 5351SOL    HW216506   2.826   2.703   9.646
 5352SOL     OW16507   3.352   3.489   9.354
 5352SOL    HW116508   3.258   3.480   9.339
 5352SOL    HW216509   3.389   3.495   9.266
 5353SOL     OW16510   2.226   3.174  10.806
 5353SOL    HW116511   2.212   3.246  10.745
 5353SOL    HW216512   2.154   3.113  10.788
 5354SOL     OW16513   3.475   3.143  10.594
 5354SOL    HW116514   3.529   3.125  10.670
 5354SOL    HW216515   3.417   3.215  10.622
 5355SOL     OW16516   2.918   2.970  10.019
 5355SOL    HW116517   2.847   2.919  10.056
 5355SOL    HW216518   2.983   2.905   9.991
 5356SOL     OW16519   2.888   2.101  10.276
 5356SOL    HW116520   2.883   2.053  10.193
 5356SOL    HW216521   2.881   2.033  10.343
 5357SOL     OW16522   2.467   3.350   9.791
 5357SOL    HW116523   2.514   3.300   9.724
 5357SOL    HW216524   2.393   3.390   9.744
 5358SOL     OW16525   3.582   2.256  10.692
 5358SOL    HW116526   3.654   2.318  10.694
 5358SOL    HW216527   3.612   2.185  10.634
 5359SOL     OW16528   2.123   3.204   9.602
 5359SOL    HW116529   2.030   3.202   9.577
 5359SOL    HW216530   2.123   3.243   9.689
 5360SOL     OW16531   1.977   2.871  11.018
 5360SOL    HW116532   1.913   2.859  11.087
 5360SOL    HW216533   2.060   2.846  11.058
 5361SOL     OW16534   2.547   2.045  10.797
 5361SOL    HW116535   2.632   2.022  10.760
 5361SOL    HW216536   2.568   2.091  10.879
 5362SOL     OW16537   1.893   2.187   9.361
 5362SOL    HW116538   1.822   2.145   9.313
 5362SOL    HW216539   1.908   2.270   9.315
 5363SOL     OW16540   3.289   2.712  10.710
 5363SOL    HW116541   3.240   2.780  10.664
 5363SOL    HW216542   3.378   2.720  10.676
 5364SOL     OW16543   1.927   2.017   9.616
 5364SOL    HW116544   1.907   2.092   9.560
 5364SOL    HW216545   2.014   1.988   9.586
 5365SOL     OW16546   3.040   3.199   9.427
 5365SOL    HW116547   2.950   3.168   9.430
 5365SOL    HW216548   3.068   3.200   9.519
 5366SOL     OW16549   2.488   2.688  10.740
 5366SOL    HW116550   2.543   2.766  10.729
 5366SOL    HW216551   2.550   2.615  10.742
 5367SOL     OW16552   3.344   3.643  10.291
 5367SOL    HW116553   3.368   3.706  10.223
 5367SOL    HW216554   3.427   3.618  10.331
 5368SOL     OW16555   2.579   2.432  11.013
 5368SOL    HW116556   2.616   2.503  11.064
 5368SOL    HW216557   2.625   2.354  11.043
 5369SOL     OW16558   2.242   3.596  10.874
 5369SOL    HW116559   2.166   3.653  10.866
 5369SOL    HW216560   2.213   3.525  10.932
 5370SOL     OW16561   3.529   2.743  10.568
 5370SOL    HW116562   3.524   2.658  10.525
 5370SOL    HW216563   3.520   2.807  10.497
 5371SOL     OW16564   3.077   2.181   9.768
 5371SOL    HW116565   3.140   2.109   9.761
 5371SOL    HW216566   3.106   2.230   9.844
 5372SOL     OW16567   2.439   2.612   9.956
 5372SOL    HW116568   2.485   2.695   9.950
 5372SOL    HW216569   2.358   2.626   9.906
 5373SOL     OW16570   3.604   2.178  10.959
 5373SOL    HW116571   3.588   2.218  10.874
 5373SOL    HW216572   3.527   2.202  11.012
 5374SOL     OW16573   3.613   2.798  10.825
 5374SOL    HW116574   3.603   2.892  10.839
 5374SOL    HW216575   3.594   2.785  10.732
 5375SOL     OW16576   2.725   3.228   9.348
 5375SOL    HW116577   2.687   3.256   9.432
 5375SOL    HW216578   2.742   3.310   9.301
 5376SOL     OW16579   2.524   3.649  10.251
 5376SOL    HW116580   2.505   3.741  10.230
 5376SOL    HW216581   2.620   3.643  10.244
 5377SOL     OW16582   2.729   2.830  10.164
 5377SOL    HW116583   2.778   2.756  10.200
 5377SOL    HW216584   2.696   2.877  10.241
 5378SOL     OW16585   2.939   2.850   9.398
 5378SOL    HW116586   2.919   2.901   9.320
 5378SOL    HW216587   3.014   2.796   9.372
 5379SOL     OW16588   3.714   3.416  10.153
 5379SOL    HW116589   3.635   3.404  10.101
 5379SOL    HW216590   3.709   3.349  10.221
 5380SOL     OW16591   1.947   3.095   9.976
 5380SOL    HW116592   1.950   3.048  10.060
 5380SOL    HW216593   2.013   3.052   9.922
 5381SOL     OW16594   2.541   3.258  10.943
 5381SOL    HW116595   2.470   3.207  10.982
 5381SOL    HW216596   2.502   3.342  10.922
 5382SOL     OW16597   3.668   2.044  10.548
 5382SOL    HW116598   3.678   1.949  10.559
 5382SOL    HW216599   3.682   2.059  10.455
 5383SOL     OW16600   3.561   3.351  10.405
 5383SOL    HW116601   3.481   3.328  10.357
 5383SOL    HW216602   3.571   3.281  10.469
 5384SOL     OW16603   2.692   3.440   9.986
 5384SOL    HW116604   2.674   3.500   9.914
 5384SOL    HW216605   2.617   3.381   9.988
 5385SOL     OW16606   3.293   2.088  10.428
 5385SOL    HW116607   3.316   2.006  10.472
 5385SOL    HW216608   3.244   2.138  10.493
 5386SOL     OW16609   2.871   1.877  10.448
 5386SOL    HW116610   2.819   1.812  10.402
 5386SOL    HW216611   2.959   1.839  10.451
 5387SOL     OW16612   2.635   3.195   9.628
 5387SOL    HW116613   2.606   3.104   9.634
 5387SOL    HW216614   2.717   3.198   9.678
 5388SOL     OW16615   2.482   3.415  10.599
 5388SOL    HW116616   2.481   3.499  10.644
 5388SOL    HW216617   2.569   3.410  10.560
 5389SOL     OW16618   3.216   1.915   9.478
 5389SOL    HW116619   3.247   1.847   9.418
 5389SOL    HW216620   3.128   1.887   9.502
 5390SOL     OW16621   3.159   2.324   9.989
 5390SOL    HW116622   3.105   2.403   9.994
 5390SOL    HW216623   3.153   2.286  10.077
 5391SOL     OW16624   3.448   2.061  10.190
 5391SOL    HW116625   3.390   2.083  10.262
 5391SOL    HW216626   3.447   2.138  10.134
 5392SOL     OW16627   1.904   2.930   9.619
 5392SOL    HW116628   1.997   2.922   9.602
 5392SOL    HW216629   1.876   2.841   9.641
 5393SOL     OW16630   2.749   3.519   9.650
 5393SOL    HW116631   2.675   3.502   9.591
 5393SOL    HW216632   2.720   3.593   9.704
 5394SOL     OW16633   2.059   4.299   0.088
 5394SOL    HW116634   2.045   4.361   0.159
 5394SOL    HW216635   2.070   4.354   0.010
 5395SOL     OW16636   2.086   4.002   0.991
 5395SOL    HW116637   2.113   3.967   1.076
 5395SOL    HW216638   1.996   3.971   0.981
 5396SOL     OW16639   1.864   4.101   0.643
 5396SOL    HW116640   1.783   4.131   0.684
 5396SOL    HW216641   1.838   4.025   0.591
 5397SOL     OW16642   3.593   4.330   0.234
 5397SOL    HW116643   3.610   4.308   0.142
 5397SOL    HW216644   3.582   4.245   0.277
 5398SOL     OW16645   2.599   0.276   0.688
 5398SOL    HW116646   2.587   0.209   0.755
 5398SOL    HW216647   2.514   0.281   0.643
 5399SOL     OW16648   2.313   4.111   1.480
 5399SOL    HW116649   2.390   4.054   1.488
 5399SOL    HW216650   2.239   4.054   1.502
 5400SOL     OW16651   3.476   4.169   0.743
 5400SOL    HW116652   3.416   4.196   0.674
 5400SOL    HW216653   3.463   4.234   0.812
 5401SOL     OW16654   3.458   3.849   1.466
 5401SOL    HW116655   3.473   3.930   1.417
 5401SOL    HW216656   3.440   3.879   1.556
 5402SOL     OW16657   1.943   4.373   0.564
 5402SOL    HW116658   1.928   4.282   0.589
 5402SOL    HW216659   2.009   4.404   0.626
 5403SOL     OW16660   1.980   4.479   1.583
 5403SOL    HW116661   2.044   4.500   1.651
 5403SOL    HW216662   1.951   0.065   1.551
 5404SOL     OW16663   2.680   3.729   0.512
 5404SOL    HW116664   2.718   3.815   0.493
 5404SOL    HW216665   2.586   3.746   0.518
 5405SOL     OW16666   2.199   3.972   1.820
 5405SOL    HW116667   2.234   4.060   1.832
 5405SOL    HW216668   2.106   3.980   1.841
 5406SOL     OW16669   3.139   4.079   0.933
 5406SOL    HW116670   3.049   4.045   0.944
 5406SOL    HW216671   3.191   4.025   0.993
 5407SOL     OW16672   2.695   4.299   1.445
 5407SOL    HW116673   2.655   4.303   1.532
 5407SOL    HW216674   2.627   4.262   1.389
 5408SOL     OW16675   3.256   4.200   1.677
 5408SOL    HW116676   3.261   4.245   1.761
 5408SOL    HW216677   3.312   4.123   1.687
 5409SOL     OW16678   2.861   4.154   1.233
 5409SOL    HW116679   2.792   4.179   1.293
 5409SOL    HW216680   2.818   4.096   1.169
 5410SOL     OW16681   2.921   4.405   0.418
 5410SOL    HW116682   2.916   4.467   0.491
 5410SOL    HW216683   2.830   4.382   0.400
 5411SOL     OW16684   2.754   4.074   0.209
 5411SOL    HW116685   2.796   4.134   0.148
 5411SOL    HW216686   2.767   3.987   0.171
 5412SOL     OW16687   3.574   4.300   1.831
 5412SOL    HW116688   3.590   4.386   1.793
 5412SOL    HW216689   3.593   4.239   1.760
 5413SOL     OW16690   2.413   3.901   0.894
 5413SOL    HW116691   2.414   3.931   0.986
 5413SOL    HW216692   2.410   3.982   0.843
 5414SOL     OW16693   3.351   4.468   0.741
 5414SOL    HW116694   3.340   4.412   0.817
 5414SOL    HW216695   3.393   0.047   0.775
 5415SOL     OW16696   2.061   3.998   1.506
 5415SOL    HW116697   1.977   4.043   1.502
 5415SOL    HW216698   2.042   3.917   1.554
 5416SOL     OW16699   3.264   3.829   0.434
 5416SOL    HW116700   3.258   3.808   0.341
 5416SOL    HW216701   3.358   3.839   0.450
 5417SOL     OW16702   2.213   4.383   0.403
 5417SOL    HW116703   2.252   4.310   0.450
 5417SOL    HW216704   2.141   4.412   0.460
 5418SOL     OW16705   3.393   3.949   1.725
 5418SOL    HW116706   3.403   3.970   1.818
 5418SOL    HW216707   3.325   3.882   1.722
 5419SOL     OW16708   2.481   3.831   0.128
 5419SOL    HW116709   2.568   3.792   0.118
 5419SOL    HW216710   2.437   3.813   0.045
 5420SOL     OW16711   2.625   4.002   1.755
 5420SOL    HW116712   2.704   3.949   1.753
 5420SOL    HW216713   2.579   3.974   1.834
 5421SOL     OW16714   3.201   4.313   1.431
 5421SOL    HW116715   3.223   4.276   1.516
 5421SOL    HW216716   3.251   4.395   1.427
 5422SOL     OW16717   2.789   4.234   0.897
 5422SOL    HW116718   2.765   4.218   0.806
 5422SOL    HW216719   2.827   4.151   0.927
 5423SOL     OW16720   2.413   3.788   0.502
 5423SOL    HW116721   2.331   3.785   0.552
 5423SOL    HW216722   2.406   3.866   0.448
 5424SOL     OW16723   2.147   3.771   0.204
 5424SOL    HW116724   2.187   3.826   0.137
 5424SOL    HW216725   2.215   3.709   0.228
 5425SOL     OW16726   2.803   3.977   0.463
 5425SOL    HW116727   2.778   4.014   0.379
 5425SOL    HW216728   2.898   3.989   0.468
 5426SOL     OW16729   2.936   4.394   1.533
 5426SOL    HW116730   2.854   4.364   1.493
 5426SOL    HW216731   3.004   4.361   1.476
 5427SOL     OW16732   2.871   4.263   0.041
 5427SOL    HW116733   2.892   4.307  11.059
 5427SOL    HW216734   2.950   4.270   0.094
 5428SOL     OW16735   1.939   4.281   1.395
 5428SOL    HW116736   2.031   4.272   1.368
 5428SOL    HW216737   1.939   4.355   1.456
 5429SOL     OW16738   2.419   3.950   1.166
 5429SOL    HW116739   2.462   3.878   1.210
 5429SOL    HW216740   2.328   3.947   1.196
 5430SOL     OW16741   2.728   4.190   0.639
 5430SOL    HW116742   2.705   4.256   0.573
 5430SOL    HW216743   2.748   4.112   0.587
 5431SOL     OW16744   2.877   3.778   0.749
 5431SOL    HW116745   2.819   3.771   0.674
 5431SOL    HW216746   2.855   3.702   0.804
 5432SOL     OW16747   3.340   4.308   0.960
 5432SOL    HW116748   3.274   4.241   0.979
 5432SOL    HW216749   3.388   4.318   1.042
 5433SOL     OW16750   3.266   4.290   0.074
 5433SOL    HW116751   3.198   4.275   0.140
 5433SOL    HW216752   3.324   4.214   0.081
 5434SOL     OW16753   2.390   3.994   0.327
 5434SOL    HW116754   2.419   3.933   0.259
 5434SOL    HW216755   2.367   4.074   0.278
 5435SOL     OW16756   2.780   3.819   1.393
 5435SOL    HW116757   2.804   3.799   1.302
 5435SOL    HW216758   2.860   3.858   1.430
 5436SOL     OW16759   2.301   0.010   1.286
 5436SOL    HW116760   2.370   4.497   1.350
 5436SOL    HW216761   2.256   4.425   1.282
 5437SOL     OW16762   3.126   4.099   1.278
 5437SOL    HW116763   3.159   4.176   1.323
 5437SOL    HW216764   3.037   4.122   1.253
 5438SOL     OW16765   2.414   4.249   0.865
 5438SOL    HW116766   2.433   4.284   0.778
 5438SOL    HW216767   2.480   4.288   0.922
 5439SOL     OW16768   3.434   4.334   0.485
 5439SOL    HW116769   3.400   4.400   0.545
 5439SOL    HW216770   3.483   4.384   0.419
 5440SOL     OW16771   2.857   3.853   1.755
 5440SOL    HW116772   2.916   3.925   1.733
 5440SOL    HW216773   2.905   3.774   1.729
 5441SOL     OW16774   2.359   3.762   1.749
 5441SOL    HW116775   2.313   3.708   1.684
 5441SOL    HW216776   2.302   3.837   1.763
 5442SOL     OW16777   3.069   4.248   0.260
 5442SOL    HW116778   3.081   4.169   0.313
 5442SOL    HW216779   3.022   4.309   0.317
 5443SOL     OW16780   2.159   3.921   1.248
 5443SOL    HW116781   2.121   3.953   1.330
 5443SOL    HW216782   2.141   3.827   1.248
 5444SOL     OW16783   2.596   4.361   1.037
 5444SOL    HW116784   2.670   4.322   0.991
 5444SOL    HW216785   2.611   4.455   1.031
 5445SOL     OW16786   3.616   0.130   1.851
 5445SOL    HW116787   3.545   0.147   1.789
 5445SOL    HW216788   3.578   0.146   1.937
 5446SOL     OW16789   2.168   3.787   0.624
 5446SOL    HW116790   2.145   3.878   0.646
 5446SOL    HW216791   2.175   3.744   0.709
 5447SOL     OW16792   3.481   4.092   0.363
 5447SOL    HW116793   3.510   4.028   0.428
 5447SOL    HW216794   3.454   4.168   0.415
 5448SOL     OW16795   3.392   4.022   0.112
 5448SOL    HW116796   3.335   3.947   0.127
 5448SOL    HW216797   3.428   4.042   0.198
 5449SOL     OW16798   2.182   0.012   0.918
 5449SOL    HW116799   2.258   0.068   0.930
 5449SOL    HW216800   2.197   4.438   0.976
 5450SOL     OW16801   2.198   4.241   1.023
 5450SOL    HW116802   2.158   4.156   1.005
 5450SOL    HW216803   2.273   4.246   0.964
 5451SOL     OW16804   2.999   4.090   1.688
 5451SOL    HW116805   2.945   4.149   1.740
 5451SOL    HW216806   3.083   4.136   1.680
 5452SOL     OW16807   3.023   3.923   1.470
 5452SOL    HW116808   3.012   3.984   1.543
 5452SOL    HW216809   3.064   3.975   1.401
 5453SOL     OW16810   1.898   4.276   1.116
 5453SOL    HW116811   1.978   4.263   1.066
 5453SOL    HW216812   1.926   4.276   1.208
 5454SOL     OW16813   2.058   4.246   1.715
 5454SOL    HW116814   2.108   4.194   1.653
 5454SOL    HW216815   2.007   4.306   1.661
 5455SOL     OW16816   2.676   4.311   0.328
 5455SOL    HW116817   2.689   4.225   0.288
 5455SOL    HW216818   2.582   4.313   0.349
 5456SOL     OW16819   3.496   4.315   1.183
 5456SOL    HW116820   3.493   4.257   1.260
 5456SOL    HW216821   3.585   4.305   1.149
 5457SOL     OW16822   2.549   4.184   1.249
 5457SOL    HW116823   2.501   4.106   1.219
 5457SOL    HW216824   2.550   4.242   1.173
 5458SOL     OW16825   2.327   4.216   0.178
 5458SOL    HW116826   2.370   4.301   0.193
 5458SOL    HW216827   2.234   4.237   0.176
 5459SOL     OW16828   2.783   3.815   0.098
 5459SOL    HW116829   2.830   3.777   0.023
 5459SOL    HW216830   2.822   3.774   0.175
 5460SOL     OW16831   3.583   3.874   0.509
 5460SOL    HW116832   3.654   3.861   0.446
 5460SOL    HW216833   3.568   3.788   0.547
 5461SOL     OW16834   3.139   0.134   0.679
 5461SOL    HW116835   3.196   0.060   0.702
 5461SOL    HW216836   3.188   0.183   0.613
 5462SOL     OW16837   3.703   3.895   0.967
 5462SOL    HW116838   3.732   3.808   0.940
 5462SOL    HW216839   3.617   3.905   0.926
 5463SOL     OW16840   2.123   4.041   0.717
 5463SOL    HW116841   2.035   4.069   0.692
 5463SOL    HW216842   2.119   4.031   0.812
 5464SOL     OW16843   2.923   0.293   0.737
 5464SOL    HW116844   2.847   0.267   0.685
 5464SOL    HW216845   2.992   0.232   0.711
 5465SOL     OW16846   2.884   3.964   0.964
 5465SOL    HW116847   2.880   3.915   0.881
 5465SOL    HW216848   2.879   3.897   1.032
 5466SOL     OW16849   3.586   4.114   1.380
 5466SOL    HW116850   3.657   4.178   1.378
 5466SOL    HW216851   3.616   4.043   1.323
 5467SOL     OW16852   2.538   3.918   1.500
 5467SOL    HW116853   2.622   3.898   1.459
 5467SOL    HW216854   2.560   3.952   1.586
 5468SOL     OW16855   1.945   4.049   0.060
 5468SOL    HW116856   1.879   4.048  11.091
 5468SOL    HW216857   1.973   4.141   0.066
 5469SOL     OW16858   1.924   3.881   0.309
 5469SOL    HW116859   1.910   3.953   0.246
 5469SOL    HW216860   2.008   3.844   0.285
 5470SOL     OW16861   2.595   4.280   1.698
 5470SOL    HW116862   2.587   4.324   1.783
 5470SOL    HW216863   2.607   4.187   1.721
 5471SOL     OW16864   3.078   4.038   0.455
 5471SOL    HW116865   3.142   3.967   0.447
 5471SOL    HW216866   3.107   4.088   0.532
 5472SOL     OW16867   3.617   4.093   1.651
 5472SOL    HW116868   3.603   4.105   1.557
 5472SOL    HW216869   3.547   4.034   1.679
 5473SOL     OW16870   2.962   0.207   0.051
 5473SOL    HW116871   2.957   0.296   0.015
 5473SOL    HW216872   3.050   0.177   0.028
 5474SOL     OW16873   3.676   3.906   1.238
 5474SOL    HW116874   3.682   3.811   1.250
 5474SOL    HW216875   3.685   3.918   1.143
 5475SOL     OW16876   2.303   4.161   0.538
 5475SOL    HW116877   2.330   4.091   0.479
 5475SOL    HW216878   2.247   4.118   0.602
 5476SOL     OW16879   2.187   4.265   1.296
 5476SOL    HW116880   2.244   4.208   1.349
 5476SOL    HW216881   2.206   4.239   1.206
 5477SOL     OW16882   3.293   3.950   1.117
 5477SOL    HW116883   3.314   3.868   1.161
 5477SOL    HW216884   3.242   4.000   1.181
 5478SOL     OW16885   2.871   3.741   1.139
 5478SOL    HW116886   2.817   3.675   1.097
 5478SOL    HW216887   2.959   3.703   1.141
 5479SOL     OW16888   3.213   3.781   0.164
 5479SOL    HW116889   3.234   3.726   0.088
 5479SOL    HW216890   3.126   3.751   0.191
 5480SOL     OW16891   3.160   4.173   0.678
 5480SOL    HW116892   3.132   4.264   0.690
 5480SOL    HW216893   3.159   4.135   0.766
 5481SOL     OW16894   3.447   3.922   0.880
 5481SOL    HW116895   3.390   3.946   0.953
 5481SOL    HW216896   3.448   4.000   0.823
 5482SOL     OW16897   2.083   4.281   1.985
 5482SOL    HW116898   2.045   4.360   2.022
 5482SOL    HW216899   2.078   4.294   1.890
 5483SOL     OW16900   2.086   4.001   2.853
 5483SOL    HW116901   2.113   3.967   2.938
 5483SOL    HW216902   1.996   3.971   2.843
 5484SOL     OW16903   1.864   4.100   2.504
 5484SOL    HW116904   1.785   4.132   2.546
 5484SOL    HW216905   1.836   4.023   2.455
 5485SOL     OW16906   3.586   4.335   2.102
 5485SOL    HW116907   3.589   4.325   2.007
 5485SOL    HW216908   3.590   4.245   2.135
 5486SOL     OW16909   2.591   0.278   2.550
 5486SOL    HW116910   2.582   0.212   2.619
 5486SOL    HW216911   2.506   0.279   2.507
 5487SOL     OW16912   2.313   4.111   3.342
 5487SOL    HW116913   2.390   4.054   3.351
 5487SOL    HW216914   2.239   4.054   3.364
 5488SOL     OW16915   3.475   4.169   2.604
 5488SOL    HW116916   3.412   4.195   2.536
 5488SOL    HW216917   3.464   4.234   2.674
 5489SOL     OW16918   3.458   3.849   3.328
 5489SOL    HW116919   3.473   3.930   3.279
 5489SOL    HW216920   3.440   3.878   3.418
 5490SOL     OW16921   1.926   4.382   2.441
 5490SOL    HW116922   1.925   4.287   2.454
 5490SOL    HW216923   2.005   4.412   2.486
 5491SOL     OW16924   1.980   4.479   3.445
 5491SOL    HW116925   2.045   4.500   3.513
 5491SOL    HW216926   1.951   0.065   3.413
 5492SOL     OW16927   2.680   3.727   2.373
 5492SOL    HW116928   2.720   3.811   2.351
 5492SOL    HW216929   2.586   3.746   2.380
 5493SOL     OW16930   2.199   3.972   3.681
 5493SOL    HW116931   2.234   4.060   3.694
 5493SOL    HW216932   2.106   3.980   3.703
 5494SOL     OW16933   3.139   4.078   2.795
 5494SOL    HW116934   3.049   4.045   2.806
 5494SOL    HW216935   3.191   4.025   2.855
 5495SOL     OW16936   2.695   4.298   3.307
 5495SOL    HW116937   2.655   4.302   3.393
 5495SOL    HW216938   2.627   4.262   3.250
 5496SOL     OW16939   3.256   4.200   3.539
 5496SOL    HW116940   3.260   4.245   3.623
 5496SOL    HW216941   3.312   4.123   3.549
 5497SOL     OW16942   2.861   4.154   3.095
 5497SOL    HW116943   2.792   4.179   3.156
 5497SOL    HW216944   2.818   4.097   3.032
 5498SOL     OW16945   2.917   4.412   2.275
 5498SOL    HW116946   2.912   4.460   2.358
 5498SOL    HW216947   2.832   4.369   2.267
 5499SOL     OW16948   2.759   4.066   2.050
 5499SOL    HW116949   2.798   4.130   1.990
 5499SOL    HW216950   2.774   3.982   2.009
 5500SOL     OW16951   3.574   4.300   3.693
 5500SOL    HW116952   3.590   4.386   3.655
 5500SOL    HW216953   3.594   4.239   3.622
 5501SOL     OW16954   2.412   3.902   2.756
 5501SOL    HW116955   2.414   3.930   2.848
 5501SOL    HW216956   2.410   3.983   2.706
 5502SOL     OW16957   3.355   4.469   2.601
 5502SOL    HW116958   3.341   4.412   2.677
 5502SOL    HW216959   3.395   0.048   2.637
 5503SOL     OW16960   2.061   3.998   3.368
 5503SOL    HW116961   1.977   4.044   3.364
 5503SOL    HW216962   2.042   3.918   3.416
 5504SOL     OW16963   3.263   3.829   2.298
 5504SOL    HW116964   3.255   3.805   2.206
 5504SOL    HW216965   3.357   3.838   2.312
 5505SOL     OW16966   2.215   4.390   2.268
 5505SOL    HW116967   2.251   4.312   2.310
 5505SOL    HW216968   2.149   4.423   2.329
 5506SOL     OW16969   3.393   3.949   3.587
 5506SOL    HW116970   3.403   3.970   3.680
 5506SOL    HW216971   3.325   3.882   3.584
 5507SOL     OW16972   2.501   3.844   1.966
 5507SOL    HW116973   2.565   3.774   1.981
 5507SOL    HW216974   2.449   3.814   1.891
 5508SOL     OW16975   2.625   4.002   3.617
 5508SOL    HW116976   2.704   3.949   3.615
 5508SOL    HW216977   2.579   3.974   3.696
 5509SOL     OW16978   3.201   4.313   3.293
 5509SOL    HW116979   3.223   4.276   3.378
 5509SOL    HW216980   3.251   4.395   3.289
 5510SOL     OW16981   2.788   4.233   2.756
 5510SOL    HW116982   2.764   4.217   2.665
 5510SOL    HW216983   2.826   4.151   2.786
 5511SOL     OW16984   2.413   3.788   2.361
 5511SOL    HW116985   2.333   3.787   2.413
 5511SOL    HW216986   2.405   3.865   2.305
 5512SOL     OW16987   2.152   3.772   2.048
 5512SOL    HW116988   2.210   3.836   2.006
 5512SOL    HW216989   2.212   3.709   2.089
 5513SOL     OW16990   2.802   3.974   2.319
 5513SOL    HW116991   2.778   4.011   2.234
 5513SOL    HW216992   2.897   3.988   2.325
 5514SOL     OW16993   2.936   4.393   3.396
 5514SOL    HW116994   2.854   4.364   3.355
 5514SOL    HW216995   3.004   4.361   3.338
 5515SOL     OW16996   2.887   4.262   1.892
 5515SOL    HW116997   2.872   4.349   1.855
 5515SOL    HW216998   2.952   4.275   1.961
 5516SOL     OW16999   1.939   4.281   3.257
 5516SOL    HW117000   2.030   4.272   3.230
 5516SOL    HW217001   1.939   4.355   3.318
 5517SOL     OW17002   2.419   3.950   3.028
 5517SOL    HW117003   2.462   3.878   3.073
 5517SOL    HW217004   2.328   3.947   3.058
 5518SOL     OW17005   2.729   4.189   2.496
 5518SOL    HW117006   2.700   4.249   2.428
 5518SOL    HW217007   2.750   4.108   2.450
 5519SOL     OW17008   2.877   3.778   2.611
 5519SOL    HW117009   2.819   3.770   2.535
 5519SOL    HW217010   2.855   3.702   2.666
 5520SOL     OW17011   3.340   4.307   2.821
 5520SOL    HW117012   3.274   4.241   2.841
 5520SOL    HW217013   3.389   4.318   2.902
 5521SOL     OW17014   3.267   4.296   1.936
 5521SOL    HW117015   3.203   4.267   2.001
 5521SOL    HW217016   3.349   4.255   1.962
 5522SOL     OW17017   2.390   3.989   2.178
 5522SOL    HW117018   2.434   3.940   2.108
 5522SOL    HW217019   2.370   4.074   2.139
 5523SOL     OW17020   2.780   3.819   3.255
 5523SOL    HW117021   2.804   3.799   3.164
 5523SOL    HW217022   2.860   3.858   3.292
 5524SOL     OW17023   2.300   0.010   3.148
 5524SOL    HW117024   2.370   4.497   3.212
 5524SOL    HW217025   2.256   4.425   3.144
 5525SOL     OW17026   3.126   4.099   3.140
 5525SOL    HW117027   3.159   4.176   3.185
 5525SOL    HW217028   3.037   4.122   3.114
 5526SOL     OW17029   2.414   4.248   2.726
 5526SOL    HW117030   2.433   4.285   2.640
 5526SOL    HW217031   2.480   4.288   2.783
 5527SOL     OW17032   3.427   4.334   2.345
 5527SOL    HW117033   3.406   4.400   2.412
 5527SOL    HW217034   3.489   4.378   2.286
 5528SOL     OW17035   2.857   3.853   3.617
 5528SOL    HW117036   2.916   3.925   3.595
 5528SOL    HW217037   2.905   3.774   3.591
 5529SOL     OW17038   2.359   3.762   3.611
 5529SOL    HW117039   2.313   3.708   3.546
 5529SOL    HW217040   2.302   3.837   3.625
 5530SOL     OW17041   3.069   4.252   2.122
 5530SOL    HW117042   3.080   4.173   2.175
 5530SOL    HW217043   3.021   4.312   2.179
 5531SOL     OW17044   2.159   3.921   3.109
 5531SOL    HW117045   2.121   3.953   3.191
 5531SOL    HW217046   2.141   3.827   3.110
 5532SOL     OW17047   2.596   4.361   2.899
 5532SOL    HW117048   2.670   4.322   2.852
 5532SOL    HW217049   2.611   4.455   2.894
 5533SOL     OW17050   3.616   0.130   3.713
 5533SOL    HW117051   3.545   0.148   3.651
 5533SOL    HW217052   3.577   0.146   3.799
 5534SOL     OW17053   2.168   3.787   2.486
 5534SOL    HW117054   2.146   3.878   2.507
 5534SOL    HW217055   2.175   3.743   2.570
 5535SOL     OW17056   3.477   4.091   2.228
 5535SOL    HW117057   3.509   4.030   2.294
 5535SOL    HW217058   3.451   4.169   2.277
 5536SOL     OW17059   3.385   3.999   1.988
 5536SOL    HW117060   3.323   3.931   2.014
 5536SOL    HW217061   3.422   4.031   2.071
 5537SOL     OW17062   2.182   0.012   2.780
 5537SOL    HW117063   2.258   0.069   2.791
 5537SOL    HW217064   2.198   4.439   2.840
 5538SOL     OW17065   2.198   4.241   2.885
 5538SOL    HW117066   2.158   4.156   2.867
 5538SOL    HW217067   2.273   4.246   2.826
 5539SOL     OW17068   2.999   4.090   3.550
 5539SOL    HW117069   2.945   4.149   3.602
 5539SOL    HW217070   3.083   4.135   3.542
 5540SOL     OW17071   3.023   3.923   3.332
 5540SOL    HW117072   3.012   3.984   3.405
 5540SOL    HW217073   3.064   3.975   3.263
 5541SOL     OW17074   1.898   4.275   2.978
 5541SOL    HW117075   1.978   4.264   2.928
 5541SOL    HW217076   1.926   4.276   3.070
 5542SOL     OW17077   2.058   4.246   3.577
 5542SOL    HW117078   2.109   4.195   3.514
 5542SOL    HW217079   2.007   4.306   3.523
 5543SOL     OW17080   2.682   4.276   2.221
 5543SOL    HW117081   2.688   4.205   2.157
 5543SOL    HW217082   2.596   4.315   2.205
 5544SOL     OW17083   3.496   4.315   3.045
 5544SOL    HW117084   3.493   4.258   3.122
 5544SOL    HW217085   3.585   4.304   3.010
 5545SOL     OW17086   2.548   4.184   3.110
 5545SOL    HW117087   2.501   4.106   3.080
 5545SOL    HW217088   2.549   4.242   3.034
 5546SOL     OW17089   2.341   4.224   2.052
 5546SOL    HW117090   2.367   4.312   2.081
 5546SOL    HW217091   2.247   4.232   2.035
 5547SOL     OW17092   3.585   3.874   2.372
 5547SOL    HW117093   3.655   3.858   2.309
 5547SOL    HW217094   3.568   3.788   2.410
 5548SOL     OW17095   3.141   0.134   2.540
 5548SOL    HW117096   3.199   0.061   2.560
 5548SOL    HW217097   3.191   0.189   2.480
 5549SOL     OW17098   3.703   3.895   2.829
 5549SOL    HW117099   3.732   3.808   2.802
 5549SOL    HW217100   3.617   3.905   2.788
 5550SOL     OW17101   2.123   4.040   2.578
 5550SOL    HW117102   2.035   4.069   2.554
 5550SOL    HW217103   2.119   4.030   2.674
 5551SOL     OW17104   2.765   0.088   2.069
 5551SOL    HW117105   2.845   0.126   2.034
 5551SOL    HW217106   2.788   0.059   2.157
 5552SOL     OW17107   2.927   0.292   2.611
 5552SOL    HW117108   2.859   0.289   2.544
 5552SOL    HW217109   2.993   0.229   2.580
 5553SOL     OW17110   2.884   3.964   2.825
 5553SOL    HW117111   2.880   3.915   2.743
 5553SOL    HW217112   2.879   3.898   2.894
 5554SOL     OW17113   3.586   4.114   3.242
 5554SOL    HW117114   3.657   4.178   3.240
 5554SOL    HW217115   3.616   4.043   3.185
 5555SOL     OW17116   2.538   3.918   3.362
 5555SOL    HW117117   2.622   3.898   3.321
 5555SOL    HW217118   2.560   3.952   3.448
 5556SOL     OW17119   1.937   4.036   1.891
 5556SOL    HW117120   1.855   4.034   1.841
 5556SOL    HW217121   1.969   4.126   1.881
 5557SOL     OW17122   1.927   3.878   2.169
 5557SOL    HW117123   1.912   3.956   2.115
 5557SOL    HW217124   2.012   3.845   2.139
 5558SOL     OW17125   2.595   4.280   3.560
 5558SOL    HW117126   2.587   4.325   3.644
 5558SOL    HW217127   2.606   4.188   3.583
 5559SOL     OW17128   3.079   4.041   2.315
 5559SOL    HW117129   3.141   3.968   2.309
 5559SOL    HW217130   3.107   4.090   2.393
 5560SOL     OW17131   3.617   4.093   3.513
 5560SOL    HW117132   3.603   4.105   3.419
 5560SOL    HW217133   3.547   4.034   3.541
 5561SOL     OW17134   2.975   0.224   1.962
 5561SOL    HW117135   2.968   0.267   1.877
 5561SOL    HW217136   3.064   0.187   1.963
 5562SOL     OW17137   3.676   3.906   3.100
 5562SOL    HW117138   3.682   3.811   3.112
 5562SOL    HW217139   3.685   3.918   3.005
 5563SOL     OW17140   2.299   4.161   2.397
 5563SOL    HW117141   2.327   4.090   2.338
 5563SOL    HW217142   2.246   4.118   2.463
 5564SOL     OW17143   2.187   4.265   3.158
 5564SOL    HW117144   2.244   4.209   3.212
 5564SOL    HW217145   2.206   4.239   3.068
 5565SOL     OW17146   3.293   3.950   2.979
 5565SOL    HW117147   3.314   3.868   3.024
 5565SOL    HW217148   3.242   4.000   3.043
 5566SOL     OW17149   2.871   3.741   3.001
 5566SOL    HW117150   2.817   3.675   2.959
 5566SOL    HW217151   2.959   3.703   3.003
 5567SOL     OW17152   3.216   3.777   2.029
 5567SOL    HW117153   3.247   3.708   1.969
 5567SOL    HW217154   3.128   3.749   2.053
 5568SOL     OW17155   3.160   4.174   2.541
 5568SOL    HW117156   3.132   4.265   2.555
 5568SOL    HW217157   3.159   4.135   2.628
 5569SOL     OW17158   3.447   3.922   2.741
 5569SOL    HW117159   3.390   3.947   2.814
 5569SOL    HW217160   3.448   4.000   2.685
 5570SOL     OW17161   2.082   4.281   3.847
 5570SOL    HW117162   2.046   4.361   3.884
 5570SOL    HW217163   2.078   4.294   3.752
 5571SOL     OW17164   2.086   4.001   4.715
 5571SOL    HW117165   2.113   3.967   4.800
 5571SOL    HW217166   1.996   3.971   4.705
 5572SOL     OW17167   1.864   4.099   4.366
 5572SOL    HW117168   1.785   4.132   4.408
 5572SOL    HW217169   1.836   4.022   4.317
 5573SOL     OW17170   3.586   4.335   3.964
 5573SOL    HW117171   3.589   4.325   3.869
 5573SOL    HW217172   3.590   4.245   3.997
 5574SOL     OW17173   2.591   0.278   4.412
 5574SOL    HW117174   2.582   0.212   4.481
 5574SOL    HW217175   2.506   0.279   4.369
 5575SOL     OW17176   2.313   4.111   5.205
 5575SOL    HW117177   2.390   4.054   5.213
 5575SOL    HW217178   2.239   4.054   5.226
 5576SOL     OW17179   3.475   4.169   4.466
 5576SOL    HW117180   3.412   4.195   4.398
 5576SOL    HW217181   3.463   4.234   4.536
 5577SOL     OW17182   3.458   3.849   5.190
 5577SOL    HW117183   3.473   3.930   5.141
 5577SOL    HW217184   3.440   3.878   5.280
 5578SOL     OW17185   1.925   4.382   4.304
 5578SOL    HW117186   1.925   4.287   4.317
 5578SOL    HW217187   2.005   4.412   4.347
 5579SOL     OW17188   1.980   4.479   5.307
 5579SOL    HW117189   2.045   0.000   5.375
 5579SOL    HW217190   1.952   0.065   5.274
 5580SOL     OW17191   2.679   3.727   4.234
 5580SOL    HW117192   2.720   3.811   4.213
 5580SOL    HW217193   2.586   3.746   4.241
 5581SOL     OW17194   2.198   3.972   5.542
 5581SOL    HW117195   2.234   4.060   5.556
 5581SOL    HW217196   2.106   3.980   5.565
 5582SOL     OW17197   3.139   4.078   4.657
 5582SOL    HW117198   3.049   4.045   4.668
 5582SOL    HW217199   3.191   4.025   4.717
 5583SOL     OW17200   2.695   4.298   5.169
 5583SOL    HW117201   2.655   4.302   5.256
 5583SOL    HW217202   2.626   4.262   5.112
 5584SOL     OW17203   3.256   4.200   5.401
 5584SOL    HW117204   3.261   4.245   5.485
 5584SOL    HW217205   3.312   4.123   5.411
 5585SOL     OW17206   2.861   4.155   4.956
 5585SOL    HW117207   2.792   4.179   5.018
 5585SOL    HW217208   2.818   4.096   4.894
 5586SOL     OW17209   2.917   4.412   4.137
 5586SOL    HW117210   2.912   4.460   4.220
 5586SOL    HW217211   2.832   4.369   4.129
 5587SOL     OW17212   2.759   4.066   3.912
 5587SOL    HW117213   2.798   4.130   3.852
 5587SOL    HW217214   2.775   3.982   3.871
 5588SOL     OW17215   3.575   4.300   5.555
 5588SOL    HW117216   3.590   4.386   5.517
 5588SOL    HW217217   3.593   4.238   5.485
 5589SOL     OW17218   2.412   3.902   4.618
 5589SOL    HW117219   2.414   3.931   4.709
 5589SOL    HW217220   2.410   3.983   4.568
 5590SOL     OW17221   3.355   4.469   4.463
 5590SOL    HW117222   3.341   4.412   4.539
 5590SOL    HW217223   3.395   0.048   4.499
 5591SOL     OW17224   2.061   3.999   5.229
 5591SOL    HW117225   1.977   4.045   5.226
 5591SOL    HW217226   2.043   3.919   5.280
 5592SOL     OW17227   3.263   3.830   4.160
 5592SOL    HW117228   3.255   3.805   4.068
 5592SOL    HW217229   3.357   3.838   4.174
 5593SOL     OW17230   2.215   4.391   4.130
 5593SOL    HW117231   2.251   4.312   4.172
 5593SOL    HW217232   2.150   4.423   4.192
 5594SOL     OW17233   3.393   3.949   5.449
 5594SOL    HW117234   3.402   3.970   5.542
 5594SOL    HW217235   3.325   3.882   5.446
 5595SOL     OW17236   2.501   3.844   3.828
 5595SOL    HW117237   2.565   3.774   3.843
 5595SOL    HW217238   2.449   3.813   3.753
 5596SOL     OW17239   2.625   4.002   5.479
 5596SOL    HW117240   2.705   3.949   5.476
 5596SOL    HW217241   2.579   3.973   5.558
 5597SOL     OW17242   3.201   4.314   5.155
 5597SOL    HW117243   3.223   4.276   5.240
 5597SOL    HW217244   3.251   4.395   5.151
 5598SOL     OW17245   2.788   4.233   4.618
 5598SOL    HW117246   2.764   4.217   4.527
 5598SOL    HW217247   2.826   4.151   4.648
 5599SOL     OW17248   2.413   3.788   4.223
 5599SOL    HW117249   2.332   3.787   4.275
 5599SOL    HW217250   2.405   3.865   4.167
 5600SOL     OW17251   2.152   3.772   3.910
 5600SOL    HW117252   2.210   3.836   3.868
 5600SOL    HW217253   2.212   3.709   3.951
 5601SOL     OW17254   2.802   3.974   4.181
 5601SOL    HW117255   2.778   4.011   4.096
 5601SOL    HW217256   2.897   3.988   4.187
 5602SOL     OW17257   2.935   4.393   5.258
 5602SOL    HW117258   2.854   4.364   5.217
 5602SOL    HW217259   3.004   4.361   5.200
 5603SOL     OW17260   2.887   4.262   3.754
 5603SOL    HW117261   2.872   4.349   3.717
 5603SOL    HW217262   2.952   4.275   3.823
 5604SOL     OW17263   1.939   4.281   5.119
 5604SOL    HW117264   2.030   4.272   5.092
 5604SOL    HW217265   1.939   4.355   5.180
 5605SOL     OW17266   2.419   3.950   4.890
 5605SOL    HW117267   2.463   3.878   4.935
 5605SOL    HW217268   2.329   3.946   4.921
 5606SOL     OW17269   2.729   4.189   4.358
 5606SOL    HW117270   2.700   4.249   4.290
 5606SOL    HW217271   2.750   4.108   4.312
 5607SOL     OW17272   2.878   3.778   4.473
 5607SOL    HW117273   2.819   3.770   4.397
 5607SOL    HW217274   2.855   3.703   4.528
 5608SOL     OW17275   3.340   4.307   4.683
 5608SOL    HW117276   3.274   4.241   4.703
 5608SOL    HW217277   3.389   4.318   4.764
 5609SOL     OW17278   3.267   4.296   3.798
 5609SOL    HW117279   3.203   4.267   3.863
 5609SOL    HW217280   3.349   4.255   3.824
 5610SOL     OW17281   2.389   3.989   4.040
 5610SOL    HW117282   2.434   3.940   3.970
 5610SOL    HW217283   2.370   4.074   4.001
 5611SOL     OW17284   2.780   3.820   5.116
 5611SOL    HW117285   2.804   3.799   5.026
 5611SOL    HW217286   2.859   3.858   5.154
 5612SOL     OW17287   2.300   0.010   5.010
 5612SOL    HW117288   2.371   4.497   5.074
 5612SOL    HW217289   2.256   4.425   5.006
 5613SOL     OW17290   3.126   4.099   5.002
 5613SOL    HW117291   3.159   4.177   5.047
 5613SOL    HW217292   3.037   4.122   4.976
 5614SOL     OW17293   2.414   4.249   4.588
 5614SOL    HW117294   2.433   4.285   4.502
 5614SOL    HW217295   2.480   4.288   4.645
 5615SOL     OW17296   3.427   4.334   4.207
 5615SOL    HW117297   3.406   4.400   4.274
 5615SOL    HW217298   3.488   4.378   4.148
 5616SOL     OW17299   2.857   3.853   5.479
 5616SOL    HW117300   2.917   3.925   5.456
 5616SOL    HW217301   2.905   3.774   5.454
 5617SOL     OW17302   2.359   3.763   5.472
 5617SOL    HW117303   2.314   3.709   5.408
 5617SOL    HW217304   2.301   3.838   5.486
 5618SOL     OW17305   3.069   4.252   3.984
 5618SOL    HW117306   3.080   4.173   4.037
 5618SOL    HW217307   3.021   4.312   4.041
 5619SOL     OW17308   2.159   3.920   4.971
 5619SOL    HW117309   2.122   3.953   5.053
 5619SOL    HW217310   2.140   3.827   4.972
 5620SOL     OW17311   2.596   4.361   4.761
 5620SOL    HW117312   2.670   4.322   4.714
 5620SOL    HW217313   2.612   4.455   4.756
 5621SOL     OW17314   3.616   0.130   5.575
 5621SOL    HW117315   3.545   0.147   5.513
 5621SOL    HW217316   3.577   0.147   5.661
 5622SOL     OW17317   2.168   3.787   4.348
 5622SOL    HW117318   2.145   3.878   4.369
 5622SOL    HW217319   2.175   3.743   4.433
 5623SOL     OW17320   3.478   4.091   4.090
 5623SOL    HW117321   3.509   4.030   4.156
 5623SOL    HW217322   3.451   4.169   4.139
 5624SOL     OW17323   3.385   3.999   3.850
 5624SOL    HW117324   3.323   3.931   3.876
 5624SOL    HW217325   3.422   4.031   3.933
 5625SOL     OW17326   2.182   0.013   4.642
 5625SOL    HW117327   2.258   0.070   4.653
 5625SOL    HW217328   2.198   4.439   4.701
 5626SOL     OW17329   2.198   4.241   4.747
 5626SOL    HW117330   2.158   4.156   4.729
 5626SOL    HW217331   2.273   4.246   4.688
 5627SOL     OW17332   2.999   4.090   5.412
 5627SOL    HW117333   2.945   4.149   5.464
 5627SOL    HW217334   3.083   4.136   5.404
 5628SOL     OW17335   3.022   3.924   5.193
 5628SOL    HW117336   3.012   3.984   5.267
 5628SOL    HW217337   3.064   3.976   5.125
 5629SOL     OW17338   1.898   4.275   4.840
 5629SOL    HW117339   1.978   4.264   4.790
 5629SOL    HW217340   1.926   4.275   4.932
 5630SOL     OW17341   2.058   4.246   5.439
 5630SOL    HW117342   2.110   4.196   5.377
 5630SOL    HW217343   2.007   4.306   5.385
 5631SOL     OW17344   2.682   4.276   4.083
 5631SOL    HW117345   2.688   4.205   4.019
 5631SOL    HW217346   2.596   4.315   4.067
 5632SOL     OW17347   3.496   4.315   4.907
 5632SOL    HW117348   3.493   4.257   4.984
 5632SOL    HW217349   3.585   4.304   4.873
 5633SOL     OW17350   2.547   4.184   4.973
 5633SOL    HW117351   2.501   4.106   4.942
 5633SOL    HW217352   2.549   4.242   4.896
 5634SOL     OW17353   2.341   4.224   3.913
 5634SOL    HW117354   2.367   4.312   3.942
 5634SOL    HW217355   2.247   4.232   3.897
 5635SOL     OW17356   3.585   3.874   4.234
 5635SOL    HW117357   3.655   3.858   4.171
 5635SOL    HW217358   3.568   3.788   4.272
 5636SOL     OW17359   3.141   0.134   4.402
 5636SOL    HW117360   3.199   0.061   4.422
 5636SOL    HW217361   3.191   0.189   4.342
 5637SOL     OW17362   3.703   3.895   4.691
 5637SOL    HW117363   3.732   3.807   4.664
 5637SOL    HW217364   3.617   3.905   4.650
 5638SOL     OW17365   2.123   4.040   4.440
 5638SOL    HW117366   2.035   4.069   4.416
 5638SOL    HW217367   2.120   4.030   4.536
 5639SOL     OW17368   2.765   0.088   3.931
 5639SOL    HW117369   2.845   0.126   3.895
 5639SOL    HW217370   2.788   0.059   4.019
 5640SOL     OW17371   2.927   0.292   4.473
 5640SOL    HW117372   2.859   0.289   4.406
 5640SOL    HW217373   2.993   0.229   4.442
 5641SOL     OW17374   2.884   3.964   4.687
 5641SOL    HW117375   2.880   3.915   4.605
 5641SOL    HW217376   2.879   3.897   4.756
 5642SOL     OW17377   3.586   4.114   5.104
 5642SOL    HW117378   3.657   4.178   5.102
 5642SOL    HW217379   3.616   4.043   5.047
 5643SOL     OW17380   2.538   3.918   5.224
 5643SOL    HW117381   2.622   3.898   5.183
 5643SOL    HW217382   2.560   3.952   5.311
 5644SOL     OW17383   1.937   4.036   3.753
 5644SOL    HW117384   1.855   4.035   3.702
 5644SOL    HW217385   1.969   4.126   3.744
 5645SOL     OW17386   1.927   3.878   4.031
 5645SOL    HW117387   1.912   3.956   3.977
 5645SOL    HW217388   2.012   3.845   4.001
 5646SOL     OW17389   2.595   4.280   5.422
 5646SOL    HW117390   2.589   4.324   5.507
 5646SOL    HW217391   2.606   4.187   5.445
 5647SOL     OW17392   3.079   4.041   4.177
 5647SOL    HW117393   3.141   3.968   4.171
 5647SOL    HW217394   3.107   4.090   4.255
 5648SOL     OW17395   3.617   4.093   5.375
 5648SOL    HW117396   3.603   4.105   5.281
 5648SOL    HW217397   3.547   4.034   5.403
 5649SOL     OW17398   2.975   0.224   3.824
 5649SOL    HW117399   2.969   0.268   3.739
 5649SOL    HW217400   3.064   0.187   3.825
 5650SOL     OW17401   3.676   3.906   4.962
 5650SOL    HW117402   3.681   3.811   4.974
 5650SOL    HW217403   3.685   3.918   4.867
 5651SOL     OW17404   2.299   4.161   4.259
 5651SOL    HW117405   2.327   4.091   4.200
 5651SOL    HW217406   2.246   4.117   4.325
 5652SOL     OW17407   2.187   4.264   5.020
 5652SOL    HW117408   2.244   4.209   5.074
 5652SOL    HW217409   2.206   4.239   4.930
 5653SOL     OW17410   3.293   3.950   4.841
 5653SOL    HW117411   3.313   3.868   4.885
 5653SOL    HW217412   3.242   4.000   4.905
 5654SOL     OW17413   2.871   3.741   4.863
 5654SOL    HW117414   2.817   3.675   4.822
 5654SOL    HW217415   2.959   3.703   4.865
 5655SOL     OW17416   3.216   3.777   3.891
 5655SOL    HW117417   3.247   3.708   3.831
 5655SOL    HW217418   3.128   3.749   3.915
 5656SOL     OW17419   3.160   4.174   4.403
 5656SOL    HW117420   3.132   4.264   4.417
 5656SOL    HW217421   3.158   4.135   4.490
 5657SOL     OW17422   3.447   3.922   4.604
 5657SOL    HW117423   3.390   3.946   4.677
 5657SOL    HW217424   3.448   4.000   4.547
 5658SOL     OW17425   2.082   4.281   5.709
 5658SOL    HW117426   2.045   4.361   5.746
 5658SOL    HW217427   2.078   4.294   5.614
 5659SOL     OW17428   2.086   4.001   6.577
 5659SOL    HW117429   2.113   3.967   6.662
 5659SOL    HW217430   1.996   3.971   6.567
 5660SOL     OW17431   1.864   4.100   6.229
 5660SOL    HW117432   1.785   4.132   6.270
 5660SOL    HW217433   1.836   4.023   6.179
 5661SOL     OW17434   3.586   4.335   5.826
 5661SOL    HW117435   3.589   4.325   5.731
 5661SOL    HW217436   3.590   4.245   5.859
 5662SOL     OW17437   2.591   0.278   6.275
 5662SOL    HW117438   2.583   0.211   6.343
 5662SOL    HW217439   2.507   0.277   6.230
 5663SOL     OW17440   2.313   4.111   7.066
 5663SOL    HW117441   2.390   4.054   7.075
 5663SOL    HW217442   2.239   4.054   7.088
 5664SOL     OW17443   3.475   4.169   6.328
 5664SOL    HW117444   3.412   4.195   6.260
 5664SOL    HW217445   3.464   4.234   6.397
 5665SOL     OW17446   3.458   3.849   7.053
 5665SOL    HW117447   3.473   3.930   7.003
 5665SOL    HW217448   3.440   3.879   7.142
 5666SOL     OW17449   1.925   4.382   6.165
 5666SOL    HW117450   1.925   4.287   6.178
 5666SOL    HW217451   2.005   4.412   6.209
 5667SOL     OW17452   1.980   4.479   7.169
 5667SOL    HW117453   2.045   4.500   7.237
 5667SOL    HW217454   1.951   0.065   7.137
 5668SOL     OW17455   2.680   3.728   6.097
 5668SOL    HW117456   2.719   3.812   6.075
 5668SOL    HW217457   2.586   3.746   6.104
 5669SOL     OW17458   2.199   3.972   7.405
 5669SOL    HW117459   2.234   4.060   7.418
 5669SOL    HW217460   2.106   3.980   7.427
 5670SOL     OW17461   3.139   4.078   6.519
 5670SOL    HW117462   3.049   4.045   6.530
 5670SOL    HW217463   3.191   4.025   6.579
 5671SOL     OW17464   2.695   4.299   7.031
 5671SOL    HW117465   2.655   4.303   7.118
 5671SOL    HW217466   2.627   4.262   6.974
 5672SOL     OW17467   3.256   4.200   7.263
 5672SOL    HW117468   3.261   4.245   7.347
 5672SOL    HW217469   3.312   4.123   7.273
 5673SOL     OW17470   2.861   4.154   6.818
 5673SOL    HW117471   2.792   4.179   6.879
 5673SOL    HW217472   2.818   4.097   6.755
 5674SOL     OW17473   2.916   4.413   5.999
 5674SOL    HW117474   2.911   4.459   6.082
 5674SOL    HW217475   2.831   4.369   5.991
 5675SOL     OW17476   2.759   4.067   5.775
 5675SOL    HW117477   2.798   4.130   5.714
 5675SOL    HW217478   2.773   3.982   5.733
 5676SOL     OW17479   3.574   4.300   7.417
 5676SOL    HW117480   3.590   4.386   7.379
 5676SOL    HW217481   3.593   4.239   7.347
 5677SOL     OW17482   2.412   3.902   6.480
 5677SOL    HW117483   2.414   3.931   6.571
 5677SOL    HW217484   2.410   3.983   6.429
 5678SOL     OW17485   3.354   4.469   6.326
 5678SOL    HW117486   3.341   4.412   6.402
 5678SOL    HW217487   3.395   0.048   6.361
 5679SOL     OW17488   2.061   3.998   7.092
 5679SOL    HW117489   1.977   4.044   7.088
 5679SOL    HW217490   2.042   3.917   7.140
 5680SOL     OW17491   3.262   3.829   6.022
 5680SOL    HW117492   3.254   3.804   5.930
 5680SOL    HW217493   3.357   3.838   6.036
 5681SOL     OW17494   2.216   4.391   5.992
 5681SOL    HW117495   2.251   4.312   6.034
 5681SOL    HW217496   2.150   4.423   6.054
 5682SOL     OW17497   3.393   3.950   7.311
 5682SOL    HW117498   3.403   3.970   7.404
 5682SOL    HW217499   3.325   3.882   7.308
 5683SOL     OW17500   2.501   3.844   5.690
 5683SOL    HW117501   2.564   3.773   5.706
 5683SOL    HW217502   2.450   3.814   5.615
 5684SOL     OW17503   2.625   4.002   7.341
 5684SOL    HW117504   2.704   3.949   7.339
 5684SOL    HW217505   2.579   3.973   7.420
 5685SOL     OW17506   3.201   4.313   7.017
 5685SOL    HW117507   3.223   4.276   7.102
 5685SOL    HW217508   3.251   4.395   7.012
 5686SOL     OW17509   2.788   4.233   6.480
 5686SOL    HW117510   2.764   4.217   6.389
 5686SOL    HW217511   2.826   4.151   6.510
 5687SOL     OW17512   2.413   3.788   6.085
 5687SOL    HW117513   2.332   3.787   6.137
 5687SOL    HW217514   2.405   3.865   6.029
 5688SOL     OW17515   2.152   3.772   5.771
 5688SOL    HW117516   2.210   3.836   5.729
 5688SOL    HW217517   2.212   3.709   5.813
 5689SOL     OW17518   2.802   3.975   6.043
 5689SOL    HW117519   2.778   4.011   5.958
 5689SOL    HW217520   2.897   3.988   6.049
 5690SOL     OW17521   2.935   4.393   7.120
 5690SOL    HW117522   2.854   4.364   7.079
 5690SOL    HW217523   3.004   4.361   7.062
 5691SOL     OW17524   2.887   4.262   5.616
 5691SOL    HW117525   2.873   4.349   5.579
 5691SOL    HW217526   2.952   4.275   5.685
 5692SOL     OW17527   1.939   4.281   6.981
 5692SOL    HW117528   2.031   4.272   6.954
 5692SOL    HW217529   1.939   4.355   7.042
 5693SOL     OW17530   2.419   3.950   6.752
 5693SOL    HW117531   2.462   3.878   6.796
 5693SOL    HW217532   2.329   3.947   6.782
 5694SOL     OW17533   2.729   4.189   6.220
 5694SOL    HW117534   2.700   4.249   6.152
 5694SOL    HW217535   2.750   4.108   6.174
 5695SOL     OW17536   2.876   3.778   6.335
 5695SOL    HW117537   2.819   3.770   6.259
 5695SOL    HW217538   2.855   3.702   6.390
 5696SOL     OW17539   3.340   4.308   6.545
 5696SOL    HW117540   3.274   4.241   6.565
 5696SOL    HW217541   3.389   4.318   6.627
 5697SOL     OW17542   3.267   4.296   5.660
 5697SOL    HW117543   3.203   4.267   5.725
 5697SOL    HW217544   3.349   4.254   5.686
 5698SOL     OW17545   2.390   3.988   5.902
 5698SOL    HW117546   2.434   3.940   5.832
 5698SOL    HW217547   2.370   4.074   5.863
 5699SOL     OW17548   2.780   3.819   6.979
 5699SOL    HW117549   2.804   3.799   6.888
 5699SOL    HW217550   2.860   3.858   7.016
 5700SOL     OW17551   2.300   0.010   6.872
 5700SOL    HW117552   2.370   4.497   6.936
 5700SOL    HW217553   2.256   4.425   6.868
 5701SOL     OW17554   3.126   4.099   6.864
 5701SOL    HW117555   3.159   4.176   6.909
 5701SOL    HW217556   3.037   4.122   6.839
 5702SOL     OW17557   2.414   4.249   6.450
 5702SOL    HW117558   2.433   4.284   6.363
 5702SOL    HW217559   2.480   4.288   6.507
 5703SOL     OW17560   3.427   4.334   6.069
 5703SOL    HW117561   3.406   4.400   6.135
 5703SOL    HW217562   3.488   4.378   6.010
 5704SOL     OW17563   2.857   3.853   7.341
 5704SOL    HW117564   2.916   3.925   7.319
 5704SOL    HW217565   2.905   3.774   7.315
 5705SOL     OW17566   2.359   3.762   7.335
 5705SOL    HW117567   2.313   3.708   7.270
 5705SOL    HW217568   2.302   3.837   7.349
 5706SOL     OW17569   3.069   4.252   5.846
 5706SOL    HW117570   3.080   4.173   5.899
 5706SOL    HW217571   3.021   4.312   5.903
 5707SOL     OW17572   2.159   3.921   6.833
 5707SOL    HW117573   2.121   3.953   6.915
 5707SOL    HW217574   2.141   3.827   6.834
 5708SOL     OW17575   2.596   4.361   6.623
 5708SOL    HW117576   2.670   4.322   6.576
 5708SOL    HW217577   2.612   4.455   6.617
 5709SOL     OW17578   3.616   0.130   7.437
 5709SOL    HW117579   3.545   0.147   7.375
 5709SOL    HW217580   3.577   0.147   7.523
 5710SOL     OW17581   2.167   3.787   6.209
 5710SOL    HW117582   2.145   3.877   6.231
 5710SOL    HW217583   2.175   3.743   6.294
 5711SOL     OW17584   3.478   4.091   5.952
 5711SOL    HW117585   3.509   4.030   6.018
 5711SOL    HW217586   3.451   4.168   6.001
 5712SOL     OW17587   3.385   3.999   5.712
 5712SOL    HW117588   3.323   3.931   5.738
 5712SOL    HW217589   3.422   4.031   5.795
 5713SOL     OW17590   2.182   0.013   6.504
 5713SOL    HW117591   2.258   0.069   6.515
 5713SOL    HW217592   2.198   4.439   6.563
 5714SOL     OW17593   2.198   4.241   6.609
 5714SOL    HW117594   2.158   4.156   6.591
 5714SOL    HW217595   2.273   4.246   6.550
 5715SOL     OW17596   2.999   4.090   7.274
 5715SOL    HW117597   2.945   4.149   7.326
 5715SOL    HW217598   3.083   4.135   7.266
 5716SOL     OW17599   3.022   3.923   7.056
 5716SOL    HW117600   3.012   3.984   7.129
 5716SOL    HW217601   3.064   3.975   6.987
 5717SOL     OW17602   1.898   4.276   6.702
 5717SOL    HW117603   1.978   4.264   6.652
 5717SOL    HW217604   1.926   4.276   6.794
 5718SOL     OW17605   2.058   4.246   7.301
 5718SOL    HW117606   2.108   4.194   7.239
 5718SOL    HW217607   2.007   4.306   7.247
 5719SOL     OW17608   2.682   4.276   5.945
 5719SOL    HW117609   2.689   4.205   5.882
 5719SOL    HW217610   2.595   4.314   5.928
 5720SOL     OW17611   3.496   4.315   6.769
 5720SOL    HW117612   3.493   4.257   6.846
 5720SOL    HW217613   3.584   4.304   6.735
 5721SOL     OW17614   2.548   4.184   6.834
 5721SOL    HW117615   2.501   4.106   6.804
 5721SOL    HW217616   2.550   4.242   6.758
 5722SOL     OW17617   2.341   4.224   5.776
 5722SOL    HW117618   2.367   4.312   5.804
 5722SOL    HW217619   2.247   4.232   5.759
 5723SOL     OW17620   3.585   3.874   6.096
 5723SOL    HW117621   3.656   3.858   6.033
 5723SOL    HW217622   3.568   3.788   6.134
 5724SOL     OW17623   3.141   0.135   6.265
 5724SOL    HW117624   3.199   0.061   6.285
 5724SOL    HW217625   3.191   0.187   6.202
 5725SOL     OW17626   3.703   3.895   6.553
 5725SOL    HW117627   3.732   3.808   6.526
 5725SOL    HW217628   3.617   3.905   6.512
 5726SOL     OW17629   2.123   4.040   6.302
 5726SOL    HW117630   2.035   4.069   6.278
 5726SOL    HW217631   2.120   4.030   6.398
 5727SOL     OW17632   2.765   0.088   5.793
 5727SOL    HW117633   2.846   0.126   5.757
 5727SOL    HW217634   2.789   0.057   5.880
 5728SOL     OW17635   2.927   0.292   6.335
 5728SOL    HW117636   2.859   0.289   6.268
 5728SOL    HW217637   2.993   0.230   6.305
 5729SOL     OW17638   2.883   3.964   6.549
 5729SOL    HW117639   2.880   3.915   6.467
 5729SOL    HW217640   2.879   3.897   6.618
 5730SOL     OW17641   3.586   4.114   6.967
 5730SOL    HW117642   3.657   4.178   6.964
 5730SOL    HW217643   3.616   4.043   6.909
 5731SOL     OW17644   2.538   3.918   7.086
 5731SOL    HW117645   2.622   3.898   7.045
 5731SOL    HW217646   2.560   3.952   7.172
 5732SOL     OW17647   1.936   4.037   5.615
 5732SOL    HW117648   1.855   4.035   5.565
 5732SOL    HW217649   1.969   4.126   5.605
 5733SOL     OW17650   1.928   3.878   5.893
 5733SOL    HW117651   1.912   3.956   5.839
 5733SOL    HW217652   2.012   3.846   5.863
 5734SOL     OW17653   2.595   4.280   7.284
 5734SOL    HW117654   2.587   4.324   7.369
 5734SOL    HW217655   2.606   4.187   7.307
 5735SOL     OW17656   3.079   4.042   6.039
 5735SOL    HW117657   3.141   3.969   6.033
 5735SOL    HW217658   3.108   4.090   6.117
 5736SOL     OW17659   3.617   4.093   7.237
 5736SOL    HW117660   3.603   4.105   7.143
 5736SOL    HW217661   3.547   4.034   7.265
 5737SOL     OW17662   2.975   0.224   5.686
 5737SOL    HW117663   2.969   0.267   5.601
 5737SOL    HW217664   3.064   0.187   5.687
 5738SOL     OW17665   3.676   3.905   6.824
 5738SOL    HW117666   3.682   3.811   6.836
 5738SOL    HW217667   3.685   3.918   6.729
 5739SOL     OW17668   2.299   4.161   6.120
 5739SOL    HW117669   2.327   4.091   6.062
 5739SOL    HW217670   2.246   4.117   6.187
 5740SOL     OW17671   2.187   4.265   6.882
 5740SOL    HW117672   2.244   4.209   6.935
 5740SOL    HW217673   2.206   4.239   6.792
 5741SOL     OW17674   3.293   3.950   6.703
 5741SOL    HW117675   3.314   3.868   6.747
 5741SOL    HW217676   3.242   4.000   6.767
 5742SOL     OW17677   2.871   3.741   6.725
 5742SOL    HW117678   2.817   3.675   6.682
 5742SOL    HW217679   2.959   3.703   6.727
 5743SOL     OW17680   3.217   3.776   5.753
 5743SOL    HW117681   3.248   3.708   5.694
 5743SOL    HW217682   3.128   3.749   5.777
 5744SOL     OW17683   3.160   4.174   6.265
 5744SOL    HW117684   3.132   4.264   6.279
 5744SOL    HW217685   3.159   4.135   6.352
 5745SOL     OW17686   3.447   3.923   6.465
 5745SOL    HW117687   3.390   3.947   6.538
 5745SOL    HW217688   3.448   4.000   6.409
 5746SOL     OW17689   2.083   4.281   7.571
 5746SOL    HW117690   2.045   4.360   7.608
 5746SOL    HW217691   2.078   4.294   7.476
 5747SOL     OW17692   2.086   4.001   8.439
 5747SOL    HW117693   2.113   3.967   8.524
 5747SOL    HW217694   1.996   3.971   8.429
 5748SOL     OW17695   1.864   4.100   8.090
 5748SOL    HW117696   1.785   4.132   8.132
 5748SOL    HW217697   1.836   4.023   8.041
 5749SOL     OW17698   3.586   4.335   7.688
 5749SOL    HW117699   3.589   4.325   7.593
 5749SOL    HW217700   3.590   4.245   7.721
 5750SOL     OW17701   2.591   0.278   8.137
 5750SOL    HW117702   2.582   0.212   8.205
 5750SOL    HW217703   2.506   0.278   8.092
 5751SOL     OW17704   2.313   4.111   8.928
 5751SOL    HW117705   2.390   4.054   8.937
 5751SOL    HW217706   2.239   4.054   8.950
 5752SOL     OW17707   3.475   4.169   8.190
 5752SOL    HW117708   3.412   4.195   8.122
 5752SOL    HW217709   3.464   4.234   8.259
 5753SOL     OW17710   3.458   3.849   8.915
 5753SOL    HW117711   3.473   3.930   8.865
 5753SOL    HW217712   3.440   3.879   9.004
 5754SOL     OW17713   1.926   4.382   8.027
 5754SOL    HW117714   1.925   4.287   8.040
 5754SOL    HW217715   2.005   4.411   8.072
 5755SOL     OW17716   1.980   4.479   9.031
 5755SOL    HW117717   2.044   4.500   9.099
 5755SOL    HW217718   1.951   0.065   8.999
 5756SOL     OW17719   2.680   3.727   7.959
 5756SOL    HW117720   2.720   3.811   7.937
 5756SOL    HW217721   2.586   3.746   7.966
 5757SOL     OW17722   2.199   3.972   9.267
 5757SOL    HW117723   2.234   4.060   9.280
 5757SOL    HW217724   2.106   3.980   9.289
 5758SOL     OW17725   3.139   4.078   8.381
 5758SOL    HW117726   3.049   4.045   8.392
 5758SOL    HW217727   3.191   4.025   8.441
 5759SOL     OW17728   2.695   4.299   8.893
 5759SOL    HW117729   2.655   4.303   8.980
 5759SOL    HW217730   2.627   4.262   8.836
 5760SOL     OW17731   3.256   4.200   9.125
 5760SOL    HW117732   3.260   4.245   9.209
 5760SOL    HW217733   3.312   4.123   9.135
 5761SOL     OW17734   2.861   4.154   8.680
 5761SOL    HW117735   2.792   4.179   8.742
 5761SOL    HW217736   2.818   4.097   8.617
 5762SOL     OW17737   2.916   4.412   7.861
 5762SOL    HW117738   2.912   4.460   7.944
 5762SOL    HW217739   2.832   4.369   7.853
 5763SOL     OW17740   2.759   4.066   7.636
 5763SOL    HW117741   2.798   4.130   7.576
 5763SOL    HW217742   2.774   3.982   7.595
 5764SOL     OW17743   3.574   4.300   9.279
 5764SOL    HW117744   3.590   4.386   9.241
 5764SOL    HW217745   3.594   4.239   9.208
 5765SOL     OW17746   2.413   3.902   8.342
 5765SOL    HW117747   2.414   3.930   8.434
 5765SOL    HW217748   2.410   3.983   8.292
 5766SOL     OW17749   3.354   4.469   8.187
 5766SOL    HW117750   3.341   4.412   8.263
 5766SOL    HW217751   3.395   0.048   8.223
 5767SOL     OW17752   2.061   3.998   8.954
 5767SOL    HW117753   1.977   4.044   8.950
 5767SOL    HW217754   2.042   3.918   9.002
 5768SOL     OW17755   3.263   3.829   7.884
 5768SOL    HW117756   3.255   3.805   7.792
 5768SOL    HW217757   3.357   3.839   7.898
 5769SOL     OW17758   2.215   4.391   7.854
 5769SOL    HW117759   2.251   4.312   7.896
 5769SOL    HW217760   2.149   4.422   7.915
 5770SOL     OW17761   3.393   3.949   9.173
 5770SOL    HW117762   3.403   3.970   9.266
 5770SOL    HW217763   3.325   3.883   9.170
 5771SOL     OW17764   2.501   3.844   7.552
 5771SOL    HW117765   2.564   3.774   7.567
 5771SOL    HW217766   2.449   3.814   7.477
 5772SOL     OW17767   2.625   4.002   9.203
 5772SOL    HW117768   2.704   3.949   9.201
 5772SOL    HW217769   2.579   3.974   9.282
 5773SOL     OW17770   3.201   4.313   8.879
 5773SOL    HW117771   3.223   4.276   8.964
 5773SOL    HW217772   3.251   4.395   8.875
 5774SOL     OW17773   2.788   4.233   8.342
 5774SOL    HW117774   2.764   4.217   8.251
 5774SOL    HW217775   2.826   4.151   8.372
 5775SOL     OW17776   2.413   3.788   7.947
 5775SOL    HW117777   2.333   3.787   7.999
 5775SOL    HW217778   2.405   3.865   7.891
 5776SOL     OW17779   2.152   3.772   7.634
 5776SOL    HW117780   2.210   3.836   7.592
 5776SOL    HW217781   2.212   3.709   7.675
 5777SOL     OW17782   2.802   3.974   7.905
 5777SOL    HW117783   2.778   4.011   7.820
 5777SOL    HW217784   2.897   3.988   7.911
 5778SOL     OW17785   2.936   4.393   8.982
 5778SOL    HW117786   2.854   4.364   8.941
 5778SOL    HW217787   3.004   4.361   8.924
 5779SOL     OW17788   2.887   4.262   7.478
 5779SOL    HW117789   2.873   4.349   7.441
 5779SOL    HW217790   2.952   4.275   7.547
 5780SOL     OW17791   1.939   4.281   8.843
 5780SOL    HW117792   2.030   4.272   8.816
 5780SOL    HW217793   1.939   4.355   8.904
 5781SOL     OW17794   2.419   3.950   8.614
 5781SOL    HW117795   2.462   3.878   8.659
 5781SOL    HW217796   2.328   3.947   8.644
 5782SOL     OW17797   2.729   4.189   8.082
 5782SOL    HW117798   2.700   4.249   8.014
 5782SOL    HW217799   2.750   4.108   8.036
 5783SOL     OW17800   2.877   3.778   8.197
 5783SOL    HW117801   2.819   3.770   8.121
 5783SOL    HW217802   2.855   3.702   8.252
 5784SOL     OW17803   3.340   4.308   8.407
 5784SOL    HW117804   3.274   4.241   8.427
 5784SOL    HW217805   3.389   4.318   8.488
 5785SOL     OW17806   3.267   4.296   7.522
 5785SOL    HW117807   3.203   4.267   7.587
 5785SOL    HW217808   3.349   4.255   7.548
 5786SOL     OW17809   2.390   3.988   7.764
 5786SOL    HW117810   2.434   3.940   7.694
 5786SOL    HW217811   2.370   4.074   7.725
 5787SOL     OW17812   2.781   3.819   8.841
 5787SOL    HW117813   2.804   3.799   8.750
 5787SOL    HW217814   2.860   3.858   8.878
 5788SOL     OW17815   2.300   0.010   8.734
 5788SOL    HW117816   2.370   4.497   8.798
 5788SOL    HW217817   2.256   4.425   8.730
 5789SOL     OW17818   3.126   4.099   8.726
 5789SOL    HW117819   3.159   4.176   8.771
 5789SOL    HW217820   3.037   4.122   8.700
 5790SOL     OW17821   2.414   4.249   8.312
 5790SOL    HW117822   2.433   4.285   8.226
 5790SOL    HW217823   2.480   4.288   8.369
 5791SOL     OW17824   3.427   4.334   7.931
 5791SOL    HW117825   3.406   4.400   7.998
 5791SOL    HW217826   3.489   4.378   7.872
 5792SOL     OW17827   2.857   3.853   9.203
 5792SOL    HW117828   2.916   3.925   9.181
 5792SOL    HW217829   2.905   3.774   9.177
 5793SOL     OW17830   2.359   3.762   9.197
 5793SOL    HW117831   2.313   3.708   9.132
 5793SOL    HW217832   2.302   3.837   9.211
 5794SOL     OW17833   3.069   4.252   7.708
 5794SOL    HW117834   3.080   4.173   7.761
 5794SOL    HW217835   3.021   4.312   7.765
 5795SOL     OW17836   2.159   3.921   8.695
 5795SOL    HW117837   2.121   3.953   8.777
 5795SOL    HW217838   2.141   3.827   8.696
 5796SOL     OW17839   2.596   4.361   8.485
 5796SOL    HW117840   2.670   4.322   8.438
 5796SOL    HW217841   2.611   4.455   8.480
 5797SOL     OW17842   3.616   0.130   9.299
 5797SOL    HW117843   3.545   0.147   9.237
 5797SOL    HW217844   3.577   0.147   9.385
 5798SOL     OW17845   2.168   3.787   8.072
 5798SOL    HW117846   2.146   3.878   8.093
 5798SOL    HW217847   2.175   3.743   8.156
 5799SOL     OW17848   3.477   4.091   7.814
 5799SOL    HW117849   3.509   4.030   7.880
 5799SOL    HW217850   3.451   4.169   7.863
 5800SOL     OW17851   3.385   3.999   7.574
 5800SOL    HW117852   3.323   3.931   7.600
 5800SOL    HW217853   3.422   4.031   7.657
 5801SOL     OW17854   2.182   0.012   8.366
 5801SOL    HW117855   2.258   0.069   8.377
 5801SOL    HW217856   2.198   4.439   8.426
 5802SOL     OW17857   2.198   4.241   8.471
 5802SOL    HW117858   2.158   4.156   8.453
 5802SOL    HW217859   2.273   4.246   8.412
 5803SOL     OW17860   2.999   4.090   9.136
 5803SOL    HW117861   2.945   4.149   9.188
 5803SOL    HW217862   3.083   4.135   9.128
 5804SOL     OW17863   3.023   3.923   8.918
 5804SOL    HW117864   3.012   3.984   8.991
 5804SOL    HW217865   3.064   3.975   8.849
 5805SOL     OW17866   1.898   4.276   8.564
 5805SOL    HW117867   1.978   4.264   8.514
 5805SOL    HW217868   1.926   4.276   8.656
 5806SOL     OW17869   2.058   4.246   9.163
 5806SOL    HW117870   2.109   4.194   9.100
 5806SOL    HW217871   2.007   4.306   9.109
 5807SOL     OW17872   2.682   4.276   7.807
 5807SOL    HW117873   2.688   4.205   7.743
 5807SOL    HW217874   2.596   4.315   7.791
 5808SOL     OW17875   3.496   4.314   8.631
 5808SOL    HW117876   3.493   4.258   8.708
 5808SOL    HW217877   3.585   4.304   8.597
 5809SOL     OW17878   2.548   4.184   8.696
 5809SOL    HW117879   2.501   4.106   8.666
 5809SOL    HW217880   2.550   4.242   8.620
 5810SOL     OW17881   2.341   4.224   7.638
 5810SOL    HW117882   2.367   4.312   7.667
 5810SOL    HW217883   2.247   4.232   7.621
 5811SOL     OW17884   3.585   3.874   7.958
 5811SOL    HW117885   3.655   3.858   7.895
 5811SOL    HW217886   3.568   3.788   7.996
 5812SOL     OW17887   3.141   0.135   8.126
 5812SOL    HW117888   3.199   0.061   8.146
 5812SOL    HW217889   3.191   0.188   8.065
 5813SOL     OW17890   3.703   3.895   8.415
 5813SOL    HW117891   3.732   3.808   8.388
 5813SOL    HW217892   3.617   3.905   8.374
 5814SOL     OW17893   2.123   4.040   8.164
 5814SOL    HW117894   2.034   4.069   8.140
 5814SOL    HW217895   2.119   4.030   8.260
 5815SOL     OW17896   2.765   0.088   7.655
 5815SOL    HW117897   2.845   0.126   7.620
 5815SOL    HW217898   2.789   0.058   7.742
 5816SOL     OW17899   2.927   0.292   8.196
 5816SOL    HW117900   2.859   0.289   8.130
 5816SOL    HW217901   2.993   0.229   8.166
 5817SOL     OW17902   2.884   3.964   8.411
 5817SOL    HW117903   2.880   3.915   8.329
 5817SOL    HW217904   2.879   3.898   8.480
 5818SOL     OW17905   3.586   4.114   8.829
 5818SOL    HW117906   3.657   4.178   8.826
 5818SOL    HW217907   3.616   4.043   8.771
 5819SOL     OW17908   2.538   3.918   8.948
 5819SOL    HW117909   2.622   3.898   8.907
 5819SOL    HW217910   2.560   3.952   9.034
 5820SOL     OW17911   1.937   4.036   7.476
 5820SOL    HW117912   1.855   4.034   7.428
 5820SOL    HW217913   1.969   4.126   7.466
 5821SOL     OW17914   1.927   3.878   7.755
 5821SOL    HW117915   1.912   3.956   7.701
 5821SOL    HW217916   2.012   3.845   7.725
 5822SOL     OW17917   2.595   4.280   9.146
 5822SOL    HW117918   2.587   4.324   9.230
 5822SOL    HW217919   2.607   4.188   9.169
 5823SOL     OW17920   3.079   4.041   7.901
 5823SOL    HW117921   3.141   3.968   7.895
 5823SOL    HW217922   3.107   4.090   7.979
 5824SOL     OW17923   3.617   4.093   9.099
 5824SOL    HW117924   3.603   4.105   9.005
 5824SOL    HW217925   3.547   4.034   9.127
 5825SOL     OW17926   2.975   0.224   7.548
 5825SOL    HW117927   2.968   0.267   7.463
 5825SOL    HW217928   3.064   0.187   7.549
 5826SOL     OW17929   3.675   3.905   8.686
 5826SOL    HW117930   3.682   3.811   8.698
 5826SOL    HW217931   3.684   3.918   8.591
 5827SOL     OW17932   2.299   4.161   7.983
 5827SOL    HW117933   2.327   4.090   7.924
 5827SOL    HW217934   2.246   4.118   8.049
 5828SOL     OW17935   2.187   4.265   8.744
 5828SOL    HW117936   2.244   4.209   8.798
 5828SOL    HW217937   2.206   4.239   8.654
 5829SOL     OW17938   3.293   3.950   8.565
 5829SOL    HW117939   3.314   3.868   8.610
 5829SOL    HW217940   3.242   4.000   8.629
 5830SOL     OW17941   2.871   3.741   8.587
 5830SOL    HW117942   2.817   3.675   8.545
 5830SOL    HW217943   2.959   3.703   8.589
 5831SOL     OW17944   3.216   3.777   7.615
 5831SOL    HW117945   3.247   3.709   7.555
 5831SOL    HW217946   3.128   3.749   7.639
 5832SOL     OW17947   3.160   4.174   8.127
 5832SOL    HW117948   3.132   4.265   8.141
 5832SOL    HW217949   3.158   4.135   8.214
 5833SOL     OW17950   3.447   3.922   8.327
 5833SOL    HW117951   3.390   3.947   8.400
 5833SOL    HW217952   3.448   4.000   8.271
 5834SOL     OW17953   2.083   4.281   9.433
 5834SOL    HW117954   2.045   4.360   9.471
 5834SOL    HW217955   2.078   4.295   9.338
 5835SOL     OW17956   2.087   4.000  10.300
 5835SOL    HW117957   2.114   3.967  10.386
 5835SOL    HW217958   1.996   3.971  10.290
 5836SOL     OW17959   1.864   4.100   9.952
 5836SOL    HW117960   1.785   4.132   9.994
 5836SOL    HW217961   1.836   4.022   9.903
 5837SOL     OW17962   3.586   4.335   9.550
 5837SOL    HW117963   3.589   4.325   9.455
 5837SOL    HW217964   3.590   4.245   9.583
 5838SOL     OW17965   2.591   0.278   9.998
 5838SOL    HW117966   2.581   0.213  10.068
 5838SOL    HW217967   2.506   0.279   9.954
 5839SOL     OW17968   2.319   4.114  10.787
 5839SOL    HW117969   2.389   4.048  10.794
 5839SOL    HW217970   2.240   4.068  10.815
 5840SOL     OW17971   3.475   4.169  10.052
 5840SOL    HW117972   3.413   4.195   9.984
 5840SOL    HW217973   3.465   4.234  10.121
 5841SOL     OW17974   3.452   3.842  10.776
 5841SOL    HW117975   3.474   3.922  10.729
 5841SOL    HW217976   3.455   3.867  10.868
 5842SOL     OW17977   1.926   4.381   9.889
 5842SOL    HW117978   1.925   4.287   9.902
 5842SOL    HW217979   2.005   4.411   9.934
 5843SOL     OW17980   1.998   4.461  10.903
 5843SOL    HW117981   2.094   4.463  10.902
 5843SOL    HW217982   1.972   0.053  10.895
 5844SOL     OW17983   2.680   3.727   9.821
 5844SOL    HW117984   2.720   3.811   9.799
 5844SOL    HW217985   2.586   3.746   9.828
 5845SOL     OW17986   2.210   3.975   0.022
 5845SOL    HW117987   2.251   4.060   0.039
 5845SOL    HW217988   2.116   3.992   0.032
 5846SOL     OW17989   3.139   4.078  10.244
 5846SOL    HW117990   3.050   4.045  10.254
 5846SOL    HW217991   3.191   4.024  10.303
 5847SOL     OW17992   2.688   4.299  10.762
 5847SOL    HW117993   2.640   4.312  10.843
 5847SOL    HW217994   2.624   4.260  10.702
 5848SOL     OW17995   2.862   4.153  10.543
 5848SOL    HW117996   2.788   4.176  10.600
 5848SOL    HW217997   2.823   4.098  10.476
 5849SOL     OW17998   2.917   4.412   9.723
 5849SOL    HW117999   2.911   4.460   9.806
 5849SOL    HW218000   2.832   4.369   9.715
 5850SOL     OW18001   2.759   4.066   9.498
 5850SOL    HW118002   2.798   4.130   9.438
 5850SOL    HW218003   2.775   3.982   9.457
 5851SOL     OW18004   2.413   3.902  10.205
 5851SOL    HW118005   2.414   3.931  10.296
 5851SOL    HW218006   2.410   3.983  10.154
 5852SOL     OW18007   3.355   4.469  10.049
 5852SOL    HW118008   3.341   4.412  10.126
 5852SOL    HW218009   3.395   0.048  10.085
 5853SOL     OW18010   2.066   3.998  10.809
 5853SOL    HW118011   1.987   4.052  10.815
 5853SOL    HW218012   2.049   3.925  10.869
 5854SOL     OW18013   3.263   3.829   9.746
 5854SOL    HW118014   3.255   3.805   9.654
 5854SOL    HW218015   3.357   3.839   9.760
 5855SOL     OW18016   2.215   4.390   9.716
 5855SOL    HW118017   2.251   4.312   9.758
 5855SOL    HW218018   2.149   4.423   9.777
 5856SOL     OW18019   2.501   3.844   9.414
 5856SOL    HW118020   2.565   3.774   9.429
 5856SOL    HW218021   2.449   3.814   9.339
 5857SOL     OW18022   2.624   4.009  11.047
 5857SOL    HW118023   2.692   3.950  11.079
 5857SOL    HW218024   2.562   4.017   0.019
 5858SOL     OW18025   3.212   4.312  10.742
 5858SOL    HW118026   3.225   4.296  10.835
 5858SOL    HW218027   3.247   4.399  10.727
 5859SOL     OW18028   2.788   4.234  10.204
 5859SOL    HW118029   2.764   4.218  10.113
 5859SOL    HW218030   2.826   4.151  10.234
 5860SOL     OW18031   2.413   3.788   9.809
 5860SOL    HW118032   2.333   3.787   9.861
 5860SOL    HW218033   2.405   3.865   9.753
 5861SOL     OW18034   2.152   3.772   9.496
 5861SOL    HW118035   2.210   3.836   9.454
 5861SOL    HW218036   2.212   3.709   9.537
 5862SOL     OW18037   2.802   3.974   9.767
 5862SOL    HW118038   2.777   4.011   9.682
 5862SOL    HW218039   2.897   3.988   9.773
 5863SOL     OW18040   2.940   4.361  10.846
 5863SOL    HW118041   2.853   4.356  10.807
 5863SOL    HW218042   3.000   4.353  10.772
 5864SOL     OW18043   2.887   4.262   9.340
 5864SOL    HW118044   2.872   4.349   9.303
 5864SOL    HW218045   2.952   4.275   9.409
 5865SOL     OW18046   1.937   4.278  10.710
 5865SOL    HW118047   2.028   4.270  10.680
 5865SOL    HW218048   1.940   4.340  10.783
 5866SOL     OW18049   2.419   3.950  10.476
 5866SOL    HW118050   2.461   3.878  10.522
 5866SOL    HW218051   2.328   3.948  10.506
 5867SOL     OW18052   2.730   4.189   9.944
 5867SOL    HW118053   2.700   4.249   9.876
 5867SOL    HW218054   2.750   4.108   9.898
 5868SOL     OW18055   2.877   3.778  10.060
 5868SOL    HW118056   2.819   3.771   9.984
 5868SOL    HW218057   2.855   3.703  10.114
 5869SOL     OW18058   3.340   4.308  10.269
 5869SOL    HW118059   3.275   4.240  10.288
 5869SOL    HW218060   3.389   4.318  10.351
 5870SOL     OW18061   3.267   4.296   9.384
 5870SOL    HW118062   3.203   4.267   9.449
 5870SOL    HW218063   3.349   4.255   9.410
 5871SOL     OW18064   2.390   3.988   9.626
 5871SOL    HW118065   2.434   3.940   9.556
 5871SOL    HW218066   2.370   4.074   9.587
 5872SOL     OW18067   2.781   3.822  10.701
 5872SOL    HW118068   2.805   3.802  10.610
 5872SOL    HW218069   2.860   3.862  10.738
 5873SOL     OW18070   2.302   0.007  10.585
 5873SOL    HW118071   2.357   0.003  10.663
 5873SOL    HW218072   2.253   4.425  10.586
 5874SOL     OW18073   3.127   4.098  10.590
 5874SOL    HW118074   3.163   4.175  10.634
 5874SOL    HW218075   3.039   4.124  10.565
 5875SOL     OW18076   2.415   4.247  10.174
 5875SOL    HW118077   2.432   4.285  10.088
 5875SOL    HW218078   2.479   4.287  10.232
 5876SOL     OW18079   3.427   4.334   9.793
 5876SOL    HW118080   3.406   4.400   9.860
 5876SOL    HW218081   3.488   4.378   9.734
 5877SOL     OW18082   2.273   4.461  10.902
 5877SOL    HW118083   2.337   0.032  10.894
 5877SOL    HW218084   2.326   4.383  10.916
 5878SOL     OW18085   3.069   4.252   9.570
 5878SOL    HW118086   3.080   4.173   9.623
 5878SOL    HW218087   3.021   4.312   9.627
 5879SOL     OW18088   2.159   3.922  10.556
 5879SOL    HW118089   2.125   3.955  10.639
 5879SOL    HW218090   2.140   3.828  10.557
 5880SOL     OW18091   2.596   4.361  10.347
 5880SOL    HW118092   2.670   4.323  10.299
 5880SOL    HW218093   2.610   4.456  10.341
 5881SOL     OW18094   2.168   3.787   9.933
 5881SOL    HW118095   2.145   3.878   9.955
 5881SOL    HW218096   2.175   3.743  10.018
 5882SOL     OW18097   3.477   4.091   9.676
 5882SOL    HW118098   3.509   4.030   9.742
 5882SOL    HW218099   3.451   4.168   9.725
 5883SOL     OW18100   3.385   3.999   9.436
 5883SOL    HW118101   3.323   3.931   9.462
 5883SOL    HW218102   3.422   4.031   9.519
 5884SOL     OW18103   2.183   0.012  10.227
 5884SOL    HW118104   2.259   0.069  10.241
 5884SOL    HW218105   2.197   4.440  10.289
 5885SOL     OW18106   2.198   4.240  10.332
 5885SOL    HW118107   2.158   4.155  10.314
 5885SOL    HW218108   2.273   4.245  10.273
 5886SOL     OW18109   3.020   3.928  10.783
 5886SOL    HW118110   3.027   3.988  10.858
 5886SOL    HW218111   3.062   3.975  10.711
 5887SOL     OW18112   1.898   4.279  10.429
 5887SOL    HW118113   1.980   4.265  10.380
 5887SOL    HW218114   1.925   4.277  10.521
 5888SOL     OW18115   3.202   0.206  10.980
 5888SOL    HW118116   3.275   0.252  11.021
 5888SOL    HW218117   3.241   0.160  10.906
 5889SOL     OW18118   2.682   4.276   9.669
 5889SOL    HW118119   2.688   4.205   9.605
 5889SOL    HW218120   2.596   4.315   9.653
 5890SOL     OW18121   3.495   4.314  10.494
 5890SOL    HW118122   3.494   4.255  10.569
 5890SOL    HW218123   3.584   4.306  10.459
 5891SOL     OW18124   2.556   4.181  10.557
 5891SOL    HW118125   2.503   4.106  10.530
 5891SOL    HW218126   2.552   4.242  10.484
 5892SOL     OW18127   2.341   4.224   9.500
 5892SOL    HW118128   2.367   4.311   9.529
 5892SOL    HW218129   2.247   4.232   9.483
 5893SOL     OW18130   3.585   3.874   9.820
 5893SOL    HW118131   3.655   3.858   9.757
 5893SOL    HW218132   3.568   3.788   9.858
 5894SOL     OW18133   3.141   0.135   9.988
 5894SOL    HW118134   3.199   0.061  10.009
 5894SOL    HW218135   3.191   0.188   9.926
 5895SOL     OW18136   3.703   3.895  10.278
 5895SOL    HW118137   3.732   3.808  10.251
 5895SOL    HW218138   3.617   3.905  10.237
 5896SOL     OW18139   2.123   4.040  10.026
 5896SOL    HW118140   2.035   4.069  10.002
 5896SOL    HW218141   2.119   4.030  10.121
 5897SOL     OW18142   2.765   0.088   9.517
 5897SOL    HW118143   2.846   0.126   9.482
 5897SOL    HW218144   2.789   0.058   9.605
 5898SOL     OW18145   2.927   0.292  10.059
 5898SOL    HW118146   2.859   0.289   9.992
 5898SOL    HW218147   2.993   0.229  10.028
 5899SOL     OW18148   2.884   3.965  10.274
 5899SOL    HW118149   2.880   3.916  10.192
 5899SOL    HW218150   2.879   3.897  10.342
 5900SOL     OW18151   3.581   4.115  10.693
 5900SOL    HW118152   3.653   4.178  10.696
 5900SOL    HW218153   3.612   4.045  10.635
 5901SOL     OW18154   2.538   3.915  10.802
 5901SOL    HW118155   2.621   3.895  10.759
 5901SOL    HW218156   2.564   3.956  10.885
 5902SOL     OW18157   1.937   4.036   9.338
 5902SOL    HW118158   1.855   4.035   9.289
 5902SOL    HW218159   1.969   4.126   9.329
 5903SOL     OW18160   1.927   3.878   9.617
 5903SOL    HW118161   1.912   3.956   9.563
 5903SOL    HW218162   2.012   3.845   9.587
 5904SOL     OW18163   2.583   4.300  11.022
 5904SOL    HW118164   2.634   4.342  11.091
 5904SOL    HW218165   2.611   4.208  11.024
 5905SOL     OW18166   3.079   4.041   9.763
 5905SOL    HW118167   3.141   3.968   9.757
 5905SOL    HW218168   3.107   4.090   9.841
 5906SOL     OW18169   3.612   4.053  10.963
 5906SOL    HW118170   3.590   4.083  10.875
 5906SOL    HW218171   3.531   4.061  11.012
 5907SOL     OW18172   2.975   0.224   9.410
 5907SOL    HW118173   2.968   0.267   9.325
 5907SOL    HW218174   3.064   0.187   9.411
 5908SOL     OW18175   3.669   3.906  10.548
 5908SOL    HW118176   3.679   3.811  10.559
 5908SOL    HW218177   3.681   3.920  10.454
 5909SOL     OW18178   2.299   4.161   9.844
 5909SOL    HW118179   2.327   4.090   9.786
 5909SOL    HW218180   2.246   4.118   9.911
 5910SOL     OW18181   2.184   4.264  10.605
 5910SOL    HW118182   2.241   4.210  10.659
 5910SOL    HW218183   2.204   4.237  10.515
 5911SOL     OW18184   3.293   3.949  10.427
 5911SOL    HW118185   3.318   3.868  10.472
 5911SOL    HW218186   3.243   3.998  10.492
 5912SOL     OW18187   2.871   3.741  10.449
 5912SOL    HW118188   2.817   3.676  10.405
 5912SOL    HW218189   2.959   3.703  10.451
 5913SOL     OW18190   3.216   3.777   9.477
 5913SOL    HW118191   3.247   3.709   9.417
 5913SOL    HW218192   3.128   3.749   9.501
 5914SOL     OW18193   3.160   4.174   9.989
 5914SOL    HW118194   3.132   4.265  10.003
 5914SOL    HW218195   3.158   4.135  10.076
 5915SOL     OW18196   3.447   3.922  10.189
 5915SOL    HW118197   3.390   3.946  10.262
 5915SOL    HW218198   3.448   4.000  10.133
 5916SOL     OW18199   3.935   0.605   0.106
 5916SOL    HW118200   3.857   0.618   0.160
 5916SOL    HW218201   3.918   0.655   0.026
 5917SOL     OW18202   3.927   0.308   0.990
 5917SOL    HW118203   3.963   0.275   1.072
 5917SOL    HW218204   3.848   0.257   0.976
 5918SOL     OW18205   3.728   0.390   0.636
 5918SOL    HW118206   3.642   0.408   0.674
 5918SOL    HW218207   3.714   0.316   0.576
 5919SOL     OW18208   4.264   1.237   1.147
 5919SOL    HW118209   4.201   1.305   1.123
 5919SOL    HW218210   4.337   1.284   1.188
 5920SOL     OW18211   0.017   0.774   1.857
 5920SOL    HW118212   0.065   0.813   1.930
 5920SOL    HW218213   0.058   0.811   1.779
 5921SOL     OW18214   4.396   0.984   0.630
 5921SOL    HW118215   4.477   0.992   0.681
 5921SOL    HW218216   4.336   1.045   0.672
 5922SOL     OW18217   4.419   1.159   1.810
 5922SOL    HW118218   4.456   1.239   1.773
 5922SOL    HW218219   4.325   1.164   1.791
 5923SOL     OW18220   4.063   1.431   1.068
 5923SOL    HW118221   3.990   1.385   1.026
 5923SOL    HW218222   4.106   1.479   0.998
 5924SOL     OW18223   4.162   0.395   1.481
 5924SOL    HW118224   4.241   0.341   1.483
 5924SOL    HW218225   4.090   0.333   1.495
 5925SOL     OW18226   3.940   1.714   0.473
 5925SOL    HW118227   3.960   1.791   0.527
 5925SOL    HW218228   4.014   1.709   0.411
 5926SOL     OW18229   3.951   1.442   0.532
 5926SOL    HW118230   3.934   1.536   0.535
 5926SOL    HW218231   3.893   1.406   0.599
 5927SOL     OW18232   3.978   1.088   0.886
 5927SOL    HW118233   3.982   1.003   0.929
 5927SOL    HW218234   3.928   1.143   0.946
 5928SOL     OW18235   4.360   1.796   1.458
 5928SOL    HW118236   4.272   1.766   1.479
 5928SOL    HW218237   4.353   1.892   1.457
 5929SOL     OW18238   4.294   1.011   0.140
 5929SOL    HW118239   4.306   1.083   0.078
 5929SOL    HW218240   4.377   1.007   0.188
 5930SOL     OW18241   3.839   0.653   0.561
 5930SOL    HW118242   3.808   0.566   0.584
 5930SOL    HW218243   3.831   0.704   0.642
 5931SOL     OW18244   3.775   1.598   0.118
 5931SOL    HW118245   3.746   1.511   0.145
 5931SOL    HW218246   3.747   1.655   0.190
 5932SOL     OW18247   3.845   0.746   1.583
 5932SOL    HW118248   3.935   0.776   1.589
 5932SOL    HW218249   3.793   0.826   1.587
 5933SOL     OW18250   4.306   1.389   0.738
 5933SOL    HW118251   4.272   1.300   0.740
 5933SOL    HW218252   4.310   1.411   0.645
 5934SOL     OW18253   0.013   0.002   0.492
 5934SOL    HW118254   0.046   0.070   0.433
 5934SOL    HW218255   4.427   0.034   0.520
 5935SOL     OW18256   3.910   0.961   1.277
 5935SOL    HW118257   3.996   0.924   1.259
 5935SOL    HW218258   3.851   0.913   1.219
 5936SOL     OW18259   4.039   0.249   1.783
 5936SOL    HW118260   4.100   0.317   1.813
 5936SOL    HW218261   3.965   0.256   1.844
 5937SOL     OW18262   4.307   0.711   0.267
 5937SOL    HW118263   4.332   0.792   0.222
 5937SOL    HW218264   4.248   0.740   0.337
 5938SOL     OW18265   3.812   0.823   0.775
 5938SOL    HW118266   3.892   0.815   0.826
 5938SOL    HW218267   3.769   0.901   0.810
 5939SOL     OW18268   3.853   1.859   1.580
 5939SOL    HW118269   3.855   1.836   1.673
 5939SOL    HW218270   3.764   1.836   1.552
 5940SOL     OW18271   4.236   0.206   0.897
 5940SOL    HW118272   4.279   0.220   0.981
 5940SOL    HW218273   4.259   0.284   0.846
 5941SOL     OW18274   4.083   1.816   0.868
 5941SOL    HW118275   4.135   1.736   0.875
 5941SOL    HW218276   4.147   1.887   0.877
 5942SOL     OW18277   4.039   0.963   0.278
 5942SOL    HW118278   4.120   0.986   0.231
 5942SOL    HW218279   4.015   0.877   0.244
 5943SOL     OW18280   4.176   1.250   1.734
 5943SOL    HW118281   4.150   1.264   1.643
 5943SOL    HW218282   4.095   1.260   1.784
 5944SOL     OW18283   3.910   0.269   1.517
 5944SOL    HW118284   3.844   0.338   1.504
 5944SOL    HW218285   3.929   0.272   1.611
 5945SOL     OW18286   4.189   1.729   0.327
 5945SOL    HW118287   4.224   1.794   0.389
 5945SOL    HW218288   4.262   1.712   0.267
 5946SOL     OW18289   3.980   1.793   1.230
 5946SOL    HW118290   4.026   1.719   1.271
 5946SOL    HW218291   3.967   1.764   1.139
 5947SOL     OW18292   4.109   0.692   0.473
 5947SOL    HW118293   4.134   0.601   0.488
 5947SOL    HW218294   4.016   0.696   0.497
 5948SOL     OW18295   4.346   0.128   0.106
 5948SOL    HW118296   4.431   0.100   0.138
 5948SOL    HW218297   4.329   0.073   0.030
 5949SOL     OW18298   0.024   1.416   0.905
 5949SOL    HW118299   0.070   1.479   0.850
 5949SOL    HW218300   4.446   1.393   0.855
 5950SOL     OW18301   4.275   0.113   0.541
 5950SOL    HW118302   4.191   0.079   0.573
 5950SOL    HW218303   4.252   0.160   0.460
 5951SOL     OW18304   4.008   0.052   0.203
 5951SOL    HW118305   4.074   0.106   0.161
 5951SOL    HW218306   4.054   0.005   0.273
 5952SOL     OW18307   0.325   0.674   1.461
 5952SOL    HW118308   0.272   0.604   1.424
 5952SOL    HW218309   0.413   0.636   1.470
 5953SOL     OW18310   4.193   1.144   0.731
 5953SOL    HW118311   4.126   1.124   0.797
 5953SOL    HW218312   4.148   1.133   0.647
 5954SOL     OW18313   3.810   0.548   1.396
 5954SOL    HW118314   3.900   0.553   1.365
 5954SOL    HW218315   3.802   0.620   1.459
 5955SOL     OW18316   4.297   0.239   1.159
 5955SOL    HW118317   4.302   0.147   1.187
 5955SOL    HW218318   4.212   0.269   1.191
 5956SOL     OW18319   4.239   1.395   0.193
 5956SOL    HW118320   4.154   1.384   0.235
 5956SOL    HW218321   4.224   1.372   0.101
 5957SOL     OW18322   4.237   0.265   0.316
 5957SOL    HW118323   4.282   0.213   0.250
 5957SOL    HW218324   4.216   0.348   0.272
 5958SOL     OW18325   4.143   0.816   1.251
 5958SOL    HW118326   4.211   0.823   1.318
 5958SOL    HW218327   4.108   0.728   1.262
 5959SOL     OW18328   3.796   1.574   1.356
 5959SOL    HW118329   3.764   1.644   1.299
 5959SOL    HW218330   3.891   1.577   1.347
 5960SOL     OW18331   4.058   1.126   0.497
 5960SOL    HW118332   4.061   1.199   0.435
 5960SOL    HW218333   4.057   1.048   0.441
 5961SOL     OW18334   4.308   0.535   0.863
 5961SOL    HW118335   4.304   0.602   0.795
 5961SOL    HW218336   4.371   0.569   0.926
 5962SOL     OW18337   4.071   1.538   1.313
 5962SOL    HW118338   4.068   1.493   1.229
 5962SOL    HW218339   4.164   1.537   1.337
 5963SOL     OW18340   4.142   0.738   1.607
 5963SOL    HW118341   4.198   0.783   1.545
 5963SOL    HW218342   4.191   0.659   1.631
 5964SOL     OW18343   4.243   0.073   1.721
 5964SOL    HW118344   4.212   4.484   1.703
 5964SOL    HW218345   4.163   0.124   1.736
 5965SOL     OW18346   4.286   0.897   1.026
 5965SOL    HW118347   4.310   0.988   1.041
 5965SOL    HW218348   4.242   0.870   1.107
 5966SOL     OW18349   4.014   0.237   1.241
 5966SOL    HW118350   3.967   0.248   1.323
 5966SOL    HW218351   4.056   0.151   1.249
 5967SOL     OW18352   3.771   1.311   1.276
 5967SOL    HW118353   3.802   1.255   1.347
 5967SOL    HW218354   3.775   1.400   1.311
 5968SOL     OW18355   4.019   0.054   0.653
 5968SOL    HW118356   4.005   0.148   0.656
 5968SOL    HW218357   4.028   0.029   0.745
 5969SOL     OW18358   4.076   0.915   1.808
 5969SOL    HW118359   4.156   0.929   1.858
 5969SOL    HW218360   4.099   0.849   1.742
 5970SOL     OW18361   4.030   0.809   0.944
 5970SOL    HW118362   4.121   0.839   0.947
 5970SOL    HW218363   4.034   0.718   0.975
 5971SOL     OW18364   4.072   0.535   1.010
 5971SOL    HW118365   4.027   0.453   0.990
 5971SOL    HW218366   4.152   0.532   0.956
 5972SOL     OW18367   3.734   1.326   0.193
 5972SOL    HW118368   3.647   1.339   0.155
 5972SOL    HW218369   3.733   1.236   0.226
 5973SOL     OW18370   3.818   1.785   0.942
 5973SOL    HW118371   3.787   1.707   0.895
 5973SOL    HW218372   3.907   1.798   0.909
 5974SOL     OW18373   4.233   1.587   0.906
 5974SOL    HW118374   4.319   1.611   0.939
 5974SOL    HW218375   4.250   1.518   0.841
 5975SOL     OW18376   3.756   0.545   1.118
 5975SOL    HW118377   3.829   0.517   1.063
 5975SOL    HW218378   3.792   0.547   1.206
 5976SOL     OW18379   3.909   0.521   1.723
 5976SOL    HW118380   3.988   0.506   1.672
 5976SOL    HW218381   3.868   0.597   1.682
 5977SOL     OW18382   0.022   0.536   0.262
 5977SOL    HW118383   0.026   0.503   0.352
 5977SOL    HW218384   4.456   0.605   0.264
 5978SOL     OW18385   3.967   1.552   1.725
 5978SOL    HW118386   3.941   1.617   1.791
 5978SOL    HW218387   3.966   1.469   1.771
 5979SOL     OW18388   4.181   0.487   0.169
 5979SOL    HW118389   4.237   0.557   0.201
 5979SOL    HW218390   4.095   0.529   0.156
 5980SOL     OW18391   3.867   1.141   1.474
 5980SOL    HW118392   3.868   1.092   1.556
 5980SOL    HW218393   3.883   1.075   1.406
 5981SOL     OW18394   3.811   1.270   1.012
 5981SOL    HW118395   3.794   1.281   1.105
 5981SOL    HW218396   3.740   1.213   0.981
 5982SOL     OW18397   4.389   1.652   1.697
 5982SOL    HW118398   4.354   1.733   1.733
 5982SOL    HW218399   4.411   1.673   1.607
 5983SOL     OW18400   3.864   1.796   1.843
 5983SOL    HW118401   3.813   1.731   1.891
 5983SOL    HW218402   3.910   1.845   1.911
 5984SOL     OW18403   3.985   0.323   0.713
 5984SOL    HW118404   3.898   0.356   0.690
 5984SOL    HW218405   3.983   0.315   0.808
 5985SOL     OW18406   4.085   1.310   1.490
 5985SOL    HW118407   4.065   1.384   1.433
 5985SOL    HW218408   4.013   1.248   1.475
 5986SOL     OW18409   4.325   1.491   0.481
 5986SOL    HW118410   4.341   1.435   0.404
 5986SOL    HW218411   4.255   1.550   0.453
 5987SOL     OW18412   3.992   1.340   0.290
 5987SOL    HW118413   3.906   1.340   0.249
 5987SOL    HW218414   3.979   1.380   0.376
 5988SOL     OW18415   3.837   1.029   1.722
 5988SOL    HW118416   3.760   1.002   1.773
 5988SOL    HW218417   3.911   0.987   1.767
 5989SOL     OW18418   4.364   0.205   1.490
 5989SOL    HW118419   4.457   0.228   1.477
 5989SOL    HW218420   4.361   0.166   1.577
 5990SOL     OW18421   3.799   0.334   0.056
 5990SOL    HW118422   3.728   0.313  11.096
 5990SOL    HW218423   3.813   0.428   0.044
 5991SOL     OW18424   3.788   0.187   0.319
 5991SOL    HW118425   3.782   0.249   0.246
 5991SOL    HW218426   3.858   0.127   0.294
 5992SOL     OW18427   4.342   0.840   1.439
 5992SOL    HW118428   4.374   0.928   1.419
 5992SOL    HW218429   4.419   0.792   1.469
 5993SOL     OW18430   4.389   0.562   1.732
 5993SOL    HW118431   4.413   0.635   1.789
 5993SOL    HW218432   4.472   0.525   1.704
 5994SOL     OW18433   4.105   1.740   1.561
 5994SOL    HW118434   4.021   1.784   1.546
 5994SOL    HW218435   4.082   1.659   1.607
 5995SOL     OW18436   4.308   0.726   0.668
 5995SOL    HW118437   4.348   0.812   0.657
 5995SOL    HW218438   4.238   0.723   0.602
 5996SOL     OW18439   3.942   1.306   1.853
 5996SOL    HW118440   3.879   1.240   1.823
 5996SOL    HW218441   3.923   1.316   1.947
 5997SOL     OW18442   3.811   1.230   0.667
 5997SOL    HW118443   3.820   1.183   0.750
 5997SOL    HW218444   3.881   1.195   0.612
 5998SOL     OW18445   4.424   1.386   1.670
 5998SOL    HW118446   4.334   1.357   1.656
 5998SOL    HW218447   4.417   1.481   1.682
 5999SOL     OW18448   4.164   0.433   0.532
 5999SOL    HW118449   4.183   0.363   0.470
 5999SOL    HW218450   4.108   0.393   0.598
 6000SOL     OW18451   4.055   0.559   1.288
 6000SOL    HW118452   4.107   0.501   1.343
 6000SOL    HW218453   4.075   0.532   1.199
 6001SOL     OW18454   0.034   1.605   0.689
 6001SOL    HW118455   0.065   1.670   0.625
 6001SOL    HW218456   4.467   1.556   0.642
 6002SOL     OW18457   3.765   1.068   0.301
 6002SOL    HW118458   3.861   1.064   0.298
 6002SOL    HW218459   3.738   0.980   0.326
 6003SOL     OW18460   3.951   0.626   1.984
 6003SOL    HW118461   3.865   0.618   2.026
 6003SOL    HW218462   3.937   0.596   1.894
 6004SOL     OW18463   3.927   0.309   2.852
 6004SOL    HW118464   3.962   0.275   2.934
 6004SOL    HW218465   3.847   0.257   2.838
 6005SOL     OW18466   3.729   0.391   2.498
 6005SOL    HW118467   3.643   0.407   2.535
 6005SOL    HW218468   3.716   0.318   2.437
 6006SOL     OW18469   4.265   1.237   3.007
 6006SOL    HW118470   4.202   1.305   2.985
 6006SOL    HW218471   4.337   1.284   3.050
 6007SOL     OW18472   0.017   0.774   3.719
 6007SOL    HW118473   0.066   0.813   3.791
 6007SOL    HW218474   0.057   0.810   3.640
 6008SOL     OW18475   4.399   0.986   2.490
 6008SOL    HW118476   4.475   0.982   2.549
 6008SOL    HW218477   4.339   1.047   2.534
 6009SOL     OW18478   4.419   1.159   3.672
 6009SOL    HW118479   4.456   1.239   3.635
 6009SOL    HW218480   4.325   1.164   3.653
 6010SOL     OW18481   4.063   1.430   2.931
 6010SOL    HW118482   3.990   1.385   2.888
 6010SOL    HW218483   4.105   1.479   2.860
 6011SOL     OW18484   4.162   0.395   3.344
 6011SOL    HW118485   4.241   0.341   3.345
 6011SOL    HW218486   4.090   0.333   3.357
 6012SOL     OW18487   3.941   1.715   2.333
 6012SOL    HW118488   3.961   1.791   2.389
 6012SOL    HW218489   4.018   1.707   2.277
 6013SOL     OW18490   3.956   1.443   2.397
 6013SOL    HW118491   3.935   1.536   2.402
 6013SOL    HW218492   3.898   1.402   2.462
 6014SOL     OW18493   3.979   1.088   2.747
 6014SOL    HW118494   3.983   1.003   2.790
 6014SOL    HW218495   3.928   1.143   2.808
 6015SOL     OW18496   4.360   1.796   3.320
 6015SOL    HW118497   4.272   1.765   3.341
 6015SOL    HW218498   4.353   1.892   3.319
 6016SOL     OW18499   4.308   0.986   2.004
 6016SOL    HW118500   4.340   1.036   1.928
 6016SOL    HW218501   4.376   0.998   2.071
 6017SOL     OW18502   3.841   0.654   2.423
 6017SOL    HW118503   3.810   0.567   2.445
 6017SOL    HW218504   3.833   0.704   2.504
 6018SOL     OW18505   3.761   1.592   1.984
 6018SOL    HW118506   3.740   1.501   2.004
 6018SOL    HW218507   3.735   1.640   2.063
 6019SOL     OW18508   3.845   0.746   3.445
 6019SOL    HW118509   3.935   0.776   3.450
 6019SOL    HW218510   3.792   0.826   3.448
 6020SOL     OW18511   4.306   1.389   2.599
 6020SOL    HW118512   4.271   1.300   2.601
 6020SOL    HW218513   4.310   1.411   2.506
 6021SOL     OW18514   0.017   0.012   2.366
 6021SOL    HW118515   0.049   0.076   2.303
 6021SOL    HW218516   4.428   0.042   2.388
 6022SOL     OW18517   3.910   0.961   3.139
 6022SOL    HW118518   3.996   0.924   3.121
 6022SOL    HW218519   3.851   0.914   3.080
 6023SOL     OW18520   4.039   0.249   3.645
 6023SOL    HW118521   4.100   0.317   3.674
 6023SOL    HW218522   3.965   0.256   3.706
 6024SOL     OW18523   4.312   0.725   2.132
 6024SOL    HW118524   4.306   0.806   2.082
 6024SOL    HW218525   4.247   0.735   2.202
 6025SOL     OW18526   3.812   0.822   2.638
 6025SOL    HW118527   3.892   0.814   2.689
 6025SOL    HW218528   3.769   0.901   2.673
 6026SOL     OW18529   3.853   1.859   3.442
 6026SOL    HW118530   3.855   1.836   3.535
 6026SOL    HW218531   3.764   1.836   3.414
 6027SOL     OW18532   4.235   0.204   2.761
 6027SOL    HW118533   4.280   0.221   2.844
 6027SOL    HW218534   4.259   0.278   2.705
 6028SOL     OW18535   4.083   1.816   2.729
 6028SOL    HW118536   4.135   1.736   2.737
 6028SOL    HW218537   4.147   1.887   2.739
 6029SOL     OW18538   4.040   0.960   2.114
 6029SOL    HW118539   4.123   0.979   2.071
 6029SOL    HW218540   4.011   0.877   2.076
 6030SOL     OW18541   4.176   1.250   3.596
 6030SOL    HW118542   4.150   1.264   3.505
 6030SOL    HW218543   4.095   1.260   3.646
 6031SOL     OW18544   3.910   0.269   3.379
 6031SOL    HW118545   3.845   0.338   3.365
 6031SOL    HW218546   3.928   0.272   3.472
 6032SOL     OW18547   4.190   1.734   2.187
 6032SOL    HW118548   4.225   1.795   2.252
 6032SOL    HW218549   4.259   1.727   2.121
 6033SOL     OW18550   3.980   1.793   3.092
 6033SOL    HW118551   4.026   1.719   3.133
 6033SOL    HW218552   3.966   1.764   3.002
 6034SOL     OW18553   4.113   0.692   2.333
 6034SOL    HW118554   4.136   0.601   2.350
 6034SOL    HW218555   4.020   0.698   2.353
 6035SOL     OW18556   4.326   0.118   1.979
 6035SOL    HW118557   4.411   0.074   1.989
 6035SOL    HW218558   4.302   0.102   1.888
 6036SOL     OW18559   0.023   1.417   2.768
 6036SOL    HW118560   0.072   1.477   2.711
 6036SOL    HW218561   4.445   1.394   2.717
 6037SOL     OW18562   4.272   0.112   2.404
 6037SOL    HW118563   4.188   0.074   2.429
 6037SOL    HW218564   4.253   0.162   2.325
 6038SOL     OW18565   4.023   0.067   2.068
 6038SOL    HW118566   4.103   0.117   2.049
 6038SOL    HW218567   4.051   0.000   2.131
 6039SOL     OW18568   0.325   0.674   3.324
 6039SOL    HW118569   0.272   0.605   3.285
 6039SOL    HW218570   0.412   0.636   3.332
 6040SOL     OW18571   4.191   1.144   2.589
 6040SOL    HW118572   4.125   1.125   2.655
 6040SOL    HW218573   4.147   1.129   2.505
 6041SOL     OW18574   3.810   0.548   3.259
 6041SOL    HW118575   3.900   0.553   3.227
 6041SOL    HW218576   3.802   0.620   3.321
 6042SOL     OW18577   4.298   0.240   3.023
 6042SOL    HW118578   4.302   0.148   3.048
 6042SOL    HW218579   4.212   0.270   3.054
 6043SOL     OW18580   4.231   1.385   2.036
 6043SOL    HW118581   4.146   1.371   2.077
 6043SOL    HW218582   4.211   1.397   1.943
 6044SOL     OW18583   4.240   0.271   2.184
 6044SOL    HW118584   4.283   0.216   2.119
 6044SOL    HW218585   4.219   0.352   2.138
 6045SOL     OW18586   4.143   0.816   3.113
 6045SOL    HW118587   4.211   0.823   3.180
 6045SOL    HW218588   4.108   0.728   3.124
 6046SOL     OW18589   3.796   1.574   3.218
 6046SOL    HW118590   3.764   1.644   3.161
 6046SOL    HW218591   3.891   1.577   3.209
 6047SOL     OW18592   4.062   1.114   2.350
 6047SOL    HW118593   4.064   1.187   2.288
 6047SOL    HW218594   4.061   1.036   2.296
 6048SOL     OW18595   4.306   0.537   2.726
 6048SOL    HW118596   4.303   0.603   2.657
 6048SOL    HW218597   4.371   0.571   2.788
 6049SOL     OW18598   4.071   1.538   3.175
 6049SOL    HW118599   4.068   1.493   3.091
 6049SOL    HW218600   4.164   1.537   3.199
 6050SOL     OW18601   4.142   0.738   3.469
 6050SOL    HW118602   4.198   0.783   3.407
 6050SOL    HW218603   4.190   0.659   3.493
 6051SOL     OW18604   4.243   0.073   3.584
 6051SOL    HW118605   4.211   4.485   3.564
 6051SOL    HW218606   4.163   0.124   3.599
 6052SOL     OW18607   4.287   0.898   2.888
 6052SOL    HW118608   4.310   0.989   2.904
 6052SOL    HW218609   4.243   0.870   2.969
 6053SOL     OW18610   4.014   0.237   3.103
 6053SOL    HW118611   3.967   0.247   3.185
 6053SOL    HW218612   4.056   0.151   3.110
 6054SOL     OW18613   3.772   1.311   3.138
 6054SOL    HW118614   3.803   1.255   3.209
 6054SOL    HW218615   3.775   1.400   3.173
 6055SOL     OW18616   4.012   0.049   2.516
 6055SOL    HW118617   4.002   0.144   2.516
 6055SOL    HW218618   4.023   0.025   2.608
 6056SOL     OW18619   4.076   0.915   3.670
 6056SOL    HW118620   4.156   0.929   3.720
 6056SOL    HW218621   4.099   0.849   3.604
 6057SOL     OW18622   4.030   0.809   2.807
 6057SOL    HW118623   4.122   0.839   2.808
 6057SOL    HW218624   4.034   0.718   2.837
 6058SOL     OW18625   4.072   0.535   2.872
 6058SOL    HW118626   4.027   0.453   2.852
 6058SOL    HW218627   4.151   0.532   2.819
 6059SOL     OW18628   3.730   1.319   2.057
 6059SOL    HW118629   3.643   1.334   2.020
 6059SOL    HW218630   3.726   1.230   2.092
 6060SOL     OW18631   3.818   1.784   2.803
 6060SOL    HW118632   3.787   1.706   2.757
 6060SOL    HW218633   3.907   1.798   2.771
 6061SOL     OW18634   4.233   1.587   2.768
 6061SOL    HW118635   4.319   1.610   2.802
 6061SOL    HW218636   4.250   1.518   2.703
 6062SOL     OW18637   3.756   0.545   2.980
 6062SOL    HW118638   3.828   0.516   2.924
 6062SOL    HW218639   3.793   0.547   3.068
 6063SOL     OW18640   3.909   0.521   3.585
 6063SOL    HW118641   3.988   0.506   3.533
 6063SOL    HW218642   3.868   0.597   3.544
 6064SOL     OW18643   0.025   0.545   2.123
 6064SOL    HW118644   0.024   0.502   2.209
 6064SOL    HW218645   4.458   0.613   2.130
 6065SOL     OW18646   3.967   1.552   3.587
 6065SOL    HW118647   3.941   1.617   3.653
 6065SOL    HW218648   3.966   1.469   3.633
 6066SOL     OW18649   4.186   0.494   2.044
 6066SOL    HW118650   4.245   0.566   2.066
 6066SOL    HW218651   4.101   0.536   2.029
 6067SOL     OW18652   3.867   1.141   3.336
 6067SOL    HW118653   3.868   1.092   3.418
 6067SOL    HW218654   3.883   1.075   3.268
 6068SOL     OW18655   3.811   1.270   2.873
 6068SOL    HW118656   3.794   1.281   2.967
 6068SOL    HW218657   3.741   1.213   2.843
 6069SOL     OW18658   4.389   1.652   3.560
 6069SOL    HW118659   4.354   1.733   3.595
 6069SOL    HW218660   4.411   1.673   3.469
 6070SOL     OW18661   3.864   1.796   3.705
 6070SOL    HW118662   3.813   1.731   3.753
 6070SOL    HW218663   3.910   1.845   3.773
 6071SOL     OW18664   3.985   0.320   2.575
 6071SOL    HW118665   3.899   0.356   2.552
 6071SOL    HW218666   3.984   0.314   2.670
 6072SOL     OW18667   4.085   1.310   3.352
 6072SOL    HW118668   4.065   1.384   3.295
 6072SOL    HW218669   4.014   1.248   3.337
 6073SOL     OW18670   4.327   1.490   2.341
 6073SOL    HW118671   4.342   1.431   2.268
 6073SOL    HW218672   4.259   1.550   2.310
 6074SOL     OW18673   3.985   1.347   2.151
 6074SOL    HW118674   3.892   1.343   2.128
 6074SOL    HW218675   3.986   1.385   2.239
 6075SOL     OW18676   3.837   1.029   3.585
 6075SOL    HW118677   3.760   1.003   3.636
 6075SOL    HW218678   3.911   0.987   3.629
 6076SOL     OW18679   4.364   0.205   3.352
 6076SOL    HW118680   4.456   0.228   3.338
 6076SOL    HW218681   4.362   0.167   3.440
 6077SOL     OW18682   3.806   0.332   1.910
 6077SOL    HW118683   3.737   0.277   1.875
 6077SOL    HW218684   3.815   0.403   1.847
 6078SOL     OW18685   3.787   0.187   2.174
 6078SOL    HW118686   3.788   0.255   2.106
 6078SOL    HW218687   3.862   0.132   2.155
 6079SOL     OW18688   4.342   0.840   3.301
 6079SOL    HW118689   4.374   0.928   3.281
 6079SOL    HW218690   4.419   0.792   3.331
 6080SOL     OW18691   4.389   0.562   3.595
 6080SOL    HW118692   4.413   0.635   3.652
 6080SOL    HW218693   4.473   0.525   3.566
 6081SOL     OW18694   4.105   1.740   3.423
 6081SOL    HW118695   4.021   1.784   3.408
 6081SOL    HW218696   4.082   1.659   3.469
 6082SOL     OW18697   4.307   0.728   2.531
 6082SOL    HW118698   4.348   0.813   2.517
 6082SOL    HW218699   4.239   0.722   2.464
 6083SOL     OW18700   3.942   1.306   3.715
 6083SOL    HW118701   3.879   1.240   3.685
 6083SOL    HW218702   3.922   1.316   3.808
 6084SOL     OW18703   3.812   1.231   2.528
 6084SOL    HW118704   3.818   1.185   2.611
 6084SOL    HW218705   3.879   1.191   2.473
 6085SOL     OW18706   4.424   1.386   3.532
 6085SOL    HW118707   4.333   1.357   3.518
 6085SOL    HW218708   4.417   1.481   3.544
 6086SOL     OW18709   4.167   0.435   2.399
 6086SOL    HW118710   4.185   0.369   2.333
 6086SOL    HW218711   4.109   0.392   2.461
 6087SOL     OW18712   4.055   0.559   3.150
 6087SOL    HW118713   4.107   0.500   3.205
 6087SOL    HW218714   4.075   0.532   3.061
 6088SOL     OW18715   0.035   1.607   2.550
 6088SOL    HW118716   0.061   1.673   2.486
 6088SOL    HW218717   4.469   1.554   2.505
 6089SOL     OW18718   3.767   1.068   2.169
 6089SOL    HW118719   3.861   1.059   2.151
 6089SOL    HW218720   3.739   0.979   2.192
 6090SOL     OW18721   3.951   0.625   3.846
 6090SOL    HW118722   3.865   0.618   3.887
 6090SOL    HW218723   3.937   0.596   3.756
 6091SOL     OW18724   3.926   0.309   4.714
 6091SOL    HW118725   3.962   0.275   4.796
 6091SOL    HW218726   3.847   0.257   4.700
 6092SOL     OW18727   3.729   0.391   4.360
 6092SOL    HW118728   3.643   0.407   4.397
 6092SOL    HW218729   3.715   0.318   4.299
 6093SOL     OW18730   4.265   1.237   4.869
 6093SOL    HW118731   4.201   1.305   4.846
 6093SOL    HW218732   4.337   1.285   4.912
 6094SOL     OW18733   0.017   0.774   5.581
 6094SOL    HW118734   0.066   0.813   5.653
 6094SOL    HW218735   0.057   0.810   5.502
 6095SOL     OW18736   4.400   0.986   4.352
 6095SOL    HW118737   4.475   0.981   4.411
 6095SOL    HW218738   4.339   1.047   4.396
 6096SOL     OW18739   4.419   1.159   5.534
 6096SOL    HW118740   4.456   1.239   5.497
 6096SOL    HW218741   4.325   1.164   5.515
 6097SOL     OW18742   4.063   1.430   4.793
 6097SOL    HW118743   3.990   1.385   4.751
 6097SOL    HW218744   4.105   1.479   4.722
 6098SOL     OW18745   4.162   0.395   5.206
 6098SOL    HW118746   4.241   0.341   5.207
 6098SOL    HW218747   4.090   0.333   5.219
 6099SOL     OW18748   3.941   1.715   4.196
 6099SOL    HW118749   3.961   1.791   4.251
 6099SOL    HW218750   4.018   1.707   4.139
 6100SOL     OW18751   3.956   1.443   4.259
 6100SOL    HW118752   3.935   1.536   4.264
 6100SOL    HW218753   3.898   1.402   4.324
 6101SOL     OW18754   3.979   1.088   4.609
 6101SOL    HW118755   3.983   1.003   4.652
 6101SOL    HW218756   3.928   1.143   4.669
 6102SOL     OW18757   4.360   1.796   5.182
 6102SOL    HW118758   4.272   1.765   5.202
 6102SOL    HW218759   4.353   1.891   5.181
 6103SOL     OW18760   4.308   0.986   3.866
 6103SOL    HW118761   4.340   1.036   3.790
 6103SOL    HW218762   4.376   0.998   3.933
 6104SOL     OW18763   3.841   0.654   4.285
 6104SOL    HW118764   3.810   0.567   4.307
 6104SOL    HW218765   3.833   0.704   4.366
 6105SOL     OW18766   3.761   1.592   3.846
 6105SOL    HW118767   3.740   1.501   3.866
 6105SOL    HW218768   3.735   1.640   3.925
 6106SOL     OW18769   3.844   0.746   5.307
 6106SOL    HW118770   3.935   0.776   5.312
 6106SOL    HW218771   3.792   0.826   5.310
 6107SOL     OW18772   4.306   1.389   4.461
 6107SOL    HW118773   4.271   1.300   4.463
 6107SOL    HW218774   4.310   1.411   4.368
 6108SOL     OW18775   0.017   0.013   4.229
 6108SOL    HW118776   0.049   0.077   4.165
 6108SOL    HW218777   4.428   0.042   4.250
 6109SOL     OW18778   3.910   0.961   5.001
 6109SOL    HW118779   3.996   0.924   4.983
 6109SOL    HW218780   3.851   0.914   4.942
 6110SOL     OW18781   4.039   0.249   5.507
 6110SOL    HW118782   4.100   0.317   5.536
 6110SOL    HW218783   3.965   0.256   5.568
 6111SOL     OW18784   4.312   0.725   3.994
 6111SOL    HW118785   4.306   0.806   3.943
 6111SOL    HW218786   4.247   0.736   4.064
 6112SOL     OW18787   3.812   0.822   4.500
 6112SOL    HW118788   3.892   0.814   4.551
 6112SOL    HW218789   3.769   0.901   4.534
 6113SOL     OW18790   3.853   1.858   5.304
 6113SOL    HW118791   3.854   1.836   5.397
 6113SOL    HW218792   3.764   1.838   5.276
 6114SOL     OW18793   4.235   0.204   4.623
 6114SOL    HW118794   4.280   0.221   4.706
 6114SOL    HW218795   4.259   0.278   4.567
 6115SOL     OW18796   4.083   1.816   4.591
 6115SOL    HW118797   4.135   1.736   4.599
 6115SOL    HW218798   4.147   1.887   4.601
 6116SOL     OW18799   4.040   0.960   3.976
 6116SOL    HW118800   4.123   0.979   3.933
 6116SOL    HW218801   4.011   0.877   3.938
 6117SOL     OW18802   4.176   1.250   5.458
 6117SOL    HW118803   4.150   1.264   5.367
 6117SOL    HW218804   4.095   1.260   5.508
 6118SOL     OW18805   3.910   0.269   5.240
 6118SOL    HW118806   3.845   0.338   5.227
 6118SOL    HW218807   3.928   0.272   5.334
 6119SOL     OW18808   4.190   1.734   4.049
 6119SOL    HW118809   4.225   1.796   4.114
 6119SOL    HW218810   4.259   1.727   3.983
 6120SOL     OW18811   3.981   1.793   4.954
 6120SOL    HW118812   4.026   1.719   4.995
 6120SOL    HW218813   3.966   1.764   4.864
 6121SOL     OW18814   4.113   0.692   4.195
 6121SOL    HW118815   4.136   0.601   4.212
 6121SOL    HW218816   4.020   0.698   4.215
 6122SOL     OW18817   4.326   0.117   3.841
 6122SOL    HW118818   4.412   0.074   3.851
 6122SOL    HW218819   4.302   0.102   3.750
 6123SOL     OW18820   0.023   1.417   4.630
 6123SOL    HW118821   0.072   1.477   4.573
 6123SOL    HW218822   4.445   1.394   4.579
 6124SOL     OW18823   4.272   0.112   4.266
 6124SOL    HW118824   4.188   0.074   4.291
 6124SOL    HW218825   4.253   0.162   4.187
 6125SOL     OW18826   4.023   0.067   3.930
 6125SOL    HW118827   4.102   0.117   3.911
 6125SOL    HW218828   4.051   0.000   3.993
 6126SOL     OW18829   0.325   0.674   5.187
 6126SOL    HW118830   0.271   0.605   5.148
 6126SOL    HW218831   0.412   0.635   5.194
 6127SOL     OW18832   4.192   1.144   4.451
 6127SOL    HW118833   4.125   1.125   4.517
 6127SOL    HW218834   4.148   1.129   4.367
 6128SOL     OW18835   3.810   0.548   5.121
 6128SOL    HW118836   3.900   0.553   5.089
 6128SOL    HW218837   3.802   0.620   5.183
 6129SOL     OW18838   4.298   0.240   4.885
 6129SOL    HW118839   4.302   0.148   4.910
 6129SOL    HW218840   4.212   0.270   4.916
 6130SOL     OW18841   4.231   1.385   3.898
 6130SOL    HW118842   4.146   1.371   3.939
 6130SOL    HW218843   4.211   1.397   3.805
 6131SOL     OW18844   4.240   0.271   4.047
 6131SOL    HW118845   4.283   0.215   3.981
 6131SOL    HW218846   4.220   0.352   4.000
 6132SOL     OW18847   4.143   0.816   4.975
 6132SOL    HW118848   4.211   0.823   5.042
 6132SOL    HW218849   4.108   0.728   4.986
 6133SOL     OW18850   3.795   1.574   5.080
 6133SOL    HW118851   3.763   1.644   5.023
 6133SOL    HW218852   3.891   1.578   5.071
 6134SOL     OW18853   4.062   1.114   4.212
 6134SOL    HW118854   4.064   1.187   4.150
 6134SOL    HW218855   4.061   1.036   4.157
 6135SOL     OW18856   4.306   0.537   4.588
 6135SOL    HW118857   4.302   0.603   4.518
 6135SOL    HW218858   4.371   0.571   4.650
 6136SOL     OW18859   4.071   1.538   5.037
 6136SOL    HW118860   4.067   1.493   4.953
 6136SOL    HW218861   4.164   1.537   5.061
 6137SOL     OW18862   4.141   0.738   5.331
 6137SOL    HW118863   4.198   0.783   5.269
 6137SOL    HW218864   4.190   0.659   5.354
 6138SOL     OW18865   4.243   0.073   5.446
 6138SOL    HW118866   4.211   4.485   5.426
 6138SOL    HW218867   4.163   0.124   5.461
 6139SOL     OW18868   4.287   0.897   4.750
 6139SOL    HW118869   4.310   0.989   4.766
 6139SOL    HW218870   4.243   0.870   4.831
 6140SOL     OW18871   4.015   0.237   4.965
 6140SOL    HW118872   3.967   0.247   5.047
 6140SOL    HW218873   4.057   0.151   4.972
 6141SOL     OW18874   3.772   1.311   5.000
 6141SOL    HW118875   3.803   1.255   5.071
 6141SOL    HW218876   3.775   1.400   5.035
 6142SOL     OW18877   4.012   0.049   4.378
 6142SOL    HW118878   4.002   0.144   4.378
 6142SOL    HW218879   4.023   0.026   4.470
 6143SOL     OW18880   4.076   0.914   5.533
 6143SOL    HW118881   4.157   0.929   5.582
 6143SOL    HW218882   4.099   0.849   5.466
 6144SOL     OW18883   4.030   0.809   4.669
 6144SOL    HW118884   4.122   0.839   4.670
 6144SOL    HW218885   4.034   0.718   4.699
 6145SOL     OW18886   4.072   0.535   4.734
 6145SOL    HW118887   4.027   0.453   4.714
 6145SOL    HW218888   4.151   0.532   4.681
 6146SOL     OW18889   3.730   1.319   3.919
 6146SOL    HW118890   3.643   1.334   3.882
 6146SOL    HW218891   3.726   1.230   3.954
 6147SOL     OW18892   3.818   1.784   4.665
 6147SOL    HW118893   3.787   1.706   4.619
 6147SOL    HW218894   3.907   1.798   4.633
 6148SOL     OW18895   4.233   1.586   4.630
 6148SOL    HW118896   4.319   1.610   4.664
 6148SOL    HW218897   4.250   1.518   4.565
 6149SOL     OW18898   3.755   0.545   4.842
 6149SOL    HW118899   3.828   0.516   4.786
 6149SOL    HW218900   3.793   0.547   4.930
 6150SOL     OW18901   3.910   0.521   5.447
 6150SOL    HW118902   3.988   0.506   5.395
 6150SOL    HW218903   3.868   0.597   5.406
 6151SOL     OW18904   0.025   0.546   3.985
 6151SOL    HW118905   0.023   0.502   4.070
 6151SOL    HW218906   4.458   0.614   3.992
 6152SOL     OW18907   3.967   1.552   5.449
 6152SOL    HW118908   3.941   1.617   5.514
 6152SOL    HW218909   3.966   1.469   5.496
 6153SOL     OW18910   4.186   0.494   3.906
 6153SOL    HW118911   4.245   0.566   3.928
 6153SOL    HW218912   4.101   0.536   3.891
 6154SOL     OW18913   3.867   1.141   5.198
 6154SOL    HW118914   3.868   1.092   5.280
 6154SOL    HW218915   3.883   1.075   5.130
 6155SOL     OW18916   3.812   1.269   4.736
 6155SOL    HW118917   3.794   1.281   4.829
 6155SOL    HW218918   3.741   1.213   4.705
 6156SOL     OW18919   4.390   1.652   5.421
 6156SOL    HW118920   4.354   1.733   5.457
 6156SOL    HW218921   4.410   1.674   5.330
 6157SOL     OW18922   3.864   1.795   5.567
 6157SOL    HW118923   3.813   1.730   5.615
 6157SOL    HW218924   3.910   1.845   5.635
 6158SOL     OW18925   3.985   0.320   4.437
 6158SOL    HW118926   3.899   0.356   4.414
 6158SOL    HW218927   3.984   0.314   4.532
 6159SOL     OW18928   4.085   1.310   5.214
 6159SOL    HW118929   4.065   1.384   5.157
 6159SOL    HW218930   4.014   1.248   5.199
 6160SOL     OW18931   4.327   1.490   4.203
 6160SOL    HW118932   4.342   1.431   4.130
 6160SOL    HW218933   4.258   1.549   4.172
 6161SOL     OW18934   3.985   1.347   4.013
 6161SOL    HW118935   3.892   1.343   3.990
 6161SOL    HW218936   3.986   1.385   4.101
 6162SOL     OW18937   3.837   1.029   5.447
 6162SOL    HW118938   3.760   1.003   5.498
 6162SOL    HW218939   3.911   0.987   5.491
 6163SOL     OW18940   4.364   0.205   5.214
 6163SOL    HW118941   4.456   0.228   5.200
 6163SOL    HW218942   4.362   0.167   5.302
 6164SOL     OW18943   3.806   0.332   3.772
 6164SOL    HW118944   3.737   0.277   3.737
 6164SOL    HW218945   3.815   0.403   3.709
 6165SOL     OW18946   3.787   0.187   4.036
 6165SOL    HW118947   3.788   0.255   3.968
 6165SOL    HW218948   3.862   0.132   4.017
 6166SOL     OW18949   4.342   0.840   5.163
 6166SOL    HW118950   4.374   0.928   5.143
 6166SOL    HW218951   4.419   0.792   5.193
 6167SOL     OW18952   4.389   0.562   5.457
 6167SOL    HW118953   4.413   0.635   5.514
 6167SOL    HW218954   4.473   0.525   5.428
 6168SOL     OW18955   4.105   1.740   5.285
 6168SOL    HW118956   4.022   1.784   5.270
 6168SOL    HW218957   4.082   1.659   5.331
 6169SOL     OW18958   4.307   0.728   4.393
 6169SOL    HW118959   4.348   0.813   4.379
 6169SOL    HW218960   4.239   0.722   4.326
 6170SOL     OW18961   3.942   1.306   5.577
 6170SOL    HW118962   3.879   1.240   5.546
 6170SOL    HW218963   3.922   1.316   5.670
 6171SOL     OW18964   3.812   1.231   4.390
 6171SOL    HW118965   3.818   1.185   4.473
 6171SOL    HW218966   3.879   1.191   4.335
 6172SOL     OW18967   4.424   1.386   5.395
 6172SOL    HW118968   4.334   1.358   5.380
 6172SOL    HW218969   4.417   1.481   5.406
 6173SOL     OW18970   4.167   0.435   4.261
 6173SOL    HW118971   4.185   0.369   4.195
 6173SOL    HW218972   4.109   0.392   4.323
 6174SOL     OW18973   4.055   0.559   5.012
 6174SOL    HW118974   4.107   0.500   5.067
 6174SOL    HW218975   4.075   0.533   4.923
 6175SOL     OW18976   0.035   1.607   4.412
 6175SOL    HW118977   0.061   1.673   4.348
 6175SOL    HW218978   4.469   1.554   4.367
 6176SOL     OW18979   3.768   1.068   4.031
 6176SOL    HW118980   3.861   1.059   4.012
 6176SOL    HW218981   3.739   0.980   4.054
 6177SOL     OW18982   3.951   0.625   5.708
 6177SOL    HW118983   3.865   0.617   5.749
 6177SOL    HW218984   3.938   0.596   5.618
 6178SOL     OW18985   3.926   0.309   6.576
 6178SOL    HW118986   3.962   0.275   6.658
 6178SOL    HW218987   3.847   0.257   6.562
 6179SOL     OW18988   3.729   0.391   6.222
 6179SOL    HW118989   3.643   0.407   6.259
 6179SOL    HW218990   3.716   0.318   6.161
 6180SOL     OW18991   4.264   1.237   6.732
 6180SOL    HW118992   4.202   1.306   6.709
 6180SOL    HW218993   4.337   1.284   6.774
 6181SOL     OW18994   0.016   0.774   7.443
 6181SOL    HW118995   0.067   0.813   7.515
 6181SOL    HW218996   0.057   0.810   7.364
 6182SOL     OW18997   4.399   0.986   6.214
 6182SOL    HW118998   4.475   0.982   6.273
 6182SOL    HW218999   4.339   1.047   6.258
 6183SOL     OW19000   4.419   1.159   7.397
 6183SOL    HW119001   4.456   1.238   7.359
 6183SOL    HW219002   4.325   1.164   7.377
 6184SOL     OW19003   4.063   1.431   6.655
 6184SOL    HW119004   3.990   1.385   6.612
 6184SOL    HW219005   4.105   1.479   6.584
 6185SOL     OW19006   4.162   0.395   7.068
 6185SOL    HW119007   4.241   0.341   7.069
 6185SOL    HW219008   4.090   0.333   7.081
 6186SOL     OW19009   3.941   1.715   6.058
 6186SOL    HW119010   3.961   1.791   6.113
 6186SOL    HW219011   4.018   1.707   6.001
 6187SOL     OW19012   3.956   1.443   6.122
 6187SOL    HW119013   3.935   1.536   6.125
 6187SOL    HW219014   3.898   1.403   6.186
 6188SOL     OW19015   3.978   1.088   6.471
 6188SOL    HW119016   3.983   1.003   6.514
 6188SOL    HW219017   3.928   1.143   6.532
 6189SOL     OW19018   4.361   1.796   7.044
 6189SOL    HW119019   4.272   1.766   7.065
 6189SOL    HW219020   4.353   1.892   7.043
 6190SOL     OW19021   4.308   0.986   5.728
 6190SOL    HW119022   4.340   1.036   5.652
 6190SOL    HW219023   4.376   0.999   5.795
 6191SOL     OW19024   3.841   0.654   6.147
 6191SOL    HW119025   3.810   0.567   6.169
 6191SOL    HW219026   3.833   0.704   6.228
 6192SOL     OW19027   3.760   1.592   5.708
 6192SOL    HW119028   3.740   1.501   5.728
 6192SOL    HW219029   3.735   1.640   5.787
 6193SOL     OW19030   3.845   0.746   7.169
 6193SOL    HW119031   3.936   0.775   7.174
 6193SOL    HW219032   3.793   0.826   7.173
 6194SOL     OW19033   4.306   1.389   6.323
 6194SOL    HW119034   4.271   1.300   6.325
 6194SOL    HW219035   4.310   1.411   6.230
 6195SOL     OW19036   0.017   0.013   6.091
 6195SOL    HW119037   0.049   0.077   6.027
 6195SOL    HW219038   4.428   0.042   6.112
 6196SOL     OW19039   3.910   0.961   6.862
 6196SOL    HW119040   3.997   0.924   6.845
 6196SOL    HW219041   3.851   0.913   6.804
 6197SOL     OW19042   4.039   0.249   7.369
 6197SOL    HW119043   4.100   0.317   7.398
 6197SOL    HW219044   3.965   0.256   7.430
 6198SOL     OW19045   4.312   0.725   5.856
 6198SOL    HW119046   4.306   0.806   5.805
 6198SOL    HW219047   4.247   0.736   5.926
 6199SOL     OW19048   3.812   0.822   6.362
 6199SOL    HW119049   3.892   0.814   6.413
 6199SOL    HW219050   3.770   0.901   6.397
 6200SOL     OW19051   3.853   1.859   7.166
 6200SOL    HW119052   3.855   1.836   7.259
 6200SOL    HW219053   3.764   1.836   7.138
 6201SOL     OW19054   4.235   0.204   6.485
 6201SOL    HW119055   4.280   0.221   6.568
 6201SOL    HW219056   4.259   0.277   6.429
 6202SOL     OW19057   4.083   1.816   6.454
 6202SOL    HW119058   4.135   1.736   6.461
 6202SOL    HW219059   4.146   1.887   6.463
 6203SOL     OW19060   4.040   0.960   5.838
 6203SOL    HW119061   4.123   0.979   5.795
 6203SOL    HW219062   4.011   0.877   5.800
 6204SOL     OW19063   4.176   1.250   7.320
 6204SOL    HW119064   4.150   1.264   7.229
 6204SOL    HW219065   4.095   1.260   7.370
 6205SOL     OW19066   3.910   0.269   7.103
 6205SOL    HW119067   3.845   0.338   7.089
 6205SOL    HW219068   3.928   0.272   7.197
 6206SOL     OW19069   4.190   1.734   5.911
 6206SOL    HW119070   4.225   1.796   5.976
 6206SOL    HW219071   4.259   1.728   5.845
 6207SOL     OW19072   3.980   1.793   6.816
 6207SOL    HW119073   4.026   1.719   6.857
 6207SOL    HW219074   3.967   1.765   6.725
 6208SOL     OW19075   4.113   0.692   6.057
 6208SOL    HW119076   4.136   0.601   6.074
 6208SOL    HW219077   4.020   0.697   6.077
 6209SOL     OW19078   4.326   0.117   5.704
 6209SOL    HW119079   4.411   0.074   5.713
 6209SOL    HW219080   4.301   0.102   5.612
 6210SOL     OW19081   0.023   1.417   6.492
 6210SOL    HW119082   0.071   1.477   6.435
 6210SOL    HW219083   4.445   1.394   6.441
 6211SOL     OW19084   4.272   0.112   6.128
 6211SOL    HW119085   4.188   0.073   6.153
 6211SOL    HW219086   4.253   0.163   6.049
 6212SOL     OW19087   4.023   0.068   5.793
 6212SOL    HW119088   4.103   0.117   5.773
 6212SOL    HW219089   4.051   0.000   5.855
 6213SOL     OW19090   0.325   0.674   7.048
 6213SOL    HW119091   0.271   0.605   7.009
 6213SOL    HW219092   0.412   0.635   7.056
 6214SOL     OW19093   4.191   1.144   6.313
 6214SOL    HW119094   4.124   1.124   6.378
 6214SOL    HW219095   4.148   1.129   6.229
 6215SOL     OW19096   3.810   0.548   6.983
 6215SOL    HW119097   3.900   0.553   6.951
 6215SOL    HW219098   3.802   0.620   7.045
 6216SOL     OW19099   4.298   0.240   6.747
 6216SOL    HW119100   4.302   0.148   6.772
 6216SOL    HW219101   4.212   0.269   6.778
 6217SOL     OW19102   4.231   1.385   5.760
 6217SOL    HW119103   4.146   1.371   5.801
 6217SOL    HW219104   4.211   1.397   5.667
 6218SOL     OW19105   4.241   0.271   5.909
 6218SOL    HW119106   4.283   0.216   5.843
 6218SOL    HW219107   4.220   0.352   5.862
 6219SOL     OW19108   4.143   0.816   6.837
 6219SOL    HW119109   4.212   0.823   6.904
 6219SOL    HW219110   4.108   0.728   6.848
 6220SOL     OW19111   3.796   1.574   6.942
 6220SOL    HW119112   3.764   1.644   6.884
 6220SOL    HW219113   3.891   1.577   6.933
 6221SOL     OW19114   4.062   1.114   6.074
 6221SOL    HW119115   4.064   1.187   6.012
 6221SOL    HW219116   4.061   1.036   6.019
 6222SOL     OW19117   4.306   0.537   6.450
 6222SOL    HW119118   4.303   0.603   6.380
 6222SOL    HW219119   4.371   0.571   6.512
 6223SOL     OW19120   4.071   1.538   6.900
 6223SOL    HW119121   4.068   1.493   6.815
 6223SOL    HW219122   4.164   1.537   6.923
 6224SOL     OW19123   4.141   0.738   7.193
 6224SOL    HW119124   4.198   0.783   7.131
 6224SOL    HW219125   4.190   0.659   7.217
 6225SOL     OW19126   4.243   0.073   7.308
 6225SOL    HW119127   4.211   4.485   7.288
 6225SOL    HW219128   4.163   0.124   7.322
 6226SOL     OW19129   4.287   0.898   6.612
 6226SOL    HW119130   4.311   0.989   6.628
 6226SOL    HW219131   4.243   0.870   6.693
 6227SOL     OW19132   4.014   0.237   6.827
 6227SOL    HW119133   3.967   0.247   6.910
 6227SOL    HW219134   4.056   0.151   6.834
 6228SOL     OW19135   3.770   1.311   6.862
 6228SOL    HW119136   3.802   1.255   6.933
 6228SOL    HW219137   3.775   1.400   6.897
 6229SOL     OW19138   4.012   0.049   6.240
 6229SOL    HW119139   4.002   0.144   6.240
 6229SOL    HW219140   4.023   0.025   6.332
 6230SOL     OW19141   4.076   0.915   7.394
 6230SOL    HW119142   4.156   0.929   7.444
 6230SOL    HW219143   4.099   0.850   7.328
 6231SOL     OW19144   4.031   0.809   6.531
 6231SOL    HW119145   4.122   0.839   6.532
 6231SOL    HW219146   4.034   0.718   6.561
 6232SOL     OW19147   4.072   0.535   6.596
 6232SOL    HW119148   4.027   0.453   6.576
 6232SOL    HW219149   4.151   0.532   6.543
 6233SOL     OW19150   3.730   1.319   5.781
 6233SOL    HW119151   3.643   1.334   5.744
 6233SOL    HW219152   3.726   1.230   5.816
 6234SOL     OW19153   3.818   1.784   6.528
 6234SOL    HW119154   3.787   1.706   6.482
 6234SOL    HW219155   3.907   1.798   6.495
 6235SOL     OW19156   4.233   1.586   6.492
 6235SOL    HW119157   4.319   1.610   6.526
 6235SOL    HW219158   4.250   1.518   6.427
 6236SOL     OW19159   3.756   0.545   6.704
 6236SOL    HW119160   3.827   0.516   6.648
 6236SOL    HW219161   3.793   0.547   6.792
 6237SOL     OW19162   3.910   0.521   7.309
 6237SOL    HW119163   3.988   0.506   7.257
 6237SOL    HW219164   3.868   0.597   7.267
 6238SOL     OW19165   0.025   0.546   5.847
 6238SOL    HW119166   0.023   0.502   5.932
 6238SOL    HW219167   4.458   0.614   5.854
 6239SOL     OW19168   3.966   1.552   7.311
 6239SOL    HW119169   3.941   1.617   7.377
 6239SOL    HW219170   3.966   1.469   7.357
 6240SOL     OW19171   4.186   0.494   5.768
 6240SOL    HW119172   4.245   0.566   5.790
 6240SOL    HW219173   4.101   0.536   5.753
 6241SOL     OW19174   3.867   1.141   7.059
 6241SOL    HW119175   3.868   1.092   7.141
 6241SOL    HW219176   3.883   1.075   6.992
 6242SOL     OW19177   3.811   1.270   6.598
 6242SOL    HW119178   3.793   1.281   6.691
 6242SOL    HW219179   3.741   1.212   6.567
 6243SOL     OW19180   4.389   1.652   7.284
 6243SOL    HW119181   4.354   1.734   7.319
 6243SOL    HW219182   4.411   1.673   7.193
 6244SOL     OW19183   3.863   1.796   7.429
 6244SOL    HW119184   3.812   1.731   7.477
 6244SOL    HW219185   3.909   1.845   7.497
 6245SOL     OW19186   3.985   0.320   6.299
 6245SOL    HW119187   3.899   0.356   6.276
 6245SOL    HW219188   3.984   0.314   6.395
 6246SOL     OW19189   4.085   1.310   7.076
 6246SOL    HW119190   4.065   1.384   7.019
 6246SOL    HW219191   4.013   1.248   7.061
 6247SOL     OW19192   4.327   1.490   6.065
 6247SOL    HW119193   4.342   1.431   5.992
 6247SOL    HW219194   4.259   1.550   6.034
 6248SOL     OW19195   3.985   1.346   5.875
 6248SOL    HW119196   3.892   1.343   5.852
 6248SOL    HW219197   3.986   1.385   5.963
 6249SOL     OW19198   3.837   1.029   7.309
 6249SOL    HW119199   3.760   1.003   7.360
 6249SOL    HW219200   3.911   0.988   7.353
 6250SOL     OW19201   4.364   0.205   7.076
 6250SOL    HW119202   4.456   0.228   7.062
 6250SOL    HW219203   4.362   0.167   7.164
 6251SOL     OW19204   3.806   0.332   5.635
 6251SOL    HW119205   3.737   0.277   5.599
 6251SOL    HW219206   3.815   0.403   5.571
 6252SOL     OW19207   3.787   0.188   5.898
 6252SOL    HW119208   3.788   0.255   5.830
 6252SOL    HW219209   3.862   0.132   5.879
 6253SOL     OW19210   4.342   0.840   7.025
 6253SOL    HW119211   4.374   0.928   7.005
 6253SOL    HW219212   4.419   0.792   7.055
 6254SOL     OW19213   4.389   0.562   7.319
 6254SOL    HW119214   4.413   0.635   7.376
 6254SOL    HW219215   4.472   0.525   7.290
 6255SOL     OW19216   4.105   1.740   7.147
 6255SOL    HW119217   4.021   1.784   7.132
 6255SOL    HW219218   4.082   1.659   7.193
 6256SOL     OW19219   4.307   0.728   6.255
 6256SOL    HW119220   4.348   0.814   6.241
 6256SOL    HW219221   4.239   0.722   6.188
 6257SOL     OW19222   3.942   1.306   7.439
 6257SOL    HW119223   3.879   1.240   7.409
 6257SOL    HW219224   3.923   1.316   7.533
 6258SOL     OW19225   3.811   1.231   6.252
 6258SOL    HW119226   3.819   1.185   6.335
 6258SOL    HW219227   3.878   1.192   6.196
 6259SOL     OW19228   4.424   1.386   7.256
 6259SOL    HW119229   4.333   1.357   7.242
 6259SOL    HW219230   4.417   1.481   7.268
 6260SOL     OW19231   4.167   0.435   6.123
 6260SOL    HW119232   4.185   0.369   6.057
 6260SOL    HW219233   4.109   0.392   6.185
 6261SOL     OW19234   4.055   0.559   6.874
 6261SOL    HW119235   4.107   0.500   6.929
 6261SOL    HW219236   4.075   0.533   6.785
 6262SOL     OW19237   0.035   1.607   6.274
 6262SOL    HW119238   0.060   1.673   6.210
 6262SOL    HW219239   4.469   1.554   6.229
 6263SOL     OW19240   3.767   1.068   5.893
 6263SOL    HW119241   3.861   1.059   5.875
 6263SOL    HW219242   3.739   0.979   5.916
 6264SOL     OW19243   3.951   0.626   7.570
 6264SOL    HW119244   3.865   0.617   7.611
 6264SOL    HW219245   3.937   0.596   7.480
 6265SOL     OW19246   3.926   0.309   8.438
 6265SOL    HW119247   3.962   0.275   8.520
 6265SOL    HW219248   3.847   0.257   8.424
 6266SOL     OW19249   3.729   0.391   8.084
 6266SOL    HW119250   3.643   0.407   8.121
 6266SOL    HW219251   3.716   0.318   8.023
 6267SOL     OW19252   4.265   1.237   8.594
 6267SOL    HW119253   4.202   1.306   8.571
 6267SOL    HW219254   4.337   1.284   8.636
 6268SOL     OW19255   0.016   0.775   9.305
 6268SOL    HW119256   0.066   0.812   9.377
 6268SOL    HW219257   0.057   0.810   9.226
 6269SOL     OW19258   4.399   0.986   8.076
 6269SOL    HW119259   4.475   0.982   8.135
 6269SOL    HW219260   4.339   1.047   8.120
 6270SOL     OW19261   4.419   1.159   9.259
 6270SOL    HW119262   4.456   1.238   9.221
 6270SOL    HW219263   4.325   1.164   9.239
 6271SOL     OW19264   4.063   1.431   8.517
 6271SOL    HW119265   3.990   1.385   8.474
 6271SOL    HW219266   4.105   1.479   8.446
 6272SOL     OW19267   4.162   0.395   8.930
 6272SOL    HW119268   4.241   0.341   8.931
 6272SOL    HW219269   4.090   0.333   8.943
 6273SOL     OW19270   3.941   1.715   7.919
 6273SOL    HW119271   3.961   1.791   7.975
 6273SOL    HW219272   4.018   1.707   7.863
 6274SOL     OW19273   3.955   1.443   7.983
 6274SOL    HW119274   3.935   1.536   7.988
 6274SOL    HW219275   3.898   1.402   8.048
 6275SOL     OW19276   3.978   1.088   8.333
 6275SOL    HW119277   3.983   1.003   8.376
 6275SOL    HW219278   3.928   1.143   8.394
 6276SOL     OW19279   4.361   1.796   8.906
 6276SOL    HW119280   4.272   1.766   8.927
 6276SOL    HW219281   4.353   1.892   8.905
 6277SOL     OW19282   4.308   0.987   7.590
 6277SOL    HW119283   4.340   1.036   7.514
 6277SOL    HW219284   4.376   0.998   7.657
 6278SOL     OW19285   3.841   0.654   8.009
 6278SOL    HW119286   3.810   0.567   8.031
 6278SOL    HW219287   3.833   0.704   8.090
 6279SOL     OW19288   3.760   1.592   7.570
 6279SOL    HW119289   3.741   1.501   7.590
 6279SOL    HW219290   3.735   1.640   7.650
 6280SOL     OW19291   3.845   0.746   9.031
 6280SOL    HW119292   3.935   0.776   9.036
 6280SOL    HW219293   3.793   0.826   9.035
 6281SOL     OW19294   4.306   1.389   8.185
 6281SOL    HW119295   4.271   1.300   8.187
 6281SOL    HW219296   4.310   1.411   8.092
 6282SOL     OW19297   0.017   0.012   7.952
 6282SOL    HW119298   0.049   0.076   7.889
 6282SOL    HW219299   4.428   0.042   7.974
 6283SOL     OW19300   3.910   0.961   8.724
 6283SOL    HW119301   3.997   0.924   8.707
 6283SOL    HW219302   3.851   0.913   8.666
 6284SOL     OW19303   4.039   0.249   9.231
 6284SOL    HW119304   4.100   0.317   9.260
 6284SOL    HW219305   3.965   0.256   9.292
 6285SOL     OW19306   4.312   0.725   7.718
 6285SOL    HW119307   4.306   0.806   7.667
 6285SOL    HW219308   4.247   0.736   7.788
 6286SOL     OW19309   3.812   0.822   8.224
 6286SOL    HW119310   3.892   0.814   8.275
 6286SOL    HW219311   3.770   0.901   8.259
 6287SOL     OW19312   3.852   1.859   9.028
 6287SOL    HW119313   3.855   1.836   9.121
 6287SOL    HW219314   3.764   1.836   9.000
 6288SOL     OW19315   4.235   0.204   8.347
 6288SOL    HW119316   4.280   0.221   8.430
 6288SOL    HW219317   4.259   0.278   8.291
 6289SOL     OW19318   4.083   1.816   8.315
 6289SOL    HW119319   4.135   1.736   8.323
 6289SOL    HW219320   4.146   1.887   8.325
 6290SOL     OW19321   4.040   0.960   7.700
 6290SOL    HW119322   4.123   0.979   7.657
 6290SOL    HW219323   4.011   0.877   7.662
 6291SOL     OW19324   4.176   1.250   9.182
 6291SOL    HW119325   4.150   1.264   9.091
 6291SOL    HW219326   4.095   1.260   9.232
 6292SOL     OW19327   3.910   0.269   8.965
 6292SOL    HW119328   3.845   0.338   8.951
 6292SOL    HW219329   3.928   0.272   9.059
 6293SOL     OW19330   4.190   1.734   7.773
 6293SOL    HW119331   4.225   1.795   7.838
 6293SOL    HW219332   4.259   1.727   7.707
 6294SOL     OW19333   3.980   1.793   8.678
 6294SOL    HW119334   4.026   1.720   8.720
 6294SOL    HW219335   3.967   1.764   8.588
 6295SOL     OW19336   4.113   0.692   7.919
 6295SOL    HW119337   4.136   0.601   7.936
 6295SOL    HW219338   4.020   0.698   7.939
 6296SOL     OW19339   4.326   0.117   7.565
 6296SOL    HW119340   4.411   0.074   7.575
 6296SOL    HW219341   4.302   0.102   7.474
 6297SOL     OW19342   0.023   1.417   8.354
 6297SOL    HW119343   0.072   1.477   8.298
 6297SOL    HW219344   4.445   1.394   8.303
 6298SOL     OW19345   4.272   0.112   7.990
 6298SOL    HW119346   4.188   0.074   8.015
 6298SOL    HW219347   4.253   0.163   7.911
 6299SOL     OW19348   4.023   0.067   7.654
 6299SOL    HW119349   4.103   0.117   7.635
 6299SOL    HW219350   4.051   0.000   7.717
 6300SOL     OW19351   0.325   0.674   8.910
 6300SOL    HW119352   0.272   0.605   8.871
 6300SOL    HW219353   0.412   0.636   8.918
 6301SOL     OW19354   4.191   1.144   8.175
 6301SOL    HW119355   4.124   1.124   8.241
 6301SOL    HW219356   4.147   1.129   8.091
 6302SOL     OW19357   3.810   0.548   8.845
 6302SOL    HW119358   3.900   0.553   8.813
 6302SOL    HW219359   3.802   0.620   8.907
 6303SOL     OW19360   4.298   0.240   8.609
 6303SOL    HW119361   4.302   0.148   8.634
 6303SOL    HW219362   4.212   0.269   8.640
 6304SOL     OW19363   4.231   1.385   7.622
 6304SOL    HW119364   4.146   1.371   7.663
 6304SOL    HW219365   4.211   1.397   7.529
 6305SOL     OW19366   4.240   0.271   7.771
 6305SOL    HW119367   4.283   0.216   7.705
 6305SOL    HW219368   4.220   0.352   7.724
 6306SOL     OW19369   4.143   0.816   8.699
 6306SOL    HW119370   4.212   0.823   8.766
 6306SOL    HW219371   4.108   0.728   8.710
 6307SOL     OW19372   3.796   1.574   8.804
 6307SOL    HW119373   3.764   1.644   8.747
 6307SOL    HW219374   3.891   1.577   8.795
 6308SOL     OW19375   4.061   1.114   7.936
 6308SOL    HW119376   4.064   1.187   7.874
 6308SOL    HW219377   4.061   1.036   7.882
 6309SOL     OW19378   4.306   0.537   8.312
 6309SOL    HW119379   4.303   0.603   8.243
 6309SOL    HW219380   4.371   0.571   8.374
 6310SOL     OW19381   4.071   1.538   8.762
 6310SOL    HW119382   4.068   1.493   8.677
 6310SOL    HW219383   4.164   1.537   8.785
 6311SOL     OW19384   4.142   0.738   9.055
 6311SOL    HW119385   4.198   0.783   8.993
 6311SOL    HW219386   4.190   0.659   9.079
 6312SOL     OW19387   4.243   0.073   9.170
 6312SOL    HW119388   4.211   4.485   9.150
 6312SOL    HW219389   4.163   0.124   9.184
 6313SOL     OW19390   4.286   0.898   8.474
 6313SOL    HW119391   4.311   0.989   8.490
 6313SOL    HW219392   4.243   0.870   8.555
 6314SOL     OW19393   4.014   0.237   8.689
 6314SOL    HW119394   3.967   0.247   8.772
 6314SOL    HW219395   4.056   0.151   8.696
 6315SOL     OW19396   3.771   1.311   8.724
 6315SOL    HW119397   3.802   1.255   8.794
 6315SOL    HW219398   3.775   1.400   8.759
 6316SOL     OW19399   4.012   0.049   8.102
 6316SOL    HW119400   4.002   0.144   8.102
 6316SOL    HW219401   4.023   0.025   8.194
 6317SOL     OW19402   4.076   0.915   9.256
 6317SOL    HW119403   4.156   0.929   9.306
 6317SOL    HW219404   4.099   0.850   9.190
 6318SOL     OW19405   4.030   0.809   8.393
 6318SOL    HW119406   4.122   0.839   8.394
 6318SOL    HW219407   4.034   0.718   8.423
 6319SOL     OW19408   4.072   0.535   8.458
 6319SOL    HW119409   4.027   0.453   8.438
 6319SOL    HW219410   4.151   0.532   8.405
 6320SOL     OW19411   3.730   1.319   7.644
 6320SOL    HW119412   3.643   1.334   7.606
 6320SOL    HW219413   3.726   1.230   7.678
 6321SOL     OW19414   3.817   1.785   8.389
 6321SOL    HW119415   3.787   1.706   8.343
 6321SOL    HW219416   3.907   1.798   8.357
 6322SOL     OW19417   4.233   1.586   8.354
 6322SOL    HW119418   4.319   1.610   8.388
 6322SOL    HW219419   4.250   1.518   8.289
 6323SOL     OW19420   3.756   0.545   8.566
 6323SOL    HW119421   3.828   0.516   8.510
 6323SOL    HW219422   3.793   0.547   8.654
 6324SOL     OW19423   3.909   0.521   9.171
 6324SOL    HW119424   3.988   0.506   9.119
 6324SOL    HW219425   3.868   0.597   9.129
 6325SOL     OW19426   0.025   0.545   7.709
 6325SOL    HW119427   0.024   0.502   7.794
 6325SOL    HW219428   4.458   0.613   7.716
 6326SOL     OW19429   3.967   1.552   9.173
 6326SOL    HW119430   3.941   1.617   9.239
 6326SOL    HW219431   3.966   1.469   9.219
 6327SOL     OW19432   4.186   0.494   7.630
 6327SOL    HW119433   4.245   0.566   7.652
 6327SOL    HW219434   4.101   0.536   7.615
 6328SOL     OW19435   3.867   1.141   8.921
 6328SOL    HW119436   3.868   1.092   9.004
 6328SOL    HW219437   3.883   1.075   8.854
 6329SOL     OW19438   3.811   1.270   8.459
 6329SOL    HW119439   3.794   1.281   8.553
 6329SOL    HW219440   3.741   1.213   8.429
 6330SOL     OW19441   4.389   1.652   9.146
 6330SOL    HW119442   4.354   1.734   9.181
 6330SOL    HW219443   4.411   1.673   9.055
 6331SOL     OW19444   3.863   1.796   9.291
 6331SOL    HW119445   3.812   1.731   9.339
 6331SOL    HW219446   3.910   1.845   9.359
 6332SOL     OW19447   3.985   0.320   8.161
 6332SOL    HW119448   3.899   0.356   8.138
 6332SOL    HW219449   3.984   0.314   8.256
 6333SOL     OW19450   4.085   1.310   8.938
 6333SOL    HW119451   4.065   1.384   8.881
 6333SOL    HW219452   4.013   1.248   8.923
 6334SOL     OW19453   4.327   1.490   7.927
 6334SOL    HW119454   4.343   1.431   7.854
 6334SOL    HW219455   4.259   1.550   7.895
 6335SOL     OW19456   3.985   1.347   7.737
 6335SOL    HW119457   3.892   1.343   7.714
 6335SOL    HW219458   3.986   1.385   7.825
 6336SOL     OW19459   3.837   1.029   9.171
 6336SOL    HW119460   3.760   1.003   9.222
 6336SOL    HW219461   3.911   0.988   9.215
 6337SOL     OW19462   4.364   0.205   8.938
 6337SOL    HW119463   4.456   0.228   8.924
 6337SOL    HW219464   4.362   0.167   9.026
 6338SOL     OW19465   3.806   0.332   7.497
 6338SOL    HW119466   3.737   0.277   7.461
 6338SOL    HW219467   3.815   0.403   7.433
 6339SOL     OW19468   3.787   0.187   7.760
 6339SOL    HW119469   3.788   0.255   7.692
 6339SOL    HW219470   3.862   0.132   7.741
 6340SOL     OW19471   4.342   0.840   8.887
 6340SOL    HW119472   4.375   0.928   8.868
 6340SOL    HW219473   4.419   0.792   8.917
 6341SOL     OW19474   4.389   0.562   9.180
 6341SOL    HW119475   4.413   0.635   9.238
 6341SOL    HW219476   4.472   0.525   9.152
 6342SOL     OW19477   4.105   1.740   9.009
 6342SOL    HW119478   4.021   1.784   8.994
 6342SOL    HW219479   4.082   1.659   9.055
 6343SOL     OW19480   4.307   0.728   8.117
 6343SOL    HW119481   4.348   0.813   8.103
 6343SOL    HW219482   4.239   0.722   8.050
 6344SOL     OW19483   3.942   1.306   9.301
 6344SOL    HW119484   3.879   1.240   9.271
 6344SOL    HW219485   3.923   1.316   9.394
 6345SOL     OW19486   3.812   1.231   8.114
 6345SOL    HW119487   3.819   1.185   8.197
 6345SOL    HW219488   3.878   1.191   8.058
 6346SOL     OW19489   4.423   1.386   9.118
 6346SOL    HW119490   4.333   1.357   9.104
 6346SOL    HW219491   4.416   1.481   9.130
 6347SOL     OW19492   4.167   0.435   7.985
 6347SOL    HW119493   4.185   0.369   7.919
 6347SOL    HW219494   4.109   0.392   8.047
 6348SOL     OW19495   4.055   0.559   8.736
 6348SOL    HW119496   4.107   0.500   8.791
 6348SOL    HW219497   4.075   0.532   8.647
 6349SOL     OW19498   0.035   1.607   8.136
 6349SOL    HW119499   0.061   1.673   8.072
 6349SOL    HW219500   4.469   1.554   8.091
 6350SOL     OW19501   3.767   1.068   7.755
 6350SOL    HW119502   3.861   1.059   7.737
 6350SOL    HW219503   3.739   0.979   7.778
 6351SOL     OW19504   3.951   0.626   9.432
 6351SOL    HW119505   3.865   0.617   9.473
 6351SOL    HW219506   3.937   0.596   9.342
 6352SOL     OW19507   3.926   0.309  10.300
 6352SOL    HW119508   3.962   0.276  10.382
 6352SOL    HW219509   3.847   0.257  10.286
 6353SOL     OW19510   3.729   0.391   9.946
 6353SOL    HW119511   3.643   0.407   9.983
 6353SOL    HW219512   3.716   0.318   9.885
 6354SOL     OW19513   4.265   1.237  10.458
 6354SOL    HW119514   4.202   1.305  10.433
 6354SOL    HW219515   4.337   1.285  10.498
 6355SOL     OW19516   0.023   0.812   0.082
 6355SOL    HW119517   0.108   0.840   0.117
 6355SOL    HW219518   0.042   0.790  11.091
 6356SOL     OW19519   4.400   0.986   9.938
 6356SOL    HW119520   4.475   0.980   9.997
 6356SOL    HW219521   4.340   1.047   9.982
 6357SOL     OW19522   4.064   1.430  10.378
 6357SOL    HW119523   3.990   1.385  10.336
 6357SOL    HW219524   4.105   1.479  10.307
 6358SOL     OW19525   4.176   0.397  10.788
 6358SOL    HW119526   4.246   0.332  10.796
 6358SOL    HW219527   4.097   0.351  10.815
 6359SOL     OW19528   3.941   1.715   9.781
 6359SOL    HW119529   3.961   1.791   9.837
 6359SOL    HW219530   4.018   1.707   9.725
 6360SOL     OW19531   3.955   1.443   9.845
 6360SOL    HW119532   3.935   1.536   9.850
 6360SOL    HW219533   3.898   1.402   9.910
 6361SOL     OW19534   3.979   1.088  10.195
 6361SOL    HW119535   3.983   1.003  10.239
 6361SOL    HW219536   3.928   1.143  10.255
 6362SOL     OW19537   4.353   1.806  10.748
 6362SOL    HW119538   4.267   1.776  10.779
 6362SOL    HW219539   4.354   1.900  10.767
 6363SOL     OW19540   4.308   0.987   9.452
 6363SOL    HW119541   4.340   1.036   9.376
 6363SOL    HW219542   4.376   0.998   9.519
 6364SOL     OW19543   3.841   0.654   9.871
 6364SOL    HW119544   3.810   0.567   9.893
 6364SOL    HW219545   3.833   0.704   9.952
 6365SOL     OW19546   3.760   1.592   9.432
 6365SOL    HW119547   3.741   1.501   9.452
 6365SOL    HW219548   3.735   1.640   9.511
 6366SOL     OW19549   3.851   0.726  10.919
 6366SOL    HW119550   3.942   0.749  10.904
 6366SOL    HW219551   3.803   0.809  10.910
 6367SOL     OW19552   4.306   1.389  10.047
 6367SOL    HW119553   4.271   1.300  10.049
 6367SOL    HW219554   4.310   1.411   9.954
 6368SOL     OW19555   0.016   0.011   9.813
 6368SOL    HW119556   0.048   0.076   9.750
 6368SOL    HW219557   4.428   0.041   9.836
 6369SOL     OW19558   3.910   0.959  10.582
 6369SOL    HW119559   3.996   0.921  10.564
 6369SOL    HW219560   3.850   0.910  10.526
 6370SOL     OW19561   4.057   0.281  11.085
 6370SOL    HW119562   4.114   0.340   0.035
 6370SOL    HW219563   3.973   0.286   0.030
 6371SOL     OW19564   4.312   0.725   9.580
 6371SOL    HW119565   4.306   0.806   9.529
 6371SOL    HW219566   4.247   0.736   9.650
 6372SOL     OW19567   3.812   0.823  10.086
 6372SOL    HW119568   3.892   0.814  10.137
 6372SOL    HW219569   3.769   0.901  10.121
 6373SOL     OW19570   3.856   1.853  10.899
 6373SOL    HW119571   3.842   1.811  10.984
 6373SOL    HW219572   3.775   1.837  10.851
 6374SOL     OW19573   4.235   0.206  10.215
 6374SOL    HW119574   4.286   0.225  10.294
 6374SOL    HW219575   4.257   0.276  10.154
 6375SOL     OW19576   4.083   1.816  10.177
 6375SOL    HW119577   4.135   1.736  10.185
 6375SOL    HW219578   4.146   1.887  10.187
 6376SOL     OW19579   4.040   0.961   9.562
 6376SOL    HW119580   4.123   0.979   9.519
 6376SOL    HW219581   4.011   0.877   9.524
 6377SOL     OW19582   4.175   1.263  11.057
 6377SOL    HW119583   4.149   1.280  10.966
 6377SOL    HW219584   4.107   1.203  11.090
 6378SOL     OW19585   3.924   0.271  10.820
 6378SOL    HW119586   3.851   0.332  10.816
 6378SOL    HW219587   3.946   0.266  10.914
 6379SOL     OW19588   4.190   1.734   9.635
 6379SOL    HW119589   4.225   1.795   9.700
 6379SOL    HW219590   4.259   1.727   9.569
 6380SOL     OW19591   3.981   1.793  10.541
 6380SOL    HW119592   4.026   1.720  10.584
 6380SOL    HW219593   3.968   1.764  10.451
 6381SOL     OW19594   4.113   0.692   9.781
 6381SOL    HW119595   4.136   0.601   9.798
 6381SOL    HW219596   4.020   0.698   9.801
 6382SOL     OW19597   4.326   0.117   9.427
 6382SOL    HW119598   4.411   0.074   9.437
 6382SOL    HW219599   4.302   0.102   9.336
 6383SOL     OW19600   0.023   1.417  10.216
 6383SOL    HW119601   0.072   1.477  10.159
 6383SOL    HW219602   4.445   1.394  10.165
 6384SOL     OW19603   4.272   0.113   9.853
 6384SOL    HW119604   4.188   0.074   9.877
 6384SOL    HW219605   4.253   0.163   9.773
 6385SOL     OW19606   4.023   0.067   9.516
 6385SOL    HW119607   4.102   0.117   9.497
 6385SOL    HW219608   4.051   0.000   9.579
 6386SOL     OW19609   0.309   0.679  10.778
 6386SOL    HW119610   0.266   0.595  10.758
 6386SOL    HW219611   0.401   0.656  10.788
 6387SOL     OW19612   4.191   1.144  10.037
 6387SOL    HW119613   4.125   1.124  10.103
 6387SOL    HW219614   4.148   1.129   9.953
 6388SOL     OW19615   3.809   0.546  10.712
 6388SOL    HW119616   3.899   0.553  10.680
 6388SOL    HW219617   3.804   0.610  10.783
 6389SOL     OW19618   4.300   0.236  10.482
 6389SOL    HW119619   4.293   0.141  10.488
 6389SOL    HW219620   4.213   0.269  10.503
 6390SOL     OW19621   4.231   1.385   9.484
 6390SOL    HW119622   4.146   1.371   9.525
 6390SOL    HW219623   4.211   1.397   9.391
 6391SOL     OW19624   4.240   0.271   9.633
 6391SOL    HW119625   4.283   0.215   9.567
 6391SOL    HW219626   4.220   0.352   9.586
 6392SOL     OW19627   4.143   0.815  10.559
 6392SOL    HW119628   4.211   0.823  10.626
 6392SOL    HW219629   4.108   0.727  10.571
 6393SOL     OW19630   3.796   1.578  10.666
 6393SOL    HW119631   3.765   1.645  10.606
 6393SOL    HW219632   3.891   1.577  10.656
 6394SOL     OW19633   4.061   1.114   9.798
 6394SOL    HW119634   4.064   1.187   9.736
 6394SOL    HW219635   4.061   1.036   9.744
 6395SOL     OW19636   4.306   0.537  10.175
 6395SOL    HW119637   4.304   0.604  10.107
 6395SOL    HW219638   4.372   0.567  10.237
 6396SOL     OW19639   4.071   1.536  10.624
 6396SOL    HW119640   4.069   1.491  10.540
 6396SOL    HW219641   4.164   1.538  10.647
 6397SOL     OW19642   4.136   0.733  10.900
 6397SOL    HW119643   4.202   0.775  10.846
 6397SOL    HW219644   4.158   0.640  10.897
 6398SOL     OW19645   4.287   0.898  10.336
 6398SOL    HW119646   4.310   0.990  10.352
 6398SOL    HW219647   4.242   0.870  10.416
 6399SOL     OW19648   4.016   0.236  10.550
 6399SOL    HW119649   3.975   0.250  10.635
 6399SOL    HW219650   4.055   0.149  10.556
 6400SOL     OW19651   3.776   1.314  10.583
 6400SOL    HW119652   3.802   1.256  10.655
 6400SOL    HW219653   3.774   1.401  10.623
 6401SOL     OW19654   4.012   0.048   9.964
 6401SOL    HW119655   4.002   0.144   9.964
 6401SOL    HW219656   4.023   0.025  10.056
 6402SOL     OW19657   4.081   0.914  11.094
 6402SOL    HW119658   4.164   0.933   0.037
 6402SOL    HW219659   4.103   0.848  11.028
 6403SOL     OW19660   4.031   0.809  10.255
 6403SOL    HW119661   4.122   0.838  10.255
 6403SOL    HW219662   4.035   0.718  10.285
 6404SOL     OW19663   4.072   0.535  10.322
 6404SOL    HW119664   4.026   0.454  10.300
 6404SOL    HW219665   4.151   0.533  10.268
 6405SOL     OW19666   3.730   1.319   9.505
 6405SOL    HW119667   3.643   1.334   9.468
 6405SOL    HW219668   3.726   1.230   9.540
 6406SOL     OW19669   3.817   1.785  10.251
 6406SOL    HW119670   3.787   1.707  10.205
 6406SOL    HW219671   3.907   1.798  10.219
 6407SOL     OW19672   4.233   1.587  10.215
 6407SOL    HW119673   4.319   1.610  10.250
 6407SOL    HW219674   4.250   1.519  10.150
 6408SOL     OW19675   3.756   0.545  10.430
 6408SOL    HW119676   3.828   0.517  10.374
 6408SOL    HW219677   3.793   0.546  10.518
 6409SOL     OW19678   0.025   0.545   9.571
 6409SOL    HW119679   0.025   0.502   9.657
 6409SOL    HW219680   4.458   0.613   9.578
 6410SOL     OW19681   3.977   1.566  11.046
 6410SOL    HW119682   3.917   1.591   0.016
 6410SOL    HW219683   3.994   1.473  11.061
 6411SOL     OW19684   4.186   0.494   9.492
 6411SOL    HW119685   4.245   0.566   9.514
 6411SOL    HW219686   4.101   0.536   9.477
 6412SOL     OW19687   3.874   1.138  10.779
 6412SOL    HW119688   3.867   1.086  10.858
 6412SOL    HW219689   3.887   1.074  10.709
 6413SOL     OW19690   3.811   1.271  10.320
 6413SOL    HW119691   3.796   1.283  10.414
 6413SOL    HW219692   3.741   1.213  10.292
 6414SOL     OW19693   4.383   1.666  10.998
 6414SOL    HW119694   4.297   1.703  10.978
 6414SOL    HW219695   4.423   1.650  10.912
 6415SOL     OW19696   3.985   0.320  10.023
 6415SOL    HW119697   3.900   0.356  10.000
 6415SOL    HW219698   3.984   0.314  10.119
 6416SOL     OW19699   4.078   1.316  10.814
 6416SOL    HW119700   4.067   1.385  10.749
 6416SOL    HW219701   4.011   1.251  10.792
 6417SOL     OW19702   4.327   1.490   9.789
 6417SOL    HW119703   4.342   1.431   9.716
 6417SOL    HW219704   4.259   1.550   9.758
 6418SOL     OW19705   3.985   1.347   9.599
 6418SOL    HW119706   3.892   1.343   9.576
 6418SOL    HW219707   3.986   1.385   9.687
 6419SOL     OW19708   3.842   1.015  11.018
 6419SOL    HW119709   3.774   1.005  11.084
 6419SOL    HW219710   3.921   0.981  11.059
 6420SOL     OW19711   4.367   0.190  10.820
 6420SOL    HW119712   4.429   0.208  10.749
 6420SOL    HW219713   4.416   0.212  10.899
 6421SOL     OW19714   3.806   0.332   9.359
 6421SOL    HW119715   3.737   0.277   9.323
 6421SOL    HW219716   3.815   0.403   9.295
 6422SOL     OW19717   3.787   0.187   9.622
 6422SOL    HW119718   3.788   0.255   9.554
 6422SOL    HW219719   3.862   0.132   9.603
 6423SOL     OW19720   4.341   0.839  10.747
 6423SOL    HW119721   4.371   0.928  10.729
 6423SOL    HW219722   4.421   0.791  10.768
 6424SOL     OW19723   4.118   1.735  10.880
 6424SOL    HW119724   4.043   1.794  10.866
 6424SOL    HW219725   4.082   1.663  10.932
 6425SOL     OW19726   4.307   0.728   9.979
 6425SOL    HW119727   4.348   0.813   9.965
 6425SOL    HW219728   4.239   0.722   9.912
 6426SOL     OW19729   3.811   1.231   9.976
 6426SOL    HW119730   3.819   1.185  10.060
 6426SOL    HW219731   3.878   1.191   9.921
 6427SOL     OW19732   4.412   1.388  10.954
 6427SOL    HW119733   4.332   1.343  10.981
 6427SOL    HW219734   4.404   1.476  10.991
 6428SOL     OW19735   4.167   0.435   9.847
 6428SOL    HW119736   4.185   0.369   9.781
 6428SOL    HW219737   4.109   0.392   9.909
 6429SOL     OW19738   4.056   0.558  10.599
 6429SOL    HW119739   4.110   0.498  10.651
 6429SOL    HW219740   4.072   0.534  10.508
 6430SOL     OW19741   0.035   1.607   9.998
 6430SOL    HW119742   0.060   1.673   9.934
 6430SOL    HW219743   4.469   1.554   9.953
 6431SOL     OW19744   3.767   1.068   9.617
 6431SOL    HW119745   3.861   1.059   9.599
 6431SOL    HW219746   3.739   0.979   9.640
 6432SOL     OW19747   3.938   2.472   0.107
 6432SOL    HW119748   3.857   2.479   0.159
 6432SOL    HW219749   3.918   2.518   0.025
 6433SOL     OW19750   3.947   2.151   0.992
 6433SOL    HW119751   3.978   2.114   1.075
 6433SOL    HW219752   3.858   2.116   0.982
 6434SOL     OW19753   3.724   2.247   0.637
 6434SOL    HW119754   3.642   2.271   0.680
 6434SOL    HW219755   3.703   2.167   0.588
 6435SOL     OW19756   4.264   3.099   1.147
 6435SOL    HW119757   4.202   3.167   1.123
 6435SOL    HW219758   4.337   3.146   1.188
 6436SOL     OW19759   0.015   2.638   1.857
 6436SOL    HW119760   0.068   2.672   1.929
 6436SOL    HW219761   0.059   2.668   1.777
 6437SOL     OW19762   4.398   2.847   0.628
 6437SOL    HW119763   4.476   2.846   0.683
 6437SOL    HW219764   4.338   2.908   0.672
 6438SOL     OW19765   4.419   3.020   1.810
 6438SOL    HW119766   4.456   3.100   1.772
 6438SOL    HW219767   4.325   3.026   1.791
 6439SOL     OW19768   4.063   3.293   1.069
 6439SOL    HW119769   3.990   3.247   1.026
 6439SOL    HW219770   4.106   3.341   0.998
 6440SOL     OW19771   4.172   2.260   1.478
 6440SOL    HW119772   4.247   2.201   1.485
 6440SOL    HW219773   4.096   2.205   1.496
 6441SOL     OW19774   3.940   3.576   0.473
 6441SOL    HW119775   3.960   3.653   0.527
 6441SOL    HW219776   4.014   3.571   0.412
 6442SOL     OW19777   3.950   3.304   0.532
 6442SOL    HW119778   3.934   3.399   0.534
 6442SOL    HW219779   3.893   3.268   0.599
 6443SOL     OW19780   3.978   2.950   0.886
 6443SOL    HW119781   3.982   2.865   0.929
 6443SOL    HW219782   3.928   3.005   0.946
 6444SOL     OW19783   4.362   3.658   1.458
 6444SOL    HW119784   4.274   3.628   1.478
 6444SOL    HW219785   4.356   3.753   1.457
 6445SOL     OW19786   4.294   2.873   0.140
 6445SOL    HW119787   4.306   2.944   0.078
 6445SOL    HW219788   4.377   2.869   0.188
 6446SOL     OW19789   3.838   2.515   0.561
 6446SOL    HW119790   3.807   2.427   0.583
 6446SOL    HW219791   3.830   2.565   0.642
 6447SOL     OW19792   3.775   3.460   0.118
 6447SOL    HW119793   3.746   3.373   0.144
 6447SOL    HW219794   3.748   3.518   0.190
 6448SOL     OW19795   3.846   2.605   1.585
 6448SOL    HW119796   3.938   2.633   1.590
 6448SOL    HW219797   3.796   2.686   1.590
 6449SOL     OW19798   4.305   3.251   0.738
 6449SOL    HW119799   4.272   3.161   0.740
 6449SOL    HW219800   4.309   3.273   0.645
 6450SOL     OW19801   0.020   1.873   0.532
 6450SOL    HW119802   0.051   1.927   0.459
 6450SOL    HW219803   4.425   1.885   0.533
 6451SOL     OW19804   3.910   2.824   1.276
 6451SOL    HW119805   3.997   2.786   1.259
 6451SOL    HW219806   3.851   2.774   1.220
 6452SOL     OW19807   4.063   2.111   1.818
 6452SOL    HW119808   4.103   2.196   1.836
 6452SOL    HW219809   3.972   2.122   1.845
 6453SOL     OW19810   4.308   2.574   0.268
 6453SOL    HW119811   4.331   2.654   0.221
 6453SOL    HW219812   4.248   2.602   0.337
 6454SOL     OW19813   3.811   2.685   0.775
 6454SOL    HW119814   3.892   2.676   0.826
 6454SOL    HW219815   3.769   2.763   0.811
 6455SOL     OW19816   3.852   3.722   1.581
 6455SOL    HW119817   3.855   3.699   1.674
 6455SOL    HW219818   3.765   3.696   1.552
 6456SOL     OW19819   4.247   2.049   0.881
 6456SOL    HW119820   4.268   2.056   0.974
 6456SOL    HW219821   4.256   2.139   0.847
 6457SOL     OW19822   4.083   3.678   0.868
 6457SOL    HW119823   4.135   3.598   0.875
 6457SOL    HW219824   4.147   3.749   0.877
 6458SOL     OW19825   4.039   2.825   0.277
 6458SOL    HW119826   4.120   2.848   0.231
 6458SOL    HW219827   4.015   2.739   0.244
 6459SOL     OW19828   4.177   3.112   1.734
 6459SOL    HW119829   4.150   3.126   1.643
 6459SOL    HW219830   4.096   3.122   1.784
 6460SOL     OW19831   3.925   2.139   1.504
 6460SOL    HW119832   3.844   2.190   1.502
 6460SOL    HW219833   3.904   2.061   1.554
 6461SOL     OW19834   4.191   3.590   0.329
 6461SOL    HW119835   4.225   3.656   0.390
 6461SOL    HW219836   4.261   3.579   0.265
 6462SOL     OW19837   3.980   3.655   1.230
 6462SOL    HW119838   4.026   3.581   1.271
 6462SOL    HW219839   3.967   3.627   1.139
 6463SOL     OW19840   4.109   2.554   0.473
 6463SOL    HW119841   4.134   2.463   0.489
 6463SOL    HW219842   4.016   2.558   0.497
 6464SOL     OW19843   4.353   1.992   0.110
 6464SOL    HW119844   4.438   1.951   0.130
 6464SOL    HW219845   4.321   1.946   0.033
 6465SOL     OW19846   0.024   3.279   0.906
 6465SOL    HW119847   0.071   3.341   0.849
 6465SOL    HW219848   4.446   3.255   0.855
 6466SOL     OW19849   4.258   1.928   0.497
 6466SOL    HW119850   4.178   1.931   0.550
 6466SOL    HW219851   4.254   2.006   0.443
 6467SOL     OW19852   4.007   1.911   0.202
 6467SOL    HW119853   4.048   1.967   0.136
 6467SOL    HW219854   4.074   1.848   0.226
 6468SOL     OW19855   0.329   2.531   1.451
 6468SOL    HW119856   0.272   2.460   1.421
 6468SOL    HW219857   0.412   2.490   1.471
 6469SOL     OW19858   4.193   3.005   0.731
 6469SOL    HW119859   4.127   2.986   0.797
 6469SOL    HW219860   4.148   2.995   0.647
 6470SOL     OW19861   3.805   2.415   1.393
 6470SOL    HW119862   3.897   2.415   1.365
 6470SOL    HW219863   3.801   2.485   1.458
 6471SOL     OW19864   4.281   2.070   1.149
 6471SOL    HW119865   4.328   2.012   1.209
 6471SOL    HW219866   4.194   2.079   1.188
 6472SOL     OW19867   4.239   3.257   0.192
 6472SOL    HW119868   4.154   3.247   0.235
 6472SOL    HW219869   4.224   3.234   0.101
 6473SOL     OW19870   4.247   2.133   0.322
 6473SOL    HW119871   4.287   2.078   0.254
 6473SOL    HW219872   4.221   2.213   0.275
 6474SOL     OW19873   4.142   2.676   1.251
 6474SOL    HW119874   4.209   2.685   1.318
 6474SOL    HW219875   4.107   2.588   1.263
 6475SOL     OW19876   3.796   3.436   1.356
 6475SOL    HW119877   3.764   3.505   1.298
 6475SOL    HW219878   3.891   3.439   1.347
 6476SOL     OW19879   4.058   2.988   0.497
 6476SOL    HW119880   4.061   3.061   0.435
 6476SOL    HW219881   4.057   2.910   0.442
 6477SOL     OW19882   4.303   2.398   0.866
 6477SOL    HW119883   4.302   2.465   0.798
 6477SOL    HW219884   4.370   2.427   0.927
 6478SOL     OW19885   4.071   3.400   1.313
 6478SOL    HW119886   4.068   3.355   1.229
 6478SOL    HW219887   4.164   3.399   1.337
 6479SOL     OW19888   4.139   2.603   1.606
 6479SOL    HW119889   4.199   2.646   1.545
 6479SOL    HW219890   4.180   2.520   1.627
 6480SOL     OW19891   4.234   1.913   1.733
 6480SOL    HW119892   4.186   1.854   1.675
 6480SOL    HW219893   4.170   1.982   1.755
 6481SOL     OW19894   4.286   2.759   1.027
 6481SOL    HW119895   4.309   2.851   1.042
 6481SOL    HW219896   4.242   2.732   1.107
 6482SOL     OW19897   4.023   2.061   1.247
 6482SOL    HW119898   3.985   2.093   1.329
 6482SOL    HW219899   4.004   1.967   1.247
 6483SOL     OW19900   3.770   3.173   1.276
 6483SOL    HW119901   3.802   3.117   1.347
 6483SOL    HW219902   3.775   3.262   1.312
 6484SOL     OW19903   4.020   1.926   0.627
 6484SOL    HW119904   4.002   2.018   0.650
 6484SOL    HW219905   4.034   1.883   0.711
 6485SOL     OW19906   4.075   2.776   1.809
 6485SOL    HW119907   4.156   2.791   1.858
 6485SOL    HW219908   4.098   2.712   1.742
 6486SOL     OW19909   4.030   2.670   0.944
 6486SOL    HW119910   4.121   2.699   0.946
 6486SOL    HW219911   4.033   2.579   0.974
 6487SOL     OW19912   4.065   2.392   1.008
 6487SOL    HW119913   4.028   2.305   0.993
 6487SOL    HW219914   4.146   2.393   0.957
 6488SOL     OW19915   3.733   3.188   0.193
 6488SOL    HW119916   3.647   3.201   0.155
 6488SOL    HW219917   3.733   3.098   0.226
 6489SOL     OW19918   3.818   3.646   0.942
 6489SOL    HW119919   3.787   3.568   0.895
 6489SOL    HW219920   3.907   3.660   0.909
 6490SOL     OW19921   4.233   3.449   0.906
 6490SOL    HW119922   4.319   3.472   0.939
 6490SOL    HW219923   4.250   3.380   0.841
 6491SOL     OW19924   3.759   2.408   1.116
 6491SOL    HW119925   3.838   2.394   1.064
 6491SOL    HW219926   3.790   2.410   1.207
 6492SOL     OW19927   3.915   2.383   1.730
 6492SOL    HW119928   3.971   2.342   1.664
 6492SOL    HW219929   3.876   2.458   1.685
 6493SOL     OW19930   0.024   2.400   0.263
 6493SOL    HW119931   0.026   2.365   0.352
 6493SOL    HW219932   4.457   2.468   0.265
 6494SOL     OW19933   3.967   3.414   1.724
 6494SOL    HW119934   3.941   3.479   1.790
 6494SOL    HW219935   3.966   3.331   1.771
 6495SOL     OW19936   4.180   2.350   0.172
 6495SOL    HW119937   4.237   2.421   0.202
 6495SOL    HW219938   4.095   2.392   0.157
 6496SOL     OW19939   3.867   3.003   1.473
 6496SOL    HW119940   3.868   2.953   1.555
 6496SOL    HW219941   3.883   2.937   1.406
 6497SOL     OW19942   3.811   3.132   1.012
 6497SOL    HW119943   3.793   3.143   1.105
 6497SOL    HW219944   3.740   3.075   0.981
 6498SOL     OW19945   4.389   3.514   1.698
 6498SOL    HW119946   4.354   3.595   1.734
 6498SOL    HW219947   4.411   3.535   1.608
 6499SOL     OW19948   3.864   3.657   1.843
 6499SOL    HW119949   3.813   3.592   1.891
 6499SOL    HW219950   3.909   3.707   1.911
 6500SOL     OW19951   3.983   2.181   0.715
 6500SOL    HW119952   3.895   2.214   0.694
 6500SOL    HW219953   3.982   2.172   0.810
 6501SOL     OW19954   4.085   3.172   1.490
 6501SOL    HW119955   4.065   3.246   1.433
 6501SOL    HW219956   4.013   3.110   1.475
 6502SOL     OW19957   4.325   3.353   0.481
 6502SOL    HW119958   4.340   3.297   0.404
 6502SOL    HW219959   4.256   3.414   0.452
 6503SOL     OW19960   3.993   3.202   0.290
 6503SOL    HW119961   3.906   3.202   0.249
 6503SOL    HW219962   3.979   3.242   0.376
 6504SOL     OW19963   3.837   2.891   1.722
 6504SOL    HW119964   3.760   2.865   1.773
 6504SOL    HW219965   3.911   2.849   1.767
 6505SOL     OW19966   4.387   2.068   1.494
 6505SOL    HW119967   4.477   2.073   1.461
 6505SOL    HW219968   4.396   2.055   1.588
 6506SOL     OW19969   3.809   2.198   0.046
 6506SOL    HW119970   3.735   2.174  11.090
 6506SOL    HW219971   3.823   2.291   0.028
 6507SOL     OW19972   3.785   2.020   0.311
 6507SOL    HW119973   3.776   2.099   0.257
 6507SOL    HW219974   3.869   1.982   0.283
 6508SOL     OW19975   4.340   2.701   1.438
 6508SOL    HW119976   4.377   2.788   1.421
 6508SOL    HW219977   4.415   2.648   1.464
 6509SOL     OW19978   4.391   2.419   1.739
 6509SOL    HW119979   4.413   2.495   1.794
 6509SOL    HW219980   4.476   2.389   1.705
 6510SOL     OW19981   4.105   3.602   1.561
 6510SOL    HW119982   4.021   3.646   1.546
 6510SOL    HW219983   4.082   3.521   1.607
 6511SOL     OW19984   4.307   2.589   0.669
 6511SOL    HW119985   4.347   2.675   0.657
 6511SOL    HW219986   4.238   2.585   0.603
 6512SOL     OW19987   3.942   3.168   1.853
 6512SOL    HW119988   3.879   3.102   1.823
 6512SOL    HW219989   3.923   3.178   1.946
 6513SOL     OW19990   3.811   3.092   0.667
 6513SOL    HW119991   3.821   3.045   0.750
 6513SOL    HW219992   3.881   3.057   0.611
 6514SOL     OW19993   4.424   3.248   1.670
 6514SOL    HW119994   4.333   3.219   1.656
 6514SOL    HW219995   4.416   3.343   1.682
 6515SOL     OW19996   4.163   2.296   0.535
 6515SOL    HW119997   4.183   2.228   0.470
 6515SOL    HW219998   4.104   2.253   0.597
 6516SOL     OW19999   4.055   2.418   1.288
 6516SOL    HW120000   4.108   2.362   1.344
 6516SOL    HW220001   4.076   2.390   1.199
 6517SOL     OW20002   0.034   3.468   0.688
 6517SOL    HW120003   0.064   3.533   0.625
 6517SOL    HW220004   4.467   3.418   0.642
 6518SOL     OW20005   3.765   2.930   0.301
 6518SOL    HW120006   3.861   2.925   0.298
 6518SOL    HW220007   3.738   2.842   0.326
 6519SOL     OW20008   3.951   2.486   1.988
 6519SOL    HW120009   3.863   2.483   2.023
 6519SOL    HW220010   3.941   2.461   1.896
 6520SOL     OW20011   3.947   2.151   2.854
 6520SOL    HW120012   3.979   2.114   2.936
 6520SOL    HW220013   3.858   2.116   2.844
 6521SOL     OW20014   3.724   2.246   2.500
 6521SOL    HW120015   3.642   2.272   2.542
 6521SOL    HW220016   3.702   2.167   2.451
 6522SOL     OW20017   4.265   3.099   3.007
 6522SOL    HW120018   4.202   3.167   2.985
 6522SOL    HW220019   4.337   3.146   3.050
 6523SOL     OW20020   0.015   2.638   3.719
 6523SOL    HW120021   0.068   2.673   3.791
 6523SOL    HW220022   0.059   2.668   3.639
 6524SOL     OW20023   4.400   2.848   2.490
 6524SOL    HW120024   4.475   2.841   2.549
 6524SOL    HW220025   4.340   2.908   2.534
 6525SOL     OW20026   4.419   3.020   3.672
 6525SOL    HW120027   4.456   3.100   3.634
 6525SOL    HW220028   4.325   3.026   3.653
 6526SOL     OW20029   4.063   3.293   2.931
 6526SOL    HW120030   3.990   3.247   2.888
 6526SOL    HW220031   4.105   3.341   2.860
 6527SOL     OW20032   4.172   2.260   3.340
 6527SOL    HW120033   4.247   2.201   3.347
 6527SOL    HW220034   4.096   2.205   3.358
 6528SOL     OW20035   3.941   3.577   2.333
 6528SOL    HW120036   3.961   3.653   2.389
 6528SOL    HW220037   4.018   3.569   2.277
 6529SOL     OW20038   3.955   3.305   2.397
 6529SOL    HW120039   3.935   3.398   2.401
 6529SOL    HW220040   3.898   3.265   2.462
 6530SOL     OW20041   3.978   2.950   2.747
 6530SOL    HW120042   3.983   2.865   2.790
 6530SOL    HW220043   3.928   3.005   2.808
 6531SOL     OW20044   4.363   3.658   3.320
 6531SOL    HW120045   4.274   3.628   3.340
 6531SOL    HW220046   4.357   3.753   3.319
 6532SOL     OW20047   4.308   2.849   2.004
 6532SOL    HW120048   4.340   2.897   1.928
 6532SOL    HW220049   4.376   2.861   2.071
 6533SOL     OW20050   3.841   2.515   2.423
 6533SOL    HW120051   3.808   2.428   2.444
 6533SOL    HW220052   3.832   2.565   2.504
 6534SOL     OW20053   3.760   3.454   1.984
 6534SOL    HW120054   3.740   3.363   2.004
 6534SOL    HW220055   3.735   3.502   2.063
 6535SOL     OW20056   3.846   2.605   3.447
 6535SOL    HW120057   3.938   2.633   3.452
 6535SOL    HW220058   3.796   2.686   3.452
 6536SOL     OW20059   4.306   3.251   2.599
 6536SOL    HW120060   4.271   3.162   2.601
 6536SOL    HW220061   4.310   3.273   2.506
 6537SOL     OW20062   0.022   1.871   2.387
 6537SOL    HW120063   0.051   1.930   2.317
 6537SOL    HW220064   4.427   1.885   2.391
 6538SOL     OW20065   3.910   2.824   3.138
 6538SOL    HW120066   3.997   2.786   3.121
 6538SOL    HW220067   3.851   2.774   3.082
 6539SOL     OW20068   4.063   2.111   3.680
 6539SOL    HW120069   4.103   2.196   3.698
 6539SOL    HW220070   3.972   2.122   3.707
 6540SOL     OW20071   4.311   2.587   2.132
 6540SOL    HW120072   4.305   2.668   2.081
 6540SOL    HW220073   4.246   2.599   2.201
 6541SOL     OW20074   3.811   2.684   2.638
 6541SOL    HW120075   3.892   2.676   2.689
 6541SOL    HW220076   3.769   2.763   2.672
 6542SOL     OW20077   3.852   3.722   3.443
 6542SOL    HW120078   3.855   3.699   3.535
 6542SOL    HW220079   3.765   3.697   3.414
 6543SOL     OW20080   4.247   2.049   2.743
 6543SOL    HW120081   4.267   2.056   2.836
 6543SOL    HW220082   4.257   2.138   2.709
 6544SOL     OW20083   4.083   3.678   2.729
 6544SOL    HW120084   4.135   3.598   2.737
 6544SOL    HW220085   4.146   3.749   2.739
 6545SOL     OW20086   4.040   2.823   2.114
 6545SOL    HW120087   4.124   2.842   2.072
 6545SOL    HW220088   4.012   2.740   2.076
 6546SOL     OW20089   4.177   3.113   3.596
 6546SOL    HW120090   4.150   3.126   3.505
 6546SOL    HW220091   4.096   3.123   3.646
 6547SOL     OW20092   3.926   2.139   3.366
 6547SOL    HW120093   3.844   2.190   3.363
 6547SOL    HW220094   3.904   2.061   3.416
 6548SOL     OW20095   4.191   3.596   2.188
 6548SOL    HW120096   4.226   3.657   2.253
 6548SOL    HW220097   4.259   3.592   2.121
 6549SOL     OW20098   3.980   3.654   3.092
 6549SOL    HW120099   4.026   3.581   3.134
 6549SOL    HW220100   3.967   3.627   3.002
 6550SOL     OW20101   4.113   2.553   2.334
 6550SOL    HW120102   4.136   2.462   2.350
 6550SOL    HW220103   4.020   2.558   2.353
 6551SOL     OW20104   4.340   1.967   1.981
 6551SOL    HW120105   4.435   1.954   1.980
 6551SOL    HW220106   4.312   1.946   1.892
 6552SOL     OW20107   0.023   3.279   2.768
 6552SOL    HW120108   0.072   3.339   2.711
 6552SOL    HW220109   4.445   3.256   2.717
 6553SOL     OW20110   4.259   1.928   2.362
 6553SOL    HW120111   4.180   1.932   2.415
 6553SOL    HW220112   4.254   2.006   2.306
 6554SOL     OW20113   4.017   1.911   2.047
 6554SOL    HW120114   4.078   1.973   2.008
 6554SOL    HW220115   4.073   1.847   2.092
 6555SOL     OW20116   0.329   2.531   3.314
 6555SOL    HW120117   0.272   2.460   3.283
 6555SOL    HW220118   0.412   2.489   3.332
 6556SOL     OW20119   4.191   3.006   2.589
 6556SOL    HW120120   4.125   2.986   2.655
 6556SOL    HW220121   4.148   2.991   2.505
 6557SOL     OW20122   3.806   2.415   3.255
 6557SOL    HW120123   3.897   2.415   3.227
 6557SOL    HW220124   3.801   2.485   3.320
 6558SOL     OW20125   4.281   2.070   3.011
 6558SOL    HW120126   4.328   2.012   3.071
 6558SOL    HW220127   4.194   2.080   3.050
 6559SOL     OW20128   4.231   3.247   2.036
 6559SOL    HW120129   4.146   3.233   2.077
 6559SOL    HW220130   4.212   3.259   1.943
 6560SOL     OW20131   4.243   2.128   2.182
 6560SOL    HW120132   4.285   2.073   2.116
 6560SOL    HW220133   4.222   2.210   2.136
 6561SOL     OW20134   4.142   2.676   3.113
 6561SOL    HW120135   4.209   2.685   3.180
 6561SOL    HW220136   4.107   2.588   3.125
 6562SOL     OW20137   3.796   3.436   3.218
 6562SOL    HW120138   3.764   3.506   3.160
 6562SOL    HW220139   3.891   3.439   3.209
 6563SOL     OW20140   4.061   2.977   2.350
 6563SOL    HW120141   4.064   3.049   2.288
 6563SOL    HW220142   4.061   2.898   2.296
 6564SOL     OW20143   4.302   2.398   2.728
 6564SOL    HW120144   4.301   2.465   2.660
 6564SOL    HW220145   4.370   2.427   2.789
 6565SOL     OW20146   4.071   3.400   3.176
 6565SOL    HW120147   4.068   3.355   3.091
 6565SOL    HW220148   4.164   3.399   3.199
 6566SOL     OW20149   4.139   2.603   3.468
 6566SOL    HW120150   4.199   2.646   3.407
 6566SOL    HW220151   4.180   2.520   3.489
 6567SOL     OW20152   4.234   1.913   3.595
 6567SOL    HW120153   4.186   1.854   3.537
 6567SOL    HW220154   4.170   1.982   3.617
 6568SOL     OW20155   4.287   2.760   2.889
 6568SOL    HW120156   4.309   2.851   2.904
 6568SOL    HW220157   4.242   2.732   2.969
 6569SOL     OW20158   4.023   2.061   3.109
 6569SOL    HW120159   3.985   2.093   3.191
 6569SOL    HW220160   4.004   1.967   3.109
 6570SOL     OW20161   3.771   3.173   3.138
 6570SOL    HW120162   3.802   3.117   3.208
 6570SOL    HW220163   3.775   3.262   3.174
 6571SOL     OW20164   4.019   1.926   2.489
 6571SOL    HW120165   4.001   2.018   2.511
 6571SOL    HW220166   4.034   1.883   2.573
 6572SOL     OW20167   4.075   2.776   3.671
 6572SOL    HW120168   4.156   2.791   3.720
 6572SOL    HW220169   4.098   2.712   3.604
 6573SOL     OW20170   4.030   2.670   2.807
 6573SOL    HW120171   4.121   2.699   2.808
 6573SOL    HW220172   4.033   2.579   2.836
 6574SOL     OW20173   4.065   2.392   2.870
 6574SOL    HW120174   4.028   2.306   2.855
 6574SOL    HW220175   4.146   2.393   2.819
 6575SOL     OW20176   3.730   3.181   2.058
 6575SOL    HW120177   3.643   3.196   2.020
 6575SOL    HW220178   3.726   3.092   2.092
 6576SOL     OW20179   3.818   3.646   2.803
 6576SOL    HW120180   3.787   3.568   2.757
 6576SOL    HW220181   3.907   3.660   2.771
 6577SOL     OW20182   4.233   3.448   2.768
 6577SOL    HW120183   4.319   3.471   2.802
 6577SOL    HW220184   4.250   3.380   2.703
 6578SOL     OW20185   3.759   2.408   2.978
 6578SOL    HW120186   3.838   2.394   2.926
 6578SOL    HW220187   3.790   2.410   3.069
 6579SOL     OW20188   3.915   2.383   3.592
 6579SOL    HW120189   3.970   2.341   3.526
 6579SOL    HW220190   3.876   2.458   3.547
 6580SOL     OW20191   0.027   2.413   2.123
 6580SOL    HW120192   0.024   2.364   2.205
 6580SOL    HW220193   4.459   2.479   2.132
 6581SOL     OW20194   3.967   3.414   3.586
 6581SOL    HW120195   3.941   3.479   3.652
 6581SOL    HW220196   3.966   3.331   3.633
 6582SOL     OW20197   4.186   2.354   2.047
 6582SOL    HW120198   4.245   2.426   2.068
 6582SOL    HW220199   4.101   2.397   2.033
 6583SOL     OW20200   3.867   3.003   3.335
 6583SOL    HW120201   3.868   2.953   3.417
 6583SOL    HW220202   3.883   2.937   3.268
 6584SOL     OW20203   3.811   3.132   2.874
 6584SOL    HW120204   3.794   3.143   2.967
 6584SOL    HW220205   3.741   3.075   2.843
 6585SOL     OW20206   4.389   3.514   3.560
 6585SOL    HW120207   4.354   3.595   3.596
 6585SOL    HW220208   4.411   3.535   3.470
 6586SOL     OW20209   3.864   3.657   3.705
 6586SOL    HW120210   3.813   3.592   3.753
 6586SOL    HW220211   3.909   3.707   3.773
 6587SOL     OW20212   3.982   2.181   2.576
 6587SOL    HW120213   3.895   2.214   2.555
 6587SOL    HW220214   3.982   2.172   2.671
 6588SOL     OW20215   4.085   3.172   3.352
 6588SOL    HW120216   4.065   3.246   3.295
 6588SOL    HW220217   4.014   3.110   3.337
 6589SOL     OW20218   4.327   3.352   2.341
 6589SOL    HW120219   4.342   3.293   2.268
 6589SOL    HW220220   4.259   3.412   2.309
 6590SOL     OW20221   3.985   3.209   2.151
 6590SOL    HW120222   3.892   3.205   2.128
 6590SOL    HW220223   3.986   3.247   2.239
 6591SOL     OW20224   3.837   2.891   3.584
 6591SOL    HW120225   3.760   2.865   3.635
 6591SOL    HW220226   3.911   2.849   3.629
 6592SOL     OW20227   4.387   2.068   3.356
 6592SOL    HW120228   4.477   2.072   3.323
 6592SOL    HW220229   4.396   2.055   3.450
 6593SOL     OW20230   3.804   2.192   1.895
 6593SOL    HW120231   3.716   2.174   1.862
 6593SOL    HW220232   3.834   2.268   1.845
 6594SOL     OW20233   3.790   2.017   2.168
 6594SOL    HW120234   3.775   2.097   2.117
 6594SOL    HW220235   3.875   1.984   2.139
 6595SOL     OW20236   4.340   2.701   3.300
 6595SOL    HW120237   4.377   2.788   3.283
 6595SOL    HW220238   4.415   2.648   3.327
 6596SOL     OW20239   4.391   2.419   3.602
 6596SOL    HW120240   4.413   2.495   3.656
 6596SOL    HW220241   4.476   2.389   3.567
 6597SOL     OW20242   4.105   3.602   3.423
 6597SOL    HW120243   4.021   3.646   3.408
 6597SOL    HW220244   4.082   3.521   3.469
 6598SOL     OW20245   4.307   2.590   2.532
 6598SOL    HW120246   4.348   2.675   2.518
 6598SOL    HW220247   4.239   2.584   2.465
 6599SOL     OW20248   3.942   3.168   3.715
 6599SOL    HW120249   3.879   3.102   3.685
 6599SOL    HW220250   3.923   3.178   3.808
 6600SOL     OW20251   3.812   3.093   2.528
 6600SOL    HW120252   3.820   3.047   2.611
 6600SOL    HW220253   3.878   3.053   2.472
 6601SOL     OW20254   4.424   3.248   3.532
 6601SOL    HW120255   4.334   3.219   3.518
 6601SOL    HW220256   4.416   3.343   3.544
 6602SOL     OW20257   4.166   2.294   2.398
 6602SOL    HW120258   4.181   2.228   2.330
 6602SOL    HW220259   4.106   2.252   2.459
 6603SOL     OW20260   4.055   2.418   3.150
 6603SOL    HW120261   4.108   2.362   3.206
 6603SOL    HW220262   4.076   2.391   3.061
 6604SOL     OW20263   0.035   3.469   2.550
 6604SOL    HW120264   0.060   3.535   2.486
 6604SOL    HW220265   4.469   3.416   2.505
 6605SOL     OW20266   3.767   2.930   2.169
 6605SOL    HW120267   3.861   2.921   2.151
 6605SOL    HW220268   3.739   2.841   2.192
 6606SOL     OW20269   3.952   2.486   3.850
 6606SOL    HW120270   3.863   2.483   3.885
 6606SOL    HW220271   3.942   2.461   3.758
 6607SOL     OW20272   3.947   2.151   4.716
 6607SOL    HW120273   3.979   2.114   4.799
 6607SOL    HW220274   3.859   2.116   4.706
 6608SOL     OW20275   3.724   2.246   4.362
 6608SOL    HW120276   3.642   2.271   4.404
 6608SOL    HW220277   3.702   2.167   4.313
 6609SOL     OW20278   4.266   3.099   4.868
 6609SOL    HW120279   4.201   3.167   4.846
 6609SOL    HW220280   4.337   3.147   4.912
 6610SOL     OW20281   0.015   2.638   5.581
 6610SOL    HW120282   0.067   2.673   5.653
 6610SOL    HW220283   0.059   2.670   5.502
 6611SOL     OW20284   4.400   2.849   4.352
 6611SOL    HW120285   4.474   2.840   4.412
 6611SOL    HW220286   4.340   2.908   4.396
 6612SOL     OW20287   4.419   3.020   5.534
 6612SOL    HW120288   4.456   3.100   5.496
 6612SOL    HW220289   4.325   3.026   5.515
 6613SOL     OW20290   4.063   3.292   4.793
 6613SOL    HW120291   3.990   3.247   4.751
 6613SOL    HW220292   4.105   3.341   4.722
 6614SOL     OW20293   4.172   2.260   5.201
 6614SOL    HW120294   4.247   2.201   5.209
 6614SOL    HW220295   4.096   2.205   5.220
 6615SOL     OW20296   3.941   3.577   4.195
 6615SOL    HW120297   3.961   3.653   4.251
 6615SOL    HW220298   4.018   3.569   4.139
 6616SOL     OW20299   3.955   3.305   4.259
 6616SOL    HW120300   3.935   3.398   4.263
 6616SOL    HW220301   3.898   3.265   4.324
 6617SOL     OW20302   3.979   2.950   4.609
 6617SOL    HW120303   3.983   2.865   4.652
 6617SOL    HW220304   3.928   3.005   4.670
 6618SOL     OW20305   4.362   3.658   5.182
 6618SOL    HW120306   4.274   3.628   5.202
 6618SOL    HW220307   4.356   3.753   5.181
 6619SOL     OW20308   4.308   2.849   3.866
 6619SOL    HW120309   4.340   2.897   3.790
 6619SOL    HW220310   4.376   2.861   3.933
 6620SOL     OW20311   3.841   2.515   4.285
 6620SOL    HW120312   3.808   2.428   4.306
 6620SOL    HW220313   3.832   2.565   4.366
 6621SOL     OW20314   3.760   3.454   3.846
 6621SOL    HW120315   3.740   3.363   3.866
 6621SOL    HW220316   3.735   3.502   3.925
 6622SOL     OW20317   3.846   2.605   5.309
 6622SOL    HW120318   3.937   2.634   5.314
 6622SOL    HW220319   3.794   2.685   5.313
 6623SOL     OW20320   4.306   3.251   4.461
 6623SOL    HW120321   4.271   3.162   4.463
 6623SOL    HW220322   4.310   3.273   4.368
 6624SOL     OW20323   0.022   1.871   4.249
 6624SOL    HW120324   0.051   1.930   4.179
 6624SOL    HW220325   4.427   1.885   4.253
 6625SOL     OW20326   3.911   2.824   5.000
 6625SOL    HW120327   3.997   2.786   4.982
 6625SOL    HW220328   3.850   2.774   4.945
 6626SOL     OW20329   4.063   2.111   5.543
 6626SOL    HW120330   4.103   2.196   5.559
 6626SOL    HW220331   3.971   2.121   5.569
 6627SOL     OW20332   4.311   2.588   3.995
 6627SOL    HW120333   4.305   2.668   3.943
 6627SOL    HW220334   4.246   2.599   4.063
 6628SOL     OW20335   3.811   2.684   4.500
 6628SOL    HW120336   3.892   2.676   4.551
 6628SOL    HW220337   3.769   2.763   4.534
 6629SOL     OW20338   3.852   3.723   5.305
 6629SOL    HW120339   3.855   3.699   5.397
 6629SOL    HW220340   3.765   3.696   5.276
 6630SOL     OW20341   4.247   2.049   4.605
 6630SOL    HW120342   4.268   2.056   4.698
 6630SOL    HW220343   4.257   2.138   4.571
 6631SOL     OW20344   4.083   3.678   4.591
 6631SOL    HW120345   4.135   3.598   4.599
 6631SOL    HW220346   4.146   3.749   4.601
 6632SOL     OW20347   4.040   2.823   3.977
 6632SOL    HW120348   4.124   2.842   3.934
 6632SOL    HW220349   4.012   2.740   3.938
 6633SOL     OW20350   4.177   3.113   5.458
 6633SOL    HW120351   4.150   3.126   5.367
 6633SOL    HW220352   4.095   3.122   5.508
 6634SOL     OW20353   3.925   2.140   5.228
 6634SOL    HW120354   3.844   2.190   5.225
 6634SOL    HW220355   3.903   2.061   5.278
 6635SOL     OW20356   4.191   3.597   4.050
 6635SOL    HW120357   4.226   3.657   4.115
 6635SOL    HW220358   4.259   3.592   3.982
 6636SOL     OW20359   3.980   3.655   4.954
 6636SOL    HW120360   4.026   3.581   4.995
 6636SOL    HW220361   3.966   3.627   4.864
 6637SOL     OW20362   4.113   2.553   4.196
 6637SOL    HW120363   4.136   2.461   4.212
 6637SOL    HW220364   4.020   2.558   4.215
 6638SOL     OW20365   4.340   1.968   3.843
 6638SOL    HW120366   4.435   1.954   3.842
 6638SOL    HW220367   4.312   1.946   3.754
 6639SOL     OW20368   0.023   3.279   4.630
 6639SOL    HW120369   0.072   3.339   4.573
 6639SOL    HW220370   4.445   3.256   4.579
 6640SOL     OW20371   4.259   1.928   4.224
 6640SOL    HW120372   4.180   1.931   4.277
 6640SOL    HW220373   4.254   2.006   4.168
 6641SOL     OW20374   4.017   1.911   3.909
 6641SOL    HW120375   4.078   1.973   3.870
 6641SOL    HW220376   4.073   1.847   3.954
 6642SOL     OW20377   0.329   2.531   5.176
 6642SOL    HW120378   0.270   2.462   5.147
 6642SOL    HW220379   0.412   2.485   5.193
 6643SOL     OW20380   4.192   3.006   4.451
 6643SOL    HW120381   4.125   2.986   4.517
 6643SOL    HW220382   4.148   2.991   4.367
 6644SOL     OW20383   3.806   2.415   5.116
 6644SOL    HW120384   3.897   2.415   5.088
 6644SOL    HW220385   3.801   2.485   5.182
 6645SOL     OW20386   4.281   2.070   4.873
 6645SOL    HW120387   4.328   2.012   4.933
 6645SOL    HW220388   4.194   2.080   4.912
 6646SOL     OW20389   4.231   3.247   3.898
 6646SOL    HW120390   4.146   3.233   3.939
 6646SOL    HW220391   4.212   3.259   3.805
 6647SOL     OW20392   4.243   2.128   4.044
 6647SOL    HW120393   4.285   2.073   3.978
 6647SOL    HW220394   4.222   2.210   3.998
 6648SOL     OW20395   4.142   2.676   4.974
 6648SOL    HW120396   4.209   2.685   5.042
 6648SOL    HW220397   4.107   2.588   4.987
 6649SOL     OW20398   3.796   3.436   5.080
 6649SOL    HW120399   3.764   3.506   5.022
 6649SOL    HW220400   3.891   3.439   5.071
 6650SOL     OW20401   4.061   2.976   4.212
 6650SOL    HW120402   4.064   3.049   4.150
 6650SOL    HW220403   4.061   2.898   4.158
 6651SOL     OW20404   4.303   2.398   4.590
 6651SOL    HW120405   4.301   2.465   4.522
 6651SOL    HW220406   4.370   2.428   4.651
 6652SOL     OW20407   4.071   3.400   5.037
 6652SOL    HW120408   4.067   3.355   4.953
 6652SOL    HW220409   4.164   3.399   5.061
 6653SOL     OW20410   4.139   2.604   5.330
 6653SOL    HW120411   4.199   2.646   5.269
 6653SOL    HW220412   4.180   2.520   5.351
 6654SOL     OW20413   4.234   1.913   5.457
 6654SOL    HW120414   4.186   1.854   5.399
 6654SOL    HW220415   4.170   1.982   5.480
 6655SOL     OW20416   4.287   2.759   4.751
 6655SOL    HW120417   4.309   2.851   4.766
 6655SOL    HW220418   4.242   2.732   4.831
 6656SOL     OW20419   4.023   2.061   4.971
 6656SOL    HW120420   3.984   2.093   5.053
 6656SOL    HW220421   4.004   1.967   4.971
 6657SOL     OW20422   3.773   3.173   4.999
 6657SOL    HW120423   3.803   3.117   5.071
 6657SOL    HW220424   3.775   3.262   5.036
 6658SOL     OW20425   4.019   1.926   4.351
 6658SOL    HW120426   4.001   2.018   4.373
 6658SOL    HW220427   4.034   1.883   4.435
 6659SOL     OW20428   4.075   2.776   5.534
 6659SOL    HW120429   4.157   2.790   5.582
 6659SOL    HW220430   4.098   2.712   5.466
 6660SOL     OW20431   4.030   2.670   4.668
 6660SOL    HW120432   4.121   2.699   4.670
 6660SOL    HW220433   4.033   2.579   4.698
 6661SOL     OW20434   4.065   2.392   4.732
 6661SOL    HW120435   4.028   2.305   4.718
 6661SOL    HW220436   4.146   2.393   4.681
 6662SOL     OW20437   3.730   3.181   3.920
 6662SOL    HW120438   3.643   3.196   3.882
 6662SOL    HW220439   3.726   3.092   3.954
 6663SOL     OW20440   3.818   3.646   4.665
 6663SOL    HW120441   3.787   3.568   4.619
 6663SOL    HW220442   3.907   3.660   4.633
 6664SOL     OW20443   4.233   3.448   4.630
 6664SOL    HW120444   4.319   3.471   4.664
 6664SOL    HW220445   4.250   3.380   4.565
 6665SOL     OW20446   3.759   2.409   4.840
 6665SOL    HW120447   3.839   2.395   4.788
 6665SOL    HW220448   3.789   2.410   4.931
 6666SOL     OW20449   3.915   2.383   5.454
 6666SOL    HW120450   3.969   2.341   5.387
 6666SOL    HW220451   3.875   2.458   5.410
 6667SOL     OW20452   0.027   2.413   3.985
 6667SOL    HW120453   0.023   2.363   4.067
 6667SOL    HW220454   4.459   2.480   3.994
 6668SOL     OW20455   3.967   3.414   5.448
 6668SOL    HW120456   3.941   3.479   5.514
 6668SOL    HW220457   3.966   3.331   5.495
 6669SOL     OW20458   4.186   2.354   3.909
 6669SOL    HW120459   4.245   2.426   3.930
 6669SOL    HW220460   4.101   2.397   3.895
 6670SOL     OW20461   3.868   3.003   5.197
 6670SOL    HW120462   3.868   2.953   5.279
 6670SOL    HW220463   3.884   2.937   5.130
 6671SOL     OW20464   3.811   3.132   4.735
 6671SOL    HW120465   3.795   3.144   4.829
 6671SOL    HW220466   3.741   3.075   4.705
 6672SOL     OW20467   4.389   3.514   5.422
 6672SOL    HW120468   4.354   3.595   5.458
 6672SOL    HW220469   4.411   3.536   5.331
 6673SOL     OW20470   3.865   3.657   5.567
 6673SOL    HW120471   3.813   3.592   5.615
 6673SOL    HW220472   3.909   3.707   5.635
 6674SOL     OW20473   3.982   2.181   4.438
 6674SOL    HW120474   3.895   2.214   4.417
 6674SOL    HW220475   3.982   2.172   4.534
 6675SOL     OW20476   4.086   3.172   5.213
 6675SOL    HW120477   4.064   3.246   5.157
 6675SOL    HW220478   4.014   3.110   5.199
 6676SOL     OW20479   4.327   3.352   4.203
 6676SOL    HW120480   4.342   3.293   4.130
 6676SOL    HW220481   4.259   3.412   4.171
 6677SOL     OW20482   3.985   3.209   4.013
 6677SOL    HW120483   3.892   3.205   3.990
 6677SOL    HW220484   3.986   3.247   4.101
 6678SOL     OW20485   3.837   2.892   5.447
 6678SOL    HW120486   3.760   2.865   5.497
 6678SOL    HW220487   3.910   2.849   5.491
 6679SOL     OW20488   4.387   2.068   5.218
 6679SOL    HW120489   4.477   2.072   5.186
 6679SOL    HW220490   4.396   2.056   5.312
 6680SOL     OW20491   3.804   2.192   3.757
 6680SOL    HW120492   3.716   2.174   3.724
 6680SOL    HW220493   3.834   2.268   3.707
 6681SOL     OW20494   3.790   2.017   4.030
 6681SOL    HW120495   3.775   2.097   3.978
 6681SOL    HW220496   3.875   1.984   4.001
 6682SOL     OW20497   4.340   2.701   5.162
 6682SOL    HW120498   4.377   2.788   5.145
 6682SOL    HW220499   4.416   2.648   5.189
 6683SOL     OW20500   4.392   2.419   5.463
 6683SOL    HW120501   4.413   2.495   5.518
 6683SOL    HW220502   4.476   2.389   5.430
 6684SOL     OW20503   4.105   3.602   5.285
 6684SOL    HW120504   4.021   3.646   5.270
 6684SOL    HW220505   4.082   3.521   5.331
 6685SOL     OW20506   4.307   2.590   4.394
 6685SOL    HW120507   4.348   2.675   4.380
 6685SOL    HW220508   4.239   2.584   4.327
 6686SOL     OW20509   3.941   3.168   5.577
 6686SOL    HW120510   3.880   3.101   5.546
 6686SOL    HW220511   3.921   3.178   5.670
 6687SOL     OW20512   3.812   3.093   4.390
 6687SOL    HW120513   3.820   3.047   4.473
 6687SOL    HW220514   3.879   3.053   4.334
 6688SOL     OW20515   4.424   3.248   5.394
 6688SOL    HW120516   4.334   3.219   5.380
 6688SOL    HW220517   4.416   3.343   5.406
 6689SOL     OW20518   4.166   2.294   4.260
 6689SOL    HW120519   4.181   2.228   4.193
 6689SOL    HW220520   4.106   2.252   4.321
 6690SOL     OW20521   4.055   2.418   5.012
 6690SOL    HW120522   4.108   2.362   5.068
 6690SOL    HW220523   4.076   2.390   4.923
 6691SOL     OW20524   0.035   3.469   4.412
 6691SOL    HW120525   0.060   3.535   4.348
 6691SOL    HW220526   4.469   3.416   4.367
 6692SOL     OW20527   3.767   2.930   4.031
 6692SOL    HW120528   3.861   2.921   4.013
 6692SOL    HW220529   3.739   2.841   4.053
 6693SOL     OW20530   3.952   2.486   5.712
 6693SOL    HW120531   3.863   2.483   5.747
 6693SOL    HW220532   3.942   2.461   5.620
 6694SOL     OW20533   3.947   2.151   6.578
 6694SOL    HW120534   3.979   2.114   6.660
 6694SOL    HW220535   3.858   2.116   6.568
 6695SOL     OW20536   3.724   2.245   6.224
 6695SOL    HW120537   3.642   2.272   6.266
 6695SOL    HW220538   3.702   2.167   6.174
 6696SOL     OW20539   4.265   3.099   6.732
 6696SOL    HW120540   4.202   3.167   6.709
 6696SOL    HW220541   4.337   3.146   6.774
 6697SOL     OW20542   0.015   2.639   7.443
 6697SOL    HW120543   0.068   2.672   7.514
 6697SOL    HW220544   0.059   2.668   7.363
 6698SOL     OW20545   4.400   2.849   6.214
 6698SOL    HW120546   4.475   2.840   6.274
 6698SOL    HW220547   4.340   2.908   6.258
 6699SOL     OW20548   4.419   3.020   7.396
 6699SOL    HW120549   4.456   3.100   7.358
 6699SOL    HW220550   4.325   3.026   7.377
 6700SOL     OW20551   4.063   3.293   6.655
 6700SOL    HW120552   3.990   3.247   6.612
 6700SOL    HW220553   4.105   3.341   6.584
 6701SOL     OW20554   4.172   2.260   7.064
 6701SOL    HW120555   4.247   2.201   7.071
 6701SOL    HW220556   4.096   2.205   7.082
 6702SOL     OW20557   3.941   3.577   6.058
 6702SOL    HW120558   3.961   3.653   6.113
 6702SOL    HW220559   4.018   3.569   6.001
 6703SOL     OW20560   3.956   3.305   6.121
 6703SOL    HW120561   3.935   3.398   6.125
 6703SOL    HW220562   3.898   3.265   6.186
 6704SOL     OW20563   3.979   2.950   6.471
 6704SOL    HW120564   3.983   2.865   6.514
 6704SOL    HW220565   3.928   3.005   6.532
 6705SOL     OW20566   4.362   3.658   7.044
 6705SOL    HW120567   4.274   3.628   7.064
 6705SOL    HW220568   4.356   3.753   7.043
 6706SOL     OW20569   4.308   2.849   5.728
 6706SOL    HW120570   4.341   2.897   5.652
 6706SOL    HW220571   4.376   2.861   5.795
 6707SOL     OW20572   3.842   2.515   6.147
 6707SOL    HW120573   3.808   2.428   6.168
 6707SOL    HW220574   3.832   2.564   6.228
 6708SOL     OW20575   3.760   3.454   5.708
 6708SOL    HW120576   3.740   3.363   5.728
 6708SOL    HW220577   3.735   3.502   5.787
 6709SOL     OW20578   3.847   2.605   7.171
 6709SOL    HW120579   3.938   2.633   7.176
 6709SOL    HW220580   3.796   2.686   7.176
 6710SOL     OW20581   4.306   3.251   6.323
 6710SOL    HW120582   4.271   3.162   6.325
 6710SOL    HW220583   4.310   3.273   6.230
 6711SOL     OW20584   0.022   1.870   6.111
 6711SOL    HW120585   0.052   1.929   6.041
 6711SOL    HW220586   4.427   1.884   6.115
 6712SOL     OW20587   3.910   2.824   6.862
 6712SOL    HW120588   3.996   2.786   6.845
 6712SOL    HW220589   3.851   2.775   6.805
 6713SOL     OW20590   4.063   2.111   7.404
 6713SOL    HW120591   4.104   2.195   7.422
 6713SOL    HW220592   3.972   2.122   7.431
 6714SOL     OW20593   4.311   2.588   5.857
 6714SOL    HW120594   4.305   2.668   5.805
 6714SOL    HW220595   4.246   2.598   5.925
 6715SOL     OW20596   3.811   2.684   6.362
 6715SOL    HW120597   3.892   2.676   6.413
 6715SOL    HW220598   3.769   2.763   6.396
 6716SOL     OW20599   3.852   3.722   7.167
 6716SOL    HW120600   3.855   3.699   7.260
 6716SOL    HW220601   3.765   3.696   7.138
 6717SOL     OW20602   4.247   2.048   6.467
 6717SOL    HW120603   4.267   2.056   6.560
 6717SOL    HW220604   4.257   2.137   6.432
 6718SOL     OW20605   4.083   3.678   6.453
 6718SOL    HW120606   4.135   3.598   6.461
 6718SOL    HW220607   4.146   3.749   6.463
 6719SOL     OW20608   4.040   2.823   5.839
 6719SOL    HW120609   4.124   2.842   5.795
 6719SOL    HW220610   4.011   2.740   5.800
 6720SOL     OW20611   4.176   3.112   7.320
 6720SOL    HW120612   4.150   3.126   7.229
 6720SOL    HW220613   4.095   3.123   7.370
 6721SOL     OW20614   3.926   2.139   7.089
 6721SOL    HW120615   3.845   2.190   7.087
 6721SOL    HW220616   3.904   2.061   7.140
 6722SOL     OW20617   4.191   3.597   5.912
 6722SOL    HW120618   4.226   3.657   5.977
 6722SOL    HW220619   4.259   3.592   5.844
 6723SOL     OW20620   3.980   3.654   6.816
 6723SOL    HW120621   4.026   3.581   6.857
 6723SOL    HW220622   3.966   3.627   6.726
 6724SOL     OW20623   4.114   2.553   6.058
 6724SOL    HW120624   4.136   2.461   6.074
 6724SOL    HW220625   4.020   2.558   6.077
 6725SOL     OW20626   4.340   1.967   5.705
 6725SOL    HW120627   4.435   1.954   5.704
 6725SOL    HW220628   4.311   1.946   5.617
 6726SOL     OW20629   0.023   3.279   6.492
 6726SOL    HW120630   0.072   3.339   6.435
 6726SOL    HW220631   4.445   3.256   6.441
 6727SOL     OW20632   4.259   1.928   6.086
 6727SOL    HW120633   4.180   1.932   6.139
 6727SOL    HW220634   4.254   2.006   6.030
 6728SOL     OW20635   4.016   1.911   5.772
 6728SOL    HW120636   4.077   1.973   5.731
 6728SOL    HW220637   4.073   1.848   5.816
 6729SOL     OW20638   0.328   2.532   7.037
 6729SOL    HW120639   0.273   2.460   7.006
 6729SOL    HW220640   0.412   2.491   7.057
 6730SOL     OW20641   4.192   3.006   6.313
 6730SOL    HW120642   4.125   2.986   6.379
 6730SOL    HW220643   4.148   2.991   6.229
 6731SOL     OW20644   3.806   2.415   6.979
 6731SOL    HW120645   3.897   2.415   6.951
 6731SOL    HW220646   3.801   2.485   7.044
 6732SOL     OW20647   4.281   2.070   6.735
 6732SOL    HW120648   4.328   2.012   6.795
 6732SOL    HW220649   4.194   2.080   6.774
 6733SOL     OW20650   4.231   3.247   5.760
 6733SOL    HW120651   4.146   3.233   5.801
 6733SOL    HW220652   4.211   3.259   5.667
 6734SOL     OW20653   4.243   2.128   5.906
 6734SOL    HW120654   4.285   2.073   5.840
 6734SOL    HW220655   4.222   2.210   5.860
 6735SOL     OW20656   4.142   2.676   6.837
 6735SOL    HW120657   4.210   2.685   6.904
 6735SOL    HW220658   4.107   2.588   6.849
 6736SOL     OW20659   3.796   3.436   6.942
 6736SOL    HW120660   3.764   3.505   6.884
 6736SOL    HW220661   3.891   3.439   6.933
 6737SOL     OW20662   4.062   2.977   6.074
 6737SOL    HW120663   4.064   3.049   6.012
 6737SOL    HW220664   4.061   2.898   6.020
 6738SOL     OW20665   4.302   2.399   6.453
 6738SOL    HW120666   4.301   2.465   6.384
 6738SOL    HW220667   4.370   2.428   6.513
 6739SOL     OW20668   4.071   3.400   6.900
 6739SOL    HW120669   4.068   3.355   6.815
 6739SOL    HW220670   4.164   3.399   6.923
 6740SOL     OW20671   4.139   2.603   7.192
 6740SOL    HW120672   4.199   2.646   7.131
 6740SOL    HW220673   4.181   2.520   7.212
 6741SOL     OW20674   4.234   1.913   7.319
 6741SOL    HW120675   4.186   1.854   7.261
 6741SOL    HW220676   4.170   1.982   7.341
 6742SOL     OW20677   4.287   2.760   6.613
 6742SOL    HW120678   4.309   2.851   6.628
 6742SOL    HW220679   4.242   2.732   6.693
 6743SOL     OW20680   4.023   2.061   6.833
 6743SOL    HW120681   3.985   2.093   6.915
 6743SOL    HW220682   4.004   1.967   6.833
 6744SOL     OW20683   3.770   3.173   6.862
 6744SOL    HW120684   3.802   3.117   6.933
 6744SOL    HW220685   3.775   3.262   6.897
 6745SOL     OW20686   4.019   1.926   6.213
 6745SOL    HW120687   4.001   2.018   6.235
 6745SOL    HW220688   4.034   1.883   6.297
 6746SOL     OW20689   4.075   2.776   7.396
 6746SOL    HW120690   4.156   2.791   7.444
 6746SOL    HW220691   4.098   2.712   7.328
 6747SOL     OW20692   4.030   2.670   6.531
 6747SOL    HW120693   4.121   2.699   6.532
 6747SOL    HW220694   4.034   2.579   6.560
 6748SOL     OW20695   4.065   2.392   6.595
 6748SOL    HW120696   4.028   2.306   6.579
 6748SOL    HW220697   4.146   2.393   6.543
 6749SOL     OW20698   3.730   3.181   5.781
 6749SOL    HW120699   3.643   3.196   5.744
 6749SOL    HW220700   3.726   3.092   5.816
 6750SOL     OW20701   3.818   3.646   6.528
 6750SOL    HW120702   3.787   3.568   6.481
 6750SOL    HW220703   3.907   3.660   6.495
 6751SOL     OW20704   4.233   3.448   6.492
 6751SOL    HW120705   4.319   3.471   6.526
 6751SOL    HW220706   4.250   3.380   6.427
 6752SOL     OW20707   3.759   2.408   6.702
 6752SOL    HW120708   3.838   2.394   6.650
 6752SOL    HW220709   3.790   2.410   6.793
 6753SOL     OW20710   3.915   2.383   7.316
 6753SOL    HW120711   3.971   2.342   7.250
 6753SOL    HW220712   3.876   2.458   7.271
 6754SOL     OW20713   0.027   2.413   5.847
 6754SOL    HW120714   0.023   2.364   5.929
 6754SOL    HW220715   4.459   2.479   5.856
 6755SOL     OW20716   3.967   3.414   7.310
 6755SOL    HW120717   3.941   3.479   7.376
 6755SOL    HW220718   3.966   3.331   7.357
 6756SOL     OW20719   4.186   2.354   5.772
 6756SOL    HW120720   4.245   2.427   5.792
 6756SOL    HW220721   4.101   2.396   5.757
 6757SOL     OW20722   3.867   3.003   7.059
 6757SOL    HW120723   3.868   2.953   7.141
 6757SOL    HW220724   3.883   2.937   6.992
 6758SOL     OW20725   3.811   3.132   6.598
 6758SOL    HW120726   3.793   3.143   6.691
 6758SOL    HW220727   3.741   3.074   6.567
 6759SOL     OW20728   4.389   3.514   7.284
 6759SOL    HW120729   4.354   3.595   7.320
 6759SOL    HW220730   4.412   3.535   7.194
 6760SOL     OW20731   3.864   3.657   7.429
 6760SOL    HW120732   3.813   3.592   7.477
 6760SOL    HW220733   3.909   3.707   7.497
 6761SOL     OW20734   3.982   2.181   6.300
 6761SOL    HW120735   3.895   2.214   6.279
 6761SOL    HW220736   3.982   2.172   6.395
 6762SOL     OW20737   4.085   3.172   7.076
 6762SOL    HW120738   4.065   3.246   7.019
 6762SOL    HW220739   4.013   3.110   7.061
 6763SOL     OW20740   4.327   3.352   6.065
 6763SOL    HW120741   4.342   3.292   5.992
 6763SOL    HW220742   4.259   3.412   6.033
 6764SOL     OW20743   3.985   3.209   5.875
 6764SOL    HW120744   3.892   3.204   5.852
 6764SOL    HW220745   3.986   3.247   5.963
 6765SOL     OW20746   3.837   2.891   7.308
 6765SOL    HW120747   3.760   2.865   7.359
 6765SOL    HW220748   3.911   2.849   7.353
 6766SOL     OW20749   4.387   2.068   7.079
 6766SOL    HW120750   4.477   2.073   7.047
 6766SOL    HW220751   4.397   2.056   7.174
 6767SOL     OW20752   3.804   2.191   5.619
 6767SOL    HW120753   3.716   2.174   5.588
 6767SOL    HW220754   3.833   2.267   5.569
 6768SOL     OW20755   3.789   2.017   5.892
 6768SOL    HW120756   3.774   2.096   5.841
 6768SOL    HW220757   3.874   1.985   5.862
 6769SOL     OW20758   4.340   2.701   7.024
 6769SOL    HW120759   4.377   2.788   7.007
 6769SOL    HW220760   4.415   2.648   7.050
 6770SOL     OW20761   4.392   2.419   7.326
 6770SOL    HW120762   4.413   2.495   7.380
 6770SOL    HW220763   4.476   2.389   7.291
 6771SOL     OW20764   4.105   3.602   7.147
 6771SOL    HW120765   4.021   3.646   7.132
 6771SOL    HW220766   4.082   3.521   7.192
 6772SOL     OW20767   4.307   2.590   6.256
 6772SOL    HW120768   4.348   2.675   6.242
 6772SOL    HW220769   4.239   2.584   6.189
 6773SOL     OW20770   3.942   3.168   7.439
 6773SOL    HW120771   3.879   3.102   7.409
 6773SOL    HW220772   3.923   3.178   7.533
 6774SOL     OW20773   3.811   3.093   6.252
 6774SOL    HW120774   3.819   3.047   6.335
 6774SOL    HW220775   3.878   3.053   6.195
 6775SOL     OW20776   4.423   3.248   7.256
 6775SOL    HW120777   4.333   3.219   7.242
 6775SOL    HW220778   4.416   3.343   7.268
 6776SOL     OW20779   4.167   2.294   6.123
 6776SOL    HW120780   4.181   2.228   6.054
 6776SOL    HW220781   4.106   2.252   6.183
 6777SOL     OW20782   4.054   2.418   6.874
 6777SOL    HW120783   4.109   2.362   6.930
 6777SOL    HW220784   4.076   2.391   6.785
 6778SOL     OW20785   0.035   3.469   6.274
 6778SOL    HW120786   0.060   3.535   6.210
 6778SOL    HW220787   4.469   3.416   6.229
 6779SOL     OW20788   3.767   2.930   5.893
 6779SOL    HW120789   3.861   2.921   5.875
 6779SOL    HW220790   3.739   2.841   5.916
 6780SOL     OW20791   3.951   2.486   7.574
 6780SOL    HW120792   3.863   2.483   7.609
 6780SOL    HW220793   3.942   2.461   7.482
 6781SOL     OW20794   3.947   2.151   8.440
 6781SOL    HW120795   3.979   2.114   8.522
 6781SOL    HW220796   3.858   2.116   8.430
 6782SOL     OW20797   3.724   2.246   8.086
 6782SOL    HW120798   3.642   2.272   8.128
 6782SOL    HW220799   3.702   2.167   8.037
 6783SOL     OW20800   4.265   3.099   8.593
 6783SOL    HW120801   4.202   3.168   8.571
 6783SOL    HW220802   4.337   3.146   8.636
 6784SOL     OW20803   0.015   2.638   9.305
 6784SOL    HW120804   0.068   2.672   9.377
 6784SOL    HW220805   0.059   2.668   9.226
 6785SOL     OW20806   4.400   2.848   8.076
 6785SOL    HW120807   4.475   2.841   8.135
 6785SOL    HW220808   4.340   2.909   8.120
 6786SOL     OW20809   4.419   3.020   9.258
 6786SOL    HW120810   4.456   3.100   9.221
 6786SOL    HW220811   4.325   3.026   9.239
 6787SOL     OW20812   4.063   3.293   8.517
 6787SOL    HW120813   3.990   3.247   8.474
 6787SOL    HW220814   4.105   3.341   8.446
 6788SOL     OW20815   4.172   2.260   8.926
 6788SOL    HW120816   4.247   2.201   8.933
 6788SOL    HW220817   4.096   2.205   8.944
 6789SOL     OW20818   3.941   3.577   7.919
 6789SOL    HW120819   3.961   3.653   7.975
 6789SOL    HW220820   4.018   3.569   7.863
 6790SOL     OW20821   3.955   3.305   7.983
 6790SOL    HW120822   3.935   3.398   7.987
 6790SOL    HW220823   3.897   3.265   8.048
 6791SOL     OW20824   3.978   2.950   8.333
 6791SOL    HW120825   3.983   2.865   8.376
 6791SOL    HW220826   3.928   3.005   8.394
 6792SOL     OW20827   4.363   3.658   8.906
 6792SOL    HW120828   4.274   3.628   8.926
 6792SOL    HW220829   4.357   3.753   8.905
 6793SOL     OW20830   4.308   2.849   7.591
 6793SOL    HW120831   4.340   2.897   7.514
 6793SOL    HW220832   4.376   2.861   7.657
 6794SOL     OW20833   3.841   2.515   8.009
 6794SOL    HW120834   3.808   2.427   8.031
 6794SOL    HW220835   3.832   2.565   8.090
 6795SOL     OW20836   3.760   3.454   7.570
 6795SOL    HW120837   3.740   3.363   7.591
 6795SOL    HW220838   3.735   3.502   7.649
 6796SOL     OW20839   3.847   2.605   9.033
 6796SOL    HW120840   3.938   2.633   9.038
 6796SOL    HW220841   3.796   2.686   9.038
 6797SOL     OW20842   4.306   3.251   8.185
 6797SOL    HW120843   4.271   3.162   8.187
 6797SOL    HW220844   4.310   3.273   8.092
 6798SOL     OW20845   0.022   1.871   7.973
 6798SOL    HW120846   0.051   1.929   7.903
 6798SOL    HW220847   4.427   1.885   7.977
 6799SOL     OW20848   3.910   2.824   8.724
 6799SOL    HW120849   3.997   2.786   8.707
 6799SOL    HW220850   3.851   2.774   8.667
 6800SOL     OW20851   4.063   2.111   9.266
 6800SOL    HW120852   4.104   2.195   9.284
 6800SOL    HW220853   3.972   2.122   9.293
 6801SOL     OW20854   4.311   2.587   7.718
 6801SOL    HW120855   4.306   2.668   7.667
 6801SOL    HW220856   4.246   2.599   7.787
 6802SOL     OW20857   3.811   2.684   8.224
 6802SOL    HW120858   3.892   2.676   8.274
 6802SOL    HW220859   3.769   2.763   8.258
 6803SOL     OW20860   3.852   3.722   9.029
 6803SOL    HW120861   3.855   3.699   9.121
 6803SOL    HW220862   3.765   3.697   9.000
 6804SOL     OW20863   4.246   2.049   8.329
 6804SOL    HW120864   4.267   2.056   8.422
 6804SOL    HW220865   4.257   2.138   8.295
 6805SOL     OW20866   4.083   3.678   8.315
 6805SOL    HW120867   4.135   3.598   8.323
 6805SOL    HW220868   4.146   3.749   8.325
 6806SOL     OW20869   4.041   2.823   7.700
 6806SOL    HW120870   4.124   2.842   7.658
 6806SOL    HW220871   4.012   2.740   7.662
 6807SOL     OW20872   4.177   3.112   9.182
 6807SOL    HW120873   4.150   3.126   9.091
 6807SOL    HW220874   4.096   3.123   9.232
 6808SOL     OW20875   3.925   2.139   8.951
 6808SOL    HW120876   3.844   2.190   8.950
 6808SOL    HW220877   3.904   2.061   9.002
 6809SOL     OW20878   4.191   3.596   7.774
 6809SOL    HW120879   4.226   3.657   7.839
 6809SOL    HW220880   4.259   3.592   7.706
 6810SOL     OW20881   3.980   3.654   8.678
 6810SOL    HW120882   4.026   3.581   8.720
 6810SOL    HW220883   3.967   3.626   8.588
 6811SOL     OW20884   4.113   2.553   7.920
 6811SOL    HW120885   4.136   2.462   7.936
 6811SOL    HW220886   4.020   2.559   7.939
 6812SOL     OW20887   4.340   1.967   7.567
 6812SOL    HW120888   4.434   1.954   7.567
 6812SOL    HW220889   4.312   1.946   7.479
 6813SOL     OW20890   0.023   3.279   8.354
 6813SOL    HW120891   0.072   3.339   8.297
 6813SOL    HW220892   4.445   3.256   8.303
 6814SOL     OW20893   4.259   1.928   7.948
 6814SOL    HW120894   4.179   1.932   8.001
 6814SOL    HW220895   4.254   2.006   7.892
 6815SOL     OW20896   4.017   1.911   7.634
 6815SOL    HW120897   4.078   1.973   7.594
 6815SOL    HW220898   4.073   1.847   7.678
 6816SOL     OW20899   0.328   2.532   8.899
 6816SOL    HW120900   0.273   2.460   8.869
 6816SOL    HW220901   0.413   2.490   8.919
 6817SOL     OW20902   4.191   3.006   8.175
 6817SOL    HW120903   4.124   2.986   8.241
 6817SOL    HW220904   4.148   2.991   8.091
 6818SOL     OW20905   3.805   2.415   8.841
 6818SOL    HW120906   3.897   2.415   8.813
 6818SOL    HW220907   3.801   2.485   8.906
 6819SOL     OW20908   4.281   2.070   8.597
 6819SOL    HW120909   4.328   2.013   8.658
 6819SOL    HW220910   4.194   2.079   8.636
 6820SOL     OW20911   4.231   3.247   7.622
 6820SOL    HW120912   4.146   3.233   7.663
 6820SOL    HW220913   4.212   3.259   7.529
 6821SOL     OW20914   4.242   2.128   7.768
 6821SOL    HW120915   4.285   2.073   7.702
 6821SOL    HW220916   4.222   2.210   7.722
 6822SOL     OW20917   4.142   2.676   8.699
 6822SOL    HW120918   4.210   2.685   8.766
 6822SOL    HW220919   4.107   2.588   8.711
 6823SOL     OW20920   3.796   3.436   8.804
 6823SOL    HW120921   3.765   3.506   8.746
 6823SOL    HW220922   3.891   3.439   8.795
 6824SOL     OW20923   4.061   2.977   7.936
 6824SOL    HW120924   4.064   3.049   7.874
 6824SOL    HW220925   4.061   2.898   7.882
 6825SOL     OW20926   4.302   2.398   8.314
 6825SOL    HW120927   4.301   2.465   8.246
 6825SOL    HW220928   4.370   2.427   8.375
 6826SOL     OW20929   4.071   3.400   8.762
 6826SOL    HW120930   4.068   3.355   8.677
 6826SOL    HW220931   4.164   3.400   8.785
 6827SOL     OW20932   4.139   2.603   9.054
 6827SOL    HW120933   4.199   2.646   8.993
 6827SOL    HW220934   4.181   2.520   9.075
 6828SOL     OW20935   4.234   1.913   9.181
 6828SOL    HW120936   4.186   1.854   9.123
 6828SOL    HW220937   4.170   1.982   9.203
 6829SOL     OW20938   4.286   2.760   8.475
 6829SOL    HW120939   4.310   2.851   8.490
 6829SOL    HW220940   4.242   2.732   8.555
 6830SOL     OW20941   4.022   2.061   8.695
 6830SOL    HW120942   3.985   2.093   8.777
 6830SOL    HW220943   4.004   1.967   8.695
 6831SOL     OW20944   3.770   3.173   8.724
 6831SOL    HW120945   3.802   3.117   8.794
 6831SOL    HW220946   3.775   3.262   8.759
 6832SOL     OW20947   4.019   1.926   8.075
 6832SOL    HW120948   4.001   2.018   8.097
 6832SOL    HW220949   4.034   1.883   8.159
 6833SOL     OW20950   4.075   2.776   9.257
 6833SOL    HW120951   4.156   2.791   9.306
 6833SOL    HW220952   4.098   2.712   9.190
 6834SOL     OW20953   4.030   2.670   8.393
 6834SOL    HW120954   4.121   2.699   8.394
 6834SOL    HW220955   4.033   2.579   8.422
 6835SOL     OW20956   4.065   2.392   8.456
 6835SOL    HW120957   4.028   2.306   8.441
 6835SOL    HW220958   4.146   2.393   8.405
 6836SOL     OW20959   3.730   3.181   7.644
 6836SOL    HW120960   3.643   3.196   7.606
 6836SOL    HW220961   3.726   3.092   7.678
 6837SOL     OW20962   3.817   3.646   8.389
 6837SOL    HW120963   3.787   3.568   8.343
 6837SOL    HW220964   3.907   3.660   8.357
 6838SOL     OW20965   4.233   3.448   8.354
 6838SOL    HW120966   4.319   3.471   8.388
 6838SOL    HW220967   4.250   3.380   8.289
 6839SOL     OW20968   3.759   2.408   8.564
 6839SOL    HW120969   3.838   2.394   8.512
 6839SOL    HW220970   3.790   2.410   8.655
 6840SOL     OW20971   3.915   2.383   9.178
 6840SOL    HW120972   3.971   2.342   9.112
 6840SOL    HW220973   3.876   2.458   9.133
 6841SOL     OW20974   0.027   2.413   7.709
 6841SOL    HW120975   0.024   2.364   7.791
 6841SOL    HW220976   4.459   2.479   7.718
 6842SOL     OW20977   3.967   3.414   9.172
 6842SOL    HW120978   3.941   3.479   9.238
 6842SOL    HW220979   3.966   3.331   9.219
 6843SOL     OW20980   4.186   2.354   7.633
 6843SOL    HW120981   4.245   2.426   7.654
 6843SOL    HW220982   4.101   2.397   7.619
 6844SOL     OW20983   3.867   3.003   8.921
 6844SOL    HW120984   3.868   2.953   9.003
 6844SOL    HW220985   3.883   2.937   8.854
 6845SOL     OW20986   3.811   3.132   8.460
 6845SOL    HW120987   3.794   3.143   8.553
 6845SOL    HW220988   3.741   3.075   8.429
 6846SOL     OW20989   4.389   3.514   9.146
 6846SOL    HW120990   4.354   3.595   9.182
 6846SOL    HW220991   4.412   3.535   9.056
 6847SOL     OW20992   3.864   3.657   9.291
 6847SOL    HW120993   3.813   3.592   9.339
 6847SOL    HW220994   3.909   3.707   9.359
 6848SOL     OW20995   3.983   2.181   8.162
 6848SOL    HW120996   3.895   2.214   8.141
 6848SOL    HW220997   3.983   2.172   8.257
 6849SOL     OW20998   4.085   3.172   8.938
 6849SOL    HW120999   4.065   3.246   8.881
 6849SOL    HW221000   4.013   3.110   8.923
 6850SOL     OW21001   4.327   3.352   7.927
 6850SOL    HW121002   4.342   3.293   7.854
 6850SOL    HW221003   4.259   3.412   7.895
 6851SOL     OW21004   3.985   3.209   7.737
 6851SOL    HW121005   3.892   3.205   7.714
 6851SOL    HW221006   3.986   3.247   7.825
 6852SOL     OW21007   3.837   2.891   9.170
 6852SOL    HW121008   3.760   2.864   9.221
 6852SOL    HW221009   3.911   2.849   9.215
 6853SOL     OW21010   4.387   2.068   8.942
 6853SOL    HW121011   4.477   2.073   8.909
 6853SOL    HW221012   4.396   2.055   9.036
 6854SOL     OW21013   3.804   2.192   7.482
 6854SOL    HW121014   3.717   2.174   7.447
 6854SOL    HW221015   3.834   2.268   7.432
 6855SOL     OW21016   3.789   2.017   7.753
 6855SOL    HW121017   3.776   2.096   7.702
 6855SOL    HW221018   3.875   1.984   7.725
 6856SOL     OW21019   4.340   2.701   8.886
 6856SOL    HW121020   4.377   2.788   8.869
 6856SOL    HW221021   4.415   2.648   8.912
 6857SOL     OW21022   4.391   2.420   9.187
 6857SOL    HW121023   4.413   2.495   9.242
 6857SOL    HW221024   4.475   2.389   9.153
 6858SOL     OW21025   4.105   3.602   9.009
 6858SOL    HW121026   4.021   3.646   8.994
 6858SOL    HW221027   4.083   3.521   9.054
 6859SOL     OW21028   4.307   2.590   8.118
 6859SOL    HW121029   4.348   2.675   8.104
 6859SOL    HW221030   4.239   2.584   8.051
 6860SOL     OW21031   3.942   3.168   9.301
 6860SOL    HW121032   3.879   3.102   9.272
 6860SOL    HW221033   3.924   3.178   9.395
 6861SOL     OW21034   3.812   3.093   8.114
 6861SOL    HW121035   3.820   3.047   8.197
 6861SOL    HW221036   3.878   3.053   8.058
 6862SOL     OW21037   4.423   3.248   9.118
 6862SOL    HW121038   4.333   3.219   9.104
 6862SOL    HW221039   4.416   3.343   9.130
 6863SOL     OW21040   4.166   2.294   7.984
 6863SOL    HW121041   4.181   2.228   7.916
 6863SOL    HW221042   4.106   2.252   8.045
 6864SOL     OW21043   4.054   2.418   8.736
 6864SOL    HW121044   4.108   2.362   8.792
 6864SOL    HW221045   4.076   2.391   8.647
 6865SOL     OW21046   0.035   3.469   8.136
 6865SOL    HW121047   0.060   3.535   8.072
 6865SOL    HW221048   4.469   3.416   8.091
 6866SOL     OW21049   3.767   2.930   7.755
 6866SOL    HW121050   3.861   2.921   7.737
 6866SOL    HW221051   3.739   2.841   7.777
 6867SOL     OW21052   3.951   2.486   9.436
 6867SOL    HW121053   3.863   2.483   9.471
 6867SOL    HW221054   3.941   2.461   9.344
 6868SOL     OW21055   3.947   2.151  10.302
 6868SOL    HW121056   3.979   2.114  10.384
 6868SOL    HW221057   3.858   2.116  10.292
 6869SOL     OW21058   3.724   2.246   9.948
 6869SOL    HW121059   3.642   2.272   9.990
 6869SOL    HW221060   3.702   2.167   9.899
 6870SOL     OW21061   4.265   3.099  10.457
 6870SOL    HW121062   4.202   3.167  10.432
 6870SOL    HW221063   4.337   3.147  10.498
 6871SOL     OW21064   0.024   2.675   0.081
 6871SOL    HW121065   0.108   2.703   0.117
 6871SOL    HW221066   0.043   2.652  11.090
 6872SOL     OW21067   4.400   2.849   9.938
 6872SOL    HW121068   4.474   2.840   9.997
 6872SOL    HW221069   4.340   2.908   9.982
 6873SOL     OW21070   4.064   3.292  10.378
 6873SOL    HW121071   3.990   3.247  10.337
 6873SOL    HW221072   4.106   3.341  10.308
 6874SOL     OW21073   4.178   2.265  10.793
 6874SOL    HW121074   4.248   2.200  10.798
 6874SOL    HW221075   4.099   2.216  10.815
 6875SOL     OW21076   3.941   3.577   9.781
 6875SOL    HW121077   3.961   3.653   9.837
 6875SOL    HW221078   4.018   3.569   9.725
 6876SOL     OW21079   3.955   3.305   9.845
 6876SOL    HW121080   3.935   3.398   9.849
 6876SOL    HW221081   3.898   3.265   9.910
 6877SOL     OW21082   3.979   2.950  10.195
 6877SOL    HW121083   3.982   2.865  10.239
 6877SOL    HW221084   3.928   3.005  10.255
 6878SOL     OW21085   4.354   3.668  10.749
 6878SOL    HW121086   4.268   3.638  10.779
 6878SOL    HW221087   4.354   3.762  10.768
 6879SOL     OW21088   4.308   2.849   9.452
 6879SOL    HW121089   4.340   2.897   9.376
 6879SOL    HW221090   4.376   2.861   9.519
 6880SOL     OW21091   3.841   2.515   9.871
 6880SOL    HW121092   3.808   2.428   9.893
 6880SOL    HW221093   3.832   2.565   9.952
 6881SOL     OW21094   3.760   3.454   9.432
 6881SOL    HW121095   3.740   3.363   9.453
 6881SOL    HW221096   3.734   3.502   9.511
 6882SOL     OW21097   3.851   2.588  10.919
 6882SOL    HW121098   3.943   2.609  10.904
 6882SOL    HW221099   3.805   2.671  10.911
 6883SOL     OW21100   4.306   3.251  10.047
 6883SOL    HW121101   4.271   3.162  10.049
 6883SOL    HW221102   4.310   3.273   9.954
 6884SOL     OW21103   0.022   1.871   9.835
 6884SOL    HW121104   0.051   1.930   9.765
 6884SOL    HW221105   4.427   1.885   9.839
 6885SOL     OW21106   3.910   2.822  10.581
 6885SOL    HW121107   3.996   2.783  10.564
 6885SOL    HW221108   3.850   2.771  10.527
 6886SOL     OW21109   4.071   2.118   0.023
 6886SOL    HW121110   4.118   2.194   0.056
 6886SOL    HW221111   3.979   2.141   0.032
 6887SOL     OW21112   4.311   2.587   9.580
 6887SOL    HW121113   4.306   2.668   9.529
 6887SOL    HW221114   4.246   2.599   9.649
 6888SOL     OW21115   3.811   2.685  10.086
 6888SOL    HW121116   3.892   2.676  10.136
 6888SOL    HW221117   3.769   2.763  10.121
 6889SOL     OW21118   3.856   3.714  10.899
 6889SOL    HW121119   3.842   3.674  10.985
 6889SOL    HW221120   3.774   3.700  10.852
 6890SOL     OW21121   4.247   2.050  10.191
 6890SOL    HW121122   4.268   2.057  10.284
 6890SOL    HW221123   4.257   2.138  10.157
 6891SOL     OW21124   4.083   3.678  10.177
 6891SOL    HW121125   4.135   3.598  10.185
 6891SOL    HW221126   4.146   3.749  10.188
 6892SOL     OW21127   4.040   2.823   9.562
 6892SOL    HW121128   4.124   2.842   9.520
 6892SOL    HW221129   4.012   2.740   9.524
 6893SOL     OW21130   4.175   3.125  11.057
 6893SOL    HW121131   4.149   3.142  10.966
 6893SOL    HW221132   4.108   3.065  11.090
 6894SOL     OW21133   3.930   2.138  10.807
 6894SOL    HW121134   3.849   2.189  10.808
 6894SOL    HW221135   3.912   2.066  10.868
 6895SOL     OW21136   4.191   3.596   9.636
 6895SOL    HW121137   4.226   3.657   9.701
 6895SOL    HW221138   4.259   3.592   9.568
 6896SOL     OW21139   3.981   3.655  10.541
 6896SOL    HW121140   4.026   3.581  10.584
 6896SOL    HW221141   3.968   3.625  10.451
 6897SOL     OW21142   4.113   2.553   9.782
 6897SOL    HW121143   4.136   2.462   9.798
 6897SOL    HW221144   4.020   2.559   9.802
 6898SOL     OW21145   4.340   1.968   9.429
 6898SOL    HW121146   4.434   1.954   9.429
 6898SOL    HW221147   4.312   1.946   9.340
 6899SOL     OW21148   0.023   3.279  10.216
 6899SOL    HW121149   0.072   3.339  10.159
 6899SOL    HW221150   4.445   3.256  10.165
 6900SOL     OW21151   4.259   1.928   9.810
 6900SOL    HW121152   4.180   1.932   9.863
 6900SOL    HW221153   4.254   2.006   9.754
 6901SOL     OW21154   4.017   1.911   9.495
 6901SOL    HW121155   4.078   1.973   9.456
 6901SOL    HW221156   4.073   1.847   9.540
 6902SOL     OW21157   0.312   2.535  10.768
 6902SOL    HW121158   0.267   2.451  10.757
 6902SOL    HW221159   0.403   2.510  10.787
 6903SOL     OW21160   4.191   3.006  10.037
 6903SOL    HW121161   4.125   2.986  10.103
 6903SOL    HW221162   4.148   2.991   9.953
 6904SOL     OW21163   3.805   2.413  10.707
 6904SOL    HW121164   3.896   2.414  10.679
 6904SOL    HW221165   3.802   2.474  10.781
 6905SOL     OW21166   4.282   2.069  10.460
 6905SOL    HW121167   4.325   2.004  10.515
 6905SOL    HW221168   4.195   2.079  10.498
 6906SOL     OW21169   4.231   3.247   9.484
 6906SOL    HW121170   4.146   3.233   9.525
 6906SOL    HW221171   4.212   3.259   9.391
 6907SOL     OW21172   4.242   2.128   9.630
 6907SOL    HW121173   4.285   2.073   9.564
 6907SOL    HW221174   4.222   2.210   9.584
 6908SOL     OW21175   4.142   2.675  10.559
 6908SOL    HW121176   4.209   2.684  10.627
 6908SOL    HW221177   4.107   2.587  10.571
 6909SOL     OW21178   3.796   3.439  10.666
 6909SOL    HW121179   3.766   3.508  10.606
 6909SOL    HW221180   3.891   3.439  10.656
 6910SOL     OW21181   4.061   2.976   9.798
 6910SOL    HW121182   4.064   3.049   9.736
 6910SOL    HW221183   4.061   2.898   9.744
 6911SOL     OW21184   4.302   2.398  10.177
 6911SOL    HW121185   4.302   2.466  10.109
 6911SOL    HW221186   4.371   2.425  10.238
 6912SOL     OW21187   4.071   3.398  10.624
 6912SOL    HW121188   4.068   3.353  10.540
 6912SOL    HW221189   4.164   3.400  10.648
 6913SOL     OW21190   4.135   2.593  10.900
 6913SOL    HW121191   4.202   2.636  10.846
 6913SOL    HW221192   4.157   2.500  10.896
 6914SOL     OW21193   4.287   2.760  10.337
 6914SOL    HW121194   4.309   2.852  10.352
 6914SOL    HW221195   4.242   2.732  10.416
 6915SOL     OW21196   4.024   2.061  10.556
 6915SOL    HW121197   3.989   2.093  10.639
 6915SOL    HW221198   4.004   1.967  10.556
 6916SOL     OW21199   3.776   3.176  10.583
 6916SOL    HW121200   3.802   3.118  10.655
 6916SOL    HW221201   3.774   3.263  10.623
 6917SOL     OW21202   4.019   1.926   9.937
 6917SOL    HW121203   4.001   2.018   9.959
 6917SOL    HW221204   4.034   1.883  10.021
 6918SOL     OW21205   4.082   2.777  11.092
 6918SOL    HW121206   4.164   2.795   0.037
 6918SOL    HW221207   4.103   2.709  11.028
 6919SOL     OW21208   4.030   2.670  10.254
 6919SOL    HW121209   4.122   2.699  10.255
 6919SOL    HW221210   4.034   2.579  10.284
 6920SOL     OW21211   4.065   2.392  10.319
 6920SOL    HW121212   4.028   2.306  10.304
 6920SOL    HW221213   4.146   2.393  10.268
 6921SOL     OW21214   3.730   3.181   9.506
 6921SOL    HW121215   3.643   3.196   9.468
 6921SOL    HW221216   3.726   3.092   9.540
 6922SOL     OW21217   3.817   3.646  10.251
 6922SOL    HW121218   3.787   3.568  10.205
 6922SOL    HW221219   3.907   3.660  10.219
 6923SOL     OW21220   4.233   3.449  10.215
 6923SOL    HW121221   4.319   3.472  10.250
 6923SOL    HW221222   4.250   3.380  10.150
 6924SOL     OW21223   3.760   2.409  10.428
 6924SOL    HW121224   3.839   2.395  10.376
 6924SOL    HW221225   3.790   2.410  10.519
 6925SOL     OW21226   0.027   2.413   9.571
 6925SOL    HW121227   0.024   2.364   9.653
 6925SOL    HW221228   4.459   2.479   9.580
 6926SOL     OW21229   3.979   3.428  11.047
 6926SOL    HW121230   3.918   3.453   0.017
 6926SOL    HW221231   3.993   3.335  11.061
 6927SOL     OW21232   4.186   2.354   9.495
 6927SOL    HW121233   4.245   2.426   9.516
 6927SOL    HW221234   4.101   2.397   9.481
 6928SOL     OW21235   3.874   3.000  10.778
 6928SOL    HW121236   3.867   2.948  10.858
 6928SOL    HW221237   3.887   2.936  10.709
 6929SOL     OW21238   3.811   3.133  10.320
 6929SOL    HW121239   3.796   3.145  10.414
 6929SOL    HW221240   3.741   3.075  10.292
 6930SOL     OW21241   4.385   3.528  10.998
 6930SOL    HW121242   4.298   3.565  10.982
 6930SOL    HW221243   4.421   3.513  10.910
 6931SOL     OW21244   3.982   2.181  10.024
 6931SOL    HW121245   3.895   2.214  10.003
 6931SOL    HW221246   3.983   2.172  10.119
 6932SOL     OW21247   4.078   3.178  10.814
 6932SOL    HW121248   4.066   3.247  10.749
 6932SOL    HW221249   4.012   3.112  10.792
 6933SOL     OW21250   4.327   3.352   9.789
 6933SOL    HW121251   4.342   3.293   9.716
 6933SOL    HW221252   4.259   3.413   9.757
 6934SOL     OW21253   3.985   3.209   9.599
 6934SOL    HW121254   3.892   3.205   9.576
 6934SOL    HW221255   3.986   3.247   9.687
 6935SOL     OW21256   3.842   2.877  11.017
 6935SOL    HW121257   3.774   2.867  11.084
 6935SOL    HW221258   3.921   2.843  11.059
 6936SOL     OW21259   4.396   2.070  10.810
 6936SOL    HW121260   4.473   2.082  10.755
 6936SOL    HW221261   4.428   2.081  10.900
 6937SOL     OW21262   3.804   2.192   9.343
 6937SOL    HW121263   3.716   2.174   9.310
 6937SOL    HW221264   3.834   2.268   9.293
 6938SOL     OW21265   3.789   2.017   9.615
 6938SOL    HW121266   3.776   2.097   9.564
 6938SOL    HW221267   3.875   1.984   9.587
 6939SOL     OW21268   4.340   2.701  10.746
 6939SOL    HW121269   4.374   2.788  10.730
 6939SOL    HW221270   4.417   2.647  10.762
 6940SOL     OW21271   4.118   3.597  10.880
 6940SOL    HW121272   4.043   3.654  10.865
 6940SOL    HW221273   4.083   3.525  10.932
 6941SOL     OW21274   4.307   2.590   9.980
 6941SOL    HW121275   4.348   2.675   9.966
 6941SOL    HW221276   4.239   2.584   9.913
 6942SOL     OW21277   3.811   3.093   9.976
 6942SOL    HW121278   3.820   3.047  10.059
 6942SOL    HW221279   3.878   3.053   9.920
 6943SOL     OW21280   4.412   3.250  10.953
 6943SOL    HW121281   4.333   3.205  10.981
 6943SOL    HW221282   4.405   3.338  10.991
 6944SOL     OW21283   4.166   2.294   9.846
 6944SOL    HW121284   4.181   2.228   9.778
 6944SOL    HW221285   4.106   2.252   9.907
 6945SOL     OW21286   4.055   2.417  10.600
 6945SOL    HW121287   4.109   2.360  10.654
 6945SOL    HW221288   4.074   2.390  10.510
 6946SOL     OW21289   0.035   3.469   9.998
 6946SOL    HW121290   0.060   3.536   9.934
 6946SOL    HW221291   4.469   3.416   9.953
 6947SOL     OW21292   3.767   2.930   9.617
 6947SOL    HW121293   3.861   2.921   9.599
 6947SOL    HW221294   3.739   2.841   9.639
 6948SOL     OW21295   3.919   4.300   0.088
 6948SOL    HW121296   3.902   4.361   0.159
 6948SOL    HW221297   3.930   4.356   0.011
 6949SOL     OW21298   3.946   4.009   0.991
 6949SOL    HW121299   3.977   3.972   1.074
 6949SOL    HW221300   3.857   3.975   0.982
 6950SOL     OW21301   3.726   4.101   0.643
 6950SOL    HW121302   3.645   4.131   0.685
 6950SOL    HW221303   3.700   4.025   0.592
 6951SOL     OW21304   0.063   0.003   1.858
 6951SOL    HW121305   0.121   0.064   1.905
 6951SOL    HW221306   0.078   0.022   1.766
 6952SOL     OW21307   4.174   4.114   1.474
 6952SOL    HW121308   4.250   4.056   1.484
 6952SOL    HW221309   4.099   4.060   1.499
 6953SOL     OW21310   3.804   4.373   0.562
 6953SOL    HW121311   3.792   4.282   0.589
 6953SOL    HW221312   3.871   4.407   0.621
 6954SOL     OW21313   3.840   4.480   1.582
 6954SOL    HW121314   3.902   0.002   1.651
 6954SOL    HW221315   3.810   0.064   1.549
 6955SOL     OW21316   0.021   3.737   0.533
 6955SOL    HW121317   0.051   3.790   0.460
 6955SOL    HW221318   4.426   3.747   0.533
 6956SOL     OW21319   4.063   3.974   1.815
 6956SOL    HW121320   4.101   4.058   1.840
 6956SOL    HW221321   3.971   3.981   1.841
 6957SOL     OW21322   4.247   3.909   0.881
 6957SOL    HW121323   4.267   3.916   0.974
 6957SOL    HW221324   4.256   3.999   0.848
 6958SOL     OW21325   3.923   4.001   1.508
 6958SOL    HW121326   3.838   4.044   1.500
 6958SOL    HW221327   3.905   3.920   1.556
 6959SOL     OW21328   4.091   4.387   0.407
 6959SOL    HW121329   4.129   4.314   0.456
 6959SOL    HW221330   4.023   4.421   0.465
 6960SOL     OW21331   4.344   3.838   0.121
 6960SOL    HW121332   4.435   3.809   0.123
 6960SOL    HW221333   4.314   3.815   0.033
 6961SOL     OW21334   4.259   3.790   0.498
 6961SOL    HW121335   4.178   3.792   0.550
 6961SOL    HW221336   4.253   3.868   0.443
 6962SOL     OW21337   4.009   3.773   0.203
 6962SOL    HW121338   4.050   3.827   0.136
 6962SOL    HW221339   4.076   3.708   0.226
 6963SOL     OW21340   0.372   4.387   1.529
 6963SOL    HW121341   0.328   4.368   1.446
 6963SOL    HW221342   0.436   4.316   1.539
 6964SOL     OW21343   3.802   4.280   1.395
 6964SOL    HW121344   3.893   4.272   1.366
 6964SOL    HW221345   3.802   4.354   1.455
 6965SOL     OW21346   4.280   3.930   1.149
 6965SOL    HW121347   4.329   3.876   1.211
 6965SOL    HW221348   4.194   3.941   1.188
 6966SOL     OW21349   4.247   3.995   0.323
 6966SOL    HW121350   4.282   3.935   0.257
 6966SOL    HW221351   4.223   4.073   0.273
 6967SOL     OW21352   4.159   0.012   1.279
 6967SOL    HW121353   4.222   0.005   1.351
 6967SOL    HW221354   4.116   4.427   1.276
 6968SOL     OW21355   4.310   4.261   0.877
 6968SOL    HW121356   4.319   4.335   0.816
 6968SOL    HW221357   4.378   4.276   0.942
 6969SOL     OW21358   4.234   3.776   1.734
 6969SOL    HW121359   4.186   3.717   1.675
 6969SOL    HW221360   4.170   3.845   1.755
 6970SOL     OW21361   4.022   3.923   1.248
 6970SOL    HW121362   3.984   3.954   1.330
 6970SOL    HW221363   4.003   3.829   1.247
 6971SOL     OW21364   4.020   3.789   0.627
 6971SOL    HW121365   4.002   3.880   0.650
 6971SOL    HW221366   4.034   3.746   0.711
 6972SOL     OW21367   4.039   0.012   0.918
 6972SOL    HW121368   4.112   0.073   0.925
 6972SOL    HW221369   4.063   4.439   0.976
 6973SOL     OW21370   4.075   4.243   1.019
 6973SOL    HW121371   4.033   4.160   0.998
 6973SOL    HW221372   4.155   4.245   0.965
 6974SOL     OW21373   3.759   4.276   1.116
 6974SOL    HW121374   3.837   4.259   1.063
 6974SOL    HW221375   3.789   4.275   1.206
 6975SOL     OW21376   3.918   4.248   1.719
 6975SOL    HW121377   3.967   4.191   1.659
 6975SOL    HW221378   3.866   4.304   1.661
 6976SOL     OW21379   0.005   4.296   0.289
 6976SOL    HW121380   0.020   4.217   0.341
 6976SOL    HW221381   4.498   4.367   0.354
 6977SOL     OW21382   4.190   4.213   0.171
 6977SOL    HW121383   4.243   4.280   0.214
 6977SOL    HW221384   4.102   4.251   0.169
 6978SOL     OW21385   3.984   4.045   0.716
 6978SOL    HW121386   3.895   4.072   0.693
 6978SOL    HW221387   3.982   4.033   0.811
 6979SOL     OW21388   4.390   3.928   1.494
 6979SOL    HW121389   4.479   3.941   1.463
 6979SOL    HW221390   4.398   3.921   1.589
 6980SOL     OW21391   3.806   4.049   0.061
 6980SOL    HW121392   3.740   4.049  11.092
 6980SOL    HW221393   3.834   4.141   0.066
 6981SOL     OW21394   3.785   3.881   0.308
 6981SOL    HW121395   3.772   3.953   0.246
 6981SOL    HW221396   3.870   3.844   0.284
 6982SOL     OW21397   4.406   4.272   1.754
 6982SOL    HW121398   4.427   4.353   1.801
 6982SOL    HW221399   4.490   4.242   1.720
 6983SOL     OW21400   4.174   4.157   0.543
 6983SOL    HW121401   4.190   4.090   0.477
 6983SOL    HW221402   4.110   4.117   0.603
 6984SOL     OW21403   4.048   4.265   1.290
 6984SOL    HW121404   4.103   4.208   1.344
 6984SOL    HW221405   4.070   4.241   1.200
 6985SOL     OW21406   3.947   4.288   1.987
 6985SOL    HW121407   3.899   4.363   2.022
 6985SOL    HW221408   3.937   4.296   1.892
 6986SOL     OW21409   3.947   4.008   2.853
 6986SOL    HW121410   3.977   3.972   2.936
 6986SOL    HW221411   3.857   3.975   2.843
 6987SOL     OW21412   3.726   4.099   2.505
 6987SOL    HW121413   3.646   4.132   2.546
 6987SOL    HW221414   3.697   4.022   2.456
 6988SOL     OW21415   0.063   0.003   3.721
 6988SOL    HW121416   0.121   0.064   3.767
 6988SOL    HW221417   0.078   0.022   3.628
 6989SOL     OW21418   4.174   4.114   3.336
 6989SOL    HW121419   4.250   4.056   3.346
 6989SOL    HW221420   4.099   4.060   3.361
 6990SOL     OW21421   3.786   4.382   2.440
 6990SOL    HW121422   3.789   4.288   2.454
 6990SOL    HW221423   3.866   4.415   2.480
 6991SOL     OW21424   3.840   4.480   3.444
 6991SOL    HW121425   3.902   0.002   3.513
 6991SOL    HW221426   3.810   0.064   3.410
 6992SOL     OW21427   0.022   3.733   2.387
 6992SOL    HW121428   0.052   3.792   2.317
 6992SOL    HW221429   4.427   3.746   2.391
 6993SOL     OW21430   4.063   3.974   3.677
 6993SOL    HW121431   4.101   4.058   3.702
 6993SOL    HW221432   3.971   3.980   3.703
 6994SOL     OW21433   4.247   3.908   2.743
 6994SOL    HW121434   4.267   3.915   2.836
 6994SOL    HW221435   4.258   3.997   2.709
 6995SOL     OW21436   3.923   4.001   3.370
 6995SOL    HW121437   3.839   4.044   3.362
 6995SOL    HW221438   3.905   3.920   3.418
 6996SOL     OW21439   4.089   4.394   2.273
 6996SOL    HW121440   4.127   4.317   2.315
 6996SOL    HW221441   4.028   4.429   2.338
 6997SOL     OW21442   4.338   3.824   1.984
 6997SOL    HW121443   4.433   3.820   1.979
 6997SOL    HW221444   4.309   3.805   1.894
 6998SOL     OW21445   4.260   3.790   2.364
 6998SOL    HW121446   4.180   3.792   2.416
 6998SOL    HW221447   4.254   3.866   2.307
 6999SOL     OW21448   4.017   3.772   2.048
 6999SOL    HW121449   4.078   3.835   2.010
 6999SOL    HW221450   4.073   3.708   2.092
 7000SOL     OW21451   0.372   4.387   3.391
 7000SOL    HW121452   0.328   4.369   3.308
 7000SOL    HW221453   0.436   4.316   3.401
 7001SOL     OW21454   3.802   4.280   3.257
 7001SOL    HW121455   3.893   4.272   3.228
 7001SOL    HW221456   3.802   4.354   3.317
 7002SOL     OW21457   4.280   3.929   3.010
 7002SOL    HW121458   4.329   3.876   3.074
 7002SOL    HW221459   4.194   3.941   3.050
 7003SOL     OW21460   4.244   3.988   2.184
 7003SOL    HW121461   4.284   3.931   2.118
 7003SOL    HW221462   4.228   4.070   2.138
 7004SOL     OW21463   4.159   0.012   3.141
 7004SOL    HW121464   4.222   0.006   3.212
 7004SOL    HW221465   4.116   4.427   3.138
 7005SOL     OW21466   4.309   4.261   2.739
 7005SOL    HW121467   4.317   4.335   2.678
 7005SOL    HW221468   4.378   4.276   2.804
 7006SOL     OW21469   4.234   3.776   3.596
 7006SOL    HW121470   4.186   3.717   3.537
 7006SOL    HW221471   4.170   3.845   3.617
 7007SOL     OW21472   4.022   3.923   3.110
 7007SOL    HW121473   3.984   3.955   3.192
 7007SOL    HW221474   4.003   3.829   3.109
 7008SOL     OW21475   4.019   3.788   2.489
 7008SOL    HW121476   4.001   3.880   2.511
 7008SOL    HW221477   4.033   3.745   2.574
 7009SOL     OW21478   4.038   0.012   2.782
 7009SOL    HW121479   4.111   0.074   2.788
 7009SOL    HW221480   4.064   4.439   2.839
 7010SOL     OW21481   4.075   4.243   2.881
 7010SOL    HW121482   4.033   4.159   2.860
 7010SOL    HW221483   4.154   4.244   2.827
 7011SOL     OW21484   3.758   4.274   2.978
 7011SOL    HW121485   3.837   4.260   2.925
 7011SOL    HW221486   3.790   4.275   3.068
 7012SOL     OW21487   3.918   4.248   3.581
 7012SOL    HW121488   3.967   4.191   3.521
 7012SOL    HW221489   3.867   4.305   3.523
 7013SOL     OW21490   0.006   4.298   2.145
 7013SOL    HW121491   0.019   4.214   2.191
 7013SOL    HW221492   4.490   4.361   2.216
 7014SOL     OW21493   4.202   4.210   2.046
 7014SOL    HW121494   4.254   4.288   2.064
 7014SOL    HW221495   4.112   4.242   2.038
 7015SOL     OW21496   3.984   4.044   2.577
 7015SOL    HW121497   3.895   4.071   2.555
 7015SOL    HW221498   3.983   4.033   2.672
 7016SOL     OW21499   4.390   3.928   3.356
 7016SOL    HW121500   4.479   3.942   3.325
 7016SOL    HW221501   4.398   3.922   3.451
 7017SOL     OW21502   3.800   4.038   1.890
 7017SOL    HW121503   3.716   4.033   1.845
 7017SOL    HW221504   3.832   4.127   1.873
 7018SOL     OW21505   3.790   3.878   2.168
 7018SOL    HW121506   3.775   3.957   2.115
 7018SOL    HW221507   3.875   3.846   2.139
 7019SOL     OW21508   4.406   4.271   3.616
 7019SOL    HW121509   4.426   4.353   3.663
 7019SOL    HW221510   4.491   4.242   3.582
 7020SOL     OW21511   4.176   4.157   2.406
 7020SOL    HW121512   4.187   4.092   2.336
 7020SOL    HW221513   4.111   4.117   2.465
 7021SOL     OW21514   4.048   4.265   3.153
 7021SOL    HW121515   4.103   4.208   3.206
 7021SOL    HW221516   4.069   4.241   3.063
 7022SOL     OW21517   3.947   4.288   3.849
 7022SOL    HW121518   3.899   4.363   3.884
 7022SOL    HW221519   3.937   4.296   3.754
 7023SOL     OW21520   3.947   4.008   4.715
 7023SOL    HW121521   3.977   3.972   4.798
 7023SOL    HW221522   3.857   3.975   4.705
 7024SOL     OW21523   3.726   4.099   4.367
 7024SOL    HW121524   3.646   4.132   4.408
 7024SOL    HW221525   3.697   4.022   4.318
 7025SOL     OW21526   0.063   0.003   5.583
 7025SOL    HW121527   0.121   0.064   5.629
 7025SOL    HW221528   0.078   0.022   5.490
 7026SOL     OW21529   4.174   4.114   5.198
 7026SOL    HW121530   4.250   4.056   5.208
 7026SOL    HW221531   4.099   4.060   5.223
 7027SOL     OW21532   3.786   4.382   4.302
 7027SOL    HW121533   3.789   4.288   4.316
 7027SOL    HW221534   3.866   4.415   4.342
 7028SOL     OW21535   3.840   4.480   5.306
 7028SOL    HW121536   3.902   0.002   5.375
 7028SOL    HW221537   3.810   0.064   5.272
 7029SOL     OW21538   0.022   3.733   4.248
 7029SOL    HW121539   0.052   3.792   4.179
 7029SOL    HW221540   4.428   3.746   4.253
 7030SOL     OW21541   4.063   3.974   5.540
 7030SOL    HW121542   4.101   4.058   5.564
 7030SOL    HW221543   3.971   3.980   5.565
 7031SOL     OW21544   4.247   3.908   4.605
 7031SOL    HW121545   4.267   3.915   4.698
 7031SOL    HW221546   4.257   3.997   4.571
 7032SOL     OW21547   3.923   4.001   5.232
 7032SOL    HW121548   3.838   4.044   5.224
 7032SOL    HW221549   3.905   3.920   5.279
 7033SOL     OW21550   4.089   4.394   4.135
 7033SOL    HW121551   4.127   4.317   4.178
 7033SOL    HW221552   4.027   4.429   4.200
 7034SOL     OW21553   4.338   3.824   3.846
 7034SOL    HW121554   4.433   3.820   3.841
 7034SOL    HW221555   4.309   3.805   3.756
 7035SOL     OW21556   4.260   3.790   4.226
 7035SOL    HW121557   4.180   3.792   4.279
 7035SOL    HW221558   4.254   3.866   4.169
 7036SOL     OW21559   4.017   3.772   3.910
 7036SOL    HW121560   4.078   3.835   3.871
 7036SOL    HW221561   4.073   3.708   3.954
 7037SOL     OW21562   0.372   4.387   5.253
 7037SOL    HW121563   0.328   4.369   5.170
 7037SOL    HW221564   0.436   4.316   5.262
 7038SOL     OW21565   3.802   4.280   5.119
 7038SOL    HW121566   3.893   4.272   5.090
 7038SOL    HW221567   3.802   4.354   5.179
 7039SOL     OW21568   4.281   3.930   4.873
 7039SOL    HW121569   4.328   3.876   4.936
 7039SOL    HW221570   4.194   3.941   4.912
 7040SOL     OW21571   4.244   3.988   4.046
 7040SOL    HW121572   4.284   3.931   3.980
 7040SOL    HW221573   4.228   4.070   4.000
 7041SOL     OW21574   4.159   0.012   5.002
 7041SOL    HW121575   4.222   0.006   5.074
 7041SOL    HW221576   4.116   4.427   5.000
 7042SOL     OW21577   4.309   4.261   4.600
 7042SOL    HW121578   4.317   4.335   4.539
 7042SOL    HW221579   4.378   4.277   4.665
 7043SOL     OW21580   4.234   3.776   5.458
 7043SOL    HW121581   4.186   3.717   5.399
 7043SOL    HW221582   4.170   3.845   5.479
 7044SOL     OW21583   4.022   3.923   4.972
 7044SOL    HW121584   3.984   3.955   5.053
 7044SOL    HW221585   4.004   3.829   4.971
 7045SOL     OW21586   4.019   3.788   4.351
 7045SOL    HW121587   4.001   3.880   4.373
 7045SOL    HW221588   4.033   3.745   4.435
 7046SOL     OW21589   4.038   0.012   4.644
 7046SOL    HW121590   4.111   0.074   4.650
 7046SOL    HW221591   4.064   4.439   4.701
 7047SOL     OW21592   4.075   4.243   4.743
 7047SOL    HW121593   4.033   4.159   4.722
 7047SOL    HW221594   4.154   4.244   4.689
 7048SOL     OW21595   3.758   4.275   4.840
 7048SOL    HW121596   3.837   4.260   4.787
 7048SOL    HW221597   3.790   4.275   4.930
 7049SOL     OW21598   3.918   4.248   5.443
 7049SOL    HW121599   3.966   4.191   5.383
 7049SOL    HW221600   3.866   4.304   5.386
 7050SOL     OW21601   0.007   4.298   4.007
 7050SOL    HW121602   0.018   4.214   4.053
 7050SOL    HW221603   4.490   4.361   4.078
 7051SOL     OW21604   4.202   4.210   3.908
 7051SOL    HW121605   4.254   4.288   3.926
 7051SOL    HW221606   4.112   4.242   3.900
 7052SOL     OW21607   3.984   4.044   4.439
 7052SOL    HW121608   3.895   4.071   4.417
 7052SOL    HW221609   3.983   4.033   4.534
 7053SOL     OW21610   4.390   3.928   5.218
 7053SOL    HW121611   4.479   3.941   5.187
 7053SOL    HW221612   4.398   3.921   5.313
 7054SOL     OW21613   3.800   4.038   3.752
 7054SOL    HW121614   3.716   4.033   3.707
 7054SOL    HW221615   3.832   4.127   3.735
 7055SOL     OW21616   3.790   3.878   4.030
 7055SOL    HW121617   3.774   3.957   3.978
 7055SOL    HW221618   3.875   3.846   4.001
 7056SOL     OW21619   4.406   4.272   5.478
 7056SOL    HW121620   4.426   4.353   5.525
 7056SOL    HW221621   4.491   4.242   5.445
 7057SOL     OW21622   4.176   4.157   4.268
 7057SOL    HW121623   4.187   4.092   4.198
 7057SOL    HW221624   4.112   4.117   4.327
 7058SOL     OW21625   4.048   4.265   5.015
 7058SOL    HW121626   4.103   4.208   5.068
 7058SOL    HW221627   4.069   4.241   4.925
 7059SOL     OW21628   3.948   4.289   5.711
 7059SOL    HW121629   3.898   4.363   5.746
 7059SOL    HW221630   3.937   4.296   5.616
 7060SOL     OW21631   3.947   4.009   6.577
 7060SOL    HW121632   3.977   3.972   6.660
 7060SOL    HW221633   3.857   3.976   6.567
 7061SOL     OW21634   3.726   4.099   6.229
 7061SOL    HW121635   3.646   4.132   6.270
 7061SOL    HW221636   3.697   4.022   6.180
 7062SOL     OW21637   0.063   0.003   7.445
 7062SOL    HW121638   0.121   0.064   7.491
 7062SOL    HW221639   0.078   0.022   7.352
 7063SOL     OW21640   4.174   4.114   7.060
 7063SOL    HW121641   4.250   4.056   7.070
 7063SOL    HW221642   4.099   4.060   7.085
 7064SOL     OW21643   3.786   4.382   6.164
 7064SOL    HW121644   3.789   4.288   6.178
 7064SOL    HW221645   3.866   4.415   6.204
 7065SOL     OW21646   3.840   4.480   7.168
 7065SOL    HW121647   3.902   0.002   7.237
 7065SOL    HW221648   3.811   0.064   7.134
 7066SOL     OW21649   0.022   3.733   6.111
 7066SOL    HW121650   0.052   3.792   6.041
 7066SOL    HW221651   4.428   3.746   6.115
 7067SOL     OW21652   4.063   3.974   7.402
 7067SOL    HW121653   4.101   4.058   7.426
 7067SOL    HW221654   3.971   3.981   7.427
 7068SOL     OW21655   4.247   3.908   6.467
 7068SOL    HW121656   4.267   3.915   6.560
 7068SOL    HW221657   4.257   3.997   6.433
 7069SOL     OW21658   3.924   4.001   7.094
 7069SOL    HW121659   3.838   4.044   7.086
 7069SOL    HW221660   3.905   3.920   7.142
 7070SOL     OW21661   4.089   4.394   5.997
 7070SOL    HW121662   4.127   4.317   6.040
 7070SOL    HW221663   4.027   4.429   6.062
 7071SOL     OW21664   4.338   3.824   5.708
 7071SOL    HW121665   4.433   3.820   5.703
 7071SOL    HW221666   4.309   3.805   5.618
 7072SOL     OW21667   4.260   3.790   6.088
 7072SOL    HW121668   4.180   3.792   6.140
 7072SOL    HW221669   4.254   3.866   6.031
 7073SOL     OW21670   4.017   3.772   5.772
 7073SOL    HW121671   4.078   3.835   5.733
 7073SOL    HW221672   4.073   3.708   5.816
 7074SOL     OW21673   0.372   4.387   7.115
 7074SOL    HW121674   0.328   4.368   7.032
 7074SOL    HW221675   0.436   4.316   7.125
 7075SOL     OW21676   3.802   4.280   6.982
 7075SOL    HW121677   3.893   4.272   6.952
 7075SOL    HW221678   3.802   4.354   7.041
 7076SOL     OW21679   4.281   3.930   6.735
 7076SOL    HW121680   4.329   3.876   6.797
 7076SOL    HW221681   4.194   3.941   6.774
 7077SOL     OW21682   4.245   3.988   5.908
 7077SOL    HW121683   4.285   3.931   5.842
 7077SOL    HW221684   4.228   4.070   5.862
 7078SOL     OW21685   4.159   0.012   6.865
 7078SOL    HW121686   4.222   0.006   6.936
 7078SOL    HW221687   4.116   4.427   6.862
 7079SOL     OW21688   4.309   4.261   6.463
 7079SOL    HW121689   4.317   4.335   6.401
 7079SOL    HW221690   4.378   4.277   6.528
 7080SOL     OW21691   4.234   3.776   7.320
 7080SOL    HW121692   4.186   3.717   7.261
 7080SOL    HW221693   4.170   3.845   7.341
 7081SOL     OW21694   4.022   3.923   6.834
 7081SOL    HW121695   3.984   3.955   6.916
 7081SOL    HW221696   4.003   3.829   6.833
 7082SOL     OW21697   4.019   3.788   6.213
 7082SOL    HW121698   4.001   3.880   6.235
 7082SOL    HW221699   4.033   3.746   6.298
 7083SOL     OW21700   4.038   0.012   6.506
 7083SOL    HW121701   4.111   0.074   6.512
 7083SOL    HW221702   4.063   4.439   6.563
 7084SOL     OW21703   4.075   4.243   6.605
 7084SOL    HW121704   4.033   4.160   6.584
 7084SOL    HW221705   4.154   4.244   6.551
 7085SOL     OW21706   3.758   4.275   6.702
 7085SOL    HW121707   3.837   4.260   6.649
 7085SOL    HW221708   3.790   4.275   6.792
 7086SOL     OW21709   3.918   4.248   7.305
 7086SOL    HW121710   3.967   4.191   7.245
 7086SOL    HW221711   3.867   4.305   7.247
 7087SOL     OW21712   0.007   4.298   5.869
 7087SOL    HW121713   0.018   4.214   5.914
 7087SOL    HW221714   4.490   4.360   5.939
 7088SOL     OW21715   4.202   4.210   5.770
 7088SOL    HW121716   4.254   4.289   5.788
 7088SOL    HW221717   4.112   4.243   5.762
 7089SOL     OW21718   3.984   4.044   6.301
 7089SOL    HW121719   3.895   4.071   6.279
 7089SOL    HW221720   3.983   4.033   6.396
 7090SOL     OW21721   4.390   3.928   7.080
 7090SOL    HW121722   4.479   3.941   7.049
 7090SOL    HW221723   4.398   3.921   7.175
 7091SOL     OW21724   3.800   4.038   5.614
 7091SOL    HW121725   3.716   4.033   5.569
 7091SOL    HW221726   3.831   4.127   5.595
 7092SOL     OW21727   3.790   3.878   5.892
 7092SOL    HW121728   3.774   3.957   5.839
 7092SOL    HW221729   3.875   3.846   5.863
 7093SOL     OW21730   4.406   4.272   7.340
 7093SOL    HW121731   4.426   4.353   7.387
 7093SOL    HW221732   4.490   4.242   7.306
 7094SOL     OW21733   4.176   4.157   6.130
 7094SOL    HW121734   4.188   4.092   6.060
 7094SOL    HW221735   4.112   4.117   6.189
 7095SOL     OW21736   4.048   4.265   6.877
 7095SOL    HW121737   4.103   4.208   6.930
 7095SOL    HW221738   4.069   4.241   6.787
 7096SOL     OW21739   3.947   4.288   7.573
 7096SOL    HW121740   3.899   4.363   7.608
 7096SOL    HW221741   3.937   4.296   7.478
 7097SOL     OW21742   3.947   4.008   8.439
 7097SOL    HW121743   3.977   3.972   8.522
 7097SOL    HW221744   3.857   3.975   8.429
 7098SOL     OW21745   3.726   4.099   8.091
 7098SOL    HW121746   3.646   4.132   8.132
 7098SOL    HW221747   3.697   4.022   8.042
 7099SOL     OW21748   0.063   0.003   9.306
 7099SOL    HW121749   0.121   0.064   9.353
 7099SOL    HW221750   0.078   0.022   9.214
 7100SOL     OW21751   4.174   4.114   8.922
 7100SOL    HW121752   4.250   4.056   8.932
 7100SOL    HW221753   4.099   4.060   8.947
 7101SOL     OW21754   3.785   4.383   8.027
 7101SOL    HW121755   3.789   4.288   8.040
 7101SOL    HW221756   3.866   4.416   8.066
 7102SOL     OW21757   3.840   4.480   9.030
 7102SOL    HW121758   3.902   0.002   9.099
 7102SOL    HW221759   3.811   0.064   8.996
 7103SOL     OW21760   0.022   3.733   7.973
 7103SOL    HW121761   0.052   3.792   7.903
 7103SOL    HW221762   4.427   3.746   7.977
 7104SOL     OW21763   4.063   3.974   9.263
 7104SOL    HW121764   4.101   4.058   9.288
 7104SOL    HW221765   3.971   3.981   9.289
 7105SOL     OW21766   4.247   3.908   8.329
 7105SOL    HW121767   4.267   3.915   8.422
 7105SOL    HW221768   4.258   3.997   8.295
 7106SOL     OW21769   3.923   4.001   8.956
 7106SOL    HW121770   3.838   4.044   8.948
 7106SOL    HW221771   3.905   3.920   9.004
 7107SOL     OW21772   4.089   4.394   7.859
 7107SOL    HW121773   4.127   4.317   7.901
 7107SOL    HW221774   4.028   4.429   7.925
 7108SOL     OW21775   4.338   3.824   7.570
 7108SOL    HW121776   4.433   3.820   7.565
 7108SOL    HW221777   4.309   3.805   7.480
 7109SOL     OW21778   4.259   3.789   7.950
 7109SOL    HW121779   4.180   3.792   8.002
 7109SOL    HW221780   4.254   3.866   7.893
 7110SOL     OW21781   4.017   3.772   7.634
 7110SOL    HW121782   4.078   3.835   7.595
 7110SOL    HW221783   4.073   3.708   7.678
 7111SOL     OW21784   0.372   4.387   8.977
 7111SOL    HW121785   0.328   4.368   8.894
 7111SOL    HW221786   0.436   4.316   8.987
 7112SOL     OW21787   3.802   4.280   8.843
 7112SOL    HW121788   3.893   4.272   8.814
 7112SOL    HW221789   3.802   4.354   8.903
 7113SOL     OW21790   4.280   3.929   8.596
 7113SOL    HW121791   4.329   3.877   8.660
 7113SOL    HW221792   4.194   3.941   8.636
 7114SOL     OW21793   4.244   3.988   7.770
 7114SOL    HW121794   4.284   3.931   7.705
 7114SOL    HW221795   4.228   4.070   7.724
 7115SOL     OW21796   4.159   0.012   8.727
 7115SOL    HW121797   4.222   0.006   8.798
 7115SOL    HW221798   4.116   4.427   8.724
 7116SOL     OW21799   4.309   4.261   8.325
 7116SOL    HW121800   4.318   4.335   8.264
 7116SOL    HW221801   4.378   4.276   8.390
 7117SOL     OW21802   4.234   3.776   9.182
 7117SOL    HW121803   4.186   3.717   9.123
 7117SOL    HW221804   4.170   3.845   9.203
 7118SOL     OW21805   4.022   3.923   8.696
 7118SOL    HW121806   3.984   3.955   8.778
 7118SOL    HW221807   4.003   3.829   8.695
 7119SOL     OW21808   4.019   3.788   8.075
 7119SOL    HW121809   4.001   3.880   8.097
 7119SOL    HW221810   4.033   3.745   8.160
 7120SOL     OW21811   4.038   0.012   8.368
 7120SOL    HW121812   4.111   0.074   8.374
 7120SOL    HW221813   4.064   4.439   8.425
 7121SOL     OW21814   4.075   4.243   8.467
 7121SOL    HW121815   4.033   4.159   8.446
 7121SOL    HW221816   4.154   4.244   8.414
 7122SOL     OW21817   3.758   4.274   8.564
 7122SOL    HW121818   3.837   4.260   8.511
 7122SOL    HW221819   3.790   4.275   8.654
 7123SOL     OW21820   3.918   4.248   9.167
 7123SOL    HW121821   3.967   4.191   9.107
 7123SOL    HW221822   3.867   4.305   9.109
 7124SOL     OW21823   0.006   4.298   7.731
 7124SOL    HW121824   0.019   4.214   7.776
 7124SOL    HW221825   4.490   4.361   7.802
 7125SOL     OW21826   4.202   4.210   7.632
 7125SOL    HW121827   4.254   4.288   7.650
 7125SOL    HW221828   4.112   4.243   7.624
 7126SOL     OW21829   3.984   4.044   8.163
 7126SOL    HW121830   3.895   4.071   8.141
 7126SOL    HW221831   3.983   4.033   8.258
 7127SOL     OW21832   4.390   3.928   8.942
 7127SOL    HW121833   4.480   3.942   8.911
 7127SOL    HW221834   4.398   3.922   9.037
 7128SOL     OW21835   3.800   4.038   7.476
 7128SOL    HW121836   3.716   4.033   7.430
 7128SOL    HW221837   3.832   4.127   7.459
 7129SOL     OW21838   3.790   3.878   7.754
 7129SOL    HW121839   3.775   3.957   7.701
 7129SOL    HW221840   3.875   3.846   7.725
 7130SOL     OW21841   4.406   4.272   9.202
 7130SOL    HW121842   4.426   4.353   9.249
 7130SOL    HW221843   4.490   4.242   9.168
 7131SOL     OW21844   4.175   4.157   7.992
 7131SOL    HW121845   4.187   4.092   7.922
 7131SOL    HW221846   4.111   4.117   8.051
 7132SOL     OW21847   4.048   4.265   8.739
 7132SOL    HW121848   4.103   4.208   8.792
 7132SOL    HW221849   4.069   4.241   8.649
 7133SOL     OW21850   3.947   4.288   9.435
 7133SOL    HW121851   3.899   4.363   9.470
 7133SOL    HW221852   3.937   4.296   9.340
 7134SOL     OW21853   3.947   4.008  10.301
 7134SOL    HW121854   3.977   3.972  10.384
 7134SOL    HW221855   3.857   3.976  10.292
 7135SOL     OW21856   3.726   4.099   9.953
 7135SOL    HW121857   3.646   4.132   9.994
 7135SOL    HW221858   3.697   4.022   9.904
 7136SOL     OW21859   4.182   4.121  10.794
 7136SOL    HW121860   4.250   4.054  10.799
 7136SOL    HW221861   4.101   4.076  10.818
 7137SOL     OW21862   3.785   4.383   9.889
 7137SOL    HW121863   3.789   4.288   9.902
 7137SOL    HW221864   3.866   4.416   9.928
 7138SOL     OW21865   3.855   4.461  10.904
 7138SOL    HW121866   3.950   4.465  10.906
 7138SOL    HW221867   3.827   0.052  10.898
 7139SOL     OW21868   0.022   3.732   9.835
 7139SOL    HW121869   0.052   3.791   9.765
 7139SOL    HW221870   4.427   3.745   9.839
 7140SOL     OW21871   4.071   3.978   0.019
 7140SOL    HW121872   4.113   4.058   0.048
 7140SOL    HW221873   3.977   3.994   0.031
 7141SOL     OW21874   4.247   3.909  10.192
 7141SOL    HW121875   4.268   3.917  10.285
 7141SOL    HW221876   4.257   3.997  10.157
 7142SOL     OW21877   3.930   4.001  10.809
 7142SOL    HW121878   3.850   4.054  10.813
 7142SOL    HW221879   3.914   3.929  10.870
 7143SOL     OW21880   4.089   4.394   9.722
 7143SOL    HW121881   4.127   4.317   9.763
 7143SOL    HW221882   4.029   4.430   9.787
 7144SOL     OW21883   4.338   3.824   9.432
 7144SOL    HW121884   4.433   3.820   9.428
 7144SOL    HW221885   4.309   3.805   9.342
 7145SOL     OW21886   4.259   3.790   9.812
 7145SOL    HW121887   4.180   3.792   9.864
 7145SOL    HW221888   4.254   3.866   9.755
 7146SOL     OW21889   4.017   3.772   9.496
 7146SOL    HW121890   4.078   3.835   9.458
 7146SOL    HW221891   4.073   3.708   9.540
 7147SOL     OW21892   0.334   4.382  10.818
 7147SOL    HW121893   0.243   4.353  10.808
 7147SOL    HW221894   0.386   4.306  10.792
 7148SOL     OW21895   3.800   4.277  10.709
 7148SOL    HW121896   3.891   4.269  10.679
 7148SOL    HW221897   3.804   4.339  10.781
 7149SOL     OW21898   4.282   3.931  10.461
 7149SOL    HW121899   4.324   3.864  10.516
 7149SOL    HW221900   4.194   3.941  10.498
 7150SOL     OW21901   4.244   3.988   9.632
 7150SOL    HW121902   4.284   3.931   9.567
 7150SOL    HW221903   4.227   4.070   9.586
 7151SOL     OW21904   4.159   0.008  10.578
 7151SOL    HW121905   4.222   4.500  10.650
 7151SOL    HW221906   4.110   4.425  10.580
 7152SOL     OW21907   4.310   4.261  10.187
 7152SOL    HW121908   4.319   4.334  10.127
 7152SOL    HW221909   4.379   4.274  10.252
 7153SOL     OW21910   4.127   4.460  10.909
 7153SOL    HW121911   4.193   0.027  10.892
 7153SOL    HW221912   4.175   4.377  10.902
 7154SOL     OW21913   4.023   3.923  10.556
 7154SOL    HW121914   3.988   3.955  10.639
 7154SOL    HW221915   4.004   3.829  10.557
 7155SOL     OW21916   4.019   3.788   9.937
 7155SOL    HW121917   4.001   3.880   9.959
 7155SOL    HW221918   4.033   3.745  10.021
 7156SOL     OW21919   4.039   0.012  10.229
 7156SOL    HW121920   4.111   0.074  10.237
 7156SOL    HW221921   4.063   4.440  10.287
 7157SOL     OW21922   4.075   4.243  10.330
 7157SOL    HW121923   4.033   4.160  10.308
 7157SOL    HW221924   4.154   4.245  10.276
 7158SOL     OW21925   3.759   4.277  10.428
 7158SOL    HW121926   3.838   4.261  10.376
 7158SOL    HW221927   3.788   4.276  10.519
 7159SOL     OW21928   0.006   4.298   9.594
 7159SOL    HW121929   0.019   4.214   9.639
 7159SOL    HW221930   4.491   4.361   9.664
 7160SOL     OW21931   4.202   4.210   9.494
 7160SOL    HW121932   4.254   4.288   9.512
 7160SOL    HW221933   4.112   4.243   9.486
 7161SOL     OW21934   3.984   4.044  10.025
 7161SOL    HW121935   3.895   4.071  10.003
 7161SOL    HW221936   3.983   4.033  10.120
 7162SOL     OW21937   4.397   3.932  10.813
 7162SOL    HW121938   4.474   3.944  10.756
 7162SOL    HW221939   4.431   3.944  10.902
 7163SOL     OW21940   3.800   4.038   9.338
 7163SOL    HW121941   3.716   4.033   9.292
 7163SOL    HW221942   3.832   4.127   9.321
 7164SOL     OW21943   3.790   3.878   9.616
 7164SOL    HW121944   3.775   3.957   9.563
 7164SOL    HW221945   3.875   3.846   9.587
 7165SOL     OW21946   4.175   4.157   9.854
 7165SOL    HW121947   4.187   4.092   9.784
 7165SOL    HW221948   4.111   4.117   9.913
 7166SOL     OW21949   4.047   4.262  10.601
 7166SOL    HW121950   4.103   4.206  10.655
 7166SOL    HW221951   4.068   4.238  10.511
   4.50000   4.50000  11.10000
