2aCDOH_1PEG_l8
22149
    1LIG      O    1   2.782   2.598   8.075
    1LIG      C    2   2.765   2.613   0.136
    1LIG     C1    3   2.632   2.546   0.185
    1LIG     O1    4   2.564   2.636   0.274
    1LIG     C2    5   2.592   2.613   0.412
    1LIG     C3    6   2.742   2.643   0.444
    1LIG     O2    7   2.770   2.618   0.582
    1LIG     C4    8   2.702   2.709   0.669
    1LIG     C5    9   2.580   2.635   0.732
    1LIG     O3   10   2.535   2.708   0.846
    1LIG     C6   11   2.587   2.658   0.969
    1LIG     C7   12   2.741   2.685   0.986
    1LIG     O4   13   2.793   2.630   1.108
    1LIG     C8   14   2.728   2.679   1.226
    1LIG     C9   15   2.616   2.578   1.267
    1LIG     O5   16   2.522   2.639   1.356
    1LIG    C10   17   2.570   2.629   1.490
    1LIG    C11   18   2.671   2.742   1.524
    1LIG     O6   19   2.632   2.799   1.649
    1LIG    C12   20   2.682   2.730   1.765
    1LIG    C13   21   2.614   2.591   1.791
    1LIG     O7   22   2.676   2.525   1.903
    1LIG    C14   23   2.634   2.578   2.028
    1LIG    C15   24   2.732   2.690   2.076
    1LIG     O8   25   2.653   2.793   2.140
    1LIG    C16   26   2.645   2.772   2.282
    1LIG    C17   27   2.533   2.669   2.321
    1LIG     O9   28   2.590   2.563   2.402
    1LIG    C18   29   2.585   2.592   2.544
    1LIG    C19   30   2.691   2.699   2.581
    1LIG    O10   31   2.660   2.764   2.703
    1LIG    C20   32   2.720   2.705   2.817
    1LIG    C21   33   2.618   2.608   2.883
    1LIG    O11   34   2.679   2.543   2.995
    1LIG    C22   35   2.651   2.606   3.120
    1LIG    C23   36   2.737   2.735   3.148
    1LIG    O12   37   2.687   2.804   3.262
    1LIG    C24   38   2.703   2.733   3.384
    1LIG    C25   39   2.581   2.640   3.408
    1LIG    O13   40   2.514   2.679   3.527
    1LIG    C26   41   2.563   2.613   3.643
    1LIG    C27   42   2.707   2.658   3.682
    1LIG    O14   43   2.750   2.583   3.796
    1LIG    C28   44   2.703   2.637   3.920
    1LIG    C29   45   2.568   2.575   3.968
    1LIG    O15   46   2.503   2.667   4.058
    1LIG    C30   47   2.551   2.653   4.191
    1LIG    C31   48   2.677   2.742   4.218
    1LIG    O16   49   2.771   2.668   4.296
    1LIG    C32   50   2.741   2.670   4.437
    1LIG    C33   51   2.613   2.586   4.470
    1LIG    O17   52   2.630   2.519   4.593
    1LIG    C34   53   2.589   2.591   4.707
    1LIG    C35   54   2.696   2.696   4.749
    1LIG    O18   55   2.768   2.651   4.863
    1LIG    C36   56   2.708   2.696   4.985
    1LIG    C37   57   2.569   2.626   5.006
    1LIG    O19   58   2.502   2.667   5.126
    1LIG    C38   59   2.574   2.624   5.241
    1LIG    C39   60   2.677   2.733   5.281
    1LIG    O20   61   2.635   2.793   5.402
    1LIG    C40   62   2.686   2.728   5.518
    1LIG    C41   63   2.620   2.588   5.543
    1LIG    O21   64   2.678   2.526   5.659
    1LIG    C42   65   2.630   2.585   5.781
    1LIG    C43   66   2.727   2.697   5.830
    1LIG    O22   67   2.649   2.794   5.902
    1LIG    C44   68   2.651   2.767   6.043
    1LIG    C45   69   2.542   2.662   6.085
    1LIG    O23   70   2.603   2.561   6.169
    1LIG    C46   71   2.598   2.594   6.309
    1LIG    C47   72   2.695   2.713   6.342
    1LIG    O24   73   2.677   2.763   6.473
    1LIG    C48   74   2.734   2.681   6.575
    1LIG    C49   75   2.621   2.595   6.637
    1LIG    O25   76   2.670   2.530   6.754
    1LIG    C50   77   2.634   2.596   6.876
    1LIG    C51   78   2.703   2.736   6.897
    1LIG    O26   79   2.644   2.805   7.009
    1LIG    C52   80   2.670   2.747   7.138
    1LIG    C53   81   2.570   2.630   7.163
    1LIG    O27   82   2.513   2.636   7.293
    1LIG    C54   83   2.594   2.565   7.389
    1LIG    C55   84   2.713   2.656   7.435
    1LIG    O28   85   2.778   2.597   7.550
    1LIG    C56   86   2.736   2.654   7.675
    1LIG    C57   87   2.588   2.614   7.706
    1LIG    O29   88   2.538   2.680   7.823
    1LIG    C58   89   2.575   2.617   7.946
    1LIG    C59   90   2.699   2.691   8.002
    1LIG      H   91   2.764   2.719   0.164
    1LIG     H1   92   2.850   2.566   0.187
    1LIG     H2   93   2.653   2.451   0.235
    1LIG     H3   94   2.566   2.523   0.101
    1LIG     H4   95   2.567   2.509   0.439
    1LIG     H5   96   2.527   2.681   0.469
    1LIG     H6   97   2.765   2.748   0.420
    1LIG     H7   98   2.808   2.579   0.386
    1LIG     H8   99   2.668   2.799   0.615
    1LIG     H9  100   2.773   2.743   0.744
    1LIG    H10  101   2.608   2.532   0.759
    1LIG    H11  102   2.497   2.628   0.660
    1LIG    H12  103   2.568   2.550   0.975
    1LIG    H13  104   2.532   2.707   1.050
    1LIG    H14  105   2.762   2.792   0.982
    1LIG    H15  106   2.797   2.635   0.906
    1LIG    H16  107   2.687   2.779   1.210
    1LIG    H17  108   2.802   2.685   1.307
    1LIG    H18  109   2.661   2.490   1.312
    1LIG    H19  110   2.558   2.543   1.181
    1LIG    H20  111   2.616   2.530   1.506
    1LIG    H21  112   2.485   2.637   1.558
    1LIG    H22  113   2.668   2.820   1.448
    1LIG    H23  114   2.773   2.703   1.530
    1LIG    H24  115   2.661   2.795   1.850
    1LIG    H25  116   2.790   2.717   1.757
    1LIG    H26  117   2.626   2.525   1.706
    1LIG    H27  118   2.506   2.604   1.808
    1LIG    H28  119   2.632   2.499   2.103
    1LIG    H29  120   2.532   2.617   2.020
    1LIG    H30  121   2.786   2.733   1.992
    1LIG    H31  122   2.808   2.648   2.143
    1LIG    H32  123   2.625   2.868   2.331
    1LIG    H33  124   2.743   2.737   2.318
    1LIG    H34  125   2.489   2.624   2.231
    1LIG    H35  126   2.453   2.720   2.375
    1LIG    H36  127   2.606   2.500   2.600
    1LIG    H37  128   2.484   2.625   2.571
    1LIG    H38  129   2.693   2.781   2.510
    1LIG    H39  130   2.792   2.656   2.584
    1LIG    H40  131   2.748   2.786   2.883
    1LIG    H41  132   2.812   2.651   2.791
    1LIG    H42  133   2.591   2.530   2.810
    1LIG    H43  134   2.526   2.660   2.911
    1LIG    H44  135   2.671   2.533   3.199
    1LIG    H45  136   2.544   2.632   3.124
    1LIG    H46  137   2.730   2.806   3.066
    1LIG    H47  138   2.843   2.708   3.162
    1LIG    H48  139   2.710   2.806   3.466
    1LIG    H49  140   2.796   2.675   3.383
    1LIG    H50  141   2.613   2.535   3.415
    1LIG    H51  142   2.508   2.648   3.327
    1LIG    H52  143   2.566   2.505   3.627
    1LIG    H53  144   2.492   2.636   3.721
    1LIG    H54  145   2.711   2.765   3.700
    1LIG    H55  146   2.776   2.633   3.601
    1LIG    H56  147   2.695   2.746   3.913
    1LIG    H57  148   2.778   2.616   3.996
    1LIG    H58  149   2.587   2.479   4.017
    1LIG    H59  150   2.499   2.552   3.887
    1LIG    H60  151   2.575   2.547   4.208
    1LIG    H61  152   2.471   2.680   4.261
    1LIG    H62  153   2.647   2.833   4.270
    1LIG    H63  154   2.726   2.773   4.126
    1LIG    H64  155   2.725   2.774   4.470
    1LIG    H65  156   2.826   2.629   4.491
    1LIG    H66  157   2.599   2.507   4.396
    1LIG    H67  158   2.523   2.649   4.472
    1LIG    H68  159   2.575   2.516   4.786
    1LIG    H69  160   2.493   2.640   4.690
    1LIG    H70  161   2.645   2.791   4.769
    1LIG    H71  162   2.769   2.714   4.670
    1LIG    H72  163   2.695   2.805   4.982
    1LIG    H73  164   2.777   2.672   5.065
    1LIG    H74  165   2.584   2.518   5.007
    1LIG    H75  166   2.501   2.651   4.925
    1LIG    H76  167   2.622   2.527   5.225
    1LIG    H77  168   2.501   2.612   5.322
    1LIG    H78  169   2.682   2.812   5.205
    1LIG    H79  170   2.777   2.690   5.292
    1LIG    H80  171   2.662   2.795   5.600
    1LIG    H81  172   2.795   2.716   5.510
    1LIG    H82  173   2.638   2.521   5.459
    1LIG    H83  174   2.511   2.599   5.555
    1LIG    H84  175   2.623   2.508   5.858
    1LIG    H85  176   2.529   2.625   5.767
    1LIG    H86  177   2.775   2.748   5.747
    1LIG    H87  178   2.808   2.654   5.890
    1LIG    H88  179   2.634   2.862   6.095
    1LIG    H89  180   2.751   2.731   6.072
    1LIG    H90  181   2.500   2.613   5.997
    1LIG    H91  182   2.460   2.712   6.137
    1LIG    H92  183   2.628   2.506   6.366
    1LIG    H93  184   2.495   2.619   6.338
    1LIG    H94  185   2.675   2.798   6.278
    1LIG    H95  186   2.800   2.683   6.326
    1LIG    H96  187   2.780   2.747   6.649
    1LIG    H97  188   2.814   2.618   6.536
    1LIG    H98  189   2.591   2.517   6.566
    1LIG    H99  190   2.532   2.655   6.659
    1LIG   H100  191   2.663   2.528   6.956
    1LIG   H101  192   2.524   2.608   6.879
    1LIG   H102  193   2.684   2.799   6.810
    1LIG   H103  194   2.811   2.724   6.911
    1LIG   H104  195   2.656   2.824   7.214
    1LIG   H105  196   2.774   2.712   7.143
    1LIG   H106  197   2.620   2.534   7.149
    1LIG   H107  198   2.488   2.637   7.090
    1LIG   H108  199   2.632   2.472   7.346
    1LIG   H109  200   2.529   2.535   7.471
    1LIG   H110  201   2.679   2.757   7.457
    1LIG   H111  202   2.787   2.662   7.355
    1LIG   H112  203   2.744   2.763   7.672
    1LIG   H113  204   2.802   2.616   7.754
    1LIG   H114  205   2.579   2.505   7.715
    1LIG   H115  206   2.523   2.647   7.625
    1LIG   H116  207   2.598   2.510   7.929
    1LIG   H117  208   2.491   2.623   8.016
    1LIG   H118  209   2.758   2.734   7.921
    1LIG   H119  210   2.667   2.775   8.065
    2MOL     C1  211   3.206   2.651   3.513
    2MOL     H1  212   3.292   2.718   3.523
    2MOL     O1  213   3.187   2.574   3.632
    2MOL     C2  214   3.072   2.486   3.633
    2MOL     H2  215   2.981   2.544   3.616
    2MOL     C3  216   3.062   2.426   3.775
    2MOL     H3  217   3.163   2.400   3.809
    2MOL     H4  218   3.003   2.334   3.774
    2MOL     O2  219   3.002   2.520   3.864
    2MOL     H5  220   2.906   2.518   3.839
    2MOL     C4  221   3.229   2.555   3.394
    2MOL     H6  222   3.322   2.500   3.413
    2MOL     O3  223   3.241   2.628   3.271
    2MOL     H7  224   3.205   2.718   3.288
    2MOL     C5  225   3.114   2.453   3.383
    2MOL     H8  226   3.024   2.509   3.355
    2MOL     O4  227   3.143   2.357   3.280
    2MOL     H9  228   3.171   2.411   3.204
    2MOL     C6  229   3.084   2.382   3.518
    2MOL    H10  230   3.163   2.310   3.540
    2MOL     O5  231   2.956   2.318   3.499
    2MOL     C7  232   2.940   2.182   3.546
    2MOL    H11  233   3.037   2.134   3.563
    2MOL     O6  234   2.861   2.183   3.667
    2MOL     C8  235   2.732   2.249   3.659
    2MOL    H12  236   2.745   2.354   3.631
    2MOL     C9  237   2.665   2.242   3.799
    2MOL    H13  238   2.659   2.137   3.828
    2MOL    H14  239   2.562   2.281   3.793
    2MOL     O7  240   2.738   2.314   3.898
    2MOL    H15  241   2.736   2.259   3.978
    2MOL    C10  242   2.863   2.102   3.438
    2MOL    H16  243   2.850   2.000   3.477
    2MOL     O8  244   2.937   2.097   3.316
    2MOL    H17  245   2.942   2.188   3.280
    2MOL    C11  246   2.723   2.164   3.415
    2MOL    H18  247   2.737   2.265   3.374
    2MOL     O9  248   2.650   2.084   3.322
    2MOL    H19  249   2.713   2.074   3.247
    2MOL    C12  250   2.646   2.178   3.550
    2MOL    H20  251   2.620   2.078   3.586
    2MOL    O10  252   2.526   2.258   3.528
    2MOL    C13  253   2.399   2.190   3.542
    2MOL    H21  254   2.415   2.082   3.554
    2MOL    O11  255   2.327   2.242   3.657
    2MOL    C14  256   2.293   2.384   3.652
    2MOL    H22  257   2.385   2.441   3.651
    2MOL    C15  258   2.216   2.427   3.780
    2MOL    H23  259   2.213   2.536   3.784
    2MOL    H24  260   2.273   2.394   3.868
    2MOL    O12  261   2.083   2.374   3.785
    2MOL    H25  262   2.028   2.442   3.829
    2MOL    C16  263   2.314   2.212   3.416
    2MOL    H26  264   2.219   2.160   3.432
    2MOL    O13  265   2.378   2.159   3.301
    2MOL    H27  266   2.475   2.172   3.314
    2MOL    C17  267   2.286   2.362   3.395
    2MOL    H28  268   2.383   2.412   3.385
    2MOL    O14  269   2.210   2.383   3.275
    2MOL    H29  270   2.243   2.314   3.213
    2MOL    C18  271   2.216   2.420   3.521
    2MOL    H30  272   2.113   2.383   3.526
    2MOL    O15  273   2.221   2.563   3.506
    2MOL    C19  274   2.099   2.640   3.519
    2MOL    H31  275   2.011   2.575   3.525
    2MOL    O16  276   2.107   2.722   3.637
    2MOL    C20  277   2.218   2.815   3.646
    2MOL    H32  278   2.311   2.758   3.652
    2MOL    C21  279   2.204   2.896   3.779
    2MOL    H33  280   2.279   2.975   3.780
    2MOL    H34  281   2.224   2.828   3.863
    2MOL    O17  282   2.076   2.957   3.797
    2MOL    H35  283   2.094   3.032   3.857
    2MOL    C22  284   2.088   2.730   3.395
    2MOL    H36  285   1.996   2.788   3.401
    2MOL    O18  286   2.088   2.645   3.282
    2MOL    H37  287   2.151   2.574   3.308
    2MOL    C23  288   2.211   2.825   3.387
    2MOL    H38  289   2.301   2.761   3.381
    2MOL    O19  290   2.206   2.909   3.269
    2MOL    H39  291   2.228   2.852   3.191
    2MOL    C24  292   2.228   2.906   3.519
    2MOL    H40  293   2.152   2.985   3.524
    2MOL    O20  294   2.362   2.963   3.512
    2MOL    C25  295   2.383   3.103   3.545
    2MOL    H41  296   2.287   3.152   3.568
    2MOL    O21  297   2.472   3.111   3.658
    2MOL    C26  298   2.604   3.052   3.639
    2MOL    H42  299   2.593   2.946   3.614
    2MOL    C27  300   2.684   3.061   3.772
    2MOL    H43  301   2.746   2.971   3.783
    2MOL    H44  302   2.612   3.062   3.854
    2MOL    O22  303   2.767   3.176   3.784
    2MOL    H45  304   2.854   3.141   3.754
    2MOL    C28  305   2.448   3.176   3.424
    2MOL    H46  306   2.458   3.282   3.450
    2MOL    O23  307   2.363   3.163   3.311
    2MOL    H47  308   2.342   3.067   3.304
    2MOL    C29  309   2.589   3.119   3.392
    2MOL    H48  310   2.576   3.015   3.360
    2MOL    O24  311   2.654   3.194   3.287
    2MOL    H49  312   2.583   3.234   3.232
    2MOL    C30  313   2.676   3.120   3.519
    2MOL    H50  314   2.699   3.224   3.545
    2MOL    O25  315   2.795   3.046   3.488
    2MOL    C31  316   2.922   3.107   3.520
    2MOL    H51  317   2.911   3.214   3.535
    2MOL    O26  318   2.973   3.045   3.641
    2MOL    C32  319   2.995   2.902   3.634
    2MOL    H52  320   2.900   2.851   3.615
    2MOL    C33  321   3.050   2.855   3.770
    2MOL    H53  322   3.105   2.936   3.818
    2MOL    H54  323   3.121   2.772   3.756
    2MOL    O27  324   2.945   2.813   3.856
    2MOL    H55  325   2.964   2.718   3.874
    2MOL    C34  326   3.020   3.084   3.402
    2MOL    H56  327   3.115   3.134   3.425
    2MOL    O28  328   2.961   3.142   3.286
    2MOL    H57  329   2.865   3.124   3.296
    2MOL    C35  330   3.046   2.932   3.382
    2MOL    H58  331   2.951   2.887   3.353
    2MOL    O29  332   3.146   2.904   3.282
    2MOL    H59  333   3.146   2.975   3.215
    2MOL    C36  334   3.090   2.868   3.515
    2MOL    H60  335   3.192   2.901   3.540
    2MOL    O30  336   3.085   2.726   3.491
    3MOL     C1  337   3.205   2.649   4.538
    3MOL     H1  338   3.293   2.713   4.553
    3MOL     O1  339   3.176   2.576   4.658
    3MOL     C2  340   3.060   2.489   4.653
    3MOL     H2  341   2.969   2.546   4.633
    3MOL     C3  342   3.048   2.422   4.791
    3MOL     H3  343   3.147   2.383   4.817
    3MOL     H4  344   2.980   2.336   4.786
    3MOL     O2  345   3.004   2.513   4.891
    3MOL     H5  346   2.907   2.523   4.880
    3MOL     C4  347   3.235   2.552   4.422
    3MOL     H6  348   3.330   2.502   4.445
    3MOL     O3  349   3.247   2.626   4.299
    3MOL     H7  350   3.213   2.716   4.318
    3MOL     C5  351   3.126   2.443   4.408
    3MOL     H8  352   3.039   2.492   4.364
    3MOL     O4  353   3.169   2.334   4.325
    3MOL     H9  354   3.171   2.362   4.230
    3MOL     C6  355   3.081   2.383   4.542
    3MOL    H10  356   3.155   2.309   4.574
    3MOL     O5  357   2.953   2.322   4.513
    3MOL     C7  358   2.937   2.181   4.538
    3MOL    H11  359   3.035   2.131   4.549
    3MOL     O6  360   2.858   2.163   4.657
    3MOL     C8  361   2.730   2.233   4.655
    3MOL    H12  362   2.750   2.338   4.635
    3MOL     C9  363   2.664   2.226   4.794
    3MOL    H13  364   2.664   2.121   4.828
    3MOL    H14  365   2.560   2.259   4.785
    3MOL     O7  366   2.730   2.309   4.890
    3MOL    H15  367   2.714   2.267   4.977
    3MOL    C10  368   2.859   2.119   4.419
    3MOL    H16  369   2.847   2.012   4.439
    3MOL     O8  370   2.931   2.137   4.296
    3MOL    H17  371   3.000   2.205   4.313
    3MOL    C11  372   2.719   2.184   4.406
    3MOL    H18  373   2.734   2.290   4.383
    3MOL     O9  374   2.649   2.122   4.299
    3MOL    H19  375   2.717   2.118   4.228
    3MOL    C12  376   2.641   2.176   4.540
    3MOL    H20  377   2.616   2.071   4.563
    3MOL    O10  378   2.522   2.258   4.526
    3MOL    C13  379   2.392   2.196   4.542
    3MOL    H21  380   2.402   2.087   4.557
    3MOL    O11  381   2.325   2.254   4.657
    3MOL    C14  382   2.293   2.396   4.651
    3MOL    H22  383   2.386   2.452   4.652
    3MOL    C15  384   2.212   2.436   4.778
    3MOL    H23  385   2.206   2.545   4.782
    3MOL    H24  386   2.266   2.402   4.866
    3MOL    O12  387   2.079   2.381   4.778
    3MOL    H25  388   2.035   2.411   4.860
    3MOL    C16  389   2.306   2.222   4.416
    3MOL    H26  390   2.209   2.172   4.428
    3MOL    O13  391   2.372   2.173   4.300
    3MOL    H27  392   2.467   2.166   4.324
    3MOL    C17  393   2.283   2.372   4.395
    3MOL    H28  394   2.381   2.419   4.383
    3MOL    O14  395   2.204   2.396   4.277
    3MOL    H29  396   2.221   2.318   4.219
    3MOL    C18  397   2.217   2.432   4.520
    3MOL    H30  398   2.113   2.399   4.526
    3MOL    O15  399   2.228   2.575   4.500
    3MOL    C19  400   2.107   2.653   4.510
    3MOL    H31  401   2.018   2.589   4.515
    3MOL    O16  402   2.116   2.734   4.629
    3MOL    C20  403   2.234   2.819   4.637
    3MOL    H32  404   2.324   2.756   4.635
    3MOL    C21  405   2.232   2.896   4.770
    3MOL    H33  406   2.325   2.952   4.781
    3MOL    H34  407   2.227   2.824   4.852
    3MOL    O17  408   2.121   2.985   4.775
    3MOL    H35  409   2.125   3.033   4.860
    3MOL    C22  410   2.098   2.744   4.386
    3MOL    H36  411   2.004   2.801   4.389
    3MOL    O18  412   2.104   2.664   4.268
    3MOL    H37  413   2.164   2.590   4.289
    3MOL    C23  414   2.217   2.841   4.379
    3MOL    H38  415   2.306   2.780   4.362
    3MOL    O19  416   2.201   2.935   4.270
    3MOL    H39  417   2.168   2.883   4.193
    3MOL    C24  418   2.239   2.914   4.514
    3MOL    H40  419   2.165   2.994   4.525
    3MOL    O20  420   2.373   2.966   4.505
    3MOL    C25  421   2.393   3.107   4.529
    3MOL    H41  422   2.296   3.158   4.543
    3MOL    O21  423   2.473   3.121   4.649
    3MOL    C26  424   2.601   3.052   4.644
    3MOL    H42  425   2.584   2.946   4.622
    3MOL    C27  426   2.677   3.059   4.779
    3MOL    H43  427   2.748   2.975   4.783
    3MOL    H44  428   2.608   3.044   4.863
    3MOL    O22  429   2.752   3.179   4.795
    3MOL    H45  430   2.844   3.149   4.778
    3MOL    C28  431   2.467   3.168   4.407
    3MOL    H46  432   2.473   3.276   4.421
    3MOL    O23  433   2.398   3.136   4.287
    3MOL    H47  434   2.322   3.078   4.311
    3MOL    C29  435   2.610   3.109   4.395
    3MOL    H48  436   2.598   3.004   4.368
    3MOL    O24  437   2.688   3.177   4.295
    3MOL    H49  438   2.635   3.197   4.216
    3MOL    C30  439   2.684   3.114   4.529
    3MOL    H50  440   2.707   3.218   4.553
    3MOL    O25  441   2.803   3.035   4.511
    3MOL    C31  442   2.928   3.104   4.530
    3MOL    H51  443   2.913   3.213   4.540
    3MOL    O26  444   2.989   3.051   4.650
    3MOL    C32  445   3.013   2.907   4.649
    3MOL    H52  446   2.917   2.854   4.640
    3MOL    C33  447   3.078   2.868   4.784
    3MOL    H53  448   3.146   2.949   4.815
    3MOL    H54  449   3.138   2.778   4.774
    3MOL    O27  450   2.979   2.848   4.886
    3MOL    H55  451   2.951   2.754   4.881
    3MOL    C34  452   3.020   3.079   4.408
    3MOL    H56  453   3.114   3.133   4.422
    3MOL    O28  454   2.957   3.122   4.289
    3MOL    H57  455   2.860   3.131   4.309
    3MOL    C35  456   3.050   2.929   4.393
    3MOL    H58  457   2.955   2.879   4.368
    3MOL    O29  458   3.145   2.904   4.288
    3MOL    H59  459   3.131   2.974   4.221
    3MOL    C36  460   3.100   2.869   4.526
    3MOL    H60  461   3.204   2.901   4.542
    3MOL    O30  462   3.090   2.727   4.505
    4SOL     OW  463   0.215   0.602   0.122
    4SOL    HW1  464   0.174   0.544   0.186
    4SOL    HW2  465   0.244   0.545   0.051
    5SOL     OW  466   0.233   0.283   0.990
    5SOL    HW1  467   0.252   0.241   1.074
    5SOL    HW2  468   0.152   0.242   0.960
    6SOL     OW  469   0.000   0.409   0.661
    6SOL    HW1  470   5.208   0.432   0.668
    6SOL    HW2  471   5.300   0.318   0.632
    7SOL     OW  472   0.581   1.295   1.194
    7SOL    HW1  473   0.499   1.300   1.145
    7SOL    HW2  474   0.595   1.384   1.227
    8SOL     OW  475   1.571   1.515   0.710
    8SOL    HW1  476   1.528   1.491   0.792
    8SOL    HW2  477   1.500   1.518   0.645
    9SOL     OW  478   1.136   0.698   0.697
    9SOL    HW1  479   1.182   0.781   0.684
    9SOL    HW2  480   1.087   0.710   0.779
   10SOL     OW  481   1.776   0.596   0.228
   10SOL    HW1  482   1.725   0.607   0.147
   10SOL    HW2  483   1.735   0.522   0.272
   11SOL     OW  484   0.747   1.136   1.046
   11SOL    HW1  485   0.685   1.173   1.108
   11SOL    HW2  486   0.785   1.212   1.001
   12SOL     OW  487   0.873   0.768   1.824
   12SOL    HW1  488   0.867   0.839   1.889
   12SOL    HW2  489   0.897   0.812   1.743
   13SOL     OW  490   0.682   0.993   0.649
   13SOL    HW1  491   0.750   0.987   0.717
   13SOL    HW2  492   0.617   1.052   0.687
   14SOL     OW  493   0.712   1.149   1.820
   14SOL    HW1  494   0.761   1.226   1.850
   14SOL    HW2  495   0.634   1.185   1.779
   15SOL     OW  496   0.359   1.402   1.062
   15SOL    HW1  497   0.271   1.396   1.025
   15SOL    HW2  498   0.406   1.463   1.005
   16SOL     OW  499   1.459   1.502   1.361
   16SOL    HW1  500   1.513   1.580   1.371
   16SOL    HW2  501   1.391   1.512   1.427
   17SOL     OW  502   0.457   0.396   1.473
   17SOL    HW1  503   0.537   0.344   1.477
   17SOL    HW2  504   0.387   0.333   1.490
   18SOL     OW  505   1.604   0.449   0.741
   18SOL    HW1  506   1.525   0.464   0.689
   18SOL    HW2  507   1.613   0.529   0.793
   19SOL     OW  508   0.220   1.736   0.459
   19SOL    HW1  509   0.257   1.792   0.528
   19SOL    HW2  510   0.296   1.711   0.406
   20SOL     OW  511   1.138   1.343   1.694
   20SOL    HW1  512   1.179   1.336   1.780
   20SOL    HW2  513   1.086   1.263   1.686
   21SOL     OW  514   0.219   1.454   0.526
   21SOL    HW1  515   0.194   1.546   0.538
   21SOL    HW2  516   0.166   1.406   0.590
   22SOL     OW  517   0.263   1.076   0.877
   22SOL    HW1  518   0.267   0.986   0.911
   22SOL    HW2  519   0.205   1.122   0.937
   23SOL     OW  520   0.606   1.791   1.431
   23SOL    HW1  521   0.522   1.774   1.475
   23SOL    HW2  522   0.628   1.881   1.456
   24SOL     OW  523   0.608   0.957   0.151
   24SOL    HW1  524   0.566   1.035   0.115
   24SOL    HW2  525   0.668   0.990   0.217
   25SOL     OW  526   1.587   0.139   1.454
   25SOL    HW1  527   1.621   0.220   1.415
   25SOL    HW2  528   1.575   0.161   1.547
   26SOL     OW  529   0.127   0.639   0.583
   26SOL    HW1  530   0.092   0.555   0.613
   26SOL    HW2  531   0.099   0.701   0.651
   27SOL     OW  532   1.850   1.754   0.324
   27SOL    HW1  533   1.918   1.726   0.385
   27SOL    HW2  534   1.871   1.846   0.305
   28SOL     OW  535   0.028   1.572   0.104
   28SOL    HW1  536   0.018   1.489   0.150
   28SOL    HW2  537   0.009   1.639   0.170
   29SOL     OW  538   1.690   0.920   0.649
   29SOL    HW1  539   1.769   0.873   0.623
   29SOL    HW2  540   1.666   0.972   0.572
   30SOL     OW  541   1.649   1.101   0.435
   30SOL    HW1  542   1.732   1.108   0.387
   30SOL    HW2  543   1.656   1.166   0.505
   31SOL     OW  544   0.137   0.751   1.582
   31SOL    HW1  545   0.231   0.764   1.578
   31SOL    HW2  546   0.101   0.839   1.599
   32SOL     OW  547   0.619   1.392   0.732
   32SOL    HW1  548   0.572   1.309   0.743
   32SOL    HW2  549   0.602   1.417   0.641
   33SOL     OW  550   1.285   1.236   1.421
   33SOL    HW1  551   1.315   1.167   1.361
   33SOL    HW2  552   1.345   1.230   1.496
   34SOL     OW  553   0.823   0.038   0.535
   34SOL    HW1  554   0.852   0.123   0.502
   34SOL    HW2  555   0.728   0.039   0.527
   35SOL     OW  556   0.167   0.937   1.282
   35SOL    HW1  557   0.258   0.907   1.275
   35SOL    HW2  558   0.132   0.929   1.194
   36SOL     OW  559   1.500   1.014   0.217
   36SOL    HW1  560   1.438   0.951   0.253
   36SOL    HW2  561   1.557   1.037   0.291
   37SOL     OW  562   1.184   1.813   1.626
   37SOL    HW1  563   1.189   1.874   1.553
   37SOL    HW2  564   1.202   1.727   1.587
   38SOL     OW  565   0.337   0.292   1.796
   38SOL    HW1  566   0.394   0.343   1.855
   38SOL    HW2  567   0.257   0.279   1.845
   39SOL     OW  568   1.468   1.419   0.947
   39SOL    HW1  569   1.401   1.435   1.013
   39SOL    HW2  570   1.454   1.328   0.921
   40SOL     OW  571   1.655   1.755   0.582
   40SOL    HW1  572   1.634   1.723   0.494
   40SOL    HW2  573   1.636   1.681   0.640
   41SOL     OW  574   0.598   0.710   0.285
   41SOL    HW1  575   0.614   0.794   0.242
   41SOL    HW2  576   0.534   0.730   0.354
   42SOL     OW  577   1.275   0.357   0.934
   42SOL    HW1  578   1.185   0.326   0.946
   42SOL    HW2  579   1.326   0.304   0.995
   43SOL     OW  580   1.588   1.673   0.323
   43SOL    HW1  581   1.680   1.697   0.314
   43SOL    HW2  582   1.558   1.656   0.234
   44SOL     OW  583   0.794   0.619   1.446
   44SOL    HW1  584   0.765   0.597   1.535
   44SOL    HW2  585   0.757   0.551   1.391
   45SOL     OW  586   1.394   0.477   1.678
   45SOL    HW1  587   1.398   0.521   1.763
   45SOL    HW2  588   1.456   0.404   1.687
   46SOL     OW  589   0.950   0.886   1.586
   46SOL    HW1  590   1.005   0.818   1.547
   46SOL    HW2  591   0.902   0.922   1.512
   47SOL     OW  592   0.994   0.415   1.229
   47SOL    HW1  593   0.905   0.432   1.258
   47SOL    HW2  594   0.984   0.370   1.145
   48SOL     OW  595   1.056   0.700   0.428
   48SOL    HW1  596   1.075   0.693   0.522
   48SOL    HW2  597   0.973   0.655   0.417
   49SOL     OW  598   0.062   0.795   0.812
   49SOL    HW1  599   0.142   0.796   0.865
   49SOL    HW2  600   0.074   0.867   0.750
   50SOL     OW  601   0.123   1.888   1.587
   50SOL    HW1  602   0.131   1.865   1.680
   50SOL    HW2  603   0.058   1.826   1.553
   51SOL     OW  604   0.887   0.360   0.205
   51SOL    HW1  605   0.932   0.408   0.136
   51SOL    HW2  606   0.870   0.274   0.166
   52SOL     OW  607   1.701   0.568   1.829
   52SOL    HW1  608   1.668   0.643   1.779
   52SOL    HW2  609   1.735   0.508   1.762
   53SOL     OW  610   1.380   1.142   0.541
   53SOL    HW1  611   1.459   1.131   0.487
   53SOL    HW2  612   1.326   1.204   0.492
   54SOL     OW  613   0.530   0.207   0.880
   54SOL    HW1  614   0.547   0.223   0.973
   54SOL    HW2  615   0.546   0.291   0.838
   55SOL     OW  616   0.996   1.442   0.468
   55SOL    HW1  617   0.965   1.518   0.419
   55SOL    HW2  618   0.973   1.462   0.559
   56SOL     OW  619   0.360   1.806   0.871
   56SOL    HW1  620   0.399   1.720   0.884
   56SOL    HW2  621   0.424   1.868   0.907
   57SOL     OW  622   1.802   1.052   0.873
   57SOL    HW1  623   1.750   1.031   0.795
   57SOL    HW2  624   1.737   1.059   0.943
   58SOL     OW  625   1.227   1.540   1.513
   58SOL    HW1  626   1.215   1.468   1.574
   58SOL    HW2  627   1.159   1.527   1.447
   59SOL     OW  628   0.325   0.950   0.262
   59SOL    HW1  629   0.405   0.963   0.211
   59SOL    HW2  630   0.316   0.855   0.269
   60SOL     OW  631   1.481   0.751   0.723
   60SOL    HW1  632   1.477   0.711   0.810
   60SOL    HW2  633   1.559   0.806   0.726
   61SOL     OW  634   0.469   1.268   1.738
   61SOL    HW1  635   0.442   1.273   1.646
   61SOL    HW2  636   0.387   1.267   1.787
   62SOL     OW  637   1.106   1.782   0.218
   62SOL    HW1  638   1.047   1.742   0.282
   62SOL    HW2  639   1.131   1.710   0.159
   63SOL     OW  640   0.197   0.282   1.498
   63SOL    HW1  641   0.163   0.370   1.484
   63SOL    HW2  642   0.212   0.277   1.593
   64SOL     OW  643   1.636   1.371   0.084
   64SOL    HW1  644   1.594   1.457   0.085
   64SOL    HW2  645   1.564   1.310   0.064
   65SOL     OW  646   0.471   1.729   0.326
   65SOL    HW1  647   0.516   1.791   0.385
   65SOL    HW2  648   0.538   1.702   0.264
   66SOL     OW  649   1.422   0.103   0.447
   66SOL    HW1  650   1.421   0.083   0.353
   66SOL    HW2  651   1.513   0.127   0.465
   67SOL     OW  652   0.278   1.800   1.201
   67SOL    HW1  653   0.306   1.718   1.242
   67SOL    HW2  654   0.220   1.772   1.130
   68SOL     OW  655   0.940   1.700   0.896
   68SOL    HW1  656   1.019   1.651   0.918
   68SOL    HW2  657   0.899   1.649   0.826
   69SOL     OW  658   0.377   0.698   0.471
   69SOL    HW1  659   0.409   0.609   0.484
   69SOL    HW2  660   0.287   0.697   0.502
   70SOL     OW  661   1.532   0.228   1.720
   70SOL    HW1  662   1.541   0.243   1.814
   70SOL    HW2  663   1.455   0.172   1.712
   71SOL     OW  664   0.627   0.142   0.121
   71SOL    HW1  665   0.718   0.115   0.130
   71SOL    HW2  666   0.598   0.101   0.039
   72SOL     OW  667   0.775   0.312   1.769
   72SOL    HW1  668   0.839   0.240   1.768
   72SOL    HW2  669   0.730   0.303   1.854
   73SOL     OW  670   0.878   1.524   1.194
   73SOL    HW1  671   0.859   1.485   1.108
   73SOL    HW2  672   0.946   1.469   1.231
   74SOL     OW  673   1.339   0.590   1.433
   74SOL    HW1  674   1.370   0.559   1.518
   74SOL    HW2  675   1.375   0.677   1.424
   75SOL     OW  676   0.819   1.388   0.946
   75SOL    HW1  677   0.904   1.377   0.904
   75SOL    HW2  678   0.757   1.396   0.874
   76SOL     OW  679   0.928   0.512   0.900
   76SOL    HW1  680   0.903   0.503   0.808
   76SOL    HW2  681   0.956   0.424   0.926
   77SOL     OW  682   0.553   0.057   0.510
   77SOL    HW1  683   0.473   0.056   0.563
   77SOL    HW2  684   0.537   0.124   0.444
   78SOL     OW  685   1.431   1.201   0.033
   78SOL    HW1  686   1.454   1.129   0.092
   78SOL    HW2  687   1.344   1.229   0.063
   79SOL     OW  688   0.327   0.084   0.196
   79SOL    HW1  689   0.397   0.150   0.193
   79SOL    HW2  690   0.372   0.001   0.178
   80SOL     OW  691   0.949   0.267   0.454
   80SOL    HW1  692   0.924   0.308   0.372
   80SOL    HW2  693   1.042   0.289   0.464
   81SOL     OW  694   1.081   0.686   1.457
   81SOL    HW1  695   1.015   0.616   1.460
   81SOL    HW2  696   1.165   0.639   1.451
   82SOL     OW  697   1.219   1.572   0.796
   82SOL    HW1  698   1.233   1.637   0.727
   82SOL    HW2  699   1.289   1.590   0.859
   83SOL     OW  700   0.472   1.156   0.725
   83SOL    HW1  701   0.405   1.133   0.789
   83SOL    HW2  702   0.430   1.143   0.640
   84SOL     OW  703   1.263   1.793   0.613
   84SOL    HW1  704   1.315   1.857   0.563
   84SOL    HW2  705   1.193   1.844   0.652
   85SOL     OW  706   1.030   0.521   0.036
   85SOL    HW1  707   0.999   0.607   0.008
   85SOL    HW2  708   1.095   0.539   0.104
   86SOL     OW  709   0.108   0.527   1.417
   86SOL    HW1  710   0.186   0.548   1.366
   86SOL    HW2  711   0.085   0.609   1.461
   87SOL     OW  712   0.558   0.240   1.159
   87SOL    HW1  713   0.592   0.155   1.187
   87SOL    HW2  714   0.466   0.238   1.185
   88SOL     OW  715   0.866   0.462   0.640
   88SOL    HW1  716   0.825   0.517   0.573
   88SOL    HW2  717   0.889   0.382   0.593
   89SOL     OW  718   0.979   0.063   0.767
   89SOL    HW1  719   0.917   0.063   0.694
   89SOL    HW2  720   0.990   5.271   0.790
   90SOL     OW  721   1.439   1.160   0.856
   90SOL    HW1  722   1.368   1.097   0.857
   90SOL    HW2  723   1.463   1.168   0.764
   91SOL     OW  724   1.465   0.612   0.969
   91SOL    HW1  725   1.411   0.533   0.973
   91SOL    HW2  726   1.524   0.604   1.044
   92SOL     OW  727   1.846   0.810   0.389
   92SOL    HW1  728   1.900   0.759   0.449
   92SOL    HW2  729   1.818   0.747   0.322
   93SOL     OW  730   0.487   1.441   0.174
   93SOL    HW1  731   0.412   1.407   0.223
   93SOL    HW2  732   0.497   1.379   0.101
   94SOL     OW  733   1.678   1.266   0.643
   94SOL    HW1  734   1.773   1.266   0.658
   94SOL    HW2  735   1.650   1.355   0.665
   95SOL     OW  736   1.397   0.571   0.088
   95SOL    HW1  737   1.333   0.556   0.158
   95SOL    HW2  738   1.447   0.490   0.083
   96SOL     OW  739   0.523   0.268   0.328
   96SOL    HW1  740   0.571   0.217   0.264
   96SOL    HW2  741   0.504   0.351   0.283
   97SOL     OW  742   1.748   1.242   1.562
   97SOL    HW1  743   1.836   1.204   1.556
   97SOL    HW2  744   1.764   1.332   1.592
   98SOL     OW  745   1.054   1.353   1.332
   98SOL    HW1  746   0.979   1.322   1.381
   98SOL    HW2  747   1.129   1.311   1.373
   99SOL     OW  748   1.609   1.628   1.658
   99SOL    HW1  749   1.601   1.662   1.569
   99SOL    HW2  750   1.691   1.578   1.657
  100SOL     OW  751   1.136   1.211   1.102
  100SOL    HW1  752   1.075   1.248   1.166
  100SOL    HW2  753   1.106   1.245   1.018
  101SOL     OW  754   1.623   1.096   1.076
  101SOL    HW1  755   1.616   1.159   1.147
  101SOL    HW2  756   1.547   1.114   1.020
  102SOL     OW  757   0.904   0.110   1.380
  102SOL    HW1  758   0.935   0.076   1.296
  102SOL    HW2  759   0.981   0.151   1.420
  103SOL     OW  760   0.984   1.116   1.723
  103SOL    HW1  761   0.893   1.132   1.746
  103SOL    HW2  762   0.981   1.037   1.668
  104SOL     OW  763   0.721   1.065   0.384
  104SOL    HW1  764   0.702   1.044   0.475
  104SOL    HW2  765   0.798   1.013   0.362
  105SOL     OW  766   0.420   0.827   1.256
  105SOL    HW1  767   0.490   0.834   1.321
  105SOL    HW2  768   0.388   0.738   1.263
  106SOL     OW  769   1.264   0.376   1.278
  106SOL    HW1  770   1.297   0.453   1.324
  106SOL    HW2  771   1.174   0.399   1.254
  107SOL     OW  772   0.104   1.620   1.363
  107SOL    HW1  773   0.082   1.621   1.270
  107SOL    HW2  774   0.192   1.583   1.366
  108SOL     OW  775   0.342   1.117   0.484
  108SOL    HW1  776   0.333   1.196   0.431
  108SOL    HW2  777   0.351   1.046   0.420
  109SOL     OW  778   0.553   0.529   0.858
  109SOL    HW1  779   0.565   0.589   0.785
  109SOL    HW2  780   0.619   0.556   0.922
  110SOL     OW  781   1.245   1.347   0.396
  110SOL    HW1  782   1.301   1.420   0.426
  110SOL    HW2  783   1.157   1.370   0.427
  111SOL     OW  784   1.290   1.461   1.148
  111SOL    HW1  785   1.345   1.465   1.226
  111SOL    HW2  786   1.234   1.384   1.162
  112SOL     OW  787   1.575   0.624   0.486
  112SOL    HW1  788   1.526   0.667   0.555
  112SOL    HW2  789   1.605   0.695   0.430
  113SOL     OW  790   0.353   1.521   1.308
  113SOL    HW1  791   0.342   1.476   1.224
  113SOL    HW2  792   0.447   1.538   1.314
  114SOL     OW  793   0.421   0.739   1.605
  114SOL    HW1  794   0.480   0.786   1.546
  114SOL    HW2  795   0.466   0.656   1.622
  115SOL     OW  796   1.609   0.780   1.686
  115SOL    HW1  797   1.523   0.822   1.681
  115SOL    HW2  798   1.661   0.823   1.618
  116SOL     OW  799   1.060   0.121   1.790
  116SOL    HW1  800   1.088   0.201   1.745
  116SOL    HW2  801   1.063   0.054   1.723
  117SOL     OW  802   0.483   0.064   1.736
  117SOL    HW1  803   0.417   5.298   1.714
  117SOL    HW2  804   0.433   0.145   1.748
  118SOL     OW  805   0.587   0.875   1.034
  118SOL    HW1  806   0.621   0.965   1.034
  118SOL    HW2  807   0.529   0.872   1.111
  119SOL     OW  808   1.347   0.859   1.021
  119SOL    HW1  809   1.261   0.844   0.982
  119SOL    HW2  810   1.393   0.776   1.012
  120SOL     OW  811   1.196   0.525   0.268
  120SOL    HW1  812   1.209   0.448   0.323
  120SOL    HW2  813   1.155   0.589   0.326
  121SOL     OW  814   0.301   0.202   1.247
  121SOL    HW1  815   0.260   0.235   1.327
  121SOL    HW2  816   0.292   0.107   1.253
  122SOL     OW  817   0.054   1.311   1.276
  122SOL    HW1  818   0.086   1.255   1.347
  122SOL    HW2  819   5.282   1.361   1.316
  123SOL     OW  820   0.723   0.631   1.055
  123SOL    HW1  821   0.798   0.618   0.998
  123SOL    HW2  822   0.693   0.720   1.036
  124SOL     OW  823   1.739   0.959   1.859
  124SOL    HW1  824   1.696   0.892   1.806
  124SOL    HW2  825   1.678   0.977   1.930
  125SOL     OW  826   0.322   0.066   0.662
  125SOL    HW1  827   0.299   0.159   0.663
  125SOL    HW2  828   0.345   0.046   0.753
  126SOL     OW  829   1.633   0.387   0.361
  126SOL    HW1  830   1.654   0.316   0.422
  126SOL    HW2  831   1.603   0.459   0.417
  127SOL     OW  832   1.030   0.759   0.958
  127SOL    HW1  833   1.021   0.776   1.052
  127SOL    HW2  834   1.002   0.668   0.947
  128SOL     OW  835   0.981   1.566   1.722
  128SOL    HW1  836   0.965   1.610   1.638
  128SOL    HW2  837   1.025   1.484   1.698
  129SOL     OW  838   1.850   1.501   1.604
  129SOL    HW1  839   1.873   1.528   1.515
  129SOL    HW2  840   1.931   1.515   1.654
  130SOL     OW  841   0.356   0.918   1.807
  130SOL    HW1  842   0.435   0.938   1.856
  130SOL    HW2  843   0.384   0.852   1.743
  131SOL     OW  844   1.513   0.319   0.124
  131SOL    HW1  845   1.486   0.228   0.133
  131SOL    HW2  846   1.557   0.339   0.207
  132SOL     OW  847   1.298   0.818   0.021
  132SOL    HW1  848   1.334   0.731   0.035
  132SOL    HW2  849   1.365   0.863   8.048
  133SOL     OW  850   1.070   1.339   0.857
  133SOL    HW1  851   1.074   1.267   0.794
  133SOL    HW2  852   1.127   1.406   0.821
  134SOL     OW  853   0.310   0.807   0.948
  134SOL    HW1  854   0.404   0.826   0.946
  134SOL    HW2  855   0.305   0.716   0.979
  135SOL     OW  856   0.334   0.529   1.016
  135SOL    HW1  857   0.297   0.442   1.003
  135SOL    HW2  858   0.410   0.531   0.957
  136SOL     OW  859   1.136   0.376   1.693
  136SOL    HW1  860   1.087   0.431   1.755
  136SOL    HW2  861   1.222   0.417   1.687
  137SOL     OW  862   1.130   0.221   1.470
  137SOL    HW1  863   1.133   0.281   1.544
  137SOL    HW2  864   1.186   0.262   1.404
  138SOL     OW  865   0.017   1.313   0.199
  138SOL    HW1  866   5.252   1.286   0.134
  138SOL    HW2  867   0.017   1.242   0.264
  139SOL     OW  868   0.099   1.783   0.953
  139SOL    HW1  869   0.061   1.718   0.895
  139SOL    HW2  870   0.187   1.800   0.918
  140SOL     OW  871   0.503   1.573   0.908
  140SOL    HW1  872   0.570   1.639   0.927
  140SOL    HW2  873   0.546   1.514   0.846
  141SOL     OW  874   0.973   0.788   1.223
  141SOL    HW1  875   1.033   0.769   1.296
  141SOL    HW2  876   0.890   0.748   1.249
  142SOL     OW  877   0.035   0.582   1.126
  142SOL    HW1  878   0.113   0.548   1.082
  142SOL    HW2  879   0.033   0.535   1.210
  143SOL     OW  880   0.160   0.524   1.727
  143SOL    HW1  881   0.246   0.497   1.694
  143SOL    HW2  882   0.137   0.601   1.675
  144SOL     OW  883   1.381   0.933   1.657
  144SOL    HW1  884   1.402   1.026   1.653
  144SOL    HW2  885   1.377   0.906   1.565
  145SOL     OW  886   0.821   0.571   0.374
  145SOL    HW1  887   0.830   0.499   0.311
  145SOL    HW2  888   0.744   0.619   0.344
  146SOL     OW  889   1.640   0.601   1.180
  146SOL    HW1  890   1.630   0.542   1.254
  146SOL    HW2  891   1.728   0.583   1.147
  147SOL     OW  892   0.254   1.554   1.732
  147SOL    HW1  893   0.235   1.618   1.801
  147SOL    HW2  894   0.252   1.469   1.777
  148SOL     OW  895   0.713   0.448   1.254
  148SOL    HW1  896   0.656   0.376   1.225
  148SOL    HW2  897   0.706   0.513   1.184
  149SOL     OW  898   0.923   1.678   1.471
  149SOL    HW1  899   0.898   1.639   1.388
  149SOL    HW2  900   0.916   1.772   1.456
  150SOL     OW  901   0.473   0.491   0.176
  150SOL    HW1  902   0.541   0.554   0.199
  150SOL    HW2  903   0.391   0.539   0.191
  151SOL     OW  904   0.146   1.137   1.469
  151SOL    HW1  905   0.142   1.092   1.553
  151SOL    HW2  906   0.154   1.067   1.405
  152SOL     OW  907   1.320   1.043   1.219
  152SOL    HW1  908   1.341   0.980   1.151
  152SOL    HW2  909   1.254   1.100   1.180
  153SOL     OW  910   1.305   0.846   0.309
  153SOL    HW1  911   1.229   0.813   0.358
  153SOL    HW2  912   1.283   0.831   0.217
  154SOL     OW  913   1.779   1.737   1.157
  154SOL    HW1  914   1.839   1.763   1.087
  154SOL    HW2  915   1.752   1.648   1.134
  155SOL     OW  916   1.240   1.733   1.106
  155SOL    HW1  917   1.323   1.756   1.064
  155SOL    HW2  918   1.249   1.640   1.126
  156SOL     OW  919   0.081   1.203   1.026
  156SOL    HW1  920   0.066   1.233   1.116
  156SOL    HW2  921   5.293   1.197   0.988
  157SOL     OW  922   0.679   1.671   1.738
  157SOL    HW1  923   0.618   1.745   1.729
  157SOL    HW2  924   0.747   1.687   1.672
  158SOL     OW  925   0.893   0.084   0.138
  158SOL    HW1  926   0.948   0.069   0.062
  158SOL    HW2  927   0.898   0.002   0.188
  159SOL     OW  928   1.709   0.155   0.499
  159SOL    HW1  929   1.783   0.134   0.442
  159SOL    HW2  930   1.706   0.082   0.562
  160SOL     OW  931   1.392   1.568   0.493
  160SOL    HW1  932   1.453   1.602   0.428
  160SOL    HW2  933   1.342   1.645   0.521
  161SOL     OW  934   0.150   1.797   1.843
  161SOL    HW1  935   0.096   1.735   1.891
  161SOL    HW2  936   0.202   1.841   1.910
  162SOL     OW  937   1.277   0.929   0.672
  162SOL    HW1  938   1.351   0.869   0.682
  162SOL    HW2  939   1.311   1.000   0.618
  163SOL     OW  940   0.805   1.276   1.424
  163SOL    HW1  941   0.776   1.318   1.505
  163SOL    HW2  942   0.734   1.293   1.362
  164SOL     OW  943   0.678   1.625   0.155
  164SOL    HW1  944   0.685   1.635   0.060
  164SOL    HW2  945   0.617   1.552   0.167
  165SOL     OW  946   1.619   1.728   1.392
  165SOL    HW1  947   1.673   1.732   1.313
  165SOL    HW2  948   1.605   1.819   1.417
  166SOL     OW  949   1.848   0.147   0.955
  166SOL    HW1  950   1.836   0.053   0.967
  166SOL    HW2  951   1.763   0.178   0.922
  167SOL     OW  952   0.270   0.330   0.717
  167SOL    HW1  953   0.182   0.365   0.706
  167SOL    HW2  954   0.279   0.316   0.811
  168SOL     OW  955   1.164   1.577   0.051
  168SOL    HW1  956   1.171   1.484   0.076
  168SOL    HW2  957   1.176   1.577   8.036
  169SOL     OW  958   0.824   1.007   1.375
  169SOL    HW1  959   0.867   1.000   1.290
  169SOL    HW2  960   0.820   1.101   1.393
  170SOL     OW  961   0.921   0.912   0.299
  170SOL    HW1  962   0.973   0.935   0.222
  170SOL    HW2  963   0.971   0.843   0.343
  171SOL     OW  964   1.508   1.620   0.064
  171SOL    HW1  965   1.413   1.622   0.051
  171SOL    HW2  966   1.544   1.629   8.055
  172SOL     OW  967   0.366   1.305   1.494
  172SOL    HW1  968   0.359   1.378   1.433
  172SOL    HW2  969   0.291   1.249   1.474
  173SOL     OW  970   1.608   1.284   1.280
  173SOL    HW1  971   1.667   1.268   1.353
  173SOL    HW2  972   1.547   1.351   1.312
  174SOL     OW  973   1.061   1.111   0.711
  174SOL    HW1  974   0.988   1.060   0.748
  174SOL    HW2  975   1.124   1.045   0.684
  175SOL     OW  976   1.017   0.246   0.973
  175SOL    HW1  977   0.997   0.201   0.890
  175SOL    HW2  978   1.011   0.178   1.039
  176SOL     OW  979   0.606   1.484   0.475
  176SOL    HW1  980   0.651   1.435   0.407
  176SOL    HW2  981   0.535   1.530   0.429
  177SOL     OW  982   1.730   0.384   1.377
  177SOL    HW1  983   1.802   0.448   1.376
  177SOL    HW2  984   1.760   0.315   1.318
  178SOL     OW  985   0.274   1.324   0.299
  178SOL    HW1  986   0.188   1.328   0.256
  178SOL    HW2  987   0.262   1.374   0.380
  179SOL     OW  988   0.121   1.017   1.715
  179SOL    HW1  989   0.050   0.983   1.770
  179SOL    HW2  990   0.201   0.987   1.757
  180SOL     OW  991   0.680   0.224   1.496
  180SOL    HW1  992   0.762   0.209   1.449
  180SOL    HW2  993   0.707   0.267   1.577
  181SOL     OW  994   0.078   0.355   8.064
  181SOL    HW1  995   0.011   0.315   0.040
  181SOL    HW2  996   0.049   0.446   8.054
  182SOL     OW  997   1.425   0.857   1.397
  182SOL    HW1  998   1.375   0.918   1.343
  182SOL    HW2  999   1.514   0.860   1.361
  183SOL     OW 1000   0.084   0.149   0.277
  183SOL    HW1 1001   0.084   0.245   0.280
  183SOL    HW2 1002   0.174   0.126   0.255
  184SOL     OW 1003   1.183   1.310   0.121
  184SOL    HW1 1004   1.087   1.306   0.116
  184SOL    HW2 1005   1.202   1.311   0.215
  185SOL     OW 1006   0.621   0.832   1.437
  185SOL    HW1 1007   0.678   0.908   1.422
  185SOL    HW2 1008   0.681   0.758   1.443
  186SOL     OW 1009   1.483   1.784   0.983
  186SOL    HW1 1010   1.505   1.850   0.917
  186SOL    HW2 1011   1.567   1.757   1.019
  187SOL     OW 1012   0.712   0.573   1.699
  187SOL    HW1 1013   0.758   0.635   1.756
  187SOL    HW2 1014   0.737   0.487   1.732
  188SOL     OW 1015   1.474   1.194   1.628
  188SOL    HW1 1016   1.462   1.209   1.722
  188SOL    HW2 1017   1.566   1.213   1.612
  189SOL     OW 1018   0.370   1.746   1.566
  189SOL    HW1 1019   0.288   1.792   1.547
  189SOL    HW2 1020   0.343   1.665   1.609
  190SOL     OW 1021   1.664   0.880   1.255
  190SOL    HW1 1022   1.660   0.794   1.211
  190SOL    HW2 1023   1.654   0.943   1.184
  191SOL     OW 1024   1.218   0.328   0.471
  191SOL    HW1 1025   1.276   0.252   0.459
  191SOL    HW2 1026   1.256   0.375   0.546
  192SOL     OW 1027   0.583   0.733   0.672
  192SOL    HW1 1028   0.624   0.819   0.660
  192SOL    HW2 1029   0.514   0.729   0.605
  193SOL     OW 1030   1.763   0.362   1.650
  193SOL    HW1 1031   1.746   0.378   1.557
  193SOL    HW2 1032   1.690   0.308   1.678
  194SOL     OW 1033   1.748   0.933   1.511
  194SOL    HW1 1034   1.738   1.028   1.523
  194SOL    HW2 1035   1.730   0.920   1.418
  195SOL     OW 1036   0.904   1.367   0.053
  195SOL    HW1 1037   0.844   1.354   0.127
  195SOL    HW2 1038   0.875   1.448   0.012
  196SOL     OW 1039   0.667   1.789   0.936
  196SOL    HW1 1040   0.648   1.880   0.916
  196SOL    HW2 1041   0.762   1.782   0.931
  197SOL     OW 1042   0.870   0.970   0.854
  197SOL    HW1 1043   0.920   0.898   0.891
  197SOL    HW2 1044   0.832   1.015   0.929
  198SOL     OW 1045   1.076   0.967   0.083
  198SOL    HW1 1046   1.070   1.038   0.019
  198SOL    HW2 1047   1.154   0.918   0.057
  199SOL     OW 1048   1.847   1.553   0.842
  199SOL    HW1 1049   1.767   1.541   0.790
  199SOL    HW2 1050   1.839   1.489   0.913
  200SOL     OW 1051   0.230   1.302   1.863
  200SOL    HW1 1052   0.163   1.239   1.836
  200SOL    HW2 1053   0.217   1.312   1.957
  201SOL     OW 1054   0.109   1.238   0.663
  201SOL    HW1 1055   0.105   1.192   0.747
  201SOL    HW2 1056   0.179   1.194   0.615
  202SOL     OW 1057   0.685   1.407   1.632
  202SOL    HW1 1058   0.605   1.366   1.663
  202SOL    HW2 1059   0.682   1.496   1.668
  203SOL     OW 1060   1.805   0.172   1.228
  203SOL    HW1 1061   1.767   0.085   1.224
  203SOL    HW2 1062   1.834   0.190   1.138
  204SOL     OW 1063   0.431   0.442   0.522
  204SOL    HW1 1064   0.469   0.369   0.474
  204SOL    HW2 1065   0.385   0.403   0.596
  205SOL     OW 1066   1.697   1.486   1.091
  205SOL    HW1 1067   1.618   1.466   1.042
  205SOL    HW2 1068   1.702   1.417   1.157
  206SOL     OW 1069   0.343   0.568   1.289
  206SOL    HW1 1070   0.398   0.507   1.339
  206SOL    HW2 1071   0.353   0.539   1.198
  207SOL     OW 1072   0.833   1.578   0.675
  207SOL    HW1 1073   0.812   1.641   0.607
  207SOL    HW2 1074   0.758   1.518   0.677
  208SOL     OW 1075   1.426   0.222   1.116
  208SOL    HW1 1076   1.460   0.145   1.162
  208SOL    HW2 1077   1.377   0.270   1.183
  209SOL     OW 1078   1.000   0.017   1.134
  209SOL    HW1 1079   0.950   5.252   1.087
  209SOL    HW2 1080   1.085   5.275   1.150
  210SOL     OW 1081   0.777   1.326   0.309
  210SOL    HW1 1082   0.749   1.237   0.329
  210SOL    HW2 1083   0.855   1.339   0.363
  211SOL     OW 1084   0.625   1.555   1.290
  211SOL    HW1 1085   0.624   1.638   1.339
  211SOL    HW2 1086   0.712   1.552   1.251
  212SOL     OW 1087   1.403   0.058   0.164
  212SOL    HW1 1088   1.386   0.031   0.074
  212SOL    HW2 1089   1.319   0.091   0.196
  213SOL     OW 1090   1.310   0.470   0.687
  213SOL    HW1 1091   1.254   0.548   0.688
  213SOL    HW2 1092   1.296   0.430   0.773
  214SOL     OW 1093   1.596   0.214   0.886
  214SOL    HW1 1094   1.532   0.227   0.957
  214SOL    HW2 1095   1.589   0.293   0.833
  215SOL     OW 1096   0.051   1.064   0.334
  215SOL    HW1 1097   0.137   1.041   0.300
  215SOL    HW2 1098   5.297   0.987   0.316
  216SOL     OW 1099   0.887   1.661   0.345
  216SOL    HW1 1100   0.816   1.647   0.282
  216SOL    HW2 1101   0.857   1.735   0.398
  217SOL     OW 1102   0.230   0.630   1.984
  217SOL    HW1 1103   0.162   0.594   2.041
  217SOL    HW2 1104   0.202   0.606   1.896
  218SOL     OW 1105   0.234   0.283   2.851
  218SOL    HW1 1106   0.252   0.242   2.936
  218SOL    HW2 1107   0.152   0.241   2.822
  219SOL     OW 1108   5.297   0.407   2.532
  219SOL    HW1 1109   5.204   0.432   2.532
  219SOL    HW2 1110   5.298   0.318   2.497
  220SOL     OW 1111   0.580   1.295   3.056
  220SOL    HW1 1112   0.499   1.300   3.006
  220SOL    HW2 1113   0.595   1.384   3.088
  221SOL     OW 1114   1.571   1.514   2.570
  221SOL    HW1 1115   1.527   1.491   2.652
  221SOL    HW2 1116   1.500   1.518   2.506
  222SOL     OW 1117   1.134   0.698   2.558
  222SOL    HW1 1118   1.181   0.781   2.545
  222SOL    HW2 1119   1.086   0.710   2.639
  223SOL     OW 1120   1.775   0.600   2.087
  223SOL    HW1 1121   1.750   0.594   1.995
  223SOL    HW2 1122   1.736   0.522   2.127
  224SOL     OW 1123   0.746   1.135   2.907
  224SOL    HW1 1124   0.684   1.173   2.970
  224SOL    HW2 1125   0.785   1.211   2.863
  225SOL     OW 1126   0.873   0.768   3.686
  225SOL    HW1 1127   0.867   0.839   3.751
  225SOL    HW2 1128   0.897   0.812   3.604
  226SOL     OW 1129   0.685   0.997   2.506
  226SOL    HW1 1130   0.752   0.988   2.574
  226SOL    HW2 1131   0.618   1.053   2.545
  227SOL     OW 1132   0.713   1.149   3.682
  227SOL    HW1 1133   0.761   1.226   3.712
  227SOL    HW2 1134   0.634   1.185   3.641
  228SOL     OW 1135   0.360   1.402   2.923
  228SOL    HW1 1136   0.269   1.405   2.893
  228SOL    HW2 1137   0.407   1.463   2.867
  229SOL     OW 1138   1.459   1.502   3.223
  229SOL    HW1 1139   1.513   1.580   3.232
  229SOL    HW2 1140   1.391   1.513   3.289
  230SOL     OW 1141   0.457   0.396   3.335
  230SOL    HW1 1142   0.537   0.344   3.339
  230SOL    HW2 1143   0.387   0.334   3.353
  231SOL     OW 1144   1.605   0.450   2.602
  231SOL    HW1 1145   1.530   0.467   2.545
  231SOL    HW2 1146   1.613   0.530   2.654
  232SOL     OW 1147   0.241   1.712   2.338
  232SOL    HW1 1148   0.266   1.785   2.396
  232SOL    HW2 1149   0.305   1.714   2.267
  233SOL     OW 1150   1.138   1.343   3.556
  233SOL    HW1 1151   1.179   1.336   3.642
  233SOL    HW2 1152   1.086   1.263   3.548
  234SOL     OW 1153   0.216   1.450   2.407
  234SOL    HW1 1154   0.226   1.543   2.389
  234SOL    HW2 1155   0.144   1.445   2.470
  235SOL     OW 1156   0.255   1.075   2.733
  235SOL    HW1 1157   0.266   0.987   2.769
  235SOL    HW2 1158   0.201   1.121   2.797
  236SOL     OW 1159   0.606   1.790   3.294
  236SOL    HW1 1160   0.522   1.774   3.337
  236SOL    HW2 1161   0.628   1.880   3.317
  237SOL     OW 1162   0.575   0.987   2.002
  237SOL    HW1 1163   0.625   1.031   1.933
  237SOL    HW2 1164   0.616   1.017   2.084
  238SOL     OW 1165   1.587   0.140   3.316
  238SOL    HW1 1166   1.621   0.220   3.276
  238SOL    HW2 1167   1.575   0.161   3.408
  239SOL     OW 1168   0.122   0.632   2.438
  239SOL    HW1 1169   0.089   0.551   2.478
  239SOL    HW2 1170   0.097   0.701   2.499
  240SOL     OW 1171   1.844   1.754   2.193
  240SOL    HW1 1172   1.913   1.728   2.254
  240SOL    HW2 1173   1.863   1.846   2.173
  241SOL     OW 1174   0.039   1.600   1.998
  241SOL    HW1 1175   0.027   1.509   2.023
  241SOL    HW2 1176   5.275   1.648   2.050
  242SOL     OW 1177   1.690   0.919   2.508
  242SOL    HW1 1178   1.771   0.874   2.483
  242SOL    HW2 1179   1.667   0.970   2.430
  243SOL     OW 1180   1.650   1.103   2.292
  243SOL    HW1 1181   1.736   1.104   2.251
  243SOL    HW2 1182   1.656   1.167   2.363
  244SOL     OW 1183   0.137   0.752   3.444
  244SOL    HW1 1184   0.232   0.764   3.440
  244SOL    HW2 1185   0.102   0.839   3.462
  245SOL     OW 1186   0.619   1.390   2.596
  245SOL    HW1 1187   0.572   1.307   2.605
  245SOL    HW2 1188   0.601   1.418   2.506
  246SOL     OW 1189   1.285   1.235   3.283
  246SOL    HW1 1190   1.315   1.167   3.223
  246SOL    HW2 1191   1.345   1.230   3.358
  247SOL     OW 1192   0.822   0.038   2.398
  247SOL    HW1 1193   0.850   0.125   2.369
  247SOL    HW2 1194   0.727   0.039   2.388
  248SOL     OW 1195   0.167   0.937   3.144
  248SOL    HW1 1196   0.258   0.907   3.138
  248SOL    HW2 1197   0.132   0.929   3.056
  249SOL     OW 1198   1.531   0.999   2.062
  249SOL    HW1 1199   1.462   0.942   2.095
  249SOL    HW2 1200   1.574   1.033   2.141
  250SOL     OW 1201   1.183   1.813   3.488
  250SOL    HW1 1202   1.189   1.875   3.415
  250SOL    HW2 1203   1.202   1.728   3.449
  251SOL     OW 1204   0.337   0.292   3.657
  251SOL    HW1 1205   0.394   0.342   3.716
  251SOL    HW2 1206   0.257   0.279   3.707
  252SOL     OW 1207   1.468   1.419   2.809
  252SOL    HW1 1208   1.401   1.435   2.875
  252SOL    HW2 1209   1.454   1.328   2.783
  253SOL     OW 1210   1.653   1.754   2.439
  253SOL    HW1 1211   1.636   1.720   2.351
  253SOL    HW2 1212   1.634   1.680   2.497
  254SOL     OW 1213   0.590   0.716   2.132
  254SOL    HW1 1214   0.598   0.800   2.086
  254SOL    HW2 1215   0.525   0.732   2.201
  255SOL     OW 1216   1.276   0.357   2.794
  255SOL    HW1 1217   1.186   0.327   2.807
  255SOL    HW2 1218   1.327   0.305   2.856
  256SOL     OW 1219   1.579   1.673   2.173
  256SOL    HW1 1220   1.671   1.699   2.164
  256SOL    HW2 1221   1.550   1.657   2.083
  257SOL     OW 1222   0.793   0.619   3.308
  257SOL    HW1 1223   0.765   0.597   3.396
  257SOL    HW2 1224   0.757   0.550   3.252
  258SOL     OW 1225   1.394   0.477   3.540
  258SOL    HW1 1226   1.398   0.521   3.625
  258SOL    HW2 1227   1.456   0.404   3.549
  259SOL     OW 1228   0.950   0.886   3.448
  259SOL    HW1 1229   1.005   0.818   3.409
  259SOL    HW2 1230   0.902   0.922   3.374
  260SOL     OW 1231   0.994   0.415   3.091
  260SOL    HW1 1232   0.905   0.432   3.120
  260SOL    HW2 1233   0.984   0.370   3.007
  261SOL     OW 1234   1.054   0.697   2.287
  261SOL    HW1 1235   1.072   0.691   2.381
  261SOL    HW2 1236   0.969   0.654   2.276
  262SOL     OW 1237   0.065   0.793   2.670
  262SOL    HW1 1238   0.145   0.796   2.723
  262SOL    HW2 1239   0.074   0.867   2.609
  263SOL     OW 1240   0.123   1.887   3.449
  263SOL    HW1 1241   0.131   1.865   3.542
  263SOL    HW2 1242   0.058   1.826   3.415
  264SOL     OW 1243   0.881   0.374   2.055
  264SOL    HW1 1244   0.916   0.431   1.986
  264SOL    HW2 1245   0.936   0.296   2.052
  265SOL     OW 1246   1.701   0.568   3.691
  265SOL    HW1 1247   1.668   0.643   3.641
  265SOL    HW2 1248   1.735   0.508   3.625
  266SOL     OW 1249   1.381   1.142   2.401
  266SOL    HW1 1250   1.460   1.131   2.349
  266SOL    HW2 1251   1.328   1.204   2.352
  267SOL     OW 1252   0.530   0.208   2.741
  267SOL    HW1 1253   0.547   0.223   2.834
  267SOL    HW2 1254   0.546   0.293   2.700
  268SOL     OW 1255   0.999   1.443   2.330
  268SOL    HW1 1256   0.969   1.518   2.280
  268SOL    HW2 1257   0.976   1.464   2.421
  269SOL     OW 1258   0.360   1.808   2.734
  269SOL    HW1 1259   0.400   1.722   2.747
  269SOL    HW2 1260   0.425   1.870   2.768
  270SOL     OW 1261   1.801   1.051   2.734
  270SOL    HW1 1262   1.750   1.032   2.656
  270SOL    HW2 1263   1.737   1.058   2.805
  271SOL     OW 1264   1.227   1.540   3.375
  271SOL    HW1 1265   1.215   1.468   3.436
  271SOL    HW2 1266   1.159   1.528   3.309
  272SOL     OW 1267   0.312   0.951   2.114
  272SOL    HW1 1268   0.393   0.975   2.069
  272SOL    HW2 1269   0.292   0.864   2.081
  273SOL     OW 1270   1.482   0.750   2.584
  273SOL    HW1 1271   1.478   0.712   2.672
  273SOL    HW2 1272   1.560   0.806   2.586
  274SOL     OW 1273   0.469   1.268   3.600
  274SOL    HW1 1274   0.442   1.273   3.508
  274SOL    HW2 1275   0.387   1.267   3.649
  275SOL     OW 1276   1.125   1.778   2.090
  275SOL    HW1 1277   1.049   1.738   2.134
  275SOL    HW2 1278   1.149   1.715   2.023
  276SOL     OW 1279   0.197   0.282   3.361
  276SOL    HW1 1280   0.163   0.371   3.346
  276SOL    HW2 1281   0.212   0.277   3.455
  277SOL     OW 1282   1.628   1.382   1.953
  277SOL    HW1 1283   1.587   1.467   1.938
  277SOL    HW2 1284   1.560   1.318   1.931
  278SOL     OW 1285   0.471   1.735   2.179
  278SOL    HW1 1286   0.517   1.791   2.241
  278SOL    HW2 1287   0.541   1.701   2.122
  279SOL     OW 1288   1.409   0.105   2.294
  279SOL    HW1 1289   1.402   0.078   2.202
  279SOL    HW2 1290   1.503   0.120   2.307
  280SOL     OW 1291   0.277   1.800   3.064
  280SOL    HW1 1292   0.306   1.717   3.102
  280SOL    HW2 1293   0.220   1.774   2.992
  281SOL     OW 1294   0.941   1.700   2.758
  281SOL    HW1 1295   1.021   1.651   2.780
  281SOL    HW2 1296   0.900   1.649   2.689
  282SOL     OW 1297   0.384   0.695   2.339
  282SOL    HW1 1298   0.414   0.604   2.349
  282SOL    HW2 1299   0.291   0.692   2.361
  283SOL     OW 1300   1.532   0.228   3.582
  283SOL    HW1 1301   1.541   0.243   3.676
  283SOL    HW2 1302   1.455   0.172   3.574
  284SOL     OW 1303   0.622   0.130   1.969
  284SOL    HW1 1304   0.674   0.056   2.001
  284SOL    HW2 1305   0.573   0.095   1.895
  285SOL     OW 1306   0.775   0.312   3.631
  285SOL    HW1 1307   0.840   0.241   3.630
  285SOL    HW2 1308   0.731   0.303   3.715
  286SOL     OW 1309   0.877   1.524   3.056
  286SOL    HW1 1310   0.859   1.485   2.970
  286SOL    HW2 1311   0.947   1.468   3.092
  287SOL     OW 1312   1.339   0.590   3.295
  287SOL    HW1 1313   1.370   0.559   3.380
  287SOL    HW2 1314   1.375   0.677   3.286
  288SOL     OW 1315   0.819   1.387   2.808
  288SOL    HW1 1316   0.904   1.377   2.766
  288SOL    HW2 1317   0.757   1.395   2.736
  289SOL     OW 1318   0.929   0.512   2.764
  289SOL    HW1 1319   0.903   0.504   2.672
  289SOL    HW2 1320   0.956   0.424   2.789
  290SOL     OW 1321   0.551   0.058   2.366
  290SOL    HW1 1322   0.473   0.058   2.422
  290SOL    HW2 1323   0.535   0.126   2.301
  291SOL     OW 1324   1.428   1.201   1.901
  291SOL    HW1 1325   1.457   1.126   1.952
  291SOL    HW2 1326   1.343   1.223   1.938
  292SOL     OW 1327   0.323   0.073   2.047
  292SOL    HW1 1328   0.392   0.138   2.054
  292SOL    HW2 1329   0.369   5.290   2.034
  293SOL     OW 1330   0.942   0.273   2.324
  293SOL    HW1 1331   0.915   0.304   2.238
  293SOL    HW2 1332   1.038   0.281   2.324
  294SOL     OW 1333   1.081   0.686   3.319
  294SOL    HW1 1334   1.016   0.616   3.322
  294SOL    HW2 1335   1.165   0.639   3.313
  295SOL     OW 1336   1.219   1.573   2.657
  295SOL    HW1 1337   1.233   1.638   2.588
  295SOL    HW2 1338   1.289   1.590   2.720
  296SOL     OW 1339   0.471   1.154   2.586
  296SOL    HW1 1340   0.403   1.131   2.649
  296SOL    HW2 1341   0.430   1.139   2.500
  297SOL     OW 1342   1.264   1.792   2.474
  297SOL    HW1 1343   1.312   1.854   2.420
  297SOL    HW2 1344   1.195   1.844   2.515
  298SOL     OW 1345   1.025   0.542   1.886
  298SOL    HW1 1346   0.982   0.626   1.869
  298SOL    HW2 1347   1.087   0.560   1.957
  299SOL     OW 1348   0.108   0.527   3.279
  299SOL    HW1 1349   0.186   0.549   3.228
  299SOL    HW2 1350   0.085   0.609   3.322
  300SOL     OW 1351   0.558   0.239   3.020
  300SOL    HW1 1352   0.592   0.155   3.050
  300SOL    HW2 1353   0.466   0.238   3.047
  301SOL     OW 1354   0.864   0.468   2.504
  301SOL    HW1 1355   0.818   0.522   2.440
  301SOL    HW2 1356   0.890   0.390   2.455
  302SOL     OW 1357   0.981   0.062   2.630
  302SOL    HW1 1358   0.918   0.064   2.558
  302SOL    HW2 1359   0.990   5.270   2.652
  303SOL     OW 1360   1.440   1.160   2.719
  303SOL    HW1 1361   1.368   1.097   2.718
  303SOL    HW2 1362   1.465   1.168   2.627
  304SOL     OW 1363   1.465   0.612   2.831
  304SOL    HW1 1364   1.411   0.533   2.834
  304SOL    HW2 1365   1.524   0.603   2.906
  305SOL     OW 1366   1.839   0.811   2.247
  305SOL    HW1 1367   1.898   0.762   2.305
  305SOL    HW2 1368   1.815   0.748   2.179
  306SOL     OW 1369   0.491   1.423   2.015
  306SOL    HW1 1370   0.416   1.396   2.067
  306SOL    HW2 1371   0.484   1.373   1.934
  307SOL     OW 1372   1.676   1.264   2.504
  307SOL    HW1 1373   1.771   1.263   2.519
  307SOL    HW2 1374   1.649   1.353   2.525
  308SOL     OW 1375   1.393   0.574   1.933
  308SOL    HW1 1376   1.332   0.552   2.003
  308SOL    HW2 1377   1.479   0.546   1.967
  309SOL     OW 1378   0.518   0.264   2.178
  309SOL    HW1 1379   0.573   0.221   2.113
  309SOL    HW2 1380   0.496   0.349   2.139
  310SOL     OW 1381   1.748   1.242   3.424
  310SOL    HW1 1382   1.836   1.204   3.418
  310SOL    HW2 1383   1.764   1.332   3.454
  311SOL     OW 1384   1.054   1.353   3.193
  311SOL    HW1 1385   0.979   1.322   3.243
  311SOL    HW2 1386   1.130   1.311   3.235
  312SOL     OW 1387   1.610   1.628   3.521
  312SOL    HW1 1388   1.601   1.662   3.431
  312SOL    HW2 1389   1.691   1.577   3.519
  313SOL     OW 1390   1.135   1.210   2.964
  313SOL    HW1 1391   1.075   1.248   3.028
  313SOL    HW2 1392   1.106   1.245   2.880
  314SOL     OW 1393   1.623   1.095   2.937
  314SOL    HW1 1394   1.616   1.158   3.009
  314SOL    HW2 1395   1.547   1.114   2.882
  315SOL     OW 1396   0.904   0.110   3.242
  315SOL    HW1 1397   0.936   0.076   3.158
  315SOL    HW2 1398   0.981   0.151   3.282
  316SOL     OW 1399   0.984   1.116   3.585
  316SOL    HW1 1400   0.893   1.132   3.608
  316SOL    HW2 1401   0.981   1.037   3.530
  317SOL     OW 1402   0.709   1.061   2.233
  317SOL    HW1 1403   0.696   1.042   2.326
  317SOL    HW2 1404   0.785   1.008   2.208
  318SOL     OW 1405   0.420   0.827   3.118
  318SOL    HW1 1406   0.490   0.834   3.183
  318SOL    HW2 1407   0.388   0.737   3.125
  319SOL     OW 1408   1.264   0.376   3.140
  319SOL    HW1 1409   1.297   0.453   3.185
  319SOL    HW2 1410   1.174   0.399   3.116
  320SOL     OW 1411   0.104   1.619   3.225
  320SOL    HW1 1412   0.083   1.625   3.132
  320SOL    HW2 1413   0.192   1.583   3.228
  321SOL     OW 1414   0.343   1.115   2.342
  321SOL    HW1 1415   0.340   1.194   2.289
  321SOL    HW2 1416   0.342   1.043   2.279
  322SOL     OW 1417   0.552   0.529   2.720
  322SOL    HW1 1418   0.565   0.589   2.646
  322SOL    HW2 1419   0.619   0.556   2.784
  323SOL     OW 1420   1.247   1.350   2.252
  323SOL    HW1 1421   1.303   1.421   2.284
  323SOL    HW2 1422   1.160   1.371   2.286
  324SOL     OW 1423   1.290   1.461   3.010
  324SOL    HW1 1424   1.345   1.466   3.088
  324SOL    HW2 1425   1.234   1.384   3.025
  325SOL     OW 1426   1.577   0.620   2.345
  325SOL    HW1 1427   1.528   0.669   2.411
  325SOL    HW2 1428   1.623   0.688   2.295
  326SOL     OW 1429   0.353   1.521   3.169
  326SOL    HW1 1430   0.343   1.476   3.086
  326SOL    HW2 1431   0.447   1.538   3.176
  327SOL     OW 1432   0.421   0.739   3.467
  327SOL    HW1 1433   0.480   0.786   3.408
  327SOL    HW2 1434   0.466   0.656   3.484
  328SOL     OW 1435   1.609   0.781   3.548
  328SOL    HW1 1436   1.523   0.822   3.542
  328SOL    HW2 1437   1.661   0.823   3.480
  329SOL     OW 1438   1.060   0.122   3.652
  329SOL    HW1 1439   1.088   0.201   3.607
  329SOL    HW2 1440   1.063   0.054   3.584
  330SOL     OW 1441   0.483   0.064   3.598
  330SOL    HW1 1442   0.417   5.298   3.576
  330SOL    HW2 1443   0.433   0.145   3.610
  331SOL     OW 1444   0.586   0.876   2.896
  331SOL    HW1 1445   0.622   0.965   2.897
  331SOL    HW2 1446   0.529   0.873   2.973
  332SOL     OW 1447   1.347   0.859   2.884
  332SOL    HW1 1448   1.261   0.843   2.844
  332SOL    HW2 1449   1.393   0.775   2.874
  333SOL     OW 1450   1.200   0.526   2.125
  333SOL    HW1 1451   1.208   0.447   2.178
  333SOL    HW2 1452   1.158   0.590   2.182
  334SOL     OW 1453   0.301   0.203   3.109
  334SOL    HW1 1454   0.260   0.237   3.189
  334SOL    HW2 1455   0.287   0.108   3.114
  335SOL     OW 1456   0.053   1.310   3.139
  335SOL    HW1 1457   0.085   1.254   3.209
  335SOL    HW2 1458   5.282   1.360   3.178
  336SOL     OW 1459   0.722   0.631   2.917
  336SOL    HW1 1460   0.798   0.618   2.860
  336SOL    HW2 1461   0.693   0.720   2.897
  337SOL     OW 1462   1.739   0.959   3.721
  337SOL    HW1 1463   1.696   0.892   3.668
  337SOL    HW2 1464   1.678   0.977   3.792
  338SOL     OW 1465   0.324   0.068   2.525
  338SOL    HW1 1466   0.298   0.160   2.525
  338SOL    HW2 1467   0.350   0.050   2.615
  339SOL     OW 1468   1.620   0.382   2.216
  339SOL    HW1 1469   1.648   0.314   2.277
  339SOL    HW2 1470   1.596   0.456   2.271
  340SOL     OW 1471   1.030   0.759   2.820
  340SOL    HW1 1472   1.021   0.776   2.914
  340SOL    HW2 1473   1.002   0.668   2.809
  341SOL     OW 1474   0.981   1.565   3.584
  341SOL    HW1 1475   0.965   1.610   3.500
  341SOL    HW2 1476   1.025   1.484   3.560
  342SOL     OW 1477   1.851   1.501   3.466
  342SOL    HW1 1478   1.873   1.528   3.377
  342SOL    HW2 1479   1.931   1.513   3.516
  343SOL     OW 1480   0.356   0.917   3.669
  343SOL    HW1 1481   0.436   0.938   3.718
  343SOL    HW2 1482   0.384   0.852   3.605
  344SOL     OW 1483   1.521   0.267   1.986
  344SOL    HW1 1484   1.454   0.209   2.022
  344SOL    HW2 1485   1.560   0.309   2.062
  345SOL     OW 1486   1.286   0.825   1.890
  345SOL    HW1 1487   1.329   0.739   1.895
  345SOL    HW2 1488   1.319   0.863   1.809
  346SOL     OW 1489   1.070   1.339   2.719
  346SOL    HW1 1490   1.075   1.267   2.656
  346SOL    HW2 1491   1.127   1.407   2.683
  347SOL     OW 1492   0.312   0.808   2.809
  347SOL    HW1 1493   0.406   0.826   2.808
  347SOL    HW2 1494   0.305   0.718   2.840
  348SOL     OW 1495   0.334   0.529   2.878
  348SOL    HW1 1496   0.296   0.442   2.864
  348SOL    HW2 1497   0.409   0.532   2.819
  349SOL     OW 1498   1.136   0.377   3.554
  349SOL    HW1 1499   1.087   0.431   3.617
  349SOL    HW2 1500   1.222   0.417   3.549
  350SOL     OW 1501   1.130   0.221   3.332
  350SOL    HW1 1502   1.133   0.281   3.406
  350SOL    HW2 1503   1.186   0.262   3.266
  351SOL     OW 1504   0.007   1.323   2.070
  351SOL    HW1 1505   5.237   1.309   2.006
  351SOL    HW2 1506   0.016   1.239   2.114
  352SOL     OW 1507   0.102   1.781   2.821
  352SOL    HW1 1508   0.064   1.717   2.761
  352SOL    HW2 1509   0.187   1.803   2.783
  353SOL     OW 1510   0.504   1.574   2.770
  353SOL    HW1 1511   0.570   1.640   2.789
  353SOL    HW2 1512   0.546   1.514   2.709
  354SOL     OW 1513   0.973   0.788   3.085
  354SOL    HW1 1514   1.033   0.769   3.158
  354SOL    HW2 1515   0.890   0.748   3.111
  355SOL     OW 1516   0.035   0.582   2.988
  355SOL    HW1 1517   0.113   0.549   2.943
  355SOL    HW2 1518   0.034   0.536   3.072
  356SOL     OW 1519   0.160   0.524   3.589
  356SOL    HW1 1520   0.246   0.497   3.557
  356SOL    HW2 1521   0.137   0.601   3.537
  357SOL     OW 1522   1.381   0.933   3.519
  357SOL    HW1 1523   1.402   1.026   3.515
  357SOL    HW2 1524   1.377   0.906   3.427
  358SOL     OW 1525   0.814   0.576   2.232
  358SOL    HW1 1526   0.823   0.503   2.171
  358SOL    HW2 1527   0.739   0.626   2.200
  359SOL     OW 1528   1.640   0.601   3.042
  359SOL    HW1 1529   1.630   0.542   3.116
  359SOL    HW2 1530   1.728   0.583   3.009
  360SOL     OW 1531   0.254   1.554   3.594
  360SOL    HW1 1532   0.235   1.618   3.663
  360SOL    HW2 1533   0.253   1.469   3.639
  361SOL     OW 1534   0.712   0.447   3.115
  361SOL    HW1 1535   0.656   0.375   3.086
  361SOL    HW2 1536   0.706   0.513   3.046
  362SOL     OW 1537   0.923   1.678   3.333
  362SOL    HW1 1538   0.898   1.639   3.249
  362SOL    HW2 1539   0.917   1.772   3.318
  363SOL     OW 1540   0.461   0.490   2.033
  363SOL    HW1 1541   0.525   0.556   2.061
  363SOL    HW2 1542   0.379   0.539   2.022
  364SOL     OW 1543   0.146   1.137   3.331
  364SOL    HW1 1544   0.142   1.092   3.415
  364SOL    HW2 1545   0.154   1.067   3.267
  365SOL     OW 1546   1.320   1.043   3.081
  365SOL    HW1 1547   1.341   0.980   3.013
  365SOL    HW2 1548   1.254   1.100   3.042
  366SOL     OW 1549   1.316   0.857   2.165
  366SOL    HW1 1550   1.242   0.824   2.217
  366SOL    HW2 1551   1.289   0.843   2.075
  367SOL     OW 1552   1.781   1.733   3.020
  367SOL    HW1 1553   1.840   1.761   2.949
  367SOL    HW2 1554   1.753   1.645   2.995
  368SOL     OW 1555   1.240   1.732   2.967
  368SOL    HW1 1556   1.322   1.757   2.926
  368SOL    HW2 1557   1.250   1.639   2.988
  369SOL     OW 1558   0.080   1.202   2.889
  369SOL    HW1 1559   0.066   1.232   2.979
  369SOL    HW2 1560   5.292   1.196   2.852
  370SOL     OW 1561   0.679   1.671   3.600
  370SOL    HW1 1562   0.618   1.745   3.591
  370SOL    HW2 1563   0.747   1.687   3.534
  371SOL     OW 1564   1.708   0.155   2.356
  371SOL    HW1 1565   1.784   0.136   2.301
  371SOL    HW2 1566   1.706   0.083   2.420
  372SOL     OW 1567   1.393   1.568   2.353
  372SOL    HW1 1568   1.451   1.602   2.285
  372SOL    HW2 1569   1.342   1.644   2.381
  373SOL     OW 1570   0.150   1.797   3.705
  373SOL    HW1 1571   0.096   1.735   3.753
  373SOL    HW2 1572   0.202   1.841   3.772
  374SOL     OW 1573   1.278   0.929   2.533
  374SOL    HW1 1574   1.352   0.869   2.543
  374SOL    HW2 1575   1.312   1.000   2.479
  375SOL     OW 1576   0.805   1.276   3.286
  375SOL    HW1 1577   0.777   1.318   3.367
  375SOL    HW2 1578   0.734   1.294   3.224
  376SOL     OW 1579   0.672   1.625   2.016
  376SOL    HW1 1580   0.684   1.640   1.923
  376SOL    HW2 1581   0.616   1.547   2.021
  377SOL     OW 1582   1.620   1.727   3.254
  377SOL    HW1 1583   1.673   1.732   3.174
  377SOL    HW2 1584   1.605   1.818   3.279
  378SOL     OW 1585   1.848   0.147   2.817
  378SOL    HW1 1586   1.836   0.053   2.829
  378SOL    HW2 1587   1.763   0.178   2.784
  379SOL     OW 1588   0.269   0.331   2.578
  379SOL    HW1 1589   0.181   0.366   2.568
  379SOL    HW2 1590   0.278   0.317   2.672
  380SOL     OW 1591   1.208   1.601   1.895
  380SOL    HW1 1592   1.197   1.510   1.921
  380SOL    HW2 1593   1.142   1.615   1.827
  381SOL     OW 1594   0.824   1.007   3.237
  381SOL    HW1 1595   0.867   1.000   3.152
  381SOL    HW2 1596   0.820   1.101   3.255
  382SOL     OW 1597   0.916   0.910   2.154
  382SOL    HW1 1598   0.976   0.943   2.087
  382SOL    HW2 1599   0.966   0.842   2.199
  383SOL     OW 1600   1.489   1.629   1.907
  383SOL    HW1 1601   1.395   1.619   1.892
  383SOL    HW2 1602   1.527   1.635   1.820
  384SOL     OW 1603   0.366   1.305   3.356
  384SOL    HW1 1604   0.359   1.378   3.295
  384SOL    HW2 1605   0.291   1.249   3.336
  385SOL     OW 1606   1.608   1.284   3.141
  385SOL    HW1 1607   1.667   1.268   3.215
  385SOL    HW2 1608   1.547   1.351   3.173
  386SOL     OW 1609   1.061   1.110   2.573
  386SOL    HW1 1610   0.989   1.060   2.609
  386SOL    HW2 1611   1.125   1.044   2.546
  387SOL     OW 1612   1.017   0.246   2.835
  387SOL    HW1 1613   0.998   0.201   2.752
  387SOL    HW2 1614   1.012   0.178   2.901
  388SOL     OW 1615   0.603   1.487   2.341
  388SOL    HW1 1616   0.653   1.438   2.276
  388SOL    HW2 1617   0.534   1.530   2.291
  389SOL     OW 1618   1.730   0.384   3.239
  389SOL    HW1 1619   1.802   0.448   3.238
  389SOL    HW2 1620   1.760   0.315   3.180
  390SOL     OW 1621   0.264   1.349   2.161
  390SOL    HW1 1622   0.171   1.348   2.136
  390SOL    HW2 1623   0.264   1.388   2.248
  391SOL     OW 1624   0.121   1.017   3.577
  391SOL    HW1 1625   0.050   0.983   3.633
  391SOL    HW2 1626   0.201   0.986   3.619
  392SOL     OW 1627   0.680   0.224   3.358
  392SOL    HW1 1628   0.762   0.209   3.311
  392SOL    HW2 1629   0.707   0.267   3.439
  393SOL     OW 1630   0.080   0.326   1.896
  393SOL    HW1 1631   5.285   0.315   1.900
  393SOL    HW2 1632   0.093   0.401   1.839
  394SOL     OW 1633   1.425   0.857   3.259
  394SOL    HW1 1634   1.375   0.918   3.205
  394SOL    HW2 1635   1.514   0.860   3.223
  395SOL     OW 1636   0.088   0.147   2.151
  395SOL    HW1 1637   0.082   0.239   2.128
  395SOL    HW2 1638   0.175   0.120   2.120
  396SOL     OW 1639   1.178   1.334   1.980
  396SOL    HW1 1640   1.087   1.305   1.981
  396SOL    HW2 1641   1.204   1.336   2.072
  397SOL     OW 1642   0.621   0.832   3.299
  397SOL    HW1 1643   0.678   0.908   3.284
  397SOL    HW2 1644   0.681   0.758   3.305
  398SOL     OW 1645   1.483   1.784   2.844
  398SOL    HW1 1646   1.504   1.850   2.779
  398SOL    HW2 1647   1.567   1.758   2.881
  399SOL     OW 1648   0.712   0.573   3.561
  399SOL    HW1 1649   0.758   0.635   3.618
  399SOL    HW2 1650   0.737   0.487   3.594
  400SOL     OW 1651   1.474   1.194   3.490
  400SOL    HW1 1652   1.462   1.209   3.584
  400SOL    HW2 1653   1.566   1.213   3.474
  401SOL     OW 1654   0.370   1.746   3.428
  401SOL    HW1 1655   0.288   1.792   3.409
  401SOL    HW2 1656   0.343   1.665   3.472
  402SOL     OW 1657   1.664   0.880   3.117
  402SOL    HW1 1658   1.661   0.794   3.073
  402SOL    HW2 1659   1.654   0.943   3.046
  403SOL     OW 1660   1.221   0.318   2.323
  403SOL    HW1 1661   1.283   0.245   2.319
  403SOL    HW2 1662   1.250   0.369   2.398
  404SOL     OW 1663   0.585   0.734   2.535
  404SOL    HW1 1664   0.626   0.820   2.519
  404SOL    HW2 1665   0.518   0.727   2.467
  405SOL     OW 1666   1.763   0.362   3.512
  405SOL    HW1 1667   1.746   0.378   3.419
  405SOL    HW2 1668   1.690   0.308   3.540
  406SOL     OW 1669   1.749   0.934   3.373
  406SOL    HW1 1670   1.738   1.028   3.385
  406SOL    HW2 1671   1.730   0.919   3.280
  407SOL     OW 1672   0.864   1.365   1.905
  407SOL    HW1 1673   0.826   1.394   1.988
  407SOL    HW2 1674   0.880   1.445   1.856
  408SOL     OW 1675   0.667   1.788   2.798
  408SOL    HW1 1676   0.648   1.880   2.779
  408SOL    HW2 1677   0.763   1.783   2.793
  409SOL     OW 1678   0.870   0.970   2.714
  409SOL    HW1 1679   0.920   0.898   2.752
  409SOL    HW2 1680   0.831   1.014   2.790
  410SOL     OW 1681   1.075   0.987   1.950
  410SOL    HW1 1682   1.055   1.040   1.873
  410SOL    HW2 1683   1.150   0.933   1.924
  411SOL     OW 1684   1.847   1.553   2.704
  411SOL    HW1 1685   1.768   1.541   2.651
  411SOL    HW2 1686   1.838   1.489   2.774
  412SOL     OW 1687   0.230   1.302   3.725
  412SOL    HW1 1688   0.162   1.240   3.698
  412SOL    HW2 1689   0.217   1.312   3.819
  413SOL     OW 1690   0.094   1.202   2.510
  413SOL    HW1 1691   0.115   1.181   2.601
  413SOL    HW2 1692   0.175   1.239   2.475
  414SOL     OW 1693   0.685   1.407   3.494
  414SOL    HW1 1694   0.605   1.366   3.526
  414SOL    HW2 1695   0.682   1.496   3.530
  415SOL     OW 1696   1.805   0.172   3.090
  415SOL    HW1 1697   1.767   0.084   3.086
  415SOL    HW2 1698   1.834   0.190   3.001
  416SOL     OW 1699   0.436   0.437   2.385
  416SOL    HW1 1700   0.469   0.363   2.334
  416SOL    HW2 1701   0.387   0.398   2.457
  417SOL     OW 1702   1.697   1.484   2.952
  417SOL    HW1 1703   1.618   1.465   2.902
  417SOL    HW2 1704   1.701   1.415   3.018
  418SOL     OW 1705   0.343   0.568   3.151
  418SOL    HW1 1706   0.398   0.507   3.201
  418SOL    HW2 1707   0.354   0.539   3.060
  419SOL     OW 1708   0.834   1.578   2.537
  419SOL    HW1 1709   0.812   1.644   2.471
  419SOL    HW2 1710   0.758   1.519   2.538
  420SOL     OW 1711   1.426   0.222   2.978
  420SOL    HW1 1712   1.461   0.146   3.024
  420SOL    HW2 1713   1.377   0.270   3.044
  421SOL     OW 1714   1.001   0.017   2.996
  421SOL    HW1 1715   0.950   5.251   2.950
  421SOL    HW2 1716   1.085   5.275   3.013
  422SOL     OW 1717   0.774   1.333   2.184
  422SOL    HW1 1718   0.748   1.242   2.191
  422SOL    HW2 1719   0.856   1.339   2.233
  423SOL     OW 1720   0.624   1.555   3.152
  423SOL    HW1 1721   0.624   1.637   3.201
  423SOL    HW2 1722   0.712   1.551   3.113
  424SOL     OW 1723   1.354   0.029   2.030
  424SOL    HW1 1724   1.406   5.293   1.958
  424SOL    HW2 1725   1.279   5.270   2.036
  425SOL     OW 1726   1.300   0.465   2.543
  425SOL    HW1 1727   1.247   0.545   2.546
  425SOL    HW2 1728   1.292   0.427   2.630
  426SOL     OW 1729   1.596   0.214   2.748
  426SOL    HW1 1730   1.532   0.227   2.818
  426SOL    HW2 1731   1.588   0.293   2.694
  427SOL     OW 1732   0.049   1.066   2.151
  427SOL    HW1 1733   0.138   1.030   2.143
  427SOL    HW2 1734   5.299   0.996   2.193
  428SOL     OW 1735   0.891   1.659   2.199
  428SOL    HW1 1736   0.815   1.645   2.141
  428SOL    HW2 1737   0.864   1.732   2.255
  429SOL     OW 1738   0.230   0.630   3.846
  429SOL    HW1 1739   0.162   0.594   3.903
  429SOL    HW2 1740   0.202   0.606   3.758
  430SOL     OW 1741   0.234   0.283   4.713
  430SOL    HW1 1742   0.252   0.242   4.798
  430SOL    HW2 1743   0.152   0.241   4.684
  431SOL     OW 1744   5.297   0.407   4.394
  431SOL    HW1 1745   5.204   0.432   4.394
  431SOL    HW2 1746   5.298   0.318   4.359
  432SOL     OW 1747   0.580   1.295   4.918
  432SOL    HW1 1748   0.499   1.300   4.868
  432SOL    HW2 1749   0.595   1.384   4.951
  433SOL     OW 1750   1.571   1.514   4.433
  433SOL    HW1 1751   1.527   1.491   4.515
  433SOL    HW2 1752   1.500   1.518   4.368
  434SOL     OW 1753   1.134   0.698   4.420
  434SOL    HW1 1754   1.181   0.781   4.407
  434SOL    HW2 1755   1.086   0.710   4.502
  435SOL     OW 1756   1.775   0.600   3.949
  435SOL    HW1 1757   1.750   0.594   3.857
  435SOL    HW2 1758   1.736   0.522   3.989
  436SOL     OW 1759   0.746   1.135   4.769
  436SOL    HW1 1760   0.684   1.173   4.832
  436SOL    HW2 1761   0.785   1.211   4.725
  437SOL     OW 1762   0.873   0.768   5.548
  437SOL    HW1 1763   0.868   0.839   5.613
  437SOL    HW2 1764   0.897   0.812   5.467
  438SOL     OW 1765   0.685   0.997   4.368
  438SOL    HW1 1766   0.752   0.988   4.436
  438SOL    HW2 1767   0.618   1.053   4.407
  439SOL     OW 1768   0.712   1.149   5.544
  439SOL    HW1 1769   0.761   1.226   5.574
  439SOL    HW2 1770   0.634   1.185   5.503
  440SOL     OW 1771   0.360   1.402   4.785
  440SOL    HW1 1772   0.269   1.405   4.755
  440SOL    HW2 1773   0.407   1.463   4.729
  441SOL     OW 1774   1.459   1.502   5.085
  441SOL    HW1 1775   1.513   1.580   5.094
  441SOL    HW2 1776   1.391   1.512   5.151
  442SOL     OW 1777   0.457   0.396   5.197
  442SOL    HW1 1778   0.537   0.344   5.201
  442SOL    HW2 1779   0.387   0.334   5.215
  443SOL     OW 1780   1.605   0.450   4.464
  443SOL    HW1 1781   1.530   0.467   4.407
  443SOL    HW2 1782   1.613   0.529   4.516
  444SOL     OW 1783   0.241   1.712   4.201
  444SOL    HW1 1784   0.266   1.785   4.258
  444SOL    HW2 1785   0.305   1.714   4.129
  445SOL     OW 1786   1.138   1.343   5.418
  445SOL    HW1 1787   1.180   1.336   5.504
  445SOL    HW2 1788   1.086   1.263   5.410
  446SOL     OW 1789   0.216   1.450   4.269
  446SOL    HW1 1790   0.227   1.543   4.251
  446SOL    HW2 1791   0.144   1.446   4.332
  447SOL     OW 1792   0.255   1.075   4.595
  447SOL    HW1 1793   0.266   0.987   4.631
  447SOL    HW2 1794   0.201   1.121   4.659
  448SOL     OW 1795   0.606   1.790   5.156
  448SOL    HW1 1796   0.522   1.774   5.199
  448SOL    HW2 1797   0.628   1.881   5.179
  449SOL     OW 1798   0.575   0.987   3.864
  449SOL    HW1 1799   0.625   1.031   3.795
  449SOL    HW2 1800   0.616   1.017   3.946
  450SOL     OW 1801   1.587   0.140   5.178
  450SOL    HW1 1802   1.621   0.220   5.138
  450SOL    HW2 1803   1.575   0.161   5.270
  451SOL     OW 1804   0.122   0.632   4.300
  451SOL    HW1 1805   0.089   0.551   4.340
  451SOL    HW2 1806   0.098   0.701   4.361
  452SOL     OW 1807   1.842   1.753   4.053
  452SOL    HW1 1808   1.911   1.727   4.114
  452SOL    HW2 1809   1.861   1.844   4.032
  453SOL     OW 1810   0.039   1.600   3.860
  453SOL    HW1 1811   0.027   1.509   3.885
  453SOL    HW2 1812   5.274   1.648   3.911
  454SOL     OW 1813   1.690   0.919   4.370
  454SOL    HW1 1814   1.771   0.874   4.346
  454SOL    HW2 1815   1.667   0.970   4.292
  455SOL     OW 1816   1.650   1.103   4.154
  455SOL    HW1 1817   1.736   1.104   4.113
  455SOL    HW2 1818   1.656   1.167   4.225
  456SOL     OW 1819   0.137   0.751   5.306
  456SOL    HW1 1820   0.232   0.764   5.302
  456SOL    HW2 1821   0.102   0.839   5.324
  457SOL     OW 1822   0.619   1.391   4.458
  457SOL    HW1 1823   0.572   1.307   4.467
  457SOL    HW2 1824   0.601   1.418   4.368
  458SOL     OW 1825   1.285   1.235   5.145
  458SOL    HW1 1826   1.315   1.167   5.085
  458SOL    HW2 1827   1.345   1.230   5.220
  459SOL     OW 1828   0.822   0.038   4.260
  459SOL    HW1 1829   0.850   0.125   4.231
  459SOL    HW2 1830   0.727   0.039   4.250
  460SOL     OW 1831   0.167   0.937   5.006
  460SOL    HW1 1832   0.258   0.907   5.000
  460SOL    HW2 1833   0.132   0.929   4.918
  461SOL     OW 1834   1.531   0.999   3.924
  461SOL    HW1 1835   1.462   0.942   3.957
  461SOL    HW2 1836   1.574   1.032   4.003
  462SOL     OW 1837   1.183   1.813   5.350
  462SOL    HW1 1838   1.189   1.874   5.277
  462SOL    HW2 1839   1.202   1.727   5.312
  463SOL     OW 1840   0.337   0.292   5.519
  463SOL    HW1 1841   0.394   0.342   5.578
  463SOL    HW2 1842   0.256   0.279   5.569
  464SOL     OW 1843   1.467   1.419   4.670
  464SOL    HW1 1844   1.401   1.435   4.737
  464SOL    HW2 1845   1.454   1.328   4.645
  465SOL     OW 1846   1.654   1.752   4.300
  465SOL    HW1 1847   1.634   1.718   4.212
  465SOL    HW2 1848   1.635   1.679   4.358
  466SOL     OW 1849   0.590   0.716   3.994
  466SOL    HW1 1850   0.598   0.800   3.948
  466SOL    HW2 1851   0.525   0.732   4.063
  467SOL     OW 1852   1.276   0.357   4.656
  467SOL    HW1 1853   1.186   0.327   4.669
  467SOL    HW2 1854   1.327   0.305   4.718
  468SOL     OW 1855   1.578   1.673   4.035
  468SOL    HW1 1856   1.669   1.698   4.026
  468SOL    HW2 1857   1.549   1.656   3.945
  469SOL     OW 1858   0.793   0.619   5.170
  469SOL    HW1 1859   0.765   0.597   5.258
  469SOL    HW2 1860   0.757   0.550   5.114
  470SOL     OW 1861   1.394   0.477   5.402
  470SOL    HW1 1862   1.398   0.521   5.487
  470SOL    HW2 1863   1.456   0.404   5.410
  471SOL     OW 1864   0.950   0.886   5.310
  471SOL    HW1 1865   1.005   0.818   5.271
  471SOL    HW2 1866   0.902   0.922   5.236
  472SOL     OW 1867   0.994   0.415   4.953
  472SOL    HW1 1868   0.905   0.432   4.982
  472SOL    HW2 1869   0.984   0.370   4.869
  473SOL     OW 1870   1.054   0.697   4.149
  473SOL    HW1 1871   1.072   0.691   4.243
  473SOL    HW2 1872   0.969   0.654   4.138
  474SOL     OW 1873   0.065   0.793   4.532
  474SOL    HW1 1874   0.145   0.796   4.585
  474SOL    HW2 1875   0.074   0.867   4.471
  475SOL     OW 1876   0.123   1.888   5.311
  475SOL    HW1 1877   0.131   1.865   5.404
  475SOL    HW2 1878   0.058   1.826   5.277
  476SOL     OW 1879   0.881   0.374   3.916
  476SOL    HW1 1880   0.916   0.431   3.848
  476SOL    HW2 1881   0.936   0.296   3.914
  477SOL     OW 1882   1.701   0.568   5.553
  477SOL    HW1 1883   1.668   0.643   5.503
  477SOL    HW2 1884   1.735   0.508   5.487
  478SOL     OW 1885   1.381   1.142   4.263
  478SOL    HW1 1886   1.460   1.131   4.211
  478SOL    HW2 1887   1.328   1.204   4.214
  479SOL     OW 1888   0.530   0.208   4.603
  479SOL    HW1 1889   0.547   0.223   4.696
  479SOL    HW2 1890   0.546   0.293   4.562
  480SOL     OW 1891   0.999   1.443   4.192
  480SOL    HW1 1892   0.969   1.518   4.142
  480SOL    HW2 1893   0.976   1.464   4.283
  481SOL     OW 1894   0.360   1.808   4.596
  481SOL    HW1 1895   0.400   1.722   4.609
  481SOL    HW2 1896   0.425   1.870   4.630
  482SOL     OW 1897   1.801   1.052   4.596
  482SOL    HW1 1898   1.749   1.031   4.518
  482SOL    HW2 1899   1.737   1.058   4.667
  483SOL     OW 1900   1.227   1.540   5.237
  483SOL    HW1 1901   1.215   1.468   5.298
  483SOL    HW2 1902   1.159   1.527   5.171
  484SOL     OW 1903   0.312   0.951   3.976
  484SOL    HW1 1904   0.393   0.976   3.931
  484SOL    HW2 1905   0.292   0.864   3.943
  485SOL     OW 1906   1.482   0.750   4.446
  485SOL    HW1 1907   1.478   0.712   4.534
  485SOL    HW2 1908   1.560   0.806   4.448
  486SOL     OW 1909   0.469   1.268   5.462
  486SOL    HW1 1910   0.442   1.273   5.370
  486SOL    HW2 1911   0.387   1.267   5.511
  487SOL     OW 1912   1.125   1.777   3.953
  487SOL    HW1 1913   1.049   1.738   3.996
  487SOL    HW2 1914   1.149   1.714   3.885
  488SOL     OW 1915   0.197   0.282   5.223
  488SOL    HW1 1916   0.163   0.371   5.208
  488SOL    HW2 1917   0.212   0.277   5.317
  489SOL     OW 1918   1.628   1.382   3.815
  489SOL    HW1 1919   1.587   1.467   3.800
  489SOL    HW2 1920   1.561   1.318   3.794
  490SOL     OW 1921   0.472   1.735   4.041
  490SOL    HW1 1922   0.517   1.791   4.103
  490SOL    HW2 1923   0.541   1.701   3.984
  491SOL     OW 1924   1.409   0.105   4.156
  491SOL    HW1 1925   1.402   0.078   4.064
  491SOL    HW2 1926   1.503   0.120   4.169
  492SOL     OW 1927   0.277   1.800   4.926
  492SOL    HW1 1928   0.306   1.717   4.964
  492SOL    HW2 1929   0.220   1.774   4.854
  493SOL     OW 1930   0.941   1.700   4.620
  493SOL    HW1 1931   1.021   1.651   4.641
  493SOL    HW2 1932   0.900   1.649   4.550
  494SOL     OW 1933   0.385   0.695   4.201
  494SOL    HW1 1934   0.414   0.604   4.211
  494SOL    HW2 1935   0.291   0.692   4.223
  495SOL     OW 1936   1.532   0.228   5.444
  495SOL    HW1 1937   1.541   0.243   5.538
  495SOL    HW2 1938   1.455   0.172   5.436
  496SOL     OW 1939   0.622   0.130   3.831
  496SOL    HW1 1940   0.674   0.056   3.862
  496SOL    HW2 1941   0.573   0.095   3.757
  497SOL     OW 1942   0.775   0.312   5.493
  497SOL    HW1 1943   0.840   0.241   5.493
  497SOL    HW2 1944   0.731   0.303   5.577
  498SOL     OW 1945   0.878   1.524   4.918
  498SOL    HW1 1946   0.859   1.485   4.832
  498SOL    HW2 1947   0.947   1.468   4.955
  499SOL     OW 1948   1.339   0.590   5.157
  499SOL    HW1 1949   1.370   0.559   5.242
  499SOL    HW2 1950   1.375   0.677   5.148
  500SOL     OW 1951   0.819   1.387   4.670
  500SOL    HW1 1952   0.904   1.377   4.628
  500SOL    HW2 1953   0.757   1.395   4.598
  501SOL     OW 1954   0.929   0.512   4.626
  501SOL    HW1 1955   0.903   0.504   4.534
  501SOL    HW2 1956   0.956   0.424   4.651
  502SOL     OW 1957   0.551   0.058   4.228
  502SOL    HW1 1958   0.473   0.058   4.284
  502SOL    HW2 1959   0.535   0.126   4.163
  503SOL     OW 1960   1.428   1.201   3.763
  503SOL    HW1 1961   1.457   1.126   3.814
  503SOL    HW2 1962   1.343   1.224   3.800
  504SOL     OW 1963   0.323   0.073   3.909
  504SOL    HW1 1964   0.393   0.138   3.917
  504SOL    HW2 1965   0.369   5.290   3.895
  505SOL     OW 1966   0.942   0.273   4.186
  505SOL    HW1 1967   0.915   0.303   4.100
  505SOL    HW2 1968   1.038   0.281   4.186
  506SOL     OW 1969   1.081   0.686   5.181
  506SOL    HW1 1970   1.016   0.616   5.184
  506SOL    HW2 1971   1.165   0.640   5.175
  507SOL     OW 1972   1.219   1.573   4.519
  507SOL    HW1 1973   1.233   1.638   4.450
  507SOL    HW2 1974   1.289   1.589   4.582
  508SOL     OW 1975   0.471   1.154   4.447
  508SOL    HW1 1976   0.403   1.131   4.511
  508SOL    HW2 1977   0.430   1.139   4.362
  509SOL     OW 1978   1.264   1.792   4.337
  509SOL    HW1 1979   1.312   1.854   4.282
  509SOL    HW2 1980   1.195   1.844   4.377
  510SOL     OW 1981   1.025   0.542   3.748
  510SOL    HW1 1982   0.982   0.626   3.731
  510SOL    HW2 1983   1.087   0.560   3.819
  511SOL     OW 1984   0.108   0.527   5.141
  511SOL    HW1 1985   0.186   0.549   5.090
  511SOL    HW2 1986   0.085   0.609   5.184
  512SOL     OW 1987   0.558   0.239   4.882
  512SOL    HW1 1988   0.592   0.155   4.912
  512SOL    HW2 1989   0.466   0.238   4.909
  513SOL     OW 1990   0.864   0.468   4.366
  513SOL    HW1 1991   0.818   0.522   4.302
  513SOL    HW2 1992   0.890   0.390   4.317
  514SOL     OW 1993   0.981   0.062   4.492
  514SOL    HW1 1994   0.918   0.064   4.420
  514SOL    HW2 1995   0.990   5.270   4.513
  515SOL     OW 1996   1.440   1.160   4.581
  515SOL    HW1 1997   1.368   1.097   4.581
  515SOL    HW2 1998   1.464   1.168   4.488
  516SOL     OW 1999   1.465   0.612   4.693
  516SOL    HW1 2000   1.411   0.533   4.696
  516SOL    HW2 2001   1.524   0.603   4.768
  517SOL     OW 2002   1.839   0.811   4.109
  517SOL    HW1 2003   1.898   0.762   4.167
  517SOL    HW2 2004   1.815   0.749   4.041
  518SOL     OW 2005   0.491   1.423   3.877
  518SOL    HW1 2006   0.416   1.396   3.929
  518SOL    HW2 2007   0.483   1.373   3.796
  519SOL     OW 2008   1.677   1.264   4.366
  519SOL    HW1 2009   1.771   1.264   4.381
  519SOL    HW2 2010   1.649   1.353   4.387
  520SOL     OW 2011   1.393   0.574   3.795
  520SOL    HW1 2012   1.332   0.552   3.866
  520SOL    HW2 2013   1.479   0.547   3.829
  521SOL     OW 2014   0.518   0.264   4.040
  521SOL    HW1 2015   0.573   0.221   3.975
  521SOL    HW2 2016   0.496   0.349   4.001
  522SOL     OW 2017   1.748   1.242   5.286
  522SOL    HW1 2018   1.836   1.204   5.280
  522SOL    HW2 2019   1.764   1.332   5.316
  523SOL     OW 2020   1.054   1.353   5.055
  523SOL    HW1 2021   0.979   1.322   5.105
  523SOL    HW2 2022   1.130   1.311   5.097
  524SOL     OW 2023   1.609   1.628   5.383
  524SOL    HW1 2024   1.601   1.662   5.293
  524SOL    HW2 2025   1.691   1.578   5.381
  525SOL     OW 2026   1.135   1.210   4.826
  525SOL    HW1 2027   1.075   1.248   4.890
  525SOL    HW2 2028   1.106   1.245   4.742
  526SOL     OW 2029   1.623   1.095   4.799
  526SOL    HW1 2030   1.616   1.158   4.871
  526SOL    HW2 2031   1.547   1.114   4.744
  527SOL     OW 2032   0.904   0.110   5.104
  527SOL    HW1 2033   0.936   0.077   5.020
  527SOL    HW2 2034   0.981   0.152   5.144
  528SOL     OW 2035   0.984   1.116   5.447
  528SOL    HW1 2036   0.893   1.132   5.470
  528SOL    HW2 2037   0.981   1.037   5.392
  529SOL     OW 2038   0.709   1.061   4.095
  529SOL    HW1 2039   0.696   1.042   4.188
  529SOL    HW2 2040   0.785   1.008   4.070
  530SOL     OW 2041   0.420   0.827   4.980
  530SOL    HW1 2042   0.490   0.834   5.045
  530SOL    HW2 2043   0.388   0.737   4.987
  531SOL     OW 2044   1.264   0.376   5.002
  531SOL    HW1 2045   1.297   0.453   5.047
  531SOL    HW2 2046   1.174   0.399   4.978
  532SOL     OW 2047   0.104   1.619   5.087
  532SOL    HW1 2048   0.083   1.624   4.993
  532SOL    HW2 2049   0.192   1.583   5.090
  533SOL     OW 2050   0.344   1.115   4.204
  533SOL    HW1 2051   0.340   1.194   4.151
  533SOL    HW2 2052   0.342   1.043   4.141
  534SOL     OW 2053   0.552   0.529   4.582
  534SOL    HW1 2054   0.565   0.589   4.508
  534SOL    HW2 2055   0.619   0.556   4.646
  535SOL     OW 2056   1.247   1.350   4.114
  535SOL    HW1 2057   1.303   1.421   4.146
  535SOL    HW2 2058   1.160   1.371   4.148
  536SOL     OW 2059   1.290   1.461   4.872
  536SOL    HW1 2060   1.345   1.466   4.950
  536SOL    HW2 2061   1.234   1.384   4.887
  537SOL     OW 2062   1.577   0.620   4.207
  537SOL    HW1 2063   1.528   0.669   4.273
  537SOL    HW2 2064   1.623   0.688   4.157
  538SOL     OW 2065   0.353   1.521   5.031
  538SOL    HW1 2066   0.343   1.476   4.948
  538SOL    HW2 2067   0.447   1.538   5.038
  539SOL     OW 2068   0.421   0.739   5.329
  539SOL    HW1 2069   0.480   0.786   5.270
  539SOL    HW2 2070   0.466   0.656   5.346
  540SOL     OW 2071   1.609   0.780   5.410
  540SOL    HW1 2072   1.523   0.822   5.405
  540SOL    HW2 2073   1.661   0.823   5.342
  541SOL     OW 2074   1.060   0.122   5.514
  541SOL    HW1 2075   1.088   0.202   5.469
  541SOL    HW2 2076   1.063   0.054   5.446
  542SOL     OW 2077   0.483   0.064   5.460
  542SOL    HW1 2078   0.417   5.298   5.438
  542SOL    HW2 2079   0.433   0.145   5.472
  543SOL     OW 2080   0.586   0.876   4.758
  543SOL    HW1 2081   0.622   0.965   4.759
  543SOL    HW2 2082   0.529   0.873   4.835
  544SOL     OW 2083   1.347   0.859   4.745
  544SOL    HW1 2084   1.261   0.843   4.706
  544SOL    HW2 2085   1.393   0.776   4.736
  545SOL     OW 2086   1.200   0.526   3.987
  545SOL    HW1 2087   1.208   0.447   4.040
  545SOL    HW2 2088   1.158   0.590   4.044
  546SOL     OW 2089   0.301   0.203   4.971
  546SOL    HW1 2090   0.260   0.237   5.051
  546SOL    HW2 2091   0.288   0.108   4.976
  547SOL     OW 2092   0.053   1.310   5.001
  547SOL    HW1 2093   0.085   1.254   5.071
  547SOL    HW2 2094   5.282   1.360   5.040
  548SOL     OW 2095   0.722   0.631   4.779
  548SOL    HW1 2096   0.798   0.618   4.722
  548SOL    HW2 2097   0.693   0.720   4.759
  549SOL     OW 2098   1.739   0.959   5.583
  549SOL    HW1 2099   1.696   0.892   5.530
  549SOL    HW2 2100   1.678   0.977   5.654
  550SOL     OW 2101   0.324   0.068   4.387
  550SOL    HW1 2102   0.298   0.160   4.387
  550SOL    HW2 2103   0.350   0.050   4.477
  551SOL     OW 2104   1.620   0.382   4.078
  551SOL    HW1 2105   1.648   0.314   4.139
  551SOL    HW2 2106   1.596   0.456   4.133
  552SOL     OW 2107   1.030   0.759   4.682
  552SOL    HW1 2108   1.021   0.776   4.776
  552SOL    HW2 2109   1.002   0.668   4.671
  553SOL     OW 2110   0.981   1.566   5.446
  553SOL    HW1 2111   0.965   1.610   5.362
  553SOL    HW2 2112   1.025   1.484   5.422
  554SOL     OW 2113   1.851   1.501   5.328
  554SOL    HW1 2114   1.873   1.529   5.239
  554SOL    HW2 2115   1.931   1.515   5.378
  555SOL     OW 2116   0.356   0.918   5.531
  555SOL    HW1 2117   0.435   0.938   5.580
  555SOL    HW2 2118   0.384   0.852   5.467
  556SOL     OW 2119   1.521   0.267   3.848
  556SOL    HW1 2120   1.454   0.209   3.884
  556SOL    HW2 2121   1.560   0.309   3.924
  557SOL     OW 2122   1.286   0.825   3.752
  557SOL    HW1 2123   1.329   0.739   3.757
  557SOL    HW2 2124   1.319   0.863   3.671
  558SOL     OW 2125   1.070   1.339   4.581
  558SOL    HW1 2126   1.075   1.267   4.518
  558SOL    HW2 2127   1.127   1.406   4.545
  559SOL     OW 2128   0.312   0.808   4.671
  559SOL    HW1 2129   0.406   0.826   4.670
  559SOL    HW2 2130   0.305   0.718   4.702
  560SOL     OW 2131   0.334   0.529   4.740
  560SOL    HW1 2132   0.296   0.442   4.726
  560SOL    HW2 2133   0.409   0.532   4.681
  561SOL     OW 2134   1.136   0.377   5.416
  561SOL    HW1 2135   1.087   0.431   5.479
  561SOL    HW2 2136   1.222   0.417   5.411
  562SOL     OW 2137   1.130   0.221   5.194
  562SOL    HW1 2138   1.133   0.281   5.268
  562SOL    HW2 2139   1.186   0.262   5.128
  563SOL     OW 2140   0.007   1.323   3.932
  563SOL    HW1 2141   5.236   1.309   3.868
  563SOL    HW2 2142   0.016   1.239   3.976
  564SOL     OW 2143   0.102   1.781   4.683
  564SOL    HW1 2144   0.064   1.717   4.623
  564SOL    HW2 2145   0.187   1.803   4.645
  565SOL     OW 2146   0.504   1.574   4.632
  565SOL    HW1 2147   0.570   1.640   4.652
  565SOL    HW2 2148   0.546   1.514   4.571
  566SOL     OW 2149   0.973   0.788   4.947
  566SOL    HW1 2150   1.033   0.769   5.020
  566SOL    HW2 2151   0.890   0.748   4.974
  567SOL     OW 2152   0.035   0.582   4.850
  567SOL    HW1 2153   0.113   0.549   4.805
  567SOL    HW2 2154   0.034   0.536   4.934
  568SOL     OW 2155   0.160   0.524   5.451
  568SOL    HW1 2156   0.246   0.497   5.419
  568SOL    HW2 2157   0.137   0.601   5.399
  569SOL     OW 2158   1.381   0.933   5.381
  569SOL    HW1 2159   1.402   1.026   5.377
  569SOL    HW2 2160   1.377   0.906   5.289
  570SOL     OW 2161   0.814   0.576   4.094
  570SOL    HW1 2162   0.823   0.503   4.032
  570SOL    HW2 2163   0.739   0.626   4.062
  571SOL     OW 2164   1.640   0.601   4.903
  571SOL    HW1 2165   1.630   0.542   4.978
  571SOL    HW2 2166   1.728   0.583   4.871
  572SOL     OW 2167   0.254   1.554   5.456
  572SOL    HW1 2168   0.235   1.618   5.525
  572SOL    HW2 2169   0.253   1.469   5.501
  573SOL     OW 2170   0.712   0.447   4.977
  573SOL    HW1 2171   0.656   0.375   4.948
  573SOL    HW2 2172   0.706   0.513   4.908
  574SOL     OW 2173   0.923   1.678   5.195
  574SOL    HW1 2174   0.898   1.639   5.112
  574SOL    HW2 2175   0.916   1.772   5.180
  575SOL     OW 2176   0.461   0.490   3.895
  575SOL    HW1 2177   0.525   0.556   3.923
  575SOL    HW2 2178   0.379   0.539   3.884
  576SOL     OW 2179   0.146   1.137   5.193
  576SOL    HW1 2180   0.142   1.092   5.277
  576SOL    HW2 2181   0.154   1.067   5.129
  577SOL     OW 2182   1.320   1.043   4.943
  577SOL    HW1 2183   1.341   0.980   4.875
  577SOL    HW2 2184   1.254   1.100   4.904
  578SOL     OW 2185   1.316   0.857   4.027
  578SOL    HW1 2186   1.242   0.824   4.079
  578SOL    HW2 2187   1.289   0.843   3.937
  579SOL     OW 2188   1.778   1.735   4.883
  579SOL    HW1 2189   1.835   1.764   4.812
  579SOL    HW2 2190   1.751   1.647   4.858
  580SOL     OW 2191   1.240   1.733   4.830
  580SOL    HW1 2192   1.323   1.757   4.788
  580SOL    HW2 2193   1.250   1.640   4.850
  581SOL     OW 2194   0.080   1.203   4.751
  581SOL    HW1 2195   0.066   1.232   4.841
  581SOL    HW2 2196   5.292   1.196   4.714
  582SOL     OW 2197   0.679   1.671   5.462
  582SOL    HW1 2198   0.618   1.745   5.453
  582SOL    HW2 2199   0.747   1.687   5.396
  583SOL     OW 2200   1.708   0.155   4.218
  583SOL    HW1 2201   1.784   0.136   4.163
  583SOL    HW2 2202   1.706   0.083   4.281
  584SOL     OW 2203   1.393   1.568   4.215
  584SOL    HW1 2204   1.451   1.601   4.147
  584SOL    HW2 2205   1.342   1.644   4.243
  585SOL     OW 2206   0.150   1.797   5.567
  585SOL    HW1 2207   0.096   1.735   5.615
  585SOL    HW2 2208   0.202   1.841   5.634
  586SOL     OW 2209   1.278   0.929   4.395
  586SOL    HW1 2210   1.352   0.869   4.405
  586SOL    HW2 2211   1.312   1.000   4.341
  587SOL     OW 2212   0.805   1.276   5.148
  587SOL    HW1 2213   0.777   1.318   5.229
  587SOL    HW2 2214   0.734   1.294   5.086
  588SOL     OW 2215   0.672   1.625   3.878
  588SOL    HW1 2216   0.684   1.640   3.784
  588SOL    HW2 2217   0.616   1.547   3.883
  589SOL     OW 2218   1.619   1.727   5.116
  589SOL    HW1 2219   1.673   1.732   5.037
  589SOL    HW2 2220   1.605   1.818   5.141
  590SOL     OW 2221   1.848   0.147   4.679
  590SOL    HW1 2222   1.836   0.053   4.691
  590SOL    HW2 2223   1.763   0.178   4.646
  591SOL     OW 2224   0.269   0.331   4.440
  591SOL    HW1 2225   0.181   0.366   4.430
  591SOL    HW2 2226   0.278   0.317   4.534
  592SOL     OW 2227   1.208   1.601   3.757
  592SOL    HW1 2228   1.197   1.510   3.783
  592SOL    HW2 2229   1.143   1.615   3.689
  593SOL     OW 2230   0.824   1.007   5.099
  593SOL    HW1 2231   0.867   1.000   5.014
  593SOL    HW2 2232   0.820   1.101   5.117
  594SOL     OW 2233   0.916   0.910   4.016
  594SOL    HW1 2234   0.976   0.943   3.949
  594SOL    HW2 2235   0.966   0.842   4.061
  595SOL     OW 2236   1.489   1.628   3.769
  595SOL    HW1 2237   1.395   1.619   3.754
  595SOL    HW2 2238   1.527   1.634   3.681
  596SOL     OW 2239   0.366   1.305   5.218
  596SOL    HW1 2240   0.359   1.378   5.157
  596SOL    HW2 2241   0.291   1.249   5.198
  597SOL     OW 2242   1.607   1.284   5.003
  597SOL    HW1 2243   1.667   1.268   5.076
  597SOL    HW2 2244   1.547   1.351   5.035
  598SOL     OW 2245   1.061   1.110   4.435
  598SOL    HW1 2246   0.989   1.060   4.471
  598SOL    HW2 2247   1.125   1.044   4.408
  599SOL     OW 2248   1.017   0.246   4.697
  599SOL    HW1 2249   0.998   0.201   4.614
  599SOL    HW2 2250   1.012   0.178   4.763
  600SOL     OW 2251   0.603   1.488   4.203
  600SOL    HW1 2252   0.653   1.438   4.138
  600SOL    HW2 2253   0.534   1.530   4.153
  601SOL     OW 2254   1.730   0.384   5.101
  601SOL    HW1 2255   1.802   0.448   5.100
  601SOL    HW2 2256   1.760   0.315   5.042
  602SOL     OW 2257   0.264   1.349   4.023
  602SOL    HW1 2258   0.171   1.348   3.998
  602SOL    HW2 2259   0.264   1.388   4.110
  603SOL     OW 2260   0.121   1.017   5.439
  603SOL    HW1 2261   0.050   0.983   5.495
  603SOL    HW2 2262   0.201   0.986   5.481
  604SOL     OW 2263   0.680   0.224   5.220
  604SOL    HW1 2264   0.762   0.209   5.173
  604SOL    HW2 2265   0.707   0.267   5.302
  605SOL     OW 2266   0.080   0.325   3.757
  605SOL    HW1 2267   5.285   0.316   3.763
  605SOL    HW2 2268   0.093   0.401   3.701
  606SOL     OW 2269   1.425   0.857   5.121
  606SOL    HW1 2270   1.375   0.918   5.067
  606SOL    HW2 2271   1.514   0.860   5.085
  607SOL     OW 2272   0.088   0.146   4.013
  607SOL    HW1 2273   0.082   0.239   3.990
  607SOL    HW2 2274   0.175   0.120   3.982
  608SOL     OW 2275   1.178   1.334   3.842
  608SOL    HW1 2276   1.087   1.305   3.843
  608SOL    HW2 2277   1.204   1.336   3.934
  609SOL     OW 2278   0.621   0.832   5.161
  609SOL    HW1 2279   0.678   0.908   5.146
  609SOL    HW2 2280   0.681   0.758   5.167
  610SOL     OW 2281   1.483   1.786   4.708
  610SOL    HW1 2282   1.505   1.851   4.641
  610SOL    HW2 2283   1.568   1.758   4.742
  611SOL     OW 2284   0.712   0.573   5.423
  611SOL    HW1 2285   0.758   0.635   5.480
  611SOL    HW2 2286   0.737   0.487   5.456
  612SOL     OW 2287   1.474   1.194   5.352
  612SOL    HW1 2288   1.462   1.209   5.446
  612SOL    HW2 2289   1.566   1.213   5.336
  613SOL     OW 2290   0.370   1.746   5.290
  613SOL    HW1 2291   0.288   1.792   5.271
  613SOL    HW2 2292   0.343   1.665   5.334
  614SOL     OW 2293   1.664   0.880   4.979
  614SOL    HW1 2294   1.661   0.794   4.935
  614SOL    HW2 2295   1.654   0.943   4.908
  615SOL     OW 2296   1.221   0.317   4.185
  615SOL    HW1 2297   1.283   0.244   4.181
  615SOL    HW2 2298   1.250   0.369   4.260
  616SOL     OW 2299   0.585   0.734   4.397
  616SOL    HW1 2300   0.626   0.820   4.381
  616SOL    HW2 2301   0.518   0.727   4.329
  617SOL     OW 2302   1.763   0.362   5.374
  617SOL    HW1 2303   1.746   0.378   5.281
  617SOL    HW2 2304   1.690   0.308   5.402
  618SOL     OW 2305   1.748   0.933   5.235
  618SOL    HW1 2306   1.738   1.028   5.247
  618SOL    HW2 2307   1.730   0.920   5.142
  619SOL     OW 2308   0.864   1.365   3.767
  619SOL    HW1 2309   0.826   1.394   3.850
  619SOL    HW2 2310   0.880   1.445   3.718
  620SOL     OW 2311   0.667   1.788   4.660
  620SOL    HW1 2312   0.648   1.880   4.641
  620SOL    HW2 2313   0.763   1.783   4.655
  621SOL     OW 2314   0.870   0.970   4.576
  621SOL    HW1 2315   0.920   0.898   4.614
  621SOL    HW2 2316   0.831   1.014   4.652
  622SOL     OW 2317   1.075   0.987   3.812
  622SOL    HW1 2318   1.055   1.040   3.735
  622SOL    HW2 2319   1.150   0.933   3.786
  623SOL     OW 2320   1.847   1.551   4.564
  623SOL    HW1 2321   1.767   1.540   4.513
  623SOL    HW2 2322   1.839   1.488   4.636
  624SOL     OW 2323   0.230   1.302   5.587
  624SOL    HW1 2324   0.162   1.240   5.561
  624SOL    HW2 2325   0.217   1.312   5.682
  625SOL     OW 2326   0.094   1.201   4.372
  625SOL    HW1 2327   0.115   1.181   4.463
  625SOL    HW2 2328   0.174   1.239   4.337
  626SOL     OW 2329   0.685   1.407   5.356
  626SOL    HW1 2330   0.605   1.366   5.388
  626SOL    HW2 2331   0.682   1.496   5.392
  627SOL     OW 2332   1.804   0.172   4.952
  627SOL    HW1 2333   1.767   0.084   4.948
  627SOL    HW2 2334   1.834   0.190   4.863
  628SOL     OW 2335   0.436   0.437   4.247
  628SOL    HW1 2336   0.469   0.363   4.196
  628SOL    HW2 2337   0.387   0.398   4.319
  629SOL     OW 2338   1.698   1.485   4.814
  629SOL    HW1 2339   1.618   1.465   4.765
  629SOL    HW2 2340   1.703   1.416   4.880
  630SOL     OW 2341   0.343   0.568   5.013
  630SOL    HW1 2342   0.398   0.507   5.063
  630SOL    HW2 2343   0.354   0.539   4.922
  631SOL     OW 2344   0.834   1.578   4.399
  631SOL    HW1 2345   0.812   1.644   4.333
  631SOL    HW2 2346   0.758   1.519   4.400
  632SOL     OW 2347   1.426   0.222   4.840
  632SOL    HW1 2348   1.461   0.146   4.886
  632SOL    HW2 2349   1.377   0.270   4.906
  633SOL     OW 2350   1.001   0.017   4.858
  633SOL    HW1 2351   0.950   5.251   4.812
  633SOL    HW2 2352   1.086   5.275   4.875
  634SOL     OW 2353   0.773   1.333   4.046
  634SOL    HW1 2354   0.748   1.242   4.054
  634SOL    HW2 2355   0.855   1.339   4.095
  635SOL     OW 2356   0.624   1.555   5.014
  635SOL    HW1 2357   0.624   1.637   5.063
  635SOL    HW2 2358   0.712   1.551   4.975
  636SOL     OW 2359   1.353   0.029   3.892
  636SOL    HW1 2360   1.407   5.293   3.821
  636SOL    HW2 2361   1.279   5.269   3.898
  637SOL     OW 2362   1.300   0.465   4.405
  637SOL    HW1 2363   1.247   0.545   4.408
  637SOL    HW2 2364   1.292   0.427   4.492
  638SOL     OW 2365   1.596   0.214   4.610
  638SOL    HW1 2366   1.532   0.227   4.680
  638SOL    HW2 2367   1.588   0.293   4.556
  639SOL     OW 2368   0.049   1.065   4.013
  639SOL    HW1 2369   0.138   1.030   4.005
  639SOL    HW2 2370   5.299   0.996   4.055
  640SOL     OW 2371   0.890   1.659   4.061
  640SOL    HW1 2372   0.815   1.645   4.003
  640SOL    HW2 2373   0.864   1.732   4.117
  641SOL     OW 2374   0.230   0.630   5.708
  641SOL    HW1 2375   0.162   0.594   5.765
  641SOL    HW2 2376   0.202   0.606   5.620
  642SOL     OW 2377   0.234   0.283   6.575
  642SOL    HW1 2378   0.253   0.242   6.660
  642SOL    HW2 2379   0.152   0.242   6.546
  643SOL     OW 2380   5.297   0.407   6.256
  643SOL    HW1 2381   5.204   0.431   6.256
  643SOL    HW2 2382   5.298   0.318   6.221
  644SOL     OW 2383   0.580   1.295   6.780
  644SOL    HW1 2384   0.499   1.301   6.730
  644SOL    HW2 2385   0.595   1.383   6.812
  645SOL     OW 2386   1.571   1.514   6.295
  645SOL    HW1 2387   1.528   1.491   6.377
  645SOL    HW2 2388   1.500   1.518   6.230
  646SOL     OW 2389   1.134   0.698   6.282
  646SOL    HW1 2390   1.181   0.781   6.269
  646SOL    HW2 2391   1.086   0.711   6.364
  647SOL     OW 2392   1.775   0.600   5.811
  647SOL    HW1 2393   1.750   0.594   5.719
  647SOL    HW2 2394   1.736   0.522   5.851
  648SOL     OW 2395   0.746   1.135   6.631
  648SOL    HW1 2396   0.684   1.173   6.694
  648SOL    HW2 2397   0.785   1.211   6.587
  649SOL     OW 2398   0.870   0.769   7.405
  649SOL    HW1 2399   0.871   0.841   7.468
  649SOL    HW2 2400   0.896   0.810   7.323
  650SOL     OW 2401   0.685   0.996   6.230
  650SOL    HW1 2402   0.752   0.988   6.298
  650SOL    HW2 2403   0.618   1.053   6.269
  651SOL     OW 2404   0.713   1.151   7.405
  651SOL    HW1 2405   0.762   1.228   7.435
  651SOL    HW2 2406   0.634   1.187   7.364
  652SOL     OW 2407   0.360   1.402   6.647
  652SOL    HW1 2408   0.269   1.406   6.617
  652SOL    HW2 2409   0.407   1.463   6.591
  653SOL     OW 2410   1.459   1.502   6.947
  653SOL    HW1 2411   1.514   1.581   6.956
  653SOL    HW2 2412   1.391   1.513   7.013
  654SOL     OW 2413   0.457   0.396   7.062
  654SOL    HW1 2414   0.537   0.345   7.066
  654SOL    HW2 2415   0.386   0.333   7.075
  655SOL     OW 2416   1.605   0.450   6.326
  655SOL    HW1 2417   1.530   0.467   6.269
  655SOL    HW2 2418   1.613   0.530   6.378
  656SOL     OW 2419   0.241   1.712   6.062
  656SOL    HW1 2420   0.266   1.784   6.120
  656SOL    HW2 2421   0.305   1.714   5.991
  657SOL     OW 2422   1.137   1.342   7.276
  657SOL    HW1 2423   1.178   1.337   7.362
  657SOL    HW2 2424   1.086   1.261   7.269
  658SOL     OW 2425   0.216   1.450   6.132
  658SOL    HW1 2426   0.227   1.543   6.113
  658SOL    HW2 2427   0.144   1.446   6.194
  659SOL     OW 2428   0.255   1.075   6.456
  659SOL    HW1 2429   0.266   0.987   6.493
  659SOL    HW2 2430   0.201   1.121   6.520
  660SOL     OW 2431   0.605   1.791   7.016
  660SOL    HW1 2432   0.522   1.774   7.060
  660SOL    HW2 2433   0.628   1.880   7.041
  661SOL     OW 2434   0.575   0.987   5.726
  661SOL    HW1 2435   0.625   1.031   5.657
  661SOL    HW2 2436   0.616   1.017   5.808
  662SOL     OW 2437   1.587   0.139   7.041
  662SOL    HW1 2438   1.621   0.220   7.001
  662SOL    HW2 2439   1.574   0.161   7.133
  663SOL     OW 2440   0.122   0.631   6.161
  663SOL    HW1 2441   0.089   0.551   6.202
  663SOL    HW2 2442   0.098   0.701   6.222
  664SOL     OW 2443   1.844   1.754   5.917
  664SOL    HW1 2444   1.913   1.728   5.978
  664SOL    HW2 2445   1.863   1.846   5.897
  665SOL     OW 2446   0.039   1.600   5.722
  665SOL    HW1 2447   0.027   1.509   5.747
  665SOL    HW2 2448   5.275   1.648   5.774
  666SOL     OW 2449   1.690   0.919   6.231
  666SOL    HW1 2450   1.771   0.874   6.208
  666SOL    HW2 2451   1.667   0.970   6.154
  667SOL     OW 2452   1.650   1.103   6.016
  667SOL    HW1 2453   1.736   1.104   5.975
  667SOL    HW2 2454   1.656   1.167   6.087
  668SOL     OW 2455   0.136   0.752   7.168
  668SOL    HW1 2456   0.231   0.765   7.162
  668SOL    HW2 2457   0.101   0.839   7.188
  669SOL     OW 2458   0.619   1.390   6.320
  669SOL    HW1 2459   0.572   1.307   6.329
  669SOL    HW2 2460   0.601   1.418   6.230
  670SOL     OW 2461   1.285   1.236   7.007
  670SOL    HW1 2462   1.316   1.167   6.947
  670SOL    HW2 2463   1.345   1.230   7.082
  671SOL     OW 2464   0.822   0.038   6.122
  671SOL    HW1 2465   0.850   0.125   6.093
  671SOL    HW2 2466   0.727   0.039   6.112
  672SOL     OW 2467   0.167   0.937   6.868
  672SOL    HW1 2468   0.257   0.907   6.861
  672SOL    HW2 2469   0.132   0.929   6.780
  673SOL     OW 2470   1.531   0.999   5.786
  673SOL    HW1 2471   1.462   0.942   5.820
  673SOL    HW2 2472   1.574   1.033   5.865
  674SOL     OW 2473   1.183   1.813   7.212
  674SOL    HW1 2474   1.189   1.874   7.138
  674SOL    HW2 2475   1.202   1.727   7.173
  675SOL     OW 2476   0.339   0.287   7.391
  675SOL    HW1 2477   0.393   0.344   7.446
  675SOL    HW2 2478   0.255   0.285   7.436
  676SOL     OW 2479   1.468   1.419   6.533
  676SOL    HW1 2480   1.401   1.435   6.600
  676SOL    HW2 2481   1.454   1.328   6.507
  677SOL     OW 2482   1.652   1.754   6.163
  677SOL    HW1 2483   1.636   1.720   6.075
  677SOL    HW2 2484   1.634   1.681   6.221
  678SOL     OW 2485   0.591   0.716   5.856
  678SOL    HW1 2486   0.598   0.800   5.810
  678SOL    HW2 2487   0.525   0.732   5.925
  679SOL     OW 2488   1.276   0.357   6.518
  679SOL    HW1 2489   1.186   0.327   6.531
  679SOL    HW2 2490   1.327   0.305   6.580
  680SOL     OW 2491   1.579   1.674   5.897
  680SOL    HW1 2492   1.671   1.699   5.888
  680SOL    HW2 2493   1.550   1.657   5.807
  681SOL     OW 2494   0.793   0.619   7.032
  681SOL    HW1 2495   0.764   0.597   7.120
  681SOL    HW2 2496   0.756   0.551   6.976
  682SOL     OW 2497   1.394   0.476   7.264
  682SOL    HW1 2498   1.397   0.521   7.349
  682SOL    HW2 2499   1.455   0.403   7.273
  683SOL     OW 2500   0.951   0.886   7.170
  683SOL    HW1 2501   1.006   0.818   7.131
  683SOL    HW2 2502   0.903   0.923   7.096
  684SOL     OW 2503   0.994   0.415   6.815
  684SOL    HW1 2504   0.905   0.432   6.845
  684SOL    HW2 2505   0.984   0.371   6.731
  685SOL     OW 2506   1.054   0.697   6.011
  685SOL    HW1 2507   1.072   0.691   6.105
  685SOL    HW2 2508   0.969   0.654   6.000
  686SOL     OW 2509   0.065   0.793   6.394
  686SOL    HW1 2510   0.145   0.796   6.447
  686SOL    HW2 2511   0.074   0.867   6.333
  687SOL     OW 2512   0.122   1.887   7.173
  687SOL    HW1 2513   0.129   1.865   7.266
  687SOL    HW2 2514   0.058   1.826   7.138
  688SOL     OW 2515   0.881   0.374   5.778
  688SOL    HW1 2516   0.917   0.431   5.710
  688SOL    HW2 2517   0.936   0.296   5.776
  689SOL     OW 2518   1.704   0.569   7.417
  689SOL    HW1 2519   1.669   0.644   7.368
  689SOL    HW2 2520   1.736   0.509   7.349
  690SOL     OW 2521   1.381   1.142   6.125
  690SOL    HW1 2522   1.460   1.131   6.073
  690SOL    HW2 2523   1.328   1.204   6.075
  691SOL     OW 2524   0.530   0.208   6.465
  691SOL    HW1 2525   0.547   0.223   6.558
  691SOL    HW2 2526   0.546   0.293   6.424
  692SOL     OW 2527   0.999   1.443   6.054
  692SOL    HW1 2528   0.969   1.518   6.004
  692SOL    HW2 2529   0.976   1.464   6.145
  693SOL     OW 2530   0.360   1.808   6.458
  693SOL    HW1 2531   0.400   1.722   6.471
  693SOL    HW2 2532   0.425   1.870   6.492
  694SOL     OW 2533   1.801   1.051   6.459
  694SOL    HW1 2534   1.749   1.032   6.381
  694SOL    HW2 2535   1.737   1.058   6.529
  695SOL     OW 2536   1.227   1.541   7.098
  695SOL    HW1 2537   1.215   1.468   7.159
  695SOL    HW2 2538   1.158   1.529   7.033
  696SOL     OW 2539   0.312   0.951   5.838
  696SOL    HW1 2540   0.393   0.976   5.793
  696SOL    HW2 2541   0.292   0.864   5.805
  697SOL     OW 2542   1.482   0.750   6.308
  697SOL    HW1 2543   1.478   0.712   6.396
  697SOL    HW2 2544   1.560   0.806   6.310
  698SOL     OW 2545   0.468   1.266   7.324
  698SOL    HW1 2546   0.442   1.272   7.232
  698SOL    HW2 2547   0.385   1.266   7.372
  699SOL     OW 2548   1.125   1.778   5.814
  699SOL    HW1 2549   1.049   1.739   5.858
  699SOL    HW2 2550   1.150   1.715   5.747
  700SOL     OW 2551   0.197   0.282   7.083
  700SOL    HW1 2552   0.163   0.370   7.069
  700SOL    HW2 2553   0.210   0.277   7.178
  701SOL     OW 2554   1.628   1.382   5.677
  701SOL    HW1 2555   1.587   1.467   5.662
  701SOL    HW2 2556   1.560   1.318   5.655
  702SOL     OW 2557   0.471   1.735   5.903
  702SOL    HW1 2558   0.517   1.791   5.965
  702SOL    HW2 2559   0.541   1.701   5.846
  703SOL     OW 2560   1.409   0.105   6.018
  703SOL    HW1 2561   1.402   0.078   5.926
  703SOL    HW2 2562   1.503   0.120   6.031
  704SOL     OW 2563   0.277   1.801   6.788
  704SOL    HW1 2564   0.306   1.718   6.827
  704SOL    HW2 2565   0.220   1.774   6.716
  705SOL     OW 2566   0.941   1.700   6.482
  705SOL    HW1 2567   1.020   1.651   6.504
  705SOL    HW2 2568   0.900   1.649   6.413
  706SOL     OW 2569   0.385   0.695   6.063
  706SOL    HW1 2570   0.414   0.604   6.073
  706SOL    HW2 2571   0.291   0.692   6.085
  707SOL     OW 2572   1.531   0.228   7.307
  707SOL    HW1 2573   1.540   0.244   7.401
  707SOL    HW2 2574   1.455   0.172   7.300
  708SOL     OW 2575   0.622   0.130   5.693
  708SOL    HW1 2576   0.675   0.057   5.724
  708SOL    HW2 2577   0.573   0.095   5.619
  709SOL     OW 2578   0.777   0.312   7.352
  709SOL    HW1 2579   0.842   0.243   7.353
  709SOL    HW2 2580   0.741   0.313   7.441
  710SOL     OW 2581   0.877   1.523   6.780
  710SOL    HW1 2582   0.859   1.485   6.694
  710SOL    HW2 2583   0.947   1.468   6.816
  711SOL     OW 2584   1.339   0.590   7.019
  711SOL    HW1 2585   1.370   0.559   7.104
  711SOL    HW2 2586   1.376   0.678   7.010
  712SOL     OW 2587   0.819   1.387   6.532
  712SOL    HW1 2588   0.904   1.377   6.490
  712SOL    HW2 2589   0.757   1.395   6.460
  713SOL     OW 2590   0.929   0.512   6.488
  713SOL    HW1 2591   0.903   0.504   6.396
  713SOL    HW2 2592   0.956   0.424   6.513
  714SOL     OW 2593   0.551   0.058   6.090
  714SOL    HW1 2594   0.473   0.058   6.146
  714SOL    HW2 2595   0.535   0.126   6.025
  715SOL     OW 2596   1.428   1.201   5.625
  715SOL    HW1 2597   1.457   1.126   5.676
  715SOL    HW2 2598   1.343   1.223   5.662
  716SOL     OW 2599   0.323   0.073   5.771
  716SOL    HW1 2600   0.393   0.138   5.779
  716SOL    HW2 2601   0.369   5.290   5.757
  717SOL     OW 2602   0.942   0.273   6.048
  717SOL    HW1 2603   0.915   0.303   5.962
  717SOL    HW2 2604   1.038   0.281   6.048
  718SOL     OW 2605   1.082   0.686   7.042
  718SOL    HW1 2606   1.016   0.616   7.046
  718SOL    HW2 2607   1.165   0.640   7.036
  719SOL     OW 2608   1.219   1.573   6.381
  719SOL    HW1 2609   1.233   1.638   6.312
  719SOL    HW2 2610   1.289   1.589   6.444
  720SOL     OW 2611   0.471   1.154   6.310
  720SOL    HW1 2612   0.403   1.131   6.373
  720SOL    HW2 2613   0.430   1.139   6.224
  721SOL     OW 2614   1.264   1.792   6.198
  721SOL    HW1 2615   1.312   1.854   6.144
  721SOL    HW2 2616   1.195   1.844   6.239
  722SOL     OW 2617   1.025   0.542   5.610
  722SOL    HW1 2618   0.982   0.626   5.593
  722SOL    HW2 2619   1.087   0.560   5.681
  723SOL     OW 2620   0.108   0.527   7.002
  723SOL    HW1 2621   0.186   0.549   6.952
  723SOL    HW2 2622   0.083   0.609   7.045
  724SOL     OW 2623   0.558   0.239   6.744
  724SOL    HW1 2624   0.593   0.155   6.774
  724SOL    HW2 2625   0.466   0.238   6.771
  725SOL     OW 2626   0.864   0.468   6.228
  725SOL    HW1 2627   0.818   0.522   6.164
  725SOL    HW2 2628   0.890   0.390   6.179
  726SOL     OW 2629   0.981   0.062   6.354
  726SOL    HW1 2630   0.918   0.064   6.282
  726SOL    HW2 2631   0.990   5.269   6.375
  727SOL     OW 2632   1.440   1.160   6.443
  727SOL    HW1 2633   1.368   1.097   6.443
  727SOL    HW2 2634   1.465   1.169   6.351
  728SOL     OW 2635   1.465   0.612   6.555
  728SOL    HW1 2636   1.411   0.533   6.558
  728SOL    HW2 2637   1.524   0.603   6.630
  729SOL     OW 2638   1.839   0.811   5.971
  729SOL    HW1 2639   1.898   0.762   6.029
  729SOL    HW2 2640   1.815   0.748   5.903
  730SOL     OW 2641   0.491   1.423   5.739
  730SOL    HW1 2642   0.416   1.396   5.791
  730SOL    HW2 2643   0.484   1.373   5.658
  731SOL     OW 2644   1.676   1.264   6.228
  731SOL    HW1 2645   1.771   1.263   6.243
  731SOL    HW2 2646   1.649   1.353   6.249
  732SOL     OW 2647   1.393   0.574   5.657
  732SOL    HW1 2648   1.332   0.552   5.728
  732SOL    HW2 2649   1.479   0.547   5.691
  733SOL     OW 2650   0.518   0.264   5.902
  733SOL    HW1 2651   0.573   0.221   5.837
  733SOL    HW2 2652   0.496   0.349   5.863
  734SOL     OW 2653   1.748   1.242   7.148
  734SOL    HW1 2654   1.836   1.204   7.140
  734SOL    HW2 2655   1.763   1.332   7.178
  735SOL     OW 2656   1.054   1.352   6.916
  735SOL    HW1 2657   0.979   1.322   6.967
  735SOL    HW2 2658   1.130   1.311   6.959
  736SOL     OW 2659   1.609   1.627   7.241
  736SOL    HW1 2660   1.602   1.662   7.152
  736SOL    HW2 2661   1.691   1.577   7.241
  737SOL     OW 2662   1.135   1.209   6.688
  737SOL    HW1 2663   1.075   1.248   6.752
  737SOL    HW2 2664   1.106   1.245   6.604
  738SOL     OW 2665   1.623   1.095   6.662
  738SOL    HW1 2666   1.616   1.159   6.733
  738SOL    HW2 2667   1.547   1.115   6.606
  739SOL     OW 2668   0.904   0.111   6.966
  739SOL    HW1 2669   0.935   0.077   6.882
  739SOL    HW2 2670   0.981   0.152   7.006
  740SOL     OW 2671   0.984   1.114   7.312
  740SOL    HW1 2672   0.893   1.131   7.333
  740SOL    HW2 2673   0.982   1.036   7.256
  741SOL     OW 2674   0.709   1.061   5.957
  741SOL    HW1 2675   0.696   1.042   6.050
  741SOL    HW2 2676   0.785   1.008   5.932
  742SOL     OW 2677   0.420   0.827   6.842
  742SOL    HW1 2678   0.490   0.834   6.907
  742SOL    HW2 2679   0.388   0.737   6.849
  743SOL     OW 2680   1.264   0.376   6.864
  743SOL    HW1 2681   1.297   0.454   6.909
  743SOL    HW2 2682   1.174   0.399   6.841
  744SOL     OW 2683   0.104   1.619   6.949
  744SOL    HW1 2684   0.084   1.624   6.855
  744SOL    HW2 2685   0.193   1.583   6.952
  745SOL     OW 2686   0.344   1.115   6.066
  745SOL    HW1 2687   0.340   1.194   6.013
  745SOL    HW2 2688   0.342   1.043   6.003
  746SOL     OW 2689   0.552   0.530   6.444
  746SOL    HW1 2690   0.565   0.589   6.370
  746SOL    HW2 2691   0.619   0.556   6.508
  747SOL     OW 2692   1.247   1.350   5.976
  747SOL    HW1 2693   1.303   1.421   6.008
  747SOL    HW2 2694   1.160   1.371   6.010
  748SOL     OW 2695   1.290   1.461   6.735
  748SOL    HW1 2696   1.345   1.466   6.812
  748SOL    HW2 2697   1.234   1.385   6.750
  749SOL     OW 2698   1.577   0.620   6.069
  749SOL    HW1 2699   1.528   0.669   6.135
  749SOL    HW2 2700   1.623   0.688   6.019
  750SOL     OW 2701   0.353   1.521   6.893
  750SOL    HW1 2702   0.343   1.476   6.810
  750SOL    HW2 2703   0.447   1.538   6.900
  751SOL     OW 2704   0.422   0.738   7.191
  751SOL    HW1 2705   0.480   0.787   7.132
  751SOL    HW2 2706   0.468   0.656   7.208
  752SOL     OW 2707   1.608   0.780   7.273
  752SOL    HW1 2708   1.523   0.822   7.267
  752SOL    HW2 2709   1.661   0.822   7.205
  753SOL     OW 2710   1.051   0.121   7.374
  753SOL    HW1 2711   1.085   0.200   7.333
  753SOL    HW2 2712   1.062   0.052   7.308
  754SOL     OW 2713   0.481   0.062   7.323
  754SOL    HW1 2714   0.414   5.298   7.299
  754SOL    HW2 2715   0.432   0.143   7.337
  755SOL     OW 2716   0.587   0.876   6.620
  755SOL    HW1 2717   0.623   0.965   6.621
  755SOL    HW2 2718   0.529   0.873   6.697
  756SOL     OW 2719   1.347   0.859   6.607
  756SOL    HW1 2720   1.261   0.843   6.568
  756SOL    HW2 2721   1.393   0.775   6.598
  757SOL     OW 2722   1.200   0.526   5.849
  757SOL    HW1 2723   1.208   0.447   5.902
  757SOL    HW2 2724   1.158   0.590   5.906
  758SOL     OW 2725   0.301   0.202   6.833
  758SOL    HW1 2726   0.260   0.236   6.912
  758SOL    HW2 2727   0.287   0.108   6.837
  759SOL     OW 2728   0.053   1.310   6.863
  759SOL    HW1 2729   0.085   1.254   6.933
  759SOL    HW2 2730   5.282   1.360   6.902
  760SOL     OW 2731   0.722   0.631   6.641
  760SOL    HW1 2732   0.798   0.618   6.584
  760SOL    HW2 2733   0.693   0.720   6.621
  761SOL     OW 2734   1.740   0.960   7.444
  761SOL    HW1 2735   1.694   0.893   7.393
  761SOL    HW2 2736   1.682   0.978   7.517
  762SOL     OW 2737   0.324   0.068   6.249
  762SOL    HW1 2738   0.298   0.160   6.249
  762SOL    HW2 2739   0.350   0.050   6.339
  763SOL     OW 2740   1.619   0.382   5.940
  763SOL    HW1 2741   1.648   0.314   6.001
  763SOL    HW2 2742   1.596   0.456   5.995
  764SOL     OW 2743   1.030   0.759   6.544
  764SOL    HW1 2744   1.021   0.776   6.638
  764SOL    HW2 2745   1.002   0.668   6.533
  765SOL     OW 2746   0.980   1.564   7.307
  765SOL    HW1 2747   0.965   1.609   7.224
  765SOL    HW2 2748   1.026   1.484   7.282
  766SOL     OW 2749   1.851   1.501   7.189
  766SOL    HW1 2750   1.873   1.528   7.100
  766SOL    HW2 2751   1.931   1.515   7.239
  767SOL     OW 2752   0.356   0.914   7.394
  767SOL    HW1 2753   0.436   0.938   7.440
  767SOL    HW2 2754   0.384   0.851   7.328
  768SOL     OW 2755   1.521   0.267   5.710
  768SOL    HW1 2756   1.454   0.209   5.746
  768SOL    HW2 2757   1.560   0.309   5.786
  769SOL     OW 2758   1.286   0.825   5.614
  769SOL    HW1 2759   1.329   0.739   5.619
  769SOL    HW2 2760   1.319   0.864   5.533
  770SOL     OW 2761   1.070   1.339   6.443
  770SOL    HW1 2762   1.075   1.267   6.380
  770SOL    HW2 2763   1.127   1.406   6.407
  771SOL     OW 2764   0.312   0.808   6.533
  771SOL    HW1 2765   0.406   0.826   6.532
  771SOL    HW2 2766   0.305   0.718   6.564
  772SOL     OW 2767   0.334   0.529   6.602
  772SOL    HW1 2768   0.296   0.442   6.589
  772SOL    HW2 2769   0.410   0.532   6.543
  773SOL     OW 2770   1.136   0.374   7.280
  773SOL    HW1 2771   1.088   0.429   7.342
  773SOL    HW2 2772   1.222   0.415   7.273
  774SOL     OW 2773   1.130   0.220   7.056
  774SOL    HW1 2774   1.133   0.280   7.131
  774SOL    HW2 2775   1.186   0.262   6.990
  775SOL     OW 2776   0.007   1.323   5.794
  775SOL    HW1 2777   5.236   1.309   5.730
  775SOL    HW2 2778   0.016   1.239   5.838
  776SOL     OW 2779   0.102   1.781   6.545
  776SOL    HW1 2780   0.064   1.717   6.485
  776SOL    HW2 2781   0.187   1.803   6.507
  777SOL     OW 2782   0.503   1.574   6.494
  777SOL    HW1 2783   0.570   1.640   6.513
  777SOL    HW2 2784   0.546   1.514   6.433
  778SOL     OW 2785   0.973   0.788   6.809
  778SOL    HW1 2786   1.033   0.769   6.881
  778SOL    HW2 2787   0.890   0.748   6.836
  779SOL     OW 2788   0.035   0.582   6.712
  779SOL    HW1 2789   0.113   0.549   6.667
  779SOL    HW2 2790   0.034   0.535   6.795
  780SOL     OW 2791   0.166   0.523   7.308
  780SOL    HW1 2792   0.252   0.499   7.272
  780SOL    HW2 2793   0.140   0.600   7.258
  781SOL     OW 2794   1.381   0.933   7.243
  781SOL    HW1 2795   1.402   1.026   7.240
  781SOL    HW2 2796   1.377   0.906   7.151
  782SOL     OW 2797   0.814   0.576   5.956
  782SOL    HW1 2798   0.822   0.503   5.894
  782SOL    HW2 2799   0.739   0.626   5.924
  783SOL     OW 2800   1.640   0.601   6.765
  783SOL    HW1 2801   1.630   0.542   6.841
  783SOL    HW2 2802   1.728   0.582   6.733
  784SOL     OW 2803   0.253   1.554   7.319
  784SOL    HW1 2804   0.234   1.618   7.388
  784SOL    HW2 2805   0.253   1.470   7.363
  785SOL     OW 2806   0.711   0.448   6.840
  785SOL    HW1 2807   0.656   0.375   6.810
  785SOL    HW2 2808   0.705   0.513   6.770
  786SOL     OW 2809   0.923   1.678   7.057
  786SOL    HW1 2810   0.898   1.639   6.973
  786SOL    HW2 2811   0.917   1.772   7.043
  787SOL     OW 2812   0.461   0.490   5.757
  787SOL    HW1 2813   0.525   0.556   5.785
  787SOL    HW2 2814   0.379   0.539   5.746
  788SOL     OW 2815   0.146   1.137   7.055
  788SOL    HW1 2816   0.141   1.092   7.139
  788SOL    HW2 2817   0.154   1.067   6.990
  789SOL     OW 2818   1.320   1.043   6.805
  789SOL    HW1 2819   1.341   0.980   6.737
  789SOL    HW2 2820   1.254   1.100   6.766
  790SOL     OW 2821   1.316   0.857   5.889
  790SOL    HW1 2822   1.242   0.825   5.941
  790SOL    HW2 2823   1.289   0.843   5.798
  791SOL     OW 2824   1.779   1.737   6.742
  791SOL    HW1 2825   1.839   1.763   6.672
  791SOL    HW2 2826   1.752   1.648   6.719
  792SOL     OW 2827   1.240   1.732   6.691
  792SOL    HW1 2828   1.323   1.757   6.650
  792SOL    HW2 2829   1.250   1.639   6.712
  793SOL     OW 2830   0.080   1.202   6.613
  793SOL    HW1 2831   0.066   1.232   6.703
  793SOL    HW2 2832   5.292   1.196   6.576
  794SOL     OW 2833   0.678   1.670   7.323
  794SOL    HW1 2834   0.620   1.745   7.316
  794SOL    HW2 2835   0.748   1.687   7.260
  795SOL     OW 2836   1.708   0.155   6.080
  795SOL    HW1 2837   1.784   0.136   6.025
  795SOL    HW2 2838   1.706   0.083   6.143
  796SOL     OW 2839   1.393   1.568   6.077
  796SOL    HW1 2840   1.451   1.602   6.009
  796SOL    HW2 2841   1.342   1.644   6.105
  797SOL     OW 2842   0.145   1.797   7.430
  797SOL    HW1 2843   0.091   1.736   7.479
  797SOL    HW2 2844   0.200   1.840   7.496
  798SOL     OW 2845   1.278   0.929   6.257
  798SOL    HW1 2846   1.352   0.869   6.267
  798SOL    HW2 2847   1.312   1.000   6.203
  799SOL     OW 2848   0.805   1.276   7.010
  799SOL    HW1 2849   0.777   1.318   7.092
  799SOL    HW2 2850   0.735   1.294   6.948
  800SOL     OW 2851   0.672   1.625   5.740
  800SOL    HW1 2852   0.684   1.640   5.646
  800SOL    HW2 2853   0.616   1.547   5.745
  801SOL     OW 2854   1.619   1.728   6.977
  801SOL    HW1 2855   1.673   1.733   6.898
  801SOL    HW2 2856   1.605   1.819   7.002
  802SOL     OW 2857   1.848   0.147   6.541
  802SOL    HW1 2858   1.836   0.053   6.553
  802SOL    HW2 2859   1.763   0.178   6.508
  803SOL     OW 2860   0.269   0.331   6.302
  803SOL    HW1 2861   0.181   0.366   6.292
  803SOL    HW2 2862   0.279   0.317   6.396
  804SOL     OW 2863   1.208   1.601   5.619
  804SOL    HW1 2864   1.197   1.510   5.645
  804SOL    HW2 2865   1.142   1.615   5.551
  805SOL     OW 2866   0.824   1.007   6.961
  805SOL    HW1 2867   0.867   1.000   6.876
  805SOL    HW2 2868   0.820   1.101   6.979
  806SOL     OW 2869   0.916   0.910   5.878
  806SOL    HW1 2870   0.976   0.943   5.811
  806SOL    HW2 2871   0.966   0.842   5.923
  807SOL     OW 2872   1.489   1.629   5.631
  807SOL    HW1 2873   1.395   1.619   5.616
  807SOL    HW2 2874   1.527   1.635   5.544
  808SOL     OW 2875   0.366   1.305   7.080
  808SOL    HW1 2876   0.359   1.378   7.019
  808SOL    HW2 2877   0.290   1.249   7.059
  809SOL     OW 2878   1.607   1.284   6.866
  809SOL    HW1 2879   1.666   1.268   6.939
  809SOL    HW2 2880   1.547   1.351   6.898
  810SOL     OW 2881   1.061   1.110   6.297
  810SOL    HW1 2882   0.989   1.060   6.333
  810SOL    HW2 2883   1.125   1.044   6.270
  811SOL     OW 2884   1.017   0.246   6.559
  811SOL    HW1 2885   0.998   0.201   6.476
  811SOL    HW2 2886   1.012   0.178   6.625
  812SOL     OW 2887   0.603   1.487   6.065
  812SOL    HW1 2888   0.653   1.438   6.000
  812SOL    HW2 2889   0.534   1.530   6.015
  813SOL     OW 2890   1.731   0.384   6.965
  813SOL    HW1 2891   1.802   0.448   6.963
  813SOL    HW2 2892   1.760   0.314   6.905
  814SOL     OW 2893   0.263   1.349   5.885
  814SOL    HW1 2894   0.171   1.348   5.860
  814SOL    HW2 2895   0.264   1.388   5.972
  815SOL     OW 2896   0.120   1.014   7.300
  815SOL    HW1 2897   0.050   0.986   7.357
  815SOL    HW2 2898   0.200   0.984   7.343
  816SOL     OW 2899   0.680   0.223   7.084
  816SOL    HW1 2900   0.762   0.209   7.037
  816SOL    HW2 2901   0.707   0.267   7.166
  817SOL     OW 2902   0.080   0.325   5.619
  817SOL    HW1 2903   5.285   0.316   5.625
  817SOL    HW2 2904   0.093   0.401   5.563
  818SOL     OW 2905   1.425   0.857   6.983
  818SOL    HW1 2906   1.375   0.918   6.929
  818SOL    HW2 2907   1.514   0.860   6.947
  819SOL     OW 2908   0.088   0.146   5.875
  819SOL    HW1 2909   0.082   0.239   5.852
  819SOL    HW2 2910   0.175   0.120   5.844
  820SOL     OW 2911   1.178   1.334   5.704
  820SOL    HW1 2912   1.087   1.305   5.705
  820SOL    HW2 2913   1.204   1.336   5.796
  821SOL     OW 2914   0.621   0.832   7.023
  821SOL    HW1 2915   0.678   0.908   7.007
  821SOL    HW2 2916   0.681   0.758   7.029
  822SOL     OW 2917   1.483   1.784   6.569
  822SOL    HW1 2918   1.505   1.850   6.503
  822SOL    HW2 2919   1.567   1.757   6.605
  823SOL     OW 2920   0.709   0.574   7.285
  823SOL    HW1 2921   0.756   0.636   7.341
  823SOL    HW2 2922   0.735   0.488   7.316
  824SOL     OW 2923   1.473   1.194   7.215
  824SOL    HW1 2924   1.462   1.209   7.309
  824SOL    HW2 2925   1.566   1.213   7.199
  825SOL     OW 2926   0.370   1.746   7.152
  825SOL    HW1 2927   0.288   1.792   7.134
  825SOL    HW2 2928   0.343   1.665   7.196
  826SOL     OW 2929   1.664   0.880   6.841
  826SOL    HW1 2930   1.660   0.795   6.797
  826SOL    HW2 2931   1.654   0.943   6.770
  827SOL     OW 2932   1.221   0.317   6.047
  827SOL    HW1 2933   1.283   0.244   6.043
  827SOL    HW2 2934   1.250   0.369   6.122
  828SOL     OW 2935   0.585   0.734   6.259
  828SOL    HW1 2936   0.626   0.819   6.244
  828SOL    HW2 2937   0.518   0.727   6.191
  829SOL     OW 2938   1.762   0.361   7.238
  829SOL    HW1 2939   1.747   0.378   7.145
  829SOL    HW2 2940   1.687   0.308   7.265
  830SOL     OW 2941   1.748   0.933   7.097
  830SOL    HW1 2942   1.738   1.027   7.110
  830SOL    HW2 2943   1.730   0.919   7.004
  831SOL     OW 2944   0.864   1.365   5.629
  831SOL    HW1 2945   0.826   1.394   5.712
  831SOL    HW2 2946   0.880   1.445   5.580
  832SOL     OW 2947   0.667   1.788   6.522
  832SOL    HW1 2948   0.648   1.880   6.503
  832SOL    HW2 2949   0.763   1.783   6.517
  833SOL     OW 2950   0.870   0.970   6.438
  833SOL    HW1 2951   0.920   0.898   6.476
  833SOL    HW2 2952   0.831   1.014   6.514
  834SOL     OW 2953   1.075   0.986   5.674
  834SOL    HW1 2954   1.055   1.040   5.597
  834SOL    HW2 2955   1.150   0.933   5.648
  835SOL     OW 2956   1.847   1.553   6.428
  835SOL    HW1 2957   1.768   1.541   6.375
  835SOL    HW2 2958   1.839   1.489   6.498
  836SOL     OW 2959   0.229   1.302   7.449
  836SOL    HW1 2960   0.158   1.244   7.422
  836SOL    HW2 2961   0.215   1.314   7.543
  837SOL     OW 2962   0.094   1.201   6.234
  837SOL    HW1 2963   0.115   1.181   6.325
  837SOL    HW2 2964   0.174   1.239   6.198
  838SOL     OW 2965   0.684   1.406   7.218
  838SOL    HW1 2966   0.603   1.366   7.250
  838SOL    HW2 2967   0.682   1.495   7.253
  839SOL     OW 2968   1.805   0.172   6.814
  839SOL    HW1 2969   1.767   0.084   6.810
  839SOL    HW2 2970   1.834   0.190   6.725
  840SOL     OW 2971   0.436   0.437   6.109
  840SOL    HW1 2972   0.469   0.363   6.058
  840SOL    HW2 2973   0.387   0.398   6.181
  841SOL     OW 2974   1.697   1.486   6.677
  841SOL    HW1 2975   1.618   1.466   6.628
  841SOL    HW2 2976   1.702   1.417   6.743
  842SOL     OW 2977   0.343   0.567   6.875
  842SOL    HW1 2978   0.399   0.507   6.925
  842SOL    HW2 2979   0.354   0.540   6.784
  843SOL     OW 2980   0.834   1.578   6.261
  843SOL    HW1 2981   0.812   1.644   6.195
  843SOL    HW2 2982   0.758   1.519   6.262
  844SOL     OW 2983   1.426   0.222   6.702
  844SOL    HW1 2984   1.461   0.146   6.749
  844SOL    HW2 2985   1.377   0.270   6.768
  845SOL     OW 2986   1.001   0.017   6.721
  845SOL    HW1 2987   0.950   5.251   6.673
  845SOL    HW2 2988   1.085   5.276   6.737
  846SOL     OW 2989   0.774   1.333   5.908
  846SOL    HW1 2990   0.748   1.242   5.915
  846SOL    HW2 2991   0.856   1.339   5.957
  847SOL     OW 2992   0.625   1.555   6.876
  847SOL    HW1 2993   0.623   1.638   6.925
  847SOL    HW2 2994   0.712   1.551   6.837
  848SOL     OW 2995   1.353   0.029   5.754
  848SOL    HW1 2996   1.407   5.294   5.683
  848SOL    HW2 2997   1.279   5.268   5.760
  849SOL     OW 2998   1.300   0.465   6.266
  849SOL    HW1 2999   1.247   0.545   6.270
  849SOL    HW2 3000   1.292   0.427   6.354
  850SOL     OW 3001   1.596   0.214   6.472
  850SOL    HW1 3002   1.532   0.227   6.542
  850SOL    HW2 3003   1.588   0.293   6.418
  851SOL     OW 3004   0.049   1.065   5.875
  851SOL    HW1 3005   0.138   1.030   5.867
  851SOL    HW2 3006   5.299   0.996   5.917
  852SOL     OW 3007   0.891   1.659   5.923
  852SOL    HW1 3008   0.816   1.645   5.865
  852SOL    HW2 3009   0.864   1.732   5.979
  853SOL     OW 3010   0.220   0.627   7.571
  853SOL    HW1 3011   0.155   0.575   7.617
  853SOL    HW2 3012   0.205   0.609   7.479
  854SOL     OW 3013   1.773   0.592   7.677
  854SOL    HW1 3014   1.749   0.588   7.585
  854SOL    HW2 3015   1.733   0.514   7.716
  855SOL     OW 3016   0.243   1.693   7.924
  855SOL    HW1 3017   0.262   1.754   7.995
  855SOL    HW2 3018   0.309   1.712   7.858
  856SOL     OW 3019   0.212   1.436   7.996
  856SOL    HW1 3020   0.220   1.528   7.974
  856SOL    HW2 3021   0.151   1.434   8.070
  857SOL     OW 3022   0.576   0.988   7.585
  857SOL    HW1 3023   0.624   1.032   7.515
  857SOL    HW2 3024   0.617   1.019   7.666
  858SOL     OW 3025   1.839   1.756   7.796
  858SOL    HW1 3026   1.912   1.728   7.850
  858SOL    HW2 3027   1.861   1.845   7.769
  859SOL     OW 3028   0.033   1.605   7.589
  859SOL    HW1 3029   0.030   1.512   7.611
  859SOL    HW2 3030   5.268   1.645   7.646
  860SOL     OW 3031   1.682   0.856   8.025
  860SOL    HW1 3032   1.757   0.869   0.003
  860SOL    HW2 3033   1.666   0.943   7.987
  861SOL     OW 3034   1.658   1.096   7.882
  861SOL    HW1 3035   1.746   1.123   7.856
  861SOL    HW2 3036   1.625   1.169   7.933
  862SOL     OW 3037   0.811   5.276   7.936
  862SOL    HW1 3038   0.857   0.059   7.927
  862SOL    HW2 3039   0.718   0.001   7.940
  863SOL     OW 3040   1.535   1.000   7.652
  863SOL    HW1 3041   1.467   0.942   7.686
  863SOL    HW2 3042   1.580   1.032   7.730
  864SOL     OW 3043   0.584   0.721   7.707
  864SOL    HW1 3044   0.591   0.805   7.663
  864SOL    HW2 3045   0.538   0.740   7.789
  865SOL     OW 3046   1.573   1.674   7.757
  865SOL    HW1 3047   1.665   1.699   7.766
  865SOL    HW2 3048   1.560   1.661   7.663
  866SOL     OW 3049   0.047   0.816   0.181
  866SOL    HW1 3050   0.114   0.750   0.164
  866SOL    HW2 3051   0.043   0.867   0.100
  867SOL     OW 3052   0.877   0.371   7.631
  867SOL    HW1 3053   0.915   0.429   7.565
  867SOL    HW2 3054   0.943   0.303   7.644
  868SOL     OW 3055   0.312   0.946   7.693
  868SOL    HW1 3056   0.393   0.973   7.650
  868SOL    HW2 3057   0.293   0.860   7.656
  869SOL     OW 3058   1.129   1.775   7.681
  869SOL    HW1 3059   1.050   1.738   7.719
  869SOL    HW2 3060   1.154   1.713   7.613
  870SOL     OW 3061   1.629   1.383   7.537
  870SOL    HW1 3062   1.587   1.468   7.522
  870SOL    HW2 3063   1.560   1.319   7.517
  871SOL     OW 3064   0.472   1.741   7.768
  871SOL    HW1 3065   0.520   1.791   7.834
  871SOL    HW2 3066   0.541   1.702   7.714
  872SOL     OW 3067   1.419   0.108   7.889
  872SOL    HW1 3068   1.415   0.082   7.797
  872SOL    HW2 3069   1.512   0.115   7.909
  873SOL     OW 3070   0.377   0.698   7.928
  873SOL    HW1 3071   0.395   0.604   7.933
  873SOL    HW2 3072   0.285   0.706   7.950
  874SOL     OW 3073   0.611   0.132   7.561
  874SOL    HW1 3074   0.677   0.068   7.586
  874SOL    HW2 3075   0.568   0.094   7.485
  875SOL     OW 3076   0.552   0.065   7.948
  875SOL    HW1 3077   0.461   0.046   7.971
  875SOL    HW2 3078   0.547   0.140   7.888
  876SOL     OW 3079   1.428   1.200   7.488
  876SOL    HW1 3080   1.458   1.127   7.542
  876SOL    HW2 3081   1.343   1.224   7.525
  877SOL     OW 3082   0.319   0.078   7.657
  877SOL    HW1 3083   0.380   0.139   7.616
  877SOL    HW2 3084   0.361   5.292   7.648
  878SOL     OW 3085   0.948   0.221   7.910
  878SOL    HW1 3086   0.899   0.295   7.875
  878SOL    HW2 3087   1.038   0.253   7.919
  879SOL     OW 3088   0.443   1.161   0.085
  879SOL    HW1 3089   0.373   1.194   0.142
  879SOL    HW2 3090   0.400   1.146   0.001
  880SOL     OW 3091   1.295   1.817   8.013
  880SOL    HW1 3092   1.333   1.885   7.959
  880SOL    HW2 3093   1.203   1.842   8.023
  881SOL     OW 3094   1.025   0.542   7.471
  881SOL    HW1 3095   0.981   0.625   7.457
  881SOL    HW2 3096   1.082   0.557   7.546
  882SOL     OW 3097   1.877   0.811   7.804
  882SOL    HW1 3098   1.839   0.804   7.892
  882SOL    HW2 3099   1.840   0.736   7.757
  883SOL     OW 3100   0.488   1.420   7.599
  883SOL    HW1 3101   0.414   1.392   7.653
  883SOL    HW2 3102   0.478   1.370   7.518
  884SOL     OW 3103   1.393   0.573   7.519
  884SOL    HW1 3104   1.329   0.549   7.587
  884SOL    HW2 3105   1.477   0.543   7.553
  885SOL     OW 3106   0.524   0.278   7.774
  885SOL    HW1 3107   0.568   0.226   7.706
  885SOL    HW2 3108   0.499   0.359   7.729
  886SOL     OW 3109   0.712   1.063   7.812
  886SOL    HW1 3110   0.689   1.045   7.904
  886SOL    HW2 3111   0.789   1.009   7.795
  887SOL     OW 3112   0.336   1.101   7.921
  887SOL    HW1 3113   0.328   1.185   7.876
  887SOL    HW2 3114   0.338   1.036   7.850
  888SOL     OW 3115   1.216   1.357   7.822
  888SOL    HW1 3116   1.272   1.433   7.841
  888SOL    HW2 3117   1.205   1.314   7.906
  889SOL     OW 3118   1.588   0.618   7.917
  889SOL    HW1 3119   1.582   0.676   7.993
  889SOL    HW2 3120   1.618   0.675   7.846
  890SOL     OW 3121   1.199   0.520   7.709
  890SOL    HW1 3122   1.198   0.434   7.750
  890SOL    HW2 3123   1.185   0.581   7.782
  891SOL     OW 3124   1.622   0.375   7.806
  891SOL    HW1 3125   1.643   0.307   7.870
  891SOL    HW2 3126   1.597   0.451   7.859
  892SOL     OW 3127   1.525   0.268   7.573
  892SOL    HW1 3128   1.463   0.202   7.605
  892SOL    HW2 3129   1.562   0.307   7.652
  893SOL     OW 3130   1.289   0.826   7.478
  893SOL    HW1 3131   1.330   0.739   7.480
  893SOL    HW2 3132   1.321   0.865   7.396
  894SOL     OW 3133   0.009   1.330   7.652
  894SOL    HW1 3134   5.230   1.325   7.598
  894SOL    HW2 3135   0.017   1.242   7.690
  895SOL     OW 3136   0.849   0.625   7.750
  895SOL    HW1 3137   0.847   0.532   7.726
  895SOL    HW2 3138   0.756   0.650   7.757
  896SOL     OW 3139   0.455   0.494   7.622
  896SOL    HW1 3140   0.519   0.561   7.645
  896SOL    HW2 3141   0.373   0.542   7.612
  897SOL     OW 3142   1.316   0.857   7.750
  897SOL    HW1 3143   1.230   0.868   7.791
  897SOL    HW2 3144   1.296   0.842   7.657
  898SOL     OW 3145   1.710   0.137   7.940
  898SOL    HW1 3146   1.783   0.136   7.877
  898SOL    HW2 3147   1.744   0.092   8.017
  899SOL     OW 3148   1.357   1.580   7.891
  899SOL    HW1 3149   1.433   1.599   7.837
  899SOL    HW2 3150   1.329   1.666   7.924
  900SOL     OW 3151   0.667   1.623   7.602
  900SOL    HW1 3152   0.680   1.637   7.508
  900SOL    HW2 3153   0.611   1.545   7.607
  901SOL     OW 3154   1.211   1.603   7.479
  901SOL    HW1 3155   1.198   1.512   7.506
  901SOL    HW2 3156   1.144   1.619   7.413
  902SOL     OW 3157   0.920   0.901   7.756
  902SOL    HW1 3158   0.975   0.922   7.681
  902SOL    HW2 3159   0.911   0.806   7.754
  903SOL     OW 3160   1.491   1.631   7.490
  903SOL    HW1 3161   1.397   1.620   7.476
  903SOL    HW2 3162   1.528   1.635   7.401
  904SOL     OW 3163   0.617   1.514   7.935
  904SOL    HW1 3164   0.662   1.453   7.876
  904SOL    HW2 3165   0.536   1.536   7.889
  905SOL     OW 3166   0.263   1.344   7.749
  905SOL    HW1 3167   0.171   1.348   7.721
  905SOL    HW2 3168   0.263   1.380   7.838
  906SOL     OW 3169   0.082   0.331   7.480
  906SOL    HW1 3170   5.288   0.315   7.483
  906SOL    HW2 3171   0.093   0.405   7.420
  907SOL     OW 3172   0.068   0.146   7.731
  907SOL    HW1 3173   0.067   0.241   7.714
  907SOL    HW2 3174   0.158   0.120   7.710
  908SOL     OW 3175   1.170   1.335   7.555
  908SOL    HW1 3176   1.077   1.314   7.551
  908SOL    HW2 3177   1.190   1.341   7.649
  909SOL     OW 3178   1.220   0.313   7.917
  909SOL    HW1 3179   1.289   0.247   7.911
  909SOL    HW2 3180   1.241   0.363   7.995
  910SOL     OW 3181   0.629   0.761   8.028
  910SOL    HW1 3182   0.629   0.822   0.021
  910SOL    HW2 3183   0.537   0.741   8.012
  911SOL     OW 3184   0.867   1.366   7.493
  911SOL    HW1 3185   0.826   1.399   7.573
  911SOL    HW2 3186   0.882   1.445   7.441
  912SOL     OW 3187   1.064   0.969   7.536
  912SOL    HW1 3188   1.049   1.032   7.466
  912SOL    HW2 3189   1.144   0.923   7.511
  913SOL     OW 3190   0.406   0.435   7.986
  913SOL    HW1 3191   0.448   0.369   7.931
  913SOL    HW2 3192   0.449   0.426   8.071
  914SOL     OW 3193   0.765   1.338   7.772
  914SOL    HW1 3194   0.738   1.246   7.773
  914SOL    HW2 3195   0.850   1.339   7.816
  915SOL     OW 3196   1.367   0.034   7.619
  915SOL    HW1 3197   1.380   5.282   7.539
  915SOL    HW2 3198   1.284   0.002   7.655
  916SOL     OW 3199   0.051   1.067   7.719
  916SOL    HW1 3200   0.139   1.030   7.713
  916SOL    HW2 3201   0.004   1.008   7.777
  917SOL     OW 3202   0.894   1.659   7.774
  917SOL    HW1 3203   0.818   1.634   7.723
  917SOL    HW2 3204   0.860   1.718   7.841
  918SOL     OW 3205   0.214   2.470   0.127
  918SOL    HW1 3206   0.153   2.406   0.164
  918SOL    HW2 3207   0.226   2.442   0.036
  919SOL     OW 3208   0.244   2.137   0.985
  919SOL    HW1 3209   0.258   2.102   1.073
  919SOL    HW2 3210   0.158   2.104   0.959
  920SOL     OW 3211   5.293   2.264   0.643
  920SOL    HW1 3212   5.202   2.292   0.653
  920SOL    HW2 3213   5.288   2.170   0.629
  921SOL     OW 3214   0.581   3.157   1.194
  921SOL    HW1 3215   0.499   3.162   1.145
  921SOL    HW2 3216   0.595   3.246   1.227
  922SOL     OW 3217   1.571   3.377   0.710
  922SOL    HW1 3218   1.527   3.353   0.792
  922SOL    HW2 3219   1.500   3.380   0.646
  923SOL     OW 3220   1.134   2.560   0.697
  923SOL    HW1 3221   1.181   2.643   0.684
  923SOL    HW2 3222   1.086   2.573   0.779
  924SOL     OW 3223   1.776   2.459   0.230
  924SOL    HW1 3224   1.727   2.472   0.149
  924SOL    HW2 3225   1.735   2.383   0.270
  925SOL     OW 3226   0.747   2.998   1.046
  925SOL    HW1 3227   0.685   3.035   1.108
  925SOL    HW2 3228   0.785   3.074   1.001
  926SOL     OW 3229   0.876   2.624   1.825
  926SOL    HW1 3230   0.866   2.695   1.888
  926SOL    HW2 3231   0.897   2.669   1.742
  927SOL     OW 3232   0.683   2.855   0.649
  927SOL    HW1 3233   0.750   2.849   0.717
  927SOL    HW2 3234   0.617   2.913   0.687
  928SOL     OW 3235   0.713   3.011   1.820
  928SOL    HW1 3236   0.761   3.088   1.850
  928SOL    HW2 3237   0.634   3.047   1.779
  929SOL     OW 3238   0.360   3.264   1.062
  929SOL    HW1 3239   0.271   3.259   1.026
  929SOL    HW2 3240   0.406   3.325   1.005
  930SOL     OW 3241   1.459   3.364   1.361
  930SOL    HW1 3242   1.513   3.442   1.371
  930SOL    HW2 3243   1.391   3.374   1.427
  931SOL     OW 3244   0.454   2.259   1.483
  931SOL    HW1 3245   0.528   2.199   1.490
  931SOL    HW2 3246   0.377   2.203   1.498
  932SOL     OW 3247   1.606   2.305   0.745
  932SOL    HW1 3248   1.533   2.323   0.685
  932SOL    HW2 3249   1.607   2.380   0.804
  933SOL     OW 3250   0.220   3.598   0.459
  933SOL    HW1 3251   0.257   3.654   0.528
  933SOL    HW2 3252   0.296   3.573   0.406
  934SOL     OW 3253   1.138   3.204   1.694
  934SOL    HW1 3254   1.179   3.198   1.780
  934SOL    HW2 3255   1.086   3.124   1.686
  935SOL     OW 3256   0.218   3.316   0.527
  935SOL    HW1 3257   0.193   3.408   0.539
  935SOL    HW2 3258   0.166   3.268   0.591
  936SOL     OW 3259   0.263   2.938   0.878
  936SOL    HW1 3260   0.266   2.848   0.911
  936SOL    HW2 3261   0.205   2.984   0.938
  937SOL     OW 3262   0.606   3.652   1.432
  937SOL    HW1 3263   0.522   3.636   1.475
  937SOL    HW2 3264   0.628   3.742   1.456
  938SOL     OW 3265   0.606   2.819   0.151
  938SOL    HW1 3266   0.566   2.898   0.114
  938SOL    HW2 3267   0.666   2.851   0.218
  939SOL     OW 3268   1.596   1.989   1.464
  939SOL    HW1 3269   1.617   2.070   1.418
  939SOL    HW2 3270   1.576   2.018   1.553
  940SOL     OW 3271   0.130   2.496   0.585
  940SOL    HW1 3272   0.086   2.413   0.606
  940SOL    HW2 3273   0.102   2.556   0.654
  941SOL     OW 3274   1.850   3.616   0.324
  941SOL    HW1 3275   1.918   3.588   0.385
  941SOL    HW2 3276   1.870   3.708   0.306
  942SOL     OW 3277   0.027   3.435   0.103
  942SOL    HW1 3278   0.018   3.351   0.149
  942SOL    HW2 3279   0.009   3.501   0.170
  943SOL     OW 3280   1.688   2.781   0.647
  943SOL    HW1 3281   1.768   2.736   0.620
  943SOL    HW2 3282   1.664   2.834   0.571
  944SOL     OW 3283   1.649   2.963   0.435
  944SOL    HW1 3284   1.731   2.972   0.386
  944SOL    HW2 3285   1.656   3.028   0.505
  945SOL     OW 3286   0.138   2.612   1.581
  945SOL    HW1 3287   0.233   2.624   1.578
  945SOL    HW2 3288   0.103   2.698   1.601
  946SOL     OW 3289   0.619   3.253   0.732
  946SOL    HW1 3290   0.572   3.171   0.743
  946SOL    HW2 3291   0.602   3.279   0.641
  947SOL     OW 3292   1.285   3.097   1.421
  947SOL    HW1 3293   1.316   3.029   1.361
  947SOL    HW2 3294   1.345   3.092   1.496
  948SOL     OW 3295   0.829   1.869   0.518
  948SOL    HW1 3296   0.868   1.953   0.492
  948SOL    HW2 3297   0.735   1.886   0.520
  949SOL     OW 3298   0.167   2.799   1.282
  949SOL    HW1 3299   0.258   2.768   1.276
  949SOL    HW2 3300   0.134   2.795   1.193
  950SOL     OW 3301   1.500   2.877   0.218
  950SOL    HW1 3302   1.438   2.813   0.253
  950SOL    HW2 3303   1.556   2.899   0.292
  951SOL     OW 3304   1.184   3.675   1.626
  951SOL    HW1 3305   1.189   3.736   1.553
  951SOL    HW2 3306   1.202   3.590   1.587
  952SOL     OW 3307   0.350   2.118   1.832
  952SOL    HW1 3308   0.394   2.201   1.853
  952SOL    HW2 3309   0.259   2.132   1.858
  953SOL     OW 3310   1.468   3.281   0.947
  953SOL    HW1 3311   1.401   3.297   1.014
  953SOL    HW2 3312   1.454   3.190   0.921
  954SOL     OW 3313   1.655   3.616   0.582
  954SOL    HW1 3314   1.634   3.584   0.494
  954SOL    HW2 3315   1.636   3.542   0.640
  955SOL     OW 3316   0.596   2.569   0.286
  955SOL    HW1 3317   0.613   2.653   0.242
  955SOL    HW2 3318   0.532   2.590   0.353
  956SOL     OW 3319   1.279   2.227   0.934
  956SOL    HW1 3320   1.190   2.193   0.942
  956SOL    HW2 3321   1.331   2.172   0.993
  957SOL     OW 3322   1.588   3.534   0.323
  957SOL    HW1 3323   1.680   3.559   0.314
  957SOL    HW2 3324   1.558   3.517   0.234
  958SOL     OW 3325   0.791   2.479   1.447
  958SOL    HW1 3326   0.765   2.453   1.536
  958SOL    HW2 3327   0.757   2.410   1.391
  959SOL     OW 3328   1.392   2.336   1.678
  959SOL    HW1 3329   1.396   2.381   1.762
  959SOL    HW2 3330   1.450   2.260   1.688
  960SOL     OW 3331   0.950   2.747   1.586
  960SOL    HW1 3332   1.005   2.679   1.548
  960SOL    HW2 3333   0.901   2.784   1.512
  961SOL     OW 3334   0.994   2.271   1.233
  961SOL    HW1 3335   0.905   2.288   1.263
  961SOL    HW2 3336   0.983   2.229   1.148
  962SOL     OW 3337   1.056   2.561   0.428
  962SOL    HW1 3338   1.074   2.556   0.521
  962SOL    HW2 3339   0.972   2.516   0.416
  963SOL     OW 3340   0.063   2.654   0.810
  963SOL    HW1 3341   0.143   2.657   0.864
  963SOL    HW2 3342   0.074   2.725   0.747
  964SOL     OW 3343   0.123   3.750   1.587
  964SOL    HW1 3344   0.132   3.727   1.680
  964SOL    HW2 3345   0.058   3.688   1.553
  965SOL     OW 3346   0.887   2.218   0.206
  965SOL    HW1 3347   0.931   2.271   0.139
  965SOL    HW2 3348   0.886   2.129   0.171
  966SOL     OW 3349   1.704   2.432   1.830
  966SOL    HW1 3350   1.669   2.506   1.780
  966SOL    HW2 3351   1.732   2.370   1.763
  967SOL     OW 3352   1.380   3.004   0.541
  967SOL    HW1 3353   1.459   2.993   0.487
  967SOL    HW2 3354   1.326   3.066   0.492
  968SOL     OW 3355   0.560   2.044   0.897
  968SOL    HW1 3356   0.557   2.072   0.988
  968SOL    HW2 3357   0.556   2.125   0.847
  969SOL     OW 3358   0.996   3.304   0.468
  969SOL    HW1 3359   0.965   3.380   0.418
  969SOL    HW2 3360   0.973   3.324   0.559
  970SOL     OW 3361   0.360   3.668   0.871
  970SOL    HW1 3362   0.399   3.582   0.884
  970SOL    HW2 3363   0.424   3.730   0.907
  971SOL     OW 3364   1.800   2.911   0.873
  971SOL    HW1 3365   1.747   2.893   0.796
  971SOL    HW2 3366   1.736   2.919   0.944
  972SOL     OW 3367   1.227   3.402   1.513
  972SOL    HW1 3368   1.215   3.330   1.574
  972SOL    HW2 3369   1.158   3.390   1.447
  973SOL     OW 3370   0.332   2.815   0.264
  973SOL    HW1 3371   0.414   2.818   0.214
  973SOL    HW2 3372   0.306   2.723   0.263
  974SOL     OW 3373   1.481   2.610   0.722
  974SOL    HW1 3374   1.477   2.571   0.809
  974SOL    HW2 3375   1.558   2.667   0.724
  975SOL     OW 3376   0.469   3.130   1.738
  975SOL    HW1 3377   0.442   3.135   1.646
  975SOL    HW2 3378   0.387   3.129   1.787
  976SOL     OW 3379   1.107   3.644   0.218
  976SOL    HW1 3380   1.047   3.604   0.282
  976SOL    HW2 3381   1.131   3.572   0.159
  977SOL     OW 3382   0.207   2.136   1.496
  977SOL    HW1 3383   0.130   2.189   1.477
  977SOL    HW2 3384   0.171   2.055   1.533
  978SOL     OW 3385   1.635   3.233   0.084
  978SOL    HW1 3386   1.594   3.319   0.085
  978SOL    HW2 3387   1.564   3.172   0.064
  979SOL     OW 3388   0.471   3.591   0.326
  979SOL    HW1 3389   0.516   3.653   0.384
  979SOL    HW2 3390   0.538   3.564   0.264
  980SOL     OW 3391   1.408   1.973   0.452
  980SOL    HW1 3392   1.401   1.951   0.359
  980SOL    HW2 3393   1.502   1.979   0.468
  981SOL     OW 3394   0.277   3.662   1.201
  981SOL    HW1 3395   0.306   3.580   1.242
  981SOL    HW2 3396   0.219   3.635   1.130
  982SOL     OW 3397   0.940   3.562   0.896
  982SOL    HW1 3398   1.019   3.513   0.918
  982SOL    HW2 3399   0.899   3.511   0.826
  983SOL     OW 3400   0.380   2.560   0.475
  983SOL    HW1 3401   0.411   2.469   0.485
  983SOL    HW2 3402   0.289   2.558   0.503
  984SOL     OW 3403   1.528   2.086   1.724
  984SOL    HW1 3404   1.539   2.106   1.817
  984SOL    HW2 3405   1.459   2.020   1.721
  985SOL     OW 3406   0.629   1.969   0.141
  985SOL    HW1 3407   0.724   1.958   0.144
  985SOL    HW2 3408   0.605   1.952   0.050
  986SOL     OW 3409   0.764   2.141   1.756
  986SOL    HW1 3410   0.844   2.089   1.753
  986SOL    HW2 3411   0.717   2.109   1.834
  987SOL     OW 3412   0.878   3.386   1.193
  987SOL    HW1 3413   0.859   3.347   1.108
  987SOL    HW2 3414   0.946   3.330   1.230
  988SOL     OW 3415   1.338   2.451   1.433
  988SOL    HW1 3416   1.369   2.421   1.518
  988SOL    HW2 3417   1.375   2.539   1.424
  989SOL     OW 3418   0.819   3.250   0.946
  989SOL    HW1 3419   0.904   3.239   0.904
  989SOL    HW2 3420   0.757   3.258   0.873
  990SOL     OW 3421   0.929   2.371   0.899
  990SOL    HW1 3422   0.904   2.362   0.807
  990SOL    HW2 3423   0.958   2.284   0.925
  991SOL     OW 3424   0.563   1.924   0.497
  991SOL    HW1 3425   0.488   1.922   0.557
  991SOL    HW2 3426   0.550   2.002   0.444
  992SOL     OW 3427   1.430   3.063   0.033
  992SOL    HW1 3428   1.453   2.991   0.092
  992SOL    HW2 3429   1.344   3.091   0.063
  993SOL     OW 3430   0.317   1.915   0.186
  993SOL    HW1 3431   0.386   1.981   0.191
  993SOL    HW2 3432   0.356   1.837   0.224
  994SOL     OW 3433   0.946   2.113   0.457
  994SOL    HW1 3434   0.918   2.152   0.373
  994SOL    HW2 3435   1.040   2.130   0.461
  995SOL     OW 3436   1.080   2.546   1.457
  995SOL    HW1 3437   1.014   2.477   1.460
  995SOL    HW2 3438   1.163   2.500   1.451
  996SOL     OW 3439   1.219   3.434   0.795
  996SOL    HW1 3440   1.233   3.499   0.726
  996SOL    HW2 3441   1.289   3.452   0.859
  997SOL     OW 3442   0.473   3.017   0.725
  997SOL    HW1 3443   0.405   2.995   0.789
  997SOL    HW2 3444   0.431   3.005   0.640
  998SOL     OW 3445   1.263   3.654   0.612
  998SOL    HW1 3446   1.315   3.718   0.563
  998SOL    HW2 3447   1.193   3.706   0.652
  999SOL     OW 3448   1.031   2.382   0.038
  999SOL    HW1 3449   0.998   2.466   0.007
  999SOL    HW2 3450   1.096   2.404   0.105
 1000SOL     OW 3451   0.094   2.402   1.400
 1000SOL    HW1 3452   0.181   2.411   1.363
 1000SOL    HW2 3453   0.083   2.480   1.455
 1001SOL     OW 3454   0.561   2.090   1.170
 1001SOL    HW1 3455   0.598   2.013   1.212
 1001SOL    HW2 3456   0.468   2.090   1.196
 1002SOL     OW 3457   0.867   2.319   0.638
 1002SOL    HW1 3458   0.827   2.375   0.572
 1002SOL    HW2 3459   0.890   2.239   0.591
 1003SOL     OW 3460   1.019   1.915   0.745
 1003SOL    HW1 3461   0.958   1.909   0.671
 1003SOL    HW2 3462   0.995   1.841   0.802
 1004SOL     OW 3463   1.440   3.022   0.856
 1004SOL    HW1 3464   1.367   2.959   0.857
 1004SOL    HW2 3465   1.463   3.031   0.764
 1005SOL     OW 3466   1.466   2.471   0.967
 1005SOL    HW1 3467   1.408   2.395   0.971
 1005SOL    HW2 3468   1.522   2.463   1.044
 1006SOL     OW 3469   1.851   2.672   0.391
 1006SOL    HW1 3470   1.904   2.619   0.451
 1006SOL    HW2 3471   1.821   2.610   0.325
 1007SOL     OW 3472   0.486   3.302   0.174
 1007SOL    HW1 3473   0.411   3.270   0.223
 1007SOL    HW2 3474   0.498   3.238   0.103
 1008SOL     OW 3475   1.676   3.127   0.644
 1008SOL    HW1 3476   1.771   3.126   0.660
 1008SOL    HW2 3477   1.649   3.216   0.665
 1009SOL     OW 3478   1.397   2.433   0.088
 1009SOL    HW1 3479   1.334   2.418   0.159
 1009SOL    HW2 3480   1.446   2.351   0.082
 1010SOL     OW 3481   0.511   2.126   0.321
 1010SOL    HW1 3482   0.565   2.075   0.261
 1010SOL    HW2 3483   0.495   2.209   0.275
 1011SOL     OW 3484   1.748   3.105   1.562
 1011SOL    HW1 3485   1.835   3.067   1.553
 1011SOL    HW2 3486   1.763   3.194   1.592
 1012SOL     OW 3487   1.054   3.215   1.331
 1012SOL    HW1 3488   0.979   3.184   1.381
 1012SOL    HW2 3489   1.129   3.173   1.373
 1013SOL     OW 3490   1.609   3.490   1.658
 1013SOL    HW1 3491   1.601   3.524   1.569
 1013SOL    HW2 3492   1.691   3.440   1.657
 1014SOL     OW 3493   1.135   3.072   1.102
 1014SOL    HW1 3494   1.075   3.110   1.166
 1014SOL    HW2 3495   1.106   3.107   1.018
 1015SOL     OW 3496   1.622   2.957   1.076
 1015SOL    HW1 3497   1.615   3.021   1.147
 1015SOL    HW2 3498   1.547   2.976   1.020
 1016SOL     OW 3499   0.919   1.955   1.392
 1016SOL    HW1 3500   0.941   1.937   1.301
 1016SOL    HW2 3501   0.998   1.994   1.429
 1017SOL     OW 3502   0.984   2.977   1.723
 1017SOL    HW1 3503   0.893   2.994   1.747
 1017SOL    HW2 3504   0.981   2.898   1.669
 1018SOL     OW 3505   0.721   2.927   0.383
 1018SOL    HW1 3506   0.701   2.905   0.474
 1018SOL    HW2 3507   0.798   2.875   0.362
 1019SOL     OW 3508   0.420   2.687   1.256
 1019SOL    HW1 3509   0.489   2.695   1.322
 1019SOL    HW2 3510   0.389   2.597   1.265
 1020SOL     OW 3511   1.263   2.236   1.281
 1020SOL    HW1 3512   1.295   2.314   1.326
 1020SOL    HW2 3513   1.172   2.257   1.259
 1021SOL     OW 3514   0.104   3.481   1.363
 1021SOL    HW1 3515   0.083   3.484   1.270
 1021SOL    HW2 3516   0.192   3.445   1.366
 1022SOL     OW 3517   0.342   2.979   0.485
 1022SOL    HW1 3518   0.334   3.059   0.432
 1022SOL    HW2 3519   0.353   2.909   0.420
 1023SOL     OW 3520   0.549   2.391   0.858
 1023SOL    HW1 3521   0.562   2.450   0.784
 1023SOL    HW2 3522   0.615   2.417   0.922
 1024SOL     OW 3523   1.245   3.209   0.396
 1024SOL    HW1 3524   1.300   3.282   0.426
 1024SOL    HW2 3525   1.157   3.232   0.427
 1025SOL     OW 3526   1.290   3.323   1.148
 1025SOL    HW1 3527   1.345   3.328   1.227
 1025SOL    HW2 3528   1.234   3.247   1.164
 1026SOL     OW 3529   1.577   2.481   0.488
 1026SOL    HW1 3530   1.527   2.526   0.556
 1026SOL    HW2 3531   1.603   2.551   0.428
 1027SOL     OW 3532   0.353   3.383   1.308
 1027SOL    HW1 3533   0.342   3.338   1.224
 1027SOL    HW2 3534   0.447   3.400   1.314
 1028SOL     OW 3535   0.419   2.603   1.603
 1028SOL    HW1 3536   0.482   2.648   1.547
 1028SOL    HW2 3537   0.456   2.516   1.616
 1029SOL     OW 3538   1.608   2.642   1.687
 1029SOL    HW1 3539   1.522   2.684   1.681
 1029SOL    HW2 3540   1.660   2.684   1.618
 1030SOL     OW 3541   0.996   1.995   1.755
 1030SOL    HW1 3542   1.054   2.068   1.732
 1030SOL    HW2 3543   1.045   1.917   1.729
 1031SOL     OW 3544   0.496   1.899   1.751
 1031SOL    HW1 3545   0.449   1.848   1.685
 1031SOL    HW2 3546   0.441   1.976   1.766
 1032SOL     OW 3547   0.586   2.737   1.035
 1032SOL    HW1 3548   0.620   2.826   1.035
 1032SOL    HW2 3549   0.529   2.733   1.111
 1033SOL     OW 3550   1.348   2.720   1.021
 1033SOL    HW1 3551   1.261   2.705   0.982
 1033SOL    HW2 3552   1.393   2.636   1.011
 1034SOL     OW 3553   1.198   2.387   0.269
 1034SOL    HW1 3554   1.207   2.309   0.324
 1034SOL    HW2 3555   1.156   2.452   0.326
 1035SOL     OW 3556   0.301   2.063   1.245
 1035SOL    HW1 3557   0.268   2.086   1.332
 1035SOL    HW2 3558   0.290   1.969   1.238
 1036SOL     OW 3559   0.053   3.172   1.276
 1036SOL    HW1 3560   0.086   3.117   1.347
 1036SOL    HW2 3561   5.282   3.223   1.316
 1037SOL     OW 3562   0.719   2.490   1.052
 1037SOL    HW1 3563   0.797   2.479   0.997
 1037SOL    HW2 3564   0.691   2.580   1.035
 1038SOL     OW 3565   1.738   2.821   1.859
 1038SOL    HW1 3566   1.694   2.754   1.806
 1038SOL    HW2 3567   1.678   2.839   1.930
 1039SOL     OW 3568   0.325   1.925   0.634
 1039SOL    HW1 3569   0.310   2.016   0.662
 1039SOL    HW2 3570   0.334   1.876   0.716
 1040SOL     OW 3571   1.630   2.243   0.364
 1040SOL    HW1 3572   1.654   2.175   0.427
 1040SOL    HW2 3573   1.602   2.317   0.417
 1041SOL     OW 3574   1.030   2.620   0.958
 1041SOL    HW1 3575   1.020   2.636   1.052
 1041SOL    HW2 3576   1.002   2.528   0.947
 1042SOL     OW 3577   0.981   3.428   1.722
 1042SOL    HW1 3578   0.965   3.472   1.638
 1042SOL    HW2 3579   1.025   3.346   1.698
 1043SOL     OW 3580   1.851   3.363   1.604
 1043SOL    HW1 3581   1.873   3.391   1.515
 1043SOL    HW2 3582   1.931   3.377   1.654
 1044SOL     OW 3583   0.357   2.781   1.807
 1044SOL    HW1 3584   0.436   2.800   1.856
 1044SOL    HW2 3585   0.383   2.715   1.742
 1045SOL     OW 3586   1.505   2.173   0.128
 1045SOL    HW1 3587   1.459   2.090   0.146
 1045SOL    HW2 3588   1.551   2.193   0.210
 1046SOL     OW 3589   1.299   2.681   0.021
 1046SOL    HW1 3590   1.335   2.593   0.035
 1046SOL    HW2 3591   1.365   2.726   8.048
 1047SOL     OW 3592   1.070   3.201   0.858
 1047SOL    HW1 3593   1.075   3.129   0.794
 1047SOL    HW2 3594   1.127   3.269   0.821
 1048SOL     OW 3595   0.310   2.668   0.949
 1048SOL    HW1 3596   0.403   2.688   0.946
 1048SOL    HW2 3597   0.305   2.578   0.980
 1049SOL     OW 3598   0.331   2.389   1.017
 1049SOL    HW1 3599   0.296   2.301   1.004
 1049SOL    HW2 3600   0.407   2.394   0.958
 1050SOL     OW 3601   1.134   2.234   1.686
 1050SOL    HW1 3602   1.086   2.288   1.748
 1050SOL    HW2 3603   1.221   2.274   1.681
 1051SOL     OW 3604   1.161   2.060   1.472
 1051SOL    HW1 3605   1.149   2.122   1.543
 1051SOL    HW2 3606   1.203   2.110   1.402
 1052SOL     OW 3607   0.017   3.176   0.200
 1052SOL    HW1 3608   5.253   3.147   0.134
 1052SOL    HW2 3609   0.015   3.107   0.267
 1053SOL     OW 3610   0.100   3.644   0.954
 1053SOL    HW1 3611   0.061   3.580   0.895
 1053SOL    HW2 3612   0.187   3.662   0.918
 1054SOL     OW 3613   0.504   3.435   0.908
 1054SOL    HW1 3614   0.570   3.501   0.927
 1054SOL    HW2 3615   0.546   3.376   0.846
 1055SOL     OW 3616   0.973   2.648   1.223
 1055SOL    HW1 3617   1.033   2.630   1.296
 1055SOL    HW2 3618   0.889   2.610   1.251
 1056SOL     OW 3619   0.030   2.427   1.119
 1056SOL    HW1 3620   0.119   2.413   1.087
 1056SOL    HW2 3621   0.035   2.408   1.212
 1057SOL     OW 3622   0.167   2.376   1.714
 1057SOL    HW1 3623   0.229   2.332   1.655
 1057SOL    HW2 3624   0.147   2.459   1.670
 1058SOL     OW 3625   1.381   2.795   1.657
 1058SOL    HW1 3626   1.402   2.888   1.653
 1058SOL    HW2 3627   1.376   2.768   1.565
 1059SOL     OW 3628   0.821   2.431   0.375
 1059SOL    HW1 3629   0.831   2.359   0.313
 1059SOL    HW2 3630   0.744   2.479   0.345
 1060SOL     OW 3631   1.639   2.463   1.179
 1060SOL    HW1 3632   1.629   2.405   1.255
 1060SOL    HW2 3633   1.727   2.444   1.146
 1061SOL     OW 3634   0.254   3.416   1.732
 1061SOL    HW1 3635   0.235   3.480   1.801
 1061SOL    HW2 3636   0.252   3.331   1.777
 1062SOL     OW 3637   0.714   2.307   1.253
 1062SOL    HW1 3638   0.657   2.234   1.228
 1062SOL    HW2 3639   0.704   2.370   1.182
 1063SOL     OW 3640   0.923   3.540   1.471
 1063SOL    HW1 3641   0.898   3.501   1.387
 1063SOL    HW2 3642   0.917   3.634   1.456
 1064SOL     OW 3643   0.467   2.352   0.174
 1064SOL    HW1 3644   0.531   2.418   0.202
 1064SOL    HW2 3645   0.383   2.398   0.177
 1065SOL     OW 3646   0.146   2.999   1.469
 1065SOL    HW1 3647   0.142   2.954   1.554
 1065SOL    HW2 3648   0.154   2.928   1.405
 1066SOL     OW 3649   1.320   2.905   1.219
 1066SOL    HW1 3650   1.341   2.842   1.151
 1066SOL    HW2 3651   1.254   2.962   1.180
 1067SOL     OW 3652   1.306   2.707   0.309
 1067SOL    HW1 3653   1.228   2.676   0.357
 1067SOL    HW2 3654   1.284   2.694   0.217
 1068SOL     OW 3655   1.778   3.599   1.156
 1068SOL    HW1 3656   1.839   3.625   1.087
 1068SOL    HW2 3657   1.752   3.510   1.133
 1069SOL     OW 3658   1.240   3.595   1.105
 1069SOL    HW1 3659   1.323   3.619   1.064
 1069SOL    HW2 3660   1.250   3.502   1.126
 1070SOL     OW 3661   0.081   3.064   1.027
 1070SOL    HW1 3662   0.066   3.094   1.117
 1070SOL    HW2 3663   5.293   3.059   0.988
 1071SOL     OW 3664   0.679   3.534   1.738
 1071SOL    HW1 3665   0.618   3.607   1.729
 1071SOL    HW2 3666   0.746   3.549   1.672
 1072SOL     OW 3667   0.905   1.954   0.127
 1072SOL    HW1 3668   0.913   1.933   0.034
 1072SOL    HW2 3669   0.974   1.902   0.169
 1073SOL     OW 3670   1.726   2.015   0.506
 1073SOL    HW1 3671   1.794   1.996   0.442
 1073SOL    HW2 3672   1.707   1.931   0.548
 1074SOL     OW 3673   1.392   3.430   0.493
 1074SOL    HW1 3674   1.453   3.464   0.428
 1074SOL    HW2 3675   1.342   3.507   0.521
 1075SOL     OW 3676   0.150   3.659   1.843
 1075SOL    HW1 3677   0.096   3.597   1.891
 1075SOL    HW2 3678   0.202   3.703   1.910
 1076SOL     OW 3679   1.278   2.790   0.672
 1076SOL    HW1 3680   1.351   2.730   0.680
 1076SOL    HW2 3681   1.311   2.861   0.618
 1077SOL     OW 3682   0.805   3.138   1.424
 1077SOL    HW1 3683   0.776   3.180   1.505
 1077SOL    HW2 3684   0.734   3.155   1.362
 1078SOL     OW 3685   0.677   3.487   0.155
 1078SOL    HW1 3686   0.684   3.497   0.060
 1078SOL    HW2 3687   0.616   3.414   0.167
 1079SOL     OW 3688   1.619   3.590   1.391
 1079SOL    HW1 3689   1.673   3.595   1.312
 1079SOL    HW2 3690   1.605   3.681   1.416
 1080SOL     OW 3691   1.842   2.032   0.964
 1080SOL    HW1 3692   1.870   1.944   0.941
 1080SOL    HW2 3693   1.755   2.041   0.926
 1081SOL     OW 3694   0.271   2.179   0.714
 1081SOL    HW1 3695   0.187   2.223   0.699
 1081SOL    HW2 3696   0.275   2.169   0.809
 1082SOL     OW 3697   1.165   3.439   0.051
 1082SOL    HW1 3698   1.172   3.346   0.076
 1082SOL    HW2 3699   1.177   3.439   8.036
 1083SOL     OW 3700   0.824   2.869   1.375
 1083SOL    HW1 3701   0.866   2.863   1.290
 1083SOL    HW2 3702   0.820   2.963   1.394
 1084SOL     OW 3703   0.922   2.774   0.300
 1084SOL    HW1 3704   0.973   2.796   0.222
 1084SOL    HW2 3705   0.971   2.705   0.343
 1085SOL     OW 3706   1.508   3.482   0.063
 1085SOL    HW1 3707   1.414   3.484   0.050
 1085SOL    HW2 3708   1.545   3.492   8.055
 1086SOL     OW 3709   0.366   3.167   1.494
 1086SOL    HW1 3710   0.359   3.240   1.433
 1086SOL    HW2 3711   0.291   3.111   1.474
 1087SOL     OW 3712   1.607   3.146   1.279
 1087SOL    HW1 3713   1.667   3.131   1.352
 1087SOL    HW2 3714   1.547   3.213   1.311
 1088SOL     OW 3715   1.061   2.972   0.712
 1088SOL    HW1 3716   0.988   2.922   0.748
 1088SOL    HW2 3717   1.124   2.906   0.683
 1089SOL     OW 3718   1.025   2.104   0.965
 1089SOL    HW1 3719   1.021   2.057   0.882
 1089SOL    HW2 3720   1.019   2.035   1.031
 1090SOL     OW 3721   0.606   3.346   0.475
 1090SOL    HW1 3722   0.651   3.298   0.407
 1090SOL    HW2 3723   0.535   3.392   0.429
 1091SOL     OW 3724   1.727   2.254   1.380
 1091SOL    HW1 3725   1.799   2.317   1.379
 1091SOL    HW2 3726   1.757   2.183   1.322
 1092SOL     OW 3727   0.273   3.186   0.300
 1092SOL    HW1 3728   0.189   3.190   0.256
 1092SOL    HW2 3729   0.261   3.236   0.381
 1093SOL     OW 3730   0.121   2.878   1.715
 1093SOL    HW1 3731   0.051   2.844   1.771
 1093SOL    HW2 3732   0.201   2.848   1.757
 1094SOL     OW 3733   0.677   2.057   1.500
 1094SOL    HW1 3734   0.761   2.035   1.460
 1094SOL    HW2 3735   0.700   2.090   1.587
 1095SOL     OW 3736   0.045   2.241   0.025
 1095SOL    HW1 3737   0.019   2.166   0.079
 1095SOL    HW2 3738   0.128   2.214   8.065
 1096SOL     OW 3739   1.425   2.719   1.397
 1096SOL    HW1 3740   1.375   2.780   1.343
 1096SOL    HW2 3741   1.514   2.722   1.361
 1097SOL     OW 3742   0.059   2.001   0.201
 1097SOL    HW1 3743   0.060   2.080   0.255
 1097SOL    HW2 3744   0.150   1.972   0.198
 1098SOL     OW 3745   1.182   3.172   0.121
 1098SOL    HW1 3746   1.087   3.169   0.116
 1098SOL    HW2 3747   1.201   3.173   0.215
 1099SOL     OW 3748   0.621   2.693   1.438
 1099SOL    HW1 3749   0.679   2.768   1.422
 1099SOL    HW2 3750   0.681   2.619   1.444
 1100SOL     OW 3751   1.483   3.646   0.983
 1100SOL    HW1 3752   1.505   3.712   0.917
 1100SOL    HW2 3753   1.568   3.620   1.020
 1101SOL     OW 3754   0.718   2.422   1.700
 1101SOL    HW1 3755   0.763   2.481   1.761
 1101SOL    HW2 3756   0.737   2.334   1.734
 1102SOL     OW 3757   1.474   3.056   1.628
 1102SOL    HW1 3758   1.462   3.071   1.722
 1102SOL    HW2 3759   1.566   3.076   1.612
 1103SOL     OW 3760   0.370   3.608   1.566
 1103SOL    HW1 3761   0.288   3.654   1.547
 1103SOL    HW2 3762   0.343   3.527   1.609
 1104SOL     OW 3763   1.664   2.742   1.255
 1104SOL    HW1 3764   1.659   2.657   1.211
 1104SOL    HW2 3765   1.654   2.806   1.184
 1105SOL     OW 3766   1.217   2.180   0.461
 1105SOL    HW1 3767   1.281   2.109   0.456
 1105SOL    HW2 3768   1.245   2.232   0.536
 1106SOL     OW 3769   0.583   2.594   0.673
 1106SOL    HW1 3770   0.624   2.680   0.660
 1106SOL    HW2 3771   0.515   2.591   0.606
 1107SOL     OW 3772   1.757   2.226   1.652
 1107SOL    HW1 3773   1.742   2.242   1.559
 1107SOL    HW2 3774   1.684   2.169   1.679
 1108SOL     OW 3775   1.749   2.794   1.511
 1108SOL    HW1 3776   1.739   2.888   1.525
 1108SOL    HW2 3777   1.730   2.781   1.418
 1109SOL     OW 3778   0.905   3.229   0.054
 1109SOL    HW1 3779   0.845   3.216   0.127
 1109SOL    HW2 3780   0.875   3.309   0.012
 1110SOL     OW 3781   0.667   3.651   0.936
 1110SOL    HW1 3782   0.648   3.742   0.917
 1110SOL    HW2 3783   0.762   3.645   0.931
 1111SOL     OW 3784   0.870   2.832   0.854
 1111SOL    HW1 3785   0.920   2.760   0.892
 1111SOL    HW2 3786   0.832   2.877   0.929
 1112SOL     OW 3787   1.076   2.829   0.084
 1112SOL    HW1 3788   1.071   2.901   0.021
 1112SOL    HW2 3789   1.154   2.780   0.057
 1113SOL     OW 3790   1.847   3.414   0.841
 1113SOL    HW1 3791   1.767   3.403   0.790
 1113SOL    HW2 3792   1.838   3.352   0.913
 1114SOL     OW 3793   0.230   3.163   1.863
 1114SOL    HW1 3794   0.163   3.100   1.836
 1114SOL    HW2 3795   0.216   3.174   1.957
 1115SOL     OW 3796   0.109   3.100   0.665
 1115SOL    HW1 3797   0.108   3.053   0.748
 1115SOL    HW2 3798   0.174   3.055   0.612
 1116SOL     OW 3799   0.685   3.269   1.632
 1116SOL    HW1 3800   0.605   3.228   1.664
 1116SOL    HW2 3801   0.682   3.358   1.668
 1117SOL     OW 3802   1.813   2.044   1.236
 1117SOL    HW1 3803   1.817   1.949   1.249
 1117SOL    HW2 3804   1.823   2.056   1.141
 1118SOL     OW 3805   0.434   2.302   0.523
 1118SOL    HW1 3806   0.464   2.230   0.468
 1118SOL    HW2 3807   0.388   2.260   0.596
 1119SOL     OW 3808   1.698   3.347   1.090
 1119SOL    HW1 3809   1.618   3.328   1.041
 1119SOL    HW2 3810   1.704   3.279   1.156
 1120SOL     OW 3811   0.342   2.427   1.293
 1120SOL    HW1 3812   0.395   2.367   1.347
 1120SOL    HW2 3813   0.355   2.395   1.204
 1121SOL     OW 3814   0.833   3.440   0.675
 1121SOL    HW1 3815   0.812   3.503   0.607
 1121SOL    HW2 3816   0.758   3.380   0.677
 1122SOL     OW 3817   1.429   2.091   1.117
 1122SOL    HW1 3818   1.447   2.007   1.159
 1122SOL    HW2 3819   1.379   2.140   1.182
 1123SOL     OW 3820   1.009   1.879   1.135
 1123SOL    HW1 3821   0.954   1.813   1.093
 1123SOL    HW2 3822   1.096   1.839   1.137
 1124SOL     OW 3823   0.777   3.188   0.309
 1124SOL    HW1 3824   0.748   3.099   0.329
 1124SOL    HW2 3825   0.855   3.201   0.363
 1125SOL     OW 3826   0.625   3.417   1.290
 1125SOL    HW1 3827   0.624   3.499   1.339
 1125SOL    HW2 3828   0.712   3.413   1.251
 1126SOL     OW 3829   1.355   1.917   0.189
 1126SOL    HW1 3830   1.372   1.874   0.105
 1126SOL    HW2 3831   1.268   1.887   0.215
 1127SOL     OW 3832   1.297   2.326   0.679
 1127SOL    HW1 3833   1.245   2.407   0.683
 1127SOL    HW2 3834   1.291   2.290   0.767
 1128SOL     OW 3835   1.584   2.058   0.883
 1128SOL    HW1 3836   1.528   2.082   0.957
 1128SOL    HW2 3837   1.583   2.135   0.826
 1129SOL     OW 3838   0.050   2.930   0.341
 1129SOL    HW1 3839   0.137   2.913   0.305
 1129SOL    HW2 3840   5.299   2.853   0.315
 1130SOL     OW 3841   0.887   3.523   0.345
 1130SOL    HW1 3842   0.816   3.508   0.282
 1130SOL    HW2 3843   0.857   3.596   0.398
 1131SOL     OW 3844   0.230   2.487   1.981
 1131SOL    HW1 3845   0.163   2.444   2.035
 1131SOL    HW2 3846   0.209   2.461   1.892
 1132SOL     OW 3847   0.247   2.138   2.849
 1132SOL    HW1 3848   0.259   2.102   2.937
 1132SOL    HW2 3849   0.160   2.106   2.822
 1133SOL     OW 3850   5.296   2.265   2.518
 1133SOL    HW1 3851   5.203   2.286   2.519
 1133SOL    HW2 3852   0.000   2.177   2.481
 1134SOL     OW 3853   0.580   3.157   3.056
 1134SOL    HW1 3854   0.499   3.162   3.006
 1134SOL    HW2 3855   0.595   3.246   3.088
 1135SOL     OW 3856   1.571   3.376   2.571
 1135SOL    HW1 3857   1.528   3.353   2.653
 1135SOL    HW2 3858   1.500   3.380   2.506
 1136SOL     OW 3859   1.133   2.561   2.557
 1136SOL    HW1 3860   1.181   2.642   2.545
 1136SOL    HW2 3861   1.085   2.572   2.639
 1137SOL     OW 3862   1.778   2.461   2.087
 1137SOL    HW1 3863   1.751   2.456   1.995
 1137SOL    HW2 3864   1.737   2.384   2.128
 1138SOL     OW 3865   0.746   2.997   2.907
 1138SOL    HW1 3866   0.684   3.035   2.970
 1138SOL    HW2 3867   0.785   3.073   2.863
 1139SOL     OW 3868   0.876   2.625   3.687
 1139SOL    HW1 3869   0.866   2.696   3.750
 1139SOL    HW2 3870   0.897   2.669   3.604
 1140SOL     OW 3871   0.685   2.858   2.506
 1140SOL    HW1 3872   0.752   2.850   2.574
 1140SOL    HW2 3873   0.618   2.915   2.545
 1141SOL     OW 3874   0.713   3.012   3.682
 1141SOL    HW1 3875   0.761   3.088   3.712
 1141SOL    HW2 3876   0.634   3.047   3.641
 1142SOL     OW 3877   0.360   3.264   2.923
 1142SOL    HW1 3878   0.269   3.267   2.893
 1142SOL    HW2 3879   0.407   3.325   2.867
 1143SOL     OW 3880   1.457   3.366   3.221
 1143SOL    HW1 3881   1.512   3.444   3.231
 1143SOL    HW2 3882   1.390   3.376   3.289
 1144SOL     OW 3883   0.454   2.259   3.346
 1144SOL    HW1 3884   0.528   2.199   3.352
 1144SOL    HW2 3885   0.377   2.204   3.361
 1145SOL     OW 3886   1.606   2.305   2.606
 1145SOL    HW1 3887   1.533   2.323   2.547
 1145SOL    HW2 3888   1.610   2.381   2.664
 1146SOL     OW 3889   0.241   3.574   2.338
 1146SOL    HW1 3890   0.266   3.647   2.396
 1146SOL    HW2 3891   0.304   3.576   2.267
 1147SOL     OW 3892   1.137   3.204   3.556
 1147SOL    HW1 3893   1.180   3.197   3.642
 1147SOL    HW2 3894   1.086   3.124   3.548
 1148SOL     OW 3895   0.217   3.312   2.407
 1148SOL    HW1 3896   0.226   3.406   2.389
 1148SOL    HW2 3897   0.145   3.307   2.470
 1149SOL     OW 3898   0.256   2.937   2.733
 1149SOL    HW1 3899   0.266   2.849   2.769
 1149SOL    HW2 3900   0.201   2.983   2.797
 1150SOL     OW 3901   0.606   3.652   3.294
 1150SOL    HW1 3902   0.522   3.636   3.337
 1150SOL    HW2 3903   0.628   3.742   3.317
 1151SOL     OW 3904   0.576   2.848   2.002
 1151SOL    HW1 3905   0.626   2.893   1.933
 1151SOL    HW2 3906   0.616   2.879   2.084
 1152SOL     OW 3907   1.595   1.987   3.329
 1152SOL    HW1 3908   1.618   2.066   3.280
 1152SOL    HW2 3909   1.575   2.019   3.417
 1153SOL     OW 3910   0.128   2.491   2.444
 1153SOL    HW1 3911   0.089   2.410   2.476
 1153SOL    HW2 3912   0.100   2.558   2.506
 1154SOL     OW 3913   1.844   3.616   2.193
 1154SOL    HW1 3914   1.913   3.590   2.254
 1154SOL    HW2 3915   1.861   3.708   2.173
 1155SOL     OW 3916   0.039   3.462   1.998
 1155SOL    HW1 3917   0.027   3.370   2.023
 1155SOL    HW2 3918   5.275   3.510   2.050
 1156SOL     OW 3919   1.688   2.780   2.506
 1156SOL    HW1 3920   1.771   2.737   2.484
 1156SOL    HW2 3921   1.666   2.832   2.429
 1157SOL     OW 3922   1.650   2.965   2.292
 1157SOL    HW1 3923   1.736   2.966   2.250
 1157SOL    HW2 3924   1.656   3.029   2.363
 1158SOL     OW 3925   0.138   2.611   3.443
 1158SOL    HW1 3926   0.233   2.624   3.440
 1158SOL    HW2 3927   0.103   2.698   3.463
 1159SOL     OW 3928   0.619   3.252   2.596
 1159SOL    HW1 3929   0.572   3.169   2.605
 1159SOL    HW2 3930   0.601   3.280   2.506
 1160SOL     OW 3931   1.284   3.098   3.282
 1160SOL    HW1 3932   1.315   3.030   3.223
 1160SOL    HW2 3933   1.342   3.092   3.358
 1161SOL     OW 3934   0.829   1.865   2.376
 1161SOL    HW1 3935   0.869   1.949   2.352
 1161SOL    HW2 3936   0.735   1.884   2.379
 1162SOL     OW 3937   0.168   2.799   3.144
 1162SOL    HW1 3938   0.258   2.769   3.138
 1162SOL    HW2 3939   0.134   2.791   3.055
 1163SOL     OW 3940   1.531   2.861   2.063
 1163SOL    HW1 3941   1.462   2.804   2.096
 1163SOL    HW2 3942   1.574   2.895   2.141
 1164SOL     OW 3943   1.184   3.675   3.488
 1164SOL    HW1 3944   1.189   3.736   3.415
 1164SOL    HW2 3945   1.202   3.589   3.450
 1165SOL     OW 3946   0.350   2.118   3.694
 1165SOL    HW1 3947   0.394   2.201   3.714
 1165SOL    HW2 3948   0.259   2.132   3.720
 1166SOL     OW 3949   1.468   3.281   2.809
 1166SOL    HW1 3950   1.400   3.297   2.875
 1166SOL    HW2 3951   1.454   3.190   2.783
 1167SOL     OW 3952   1.652   3.616   2.439
 1167SOL    HW1 3953   1.635   3.582   2.351
 1167SOL    HW2 3954   1.634   3.542   2.497
 1168SOL     OW 3955   0.593   2.579   2.134
 1168SOL    HW1 3956   0.600   2.662   2.087
 1168SOL    HW2 3957   0.528   2.595   2.202
 1169SOL     OW 3958   1.279   2.227   2.796
 1169SOL    HW1 3959   1.190   2.193   2.804
 1169SOL    HW2 3960   1.331   2.172   2.854
 1170SOL     OW 3961   1.579   3.535   2.173
 1170SOL    HW1 3962   1.670   3.560   2.164
 1170SOL    HW2 3963   1.550   3.518   2.083
 1171SOL     OW 3964   0.790   2.480   3.309
 1171SOL    HW1 3965   0.765   2.453   3.398
 1171SOL    HW2 3966   0.756   2.410   3.253
 1172SOL     OW 3967   1.392   2.336   3.540
 1172SOL    HW1 3968   1.396   2.381   3.625
 1172SOL    HW2 3969   1.449   2.259   3.551
 1173SOL     OW 3970   0.950   2.747   3.448
 1173SOL    HW1 3971   1.005   2.679   3.410
 1173SOL    HW2 3972   0.901   2.783   3.374
 1174SOL     OW 3973   0.994   2.271   3.095
 1174SOL    HW1 3974   0.904   2.288   3.125
 1174SOL    HW2 3975   0.984   2.229   3.010
 1175SOL     OW 3976   1.054   2.560   2.286
 1175SOL    HW1 3977   1.072   2.554   2.380
 1175SOL    HW2 3978   0.970   2.515   2.275
 1176SOL     OW 3979   0.065   2.654   2.670
 1176SOL    HW1 3980   0.145   2.658   2.722
 1176SOL    HW2 3981   0.073   2.727   2.609
 1177SOL     OW 3982   0.123   3.750   3.449
 1177SOL    HW1 3983   0.131   3.727   3.542
 1177SOL    HW2 3984   0.058   3.688   3.415
 1178SOL     OW 3985   0.899   2.213   2.057
 1178SOL    HW1 3986   0.938   2.277   1.998
 1178SOL    HW2 3987   0.909   2.129   2.012
 1179SOL     OW 3988   1.709   2.435   3.692
 1179SOL    HW1 3989   1.671   2.508   3.644
 1179SOL    HW2 3990   1.732   2.371   3.625
 1180SOL     OW 3991   1.381   3.003   2.401
 1180SOL    HW1 3992   1.460   2.993   2.349
 1180SOL    HW2 3993   1.328   3.066   2.352
 1181SOL     OW 3994   0.561   2.043   2.759
 1181SOL    HW1 3995   0.558   2.072   2.850
 1181SOL    HW2 3996   0.553   2.123   2.708
 1182SOL     OW 3997   0.999   3.305   2.330
 1182SOL    HW1 3998   0.969   3.380   2.280
 1182SOL    HW2 3999   0.976   3.326   2.421
 1183SOL     OW 4000   0.360   3.670   2.734
 1183SOL    HW1 4001   0.399   3.584   2.747
 1183SOL    HW2 4002   0.425   3.732   2.768
 1184SOL     OW 4003   1.799   2.911   2.734
 1184SOL    HW1 4004   1.746   2.894   2.656
 1184SOL    HW2 4005   1.735   2.919   2.805
 1185SOL     OW 4006   1.226   3.403   3.376
 1185SOL    HW1 4007   1.215   3.330   3.437
 1185SOL    HW2 4008   1.159   3.390   3.309
 1186SOL     OW 4009   0.312   2.813   2.114
 1186SOL    HW1 4010   0.392   2.836   2.069
 1186SOL    HW2 4011   0.290   2.725   2.081
 1187SOL     OW 4012   1.481   2.611   2.583
 1187SOL    HW1 4013   1.478   2.572   2.671
 1187SOL    HW2 4014   1.559   2.666   2.585
 1188SOL     OW 4015   0.469   3.130   3.600
 1188SOL    HW1 4016   0.443   3.135   3.508
 1188SOL    HW2 4017   0.387   3.129   3.649
 1189SOL     OW 4018   1.125   3.640   2.091
 1189SOL    HW1 4019   1.049   3.600   2.134
 1189SOL    HW2 4020   1.149   3.577   2.023
 1190SOL     OW 4021   0.207   2.136   3.359
 1190SOL    HW1 4022   0.130   2.189   3.339
 1190SOL    HW2 4023   0.171   2.055   3.396
 1191SOL     OW 4024   1.628   3.244   1.953
 1191SOL    HW1 4025   1.587   3.329   1.938
 1191SOL    HW2 4026   1.560   3.180   1.932
 1192SOL     OW 4027   0.471   3.597   2.179
 1192SOL    HW1 4028   0.517   3.653   2.241
 1192SOL    HW2 4029   0.541   3.563   2.122
 1193SOL     OW 4030   1.400   1.969   2.302
 1193SOL    HW1 4031   1.392   1.944   2.210
 1193SOL    HW2 4032   1.494   1.974   2.317
 1194SOL     OW 4033   0.277   3.662   3.064
 1194SOL    HW1 4034   0.306   3.579   3.102
 1194SOL    HW2 4035   0.220   3.636   2.992
 1195SOL     OW 4036   0.941   3.562   2.758
 1195SOL    HW1 4037   1.020   3.513   2.780
 1195SOL    HW2 4038   0.900   3.511   2.688
 1196SOL     OW 4039   0.386   2.556   2.339
 1196SOL    HW1 4040   0.415   2.465   2.349
 1196SOL    HW2 4041   0.293   2.553   2.362
 1197SOL     OW 4042   1.529   2.088   3.587
 1197SOL    HW1 4043   1.539   2.108   3.680
 1197SOL    HW2 4044   1.461   2.021   3.584
 1198SOL     OW 4045   0.644   1.980   1.964
 1198SOL    HW1 4046   0.705   1.907   1.981
 1198SOL    HW2 4047   0.591   1.950   1.890
 1199SOL     OW 4048   0.764   2.141   3.618
 1199SOL    HW1 4049   0.844   2.089   3.615
 1199SOL    HW2 4050   0.717   2.109   3.696
 1200SOL     OW 4051   0.877   3.386   3.056
 1200SOL    HW1 4052   0.859   3.347   2.970
 1200SOL    HW2 4053   0.946   3.331   3.092
 1201SOL     OW 4054   1.338   2.451   3.295
 1201SOL    HW1 4055   1.369   2.421   3.380
 1201SOL    HW2 4056   1.374   2.539   3.286
 1202SOL     OW 4057   0.819   3.249   2.808
 1202SOL    HW1 4058   0.904   3.239   2.766
 1202SOL    HW2 4059   0.757   3.257   2.736
 1203SOL     OW 4060   0.929   2.372   2.762
 1203SOL    HW1 4061   0.904   2.363   2.670
 1203SOL    HW2 4062   0.958   2.284   2.787
 1204SOL     OW 4063   0.564   1.923   2.353
 1204SOL    HW1 4064   0.489   1.924   2.413
 1204SOL    HW2 4065   0.552   2.001   2.299
 1205SOL     OW 4066   1.428   3.063   1.901
 1205SOL    HW1 4067   1.457   2.988   1.953
 1205SOL    HW2 4068   1.343   3.086   1.938
 1206SOL     OW 4069   0.307   1.907   2.037
 1206SOL    HW1 4070   0.367   1.974   2.004
 1206SOL    HW2 4071   0.363   1.846   2.085
 1207SOL     OW 4072   0.944   2.112   2.316
 1207SOL    HW1 4073   0.919   2.151   2.233
 1207SOL    HW2 4074   1.038   2.128   2.323
 1208SOL     OW 4075   1.080   2.546   3.319
 1208SOL    HW1 4076   1.014   2.476   3.322
 1208SOL    HW2 4077   1.164   2.500   3.313
 1209SOL     OW 4078   1.219   3.435   2.657
 1209SOL    HW1 4079   1.233   3.500   2.588
 1209SOL    HW2 4080   1.289   3.452   2.720
 1210SOL     OW 4081   0.471   3.016   2.585
 1210SOL    HW1 4082   0.403   2.993   2.649
 1210SOL    HW2 4083   0.430   3.001   2.500
 1211SOL     OW 4084   1.264   3.654   2.474
 1211SOL    HW1 4085   1.312   3.716   2.420
 1211SOL    HW2 4086   1.195   3.706   2.515
 1212SOL     OW 4087   1.024   2.396   1.889
 1212SOL    HW1 4088   0.980   2.479   1.869
 1212SOL    HW2 4089   1.089   2.419   1.955
 1213SOL     OW 4090   0.094   2.400   3.264
 1213SOL    HW1 4091   0.181   2.410   3.225
 1213SOL    HW2 4092   0.083   2.479   3.317
 1214SOL     OW 4093   0.561   2.091   3.033
 1214SOL    HW1 4094   0.598   2.013   3.075
 1214SOL    HW2 4095   0.468   2.090   3.058
 1215SOL     OW 4096   0.867   2.319   2.500
 1215SOL    HW1 4097   0.823   2.375   2.436
 1215SOL    HW2 4098   0.890   2.240   2.451
 1216SOL     OW 4099   1.018   1.916   2.609
 1216SOL    HW1 4100   0.959   1.910   2.534
 1216SOL    HW2 4101   0.995   1.842   2.665
 1217SOL     OW 4102   1.440   3.022   2.719
 1217SOL    HW1 4103   1.368   2.958   2.719
 1217SOL    HW2 4104   1.465   3.030   2.627
 1218SOL     OW 4105   1.465   2.472   2.829
 1218SOL    HW1 4106   1.409   2.395   2.833
 1218SOL    HW2 4107   1.523   2.464   2.905
 1219SOL     OW 4108   1.841   2.672   2.248
 1219SOL    HW1 4109   1.900   2.623   2.305
 1219SOL    HW2 4110   1.817   2.609   2.180
 1220SOL     OW 4111   0.491   3.285   2.015
 1220SOL    HW1 4112   0.416   3.258   2.067
 1220SOL    HW2 4113   0.483   3.235   1.934
 1221SOL     OW 4114   1.676   3.125   2.505
 1221SOL    HW1 4115   1.771   3.125   2.519
 1221SOL    HW2 4116   1.649   3.215   2.526
 1222SOL     OW 4117   1.393   2.435   1.933
 1222SOL    HW1 4118   1.332   2.414   2.003
 1222SOL    HW2 4119   1.478   2.405   1.966
 1223SOL     OW 4120   0.525   2.124   2.172
 1223SOL    HW1 4121   0.576   2.080   2.103
 1223SOL    HW2 4122   0.499   2.207   2.133
 1224SOL     OW 4123   1.726   3.120   3.418
 1224SOL    HW1 4124   1.809   3.084   3.389
 1224SOL    HW2 4125   1.748   3.205   3.457
 1225SOL     OW 4126   1.054   3.215   3.193
 1225SOL    HW1 4127   0.979   3.184   3.243
 1225SOL    HW2 4128   1.129   3.173   3.235
 1226SOL     OW 4129   1.610   3.490   3.520
 1226SOL    HW1 4130   1.600   3.524   3.431
 1226SOL    HW2 4131   1.693   3.442   3.519
 1227SOL     OW 4132   1.134   3.072   2.964
 1227SOL    HW1 4133   1.074   3.110   3.028
 1227SOL    HW2 4134   1.106   3.107   2.880
 1228SOL     OW 4135   1.623   2.960   2.938
 1228SOL    HW1 4136   1.615   3.022   3.011
 1228SOL    HW2 4137   1.547   2.978   2.883
 1229SOL     OW 4138   0.919   1.954   3.254
 1229SOL    HW1 4139   0.941   1.937   3.163
 1229SOL    HW2 4140   0.998   1.994   3.291
 1230SOL     OW 4141   0.984   2.977   3.585
 1230SOL    HW1 4142   0.893   2.994   3.609
 1230SOL    HW2 4143   0.981   2.898   3.531
 1231SOL     OW 4144   0.709   2.924   2.234
 1231SOL    HW1 4145   0.696   2.904   2.326
 1231SOL    HW2 4146   0.785   2.870   2.208
 1232SOL     OW 4147   0.420   2.687   3.118
 1232SOL    HW1 4148   0.490   2.695   3.184
 1232SOL    HW2 4149   0.389   2.597   3.127
 1233SOL     OW 4150   1.263   2.236   3.143
 1233SOL    HW1 4151   1.295   2.314   3.188
 1233SOL    HW2 4152   1.172   2.257   3.121
 1234SOL     OW 4153   0.104   3.481   3.225
 1234SOL    HW1 4154   0.083   3.486   3.132
 1234SOL    HW2 4155   0.192   3.445   3.228
 1235SOL     OW 4156   0.342   2.977   2.342
 1235SOL    HW1 4157   0.339   3.056   2.288
 1235SOL    HW2 4158   0.341   2.904   2.279
 1236SOL     OW 4159   0.549   2.392   2.720
 1236SOL    HW1 4160   0.563   2.451   2.646
 1236SOL    HW2 4161   0.616   2.418   2.784
 1237SOL     OW 4162   1.247   3.212   2.253
 1237SOL    HW1 4163   1.303   3.283   2.284
 1237SOL    HW2 4164   1.160   3.233   2.286
 1238SOL     OW 4165   1.289   3.323   3.009
 1238SOL    HW1 4166   1.344   3.329   3.087
 1238SOL    HW2 4167   1.233   3.246   3.025
 1239SOL     OW 4168   1.578   2.482   2.346
 1239SOL    HW1 4169   1.528   2.528   2.413
 1239SOL    HW2 4170   1.622   2.551   2.296
 1240SOL     OW 4171   0.353   3.383   3.169
 1240SOL    HW1 4172   0.343   3.338   3.086
 1240SOL    HW2 4173   0.447   3.400   3.176
 1241SOL     OW 4174   0.419   2.603   3.465
 1241SOL    HW1 4175   0.482   2.648   3.409
 1241SOL    HW2 4176   0.456   2.516   3.478
 1242SOL     OW 4177   1.607   2.640   3.550
 1242SOL    HW1 4178   1.521   2.682   3.545
 1242SOL    HW2 4179   1.659   2.684   3.483
 1243SOL     OW 4180   0.996   1.995   3.617
 1243SOL    HW1 4181   1.054   2.068   3.595
 1243SOL    HW2 4182   1.045   1.917   3.591
 1244SOL     OW 4183   0.496   1.899   3.613
 1244SOL    HW1 4184   0.449   1.848   3.547
 1244SOL    HW2 4185   0.441   1.976   3.628
 1245SOL     OW 4186   0.586   2.737   2.897
 1245SOL    HW1 4187   0.622   2.826   2.898
 1245SOL    HW2 4188   0.529   2.733   2.974
 1246SOL     OW 4189   1.347   2.721   2.883
 1246SOL    HW1 4190   1.261   2.705   2.844
 1246SOL    HW2 4191   1.393   2.637   2.873
 1247SOL     OW 4192   1.199   2.389   2.124
 1247SOL    HW1 4193   1.208   2.311   2.179
 1247SOL    HW2 4194   1.158   2.454   2.180
 1248SOL     OW 4195   0.301   2.063   3.108
 1248SOL    HW1 4196   0.269   2.085   3.195
 1248SOL    HW2 4197   0.290   1.968   3.101
 1249SOL     OW 4198   0.053   3.172   3.139
 1249SOL    HW1 4199   0.086   3.116   3.209
 1249SOL    HW2 4200   5.282   3.222   3.178
 1250SOL     OW 4201   0.720   2.491   2.915
 1250SOL    HW1 4202   0.797   2.479   2.859
 1250SOL    HW2 4203   0.691   2.580   2.897
 1251SOL     OW 4204   1.720   2.833   3.729
 1251SOL    HW1 4205   1.690   2.762   3.672
 1251SOL    HW2 4206   1.652   2.839   3.796
 1252SOL     OW 4207   0.328   1.924   2.494
 1252SOL    HW1 4208   0.308   2.014   2.518
 1252SOL    HW2 4209   0.336   1.877   2.577
 1253SOL     OW 4210   1.623   2.241   2.222
 1253SOL    HW1 4211   1.650   2.176   2.286
 1253SOL    HW2 4212   1.598   2.318   2.274
 1254SOL     OW 4213   1.029   2.620   2.820
 1254SOL    HW1 4214   1.020   2.637   2.914
 1254SOL    HW2 4215   1.002   2.529   2.809
 1255SOL     OW 4216   0.981   3.428   3.584
 1255SOL    HW1 4217   0.965   3.472   3.500
 1255SOL    HW2 4218   1.025   3.346   3.560
 1256SOL     OW 4219   1.854   3.367   3.466
 1256SOL    HW1 4220   1.872   3.394   3.376
 1256SOL    HW2 4221   1.935   3.386   3.513
 1257SOL     OW 4222   0.356   2.780   3.669
 1257SOL    HW1 4223   0.436   2.800   3.718
 1257SOL    HW2 4224   0.383   2.715   3.604
 1258SOL     OW 4225   1.526   2.134   1.988
 1258SOL    HW1 4226   1.463   2.068   2.016
 1258SOL    HW2 4227   1.561   2.171   2.069
 1259SOL     OW 4228   1.286   2.686   1.890
 1259SOL    HW1 4229   1.329   2.601   1.894
 1259SOL    HW2 4230   1.319   2.725   1.809
 1260SOL     OW 4231   1.070   3.201   2.719
 1260SOL    HW1 4232   1.075   3.129   2.656
 1260SOL    HW2 4233   1.127   3.269   2.683
 1261SOL     OW 4234   0.311   2.670   2.810
 1261SOL    HW1 4235   0.405   2.688   2.809
 1261SOL    HW2 4236   0.304   2.580   2.841
 1262SOL     OW 4237   0.332   2.390   2.879
 1262SOL    HW1 4238   0.297   2.302   2.866
 1262SOL    HW2 4239   0.407   2.395   2.820
 1263SOL     OW 4240   1.134   2.234   3.549
 1263SOL    HW1 4241   1.086   2.288   3.610
 1263SOL    HW2 4242   1.220   2.274   3.543
 1264SOL     OW 4243   1.161   2.059   3.335
 1264SOL    HW1 4244   1.149   2.122   3.406
 1264SOL    HW2 4245   1.203   2.109   3.265
 1265SOL     OW 4246   0.007   3.185   2.070
 1265SOL    HW1 4247   5.237   3.171   2.006
 1265SOL    HW2 4248   0.017   3.101   2.115
 1266SOL     OW 4249   0.102   3.643   2.822
 1266SOL    HW1 4250   0.064   3.580   2.761
 1266SOL    HW2 4251   0.187   3.665   2.783
 1267SOL     OW 4252   0.503   3.436   2.770
 1267SOL    HW1 4253   0.570   3.502   2.789
 1267SOL    HW2 4254   0.546   3.376   2.709
 1268SOL     OW 4255   0.973   2.649   3.085
 1268SOL    HW1 4256   1.033   2.631   3.157
 1268SOL    HW2 4257   0.890   2.610   3.112
 1269SOL     OW 4258   0.030   2.436   2.983
 1269SOL    HW1 4259   0.115   2.413   2.947
 1269SOL    HW2 4260   0.035   2.411   3.075
 1270SOL     OW 4261   0.168   2.376   3.576
 1270SOL    HW1 4262   0.229   2.332   3.517
 1270SOL    HW2 4263   0.147   2.459   3.533
 1271SOL     OW 4264   1.380   2.794   3.519
 1271SOL    HW1 4265   1.401   2.887   3.516
 1271SOL    HW2 4266   1.377   2.766   3.428
 1272SOL     OW 4267   0.818   2.431   2.229
 1272SOL    HW1 4268   0.823   2.358   2.168
 1272SOL    HW2 4269   0.743   2.483   2.198
 1273SOL     OW 4270   1.640   2.461   3.040
 1273SOL    HW1 4271   1.629   2.402   3.114
 1273SOL    HW2 4272   1.728   2.442   3.007
 1274SOL     OW 4273   0.254   3.416   3.594
 1274SOL    HW1 4274   0.235   3.480   3.663
 1274SOL    HW2 4275   0.252   3.331   3.639
 1275SOL     OW 4276   0.714   2.307   3.115
 1275SOL    HW1 4277   0.657   2.234   3.090
 1275SOL    HW2 4278   0.704   2.371   3.044
 1276SOL     OW 4279   0.923   3.540   3.333
 1276SOL    HW1 4280   0.898   3.501   3.250
 1276SOL    HW2 4281   0.916   3.634   3.318
 1277SOL     OW 4282   0.463   2.354   2.039
 1277SOL    HW1 4283   0.524   2.422   2.067
 1277SOL    HW2 4284   0.380   2.399   2.025
 1278SOL     OW 4285   0.146   2.999   3.331
 1278SOL    HW1 4286   0.142   2.954   3.416
 1278SOL    HW2 4287   0.154   2.928   3.267
 1279SOL     OW 4288   1.319   2.905   3.081
 1279SOL    HW1 4289   1.341   2.842   3.013
 1279SOL    HW2 4290   1.253   2.962   3.041
 1280SOL     OW 4291   1.316   2.718   2.165
 1280SOL    HW1 4292   1.242   2.688   2.217
 1280SOL    HW2 4293   1.289   2.705   2.074
 1281SOL     OW 4294   1.778   3.601   3.018
 1281SOL    HW1 4295   1.838   3.626   2.948
 1281SOL    HW2 4296   1.751   3.512   2.995
 1282SOL     OW 4297   1.240   3.595   2.967
 1282SOL    HW1 4298   1.323   3.619   2.926
 1282SOL    HW2 4299   1.249   3.502   2.987
 1283SOL     OW 4300   0.081   3.065   2.889
 1283SOL    HW1 4301   0.067   3.094   2.979
 1283SOL    HW2 4302   5.293   3.058   2.852
 1284SOL     OW 4303   0.679   3.534   3.600
 1284SOL    HW1 4304   0.618   3.607   3.591
 1284SOL    HW2 4305   0.746   3.549   3.534
 1285SOL     OW 4306   1.724   2.018   2.367
 1285SOL    HW1 4307   1.794   2.001   2.304
 1285SOL    HW2 4308   1.706   1.933   2.407
 1286SOL     OW 4309   1.393   3.430   2.353
 1286SOL    HW1 4310   1.451   3.464   2.285
 1286SOL    HW2 4311   1.342   3.506   2.381
 1287SOL     OW 4312   0.150   3.659   3.705
 1287SOL    HW1 4313   0.096   3.597   3.753
 1287SOL    HW2 4314   0.202   3.703   3.772
 1288SOL     OW 4315   1.278   2.790   2.532
 1288SOL    HW1 4316   1.352   2.730   2.543
 1288SOL    HW2 4317   1.312   2.862   2.479
 1289SOL     OW 4318   0.805   3.138   3.286
 1289SOL    HW1 4319   0.776   3.180   3.367
 1289SOL    HW2 4320   0.734   3.155   3.224
 1290SOL     OW 4321   0.672   3.487   2.016
 1290SOL    HW1 4322   0.684   3.502   1.922
 1290SOL    HW2 4323   0.616   3.409   2.021
 1291SOL     OW 4324   1.619   3.590   3.254
 1291SOL    HW1 4325   1.672   3.594   3.175
 1291SOL    HW2 4326   1.604   3.681   3.278
 1292SOL     OW 4327   1.845   2.033   2.823
 1292SOL    HW1 4328   1.873   1.944   2.801
 1292SOL    HW2 4329   1.757   2.041   2.785
 1293SOL     OW 4330   0.275   2.178   2.577
 1293SOL    HW1 4331   0.188   2.216   2.561
 1293SOL    HW2 4332   0.278   2.168   2.672
 1294SOL     OW 4333   1.208   3.463   1.895
 1294SOL    HW1 4334   1.197   3.372   1.921
 1294SOL    HW2 4335   1.142   3.477   1.827
 1295SOL     OW 4336   0.824   2.869   3.237
 1295SOL    HW1 4337   0.867   2.862   3.152
 1295SOL    HW2 4338   0.820   2.963   3.255
 1296SOL     OW 4339   0.916   2.772   2.153
 1296SOL    HW1 4340   0.975   2.805   2.086
 1296SOL    HW2 4341   0.966   2.705   2.199
 1297SOL     OW 4342   1.489   3.491   1.907
 1297SOL    HW1 4343   1.395   3.481   1.892
 1297SOL    HW2 4344   1.527   3.496   1.819
 1298SOL     OW 4345   0.366   3.167   3.356
 1298SOL    HW1 4346   0.359   3.240   3.295
 1298SOL    HW2 4347   0.291   3.111   3.336
 1299SOL     OW 4348   1.601   3.145   3.145
 1299SOL    HW1 4349   1.653   3.130   3.224
 1299SOL    HW2 4350   1.541   3.216   3.170
 1300SOL     OW 4351   1.061   2.972   2.573
 1300SOL    HW1 4352   0.989   2.922   2.610
 1300SOL    HW2 4353   1.125   2.906   2.546
 1301SOL     OW 4354   1.024   2.104   2.828
 1301SOL    HW1 4355   1.021   2.058   2.745
 1301SOL    HW2 4356   1.019   2.035   2.894
 1302SOL     OW 4357   0.604   3.350   2.341
 1302SOL    HW1 4358   0.653   3.300   2.276
 1302SOL    HW2 4359   0.534   3.392   2.291
 1303SOL     OW 4360   1.718   2.249   3.244
 1303SOL    HW1 4361   1.789   2.314   3.241
 1303SOL    HW2 4362   1.746   2.180   3.184
 1304SOL     OW 4363   0.264   3.211   2.161
 1304SOL    HW1 4364   0.172   3.210   2.136
 1304SOL    HW2 4365   0.264   3.250   2.249
 1305SOL     OW 4366   0.121   2.879   3.577
 1305SOL    HW1 4367   0.051   2.844   3.632
 1305SOL    HW2 4368   0.201   2.848   3.619
 1306SOL     OW 4369   0.677   2.057   3.362
 1306SOL    HW1 4370   0.761   2.035   3.321
 1306SOL    HW2 4371   0.700   2.090   3.449
 1307SOL     OW 4372   0.090   2.195   1.899
 1307SOL    HW1 4373   0.003   2.160   1.880
 1307SOL    HW2 4374   0.103   2.263   1.832
 1308SOL     OW 4375   1.422   2.718   3.259
 1308SOL    HW1 4376   1.373   2.780   3.205
 1308SOL    HW2 4377   1.511   2.721   3.223
 1309SOL     OW 4378   0.065   2.000   2.118
 1309SOL    HW1 4379   0.060   2.087   2.079
 1309SOL    HW2 4380   0.146   1.963   2.085
 1310SOL     OW 4381   1.178   3.196   1.980
 1310SOL    HW1 4382   1.087   3.167   1.981
 1310SOL    HW2 4383   1.204   3.198   2.072
 1311SOL     OW 4384   0.621   2.694   3.300
 1311SOL    HW1 4385   0.679   2.769   3.284
 1311SOL    HW2 4386   0.681   2.619   3.306
 1312SOL     OW 4387   1.483   3.647   2.846
 1312SOL    HW1 4388   1.506   3.712   2.779
 1312SOL    HW2 4389   1.568   3.619   2.882
 1313SOL     OW 4390   0.718   2.422   3.563
 1313SOL    HW1 4391   0.763   2.481   3.623
 1313SOL    HW2 4392   0.737   2.334   3.596
 1314SOL     OW 4393   1.465   3.056   3.492
 1314SOL    HW1 4394   1.457   3.070   3.587
 1314SOL    HW2 4395   1.556   3.079   3.473
 1315SOL     OW 4396   0.370   3.608   3.428
 1315SOL    HW1 4397   0.288   3.654   3.409
 1315SOL    HW2 4398   0.343   3.527   3.472
 1316SOL     OW 4399   1.660   2.741   3.116
 1316SOL    HW1 4400   1.660   2.656   3.071
 1316SOL    HW2 4401   1.653   2.805   3.045
 1317SOL     OW 4402   1.216   2.181   2.319
 1317SOL    HW1 4403   1.278   2.109   2.313
 1317SOL    HW2 4404   1.245   2.231   2.395
 1318SOL     OW 4405   0.586   2.595   2.534
 1318SOL    HW1 4406   0.626   2.681   2.520
 1318SOL    HW2 4407   0.518   2.589   2.467
 1319SOL     OW 4408   1.760   2.224   3.516
 1319SOL    HW1 4409   1.738   2.244   3.425
 1319SOL    HW2 4410   1.689   2.168   3.547
 1320SOL     OW 4411   1.738   2.793   3.372
 1320SOL    HW1 4412   1.733   2.888   3.386
 1320SOL    HW2 4413   1.722   2.781   3.278
 1321SOL     OW 4414   0.864   3.227   1.905
 1321SOL    HW1 4415   0.826   3.256   1.988
 1321SOL    HW2 4416   0.880   3.308   1.856
 1322SOL     OW 4417   0.667   3.650   2.798
 1322SOL    HW1 4418   0.648   3.742   2.779
 1322SOL    HW2 4419   0.763   3.645   2.793
 1323SOL     OW 4420   0.870   2.832   2.715
 1323SOL    HW1 4421   0.920   2.760   2.752
 1323SOL    HW2 4422   0.831   2.876   2.790
 1324SOL     OW 4423   1.076   2.849   1.951
 1324SOL    HW1 4424   1.055   2.902   1.873
 1324SOL    HW2 4425   1.150   2.795   1.924
 1325SOL     OW 4426   1.846   3.416   2.702
 1325SOL    HW1 4427   1.767   3.404   2.651
 1325SOL    HW2 4428   1.838   3.353   2.774
 1326SOL     OW 4429   0.230   3.163   3.725
 1326SOL    HW1 4430   0.163   3.100   3.697
 1326SOL    HW2 4431   0.215   3.174   3.819
 1327SOL     OW 4432   0.093   3.065   2.511
 1327SOL    HW1 4433   0.115   3.042   2.601
 1327SOL    HW2 4434   0.175   3.100   2.475
 1328SOL     OW 4435   0.685   3.269   3.494
 1328SOL    HW1 4436   0.605   3.228   3.526
 1328SOL    HW2 4437   0.682   3.358   3.530
 1329SOL     OW 4438   1.795   2.043   3.091
 1329SOL    HW1 4439   1.817   1.951   3.108
 1329SOL    HW2 4440   1.813   2.056   2.998
 1330SOL     OW 4441   0.438   2.297   2.384
 1330SOL    HW1 4442   0.467   2.224   2.329
 1330SOL    HW2 4443   0.390   2.256   2.456
 1331SOL     OW 4444   1.697   3.350   2.952
 1331SOL    HW1 4445   1.617   3.327   2.905
 1331SOL    HW2 4446   1.708   3.280   3.017
 1332SOL     OW 4447   0.342   2.427   3.155
 1332SOL    HW1 4448   0.395   2.367   3.208
 1332SOL    HW2 4449   0.354   2.396   3.065
 1333SOL     OW 4450   0.834   3.440   2.537
 1333SOL    HW1 4451   0.812   3.506   2.471
 1333SOL    HW2 4452   0.758   3.381   2.538
 1334SOL     OW 4453   1.430   2.092   2.979
 1334SOL    HW1 4454   1.453   2.010   3.023
 1334SOL    HW2 4455   1.378   2.140   3.043
 1335SOL     OW 4456   1.009   1.878   2.998
 1335SOL    HW1 4457   0.954   1.812   2.955
 1335SOL    HW2 4458   1.096   1.840   3.000
 1336SOL     OW 4459   0.774   3.196   2.184
 1336SOL    HW1 4460   0.748   3.104   2.191
 1336SOL    HW2 4461   0.855   3.201   2.233
 1337SOL     OW 4462   0.624   3.417   3.152
 1337SOL    HW1 4463   0.624   3.499   3.201
 1337SOL    HW2 4464   0.712   3.413   3.113
 1338SOL     OW 4465   1.357   1.914   2.034
 1338SOL    HW1 4466   1.390   1.844   1.977
 1338SOL    HW2 4467   1.268   1.887   2.055
 1339SOL     OW 4468   1.296   2.325   2.540
 1339SOL    HW1 4469   1.244   2.406   2.544
 1339SOL    HW2 4470   1.291   2.289   2.628
 1340SOL     OW 4471   1.585   2.057   2.745
 1340SOL    HW1 4472   1.529   2.082   2.818
 1340SOL    HW2 4473   1.584   2.134   2.688
 1341SOL     OW 4474   0.049   2.927   2.151
 1341SOL    HW1 4475   0.137   2.891   2.142
 1341SOL    HW2 4476   5.299   2.857   2.192
 1342SOL     OW 4477   0.891   3.521   2.199
 1342SOL    HW1 4478   0.816   3.507   2.141
 1342SOL    HW2 4479   0.864   3.594   2.255
 1343SOL     OW 4480   0.231   2.487   3.844
 1343SOL    HW1 4481   0.163   2.444   3.897
 1343SOL    HW2 4482   0.209   2.462   3.754
 1344SOL     OW 4483   0.247   2.138   4.711
 1344SOL    HW1 4484   0.259   2.102   4.799
 1344SOL    HW2 4485   0.160   2.106   4.684
 1345SOL     OW 4486   5.296   2.265   4.380
 1345SOL    HW1 4487   5.203   2.286   4.381
 1345SOL    HW2 4488   0.000   2.177   4.342
 1346SOL     OW 4489   0.580   3.157   4.918
 1346SOL    HW1 4490   0.499   3.162   4.868
 1346SOL    HW2 4491   0.595   3.246   4.950
 1347SOL     OW 4492   1.566   3.379   4.433
 1347SOL    HW1 4493   1.524   3.355   4.515
 1347SOL    HW2 4494   1.495   3.384   4.369
 1348SOL     OW 4495   1.133   2.560   4.419
 1348SOL    HW1 4496   1.180   2.642   4.407
 1348SOL    HW2 4497   1.085   2.572   4.502
 1349SOL     OW 4498   1.767   2.459   3.954
 1349SOL    HW1 4499   1.748   2.455   3.860
 1349SOL    HW2 4500   1.733   2.378   3.989
 1350SOL     OW 4501   0.747   2.997   4.769
 1350SOL    HW1 4502   0.684   3.035   4.832
 1350SOL    HW2 4503   0.785   3.073   4.725
 1351SOL     OW 4504   0.876   2.624   5.549
 1351SOL    HW1 4505   0.866   2.695   5.613
 1351SOL    HW2 4506   0.897   2.669   5.467
 1352SOL     OW 4507   0.685   2.858   4.368
 1352SOL    HW1 4508   0.752   2.850   4.436
 1352SOL    HW2 4509   0.618   2.915   4.407
 1353SOL     OW 4510   0.713   3.011   5.544
 1353SOL    HW1 4511   0.761   3.088   5.574
 1353SOL    HW2 4512   0.634   3.047   5.503
 1354SOL     OW 4513   0.360   3.264   4.785
 1354SOL    HW1 4514   0.269   3.266   4.754
 1354SOL    HW2 4515   0.407   3.325   4.729
 1355SOL     OW 4516   1.460   3.361   5.085
 1355SOL    HW1 4517   1.514   3.439   5.092
 1355SOL    HW2 4518   1.392   3.373   5.152
 1356SOL     OW 4519   0.454   2.259   5.208
 1356SOL    HW1 4520   0.528   2.199   5.213
 1356SOL    HW2 4521   0.377   2.204   5.223
 1357SOL     OW 4522   1.602   2.300   4.466
 1357SOL    HW1 4523   1.528   2.314   4.406
 1357SOL    HW2 4524   1.622   2.387   4.500
 1358SOL     OW 4525   0.240   3.574   4.200
 1358SOL    HW1 4526   0.266   3.647   4.258
 1358SOL    HW2 4527   0.304   3.576   4.129
 1359SOL     OW 4528   1.138   3.204   5.418
 1359SOL    HW1 4529   1.179   3.198   5.505
 1359SOL    HW2 4530   1.086   3.124   5.410
 1360SOL     OW 4531   0.217   3.312   4.269
 1360SOL    HW1 4532   0.226   3.406   4.251
 1360SOL    HW2 4533   0.145   3.306   4.332
 1361SOL     OW 4534   0.256   2.937   4.595
 1361SOL    HW1 4535   0.266   2.849   4.631
 1361SOL    HW2 4536   0.201   2.983   4.659
 1362SOL     OW 4537   0.606   3.652   5.156
 1362SOL    HW1 4538   0.522   3.636   5.199
 1362SOL    HW2 4539   0.628   3.742   5.179
 1363SOL     OW 4540   0.576   2.848   3.864
 1363SOL    HW1 4541   0.626   2.893   3.795
 1363SOL    HW2 4542   0.616   2.879   3.946
 1364SOL     OW 4543   1.595   1.988   5.190
 1364SOL    HW1 4544   1.614   2.068   5.141
 1364SOL    HW2 4545   1.576   2.018   5.279
 1365SOL     OW 4546   0.128   2.491   4.306
 1365SOL    HW1 4547   0.089   2.410   4.338
 1365SOL    HW2 4548   0.100   2.558   4.368
 1366SOL     OW 4549   1.844   3.617   4.054
 1366SOL    HW1 4550   1.913   3.591   4.116
 1366SOL    HW2 4551   1.862   3.709   4.036
 1367SOL     OW 4552   0.039   3.462   3.860
 1367SOL    HW1 4553   0.027   3.370   3.885
 1367SOL    HW2 4554   5.274   3.510   3.912
 1368SOL     OW 4555   1.704   2.781   4.370
 1368SOL    HW1 4556   1.756   2.717   4.321
 1368SOL    HW2 4557   1.668   2.840   4.303
 1369SOL     OW 4558   1.644   2.964   4.157
 1369SOL    HW1 4559   1.729   2.964   4.113
 1369SOL    HW2 4560   1.651   3.033   4.223
 1370SOL     OW 4561   0.138   2.612   5.305
 1370SOL    HW1 4562   0.233   2.624   5.302
 1370SOL    HW2 4563   0.103   2.698   5.325
 1371SOL     OW 4564   0.619   3.252   4.458
 1371SOL    HW1 4565   0.572   3.169   4.467
 1371SOL    HW2 4566   0.601   3.280   4.368
 1372SOL     OW 4567   1.284   3.096   5.146
 1372SOL    HW1 4568   1.315   3.028   5.086
 1372SOL    HW2 4569   1.344   3.092   5.220
 1373SOL     OW 4570   0.829   1.865   4.238
 1373SOL    HW1 4571   0.869   1.949   4.214
 1373SOL    HW2 4572   0.735   1.884   4.241
 1374SOL     OW 4573   0.168   2.799   5.006
 1374SOL    HW1 4574   0.258   2.769   5.000
 1374SOL    HW2 4575   0.134   2.792   4.917
 1375SOL     OW 4576   1.523   2.861   3.928
 1375SOL    HW1 4577   1.454   2.804   3.962
 1375SOL    HW2 4578   1.567   2.893   4.007
 1376SOL     OW 4579   1.183   3.675   5.350
 1376SOL    HW1 4580   1.189   3.736   5.277
 1376SOL    HW2 4581   1.202   3.589   5.312
 1377SOL     OW 4582   0.350   2.118   5.556
 1377SOL    HW1 4583   0.394   2.201   5.576
 1377SOL    HW2 4584   0.259   2.132   5.582
 1378SOL     OW 4585   1.464   3.283   4.668
 1378SOL    HW1 4586   1.398   3.297   4.736
 1378SOL    HW2 4587   1.453   3.190   4.645
 1379SOL     OW 4588   1.654   3.615   4.301
 1379SOL    HW1 4589   1.635   3.581   4.213
 1379SOL    HW2 4590   1.636   3.542   4.360
 1380SOL     OW 4591   0.594   2.579   3.996
 1380SOL    HW1 4592   0.600   2.662   3.949
 1380SOL    HW2 4593   0.528   2.595   4.064
 1381SOL     OW 4594   1.279   2.228   4.659
 1381SOL    HW1 4595   1.190   2.194   4.667
 1381SOL    HW2 4596   1.331   2.174   4.717
 1382SOL     OW 4597   1.579   3.535   4.035
 1382SOL    HW1 4598   1.670   3.562   4.026
 1382SOL    HW2 4599   1.550   3.520   3.945
 1383SOL     OW 4600   0.792   2.479   5.171
 1383SOL    HW1 4601   0.766   2.453   5.260
 1383SOL    HW2 4602   0.757   2.411   5.115
 1384SOL     OW 4603   1.392   2.336   5.402
 1384SOL    HW1 4604   1.396   2.381   5.486
 1384SOL    HW2 4605   1.449   2.260   5.412
 1385SOL     OW 4606   0.950   2.747   5.310
 1385SOL    HW1 4607   1.005   2.679   5.272
 1385SOL    HW2 4608   0.902   2.784   5.236
 1386SOL     OW 4609   0.994   2.271   4.957
 1386SOL    HW1 4610   0.905   2.288   4.987
 1386SOL    HW2 4611   0.984   2.229   4.872
 1387SOL     OW 4612   1.054   2.560   4.148
 1387SOL    HW1 4613   1.072   2.554   4.242
 1387SOL    HW2 4614   0.971   2.515   4.137
 1388SOL     OW 4615   0.065   2.655   4.532
 1388SOL    HW1 4616   0.145   2.658   4.584
 1388SOL    HW2 4617   0.074   2.727   4.470
 1389SOL     OW 4618   0.123   3.750   5.311
 1389SOL    HW1 4619   0.131   3.727   5.404
 1389SOL    HW2 4620   0.058   3.688   5.277
 1390SOL     OW 4621   0.899   2.213   3.919
 1390SOL    HW1 4622   0.939   2.277   3.860
 1390SOL    HW2 4623   0.909   2.129   3.874
 1391SOL     OW 4624   1.705   2.432   5.554
 1391SOL    HW1 4625   1.669   2.506   5.504
 1391SOL    HW2 4626   1.733   2.370   5.487
 1392SOL     OW 4627   1.379   3.003   4.264
 1392SOL    HW1 4628   1.458   2.992   4.211
 1392SOL    HW2 4629   1.325   3.066   4.215
 1393SOL     OW 4630   0.561   2.043   4.621
 1393SOL    HW1 4631   0.558   2.072   4.712
 1393SOL    HW2 4632   0.553   2.123   4.570
 1394SOL     OW 4633   0.999   3.305   4.192
 1394SOL    HW1 4634   0.969   3.380   4.142
 1394SOL    HW2 4635   0.976   3.326   4.283
 1395SOL     OW 4636   0.360   3.670   4.596
 1395SOL    HW1 4637   0.399   3.584   4.609
 1395SOL    HW2 4638   0.425   3.732   4.630
 1396SOL     OW 4639   1.810   2.943   4.580
 1396SOL    HW1 4640   1.765   2.889   4.516
 1396SOL    HW2 4641   1.753   2.941   4.657
 1397SOL     OW 4642   1.227   3.402   5.237
 1397SOL    HW1 4643   1.215   3.330   5.298
 1397SOL    HW2 4644   1.159   3.390   5.171
 1398SOL     OW 4645   0.311   2.812   3.976
 1398SOL    HW1 4646   0.392   2.836   3.930
 1398SOL    HW2 4647   0.290   2.725   3.943
 1399SOL     OW 4648   1.486   2.613   4.448
 1399SOL    HW1 4649   1.476   2.571   4.533
 1399SOL    HW2 4650   1.564   2.667   4.456
 1400SOL     OW 4651   0.469   3.130   5.462
 1400SOL    HW1 4652   0.443   3.135   5.370
 1400SOL    HW2 4653   0.387   3.129   5.511
 1401SOL     OW 4654   1.125   3.639   3.953
 1401SOL    HW1 4655   1.049   3.600   3.996
 1401SOL    HW2 4656   1.149   3.577   3.885
 1402SOL     OW 4657   0.207   2.136   5.221
 1402SOL    HW1 4658   0.130   2.189   5.201
 1402SOL    HW2 4659   0.171   2.055   5.258
 1403SOL     OW 4660   1.624   3.248   3.811
 1403SOL    HW1 4661   1.580   3.332   3.797
 1403SOL    HW2 4662   1.558   3.182   3.791
 1404SOL     OW 4663   0.471   3.597   4.040
 1404SOL    HW1 4664   0.517   3.653   4.103
 1404SOL    HW2 4665   0.541   3.563   3.984
 1405SOL     OW 4666   1.400   1.969   4.165
 1405SOL    HW1 4667   1.391   1.944   4.073
 1405SOL    HW2 4668   1.494   1.976   4.179
 1406SOL     OW 4669   0.277   3.662   4.926
 1406SOL    HW1 4670   0.306   3.579   4.964
 1406SOL    HW2 4671   0.220   3.636   4.854
 1407SOL     OW 4672   0.941   3.562   4.620
 1407SOL    HW1 4673   1.021   3.513   4.642
 1407SOL    HW2 4674   0.900   3.511   4.550
 1408SOL     OW 4675   0.386   2.556   4.202
 1408SOL    HW1 4676   0.416   2.465   4.211
 1408SOL    HW2 4677   0.293   2.553   4.224
 1409SOL     OW 4678   1.528   2.087   5.448
 1409SOL    HW1 4679   1.539   2.107   5.541
 1409SOL    HW2 4680   1.460   2.020   5.445
 1410SOL     OW 4681   0.644   1.980   3.826
 1410SOL    HW1 4682   0.705   1.907   3.842
 1410SOL    HW2 4683   0.591   1.950   3.752
 1411SOL     OW 4684   0.764   2.141   5.480
 1411SOL    HW1 4685   0.844   2.089   5.477
 1411SOL    HW2 4686   0.717   2.109   5.558
 1412SOL     OW 4687   0.877   3.386   4.918
 1412SOL    HW1 4688   0.859   3.347   4.832
 1412SOL    HW2 4689   0.946   3.330   4.954
 1413SOL     OW 4690   1.340   2.451   5.156
 1413SOL    HW1 4691   1.370   2.421   5.242
 1413SOL    HW2 4692   1.375   2.540   5.148
 1414SOL     OW 4693   0.819   3.249   4.670
 1414SOL    HW1 4694   0.904   3.239   4.628
 1414SOL    HW2 4695   0.757   3.257   4.598
 1415SOL     OW 4696   0.930   2.372   4.623
 1415SOL    HW1 4697   0.904   2.363   4.531
 1415SOL    HW2 4698   0.958   2.284   4.649
 1416SOL     OW 4699   0.564   1.923   4.215
 1416SOL    HW1 4700   0.489   1.924   4.275
 1416SOL    HW2 4701   0.552   2.001   4.161
 1417SOL     OW 4702   1.426   3.064   3.765
 1417SOL    HW1 4703   1.455   2.988   3.816
 1417SOL    HW2 4704   1.341   3.086   3.801
 1418SOL     OW 4705   0.307   1.907   3.899
 1418SOL    HW1 4706   0.366   1.974   3.866
 1418SOL    HW2 4707   0.363   1.846   3.946
 1419SOL     OW 4708   0.944   2.112   4.178
 1419SOL    HW1 4709   0.919   2.151   4.094
 1419SOL    HW2 4710   1.038   2.128   4.185
 1420SOL     OW 4711   1.080   2.546   5.181
 1420SOL    HW1 4712   1.013   2.478   5.184
 1420SOL    HW2 4713   1.163   2.498   5.175
 1421SOL     OW 4714   1.218   3.435   4.519
 1421SOL    HW1 4715   1.233   3.500   4.450
 1421SOL    HW2 4716   1.289   3.451   4.582
 1422SOL     OW 4717   0.471   3.016   4.447
 1422SOL    HW1 4718   0.403   2.993   4.511
 1422SOL    HW2 4719   0.430   3.001   4.362
 1423SOL     OW 4720   1.264   3.654   4.336
 1423SOL    HW1 4721   1.312   3.716   4.282
 1423SOL    HW2 4722   1.195   3.706   4.377
 1424SOL     OW 4723   1.023   2.396   3.751
 1424SOL    HW1 4724   0.980   2.480   3.731
 1424SOL    HW2 4725   1.089   2.419   3.817
 1425SOL     OW 4726   0.094   2.400   5.126
 1425SOL    HW1 4727   0.181   2.410   5.087
 1425SOL    HW2 4728   0.083   2.479   5.179
 1426SOL     OW 4729   0.561   2.091   4.895
 1426SOL    HW1 4730   0.598   2.013   4.936
 1426SOL    HW2 4731   0.469   2.090   4.920
 1427SOL     OW 4732   0.867   2.320   4.362
 1427SOL    HW1 4733   0.823   2.375   4.298
 1427SOL    HW2 4734   0.890   2.241   4.313
 1428SOL     OW 4735   1.018   1.916   4.471
 1428SOL    HW1 4736   0.959   1.910   4.396
 1428SOL    HW2 4737   0.995   1.842   4.526
 1429SOL     OW 4738   1.441   3.022   4.582
 1429SOL    HW1 4739   1.368   2.960   4.582
 1429SOL    HW2 4740   1.464   3.031   4.489
 1430SOL     OW 4741   1.464   2.474   4.695
 1430SOL    HW1 4742   1.410   2.395   4.693
 1430SOL    HW2 4743   1.523   2.461   4.769
 1431SOL     OW 4744   1.827   2.674   4.112
 1431SOL    HW1 4745   1.867   2.617   4.178
 1431SOL    HW2 4746   1.805   2.615   4.040
 1432SOL     OW 4747   0.491   3.285   3.877
 1432SOL    HW1 4748   0.416   3.258   3.929
 1432SOL    HW2 4749   0.483   3.235   3.795
 1433SOL     OW 4750   1.670   3.135   4.359
 1433SOL    HW1 4751   1.764   3.138   4.381
 1433SOL    HW2 4752   1.637   3.222   4.384
 1434SOL     OW 4753   1.394   2.435   3.795
 1434SOL    HW1 4754   1.332   2.414   3.865
 1434SOL    HW2 4755   1.478   2.403   3.828
 1435SOL     OW 4756   0.525   2.124   4.034
 1435SOL    HW1 4757   0.576   2.080   3.965
 1435SOL    HW2 4758   0.499   2.207   3.995
 1436SOL     OW 4759   1.746   3.107   5.282
 1436SOL    HW1 4760   1.833   3.069   5.275
 1436SOL    HW2 4761   1.761   3.196   5.314
 1437SOL     OW 4762   1.054   3.214   5.055
 1437SOL    HW1 4763   0.978   3.184   5.104
 1437SOL    HW2 4764   1.129   3.173   5.097
 1438SOL     OW 4765   1.609   3.489   5.383
 1438SOL    HW1 4766   1.600   3.523   5.294
 1438SOL    HW2 4767   1.691   3.440   5.381
 1439SOL     OW 4768   1.135   3.071   4.826
 1439SOL    HW1 4769   1.075   3.109   4.890
 1439SOL    HW2 4770   1.106   3.107   4.742
 1440SOL     OW 4771   1.629   2.956   4.797
 1440SOL    HW1 4772   1.624   3.020   4.867
 1440SOL    HW2 4773   1.555   2.975   4.740
 1441SOL     OW 4774   0.919   1.954   5.116
 1441SOL    HW1 4775   0.941   1.937   5.025
 1441SOL    HW2 4776   0.998   1.994   5.153
 1442SOL     OW 4777   0.984   2.977   5.447
 1442SOL    HW1 4778   0.893   2.994   5.471
 1442SOL    HW2 4779   0.981   2.898   5.393
 1443SOL     OW 4780   0.709   2.924   4.096
 1443SOL    HW1 4781   0.696   2.904   4.188
 1443SOL    HW2 4782   0.785   2.871   4.070
 1444SOL     OW 4783   0.420   2.687   4.980
 1444SOL    HW1 4784   0.490   2.694   5.046
 1444SOL    HW2 4785   0.389   2.597   4.989
 1445SOL     OW 4786   1.263   2.236   5.005
 1445SOL    HW1 4787   1.295   2.314   5.050
 1445SOL    HW2 4788   1.172   2.257   4.983
 1446SOL     OW 4789   0.104   3.481   5.087
 1446SOL    HW1 4790   0.083   3.486   4.993
 1446SOL    HW2 4791   0.192   3.445   5.090
 1447SOL     OW 4792   0.342   2.976   4.204
 1447SOL    HW1 4793   0.339   3.056   4.150
 1447SOL    HW2 4794   0.341   2.904   4.141
 1448SOL     OW 4795   0.549   2.392   4.582
 1448SOL    HW1 4796   0.563   2.451   4.508
 1448SOL    HW2 4797   0.616   2.418   4.646
 1449SOL     OW 4798   1.247   3.212   4.115
 1449SOL    HW1 4799   1.302   3.283   4.146
 1449SOL    HW2 4800   1.159   3.233   4.148
 1450SOL     OW 4801   1.290   3.323   4.873
 1450SOL    HW1 4802   1.346   3.328   4.950
 1450SOL    HW2 4803   1.233   3.247   4.890
 1451SOL     OW 4804   1.568   2.475   4.208
 1451SOL    HW1 4805   1.522   2.528   4.273
 1451SOL    HW2 4806   1.618   2.539   4.157
 1452SOL     OW 4807   0.353   3.383   5.031
 1452SOL    HW1 4808   0.343   3.338   4.948
 1452SOL    HW2 4809   0.447   3.400   5.038
 1453SOL     OW 4810   0.419   2.603   5.327
 1453SOL    HW1 4811   0.482   2.648   5.271
 1453SOL    HW2 4812   0.456   2.516   5.339
 1454SOL     OW 4813   1.608   2.642   5.410
 1454SOL    HW1 4814   1.522   2.684   5.405
 1454SOL    HW2 4815   1.660   2.684   5.342
 1455SOL     OW 4816   0.996   1.995   5.479
 1455SOL    HW1 4817   1.054   2.067   5.456
 1455SOL    HW2 4818   1.044   1.916   5.453
 1456SOL     OW 4819   0.496   1.899   5.475
 1456SOL    HW1 4820   0.449   1.848   5.409
 1456SOL    HW2 4821   0.441   1.976   5.490
 1457SOL     OW 4822   0.586   2.737   4.759
 1457SOL    HW1 4823   0.621   2.826   4.760
 1457SOL    HW2 4824   0.529   2.733   4.835
 1458SOL     OW 4825   1.347   2.720   4.746
 1458SOL    HW1 4826   1.260   2.706   4.707
 1458SOL    HW2 4827   1.391   2.636   4.735
 1459SOL     OW 4828   1.199   2.389   3.985
 1459SOL    HW1 4829   1.208   2.311   4.040
 1459SOL    HW2 4830   1.157   2.453   4.042
 1460SOL     OW 4831   0.301   2.063   4.970
 1460SOL    HW1 4832   0.269   2.085   5.057
 1460SOL    HW2 4833   0.290   1.968   4.963
 1461SOL     OW 4834   0.053   3.172   5.001
 1461SOL    HW1 4835   0.086   3.116   5.071
 1461SOL    HW2 4836   5.282   3.222   5.040
 1462SOL     OW 4837   0.720   2.491   4.777
 1462SOL    HW1 4838   0.797   2.479   4.721
 1462SOL    HW2 4839   0.691   2.581   4.759
 1463SOL     OW 4840   1.738   2.820   5.583
 1463SOL    HW1 4841   1.693   2.753   5.531
 1463SOL    HW2 4842   1.677   2.838   5.655
 1464SOL     OW 4843   0.329   1.924   4.356
 1464SOL    HW1 4844   0.308   2.014   4.380
 1464SOL    HW2 4845   0.336   1.877   4.439
 1465SOL     OW 4846   1.621   2.238   4.084
 1465SOL    HW1 4847   1.653   2.175   4.149
 1465SOL    HW2 4848   1.594   2.314   4.136
 1466SOL     OW 4849   1.030   2.620   4.682
 1466SOL    HW1 4850   1.020   2.637   4.776
 1466SOL    HW2 4851   1.003   2.529   4.671
 1467SOL     OW 4852   0.981   3.428   5.446
 1467SOL    HW1 4853   0.965   3.472   5.362
 1467SOL    HW2 4854   1.025   3.346   5.422
 1468SOL     OW 4855   1.851   3.363   5.328
 1468SOL    HW1 4856   1.872   3.389   5.238
 1468SOL    HW2 4857   1.932   3.377   5.377
 1469SOL     OW 4858   0.357   2.781   5.531
 1469SOL    HW1 4859   0.436   2.800   5.580
 1469SOL    HW2 4860   0.383   2.715   5.466
 1470SOL     OW 4861   1.521   2.136   3.850
 1470SOL    HW1 4862   1.459   2.069   3.879
 1470SOL    HW2 4863   1.560   2.170   3.930
 1471SOL     OW 4864   1.287   2.686   3.753
 1471SOL    HW1 4865   1.330   2.601   3.757
 1471SOL    HW2 4866   1.319   2.725   3.672
 1472SOL     OW 4867   1.070   3.201   4.582
 1472SOL    HW1 4868   1.075   3.129   4.518
 1472SOL    HW2 4869   1.127   3.269   4.546
 1473SOL     OW 4870   0.311   2.670   4.672
 1473SOL    HW1 4871   0.405   2.688   4.670
 1473SOL    HW2 4872   0.304   2.580   4.703
 1474SOL     OW 4873   0.332   2.390   4.741
 1474SOL    HW1 4874   0.297   2.302   4.728
 1474SOL    HW2 4875   0.407   2.395   4.682
 1475SOL     OW 4876   1.134   2.234   5.410
 1475SOL    HW1 4877   1.086   2.288   5.472
 1475SOL    HW2 4878   1.221   2.275   5.406
 1476SOL     OW 4879   1.161   2.059   5.197
 1476SOL    HW1 4880   1.149   2.122   5.268
 1476SOL    HW2 4881   1.203   2.110   5.127
 1477SOL     OW 4882   0.007   3.185   3.931
 1477SOL    HW1 4883   5.237   3.170   3.868
 1477SOL    HW2 4884   0.017   3.101   3.977
 1478SOL     OW 4885   0.102   3.643   4.683
 1478SOL    HW1 4886   0.064   3.580   4.622
 1478SOL    HW2 4887   0.187   3.665   4.645
 1479SOL     OW 4888   0.504   3.436   4.632
 1479SOL    HW1 4889   0.570   3.502   4.651
 1479SOL    HW2 4890   0.546   3.376   4.571
 1480SOL     OW 4891   0.973   2.648   4.947
 1480SOL    HW1 4892   1.033   2.630   5.020
 1480SOL    HW2 4893   0.890   2.610   4.974
 1481SOL     OW 4894   0.030   2.436   4.845
 1481SOL    HW1 4895   0.115   2.412   4.809
 1481SOL    HW2 4896   0.035   2.411   4.937
 1482SOL     OW 4897   0.168   2.376   5.438
 1482SOL    HW1 4898   0.228   2.332   5.379
 1482SOL    HW2 4899   0.147   2.459   5.394
 1483SOL     OW 4900   1.381   2.795   5.381
 1483SOL    HW1 4901   1.402   2.888   5.378
 1483SOL    HW2 4902   1.376   2.768   5.289
 1484SOL     OW 4903   0.818   2.432   4.091
 1484SOL    HW1 4904   0.824   2.358   4.030
 1484SOL    HW2 4905   0.743   2.483   4.059
 1485SOL     OW 4906   1.646   2.461   4.907
 1485SOL    HW1 4907   1.619   2.411   4.984
 1485SOL    HW2 4908   1.737   2.435   4.892
 1486SOL     OW 4909   0.254   3.416   5.456
 1486SOL    HW1 4910   0.235   3.480   5.525
 1486SOL    HW2 4911   0.252   3.331   5.501
 1487SOL     OW 4912   0.714   2.307   4.977
 1487SOL    HW1 4913   0.657   2.235   4.952
 1487SOL    HW2 4914   0.705   2.371   4.906
 1488SOL     OW 4915   0.923   3.540   5.195
 1488SOL    HW1 4916   0.898   3.501   5.111
 1488SOL    HW2 4917   0.917   3.634   5.180
 1489SOL     OW 4918   0.463   2.354   3.901
 1489SOL    HW1 4919   0.524   2.423   3.929
 1489SOL    HW2 4920   0.380   2.400   3.888
 1490SOL     OW 4921   0.146   2.999   5.193
 1490SOL    HW1 4922   0.142   2.954   5.278
 1490SOL    HW2 4923   0.154   2.928   5.129
 1491SOL     OW 4924   1.320   2.905   4.943
 1491SOL    HW1 4925   1.342   2.842   4.875
 1491SOL    HW2 4926   1.254   2.962   4.904
 1492SOL     OW 4927   1.312   2.717   4.029
 1492SOL    HW1 4928   1.237   2.685   4.080
 1492SOL    HW2 4929   1.287   2.703   3.938
 1493SOL     OW 4930   1.787   3.605   4.889
 1493SOL    HW1 4931   1.843   3.628   4.815
 1493SOL    HW2 4932   1.749   3.521   4.865
 1494SOL     OW 4933   1.239   3.594   4.830
 1494SOL    HW1 4934   1.321   3.619   4.788
 1494SOL    HW2 4935   1.249   3.501   4.851
 1495SOL     OW 4936   0.081   3.065   4.751
 1495SOL    HW1 4937   0.066   3.094   4.841
 1495SOL    HW2 4938   5.293   3.058   4.714
 1496SOL     OW 4939   0.679   3.534   5.462
 1496SOL    HW1 4940   0.618   3.607   5.453
 1496SOL    HW2 4941   0.746   3.549   5.396
 1497SOL     OW 4942   1.724   2.012   4.227
 1497SOL    HW1 4943   1.790   1.996   4.160
 1497SOL    HW2 4944   1.707   1.925   4.265
 1498SOL     OW 4945   1.391   3.430   4.214
 1498SOL    HW1 4946   1.450   3.464   4.146
 1498SOL    HW2 4947   1.341   3.506   4.242
 1499SOL     OW 4948   0.150   3.659   5.567
 1499SOL    HW1 4949   0.096   3.597   5.615
 1499SOL    HW2 4950   0.202   3.703   5.634
 1500SOL     OW 4951   1.278   2.789   4.395
 1500SOL    HW1 4952   1.353   2.730   4.404
 1500SOL    HW2 4953   1.311   2.861   4.341
 1501SOL     OW 4954   0.805   3.138   5.148
 1501SOL    HW1 4955   0.777   3.180   5.229
 1501SOL    HW2 4956   0.734   3.156   5.086
 1502SOL     OW 4957   0.672   3.487   3.878
 1502SOL    HW1 4958   0.684   3.502   3.784
 1502SOL    HW2 4959   0.616   3.409   3.883
 1503SOL     OW 4960   1.618   3.589   5.117
 1503SOL    HW1 4961   1.674   3.594   5.040
 1503SOL    HW2 4962   1.603   3.680   5.142
 1504SOL     OW 4963   1.833   2.035   4.693
 1504SOL    HW1 4964   1.864   1.947   4.669
 1504SOL    HW2 4965   1.747   2.042   4.651
 1505SOL     OW 4966   0.275   2.178   4.439
 1505SOL    HW1 4967   0.188   2.216   4.422
 1505SOL    HW2 4968   0.278   2.168   4.535
 1506SOL     OW 4969   1.208   3.463   3.757
 1506SOL    HW1 4970   1.197   3.372   3.783
 1506SOL    HW2 4971   1.142   3.477   3.689
 1507SOL     OW 4972   0.824   2.869   5.099
 1507SOL    HW1 4973   0.866   2.863   5.014
 1507SOL    HW2 4974   0.820   2.963   5.118
 1508SOL     OW 4975   0.916   2.772   4.016
 1508SOL    HW1 4976   0.976   2.805   3.948
 1508SOL    HW2 4977   0.966   2.705   4.061
 1509SOL     OW 4978   1.488   3.493   3.768
 1509SOL    HW1 4979   1.394   3.483   3.753
 1509SOL    HW2 4980   1.526   3.498   3.681
 1510SOL     OW 4981   0.366   3.167   5.218
 1510SOL    HW1 4982   0.359   3.240   5.157
 1510SOL    HW2 4983   0.291   3.111   5.198
 1511SOL     OW 4984   1.616   3.146   5.007
 1511SOL    HW1 4985   1.664   3.126   5.087
 1511SOL    HW2 4986   1.552   3.213   5.033
 1512SOL     OW 4987   1.061   2.972   4.435
 1512SOL    HW1 4988   0.988   2.922   4.472
 1512SOL    HW2 4989   1.125   2.906   4.408
 1513SOL     OW 4990   1.025   2.104   4.690
 1513SOL    HW1 4991   1.021   2.058   4.606
 1513SOL    HW2 4992   1.019   2.035   4.756
 1514SOL     OW 4993   0.604   3.350   4.203
 1514SOL    HW1 4994   0.653   3.300   4.138
 1514SOL    HW2 4995   0.533   3.392   4.153
 1515SOL     OW 4996   1.730   2.255   5.105
 1515SOL    HW1 4997   1.801   2.319   5.097
 1515SOL    HW2 4998   1.758   2.181   5.050
 1516SOL     OW 4999   0.264   3.210   4.023
 1516SOL    HW1 5000   0.172   3.209   3.998
 1516SOL    HW2 5001   0.264   3.250   4.111
 1517SOL     OW 5002   0.121   2.879   5.439
 1517SOL    HW1 5003   0.051   2.844   5.495
 1517SOL    HW2 5004   0.201   2.848   5.481
 1518SOL     OW 5005   0.676   2.057   5.224
 1518SOL    HW1 5006   0.760   2.035   5.184
 1518SOL    HW2 5007   0.700   2.090   5.311
 1519SOL     OW 5008   0.089   2.194   3.760
 1519SOL    HW1 5009   0.002   2.160   3.741
 1519SOL    HW2 5010   0.103   2.263   3.694
 1520SOL     OW 5011   1.425   2.719   5.121
 1520SOL    HW1 5012   1.375   2.780   5.067
 1520SOL    HW2 5013   1.514   2.724   5.086
 1521SOL     OW 5014   0.066   2.001   3.981
 1521SOL    HW1 5015   0.061   2.087   3.940
 1521SOL    HW2 5016   0.147   1.963   3.947
 1522SOL     OW 5017   1.178   3.196   3.842
 1522SOL    HW1 5018   1.086   3.167   3.843
 1522SOL    HW2 5019   1.203   3.197   3.934
 1523SOL     OW 5020   0.622   2.693   5.162
 1523SOL    HW1 5021   0.679   2.768   5.146
 1523SOL    HW2 5022   0.681   2.618   5.168
 1524SOL     OW 5023   1.480   3.646   4.706
 1524SOL    HW1 5024   1.506   3.712   4.642
 1524SOL    HW2 5025   1.563   3.610   4.738
 1525SOL     OW 5026   0.718   2.422   5.424
 1525SOL    HW1 5027   0.763   2.481   5.485
 1525SOL    HW2 5028   0.737   2.334   5.458
 1526SOL     OW 5029   1.473   3.055   5.353
 1526SOL    HW1 5030   1.461   3.071   5.446
 1526SOL    HW2 5031   1.565   3.077   5.336
 1527SOL     OW 5032   0.370   3.608   5.290
 1527SOL    HW1 5033   0.288   3.654   5.271
 1527SOL    HW2 5034   0.343   3.527   5.334
 1528SOL     OW 5035   1.664   2.743   4.978
 1528SOL    HW1 5036   1.659   2.659   4.932
 1528SOL    HW2 5037   1.655   2.809   4.908
 1529SOL     OW 5038   1.216   2.182   4.181
 1529SOL    HW1 5039   1.278   2.109   4.175
 1529SOL    HW2 5040   1.245   2.232   4.257
 1530SOL     OW 5041   0.586   2.596   4.397
 1530SOL    HW1 5042   0.626   2.681   4.382
 1530SOL    HW2 5043   0.519   2.588   4.329
 1531SOL     OW 5044   1.757   2.225   5.375
 1531SOL    HW1 5045   1.741   2.242   5.283
 1531SOL    HW2 5046   1.685   2.169   5.403
 1532SOL     OW 5047   1.750   2.792   5.235
 1532SOL    HW1 5048   1.740   2.886   5.250
 1532SOL    HW2 5049   1.733   2.780   5.141
 1533SOL     OW 5050   0.865   3.227   3.767
 1533SOL    HW1 5051   0.826   3.256   3.850
 1533SOL    HW2 5052   0.880   3.307   3.718
 1534SOL     OW 5053   0.667   3.650   4.660
 1534SOL    HW1 5054   0.648   3.742   4.641
 1534SOL    HW2 5055   0.763   3.645   4.655
 1535SOL     OW 5056   0.870   2.832   4.577
 1535SOL    HW1 5057   0.920   2.760   4.615
 1535SOL    HW2 5058   0.831   2.877   4.652
 1536SOL     OW 5059   1.076   2.849   3.813
 1536SOL    HW1 5060   1.055   2.902   3.735
 1536SOL    HW2 5061   1.150   2.795   3.786
 1537SOL     OW 5062   1.855   3.413   4.568
 1537SOL    HW1 5063   1.771   3.396   4.524
 1537SOL    HW2 5064   1.870   3.334   4.621
 1538SOL     OW 5065   0.230   3.163   5.587
 1538SOL    HW1 5066   0.163   3.100   5.560
 1538SOL    HW2 5067   0.216   3.174   5.681
 1539SOL     OW 5068   0.093   3.065   4.373
 1539SOL    HW1 5069   0.116   3.042   4.463
 1539SOL    HW2 5070   0.174   3.100   4.337
 1540SOL     OW 5071   0.685   3.269   5.356
 1540SOL    HW1 5072   0.605   3.228   5.388
 1540SOL    HW2 5073   0.682   3.358   5.392
 1541SOL     OW 5074   1.813   2.045   4.963
 1541SOL    HW1 5075   1.823   1.951   4.978
 1541SOL    HW2 5076   1.823   2.055   4.868
 1542SOL     OW 5077   0.439   2.297   4.247
 1542SOL    HW1 5078   0.467   2.224   4.191
 1542SOL    HW2 5079   0.390   2.256   4.318
 1543SOL     OW 5080   1.674   3.369   4.830
 1543SOL    HW1 5081   1.607   3.342   4.768
 1543SOL    HW2 5082   1.690   3.291   4.883
 1544SOL     OW 5083   0.342   2.427   5.017
 1544SOL    HW1 5084   0.395   2.367   5.070
 1544SOL    HW2 5085   0.354   2.396   4.927
 1545SOL     OW 5086   0.834   3.440   4.399
 1545SOL    HW1 5087   0.812   3.506   4.333
 1545SOL    HW2 5088   0.758   3.381   4.399
 1546SOL     OW 5089   1.429   2.091   4.841
 1546SOL    HW1 5090   1.446   2.006   4.881
 1546SOL    HW2 5091   1.378   2.139   4.906
 1547SOL     OW 5092   1.009   1.879   4.860
 1547SOL    HW1 5093   0.954   1.813   4.817
 1547SOL    HW2 5094   1.096   1.839   4.862
 1548SOL     OW 5095   0.773   3.196   4.046
 1548SOL    HW1 5096   0.747   3.104   4.053
 1548SOL    HW2 5097   0.855   3.201   4.095
 1549SOL     OW 5098   0.624   3.417   5.014
 1549SOL    HW1 5099   0.624   3.499   5.063
 1549SOL    HW2 5100   0.712   3.413   4.975
 1550SOL     OW 5101   1.356   1.913   3.897
 1550SOL    HW1 5102   1.389   1.845   3.838
 1550SOL    HW2 5103   1.267   1.886   3.918
 1551SOL     OW 5104   1.296   2.325   4.402
 1551SOL    HW1 5105   1.243   2.405   4.405
 1551SOL    HW2 5106   1.291   2.289   4.490
 1552SOL     OW 5107   1.577   2.056   4.604
 1552SOL    HW1 5108   1.523   2.081   4.679
 1552SOL    HW2 5109   1.577   2.134   4.548
 1553SOL     OW 5110   0.049   2.928   4.014
 1553SOL    HW1 5111   0.137   2.891   4.005
 1553SOL    HW2 5112   5.298   2.857   4.053
 1554SOL     OW 5113   0.891   3.521   4.061
 1554SOL    HW1 5114   0.815   3.507   4.003
 1554SOL    HW2 5115   0.864   3.594   4.117
 1555SOL     OW 5116   0.230   2.487   5.705
 1555SOL    HW1 5117   0.163   2.444   5.759
 1555SOL    HW2 5118   0.209   2.462   5.615
 1556SOL     OW 5119   0.246   2.138   6.573
 1556SOL    HW1 5120   0.259   2.102   6.661
 1556SOL    HW2 5121   0.160   2.105   6.546
 1557SOL     OW 5122   5.296   2.265   6.242
 1557SOL    HW1 5123   5.203   2.286   6.243
 1557SOL    HW2 5124   0.000   2.177   6.205
 1558SOL     OW 5125   0.580   3.157   6.780
 1558SOL    HW1 5126   0.499   3.163   6.730
 1558SOL    HW2 5127   0.595   3.246   6.812
 1559SOL     OW 5128   1.571   3.376   6.295
 1559SOL    HW1 5129   1.528   3.353   6.377
 1559SOL    HW2 5130   1.500   3.380   6.230
 1560SOL     OW 5131   1.133   2.560   6.281
 1560SOL    HW1 5132   1.181   2.642   6.269
 1560SOL    HW2 5133   1.085   2.572   6.363
 1561SOL     OW 5134   1.778   2.461   5.812
 1561SOL    HW1 5135   1.751   2.456   5.720
 1561SOL    HW2 5136   1.737   2.384   5.852
 1562SOL     OW 5137   0.746   2.997   6.631
 1562SOL    HW1 5138   0.684   3.035   6.694
 1562SOL    HW2 5139   0.785   3.073   6.587
 1563SOL     OW 5140   0.873   2.625   7.405
 1563SOL    HW1 5141   0.868   2.698   7.468
 1563SOL    HW2 5142   0.896   2.666   7.322
 1564SOL     OW 5143   0.685   2.858   6.230
 1564SOL    HW1 5144   0.752   2.850   6.298
 1564SOL    HW2 5145   0.618   2.915   6.269
 1565SOL     OW 5146   0.713   3.013   7.405
 1565SOL    HW1 5147   0.762   3.090   7.435
 1565SOL    HW2 5148   0.634   3.049   7.364
 1566SOL     OW 5149   0.360   3.264   6.647
 1566SOL    HW1 5150   0.269   3.266   6.616
 1566SOL    HW2 5151   0.407   3.325   6.591
 1567SOL     OW 5152   1.459   3.364   6.947
 1567SOL    HW1 5153   1.514   3.443   6.956
 1567SOL    HW2 5154   1.391   3.375   7.013
 1568SOL     OW 5155   0.454   2.259   7.070
 1568SOL    HW1 5156   0.529   2.200   7.076
 1568SOL    HW2 5157   0.378   2.204   7.085
 1569SOL     OW 5158   1.606   2.305   6.330
 1569SOL    HW1 5159   1.534   2.323   6.271
 1569SOL    HW2 5160   1.608   2.381   6.389
 1570SOL     OW 5161   0.240   3.574   6.062
 1570SOL    HW1 5162   0.266   3.647   6.120
 1570SOL    HW2 5163   0.304   3.576   5.991
 1571SOL     OW 5164   1.137   3.203   7.276
 1571SOL    HW1 5165   1.178   3.199   7.362
 1571SOL    HW2 5166   1.086   3.123   7.269
 1572SOL     OW 5167   0.217   3.312   6.131
 1572SOL    HW1 5168   0.226   3.406   6.113
 1572SOL    HW2 5169   0.145   3.307   6.194
 1573SOL     OW 5170   0.255   2.937   6.456
 1573SOL    HW1 5171   0.266   2.849   6.493
 1573SOL    HW2 5172   0.201   2.983   6.520
 1574SOL     OW 5173   0.605   3.653   7.016
 1574SOL    HW1 5174   0.522   3.636   7.060
 1574SOL    HW2 5175   0.628   3.743   7.041
 1575SOL     OW 5176   0.576   2.848   5.726
 1575SOL    HW1 5177   0.626   2.893   5.657
 1575SOL    HW2 5178   0.616   2.879   5.808
 1576SOL     OW 5179   1.596   1.989   7.050
 1576SOL    HW1 5180   1.618   2.070   7.004
 1576SOL    HW2 5181   1.575   2.018   7.139
 1577SOL     OW 5182   0.128   2.491   6.168
 1577SOL    HW1 5183   0.089   2.410   6.200
 1577SOL    HW2 5184   0.100   2.558   6.230
 1578SOL     OW 5185   1.844   3.616   5.917
 1578SOL    HW1 5186   1.913   3.590   5.978
 1578SOL    HW2 5187   1.861   3.708   5.897
 1579SOL     OW 5188   0.039   3.462   5.722
 1579SOL    HW1 5189   0.027   3.370   5.747
 1579SOL    HW2 5190   5.275   3.510   5.775
 1580SOL     OW 5191   1.688   2.781   6.230
 1580SOL    HW1 5192   1.770   2.737   6.207
 1580SOL    HW2 5193   1.666   2.833   6.153
 1581SOL     OW 5194   1.650   2.965   6.016
 1581SOL    HW1 5195   1.736   2.966   5.974
 1581SOL    HW2 5196   1.656   3.029   6.087
 1582SOL     OW 5197   0.138   2.610   7.169
 1582SOL    HW1 5198   0.233   2.622   7.165
 1582SOL    HW2 5199   0.104   2.697   7.189
 1583SOL     OW 5200   0.619   3.252   6.320
 1583SOL    HW1 5201   0.572   3.169   6.329
 1583SOL    HW2 5202   0.601   3.280   6.230
 1584SOL     OW 5203   1.285   3.098   7.006
 1584SOL    HW1 5204   1.316   3.029   6.947
 1584SOL    HW2 5205   1.345   3.093   7.082
 1585SOL     OW 5206   0.829   1.865   6.100
 1585SOL    HW1 5207   0.869   1.949   6.076
 1585SOL    HW2 5208   0.735   1.884   6.103
 1586SOL     OW 5209   0.168   2.799   6.868
 1586SOL    HW1 5210   0.258   2.768   6.862
 1586SOL    HW2 5211   0.134   2.791   6.779
 1587SOL     OW 5212   1.531   2.861   5.787
 1587SOL    HW1 5213   1.462   2.804   5.820
 1587SOL    HW2 5214   1.574   2.895   5.865
 1588SOL     OW 5215   1.183   3.675   7.212
 1588SOL    HW1 5216   1.189   3.736   7.138
 1588SOL    HW2 5217   1.202   3.589   7.173
 1589SOL     OW 5218   0.351   2.116   7.416
 1589SOL    HW1 5219   0.393   2.199   7.437
 1589SOL    HW2 5220   0.259   2.128   7.442
 1590SOL     OW 5221   1.468   3.281   6.533
 1590SOL    HW1 5222   1.401   3.297   6.600
 1590SOL    HW2 5223   1.454   3.190   6.507
 1591SOL     OW 5224   1.652   3.616   6.163
 1591SOL    HW1 5225   1.635   3.582   6.075
 1591SOL    HW2 5226   1.635   3.542   6.221
 1592SOL     OW 5227   0.594   2.579   5.858
 1592SOL    HW1 5228   0.600   2.662   5.811
 1592SOL    HW2 5229   0.528   2.595   5.926
 1593SOL     OW 5230   1.279   2.227   6.520
 1593SOL    HW1 5231   1.190   2.193   6.528
 1593SOL    HW2 5232   1.331   2.172   6.579
 1594SOL     OW 5233   1.579   3.535   5.897
 1594SOL    HW1 5234   1.670   3.561   5.888
 1594SOL    HW2 5235   1.550   3.519   5.807
 1595SOL     OW 5236   0.790   2.480   7.034
 1595SOL    HW1 5237   0.764   2.453   7.122
 1595SOL    HW2 5238   0.756   2.410   6.977
 1596SOL     OW 5239   1.393   2.336   7.263
 1596SOL    HW1 5240   1.397   2.381   7.347
 1596SOL    HW2 5241   1.450   2.260   7.273
 1597SOL     OW 5242   0.951   2.748   7.171
 1597SOL    HW1 5243   1.006   2.679   7.132
 1597SOL    HW2 5244   0.902   2.784   7.097
 1598SOL     OW 5245   0.994   2.271   6.819
 1598SOL    HW1 5246   0.905   2.288   6.849
 1598SOL    HW2 5247   0.983   2.228   6.734
 1599SOL     OW 5248   1.054   2.560   6.010
 1599SOL    HW1 5249   1.072   2.554   6.104
 1599SOL    HW2 5250   0.970   2.515   5.999
 1600SOL     OW 5251   0.065   2.654   6.394
 1600SOL    HW1 5252   0.145   2.658   6.446
 1600SOL    HW2 5253   0.073   2.727   6.332
 1601SOL     OW 5254   0.122   3.749   7.173
 1601SOL    HW1 5255   0.129   3.727   7.266
 1601SOL    HW2 5256   0.058   3.688   7.138
 1602SOL     OW 5257   0.899   2.213   5.781
 1602SOL    HW1 5258   0.938   2.277   5.722
 1602SOL    HW2 5259   0.909   2.129   5.737
 1603SOL     OW 5260   1.704   2.432   7.418
 1603SOL    HW1 5261   1.669   2.507   7.368
 1603SOL    HW2 5262   1.733   2.370   7.350
 1604SOL     OW 5263   1.381   3.004   6.125
 1604SOL    HW1 5264   1.460   2.993   6.073
 1604SOL    HW2 5265   1.327   3.066   6.076
 1605SOL     OW 5266   0.561   2.043   6.483
 1605SOL    HW1 5267   0.558   2.072   6.574
 1605SOL    HW2 5268   0.553   2.123   6.432
 1606SOL     OW 5269   0.999   3.305   6.054
 1606SOL    HW1 5270   0.969   3.380   6.004
 1606SOL    HW2 5271   0.976   3.325   6.145
 1607SOL     OW 5272   0.360   3.670   6.458
 1607SOL    HW1 5273   0.399   3.584   6.471
 1607SOL    HW2 5274   0.425   3.732   6.492
 1608SOL     OW 5275   1.799   2.911   6.459
 1608SOL    HW1 5276   1.747   2.894   6.381
 1608SOL    HW2 5277   1.735   2.919   6.530
 1609SOL     OW 5278   1.227   3.403   7.099
 1609SOL    HW1 5279   1.215   3.330   7.159
 1609SOL    HW2 5280   1.159   3.391   7.033
 1610SOL     OW 5281   0.311   2.813   5.838
 1610SOL    HW1 5282   0.392   2.836   5.792
 1610SOL    HW2 5283   0.290   2.725   5.805
 1611SOL     OW 5284   1.482   2.611   6.307
 1611SOL    HW1 5285   1.478   2.572   6.395
 1611SOL    HW2 5286   1.559   2.667   6.309
 1612SOL     OW 5287   0.468   3.128   7.324
 1612SOL    HW1 5288   0.442   3.134   7.232
 1612SOL    HW2 5289   0.385   3.127   7.372
 1613SOL     OW 5290   1.125   3.640   5.815
 1613SOL    HW1 5291   1.049   3.600   5.858
 1613SOL    HW2 5292   1.149   3.577   5.747
 1614SOL     OW 5293   0.207   2.136   7.084
 1614SOL    HW1 5294   0.130   2.189   7.062
 1614SOL    HW2 5295   0.171   2.055   7.120
 1615SOL     OW 5296   1.628   3.243   5.677
 1615SOL    HW1 5297   1.588   3.329   5.662
 1615SOL    HW2 5298   1.560   3.180   5.656
 1616SOL     OW 5299   0.471   3.597   5.903
 1616SOL    HW1 5300   0.517   3.653   5.965
 1616SOL    HW2 5301   0.541   3.563   5.846
 1617SOL     OW 5302   1.400   1.969   6.026
 1617SOL    HW1 5303   1.392   1.944   5.934
 1617SOL    HW2 5304   1.494   1.973   6.041
 1618SOL     OW 5305   0.277   3.663   6.788
 1618SOL    HW1 5306   0.306   3.580   6.827
 1618SOL    HW2 5307   0.220   3.636   6.716
 1619SOL     OW 5308   0.941   3.562   6.482
 1619SOL    HW1 5309   1.020   3.513   6.504
 1619SOL    HW2 5310   0.900   3.511   6.412
 1620SOL     OW 5311   0.386   2.556   6.063
 1620SOL    HW1 5312   0.415   2.465   6.073
 1620SOL    HW2 5313   0.293   2.553   6.086
 1621SOL     OW 5314   1.528   2.086   7.309
 1621SOL    HW1 5315   1.539   2.107   7.402
 1621SOL    HW2 5316   1.459   2.019   7.308
 1622SOL     OW 5317   0.644   1.980   5.688
 1622SOL    HW1 5318   0.705   1.907   5.705
 1622SOL    HW2 5319   0.591   1.950   5.614
 1623SOL     OW 5320   0.763   2.140   7.343
 1623SOL    HW1 5321   0.844   2.088   7.340
 1623SOL    HW2 5322   0.722   2.116   7.425
 1624SOL     OW 5323   0.878   3.386   6.780
 1624SOL    HW1 5324   0.859   3.347   6.694
 1624SOL    HW2 5325   0.947   3.330   6.816
 1625SOL     OW 5326   1.338   2.452   7.018
 1625SOL    HW1 5327   1.369   2.421   7.103
 1625SOL    HW2 5328   1.375   2.540   7.010
 1626SOL     OW 5329   0.819   3.249   6.532
 1626SOL    HW1 5330   0.904   3.239   6.490
 1626SOL    HW2 5331   0.757   3.257   6.460
 1627SOL     OW 5332   0.929   2.372   6.486
 1627SOL    HW1 5333   0.904   2.363   6.394
 1627SOL    HW2 5334   0.958   2.284   6.511
 1628SOL     OW 5335   0.564   1.923   6.077
 1628SOL    HW1 5336   0.489   1.924   6.137
 1628SOL    HW2 5337   0.552   2.001   6.023
 1629SOL     OW 5338   1.428   3.063   5.625
 1629SOL    HW1 5339   1.457   2.988   5.677
 1629SOL    HW2 5340   1.342   3.086   5.662
 1630SOL     OW 5341   0.307   1.907   5.761
 1630SOL    HW1 5342   0.366   1.974   5.728
 1630SOL    HW2 5343   0.363   1.846   5.809
 1631SOL     OW 5344   0.944   2.112   6.040
 1631SOL    HW1 5345   0.919   2.151   5.957
 1631SOL    HW2 5346   1.038   2.128   6.047
 1632SOL     OW 5347   1.080   2.546   7.042
 1632SOL    HW1 5348   1.015   2.476   7.047
 1632SOL    HW2 5349   1.164   2.501   7.037
 1633SOL     OW 5350   1.219   3.434   6.381
 1633SOL    HW1 5351   1.233   3.500   6.312
 1633SOL    HW2 5352   1.289   3.451   6.444
 1634SOL     OW 5353   0.471   3.016   6.309
 1634SOL    HW1 5354   0.403   2.993   6.373
 1634SOL    HW2 5355   0.430   3.001   6.224
 1635SOL     OW 5356   1.264   3.654   6.198
 1635SOL    HW1 5357   1.312   3.716   6.144
 1635SOL    HW2 5358   1.195   3.706   6.239
 1636SOL     OW 5359   1.024   2.396   5.612
 1636SOL    HW1 5360   0.980   2.479   5.593
 1636SOL    HW2 5361   1.089   2.419   5.679
 1637SOL     OW 5362   0.094   2.400   6.988
 1637SOL    HW1 5363   0.181   2.409   6.950
 1637SOL    HW2 5364   0.083   2.478   7.042
 1638SOL     OW 5365   0.561   2.091   6.757
 1638SOL    HW1 5366   0.598   2.014   6.799
 1638SOL    HW2 5367   0.469   2.090   6.782
 1639SOL     OW 5368   0.867   2.319   6.224
 1639SOL    HW1 5369   0.823   2.375   6.160
 1639SOL    HW2 5370   0.890   2.240   6.175
 1640SOL     OW 5371   1.018   1.916   6.333
 1640SOL    HW1 5372   0.959   1.909   6.258
 1640SOL    HW2 5373   0.995   1.842   6.389
 1641SOL     OW 5374   1.440   3.022   6.443
 1641SOL    HW1 5375   1.368   2.959   6.443
 1641SOL    HW2 5376   1.464   3.030   6.351
 1642SOL     OW 5377   1.466   2.471   6.553
 1642SOL    HW1 5378   1.408   2.395   6.557
 1642SOL    HW2 5379   1.522   2.463   6.630
 1643SOL     OW 5380   1.842   2.672   5.972
 1643SOL    HW1 5381   1.900   2.623   6.030
 1643SOL    HW2 5382   1.817   2.609   5.904
 1644SOL     OW 5383   0.491   3.285   5.739
 1644SOL    HW1 5384   0.416   3.258   5.791
 1644SOL    HW2 5385   0.483   3.235   5.658
 1645SOL     OW 5386   1.677   3.125   6.228
 1645SOL    HW1 5387   1.771   3.125   6.244
 1645SOL    HW2 5388   1.649   3.215   6.250
 1646SOL     OW 5389   1.393   2.435   5.657
 1646SOL    HW1 5390   1.331   2.414   5.727
 1646SOL    HW2 5391   1.478   2.404   5.690
 1647SOL     OW 5392   0.525   2.124   5.896
 1647SOL    HW1 5393   0.576   2.080   5.827
 1647SOL    HW2 5394   0.499   2.207   5.857
 1648SOL     OW 5395   1.748   3.105   7.148
 1648SOL    HW1 5396   1.835   3.067   7.139
 1648SOL    HW2 5397   1.763   3.194   7.179
 1649SOL     OW 5398   1.055   3.214   6.916
 1649SOL    HW1 5399   0.979   3.184   6.967
 1649SOL    HW2 5400   1.130   3.173   6.959
 1650SOL     OW 5401   1.609   3.490   7.241
 1650SOL    HW1 5402   1.602   3.524   7.152
 1650SOL    HW2 5403   1.691   3.440   7.241
 1651SOL     OW 5404   1.135   3.071   6.688
 1651SOL    HW1 5405   1.075   3.110   6.752
 1651SOL    HW2 5406   1.105   3.107   6.604
 1652SOL     OW 5407   1.622   2.957   6.662
 1652SOL    HW1 5408   1.616   3.020   6.734
 1652SOL    HW2 5409   1.546   2.977   6.606
 1653SOL     OW 5410   0.919   1.954   6.978
 1653SOL    HW1 5411   0.941   1.937   6.887
 1653SOL    HW2 5412   0.998   1.994   7.015
 1654SOL     OW 5413   0.984   2.976   7.313
 1654SOL    HW1 5414   0.893   2.993   7.333
 1654SOL    HW2 5415   0.982   2.898   7.257
 1655SOL     OW 5416   0.709   2.924   5.958
 1655SOL    HW1 5417   0.696   2.904   6.050
 1655SOL    HW2 5418   0.784   2.870   5.932
 1656SOL     OW 5419   0.420   2.687   6.842
 1656SOL    HW1 5420   0.490   2.695   6.908
 1656SOL    HW2 5421   0.389   2.597   6.851
 1657SOL     OW 5422   1.263   2.237   6.866
 1657SOL    HW1 5423   1.295   2.315   6.912
 1657SOL    HW2 5424   1.172   2.257   6.845
 1658SOL     OW 5425   0.104   3.481   6.948
 1658SOL    HW1 5426   0.084   3.486   6.855
 1658SOL    HW2 5427   0.193   3.445   6.952
 1659SOL     OW 5428   0.342   2.977   6.066
 1659SOL    HW1 5429   0.339   3.056   6.012
 1659SOL    HW2 5430   0.341   2.904   6.003
 1660SOL     OW 5431   0.549   2.392   6.444
 1660SOL    HW1 5432   0.563   2.451   6.370
 1660SOL    HW2 5433   0.616   2.418   6.508
 1661SOL     OW 5434   1.247   3.212   5.977
 1661SOL    HW1 5435   1.303   3.283   6.008
 1661SOL    HW2 5436   1.160   3.233   6.010
 1662SOL     OW 5437   1.290   3.323   6.735
 1662SOL    HW1 5438   1.346   3.328   6.812
 1662SOL    HW2 5439   1.234   3.247   6.751
 1663SOL     OW 5440   1.578   2.482   6.070
 1663SOL    HW1 5441   1.528   2.528   6.137
 1663SOL    HW2 5442   1.621   2.551   6.020
 1664SOL     OW 5443   0.353   3.383   6.893
 1664SOL    HW1 5444   0.343   3.338   6.809
 1664SOL    HW2 5445   0.447   3.400   6.900
 1665SOL     OW 5446   0.419   2.603   7.189
 1665SOL    HW1 5447   0.482   2.648   7.133
 1665SOL    HW2 5448   0.456   2.515   7.201
 1666SOL     OW 5449   1.607   2.642   7.274
 1666SOL    HW1 5450   1.522   2.684   7.267
 1666SOL    HW2 5451   1.660   2.684   7.206
 1667SOL     OW 5452   0.996   1.995   7.339
 1667SOL    HW1 5453   1.055   2.068   7.318
 1667SOL    HW2 5454   1.045   1.917   7.314
 1668SOL     OW 5455   0.498   1.898   7.337
 1668SOL    HW1 5456   0.451   1.847   7.271
 1668SOL    HW2 5457   0.445   1.976   7.350
 1669SOL     OW 5458   0.586   2.738   6.620
 1669SOL    HW1 5459   0.622   2.826   6.622
 1669SOL    HW2 5460   0.529   2.734   6.698
 1670SOL     OW 5461   1.347   2.720   6.607
 1670SOL    HW1 5462   1.261   2.705   6.569
 1670SOL    HW2 5463   1.393   2.637   6.597
 1671SOL     OW 5464   1.199   2.389   5.848
 1671SOL    HW1 5465   1.208   2.311   5.903
 1671SOL    HW2 5466   1.157   2.454   5.904
 1672SOL     OW 5467   0.301   2.063   6.832
 1672SOL    HW1 5468   0.269   2.085   6.920
 1672SOL    HW2 5469   0.290   1.969   6.825
 1673SOL     OW 5470   0.053   3.172   6.863
 1673SOL    HW1 5471   0.086   3.116   6.933
 1673SOL    HW2 5472   5.282   3.222   6.902
 1674SOL     OW 5473   0.720   2.491   6.638
 1674SOL    HW1 5474   0.797   2.479   6.583
 1674SOL    HW2 5475   0.692   2.581   6.621
 1675SOL     OW 5476   1.739   2.822   7.444
 1675SOL    HW1 5477   1.693   2.755   7.393
 1675SOL    HW2 5478   1.681   2.840   7.518
 1676SOL     OW 5479   0.328   1.924   6.218
 1676SOL    HW1 5480   0.308   2.014   6.242
 1676SOL    HW2 5481   0.336   1.877   6.301
 1677SOL     OW 5482   1.623   2.241   5.946
 1677SOL    HW1 5483   1.650   2.176   6.010
 1677SOL    HW2 5484   1.598   2.318   5.999
 1678SOL     OW 5485   1.030   2.620   6.544
 1678SOL    HW1 5486   1.020   2.637   6.638
 1678SOL    HW2 5487   1.003   2.529   6.533
 1679SOL     OW 5488   0.980   3.426   7.307
 1679SOL    HW1 5489   0.965   3.471   7.224
 1679SOL    HW2 5490   1.026   3.346   7.282
 1680SOL     OW 5491   1.851   3.363   7.189
 1680SOL    HW1 5492   1.873   3.390   7.100
 1680SOL    HW2 5493   1.931   3.377   7.240
 1681SOL     OW 5494   0.356   2.777   7.394
 1681SOL    HW1 5495   0.437   2.800   7.439
 1681SOL    HW2 5496   0.383   2.713   7.328
 1682SOL     OW 5497   1.526   2.134   5.712
 1682SOL    HW1 5498   1.463   2.068   5.740
 1682SOL    HW2 5499   1.561   2.171   5.793
 1683SOL     OW 5500   1.286   2.686   5.614
 1683SOL    HW1 5501   1.329   2.601   5.619
 1683SOL    HW2 5502   1.319   2.725   5.533
 1684SOL     OW 5503   1.070   3.201   6.443
 1684SOL    HW1 5504   1.075   3.129   6.380
 1684SOL    HW2 5505   1.127   3.268   6.407
 1685SOL     OW 5506   0.311   2.670   6.534
 1685SOL    HW1 5507   0.405   2.688   6.533
 1685SOL    HW2 5508   0.304   2.580   6.565
 1686SOL     OW 5509   0.332   2.391   6.603
 1686SOL    HW1 5510   0.297   2.302   6.590
 1686SOL    HW2 5511   0.407   2.395   6.544
 1687SOL     OW 5512   1.135   2.234   7.271
 1687SOL    HW1 5513   1.086   2.288   7.333
 1687SOL    HW2 5514   1.221   2.274   7.266
 1688SOL     OW 5515   1.161   2.059   7.058
 1688SOL    HW1 5516   1.149   2.122   7.129
 1688SOL    HW2 5517   1.203   2.110   6.988
 1689SOL     OW 5518   0.007   3.185   5.794
 1689SOL    HW1 5519   5.237   3.171   5.730
 1689SOL    HW2 5520   0.016   3.101   5.839
 1690SOL     OW 5521   0.102   3.643   6.545
 1690SOL    HW1 5522   0.064   3.579   6.485
 1690SOL    HW2 5523   0.187   3.665   6.507
 1691SOL     OW 5524   0.503   3.436   6.494
 1691SOL    HW1 5525   0.570   3.502   6.513
 1691SOL    HW2 5526   0.546   3.376   6.433
 1692SOL     OW 5527   0.973   2.649   6.809
 1692SOL    HW1 5528   1.033   2.630   6.881
 1692SOL    HW2 5529   0.889   2.610   6.836
 1693SOL     OW 5530   0.030   2.436   6.707
 1693SOL    HW1 5531   0.115   2.413   6.671
 1693SOL    HW2 5532   0.035   2.410   6.799
 1694SOL     OW 5533   0.168   2.375   7.305
 1694SOL    HW1 5534   0.227   2.329   7.245
 1694SOL    HW2 5535   0.147   2.457   7.260
 1695SOL     OW 5536   1.380   2.795   7.243
 1695SOL    HW1 5537   1.402   2.889   7.239
 1695SOL    HW2 5538   1.376   2.768   7.151
 1696SOL     OW 5539   0.818   2.432   5.953
 1696SOL    HW1 5540   0.823   2.358   5.892
 1696SOL    HW2 5541   0.743   2.483   5.921
 1697SOL     OW 5542   1.639   2.463   6.765
 1697SOL    HW1 5543   1.629   2.405   6.841
 1697SOL    HW2 5544   1.727   2.444   6.732
 1698SOL     OW 5545   0.253   3.416   7.319
 1698SOL    HW1 5546   0.234   3.479   7.388
 1698SOL    HW2 5547   0.253   3.331   7.363
 1699SOL     OW 5548   0.714   2.307   6.839
 1699SOL    HW1 5549   0.657   2.234   6.814
 1699SOL    HW2 5550   0.704   2.371   6.768
 1700SOL     OW 5551   0.923   3.540   7.057
 1700SOL    HW1 5552   0.898   3.501   6.973
 1700SOL    HW2 5553   0.917   3.634   7.043
 1701SOL     OW 5554   0.463   2.354   5.763
 1701SOL    HW1 5555   0.524   2.422   5.791
 1701SOL    HW2 5556   0.380   2.400   5.750
 1702SOL     OW 5557   0.146   2.998   7.055
 1702SOL    HW1 5558   0.142   2.953   7.139
 1702SOL    HW2 5559   0.155   2.928   6.990
 1703SOL     OW 5560   1.320   2.905   6.805
 1703SOL    HW1 5561   1.341   2.842   6.736
 1703SOL    HW2 5562   1.254   2.961   6.766
 1704SOL     OW 5563   1.317   2.718   5.889
 1704SOL    HW1 5564   1.242   2.688   5.942
 1704SOL    HW2 5565   1.289   2.705   5.798
 1705SOL     OW 5566   1.779   3.599   6.742
 1705SOL    HW1 5567   1.839   3.625   6.672
 1705SOL    HW2 5568   1.752   3.510   6.719
 1706SOL     OW 5569   1.240   3.594   6.691
 1706SOL    HW1 5570   1.323   3.619   6.650
 1706SOL    HW2 5571   1.250   3.502   6.712
 1707SOL     OW 5572   0.081   3.065   6.613
 1707SOL    HW1 5573   0.067   3.094   6.703
 1707SOL    HW2 5574   5.293   3.058   6.576
 1708SOL     OW 5575   0.678   3.532   7.323
 1708SOL    HW1 5576   0.620   3.607   7.316
 1708SOL    HW2 5577   0.748   3.549   7.260
 1709SOL     OW 5578   1.724   2.018   6.091
 1709SOL    HW1 5579   1.794   2.001   6.028
 1709SOL    HW2 5580   1.706   1.933   6.131
 1710SOL     OW 5581   1.393   3.430   6.077
 1710SOL    HW1 5582   1.451   3.464   6.009
 1710SOL    HW2 5583   1.342   3.506   6.105
 1711SOL     OW 5584   0.145   3.659   7.430
 1711SOL    HW1 5585   0.091   3.598   7.479
 1711SOL    HW2 5586   0.200   3.702   7.496
 1712SOL     OW 5587   1.278   2.790   6.256
 1712SOL    HW1 5588   1.352   2.730   6.267
 1712SOL    HW2 5589   1.312   2.862   6.203
 1713SOL     OW 5590   0.805   3.138   7.010
 1713SOL    HW1 5591   0.777   3.180   7.091
 1713SOL    HW2 5592   0.734   3.156   6.948
 1714SOL     OW 5593   0.672   3.487   5.740
 1714SOL    HW1 5594   0.684   3.502   5.646
 1714SOL    HW2 5595   0.616   3.409   5.745
 1715SOL     OW 5596   1.619   3.590   6.976
 1715SOL    HW1 5597   1.673   3.595   6.897
 1715SOL    HW2 5598   1.605   3.681   7.002
 1716SOL     OW 5599   1.843   2.032   6.551
 1716SOL    HW1 5600   1.871   1.944   6.527
 1716SOL    HW2 5601   1.756   2.041   6.512
 1717SOL     OW 5602   0.275   2.178   6.301
 1717SOL    HW1 5603   0.188   2.216   6.285
 1717SOL    HW2 5604   0.279   2.168   6.397
 1718SOL     OW 5605   1.208   3.463   5.619
 1718SOL    HW1 5606   1.197   3.372   5.645
 1718SOL    HW2 5607   1.143   3.477   5.551
 1719SOL     OW 5608   0.824   2.869   6.961
 1719SOL    HW1 5609   0.867   2.862   6.876
 1719SOL    HW2 5610   0.820   2.963   6.979
 1720SOL     OW 5611   0.916   2.772   5.877
 1720SOL    HW1 5612   0.975   2.805   5.810
 1720SOL    HW2 5613   0.966   2.705   5.923
 1721SOL     OW 5614   1.489   3.490   5.631
 1721SOL    HW1 5615   1.395   3.481   5.616
 1721SOL    HW2 5616   1.527   3.496   5.544
 1722SOL     OW 5617   0.366   3.167   7.080
 1722SOL    HW1 5618   0.359   3.240   7.019
 1722SOL    HW2 5619   0.291   3.111   7.060
 1723SOL     OW 5620   1.607   3.146   6.865
 1723SOL    HW1 5621   1.667   3.130   6.938
 1723SOL    HW2 5622   1.547   3.213   6.898
 1724SOL     OW 5623   1.061   2.972   6.297
 1724SOL    HW1 5624   0.989   2.922   6.334
 1724SOL    HW2 5625   1.125   2.906   6.270
 1725SOL     OW 5626   1.025   2.104   6.552
 1725SOL    HW1 5627   1.021   2.058   6.468
 1725SOL    HW2 5628   1.019   2.035   6.618
 1726SOL     OW 5629   0.603   3.350   6.065
 1726SOL    HW1 5630   0.653   3.300   6.000
 1726SOL    HW2 5631   0.534   3.392   6.015
 1727SOL     OW 5632   1.728   2.253   6.967
 1727SOL    HW1 5633   1.799   2.317   6.966
 1727SOL    HW2 5634   1.757   2.183   6.909
 1728SOL     OW 5635   0.264   3.211   5.885
 1728SOL    HW1 5636   0.172   3.210   5.859
 1728SOL    HW2 5637   0.264   3.250   5.972
 1729SOL     OW 5638   0.120   2.876   7.300
 1729SOL    HW1 5639   0.050   2.846   7.357
 1729SOL    HW2 5640   0.201   2.847   7.343
 1730SOL     OW 5641   0.676   2.056   7.086
 1730SOL    HW1 5642   0.760   2.035   7.046
 1730SOL    HW2 5643   0.699   2.088   7.174
 1731SOL     OW 5644   0.089   2.195   5.623
 1731SOL    HW1 5645   0.003   2.160   5.603
 1731SOL    HW2 5646   0.103   2.263   5.556
 1732SOL     OW 5647   1.425   2.719   6.983
 1732SOL    HW1 5648   1.376   2.780   6.929
 1732SOL    HW2 5649   1.514   2.722   6.948
 1733SOL     OW 5650   0.065   2.000   5.842
 1733SOL    HW1 5651   0.060   2.087   5.803
 1733SOL    HW2 5652   0.146   1.963   5.809
 1734SOL     OW 5653   1.178   3.196   5.704
 1734SOL    HW1 5654   1.087   3.167   5.705
 1734SOL    HW2 5655   1.204   3.198   5.796
 1735SOL     OW 5656   0.621   2.694   7.024
 1735SOL    HW1 5657   0.679   2.769   7.008
 1735SOL    HW2 5658   0.680   2.619   7.030
 1736SOL     OW 5659   1.483   3.647   6.569
 1736SOL    HW1 5660   1.506   3.712   6.503
 1736SOL    HW2 5661   1.567   3.619   6.606
 1737SOL     OW 5662   0.716   2.421   7.287
 1737SOL    HW1 5663   0.762   2.481   7.346
 1737SOL    HW2 5664   0.737   2.334   7.320
 1738SOL     OW 5665   1.473   3.056   7.215
 1738SOL    HW1 5666   1.462   3.071   7.309
 1738SOL    HW2 5667   1.566   3.075   7.199
 1739SOL     OW 5668   0.370   3.608   7.152
 1739SOL    HW1 5669   0.288   3.654   7.134
 1739SOL    HW2 5670   0.343   3.527   7.196
 1740SOL     OW 5671   1.665   2.742   6.840
 1740SOL    HW1 5672   1.660   2.657   6.797
 1740SOL    HW2 5673   1.654   2.806   6.770
 1741SOL     OW 5674   1.216   2.182   6.043
 1741SOL    HW1 5675   1.278   2.109   6.037
 1741SOL    HW2 5676   1.245   2.232   6.119
 1742SOL     OW 5677   0.586   2.595   6.258
 1742SOL    HW1 5678   0.626   2.681   6.244
 1742SOL    HW2 5679   0.518   2.589   6.191
 1743SOL     OW 5680   1.756   2.225   7.240
 1743SOL    HW1 5681   1.742   2.242   7.147
 1743SOL    HW2 5682   1.683   2.169   7.265
 1744SOL     OW 5683   1.746   2.795   7.097
 1744SOL    HW1 5684   1.738   2.890   7.111
 1744SOL    HW2 5685   1.729   2.783   7.004
 1745SOL     OW 5686   0.865   3.227   5.629
 1745SOL    HW1 5687   0.827   3.256   5.712
 1745SOL    HW2 5688   0.880   3.307   5.580
 1746SOL     OW 5689   0.667   3.650   6.522
 1746SOL    HW1 5690   0.648   3.742   6.503
 1746SOL    HW2 5691   0.763   3.645   6.517
 1747SOL     OW 5692   0.870   2.832   6.439
 1747SOL    HW1 5693   0.920   2.760   6.476
 1747SOL    HW2 5694   0.831   2.876   6.514
 1748SOL     OW 5695   1.076   2.849   5.675
 1748SOL    HW1 5696   1.055   2.902   5.597
 1748SOL    HW2 5697   1.150   2.795   5.648
 1749SOL     OW 5698   1.848   3.414   6.427
 1749SOL    HW1 5699   1.767   3.403   6.376
 1749SOL    HW2 5700   1.840   3.351   6.498
 1750SOL     OW 5701   0.229   3.163   7.449
 1750SOL    HW1 5702   0.159   3.104   7.420
 1750SOL    HW2 5703   0.214   3.175   7.542
 1751SOL     OW 5704   0.093   3.065   6.235
 1751SOL    HW1 5705   0.116   3.042   6.325
 1751SOL    HW2 5706   0.174   3.100   6.199
 1752SOL     OW 5707   0.685   3.268   7.218
 1752SOL    HW1 5708   0.604   3.228   7.250
 1752SOL    HW2 5709   0.682   3.357   7.253
 1753SOL     OW 5710   1.812   2.044   6.822
 1753SOL    HW1 5711   1.817   1.949   6.835
 1753SOL    HW2 5712   1.823   2.056   6.727
 1754SOL     OW 5713   0.438   2.297   6.108
 1754SOL    HW1 5714   0.467   2.224   6.053
 1754SOL    HW2 5715   0.390   2.256   6.180
 1755SOL     OW 5716   1.698   3.348   6.677
 1755SOL    HW1 5717   1.618   3.328   6.628
 1755SOL    HW2 5718   1.704   3.279   6.743
 1756SOL     OW 5719   0.342   2.427   6.879
 1756SOL    HW1 5720   0.395   2.367   6.932
 1756SOL    HW2 5721   0.354   2.396   6.789
 1757SOL     OW 5722   0.834   3.440   6.261
 1757SOL    HW1 5723   0.812   3.506   6.195
 1757SOL    HW2 5724   0.758   3.381   6.262
 1758SOL     OW 5725   1.429   2.091   6.703
 1758SOL    HW1 5726   1.448   2.008   6.746
 1758SOL    HW2 5727   1.379   2.140   6.768
 1759SOL     OW 5728   1.009   1.879   6.721
 1759SOL    HW1 5729   0.954   1.813   6.679
 1759SOL    HW2 5730   1.096   1.840   6.723
 1760SOL     OW 5731   0.774   3.196   5.908
 1760SOL    HW1 5732   0.748   3.104   5.916
 1760SOL    HW2 5733   0.855   3.202   5.957
 1761SOL     OW 5734   0.625   3.417   6.876
 1761SOL    HW1 5735   0.623   3.500   6.925
 1761SOL    HW2 5736   0.712   3.413   6.837
 1762SOL     OW 5737   1.357   1.914   5.757
 1762SOL    HW1 5738   1.391   1.844   5.701
 1762SOL    HW2 5739   1.268   1.887   5.779
 1763SOL     OW 5740   1.296   2.325   6.264
 1763SOL    HW1 5741   1.244   2.405   6.268
 1763SOL    HW2 5742   1.291   2.289   6.352
 1764SOL     OW 5743   1.585   2.058   6.469
 1764SOL    HW1 5744   1.528   2.082   6.543
 1764SOL    HW2 5745   1.584   2.134   6.412
 1765SOL     OW 5746   0.049   2.928   5.875
 1765SOL    HW1 5747   0.137   2.891   5.866
 1765SOL    HW2 5748   5.299   2.857   5.916
 1766SOL     OW 5749   0.891   3.521   5.923
 1766SOL    HW1 5750   0.815   3.507   5.865
 1766SOL    HW2 5751   0.864   3.594   5.979
 1767SOL     OW 5752   0.225   2.486   7.571
 1767SOL    HW1 5753   0.158   2.436   7.618
 1767SOL    HW2 5754   0.210   2.464   7.479
 1768SOL     OW 5755   1.771   2.454   7.678
 1768SOL    HW1 5756   1.749   2.451   7.585
 1768SOL    HW2 5757   1.732   2.375   7.714
 1769SOL     OW 5758   0.242   3.556   7.924
 1769SOL    HW1 5759   0.262   3.616   7.995
 1769SOL    HW2 5760   0.309   3.575   7.858
 1770SOL     OW 5761   0.212   3.298   7.996
 1770SOL    HW1 5762   0.219   3.391   7.974
 1770SOL    HW2 5763   0.151   3.296   8.070
 1771SOL     OW 5764   0.576   2.850   7.585
 1771SOL    HW1 5765   0.624   2.894   7.515
 1771SOL    HW2 5766   0.618   2.880   7.665
 1772SOL     OW 5767   1.838   3.618   7.796
 1772SOL    HW1 5768   1.912   3.590   7.850
 1772SOL    HW2 5769   1.861   3.707   7.769
 1773SOL     OW 5770   0.033   3.467   7.588
 1773SOL    HW1 5771   0.030   3.374   7.610
 1773SOL    HW2 5772   5.269   3.507   7.647
 1774SOL     OW 5773   1.677   2.719   8.032
 1774SOL    HW1 5774   1.755   2.730   0.006
 1774SOL    HW2 5775   1.665   2.803   7.989
 1775SOL     OW 5776   1.659   2.956   7.882
 1775SOL    HW1 5777   1.747   2.983   7.854
 1775SOL    HW2 5778   1.626   3.030   7.932
 1776SOL     OW 5779   0.797   1.861   7.937
 1776SOL    HW1 5780   0.848   1.940   7.917
 1776SOL    HW2 5781   0.707   1.893   7.946
 1777SOL     OW 5782   1.533   2.861   7.653
 1777SOL    HW1 5783   1.466   2.802   7.687
 1777SOL    HW2 5784   1.580   2.892   7.731
 1778SOL     OW 5785   0.586   2.584   7.709
 1778SOL    HW1 5786   0.591   2.668   7.663
 1778SOL    HW2 5787   0.539   2.604   7.790
 1779SOL     OW 5788   1.573   3.536   7.757
 1779SOL    HW1 5789   1.665   3.561   7.766
 1779SOL    HW2 5790   1.560   3.523   7.663
 1780SOL     OW 5791   0.057   2.693   0.187
 1780SOL    HW1 5792   0.111   2.615   0.176
 1780SOL    HW2 5793   0.046   2.727   0.098
 1781SOL     OW 5794   0.893   2.215   7.642
 1781SOL    HW1 5795   0.930   2.274   7.576
 1781SOL    HW2 5796   0.922   2.128   7.615
 1782SOL     OW 5797   0.311   2.806   7.693
 1782SOL    HW1 5798   0.392   2.834   7.650
 1782SOL    HW2 5799   0.291   2.722   7.653
 1783SOL     OW 5800   1.129   3.638   7.681
 1783SOL    HW1 5801   1.050   3.601   7.719
 1783SOL    HW2 5802   1.154   3.575   7.613
 1784SOL     OW 5803   1.628   3.245   7.537
 1784SOL    HW1 5804   1.586   3.330   7.522
 1784SOL    HW2 5805   1.560   3.181   7.517
 1785SOL     OW 5806   0.472   3.604   7.768
 1785SOL    HW1 5807   0.520   3.652   7.835
 1785SOL    HW2 5808   0.540   3.564   7.714
 1786SOL     OW 5809   1.421   2.000   7.864
 1786SOL    HW1 5810   1.410   1.964   7.776
 1786SOL    HW2 5811   1.515   2.002   7.878
 1787SOL     OW 5812   0.373   2.563   7.927
 1787SOL    HW1 5813   0.388   2.469   7.935
 1787SOL    HW2 5814   0.279   2.571   7.914
 1788SOL     OW 5815   0.637   1.977   7.557
 1788SOL    HW1 5816   0.704   1.910   7.572
 1788SOL    HW2 5817   0.590   1.947   7.480
 1789SOL     OW 5818   0.523   1.945   7.963
 1789SOL    HW1 5819   0.433   1.950   7.997
 1789SOL    HW2 5820   0.526   2.012   7.895
 1790SOL     OW 5821   1.428   3.062   7.488
 1790SOL    HW1 5822   1.458   2.989   7.542
 1790SOL    HW2 5823   1.343   3.086   7.525
 1791SOL     OW 5824   0.307   1.904   7.620
 1791SOL    HW1 5825   0.366   1.968   7.580
 1791SOL    HW2 5826   0.365   1.844   7.667
 1792SOL     OW 5827   0.944   2.087   7.903
 1792SOL    HW1 5828   0.904   2.151   7.844
 1792SOL    HW2 5829   1.035   2.116   7.912
 1793SOL     OW 5830   0.447   3.027   0.082
 1793SOL    HW1 5831   0.376   3.051   0.142
 1793SOL    HW2 5832   0.402   3.009   8.079
 1794SOL     OW 5833   1.295   3.678   8.013
 1794SOL    HW1 5834   1.333   3.747   7.959
 1794SOL    HW2 5835   1.203   3.704   8.023
 1795SOL     OW 5836   1.024   2.395   7.471
 1795SOL    HW1 5837   0.978   2.478   7.455
 1795SOL    HW2 5838   1.083   2.415   7.544
 1796SOL     OW 5839   1.871   2.676   7.800
 1796SOL    HW1 5840   1.850   2.659   7.892
 1796SOL    HW2 5841   1.836   2.600   7.753
 1797SOL     OW 5842   0.487   3.282   7.599
 1797SOL    HW1 5843   0.414   3.254   7.653
 1797SOL    HW2 5844   0.478   3.232   7.518
 1798SOL     OW 5845   1.394   2.435   7.517
 1798SOL    HW1 5846   1.332   2.412   7.586
 1798SOL    HW2 5847   1.478   2.405   7.550
 1799SOL     OW 5848   0.526   2.128   7.765
 1799SOL    HW1 5849   0.574   2.081   7.697
 1799SOL    HW2 5850   0.500   2.210   7.723
 1800SOL     OW 5851   0.713   2.925   7.812
 1800SOL    HW1 5852   0.690   2.908   7.903
 1800SOL    HW2 5853   0.790   2.870   7.796
 1801SOL     OW 5854   0.336   2.963   7.920
 1801SOL    HW1 5855   0.328   3.047   7.874
 1801SOL    HW2 5856   0.338   2.898   7.851
 1802SOL     OW 5857   1.216   3.219   7.822
 1802SOL    HW1 5858   1.272   3.294   7.840
 1802SOL    HW2 5859   1.204   3.177   7.907
 1803SOL     OW 5860   1.589   2.484   7.918
 1803SOL    HW1 5861   1.586   2.546   7.991
 1803SOL    HW2 5862   1.619   2.536   7.844
 1804SOL     OW 5863   1.200   2.386   7.708
 1804SOL    HW1 5864   1.198   2.305   7.760
 1804SOL    HW2 5865   1.187   2.456   7.772
 1805SOL     OW 5866   1.622   2.243   7.806
 1805SOL    HW1 5867   1.646   2.177   7.871
 1805SOL    HW2 5868   1.598   2.320   7.858
 1806SOL     OW 5869   1.527   2.136   7.572
 1806SOL    HW1 5870   1.462   2.071   7.599
 1806SOL    HW2 5871   1.560   2.172   7.654
 1807SOL     OW 5872   1.290   2.688   7.477
 1807SOL    HW1 5873   1.331   2.602   7.480
 1807SOL    HW2 5874   1.321   2.727   7.396
 1808SOL     OW 5875   0.009   3.192   7.652
 1808SOL    HW1 5876   5.231   3.186   7.596
 1808SOL    HW2 5877   0.017   3.104   7.691
 1809SOL     OW 5878   0.851   2.484   7.746
 1809SOL    HW1 5879   0.850   2.390   7.729
 1809SOL    HW2 5880   0.758   2.508   7.752
 1810SOL     OW 5881   0.458   2.355   7.632
 1810SOL    HW1 5882   0.520   2.425   7.653
 1810SOL    HW2 5883   0.375   2.400   7.616
 1811SOL     OW 5884   1.312   2.715   7.750
 1811SOL    HW1 5885   1.227   2.738   7.788
 1811SOL    HW2 5886   1.295   2.703   7.657
 1812SOL     OW 5887   1.714   2.015   7.939
 1812SOL    HW1 5888   1.788   2.011   7.879
 1812SOL    HW2 5889   1.721   1.936   7.992
 1813SOL     OW 5890   1.357   3.442   7.891
 1813SOL    HW1 5891   1.433   3.461   7.837
 1813SOL    HW2 5892   1.329   3.528   7.924
 1814SOL     OW 5893   0.667   3.485   7.602
 1814SOL    HW1 5894   0.679   3.499   7.508
 1814SOL    HW2 5895   0.611   3.407   7.607
 1815SOL     OW 5896   1.211   3.465   7.479
 1815SOL    HW1 5897   1.198   3.374   7.506
 1815SOL    HW2 5898   1.144   3.481   7.413
 1816SOL     OW 5899   0.921   2.763   7.756
 1816SOL    HW1 5900   0.975   2.785   7.681
 1816SOL    HW2 5901   0.912   2.667   7.752
 1817SOL     OW 5902   1.491   3.493   7.489
 1817SOL    HW1 5903   1.397   3.482   7.476
 1817SOL    HW2 5904   1.528   3.497   7.401
 1818SOL     OW 5905   0.618   3.377   7.935
 1818SOL    HW1 5906   0.663   3.316   7.876
 1818SOL    HW2 5907   0.535   3.396   7.891
 1819SOL     OW 5908   0.263   3.206   7.749
 1819SOL    HW1 5909   0.172   3.210   7.721
 1819SOL    HW2 5910   0.263   3.241   7.838
 1820SOL     OW 5911   0.090   2.187   7.485
 1820SOL    HW1 5912   0.000   2.158   7.470
 1820SOL    HW2 5913   0.103   2.258   7.422
 1821SOL     OW 5914   0.087   2.008   7.743
 1821SOL    HW1 5915   0.075   2.089   7.694
 1821SOL    HW2 5916   0.156   1.962   7.696
 1822SOL     OW 5917   1.170   3.197   7.555
 1822SOL    HW1 5918   1.077   3.176   7.551
 1822SOL    HW2 5919   1.189   3.203   7.649
 1823SOL     OW 5920   1.212   2.181   7.904
 1823SOL    HW1 5921   1.288   2.123   7.892
 1823SOL    HW2 5922   1.231   2.228   7.985
 1824SOL     OW 5923   0.627   2.618   8.032
 1824SOL    HW1 5924   0.627   2.682   0.023
 1824SOL    HW2 5925   0.534   2.603   8.014
 1825SOL     OW 5926   0.867   3.229   7.493
 1825SOL    HW1 5927   0.826   3.261   7.573
 1825SOL    HW2 5928   0.882   3.307   7.441
 1826SOL     OW 5929   1.066   2.832   7.538
 1826SOL    HW1 5930   1.049   2.894   7.467
 1826SOL    HW2 5931   1.145   2.785   7.511
 1827SOL     OW 5932   0.390   2.299   7.984
 1827SOL    HW1 5933   0.431   2.235   7.926
 1827SOL    HW2 5934   0.439   2.292   8.066
 1828SOL     OW 5935   0.765   3.200   7.772
 1828SOL    HW1 5936   0.738   3.109   7.772
 1828SOL    HW2 5937   0.850   3.200   7.816
 1829SOL     OW 5938   1.359   1.913   7.612
 1829SOL    HW1 5939   1.392   1.840   7.560
 1829SOL    HW2 5940   1.270   1.885   7.637
 1830SOL     OW 5941   0.051   2.929   7.719
 1830SOL    HW1 5942   0.139   2.892   7.713
 1830SOL    HW2 5943   0.005   2.871   7.780
 1831SOL     OW 5944   0.895   3.522   7.774
 1831SOL    HW1 5945   0.818   3.496   7.723
 1831SOL    HW2 5946   0.860   3.580   7.841
 1832SOL     OW 5947   0.218   4.332   0.123
 1832SOL    HW1 5948   0.155   4.274   0.166
 1832SOL    HW2 5949   0.224   4.298   0.034
 1833SOL     OW 5950   0.245   3.998   0.985
 1833SOL    HW1 5951   0.258   3.964   1.073
 1833SOL    HW2 5952   0.159   3.966   0.959
 1834SOL     OW 5953   5.292   4.125   0.647
 1834SOL    HW1 5954   5.201   4.153   0.655
 1834SOL    HW2 5955   5.286   4.031   0.630
 1835SOL     OW 5956   0.585   5.011   1.196
 1835SOL    HW1 5957   0.504   5.011   1.144
 1835SOL    HW2 5958   0.602   5.104   1.213
 1836SOL     OW 5959   1.562   5.236   0.688
 1836SOL    HW1 5960   1.544   5.232   0.782
 1836SOL    HW2 5961   1.480   5.269   0.649
 1837SOL     OW 5962   1.134   4.423   0.697
 1837SOL    HW1 5963   1.181   4.505   0.684
 1837SOL    HW2 5964   1.085   4.434   0.778
 1838SOL     OW 5965   1.774   4.321   0.230
 1838SOL    HW1 5966   1.727   4.328   0.147
 1838SOL    HW2 5967   1.734   4.244   0.272
 1839SOL     OW 5968   0.751   4.861   1.041
 1839SOL    HW1 5969   0.691   4.894   1.107
 1839SOL    HW2 5970   0.783   4.939   0.996
 1840SOL     OW 5971   0.876   4.487   1.825
 1840SOL    HW1 5972   0.863   4.558   1.888
 1840SOL    HW2 5973   0.897   4.531   1.743
 1841SOL     OW 5974   0.683   4.717   0.650
 1841SOL    HW1 5975   0.750   4.712   0.718
 1841SOL    HW2 5976   0.616   4.776   0.686
 1842SOL     OW 5977   0.708   4.867   1.819
 1842SOL    HW1 5978   0.756   4.947   1.842
 1842SOL    HW2 5979   0.628   4.900   1.778
 1843SOL     OW 5980   0.381   5.148   1.054
 1843SOL    HW1 5981   0.288   5.164   1.041
 1843SOL    HW2 5982   0.423   5.183   0.975
 1844SOL     OW 5983   1.454   5.223   1.350
 1844SOL    HW1 5984   1.510   5.295   1.380
 1844SOL    HW2 5985   1.386   5.216   1.417
 1845SOL     OW 5986   0.454   4.121   1.484
 1845SOL    HW1 5987   0.528   4.061   1.489
 1845SOL    HW2 5988   0.377   4.066   1.498
 1846SOL     OW 5989   1.606   4.166   0.745
 1846SOL    HW1 5990   1.533   4.185   0.685
 1846SOL    HW2 5991   1.609   4.242   0.803
 1847SOL     OW 5992   1.133   5.076   1.707
 1847SOL    HW1 5993   1.160   5.077   1.799
 1847SOL    HW2 5994   1.080   4.997   1.699
 1848SOL     OW 5995   0.203   5.151   0.539
 1848SOL    HW1 5996   0.256   5.224   0.573
 1848SOL    HW2 5997   0.118   5.161   0.581
 1849SOL     OW 5998   0.259   4.799   0.875
 1849SOL    HW1 5999   0.268   4.708   0.903
 1849SOL    HW2 6000   0.198   4.838   0.937
 1850SOL     OW 6001   0.607   4.679   0.151
 1850SOL    HW1 6002   0.565   4.757   0.114
 1850SOL    HW2 6003   0.664   4.713   0.220
 1851SOL     OW 6004   1.595   3.851   1.464
 1851SOL    HW1 6005   1.619   3.931   1.418
 1851SOL    HW2 6006   1.575   3.880   1.553
 1852SOL     OW 6007   0.134   4.349   0.579
 1852SOL    HW1 6008   0.085   4.273   0.610
 1852SOL    HW2 6009   0.102   4.422   0.634
 1853SOL     OW 6010   0.012   5.284   0.073
 1853SOL    HW1 6011   0.018   5.202   0.122
 1853SOL    HW2 6012   0.043   0.051   0.134
 1854SOL     OW 6013   1.688   4.642   0.647
 1854SOL    HW1 6014   1.768   4.596   0.622
 1854SOL    HW2 6015   1.665   4.695   0.571
 1855SOL     OW 6016   1.649   4.826   0.434
 1855SOL    HW1 6017   1.732   4.831   0.387
 1855SOL    HW2 6018   1.657   4.889   0.505
 1856SOL     OW 6019   0.138   4.473   1.582
 1856SOL    HW1 6020   0.232   4.487   1.579
 1856SOL    HW2 6021   0.100   4.560   1.595
 1857SOL     OW 6022   0.627   5.103   0.745
 1857SOL    HW1 6023   0.573   5.024   0.737
 1857SOL    HW2 6024   0.609   5.153   0.666
 1858SOL     OW 6025   1.287   4.949   1.425
 1858SOL    HW1 6026   1.318   4.883   1.364
 1858SOL    HW2 6027   1.349   4.946   1.498
 1859SOL     OW 6028   0.829   3.731   0.519
 1859SOL    HW1 6029   0.868   3.814   0.492
 1859SOL    HW2 6030   0.735   3.748   0.520
 1860SOL     OW 6031   0.165   4.661   1.285
 1860SOL    HW1 6032   0.254   4.627   1.274
 1860SOL    HW2 6033   0.134   4.677   1.196
 1861SOL     OW 6034   1.498   4.743   0.214
 1861SOL    HW1 6035   1.438   4.678   0.249
 1861SOL    HW2 6036   1.556   4.764   0.288
 1862SOL     OW 6037   0.350   3.980   1.832
 1862SOL    HW1 6038   0.393   4.063   1.852
 1862SOL    HW2 6039   0.259   3.993   1.858
 1863SOL     OW 6040   1.482   5.149   0.961
 1863SOL    HW1 6041   1.409   5.162   1.021
 1863SOL    HW2 6042   1.470   5.061   0.926
 1864SOL     OW 6043   0.597   4.431   0.285
 1864SOL    HW1 6044   0.613   4.515   0.243
 1864SOL    HW2 6045   0.532   4.451   0.353
 1865SOL     OW 6046   1.279   4.089   0.934
 1865SOL    HW1 6047   1.190   4.055   0.942
 1865SOL    HW2 6048   1.331   4.034   0.993
 1866SOL     OW 6049   0.791   4.341   1.447
 1866SOL    HW1 6050   0.765   4.315   1.536
 1866SOL    HW2 6051   0.757   4.272   1.391
 1867SOL     OW 6052   1.392   4.198   1.678
 1867SOL    HW1 6053   1.397   4.243   1.762
 1867SOL    HW2 6054   1.450   4.122   1.688
 1868SOL     OW 6055   0.951   4.610   1.587
 1868SOL    HW1 6056   1.006   4.541   1.549
 1868SOL    HW2 6057   0.902   4.645   1.513
 1869SOL     OW 6058   0.994   4.134   1.233
 1869SOL    HW1 6059   0.905   4.150   1.263
 1869SOL    HW2 6060   0.983   4.091   1.148
 1870SOL     OW 6061   1.056   4.424   0.428
 1870SOL    HW1 6062   1.074   4.418   0.522
 1870SOL    HW2 6063   0.972   4.379   0.416
 1871SOL     OW 6064   0.059   4.516   0.816
 1871SOL    HW1 6065   0.141   4.517   0.866
 1871SOL    HW2 6066   0.074   4.579   0.745
 1872SOL     OW 6067   0.887   4.080   0.205
 1872SOL    HW1 6068   0.932   4.132   0.138
 1872SOL    HW2 6069   0.886   3.991   0.171
 1873SOL     OW 6070   1.703   4.294   1.830
 1873SOL    HW1 6071   1.669   4.368   1.780
 1873SOL    HW2 6072   1.732   4.232   1.763
 1874SOL     OW 6073   1.379   4.864   0.536
 1874SOL    HW1 6074   1.461   4.852   0.488
 1874SOL    HW2 6075   1.329   4.926   0.483
 1875SOL     OW 6076   0.560   3.906   0.897
 1875SOL    HW1 6077   0.557   3.934   0.988
 1875SOL    HW2 6078   0.555   3.987   0.847
 1876SOL     OW 6079   1.011   5.153   0.476
 1876SOL    HW1 6080   0.945   5.221   0.484
 1876SOL    HW2 6081   1.030   5.127   0.566
 1877SOL     OW 6082   1.803   4.777   0.868
 1877SOL    HW1 6083   1.748   4.755   0.794
 1877SOL    HW2 6084   1.742   4.785   0.942
 1878SOL     OW 6085   1.254   5.242   1.530
 1878SOL    HW1 6086   1.217   5.174   1.588
 1878SOL    HW2 6087   1.179   5.273   1.479
 1879SOL     OW 6088   0.330   4.672   0.259
 1879SOL    HW1 6089   0.413   4.673   0.211
 1879SOL    HW2 6090   0.308   4.579   0.264
 1880SOL     OW 6091   1.481   4.473   0.722
 1880SOL    HW1 6092   1.477   4.433   0.809
 1880SOL    HW2 6093   1.558   4.528   0.724
 1881SOL     OW 6094   0.463   4.991   1.747
 1881SOL    HW1 6095   0.438   4.994   1.654
 1881SOL    HW2 6096   0.380   4.991   1.794
 1882SOL     OW 6097   1.164   0.153   0.233
 1882SOL    HW1 6098   1.084   0.177   0.280
 1882SOL    HW2 6099   1.133   0.124   0.147
 1883SOL     OW 6100   0.207   3.998   1.496
 1883SOL    HW1 6101   0.130   4.051   1.476
 1883SOL    HW2 6102   0.171   3.917   1.533
 1884SOL     OW 6103   1.630   5.093   0.078
 1884SOL    HW1 6104   1.590   5.178   0.099
 1884SOL    HW2 6105   1.556   5.035   0.061
 1885SOL     OW 6106   1.408   3.835   0.452
 1885SOL    HW1 6107   1.402   3.813   0.359
 1885SOL    HW2 6108   1.502   3.842   0.469
 1886SOL     OW 6109   0.383   4.421   0.473
 1886SOL    HW1 6110   0.412   4.331   0.485
 1886SOL    HW2 6111   0.291   4.420   0.500
 1887SOL     OW 6112   1.528   3.949   1.724
 1887SOL    HW1 6113   1.539   3.969   1.816
 1887SOL    HW2 6114   1.459   3.882   1.721
 1888SOL     OW 6115   0.629   3.831   0.141
 1888SOL    HW1 6116   0.724   3.820   0.143
 1888SOL    HW2 6117   0.605   3.814   0.050
 1889SOL     OW 6118   0.764   4.003   1.756
 1889SOL    HW1 6119   0.844   3.951   1.753
 1889SOL    HW2 6120   0.717   3.971   1.833
 1890SOL     OW 6121   1.338   4.313   1.433
 1890SOL    HW1 6122   1.369   4.282   1.518
 1890SOL    HW2 6123   1.375   4.401   1.423
 1891SOL     OW 6124   0.820   5.112   0.943
 1891SOL    HW1 6125   0.899   5.103   0.889
 1891SOL    HW2 6126   0.749   5.122   0.879
 1892SOL     OW 6127   0.930   4.234   0.899
 1892SOL    HW1 6128   0.904   4.225   0.807
 1892SOL    HW2 6129   0.958   4.146   0.925
 1893SOL     OW 6130   0.563   3.786   0.498
 1893SOL    HW1 6131   0.488   3.784   0.557
 1893SOL    HW2 6132   0.550   3.864   0.444
 1894SOL     OW 6133   1.423   4.929   0.030
 1894SOL    HW1 6134   1.447   4.857   0.088
 1894SOL    HW2 6135   1.337   4.957   0.062
 1895SOL     OW 6136   0.317   3.777   0.186
 1895SOL    HW1 6137   0.386   3.843   0.191
 1895SOL    HW2 6138   0.356   3.698   0.224
 1896SOL     OW 6139   0.946   3.975   0.456
 1896SOL    HW1 6140   0.919   4.014   0.373
 1896SOL    HW2 6141   1.040   3.992   0.461
 1897SOL     OW 6142   1.080   4.409   1.457
 1897SOL    HW1 6143   1.014   4.339   1.461
 1897SOL    HW2 6144   1.163   4.362   1.451
 1898SOL     OW 6145   1.264   5.264   0.777
 1898SOL    HW1 6146   1.212   0.041   0.754
 1898SOL    HW2 6147   1.312   5.291   0.856
 1899SOL     OW 6148   0.468   4.878   0.721
 1899SOL    HW1 6149   0.401   4.855   0.785
 1899SOL    HW2 6150   0.428   4.861   0.636
 1900SOL     OW 6151   1.032   4.244   0.037
 1900SOL    HW1 6152   0.997   4.329   0.009
 1900SOL    HW2 6153   1.096   4.265   0.105
 1901SOL     OW 6154   0.094   4.263   1.400
 1901SOL    HW1 6155   0.182   4.273   1.363
 1901SOL    HW2 6156   0.083   4.341   1.455
 1902SOL     OW 6157   0.561   3.952   1.170
 1902SOL    HW1 6158   0.598   3.875   1.212
 1902SOL    HW2 6159   0.468   3.952   1.195
 1903SOL     OW 6160   0.867   4.181   0.638
 1903SOL    HW1 6161   0.827   4.237   0.573
 1903SOL    HW2 6162   0.890   4.101   0.590
 1904SOL     OW 6163   1.019   3.777   0.745
 1904SOL    HW1 6164   0.958   3.772   0.672
 1904SOL    HW2 6165   0.995   3.703   0.802
 1905SOL     OW 6166   1.443   4.891   0.859
 1905SOL    HW1 6167   1.372   4.826   0.857
 1905SOL    HW2 6168   1.468   4.902   0.767
 1906SOL     OW 6169   1.466   4.333   0.967
 1906SOL    HW1 6170   1.409   4.256   0.971
 1906SOL    HW2 6171   1.523   4.325   1.044
 1907SOL     OW 6172   1.847   4.535   0.389
 1907SOL    HW1 6173   1.901   4.483   0.449
 1907SOL    HW2 6174   1.818   4.472   0.323
 1908SOL     OW 6175   0.470   5.159   0.153
 1908SOL    HW1 6176   0.417   5.115   0.220
 1908SOL    HW2 6177   0.508   5.087   0.103
 1909SOL     OW 6178   1.675   4.989   0.643
 1909SOL    HW1 6179   1.768   4.995   0.663
 1909SOL    HW2 6180   1.641   5.077   0.659
 1910SOL     OW 6181   1.396   4.296   0.088
 1910SOL    HW1 6182   1.334   4.281   0.159
 1910SOL    HW2 6183   1.445   4.214   0.082
 1911SOL     OW 6184   0.511   3.988   0.321
 1911SOL    HW1 6185   0.564   3.937   0.261
 1911SOL    HW2 6186   0.495   4.071   0.275
 1912SOL     OW 6187   1.748   4.961   1.564
 1912SOL    HW1 6188   1.833   4.917   1.566
 1912SOL    HW2 6189   1.769   5.054   1.574
 1913SOL     OW 6190   1.063   5.072   1.327
 1913SOL    HW1 6191   0.982   5.047   1.372
 1913SOL    HW2 6192   1.133   5.034   1.379
 1914SOL     OW 6193   1.132   4.929   1.105
 1914SOL    HW1 6194   1.084   4.971   1.177
 1914SOL    HW2 6195   1.080   4.949   1.027
 1915SOL     OW 6196   1.626   4.820   1.074
 1915SOL    HW1 6197   1.619   4.882   1.147
 1915SOL    HW2 6198   1.551   4.841   1.018
 1916SOL     OW 6199   0.919   3.817   1.392
 1916SOL    HW1 6200   0.941   3.799   1.301
 1916SOL    HW2 6201   0.998   3.856   1.429
 1917SOL     OW 6202   0.984   4.840   1.727
 1917SOL    HW1 6203   0.892   4.856   1.747
 1917SOL    HW2 6204   0.983   4.763   1.670
 1918SOL     OW 6205   0.716   4.787   0.382
 1918SOL    HW1 6206   0.697   4.767   0.473
 1918SOL    HW2 6207   0.795   4.737   0.362
 1919SOL     OW 6208   0.420   4.549   1.255
 1919SOL    HW1 6209   0.489   4.557   1.321
 1919SOL    HW2 6210   0.388   4.459   1.264
 1920SOL     OW 6211   1.263   4.098   1.281
 1920SOL    HW1 6212   1.295   4.176   1.326
 1920SOL    HW2 6213   1.172   4.119   1.259
 1921SOL     OW 6214   0.109   5.283   1.319
 1921SOL    HW1 6215   0.049   0.034   1.374
 1921SOL    HW2 6216   0.188   5.273   1.371
 1922SOL     OW 6217   0.348   4.830   0.481
 1922SOL    HW1 6218   0.331   4.910   0.431
 1922SOL    HW2 6219   0.353   4.761   0.415
 1923SOL     OW 6220   0.549   4.252   0.858
 1923SOL    HW1 6221   0.562   4.312   0.784
 1923SOL    HW2 6222   0.615   4.279   0.922
 1924SOL     OW 6223   1.256   5.076   0.381
 1924SOL    HW1 6224   1.309   5.152   0.405
 1924SOL    HW2 6225   1.167   5.099   0.410
 1925SOL     OW 6226   1.275   5.185   1.141
 1925SOL    HW1 6227   1.333   5.200   1.216
 1925SOL    HW2 6228   1.232   5.101   1.160
 1926SOL     OW 6229   1.576   4.343   0.488
 1926SOL    HW1 6230   1.526   4.388   0.556
 1926SOL    HW2 6231   1.606   4.413   0.430
 1927SOL     OW 6232   0.382   5.228   1.314
 1927SOL    HW1 6233   0.371   5.193   1.225
 1927SOL    HW2 6234   0.474   5.256   1.317
 1928SOL     OW 6235   0.419   4.465   1.603
 1928SOL    HW1 6236   0.482   4.510   1.546
 1928SOL    HW2 6237   0.455   4.378   1.615
 1929SOL     OW 6238   1.609   4.505   1.687
 1929SOL    HW1 6239   1.523   4.546   1.680
 1929SOL    HW2 6240   1.661   4.547   1.618
 1930SOL     OW 6241   0.996   3.857   1.755
 1930SOL    HW1 6242   1.054   3.930   1.732
 1930SOL    HW2 6243   1.045   3.779   1.729
 1931SOL     OW 6244   0.496   3.761   1.751
 1931SOL    HW1 6245   0.449   3.710   1.685
 1931SOL    HW2 6246   0.441   3.838   1.766
 1932SOL     OW 6247   0.587   4.597   1.034
 1932SOL    HW1 6248   0.619   4.687   1.033
 1932SOL    HW2 6249   0.529   4.593   1.110
 1933SOL     OW 6250   1.347   4.581   1.019
 1933SOL    HW1 6251   1.261   4.566   0.981
 1933SOL    HW2 6252   1.393   4.498   1.010
 1934SOL     OW 6253   1.197   4.250   0.269
 1934SOL    HW1 6254   1.207   4.172   0.324
 1934SOL    HW2 6255   1.155   4.314   0.326
 1935SOL     OW 6256   0.301   3.925   1.245
 1935SOL    HW1 6257   0.268   3.948   1.332
 1935SOL    HW2 6258   0.290   3.831   1.238
 1936SOL     OW 6259   0.037   5.019   1.273
 1936SOL    HW1 6260   0.069   4.972   1.351
 1936SOL    HW2 6261   0.044   5.111   1.296
 1937SOL     OW 6262   0.720   4.352   1.053
 1937SOL    HW1 6263   0.797   4.341   0.996
 1937SOL    HW2 6264   0.691   4.441   1.035
 1938SOL     OW 6265   1.739   4.684   1.858
 1938SOL    HW1 6266   1.696   4.617   1.806
 1938SOL    HW2 6267   1.677   4.701   1.930
 1939SOL     OW 6268   0.325   3.787   0.634
 1939SOL    HW1 6269   0.310   3.878   0.662
 1939SOL    HW2 6270   0.334   3.738   0.716
 1940SOL     OW 6271   1.630   4.105   0.363
 1940SOL    HW1 6272   1.654   4.037   0.427
 1940SOL    HW2 6273   1.602   4.179   0.417
 1941SOL     OW 6274   1.030   4.482   0.959
 1941SOL    HW1 6275   1.020   4.498   1.052
 1941SOL    HW2 6276   1.003   4.391   0.947
 1942SOL     OW 6277   1.854   5.213   1.576
 1942SOL    HW1 6278   1.833   5.296   1.532
 1942SOL    HW2 6279   1.925   5.234   1.636
 1943SOL     OW 6280   0.357   4.643   1.806
 1943SOL    HW1 6281   0.436   4.660   1.856
 1943SOL    HW2 6282   0.383   4.577   1.741
 1944SOL     OW 6283   1.504   4.036   0.128
 1944SOL    HW1 6284   1.459   3.953   0.146
 1944SOL    HW2 6285   1.551   4.055   0.210
 1945SOL     OW 6286   1.298   4.543   0.018
 1945SOL    HW1 6287   1.334   4.455   0.034
 1945SOL    HW2 6288   1.365   4.585   8.044
 1946SOL     OW 6289   1.055   5.088   0.812
 1946SOL    HW1 6290   1.064   4.999   0.777
 1946SOL    HW2 6291   1.143   5.126   0.804
 1947SOL     OW 6292   0.313   4.530   0.945
 1947SOL    HW1 6293   0.407   4.548   0.944
 1947SOL    HW2 6294   0.306   4.440   0.977
 1948SOL     OW 6295   0.331   4.251   1.017
 1948SOL    HW1 6296   0.296   4.163   1.004
 1948SOL    HW2 6297   0.407   4.256   0.959
 1949SOL     OW 6298   1.134   4.096   1.686
 1949SOL    HW1 6299   1.086   4.150   1.748
 1949SOL    HW2 6300   1.221   4.136   1.681
 1950SOL     OW 6301   1.161   3.921   1.472
 1950SOL    HW1 6302   1.149   3.984   1.543
 1950SOL    HW2 6303   1.203   3.972   1.402
 1951SOL     OW 6304   0.012   5.043   0.198
 1951SOL    HW1 6305   5.231   5.032   0.149
 1951SOL    HW2 6306   0.021   4.962   0.249
 1952SOL     OW 6307   0.973   4.511   1.223
 1952SOL    HW1 6308   1.032   4.492   1.296
 1952SOL    HW2 6309   0.890   4.470   1.250
 1953SOL     OW 6310   0.029   4.279   1.118
 1953SOL    HW1 6311   0.120   4.275   1.088
 1953SOL    HW2 6312   0.035   4.267   1.213
 1954SOL     OW 6313   0.168   4.238   1.714
 1954SOL    HW1 6314   0.228   4.194   1.655
 1954SOL    HW2 6315   0.147   4.321   1.671
 1955SOL     OW 6316   1.380   4.656   1.656
 1955SOL    HW1 6317   1.401   4.749   1.652
 1955SOL    HW2 6318   1.375   4.628   1.565
 1956SOL     OW 6319   0.822   4.293   0.374
 1956SOL    HW1 6320   0.831   4.221   0.312
 1956SOL    HW2 6321   0.744   4.341   0.344
 1957SOL     OW 6322   1.640   4.325   1.179
 1957SOL    HW1 6323   1.630   4.267   1.255
 1957SOL    HW2 6324   1.728   4.307   1.146
 1958SOL     OW 6325   0.207   5.274   1.734
 1958SOL    HW1 6326   0.153   0.011   1.804
 1958SOL    HW2 6327   0.213   5.181   1.754
 1959SOL     OW 6328   0.714   4.169   1.253
 1959SOL    HW1 6329   0.657   4.096   1.228
 1959SOL    HW2 6330   0.705   4.232   1.182
 1960SOL     OW 6331   0.468   4.214   0.174
 1960SOL    HW1 6332   0.531   4.280   0.203
 1960SOL    HW2 6333   0.384   4.259   0.174
 1961SOL     OW 6334   0.148   4.861   1.472
 1961SOL    HW1 6335   0.145   4.815   1.556
 1961SOL    HW2 6336   0.154   4.791   1.407
 1962SOL     OW 6337   1.322   4.765   1.218
 1962SOL    HW1 6338   1.343   4.702   1.149
 1962SOL    HW2 6339   1.255   4.821   1.181
 1963SOL     OW 6340   1.307   4.571   0.308
 1963SOL    HW1 6341   1.231   4.540   0.358
 1963SOL    HW2 6342   1.283   4.556   0.216
 1964SOL     OW 6343   0.071   4.899   1.033
 1964SOL    HW1 6344   0.057   4.946   1.116
 1964SOL    HW2 6345   5.287   4.907   0.987
 1965SOL     OW 6346   0.756   0.031   1.708
 1965SOL    HW1 6347   0.663   0.053   1.717
 1965SOL    HW2 6348   0.779   0.057   1.619
 1966SOL     OW 6349   0.905   3.816   0.127
 1966SOL    HW1 6350   0.912   3.794   0.034
 1966SOL    HW2 6351   0.974   3.764   0.169
 1967SOL     OW 6352   1.724   3.877   0.505
 1967SOL    HW1 6353   1.793   3.858   0.442
 1967SOL    HW2 6354   1.707   3.793   0.548
 1968SOL     OW 6355   1.278   4.653   0.672
 1968SOL    HW1 6356   1.351   4.592   0.682
 1968SOL    HW2 6357   1.312   4.723   0.617
 1969SOL     OW 6358   0.808   4.992   1.401
 1969SOL    HW1 6359   0.774   5.026   1.484
 1969SOL    HW2 6360   0.733   4.995   1.342
 1970SOL     OW 6361   1.843   3.894   0.965
 1970SOL    HW1 6362   1.871   3.806   0.941
 1970SOL    HW2 6363   1.756   3.903   0.926
 1971SOL     OW 6364   0.271   4.041   0.713
 1971SOL    HW1 6365   0.188   4.086   0.698
 1971SOL    HW2 6366   0.275   4.031   0.808
 1972SOL     OW 6367   1.135   0.014   8.078
 1972SOL    HW1 6368   1.151   5.225   0.028
 1972SOL    HW2 6369   1.149   0.011   7.984
 1973SOL     OW 6370   0.827   4.724   1.372
 1973SOL    HW1 6371   0.873   4.712   1.290
 1973SOL    HW2 6372   0.827   4.819   1.386
 1974SOL     OW 6373   0.922   4.638   0.302
 1974SOL    HW1 6374   0.975   4.662   0.226
 1974SOL    HW2 6375   0.971   4.568   0.344
 1975SOL     OW 6376   0.366   5.027   1.503
 1975SOL    HW1 6377   0.369   5.095   1.435
 1975SOL    HW2 6378   0.290   4.973   1.479
 1976SOL     OW 6379   1.613   5.005   1.281
 1976SOL    HW1 6380   1.665   4.992   1.360
 1976SOL    HW2 6381   1.549   5.072   1.306
 1977SOL     OW 6382   1.065   4.836   0.719
 1977SOL    HW1 6383   0.991   4.785   0.752
 1977SOL    HW2 6384   1.128   4.771   0.689
 1978SOL     OW 6385   1.025   3.966   0.965
 1978SOL    HW1 6386   1.021   3.919   0.882
 1978SOL    HW2 6387   1.019   3.897   1.032
 1979SOL     OW 6388   1.727   4.116   1.381
 1979SOL    HW1 6389   1.799   4.179   1.380
 1979SOL    HW2 6390   1.756   4.045   1.323
 1980SOL     OW 6391   0.273   5.037   0.302
 1980SOL    HW1 6392   0.191   5.044   0.253
 1980SOL    HW2 6393   0.256   5.084   0.383
 1981SOL     OW 6394   0.120   4.746   1.721
 1981SOL    HW1 6395   0.050   4.703   1.771
 1981SOL    HW2 6396   0.201   4.711   1.759
 1982SOL     OW 6397   0.677   3.919   1.500
 1982SOL    HW1 6398   0.761   3.897   1.460
 1982SOL    HW2 6399   0.700   3.952   1.587
 1983SOL     OW 6400   0.046   4.102   0.024
 1983SOL    HW1 6401   0.019   4.029   0.080
 1983SOL    HW2 6402   0.129   4.073   8.065
 1984SOL     OW 6403   1.425   4.580   1.397
 1984SOL    HW1 6404   1.376   4.640   1.342
 1984SOL    HW2 6405   1.514   4.583   1.361
 1985SOL     OW 6406   0.059   3.863   0.201
 1985SOL    HW1 6407   0.060   3.942   0.256
 1985SOL    HW2 6408   0.150   3.835   0.199
 1986SOL     OW 6409   1.185   5.059   0.106
 1986SOL    HW1 6410   1.090   5.050   0.100
 1986SOL    HW2 6411   1.203   5.056   0.200
 1987SOL     OW 6412   0.621   4.555   1.437
 1987SOL    HW1 6413   0.679   4.629   1.421
 1987SOL    HW2 6414   0.680   4.480   1.444
 1988SOL     OW 6415   0.718   4.283   1.700
 1988SOL    HW1 6416   0.763   4.342   1.761
 1988SOL    HW2 6417   0.737   4.196   1.734
 1989SOL     OW 6418   1.477   4.915   1.627
 1989SOL    HW1 6419   1.464   4.931   1.721
 1989SOL    HW2 6420   1.570   4.933   1.613
 1990SOL     OW 6421   1.664   4.603   1.254
 1990SOL    HW1 6422   1.660   4.518   1.210
 1990SOL    HW2 6423   1.654   4.667   1.183
 1991SOL     OW 6424   1.218   4.042   0.460
 1991SOL    HW1 6425   1.281   3.971   0.456
 1991SOL    HW2 6426   1.245   4.094   0.536
 1992SOL     OW 6427   0.584   4.456   0.673
 1992SOL    HW1 6428   0.624   4.542   0.661
 1992SOL    HW2 6429   0.515   4.452   0.606
 1993SOL     OW 6430   1.756   4.087   1.653
 1993SOL    HW1 6431   1.742   4.104   1.560
 1993SOL    HW2 6432   1.683   4.031   1.679
 1994SOL     OW 6433   1.748   4.657   1.510
 1994SOL    HW1 6434   1.735   4.751   1.521
 1994SOL    HW2 6435   1.730   4.642   1.417
 1995SOL     OW 6436   0.920   5.092   0.040
 1995SOL    HW1 6437   0.861   5.070   0.113
 1995SOL    HW2 6438   0.868   5.148   8.063
 1996SOL     OW 6439   0.872   4.694   0.853
 1996SOL    HW1 6440   0.920   4.621   0.892
 1996SOL    HW2 6441   0.832   4.739   0.928
 1997SOL     OW 6442   1.079   4.693   0.087
 1997SOL    HW1 6443   1.061   4.754   0.015
 1997SOL    HW2 6444   1.156   4.644   0.057
 1998SOL     OW 6445   0.217   5.016   1.854
 1998SOL    HW1 6446   0.159   4.943   1.836
 1998SOL    HW2 6447   0.212   5.027   1.949
 1999SOL     OW 6448   0.087   4.914   0.654
 1999SOL    HW1 6449   0.123   4.893   0.740
 1999SOL    HW2 6450   0.154   4.968   0.612
 2000SOL     OW 6451   0.679   5.094   1.609
 2000SOL    HW1 6452   0.599   5.070   1.655
 2000SOL    HW2 6453   0.715   5.167   1.660
 2001SOL     OW 6454   1.811   3.906   1.236
 2001SOL    HW1 6455   1.818   3.811   1.249
 2001SOL    HW2 6456   1.822   3.918   1.142
 2002SOL     OW 6457   0.436   4.165   0.524
 2002SOL    HW1 6458   0.464   4.092   0.468
 2002SOL    HW2 6459   0.388   4.123   0.596
 2003SOL     OW 6460   1.706   5.227   1.116
 2003SOL    HW1 6461   1.633   5.209   1.058
 2003SOL    HW2 6462   1.712   5.149   1.172
 2004SOL     OW 6463   0.343   4.289   1.293
 2004SOL    HW1 6464   0.395   4.229   1.347
 2004SOL    HW2 6465   0.354   4.257   1.204
 2005SOL     OW 6466   1.429   3.953   1.117
 2005SOL    HW1 6467   1.449   3.870   1.160
 2005SOL    HW2 6468   1.379   4.002   1.181
 2006SOL     OW 6469   1.009   3.741   1.135
 2006SOL    HW1 6470   0.954   3.675   1.093
 2006SOL    HW2 6471   1.096   3.701   1.137
 2007SOL     OW 6472   0.803   5.036   0.281
 2007SOL    HW1 6473   0.755   4.959   0.310
 2007SOL    HW2 6474   0.859   5.059   0.355
 2008SOL     OW 6475   0.643   0.006   1.296
 2008SOL    HW1 6476   0.644   0.061   1.374
 2008SOL    HW2 6477   0.736   5.289   1.277
 2009SOL     OW 6478   1.355   3.780   0.189
 2009SOL    HW1 6479   1.373   3.736   0.106
 2009SOL    HW2 6480   1.269   3.749   0.215
 2010SOL     OW 6481   1.296   4.188   0.679
 2010SOL    HW1 6482   1.244   4.268   0.683
 2010SOL    HW2 6483   1.291   4.151   0.767
 2011SOL     OW 6484   1.584   3.919   0.883
 2011SOL    HW1 6485   1.529   3.943   0.957
 2011SOL    HW2 6486   1.584   3.996   0.826
 2012SOL     OW 6487   0.044   4.800   0.314
 2012SOL    HW1 6488   0.134   4.770   0.302
 2012SOL    HW2 6489   5.292   4.720   0.317
 2013SOL     OW 6490   0.231   4.349   1.981
 2013SOL    HW1 6491   0.164   4.308   2.035
 2013SOL    HW2 6492   0.209   4.323   1.891
 2014SOL     OW 6493   0.247   3.999   2.849
 2014SOL    HW1 6494   0.259   3.964   2.937
 2014SOL    HW2 6495   0.160   3.968   2.822
 2015SOL     OW 6496   5.295   4.126   2.520
 2015SOL    HW1 6497   5.202   4.147   2.519
 2015SOL    HW2 6498   5.300   4.038   2.481
 2016SOL     OW 6499   0.585   5.011   3.058
 2016SOL    HW1 6500   0.504   5.011   3.006
 2016SOL    HW2 6501   0.602   5.103   3.077
 2017SOL     OW 6502   1.560   5.234   2.552
 2017SOL    HW1 6503   1.548   5.229   2.647
 2017SOL    HW2 6504   1.476   5.268   2.519
 2018SOL     OW 6505   1.133   4.423   2.557
 2018SOL    HW1 6506   1.180   4.505   2.545
 2018SOL    HW2 6507   1.085   4.434   2.639
 2019SOL     OW 6508   1.776   4.323   2.088
 2019SOL    HW1 6509   1.750   4.318   1.996
 2019SOL    HW2 6510   1.736   4.246   2.128
 2020SOL     OW 6511   0.751   4.861   2.902
 2020SOL    HW1 6512   0.691   4.894   2.969
 2020SOL    HW2 6513   0.783   4.939   2.858
 2021SOL     OW 6514   0.876   4.487   3.687
 2021SOL    HW1 6515   0.864   4.558   3.750
 2021SOL    HW2 6516   0.897   4.531   3.605
 2022SOL     OW 6517   0.685   4.720   2.506
 2022SOL    HW1 6518   0.751   4.713   2.575
 2022SOL    HW2 6519   0.618   4.777   2.544
 2023SOL     OW 6520   0.708   4.867   3.681
 2023SOL    HW1 6521   0.756   4.947   3.704
 2023SOL    HW2 6522   0.628   4.900   3.640
 2024SOL     OW 6523   0.381   5.148   2.916
 2024SOL    HW1 6524   0.288   5.164   2.903
 2024SOL    HW2 6525   0.423   5.185   2.837
 2025SOL     OW 6526   1.454   5.224   3.212
 2025SOL    HW1 6527   1.509   5.295   3.242
 2025SOL    HW2 6528   1.386   5.216   3.279
 2026SOL     OW 6529   0.454   4.121   3.346
 2026SOL    HW1 6530   0.528   4.061   3.352
 2026SOL    HW2 6531   0.377   4.066   3.361
 2027SOL     OW 6532   1.606   4.166   2.606
 2027SOL    HW1 6533   1.534   4.185   2.546
 2027SOL    HW2 6534   1.610   4.243   2.664
 2028SOL     OW 6535   1.133   5.076   3.569
 2028SOL    HW1 6536   1.160   5.077   3.661
 2028SOL    HW2 6537   1.080   4.997   3.561
 2029SOL     OW 6538   0.206   5.153   2.406
 2029SOL    HW1 6539   0.257   5.226   2.440
 2029SOL    HW2 6540   0.120   5.162   2.447
 2030SOL     OW 6541   0.257   4.795   2.734
 2030SOL    HW1 6542   0.270   4.706   2.767
 2030SOL    HW2 6543   0.198   4.836   2.798
 2031SOL     OW 6544   0.575   4.708   2.003
 2031SOL    HW1 6545   0.625   4.752   1.934
 2031SOL    HW2 6546   0.614   4.739   2.084
 2032SOL     OW 6547   1.595   3.851   3.326
 2032SOL    HW1 6548   1.619   3.931   3.279
 2032SOL    HW2 6549   1.575   3.881   3.415
 2033SOL     OW 6550   0.128   4.350   2.441
 2033SOL    HW1 6551   0.088   4.271   2.477
 2033SOL    HW2 6552   0.102   4.420   2.501
 2034SOL     OW 6553   0.000   5.293   1.944
 2034SOL    HW1 6554   0.011   5.205   1.982
 2034SOL    HW2 6555   0.030   0.052   2.012
 2035SOL     OW 6556   1.690   4.642   2.507
 2035SOL    HW1 6557   1.770   4.597   2.484
 2035SOL    HW2 6558   1.667   4.693   2.429
 2036SOL     OW 6559   1.649   4.827   2.292
 2036SOL    HW1 6560   1.736   4.826   2.251
 2036SOL    HW2 6561   1.657   4.890   2.363
 2037SOL     OW 6562   0.138   4.472   3.444
 2037SOL    HW1 6563   0.232   4.487   3.441
 2037SOL    HW2 6564   0.101   4.560   3.457
 2038SOL     OW 6565   0.627   5.101   2.607
 2038SOL    HW1 6566   0.572   5.023   2.599
 2038SOL    HW2 6567   0.608   5.151   2.528
 2039SOL     OW 6568   1.287   4.950   3.287
 2039SOL    HW1 6569   1.318   4.883   3.226
 2039SOL    HW2 6570   1.349   4.946   3.360
 2040SOL     OW 6571   0.829   3.727   2.376
 2040SOL    HW1 6572   0.869   3.811   2.352
 2040SOL    HW2 6573   0.735   3.746   2.379
 2041SOL     OW 6574   0.166   4.661   3.148
 2041SOL    HW1 6575   0.255   4.627   3.137
 2041SOL    HW2 6576   0.134   4.674   3.059
 2042SOL     OW 6577   1.530   4.725   2.061
 2042SOL    HW1 6578   1.461   4.668   2.094
 2042SOL    HW2 6579   1.573   4.758   2.140
 2043SOL     OW 6580   0.350   3.980   3.694
 2043SOL    HW1 6581   0.393   4.063   3.714
 2043SOL    HW2 6582   0.259   3.994   3.720
 2044SOL     OW 6583   1.482   5.150   2.822
 2044SOL    HW1 6584   1.409   5.162   2.883
 2044SOL    HW2 6585   1.470   5.061   2.788
 2045SOL     OW 6586   0.594   4.441   2.135
 2045SOL    HW1 6587   0.599   4.524   2.087
 2045SOL    HW2 6588   0.528   4.456   2.203
 2046SOL     OW 6589   1.279   4.089   2.796
 2046SOL    HW1 6590   1.190   4.055   2.804
 2046SOL    HW2 6591   1.331   4.034   2.855
 2047SOL     OW 6592   0.791   4.342   3.309
 2047SOL    HW1 6593   0.765   4.315   3.398
 2047SOL    HW2 6594   0.756   4.272   3.253
 2048SOL     OW 6595   1.392   4.198   3.540
 2048SOL    HW1 6596   1.397   4.243   3.624
 2048SOL    HW2 6597   1.450   4.122   3.549
 2049SOL     OW 6598   0.951   4.610   3.449
 2049SOL    HW1 6599   1.006   4.541   3.411
 2049SOL    HW2 6600   0.902   4.645   3.375
 2050SOL     OW 6601   0.994   4.134   3.095
 2050SOL    HW1 6602   0.904   4.150   3.125
 2050SOL    HW2 6603   0.984   4.090   3.010
 2051SOL     OW 6604   1.054   4.423   2.286
 2051SOL    HW1 6605   1.072   4.416   2.380
 2051SOL    HW2 6606   0.970   4.377   2.274
 2052SOL     OW 6607   0.067   4.513   2.669
 2052SOL    HW1 6608   0.147   4.517   2.722
 2052SOL    HW2 6609   0.071   4.592   2.614
 2053SOL     OW 6610   0.899   4.075   2.057
 2053SOL    HW1 6611   0.939   4.138   1.998
 2053SOL    HW2 6612   0.908   3.991   2.012
 2054SOL     OW 6613   1.703   4.295   3.692
 2054SOL    HW1 6614   1.668   4.368   3.642
 2054SOL    HW2 6615   1.732   4.232   3.626
 2055SOL     OW 6616   1.381   4.862   2.397
 2055SOL    HW1 6617   1.464   4.850   2.350
 2055SOL    HW2 6618   1.332   4.924   2.343
 2056SOL     OW 6619   0.561   3.905   2.759
 2056SOL    HW1 6620   0.558   3.934   2.850
 2056SOL    HW2 6621   0.553   3.985   2.708
 2057SOL     OW 6622   1.018   5.160   2.342
 2057SOL    HW1 6623   0.949   5.226   2.344
 2057SOL    HW2 6624   1.031   5.134   2.433
 2058SOL     OW 6625   1.803   4.777   2.730
 2058SOL    HW1 6626   1.748   4.755   2.655
 2058SOL    HW2 6627   1.742   4.785   2.803
 2059SOL     OW 6628   1.253   5.242   3.392
 2059SOL    HW1 6629   1.217   5.174   3.450
 2059SOL    HW2 6630   1.179   5.273   3.341
 2060SOL     OW 6631   0.312   4.673   2.113
 2060SOL    HW1 6632   0.393   4.696   2.068
 2060SOL    HW2 6633   0.290   4.586   2.080
 2061SOL     OW 6634   1.481   4.474   2.584
 2061SOL    HW1 6635   1.478   4.433   2.671
 2061SOL    HW2 6636   1.560   4.528   2.586
 2062SOL     OW 6637   0.463   4.991   3.609
 2062SOL    HW1 6638   0.438   4.993   3.517
 2062SOL    HW2 6639   0.380   4.991   3.657
 2063SOL     OW 6640   1.050   0.169   2.060
 2063SOL    HW1 6641   1.093   0.102   2.113
 2063SOL    HW2 6642   1.069   0.143   1.969
 2064SOL     OW 6643   0.207   3.998   3.359
 2064SOL    HW1 6644   0.130   4.051   3.339
 2064SOL    HW2 6645   0.171   3.917   3.396
 2065SOL     OW 6646   1.620   5.106   1.974
 2065SOL    HW1 6647   1.635   5.167   1.902
 2065SOL    HW2 6648   1.554   5.045   1.941
 2066SOL     OW 6649   1.400   3.831   2.302
 2066SOL    HW1 6650   1.392   3.806   2.210
 2066SOL    HW2 6651   1.495   3.836   2.318
 2067SOL     OW 6652   0.387   4.417   2.339
 2067SOL    HW1 6653   0.416   4.327   2.349
 2067SOL    HW2 6654   0.294   4.415   2.360
 2068SOL     OW 6655   1.528   3.949   3.585
 2068SOL    HW1 6656   1.538   3.969   3.678
 2068SOL    HW2 6657   1.459   3.882   3.583
 2069SOL     OW 6658   0.644   3.842   1.964
 2069SOL    HW1 6659   0.705   3.769   1.980
 2069SOL    HW2 6660   0.591   3.812   1.890
 2070SOL     OW 6661   0.764   4.003   3.619
 2070SOL    HW1 6662   0.844   3.951   3.615
 2070SOL    HW2 6663   0.717   3.971   3.695
 2071SOL     OW 6664   1.338   4.313   3.295
 2071SOL    HW1 6665   1.369   4.282   3.380
 2071SOL    HW2 6666   1.375   4.401   3.286
 2072SOL     OW 6667   0.820   5.111   2.804
 2072SOL    HW1 6668   0.899   5.103   2.750
 2072SOL    HW2 6669   0.749   5.121   2.741
 2073SOL     OW 6670   0.930   4.234   2.761
 2073SOL    HW1 6671   0.905   4.225   2.669
 2073SOL    HW2 6672   0.958   4.146   2.787
 2074SOL     OW 6673   0.564   3.785   2.353
 2074SOL    HW1 6674   0.489   3.786   2.413
 2074SOL    HW2 6675   0.552   3.863   2.299
 2075SOL     OW 6676   1.429   4.927   1.897
 2075SOL    HW1 6677   1.457   4.851   1.949
 2075SOL    HW2 6678   1.340   4.946   1.928
 2076SOL     OW 6679   0.307   3.769   2.037
 2076SOL    HW1 6680   0.366   3.836   2.004
 2076SOL    HW2 6681   0.363   3.708   2.084
 2077SOL     OW 6682   0.944   3.974   2.317
 2077SOL    HW1 6683   0.919   4.013   2.232
 2077SOL    HW2 6684   1.038   3.990   2.323
 2078SOL     OW 6685   1.080   4.409   3.319
 2078SOL    HW1 6686   1.014   4.339   3.322
 2078SOL    HW2 6687   1.163   4.362   3.313
 2079SOL     OW 6688   1.266   5.266   2.636
 2079SOL    HW1 6689   1.209   0.042   2.620
 2079SOL    HW2 6690   1.313   5.289   2.716
 2080SOL     OW 6691   0.468   4.876   2.582
 2080SOL    HW1 6692   0.400   4.853   2.645
 2080SOL    HW2 6693   0.427   4.860   2.496
 2081SOL     OW 6694   1.024   4.259   1.889
 2081SOL    HW1 6695   0.980   4.342   1.869
 2081SOL    HW2 6696   1.089   4.281   1.955
 2082SOL     OW 6697   0.094   4.262   3.263
 2082SOL    HW1 6698   0.181   4.272   3.225
 2082SOL    HW2 6699   0.082   4.340   3.317
 2083SOL     OW 6700   0.561   3.953   3.033
 2083SOL    HW1 6701   0.598   3.875   3.074
 2083SOL    HW2 6702   0.468   3.952   3.058
 2084SOL     OW 6703   0.867   4.182   2.500
 2084SOL    HW1 6704   0.822   4.237   2.436
 2084SOL    HW2 6705   0.890   4.103   2.451
 2085SOL     OW 6706   1.018   3.778   2.609
 2085SOL    HW1 6707   0.959   3.772   2.534
 2085SOL    HW2 6708   0.995   3.704   2.665
 2086SOL     OW 6709   1.443   4.891   2.721
 2086SOL    HW1 6710   1.374   4.825   2.719
 2086SOL    HW2 6711   1.470   4.901   2.630
 2087SOL     OW 6712   1.466   4.334   2.829
 2087SOL    HW1 6713   1.409   4.256   2.833
 2087SOL    HW2 6714   1.523   4.325   2.906
 2088SOL     OW 6715   1.840   4.534   2.247
 2088SOL    HW1 6716   1.898   4.485   2.305
 2088SOL    HW2 6717   1.815   4.471   2.179
 2089SOL     OW 6718   0.476   5.149   2.003
 2089SOL    HW1 6719   0.422   5.097   2.062
 2089SOL    HW2 6720   0.493   5.091   1.929
 2090SOL     OW 6721   1.673   4.988   2.504
 2090SOL    HW1 6722   1.767   4.993   2.523
 2090SOL    HW2 6723   1.641   5.076   2.520
 2091SOL     OW 6724   1.393   4.297   1.933
 2091SOL    HW1 6725   1.332   4.276   2.003
 2091SOL    HW2 6726   1.478   4.266   1.965
 2092SOL     OW 6727   0.525   3.986   2.172
 2092SOL    HW1 6728   0.576   3.942   2.103
 2092SOL    HW2 6729   0.499   4.069   2.133
 2093SOL     OW 6730   1.748   4.961   3.426
 2093SOL    HW1 6731   1.833   4.917   3.429
 2093SOL    HW2 6732   1.769   5.054   3.436
 2094SOL     OW 6733   1.063   5.072   3.189
 2094SOL    HW1 6734   0.982   5.047   3.234
 2094SOL    HW2 6735   1.133   5.034   3.242
 2095SOL     OW 6736   1.132   4.929   2.968
 2095SOL    HW1 6737   1.084   4.971   3.040
 2095SOL    HW2 6738   1.078   4.947   2.891
 2096SOL     OW 6739   1.625   4.820   2.936
 2096SOL    HW1 6740   1.619   4.882   3.009
 2096SOL    HW2 6741   1.551   4.841   2.881
 2097SOL     OW 6742   0.919   3.817   3.254
 2097SOL    HW1 6743   0.941   3.799   3.163
 2097SOL    HW2 6744   0.998   3.856   3.291
 2098SOL     OW 6745   0.984   4.840   3.589
 2098SOL    HW1 6746   0.892   4.856   3.609
 2098SOL    HW2 6747   0.983   4.763   3.532
 2099SOL     OW 6748   0.706   4.786   2.233
 2099SOL    HW1 6749   0.692   4.766   2.325
 2099SOL    HW2 6750   0.783   4.733   2.208
 2100SOL     OW 6751   0.420   4.549   3.117
 2100SOL    HW1 6752   0.489   4.556   3.183
 2100SOL    HW2 6753   0.388   4.459   3.126
 2101SOL     OW 6754   1.263   4.098   3.143
 2101SOL    HW1 6755   1.295   4.176   3.188
 2101SOL    HW2 6756   1.172   4.119   3.121
 2102SOL     OW 6757   0.110   5.286   3.179
 2102SOL    HW1 6758   0.049   0.035   3.235
 2102SOL    HW2 6759   0.188   5.273   3.233
 2103SOL     OW 6760   0.347   4.834   2.339
 2103SOL    HW1 6761   0.335   4.912   2.286
 2103SOL    HW2 6762   0.342   4.761   2.277
 2104SOL     OW 6763   0.549   4.254   2.720
 2104SOL    HW1 6764   0.563   4.313   2.646
 2104SOL    HW2 6765   0.616   4.280   2.784
 2105SOL     OW 6766   1.261   5.082   2.248
 2105SOL    HW1 6767   1.319   5.148   2.288
 2105SOL    HW2 6768   1.174   5.105   2.280
 2106SOL     OW 6769   1.275   5.184   3.002
 2106SOL    HW1 6770   1.332   5.200   3.078
 2106SOL    HW2 6771   1.232   5.101   3.022
 2107SOL     OW 6772   1.578   4.343   2.346
 2107SOL    HW1 6773   1.528   4.391   2.413
 2107SOL    HW2 6774   1.622   4.411   2.296
 2108SOL     OW 6775   0.383   5.226   3.176
 2108SOL    HW1 6776   0.371   5.192   3.088
 2108SOL    HW2 6777   0.474   5.256   3.179
 2109SOL     OW 6778   0.419   4.465   3.465
 2109SOL    HW1 6779   0.482   4.510   3.408
 2109SOL    HW2 6780   0.455   4.378   3.477
 2110SOL     OW 6781   1.609   4.505   3.549
 2110SOL    HW1 6782   1.523   4.546   3.542
 2110SOL    HW2 6783   1.661   4.547   3.480
 2111SOL     OW 6784   0.996   3.857   3.617
 2111SOL    HW1 6785   1.054   3.930   3.594
 2111SOL    HW2 6786   1.045   3.779   3.591
 2112SOL     OW 6787   0.496   3.761   3.613
 2112SOL    HW1 6788   0.449   3.710   3.547
 2112SOL    HW2 6789   0.441   3.838   3.628
 2113SOL     OW 6790   0.586   4.597   2.896
 2113SOL    HW1 6791   0.619   4.687   2.896
 2113SOL    HW2 6792   0.529   4.593   2.973
 2114SOL     OW 6793   1.347   4.581   2.881
 2114SOL    HW1 6794   1.261   4.565   2.843
 2114SOL    HW2 6795   1.393   4.498   2.872
 2115SOL     OW 6796   1.200   4.251   2.124
 2115SOL    HW1 6797   1.208   4.173   2.179
 2115SOL    HW2 6798   1.157   4.316   2.181
 2116SOL     OW 6799   0.301   3.925   3.108
 2116SOL    HW1 6800   0.268   3.947   3.195
 2116SOL    HW2 6801   0.290   3.830   3.101
 2117SOL     OW 6802   0.039   5.019   3.134
 2117SOL    HW1 6803   0.069   4.973   3.212
 2117SOL    HW2 6804   0.042   5.111   3.158
 2118SOL     OW 6805   0.721   4.352   2.915
 2118SOL    HW1 6806   0.797   4.340   2.859
 2118SOL    HW2 6807   0.692   4.442   2.897
 2119SOL     OW 6808   1.739   4.684   3.720
 2119SOL    HW1 6809   1.696   4.617   3.668
 2119SOL    HW2 6810   1.677   4.701   3.792
 2120SOL     OW 6811   0.328   3.786   2.494
 2120SOL    HW1 6812   0.308   3.876   2.518
 2120SOL    HW2 6813   0.336   3.739   2.577
 2121SOL     OW 6814   1.623   4.103   2.222
 2121SOL    HW1 6815   1.650   4.037   2.285
 2121SOL    HW2 6816   1.598   4.179   2.275
 2122SOL     OW 6817   1.029   4.482   2.820
 2122SOL    HW1 6818   1.020   4.499   2.914
 2122SOL    HW2 6819   1.003   4.391   2.809
 2123SOL     OW 6820   1.853   5.213   3.438
 2123SOL    HW1 6821   1.834   5.296   3.394
 2123SOL    HW2 6822   1.924   5.234   3.499
 2124SOL     OW 6823   0.357   4.643   3.668
 2124SOL    HW1 6824   0.436   4.661   3.718
 2124SOL    HW2 6825   0.383   4.577   3.603
 2125SOL     OW 6826   1.525   3.996   1.988
 2125SOL    HW1 6827   1.462   3.930   2.016
 2125SOL    HW2 6828   1.561   4.033   2.069
 2126SOL     OW 6829   1.287   4.548   1.890
 2126SOL    HW1 6830   1.329   4.463   1.895
 2126SOL    HW2 6831   1.319   4.587   1.808
 2127SOL     OW 6832   1.055   5.089   2.670
 2127SOL    HW1 6833   1.063   4.999   2.637
 2127SOL    HW2 6834   1.144   5.125   2.664
 2128SOL     OW 6835   0.313   4.530   2.808
 2128SOL    HW1 6836   0.407   4.547   2.807
 2128SOL    HW2 6837   0.305   4.441   2.841
 2129SOL     OW 6838   0.332   4.252   2.879
 2129SOL    HW1 6839   0.297   4.164   2.866
 2129SOL    HW2 6840   0.407   4.257   2.820
 2130SOL     OW 6841   1.134   4.096   3.548
 2130SOL    HW1 6842   1.086   4.150   3.610
 2130SOL    HW2 6843   1.221   4.136   3.543
 2131SOL     OW 6844   1.161   3.921   3.335
 2131SOL    HW1 6845   1.149   3.984   3.406
 2131SOL    HW2 6846   1.203   3.971   3.265
 2132SOL     OW 6847   0.004   5.038   2.065
 2132SOL    HW1 6848   5.234   5.019   2.003
 2132SOL    HW2 6849   0.017   4.956   2.113
 2133SOL     OW 6850   0.972   4.511   3.085
 2133SOL    HW1 6851   1.032   4.493   3.158
 2133SOL    HW2 6852   0.890   4.470   3.111
 2134SOL     OW 6853   0.029   4.293   2.982
 2134SOL    HW1 6854   0.116   4.274   2.947
 2134SOL    HW2 6855   0.035   4.271   3.075
 2135SOL     OW 6856   0.168   4.238   3.576
 2135SOL    HW1 6857   0.228   4.193   3.517
 2135SOL    HW2 6858   0.148   4.320   3.533
 2136SOL     OW 6859   1.380   4.656   3.518
 2136SOL    HW1 6860   1.401   4.749   3.514
 2136SOL    HW2 6861   1.376   4.628   3.427
 2137SOL     OW 6862   0.818   4.294   2.228
 2137SOL    HW1 6863   0.823   4.220   2.168
 2137SOL    HW2 6864   0.743   4.345   2.197
 2138SOL     OW 6865   1.640   4.325   3.041
 2138SOL    HW1 6866   1.631   4.267   3.117
 2138SOL    HW2 6867   1.728   4.307   3.008
 2139SOL     OW 6868   0.207   5.274   3.596
 2139SOL    HW1 6869   0.153   0.011   3.665
 2139SOL    HW2 6870   0.213   5.181   3.616
 2140SOL     OW 6871   0.714   4.169   3.115
 2140SOL    HW1 6872   0.657   4.096   3.090
 2140SOL    HW2 6873   0.705   4.232   3.044
 2141SOL     OW 6874   0.464   4.216   2.039
 2141SOL    HW1 6875   0.524   4.285   2.067
 2141SOL    HW2 6876   0.381   4.261   2.025
 2142SOL     OW 6877   0.147   4.861   3.334
 2142SOL    HW1 6878   0.144   4.815   3.418
 2142SOL    HW2 6879   0.154   4.791   3.269
 2143SOL     OW 6880   1.322   4.764   3.080
 2143SOL    HW1 6881   1.343   4.702   3.011
 2143SOL    HW2 6882   1.255   4.821   3.043
 2144SOL     OW 6883   1.315   4.582   2.165
 2144SOL    HW1 6884   1.242   4.549   2.217
 2144SOL    HW2 6885   1.289   4.568   2.074
 2145SOL     OW 6886   0.072   4.899   2.894
 2145SOL    HW1 6887   0.060   4.946   2.977
 2145SOL    HW2 6888   5.287   4.908   2.850
 2146SOL     OW 6889   0.756   0.031   3.570
 2146SOL    HW1 6890   0.663   0.053   3.579
 2146SOL    HW2 6891   0.779   0.058   3.481
 2147SOL     OW 6892   1.722   3.880   2.366
 2147SOL    HW1 6893   1.793   3.863   2.304
 2147SOL    HW2 6894   1.706   3.794   2.407
 2148SOL     OW 6895   1.278   4.653   2.534
 2148SOL    HW1 6896   1.351   4.592   2.545
 2148SOL    HW2 6897   1.313   4.723   2.479
 2149SOL     OW 6898   0.808   4.992   3.263
 2149SOL    HW1 6899   0.774   5.026   3.346
 2149SOL    HW2 6900   0.732   4.995   3.204
 2150SOL     OW 6901   1.843   3.894   2.828
 2150SOL    HW1 6902   1.872   3.806   2.803
 2150SOL    HW2 6903   1.756   3.903   2.788
 2151SOL     OW 6904   0.275   4.040   2.577
 2151SOL    HW1 6905   0.188   4.078   2.560
 2151SOL    HW2 6906   0.278   4.030   2.672
 2152SOL     OW 6907   0.827   4.724   3.235
 2152SOL    HW1 6908   0.874   4.711   3.152
 2152SOL    HW2 6909   0.827   4.819   3.248
 2153SOL     OW 6910   0.916   4.636   2.154
 2153SOL    HW1 6911   0.976   4.670   2.087
 2153SOL    HW2 6912   0.966   4.568   2.199
 2154SOL     OW 6913   0.366   5.026   3.365
 2154SOL    HW1 6914   0.370   5.094   3.297
 2154SOL    HW2 6915   0.290   4.973   3.341
 2155SOL     OW 6916   1.612   5.005   3.143
 2155SOL    HW1 6917   1.666   4.993   3.221
 2155SOL    HW2 6918   1.549   5.072   3.168
 2156SOL     OW 6919   1.065   4.836   2.580
 2156SOL    HW1 6920   0.991   4.785   2.613
 2156SOL    HW2 6921   1.129   4.771   2.553
 2157SOL     OW 6922   1.025   3.966   2.828
 2157SOL    HW1 6923   1.021   3.920   2.745
 2157SOL    HW2 6924   1.019   3.897   2.894
 2158SOL     OW 6925   1.727   4.116   3.243
 2158SOL    HW1 6926   1.799   4.179   3.242
 2158SOL    HW2 6927   1.756   4.045   3.185
 2159SOL     OW 6928   0.261   5.056   2.157
 2159SOL    HW1 6929   0.169   5.058   2.130
 2159SOL    HW2 6930   0.261   5.099   2.243
 2160SOL     OW 6931   0.120   4.745   3.583
 2160SOL    HW1 6932   0.050   4.703   3.633
 2160SOL    HW2 6933   0.201   4.711   3.621
 2161SOL     OW 6934   0.677   3.919   3.362
 2161SOL    HW1 6935   0.761   3.897   3.322
 2161SOL    HW2 6936   0.700   3.952   3.449
 2162SOL     OW 6937   0.089   4.056   1.898
 2162SOL    HW1 6938   0.002   4.022   1.880
 2162SOL    HW2 6939   0.103   4.124   1.832
 2163SOL     OW 6940   1.426   4.580   3.259
 2163SOL    HW1 6941   1.376   4.641   3.204
 2163SOL    HW2 6942   1.514   4.583   3.223
 2164SOL     OW 6943   0.065   3.862   2.118
 2164SOL    HW1 6944   0.060   3.949   2.079
 2164SOL    HW2 6945   0.146   3.825   2.085
 2165SOL     OW 6946   1.182   5.058   1.986
 2165SOL    HW1 6947   1.092   5.027   1.988
 2165SOL    HW2 6948   1.211   5.053   2.077
 2166SOL     OW 6949   0.621   4.555   3.300
 2166SOL    HW1 6950   0.679   4.629   3.283
 2166SOL    HW2 6951   0.679   4.479   3.306
 2167SOL     OW 6952   0.718   4.283   3.563
 2167SOL    HW1 6953   0.764   4.342   3.623
 2167SOL    HW2 6954   0.737   4.196   3.596
 2168SOL     OW 6955   1.477   4.915   3.489
 2168SOL    HW1 6956   1.464   4.931   3.583
 2168SOL    HW2 6957   1.570   4.933   3.475
 2169SOL     OW 6958   1.664   4.603   3.116
 2169SOL    HW1 6959   1.660   4.518   3.073
 2169SOL    HW2 6960   1.654   4.667   3.045
 2170SOL     OW 6961   1.217   4.044   2.319
 2170SOL    HW1 6962   1.278   3.970   2.313
 2170SOL    HW2 6963   1.246   4.093   2.395
 2171SOL     OW 6964   0.586   4.458   2.535
 2171SOL    HW1 6965   0.626   4.544   2.520
 2171SOL    HW2 6966   0.519   4.450   2.467
 2172SOL     OW 6967   1.756   4.088   3.516
 2172SOL    HW1 6968   1.743   4.104   3.422
 2172SOL    HW2 6969   1.683   4.031   3.541
 2173SOL     OW 6970   1.748   4.657   3.372
 2173SOL    HW1 6971   1.735   4.751   3.383
 2173SOL    HW2 6972   1.730   4.642   3.279
 2174SOL     OW 6973   0.844   5.093   1.884
 2174SOL    HW1 6974   0.831   5.092   1.979
 2174SOL    HW2 6975   0.853   5.185   1.862
 2175SOL     OW 6976   0.871   4.694   2.714
 2175SOL    HW1 6977   0.919   4.621   2.753
 2175SOL    HW2 6978   0.831   4.739   2.788
 2176SOL     OW 6979   1.079   4.715   1.953
 2176SOL    HW1 6980   1.056   4.765   1.875
 2176SOL    HW2 6981   1.151   4.659   1.925
 2177SOL     OW 6982   0.217   5.016   3.716
 2177SOL    HW1 6983   0.159   4.943   3.698
 2177SOL    HW2 6984   0.212   5.027   3.811
 2178SOL     OW 6985   0.091   4.912   2.511
 2178SOL    HW1 6986   0.118   4.898   2.602
 2178SOL    HW2 6987   0.160   4.968   2.474
 2179SOL     OW 6988   0.678   5.094   3.471
 2179SOL    HW1 6989   0.598   5.070   3.517
 2179SOL    HW2 6990   0.715   5.167   3.522
 2180SOL     OW 6991   1.811   3.906   3.098
 2180SOL    HW1 6992   1.818   3.811   3.111
 2180SOL    HW2 6993   1.822   3.918   3.004
 2181SOL     OW 6994   0.439   4.159   2.385
 2181SOL    HW1 6995   0.466   4.086   2.329
 2181SOL    HW2 6996   0.390   4.118   2.456
 2182SOL     OW 6997   1.706   5.227   2.978
 2182SOL    HW1 6998   1.632   5.209   2.920
 2182SOL    HW2 6999   1.712   5.149   3.034
 2183SOL     OW 7000   0.343   4.289   3.155
 2183SOL    HW1 7001   0.395   4.228   3.208
 2183SOL    HW2 7002   0.354   4.258   3.065
 2184SOL     OW 7003   1.429   3.953   2.979
 2184SOL    HW1 7004   1.449   3.870   3.021
 2184SOL    HW2 7005   1.379   4.002   3.044
 2185SOL     OW 7006   1.009   3.741   2.998
 2185SOL    HW1 7007   0.954   3.675   2.955
 2185SOL    HW2 7008   1.096   3.702   2.999
 2186SOL     OW 7009   0.811   5.044   2.149
 2186SOL    HW1 7010   0.760   4.966   2.173
 2186SOL    HW2 7011   0.865   5.062   2.225
 2187SOL     OW 7012   0.643   0.006   3.158
 2187SOL    HW1 7013   0.643   0.061   3.236
 2187SOL    HW2 7014   0.736   5.289   3.141
 2188SOL     OW 7015   1.357   3.776   2.034
 2188SOL    HW1 7016   1.390   3.706   1.977
 2188SOL    HW2 7017   1.268   3.749   2.055
 2189SOL     OW 7018   1.296   4.187   2.540
 2189SOL    HW1 7019   1.244   4.267   2.544
 2189SOL    HW2 7020   1.291   4.151   2.628
 2190SOL     OW 7021   1.585   3.919   2.745
 2190SOL    HW1 7022   1.529   3.944   2.818
 2190SOL    HW2 7023   1.584   3.996   2.687
 2191SOL     OW 7024   0.050   4.785   2.152
 2191SOL    HW1 7025   0.139   4.751   2.143
 2191SOL    HW2 7026   0.002   4.717   2.199
 2192SOL     OW 7027   0.231   4.349   3.843
 2192SOL    HW1 7028   0.164   4.308   3.897
 2192SOL    HW2 7029   0.209   4.323   3.753
 2193SOL     OW 7030   0.247   3.999   4.711
 2193SOL    HW1 7031   0.259   3.964   4.799
 2193SOL    HW2 7032   0.160   3.968   4.684
 2194SOL     OW 7033   5.295   4.125   4.382
 2194SOL    HW1 7034   5.202   4.147   4.381
 2194SOL    HW2 7035   5.300   4.038   4.343
 2195SOL     OW 7036   0.585   5.011   4.920
 2195SOL    HW1 7037   0.504   5.011   4.868
 2195SOL    HW2 7038   0.602   5.103   4.939
 2196SOL     OW 7039   1.560   5.234   4.414
 2196SOL    HW1 7040   1.548   5.229   4.509
 2196SOL    HW2 7041   1.476   5.268   4.381
 2197SOL     OW 7042   1.133   4.423   4.419
 2197SOL    HW1 7043   1.180   4.505   4.407
 2197SOL    HW2 7044   1.085   4.434   4.501
 2198SOL     OW 7045   1.775   4.323   3.950
 2198SOL    HW1 7046   1.750   4.318   3.858
 2198SOL    HW2 7047   1.736   4.245   3.990
 2199SOL     OW 7048   0.751   4.861   4.764
 2199SOL    HW1 7049   0.691   4.894   4.831
 2199SOL    HW2 7050   0.783   4.939   4.720
 2200SOL     OW 7051   0.876   4.487   5.549
 2200SOL    HW1 7052   0.864   4.558   5.612
 2200SOL    HW2 7053   0.897   4.531   5.467
 2201SOL     OW 7054   0.685   4.720   4.368
 2201SOL    HW1 7055   0.751   4.713   4.437
 2201SOL    HW2 7056   0.618   4.777   4.406
 2202SOL     OW 7057   0.708   4.867   5.543
 2202SOL    HW1 7058   0.756   4.947   5.566
 2202SOL    HW2 7059   0.628   4.900   5.502
 2203SOL     OW 7060   0.381   5.148   4.778
 2203SOL    HW1 7061   0.288   5.164   4.765
 2203SOL    HW2 7062   0.423   5.184   4.699
 2204SOL     OW 7063   1.454   5.224   5.074
 2204SOL    HW1 7064   1.509   5.295   5.104
 2204SOL    HW2 7065   1.386   5.216   5.141
 2205SOL     OW 7066   0.454   4.121   5.208
 2205SOL    HW1 7067   0.528   4.061   5.214
 2205SOL    HW2 7068   0.377   4.066   5.223
 2206SOL     OW 7069   1.606   4.166   4.468
 2206SOL    HW1 7070   1.534   4.185   4.408
 2206SOL    HW2 7071   1.610   4.243   4.525
 2207SOL     OW 7072   1.133   5.076   5.431
 2207SOL    HW1 7073   1.160   5.077   5.523
 2207SOL    HW2 7074   1.080   4.997   5.423
 2208SOL     OW 7075   0.206   5.153   4.268
 2208SOL    HW1 7076   0.257   5.226   4.302
 2208SOL    HW2 7077   0.120   5.162   4.309
 2209SOL     OW 7078   0.257   4.795   4.596
 2209SOL    HW1 7079   0.270   4.706   4.629
 2209SOL    HW2 7080   0.198   4.836   4.660
 2210SOL     OW 7081   0.575   4.708   3.865
 2210SOL    HW1 7082   0.625   4.752   3.796
 2210SOL    HW2 7083   0.614   4.739   3.946
 2211SOL     OW 7084   1.595   3.851   5.189
 2211SOL    HW1 7085   1.619   3.931   5.141
 2211SOL    HW2 7086   1.575   3.881   5.277
 2212SOL     OW 7087   0.128   4.350   4.304
 2212SOL    HW1 7088   0.088   4.271   4.339
 2212SOL    HW2 7089   0.101   4.420   4.363
 2213SOL     OW 7090   0.000   5.292   3.806
 2213SOL    HW1 7091   0.010   5.205   3.844
 2213SOL    HW2 7092   0.030   0.052   3.874
 2214SOL     OW 7093   1.690   4.642   4.369
 2214SOL    HW1 7094   1.770   4.597   4.345
 2214SOL    HW2 7095   1.667   4.693   4.291
 2215SOL     OW 7096   1.649   4.827   4.154
 2215SOL    HW1 7097   1.736   4.827   4.113
 2215SOL    HW2 7098   1.657   4.890   4.225
 2216SOL     OW 7099   0.138   4.472   5.306
 2216SOL    HW1 7100   0.232   4.487   5.303
 2216SOL    HW2 7101   0.101   4.560   5.319
 2217SOL     OW 7102   0.627   5.101   4.469
 2217SOL    HW1 7103   0.572   5.023   4.461
 2217SOL    HW2 7104   0.608   5.151   4.390
 2218SOL     OW 7105   1.287   4.950   5.149
 2218SOL    HW1 7106   1.318   4.883   5.088
 2218SOL    HW2 7107   1.349   4.946   5.222
 2219SOL     OW 7108   0.829   3.727   4.238
 2219SOL    HW1 7109   0.869   3.811   4.214
 2219SOL    HW2 7110   0.735   3.746   4.241
 2220SOL     OW 7111   0.166   4.661   5.010
 2220SOL    HW1 7112   0.255   4.627   4.999
 2220SOL    HW2 7113   0.134   4.674   4.921
 2221SOL     OW 7114   1.530   4.725   3.923
 2221SOL    HW1 7115   1.461   4.668   3.956
 2221SOL    HW2 7116   1.573   4.758   4.002
 2222SOL     OW 7117   0.350   3.980   5.556
 2222SOL    HW1 7118   0.394   4.063   5.576
 2222SOL    HW2 7119   0.259   3.994   5.582
 2223SOL     OW 7120   1.482   5.150   4.684
 2223SOL    HW1 7121   1.409   5.162   4.745
 2223SOL    HW2 7122   1.470   5.061   4.650
 2224SOL     OW 7123   0.594   4.441   3.997
 2224SOL    HW1 7124   0.599   4.524   3.949
 2224SOL    HW2 7125   0.528   4.456   4.065
 2225SOL     OW 7126   1.279   4.089   4.658
 2225SOL    HW1 7127   1.190   4.055   4.667
 2225SOL    HW2 7128   1.331   4.035   4.717
 2226SOL     OW 7129   0.791   4.341   5.171
 2226SOL    HW1 7130   0.765   4.315   5.260
 2226SOL    HW2 7131   0.756   4.272   5.115
 2227SOL     OW 7132   1.392   4.198   5.402
 2227SOL    HW1 7133   1.397   4.243   5.486
 2227SOL    HW2 7134   1.450   4.122   5.412
 2228SOL     OW 7135   0.951   4.610   5.311
 2228SOL    HW1 7136   1.006   4.541   5.273
 2228SOL    HW2 7137   0.902   4.645   5.237
 2229SOL     OW 7138   0.994   4.134   4.957
 2229SOL    HW1 7139   0.904   4.150   4.987
 2229SOL    HW2 7140   0.984   4.090   4.872
 2230SOL     OW 7141   1.054   4.423   4.148
 2230SOL    HW1 7142   1.072   4.416   4.242
 2230SOL    HW2 7143   0.970   4.377   4.136
 2231SOL     OW 7144   0.067   4.513   4.531
 2231SOL    HW1 7145   0.146   4.517   4.584
 2231SOL    HW2 7146   0.071   4.591   4.475
 2232SOL     OW 7147   0.899   4.075   3.919
 2232SOL    HW1 7148   0.939   4.138   3.860
 2232SOL    HW2 7149   0.908   3.991   3.874
 2233SOL     OW 7150   1.703   4.294   5.554
 2233SOL    HW1 7151   1.669   4.368   5.504
 2233SOL    HW2 7152   1.732   4.232   5.488
 2234SOL     OW 7153   1.381   4.862   4.259
 2234SOL    HW1 7154   1.464   4.850   4.212
 2234SOL    HW2 7155   1.332   4.924   4.205
 2235SOL     OW 7156   0.561   3.905   4.621
 2235SOL    HW1 7157   0.558   3.934   4.712
 2235SOL    HW2 7158   0.553   3.985   4.570
 2236SOL     OW 7159   1.018   5.160   4.204
 2236SOL    HW1 7160   0.949   5.226   4.206
 2236SOL    HW2 7161   1.031   5.134   4.295
 2237SOL     OW 7162   1.803   4.777   4.592
 2237SOL    HW1 7163   1.748   4.755   4.517
 2237SOL    HW2 7164   1.742   4.785   4.665
 2238SOL     OW 7165   1.253   5.242   5.254
 2238SOL    HW1 7166   1.217   5.174   5.312
 2238SOL    HW2 7167   1.179   5.273   5.203
 2239SOL     OW 7168   0.312   4.673   3.975
 2239SOL    HW1 7169   0.393   4.695   3.930
 2239SOL    HW2 7170   0.290   4.586   3.942
 2240SOL     OW 7171   1.481   4.474   4.446
 2240SOL    HW1 7172   1.478   4.433   4.533
 2240SOL    HW2 7173   1.560   4.528   4.448
 2241SOL     OW 7174   0.463   4.991   5.471
 2241SOL    HW1 7175   0.438   4.993   5.379
 2241SOL    HW2 7176   0.380   4.991   5.519
 2242SOL     OW 7177   1.050   0.169   3.922
 2242SOL    HW1 7178   1.095   0.104   3.975
 2242SOL    HW2 7179   1.069   0.143   3.832
 2243SOL     OW 7180   0.207   3.998   5.221
 2243SOL    HW1 7181   0.130   4.051   5.201
 2243SOL    HW2 7182   0.171   3.917   5.258
 2244SOL     OW 7183   1.619   5.107   3.837
 2244SOL    HW1 7184   1.636   5.166   3.764
 2244SOL    HW2 7185   1.554   5.045   3.803
 2245SOL     OW 7186   1.400   3.831   4.165
 2245SOL    HW1 7187   1.392   3.806   4.072
 2245SOL    HW2 7188   1.495   3.837   4.179
 2246SOL     OW 7189   0.387   4.417   4.201
 2246SOL    HW1 7190   0.416   4.327   4.211
 2246SOL    HW2 7191   0.294   4.415   4.222
 2247SOL     OW 7192   1.528   3.949   5.448
 2247SOL    HW1 7193   1.538   3.969   5.541
 2247SOL    HW2 7194   1.459   3.882   5.445
 2248SOL     OW 7195   0.644   3.842   3.826
 2248SOL    HW1 7196   0.705   3.769   3.842
 2248SOL    HW2 7197   0.591   3.812   3.752
 2249SOL     OW 7198   0.764   4.003   5.481
 2249SOL    HW1 7199   0.844   3.951   5.477
 2249SOL    HW2 7200   0.717   3.971   5.557
 2250SOL     OW 7201   1.338   4.313   5.157
 2250SOL    HW1 7202   1.369   4.282   5.242
 2250SOL    HW2 7203   1.375   4.401   5.148
 2251SOL     OW 7204   0.820   5.111   4.666
 2251SOL    HW1 7205   0.899   5.103   4.612
 2251SOL    HW2 7206   0.749   5.121   4.603
 2252SOL     OW 7207   0.930   4.234   4.623
 2252SOL    HW1 7208   0.905   4.225   4.531
 2252SOL    HW2 7209   0.958   4.146   4.649
 2253SOL     OW 7210   0.564   3.785   4.215
 2253SOL    HW1 7211   0.489   3.786   4.275
 2253SOL    HW2 7212   0.552   3.863   4.161
 2254SOL     OW 7213   1.429   4.927   3.759
 2254SOL    HW1 7214   1.457   4.851   3.811
 2254SOL    HW2 7215   1.341   4.945   3.790
 2255SOL     OW 7216   0.307   3.769   3.899
 2255SOL    HW1 7217   0.366   3.836   3.866
 2255SOL    HW2 7218   0.363   3.708   3.946
 2256SOL     OW 7219   0.944   3.974   4.179
 2256SOL    HW1 7220   0.919   4.013   4.094
 2256SOL    HW2 7221   1.038   3.990   4.185
 2257SOL     OW 7222   1.080   4.409   5.181
 2257SOL    HW1 7223   1.014   4.339   5.184
 2257SOL    HW2 7224   1.163   4.362   5.175
 2258SOL     OW 7225   1.266   5.266   4.498
 2258SOL    HW1 7226   1.209   0.042   4.482
 2258SOL    HW2 7227   1.313   5.289   4.578
 2259SOL     OW 7228   0.468   4.876   4.444
 2259SOL    HW1 7229   0.400   4.853   4.507
 2259SOL    HW2 7230   0.427   4.860   4.358
 2260SOL     OW 7231   1.024   4.259   3.751
 2260SOL    HW1 7232   0.980   4.342   3.731
 2260SOL    HW2 7233   1.089   4.281   3.817
 2261SOL     OW 7234   0.094   4.262   5.125
 2261SOL    HW1 7235   0.181   4.272   5.087
 2261SOL    HW2 7236   0.083   4.340   5.179
 2262SOL     OW 7237   0.561   3.953   4.895
 2262SOL    HW1 7238   0.598   3.875   4.936
 2262SOL    HW2 7239   0.468   3.952   4.920
 2263SOL     OW 7240   0.867   4.182   4.362
 2263SOL    HW1 7241   0.823   4.237   4.298
 2263SOL    HW2 7242   0.890   4.103   4.313
 2264SOL     OW 7243   1.018   3.778   4.471
 2264SOL    HW1 7244   0.959   3.772   4.396
 2264SOL    HW2 7245   0.995   3.704   4.527
 2265SOL     OW 7246   1.443   4.891   4.583
 2265SOL    HW1 7247   1.374   4.825   4.581
 2265SOL    HW2 7248   1.470   4.901   4.492
 2266SOL     OW 7249   1.466   4.334   4.691
 2266SOL    HW1 7250   1.409   4.256   4.695
 2266SOL    HW2 7251   1.523   4.325   4.768
 2267SOL     OW 7252   1.840   4.534   4.110
 2267SOL    HW1 7253   1.898   4.485   4.167
 2267SOL    HW2 7254   1.815   4.471   4.042
 2268SOL     OW 7255   0.476   5.149   3.864
 2268SOL    HW1 7256   0.422   5.097   3.924
 2268SOL    HW2 7257   0.494   5.090   3.791
 2269SOL     OW 7258   1.673   4.988   4.366
 2269SOL    HW1 7259   1.767   4.993   4.385
 2269SOL    HW2 7260   1.641   5.076   4.382
 2270SOL     OW 7261   1.394   4.297   3.795
 2270SOL    HW1 7262   1.332   4.275   3.865
 2270SOL    HW2 7263   1.478   4.266   3.827
 2271SOL     OW 7264   0.525   3.986   4.034
 2271SOL    HW1 7265   0.576   3.942   3.965
 2271SOL    HW2 7266   0.499   4.069   3.995
 2272SOL     OW 7267   1.748   4.961   5.288
 2272SOL    HW1 7268   1.833   4.917   5.290
 2272SOL    HW2 7269   1.769   5.054   5.298
 2273SOL     OW 7270   1.063   5.072   5.051
 2273SOL    HW1 7271   0.982   5.047   5.096
 2273SOL    HW2 7272   1.133   5.034   5.104
 2274SOL     OW 7273   1.131   4.929   4.830
 2274SOL    HW1 7274   1.084   4.971   4.902
 2274SOL    HW2 7275   1.078   4.947   4.753
 2275SOL     OW 7276   1.625   4.820   4.798
 2275SOL    HW1 7277   1.619   4.882   4.871
 2275SOL    HW2 7278   1.551   4.841   4.743
 2276SOL     OW 7279   0.919   3.816   5.116
 2276SOL    HW1 7280   0.941   3.799   5.025
 2276SOL    HW2 7281   0.998   3.856   5.153
 2277SOL     OW 7282   0.984   4.840   5.451
 2277SOL    HW1 7283   0.892   4.856   5.471
 2277SOL    HW2 7284   0.983   4.763   5.394
 2278SOL     OW 7285   0.706   4.786   4.095
 2278SOL    HW1 7286   0.692   4.766   4.187
 2278SOL    HW2 7287   0.783   4.733   4.070
 2279SOL     OW 7288   0.420   4.549   4.979
 2279SOL    HW1 7289   0.489   4.556   5.045
 2279SOL    HW2 7290   0.388   4.459   4.988
 2280SOL     OW 7291   1.263   4.098   5.005
 2280SOL    HW1 7292   1.295   4.176   5.050
 2280SOL    HW2 7293   1.172   4.119   4.983
 2281SOL     OW 7294   0.110   5.286   5.041
 2281SOL    HW1 7295   0.049   0.035   5.097
 2281SOL    HW2 7296   0.188   5.273   5.095
 2282SOL     OW 7297   0.347   4.834   4.201
 2282SOL    HW1 7298   0.335   4.912   4.148
 2282SOL    HW2 7299   0.342   4.761   4.139
 2283SOL     OW 7300   0.549   4.254   4.582
 2283SOL    HW1 7301   0.563   4.313   4.508
 2283SOL    HW2 7302   0.616   4.280   4.646
 2284SOL     OW 7303   1.261   5.082   4.110
 2284SOL    HW1 7304   1.319   5.148   4.150
 2284SOL    HW2 7305   1.174   5.105   4.142
 2285SOL     OW 7306   1.275   5.184   4.864
 2285SOL    HW1 7307   1.332   5.200   4.940
 2285SOL    HW2 7308   1.232   5.101   4.884
 2286SOL     OW 7309   1.578   4.343   4.208
 2286SOL    HW1 7310   1.528   4.391   4.274
 2286SOL    HW2 7311   1.622   4.411   4.157
 2287SOL     OW 7312   0.383   5.227   5.038
 2287SOL    HW1 7313   0.371   5.192   4.950
 2287SOL    HW2 7314   0.474   5.256   5.041
 2288SOL     OW 7315   0.419   4.465   5.327
 2288SOL    HW1 7316   0.482   4.510   5.270
 2288SOL    HW2 7317   0.455   4.377   5.339
 2289SOL     OW 7318   1.609   4.505   5.411
 2289SOL    HW1 7319   1.523   4.546   5.404
 2289SOL    HW2 7320   1.661   4.547   5.342
 2290SOL     OW 7321   0.996   3.857   5.479
 2290SOL    HW1 7322   1.054   3.930   5.456
 2290SOL    HW2 7323   1.045   3.779   5.453
 2291SOL     OW 7324   0.496   3.761   5.475
 2291SOL    HW1 7325   0.449   3.710   5.409
 2291SOL    HW2 7326   0.441   3.838   5.490
 2292SOL     OW 7327   0.586   4.597   4.758
 2292SOL    HW1 7328   0.619   4.687   4.758
 2292SOL    HW2 7329   0.529   4.593   4.835
 2293SOL     OW 7330   1.347   4.582   4.743
 2293SOL    HW1 7331   1.261   4.565   4.705
 2293SOL    HW2 7332   1.393   4.498   4.734
 2294SOL     OW 7333   1.200   4.251   3.986
 2294SOL    HW1 7334   1.208   4.173   4.041
 2294SOL    HW2 7335   1.157   4.316   4.043
 2295SOL     OW 7336   0.301   3.925   4.970
 2295SOL    HW1 7337   0.269   3.947   5.057
 2295SOL    HW2 7338   0.290   3.830   4.963
 2296SOL     OW 7339   0.039   5.019   4.996
 2296SOL    HW1 7340   0.069   4.973   5.074
 2296SOL    HW2 7341   0.043   5.111   5.020
 2297SOL     OW 7342   0.721   4.353   4.777
 2297SOL    HW1 7343   0.797   4.341   4.721
 2297SOL    HW2 7344   0.692   4.442   4.759
 2298SOL     OW 7345   1.739   4.684   5.582
 2298SOL    HW1 7346   1.696   4.617   5.530
 2298SOL    HW2 7347   1.677   4.701   5.654
 2299SOL     OW 7348   0.329   3.786   4.356
 2299SOL    HW1 7349   0.308   3.876   4.380
 2299SOL    HW2 7350   0.336   3.740   4.439
 2300SOL     OW 7351   1.622   4.103   4.084
 2300SOL    HW1 7352   1.650   4.037   4.148
 2300SOL    HW2 7353   1.598   4.179   4.137
 2301SOL     OW 7354   1.029   4.482   4.682
 2301SOL    HW1 7355   1.020   4.499   4.776
 2301SOL    HW2 7356   1.003   4.391   4.671
 2302SOL     OW 7357   1.853   5.213   5.300
 2302SOL    HW1 7358   1.834   5.296   5.256
 2302SOL    HW2 7359   1.924   5.234   5.361
 2303SOL     OW 7360   0.357   4.643   5.530
 2303SOL    HW1 7361   0.436   4.661   5.580
 2303SOL    HW2 7362   0.383   4.577   5.465
 2304SOL     OW 7363   1.525   3.996   3.850
 2304SOL    HW1 7364   1.462   3.930   3.878
 2304SOL    HW2 7365   1.560   4.033   3.931
 2305SOL     OW 7366   1.287   4.548   3.752
 2305SOL    HW1 7367   1.329   4.463   3.757
 2305SOL    HW2 7368   1.319   4.587   3.670
 2306SOL     OW 7369   1.055   5.089   4.532
 2306SOL    HW1 7370   1.063   4.999   4.499
 2306SOL    HW2 7371   1.144   5.125   4.526
 2307SOL     OW 7372   0.313   4.530   4.670
 2307SOL    HW1 7373   0.407   4.547   4.669
 2307SOL    HW2 7374   0.305   4.441   4.703
 2308SOL     OW 7375   0.332   4.252   4.741
 2308SOL    HW1 7376   0.297   4.164   4.728
 2308SOL    HW2 7377   0.407   4.257   4.682
 2309SOL     OW 7378   1.134   4.096   5.410
 2309SOL    HW1 7379   1.086   4.150   5.472
 2309SOL    HW2 7380   1.221   4.136   5.405
 2310SOL     OW 7381   1.161   3.921   5.197
 2310SOL    HW1 7382   1.149   3.984   5.268
 2310SOL    HW2 7383   1.203   3.971   5.127
 2311SOL     OW 7384   0.004   5.038   3.927
 2311SOL    HW1 7385   5.233   5.019   3.865
 2311SOL    HW2 7386   0.017   4.956   3.975
 2312SOL     OW 7387   0.972   4.511   4.947
 2312SOL    HW1 7388   1.032   4.493   5.020
 2312SOL    HW2 7389   0.890   4.470   4.973
 2313SOL     OW 7390   0.029   4.293   4.844
 2313SOL    HW1 7391   0.116   4.274   4.809
 2313SOL    HW2 7392   0.035   4.271   4.937
 2314SOL     OW 7393   0.168   4.238   5.438
 2314SOL    HW1 7394   0.228   4.193   5.379
 2314SOL    HW2 7395   0.148   4.320   5.395
 2315SOL     OW 7396   1.380   4.656   5.380
 2315SOL    HW1 7397   1.401   4.749   5.376
 2315SOL    HW2 7398   1.376   4.628   5.289
 2316SOL     OW 7399   0.818   4.294   4.090
 2316SOL    HW1 7400   0.824   4.220   4.030
 2316SOL    HW2 7401   0.743   4.345   4.059
 2317SOL     OW 7402   1.640   4.325   4.903
 2317SOL    HW1 7403   1.630   4.266   4.979
 2317SOL    HW2 7404   1.728   4.307   4.870
 2318SOL     OW 7405   0.207   5.274   5.458
 2318SOL    HW1 7406   0.153   0.011   5.527
 2318SOL    HW2 7407   0.213   5.181   5.478
 2319SOL     OW 7408   0.714   4.169   4.977
 2319SOL    HW1 7409   0.657   4.096   4.952
 2319SOL    HW2 7410   0.705   4.232   4.906
 2320SOL     OW 7411   0.464   4.216   3.901
 2320SOL    HW1 7412   0.524   4.285   3.929
 2320SOL    HW2 7413   0.380   4.261   3.887
 2321SOL     OW 7414   0.147   4.861   5.196
 2321SOL    HW1 7415   0.144   4.815   5.280
 2321SOL    HW2 7416   0.154   4.791   5.131
 2322SOL     OW 7417   1.322   4.764   4.942
 2322SOL    HW1 7418   1.343   4.702   4.873
 2322SOL    HW2 7419   1.255   4.821   4.905
 2323SOL     OW 7420   1.315   4.582   4.027
 2323SOL    HW1 7421   1.242   4.549   4.079
 2323SOL    HW2 7422   1.289   4.567   3.936
 2324SOL     OW 7423   0.071   4.899   4.756
 2324SOL    HW1 7424   0.060   4.946   4.839
 2324SOL    HW2 7425   5.287   4.908   4.712
 2325SOL     OW 7426   0.756   0.030   5.432
 2325SOL    HW1 7427   0.663   0.053   5.441
 2325SOL    HW2 7428   0.779   0.058   5.343
 2326SOL     OW 7429   1.722   3.880   4.229
 2326SOL    HW1 7430   1.792   3.864   4.166
 2326SOL    HW2 7431   1.706   3.794   4.269
 2327SOL     OW 7432   1.278   4.653   4.396
 2327SOL    HW1 7433   1.351   4.592   4.407
 2327SOL    HW2 7434   1.313   4.723   4.341
 2328SOL     OW 7435   0.808   4.992   5.125
 2328SOL    HW1 7436   0.774   5.026   5.208
 2328SOL    HW2 7437   0.732   4.995   5.066
 2329SOL     OW 7438   1.843   3.894   4.689
 2329SOL    HW1 7439   1.871   3.806   4.666
 2329SOL    HW2 7440   1.756   3.903   4.650
 2330SOL     OW 7441   0.275   4.040   4.439
 2330SOL    HW1 7442   0.188   4.078   4.422
 2330SOL    HW2 7443   0.278   4.030   4.534
 2331SOL     OW 7444   0.827   4.724   5.097
 2331SOL    HW1 7445   0.874   4.711   5.014
 2331SOL    HW2 7446   0.827   4.819   5.110
 2332SOL     OW 7447   0.916   4.636   4.016
 2332SOL    HW1 7448   0.976   4.670   3.949
 2332SOL    HW2 7449   0.966   4.568   4.061
 2333SOL     OW 7450   0.366   5.026   5.227
 2333SOL    HW1 7451   0.370   5.094   5.159
 2333SOL    HW2 7452   0.290   4.973   5.203
 2334SOL     OW 7453   1.612   5.005   5.005
 2334SOL    HW1 7454   1.666   4.993   5.083
 2334SOL    HW2 7455   1.548   5.072   5.030
 2335SOL     OW 7456   1.065   4.836   4.443
 2335SOL    HW1 7457   0.991   4.785   4.475
 2335SOL    HW2 7458   1.129   4.771   4.415
 2336SOL     OW 7459   1.025   3.966   4.690
 2336SOL    HW1 7460   1.021   3.920   4.607
 2336SOL    HW2 7461   1.019   3.897   4.756
 2337SOL     OW 7462   1.728   4.115   5.105
 2337SOL    HW1 7463   1.800   4.178   5.104
 2337SOL    HW2 7464   1.757   4.044   5.047
 2338SOL     OW 7465   0.261   5.056   4.019
 2338SOL    HW1 7466   0.169   5.058   3.992
 2338SOL    HW2 7467   0.261   5.099   4.105
 2339SOL     OW 7468   0.120   4.745   5.445
 2339SOL    HW1 7469   0.050   4.703   5.495
 2339SOL    HW2 7470   0.201   4.711   5.483
 2340SOL     OW 7471   0.677   3.919   5.224
 2340SOL    HW1 7472   0.761   3.897   5.184
 2340SOL    HW2 7473   0.700   3.952   5.311
 2341SOL     OW 7474   0.089   4.056   3.760
 2341SOL    HW1 7475   0.002   4.022   3.742
 2341SOL    HW2 7476   0.103   4.124   3.694
 2342SOL     OW 7477   1.426   4.580   5.121
 2342SOL    HW1 7478   1.376   4.641   5.066
 2342SOL    HW2 7479   1.514   4.583   5.085
 2343SOL     OW 7480   0.065   3.862   3.981
 2343SOL    HW1 7481   0.060   3.949   3.941
 2343SOL    HW2 7482   0.146   3.825   3.947
 2344SOL     OW 7483   1.182   5.058   3.848
 2344SOL    HW1 7484   1.092   5.027   3.850
 2344SOL    HW2 7485   1.211   5.053   3.939
 2345SOL     OW 7486   0.621   4.555   5.162
 2345SOL    HW1 7487   0.679   4.629   5.145
 2345SOL    HW2 7488   0.679   4.479   5.168
 2346SOL     OW 7489   0.718   4.283   5.425
 2346SOL    HW1 7490   0.764   4.342   5.485
 2346SOL    HW2 7491   0.737   4.196   5.458
 2347SOL     OW 7492   1.477   4.915   5.351
 2347SOL    HW1 7493   1.464   4.931   5.445
 2347SOL    HW2 7494   1.570   4.933   5.337
 2348SOL     OW 7495   1.664   4.603   4.978
 2348SOL    HW1 7496   1.660   4.518   4.935
 2348SOL    HW2 7497   1.654   4.667   4.907
 2349SOL     OW 7498   1.217   4.043   4.181
 2349SOL    HW1 7499   1.278   3.970   4.175
 2349SOL    HW2 7500   1.245   4.093   4.257
 2350SOL     OW 7501   0.586   4.458   4.397
 2350SOL    HW1 7502   0.626   4.544   4.382
 2350SOL    HW2 7503   0.519   4.450   4.329
 2351SOL     OW 7504   1.756   4.087   5.377
 2351SOL    HW1 7505   1.743   4.103   5.284
 2351SOL    HW2 7506   1.683   4.031   5.403
 2352SOL     OW 7507   1.748   4.657   5.234
 2352SOL    HW1 7508   1.735   4.751   5.245
 2352SOL    HW2 7509   1.730   4.642   5.141
 2353SOL     OW 7510   0.844   5.093   3.746
 2353SOL    HW1 7511   0.831   5.092   3.841
 2353SOL    HW2 7512   0.853   5.185   3.724
 2354SOL     OW 7513   0.871   4.694   4.576
 2354SOL    HW1 7514   0.919   4.621   4.615
 2354SOL    HW2 7515   0.831   4.739   4.650
 2355SOL     OW 7516   1.079   4.715   3.815
 2355SOL    HW1 7517   1.056   4.765   3.737
 2355SOL    HW2 7518   1.151   4.659   3.787
 2356SOL     OW 7519   0.217   5.016   5.578
 2356SOL    HW1 7520   0.159   4.943   5.560
 2356SOL    HW2 7521   0.212   5.027   5.673
 2357SOL     OW 7522   0.091   4.912   4.373
 2357SOL    HW1 7523   0.118   4.898   4.464
 2357SOL    HW2 7524   0.160   4.968   4.336
 2358SOL     OW 7525   0.678   5.094   5.333
 2358SOL    HW1 7526   0.598   5.070   5.379
 2358SOL    HW2 7527   0.715   5.167   5.384
 2359SOL     OW 7528   1.811   3.904   4.960
 2359SOL    HW1 7529   1.814   3.809   4.971
 2359SOL    HW2 7530   1.823   3.918   4.866
 2360SOL     OW 7531   0.439   4.159   4.247
 2360SOL    HW1 7532   0.466   4.086   4.191
 2360SOL    HW2 7533   0.390   4.118   4.318
 2361SOL     OW 7534   1.706   5.227   4.840
 2361SOL    HW1 7535   1.632   5.209   4.782
 2361SOL    HW2 7536   1.712   5.149   4.896
 2362SOL     OW 7537   0.343   4.289   5.017
 2362SOL    HW1 7538   0.395   4.228   5.070
 2362SOL    HW2 7539   0.354   4.258   4.927
 2363SOL     OW 7540   1.429   3.953   4.840
 2363SOL    HW1 7541   1.448   3.869   4.882
 2363SOL    HW2 7542   1.379   4.002   4.906
 2364SOL     OW 7543   1.009   3.741   4.860
 2364SOL    HW1 7544   0.954   3.675   4.817
 2364SOL    HW2 7545   1.096   3.702   4.862
 2365SOL     OW 7546   0.811   5.044   4.011
 2365SOL    HW1 7547   0.760   4.966   4.035
 2365SOL    HW2 7548   0.865   5.062   4.087
 2366SOL     OW 7549   0.643   0.006   5.020
 2366SOL    HW1 7550   0.643   0.061   5.098
 2366SOL    HW2 7551   0.736   5.289   5.003
 2367SOL     OW 7552   1.357   3.776   3.896
 2367SOL    HW1 7553   1.390   3.707   3.838
 2367SOL    HW2 7554   1.268   3.748   3.917
 2368SOL     OW 7555   1.296   4.187   4.402
 2368SOL    HW1 7556   1.244   4.267   4.406
 2368SOL    HW2 7557   1.291   4.151   4.490
 2369SOL     OW 7558   1.585   3.919   4.607
 2369SOL    HW1 7559   1.529   3.944   4.680
 2369SOL    HW2 7560   1.584   3.996   4.549
 2370SOL     OW 7561   0.050   4.785   4.014
 2370SOL    HW1 7562   0.139   4.751   4.006
 2370SOL    HW2 7563   0.001   4.717   4.060
 2371SOL     OW 7564   0.231   4.349   5.705
 2371SOL    HW1 7565   0.164   4.308   5.759
 2371SOL    HW2 7566   0.209   4.323   5.615
 2372SOL     OW 7567   0.247   3.999   6.573
 2372SOL    HW1 7568   0.259   3.964   6.661
 2372SOL    HW2 7569   0.160   3.967   6.546
 2373SOL     OW 7570   5.295   4.126   6.244
 2373SOL    HW1 7571   5.202   4.147   6.243
 2373SOL    HW2 7572   5.300   4.038   6.205
 2374SOL     OW 7573   0.585   5.011   6.782
 2374SOL    HW1 7574   0.504   5.011   6.730
 2374SOL    HW2 7575   0.602   5.104   6.800
 2375SOL     OW 7576   1.560   5.234   6.276
 2375SOL    HW1 7577   1.548   5.229   6.371
 2375SOL    HW2 7578   1.476   5.268   6.243
 2376SOL     OW 7579   1.133   4.423   6.281
 2376SOL    HW1 7580   1.180   4.505   6.269
 2376SOL    HW2 7581   1.085   4.434   6.363
 2377SOL     OW 7582   1.776   4.323   5.812
 2377SOL    HW1 7583   1.750   4.318   5.720
 2377SOL    HW2 7584   1.736   4.245   5.852
 2378SOL     OW 7585   0.751   4.860   6.626
 2378SOL    HW1 7586   0.691   4.893   6.693
 2378SOL    HW2 7587   0.783   4.939   6.582
 2379SOL     OW 7588   0.874   4.487   7.406
 2379SOL    HW1 7589   0.864   4.560   7.467
 2379SOL    HW2 7590   0.898   4.529   7.323
 2380SOL     OW 7591   0.685   4.720   6.230
 2380SOL    HW1 7592   0.751   4.713   6.299
 2380SOL    HW2 7593   0.618   4.777   6.268
 2381SOL     OW 7594   0.708   4.868   7.404
 2381SOL    HW1 7595   0.757   4.946   7.427
 2381SOL    HW2 7596   0.628   4.901   7.363
 2382SOL     OW 7597   0.381   5.148   6.640
 2382SOL    HW1 7598   0.288   5.164   6.627
 2382SOL    HW2 7599   0.423   5.184   6.561
 2383SOL     OW 7600   1.454   5.224   6.936
 2383SOL    HW1 7601   1.510   5.295   6.966
 2383SOL    HW2 7602   1.386   5.216   7.003
 2384SOL     OW 7603   0.454   4.121   7.070
 2384SOL    HW1 7604   0.529   4.062   7.076
 2384SOL    HW2 7605   0.378   4.066   7.086
 2385SOL     OW 7606   1.606   4.166   6.330
 2385SOL    HW1 7607   1.534   4.185   6.270
 2385SOL    HW2 7608   1.610   4.243   6.388
 2386SOL     OW 7609   1.133   5.074   7.291
 2386SOL    HW1 7610   1.162   5.074   7.383
 2386SOL    HW2 7611   1.080   4.995   7.283
 2387SOL     OW 7612   0.206   5.153   6.130
 2387SOL    HW1 7613   0.257   5.226   6.164
 2387SOL    HW2 7614   0.120   5.162   6.171
 2388SOL     OW 7615   0.257   4.795   6.458
 2388SOL    HW1 7616   0.270   4.706   6.491
 2388SOL    HW2 7617   0.198   4.836   6.522
 2389SOL     OW 7618   0.575   4.708   5.727
 2389SOL    HW1 7619   0.625   4.752   5.658
 2389SOL    HW2 7620   0.614   4.739   5.808
 2390SOL     OW 7621   1.595   3.851   7.050
 2390SOL    HW1 7622   1.619   3.932   7.004
 2390SOL    HW2 7623   1.575   3.880   7.139
 2391SOL     OW 7624   0.128   4.350   6.165
 2391SOL    HW1 7625   0.088   4.271   6.201
 2391SOL    HW2 7626   0.101   4.420   6.225
 2392SOL     OW 7627   0.000   5.292   5.668
 2392SOL    HW1 7628   0.011   5.205   5.706
 2392SOL    HW2 7629   0.030   0.052   5.736
 2393SOL     OW 7630   1.690   4.642   6.231
 2393SOL    HW1 7631   1.770   4.597   6.208
 2393SOL    HW2 7632   1.667   4.693   6.153
 2394SOL     OW 7633   1.649   4.827   6.016
 2394SOL    HW1 7634   1.736   4.826   5.975
 2394SOL    HW2 7635   1.657   4.890   6.087
 2395SOL     OW 7636   0.138   4.470   7.170
 2395SOL    HW1 7637   0.232   4.485   7.166
 2395SOL    HW2 7638   0.100   4.558   7.180
 2396SOL     OW 7639   0.627   5.101   6.331
 2396SOL    HW1 7640   0.572   5.023   6.323
 2396SOL    HW2 7641   0.608   5.151   6.252
 2397SOL     OW 7642   1.287   4.950   7.011
 2397SOL    HW1 7643   1.318   4.883   6.950
 2397SOL    HW2 7644   1.348   4.946   7.085
 2398SOL     OW 7645   0.829   3.727   6.100
 2398SOL    HW1 7646   0.869   3.811   6.076
 2398SOL    HW2 7647   0.735   3.746   6.103
 2399SOL     OW 7648   0.166   4.660   6.872
 2399SOL    HW1 7649   0.255   4.627   6.861
 2399SOL    HW2 7650   0.134   4.674   6.783
 2400SOL     OW 7651   1.530   4.725   5.785
 2400SOL    HW1 7652   1.461   4.668   5.818
 2400SOL    HW2 7653   1.573   4.758   5.864
 2401SOL     OW 7654   0.351   3.978   7.416
 2401SOL    HW1 7655   0.393   4.061   7.437
 2401SOL    HW2 7656   0.259   3.990   7.442
 2402SOL     OW 7657   1.482   5.150   6.546
 2402SOL    HW1 7658   1.409   5.162   6.607
 2402SOL    HW2 7659   1.470   5.061   6.512
 2403SOL     OW 7660   0.594   4.441   5.859
 2403SOL    HW1 7661   0.599   4.524   5.811
 2403SOL    HW2 7662   0.528   4.456   5.927
 2404SOL     OW 7663   1.279   4.089   6.520
 2404SOL    HW1 7664   1.190   4.055   6.529
 2404SOL    HW2 7665   1.331   4.034   6.578
 2405SOL     OW 7666   0.790   4.342   7.034
 2405SOL    HW1 7667   0.764   4.315   7.122
 2405SOL    HW2 7668   0.756   4.272   6.977
 2406SOL     OW 7669   1.393   4.198   7.263
 2406SOL    HW1 7670   1.397   4.243   7.348
 2406SOL    HW2 7671   1.449   4.122   7.273
 2407SOL     OW 7672   0.953   4.610   7.172
 2407SOL    HW1 7673   1.007   4.541   7.133
 2407SOL    HW2 7674   0.903   4.645   7.098
 2408SOL     OW 7675   0.994   4.134   6.819
 2408SOL    HW1 7676   0.904   4.150   6.849
 2408SOL    HW2 7677   0.984   4.090   6.734
 2409SOL     OW 7678   1.054   4.423   6.010
 2409SOL    HW1 7679   1.072   4.416   6.104
 2409SOL    HW2 7680   0.970   4.377   5.998
 2410SOL     OW 7681   0.066   4.514   6.393
 2410SOL    HW1 7682   0.146   4.517   6.446
 2410SOL    HW2 7683   0.071   4.591   6.337
 2411SOL     OW 7684   0.899   4.075   5.781
 2411SOL    HW1 7685   0.939   4.138   5.722
 2411SOL    HW2 7686   0.908   3.991   5.736
 2412SOL     OW 7687   1.705   4.295   7.418
 2412SOL    HW1 7688   1.670   4.369   7.368
 2412SOL    HW2 7689   1.732   4.232   7.351
 2413SOL     OW 7690   1.381   4.862   6.121
 2413SOL    HW1 7691   1.464   4.850   6.074
 2413SOL    HW2 7692   1.332   4.924   6.067
 2414SOL     OW 7693   0.561   3.905   6.483
 2414SOL    HW1 7694   0.558   3.934   6.574
 2414SOL    HW2 7695   0.553   3.985   6.432
 2415SOL     OW 7696   1.018   5.160   6.066
 2415SOL    HW1 7697   0.949   5.226   6.068
 2415SOL    HW2 7698   1.031   5.134   6.157
 2416SOL     OW 7699   1.803   4.777   6.455
 2416SOL    HW1 7700   1.748   4.755   6.379
 2416SOL    HW2 7701   1.742   4.785   6.527
 2417SOL     OW 7702   1.254   5.242   7.117
 2417SOL    HW1 7703   1.217   5.174   7.173
 2417SOL    HW2 7704   1.179   5.274   7.065
 2418SOL     OW 7705   0.312   4.673   5.837
 2418SOL    HW1 7706   0.393   4.695   5.792
 2418SOL    HW2 7707   0.290   4.586   5.804
 2419SOL     OW 7708   1.481   4.474   6.308
 2419SOL    HW1 7709   1.478   4.433   6.395
 2419SOL    HW2 7710   1.560   4.528   6.310
 2420SOL     OW 7711   0.462   4.990   7.334
 2420SOL    HW1 7712   0.437   4.994   7.242
 2420SOL    HW2 7713   0.380   4.991   7.382
 2421SOL     OW 7714   1.050   0.169   5.784
 2421SOL    HW1 7715   1.096   0.104   5.838
 2421SOL    HW2 7716   1.069   0.143   5.694
 2422SOL     OW 7717   0.207   3.998   7.084
 2422SOL    HW1 7718   0.130   4.051   7.062
 2422SOL    HW2 7719   0.171   3.917   7.120
 2423SOL     OW 7720   1.619   5.106   5.698
 2423SOL    HW1 7721   1.636   5.166   5.626
 2423SOL    HW2 7722   1.554   5.045   5.665
 2424SOL     OW 7723   1.400   3.831   6.026
 2424SOL    HW1 7724   1.392   3.806   5.934
 2424SOL    HW2 7725   1.495   3.836   6.042
 2425SOL     OW 7726   0.387   4.417   6.063
 2425SOL    HW1 7727   0.416   4.327   6.073
 2425SOL    HW2 7728   0.293   4.415   6.084
 2426SOL     OW 7729   1.527   3.948   7.309
 2426SOL    HW1 7730   1.538   3.969   7.402
 2426SOL    HW2 7731   1.460   3.880   7.308
 2427SOL     OW 7732   0.644   3.842   5.688
 2427SOL    HW1 7733   0.705   3.769   5.705
 2427SOL    HW2 7734   0.591   3.812   5.614
 2428SOL     OW 7735   0.764   4.003   7.343
 2428SOL    HW1 7736   0.844   3.951   7.340
 2428SOL    HW2 7737   0.721   3.976   7.425
 2429SOL     OW 7738   1.338   4.313   7.019
 2429SOL    HW1 7739   1.369   4.282   7.103
 2429SOL    HW2 7740   1.375   4.401   7.010
 2430SOL     OW 7741   0.820   5.111   6.528
 2430SOL    HW1 7742   0.899   5.103   6.474
 2430SOL    HW2 7743   0.749   5.121   6.465
 2431SOL     OW 7744   0.930   4.234   6.485
 2431SOL    HW1 7745   0.905   4.225   6.393
 2431SOL    HW2 7746   0.958   4.146   6.511
 2432SOL     OW 7747   0.564   3.785   6.077
 2432SOL    HW1 7748   0.489   3.786   6.137
 2432SOL    HW2 7749   0.552   3.863   6.023
 2433SOL     OW 7750   1.429   4.927   5.621
 2433SOL    HW1 7751   1.457   4.851   5.673
 2433SOL    HW2 7752   1.341   4.946   5.652
 2434SOL     OW 7753   0.306   3.769   5.761
 2434SOL    HW1 7754   0.366   3.836   5.728
 2434SOL    HW2 7755   0.363   3.708   5.808
 2435SOL     OW 7756   0.944   3.974   6.041
 2435SOL    HW1 7757   0.919   4.013   5.956
 2435SOL    HW2 7758   1.038   3.990   6.047
 2436SOL     OW 7759   1.080   4.408   7.042
 2436SOL    HW1 7760   1.015   4.338   7.047
 2436SOL    HW2 7761   1.164   4.362   7.037
 2437SOL     OW 7762   1.266   5.266   6.360
 2437SOL    HW1 7763   1.210   0.042   6.344
 2437SOL    HW2 7764   1.314   5.289   6.440
 2438SOL     OW 7765   0.468   4.876   6.306
 2438SOL    HW1 7766   0.400   4.853   6.369
 2438SOL    HW2 7767   0.427   4.860   6.220
 2439SOL     OW 7768   1.024   4.259   5.613
 2439SOL    HW1 7769   0.980   4.342   5.593
 2439SOL    HW2 7770   1.089   4.281   5.679
 2440SOL     OW 7771   0.094   4.261   6.988
 2440SOL    HW1 7772   0.181   4.271   6.949
 2440SOL    HW2 7773   0.083   4.339   7.042
 2441SOL     OW 7774   0.561   3.953   6.757
 2441SOL    HW1 7775   0.598   3.875   6.799
 2441SOL    HW2 7776   0.469   3.952   6.782
 2442SOL     OW 7777   0.867   4.182   6.224
 2442SOL    HW1 7778   0.823   4.237   6.160
 2442SOL    HW2 7779   0.890   4.102   6.175
 2443SOL     OW 7780   1.018   3.778   6.333
 2443SOL    HW1 7781   0.959   3.771   6.258
 2443SOL    HW2 7782   0.995   3.704   6.389
 2444SOL     OW 7783   1.443   4.891   6.445
 2444SOL    HW1 7784   1.374   4.825   6.443
 2444SOL    HW2 7785   1.470   4.901   6.354
 2445SOL     OW 7786   1.466   4.333   6.553
 2445SOL    HW1 7787   1.409   4.256   6.557
 2445SOL    HW2 7788   1.523   4.325   6.630
 2446SOL     OW 7789   1.840   4.534   5.971
 2446SOL    HW1 7790   1.898   4.485   6.029
 2446SOL    HW2 7791   1.815   4.471   5.903
 2447SOL     OW 7792   0.476   5.149   5.727
 2447SOL    HW1 7793   0.422   5.097   5.786
 2447SOL    HW2 7794   0.494   5.090   5.653
 2448SOL     OW 7795   1.673   4.988   6.228
 2448SOL    HW1 7796   1.767   4.993   6.247
 2448SOL    HW2 7797   1.641   5.076   6.244
 2449SOL     OW 7798   1.394   4.297   5.657
 2449SOL    HW1 7799   1.332   4.275   5.727
 2449SOL    HW2 7800   1.478   4.266   5.689
 2450SOL     OW 7801   0.525   3.986   5.896
 2450SOL    HW1 7802   0.576   3.942   5.827
 2450SOL    HW2 7803   0.499   4.069   5.857
 2451SOL     OW 7804   1.747   4.960   7.149
 2451SOL    HW1 7805   1.832   4.917   7.151
 2451SOL    HW2 7806   1.767   5.053   7.159
 2452SOL     OW 7807   1.063   5.072   6.913
 2452SOL    HW1 7808   0.983   5.047   6.958
 2452SOL    HW2 7809   1.133   5.034   6.966
 2453SOL     OW 7810   1.132   4.929   6.692
 2453SOL    HW1 7811   1.084   4.971   6.764
 2453SOL    HW2 7812   1.078   4.947   6.614
 2454SOL     OW 7813   1.625   4.820   6.661
 2454SOL    HW1 7814   1.619   4.882   6.733
 2454SOL    HW2 7815   1.551   4.841   6.605
 2455SOL     OW 7816   0.918   3.817   6.978
 2455SOL    HW1 7817   0.941   3.799   6.887
 2455SOL    HW2 7818   0.998   3.856   7.015
 2456SOL     OW 7819   0.985   4.838   7.316
 2456SOL    HW1 7820   0.893   4.855   7.333
 2456SOL    HW2 7821   0.985   4.761   7.258
 2457SOL     OW 7822   0.706   4.786   5.957
 2457SOL    HW1 7823   0.692   4.766   6.049
 2457SOL    HW2 7824   0.783   4.733   5.932
 2458SOL     OW 7825   0.420   4.549   6.841
 2458SOL    HW1 7826   0.489   4.556   6.907
 2458SOL    HW2 7827   0.388   4.459   6.850
 2459SOL     OW 7828   1.263   4.098   6.866
 2459SOL    HW1 7829   1.295   4.176   6.912
 2459SOL    HW2 7830   1.172   4.119   6.845
 2460SOL     OW 7831   0.110   5.286   6.903
 2460SOL    HW1 7832   0.050   0.035   6.959
 2460SOL    HW2 7833   0.188   5.273   6.957
 2461SOL     OW 7834   0.347   4.833   6.063
 2461SOL    HW1 7835   0.335   4.912   6.010
 2461SOL    HW2 7836   0.342   4.761   6.001
 2462SOL     OW 7837   0.549   4.254   6.444
 2462SOL    HW1 7838   0.563   4.313   6.370
 2462SOL    HW2 7839   0.616   4.280   6.508
 2463SOL     OW 7840   1.261   5.082   5.972
 2463SOL    HW1 7841   1.319   5.148   6.012
 2463SOL    HW2 7842   1.174   5.105   6.004
 2464SOL     OW 7843   1.275   5.184   6.727
 2464SOL    HW1 7844   1.333   5.200   6.802
 2464SOL    HW2 7845   1.232   5.101   6.746
 2465SOL     OW 7846   1.578   4.343   6.070
 2465SOL    HW1 7847   1.528   4.391   6.137
 2465SOL    HW2 7848   1.622   4.411   6.020
 2466SOL     OW 7849   0.383   5.226   6.901
 2466SOL    HW1 7850   0.372   5.191   6.812
 2466SOL    HW2 7851   0.474   5.256   6.903
 2467SOL     OW 7852   0.419   4.465   7.188
 2467SOL    HW1 7853   0.482   4.509   7.132
 2467SOL    HW2 7854   0.455   4.377   7.200
 2468SOL     OW 7855   1.609   4.505   7.274
 2468SOL    HW1 7856   1.523   4.546   7.267
 2468SOL    HW2 7857   1.661   4.547   7.205
 2469SOL     OW 7858   0.996   3.857   7.339
 2469SOL    HW1 7859   1.055   3.930   7.317
 2469SOL    HW2 7860   1.045   3.779   7.314
 2470SOL     OW 7861   0.498   3.760   7.337
 2470SOL    HW1 7862   0.451   3.709   7.271
 2470SOL    HW2 7863   0.444   3.838   7.350
 2471SOL     OW 7864   0.586   4.597   6.620
 2471SOL    HW1 7865   0.619   4.687   6.619
 2471SOL    HW2 7866   0.529   4.593   6.696
 2472SOL     OW 7867   1.347   4.582   6.605
 2472SOL    HW1 7868   1.261   4.565   6.567
 2472SOL    HW2 7869   1.393   4.498   6.596
 2473SOL     OW 7870   1.200   4.251   5.848
 2473SOL    HW1 7871   1.208   4.173   5.903
 2473SOL    HW2 7872   1.157   4.316   5.905
 2474SOL     OW 7873   0.301   3.925   6.832
 2474SOL    HW1 7874   0.269   3.947   6.920
 2474SOL    HW2 7875   0.290   3.831   6.825
 2475SOL     OW 7876   0.039   5.019   6.858
 2475SOL    HW1 7877   0.070   4.973   6.936
 2475SOL    HW2 7878   0.042   5.111   6.882
 2476SOL     OW 7879   0.721   4.352   6.639
 2476SOL    HW1 7880   0.797   4.340   6.583
 2476SOL    HW2 7881   0.692   4.442   6.621
 2477SOL     OW 7882   1.739   4.686   7.443
 2477SOL    HW1 7883   1.695   4.617   7.393
 2477SOL    HW2 7884   1.681   4.703   7.517
 2478SOL     OW 7885   0.328   3.786   6.218
 2478SOL    HW1 7886   0.308   3.876   6.242
 2478SOL    HW2 7887   0.336   3.739   6.301
 2479SOL     OW 7888   1.623   4.103   5.946
 2479SOL    HW1 7889   1.650   4.037   6.010
 2479SOL    HW2 7890   1.598   4.179   5.999
 2480SOL     OW 7891   1.029   4.482   6.544
 2480SOL    HW1 7892   1.020   4.499   6.638
 2480SOL    HW2 7893   1.003   4.391   6.533
 2481SOL     OW 7894   1.853   5.212   7.158
 2481SOL    HW1 7895   1.833   5.295   7.116
 2481SOL    HW2 7896   1.925   5.232   7.218
 2482SOL     OW 7897   0.356   4.640   7.392
 2482SOL    HW1 7898   0.436   4.660   7.440
 2482SOL    HW2 7899   0.383   4.575   7.326
 2483SOL     OW 7900   1.525   3.996   5.712
 2483SOL    HW1 7901   1.462   3.930   5.740
 2483SOL    HW2 7902   1.561   4.033   5.793
 2484SOL     OW 7903   1.287   4.548   5.614
 2484SOL    HW1 7904   1.329   4.463   5.619
 2484SOL    HW2 7905   1.319   4.587   5.532
 2485SOL     OW 7906   1.055   5.089   6.394
 2485SOL    HW1 7907   1.063   4.999   6.361
 2485SOL    HW2 7908   1.143   5.125   6.388
 2486SOL     OW 7909   0.313   4.530   6.532
 2486SOL    HW1 7910   0.407   4.547   6.531
 2486SOL    HW2 7911   0.305   4.441   6.565
 2487SOL     OW 7912   0.332   4.252   6.603
 2487SOL    HW1 7913   0.297   4.164   6.590
 2487SOL    HW2 7914   0.407   4.257   6.544
 2488SOL     OW 7915   1.135   4.096   7.271
 2488SOL    HW1 7916   1.086   4.151   7.333
 2488SOL    HW2 7917   1.222   4.137   7.266
 2489SOL     OW 7918   1.161   3.921   7.057
 2489SOL    HW1 7919   1.149   3.984   7.129
 2489SOL    HW2 7920   1.203   3.972   6.988
 2490SOL     OW 7921   0.004   5.038   5.789
 2490SOL    HW1 7922   5.234   5.019   5.727
 2490SOL    HW2 7923   0.017   4.956   5.837
 2491SOL     OW 7924   0.972   4.511   6.810
 2491SOL    HW1 7925   1.032   4.492   6.882
 2491SOL    HW2 7926   0.890   4.469   6.835
 2492SOL     OW 7927   0.029   4.294   6.707
 2492SOL    HW1 7928   0.115   4.274   6.671
 2492SOL    HW2 7929   0.035   4.271   6.799
 2493SOL     OW 7930   0.168   4.236   7.305
 2493SOL    HW1 7931   0.226   4.190   7.245
 2493SOL    HW2 7932   0.148   4.319   7.260
 2494SOL     OW 7933   1.380   4.656   7.243
 2494SOL    HW1 7934   1.401   4.750   7.238
 2494SOL    HW2 7935   1.375   4.628   7.151
 2495SOL     OW 7936   0.818   4.294   5.953
 2495SOL    HW1 7937   0.824   4.220   5.892
 2495SOL    HW2 7938   0.743   4.345   5.921
 2496SOL     OW 7939   1.640   4.325   6.765
 2496SOL    HW1 7940   1.630   4.266   6.841
 2496SOL    HW2 7941   1.728   4.307   6.732
 2497SOL     OW 7942   0.203   5.273   7.320
 2497SOL    HW1 7943   0.139   0.004   7.384
 2497SOL    HW2 7944   0.215   5.180   7.341
 2498SOL     OW 7945   0.714   4.169   6.839
 2498SOL    HW1 7946   0.657   4.096   6.815
 2498SOL    HW2 7947   0.705   4.232   6.768
 2499SOL     OW 7948   0.464   4.216   5.763
 2499SOL    HW1 7949   0.524   4.285   5.791
 2499SOL    HW2 7950   0.380   4.261   5.749
 2500SOL     OW 7951   0.147   4.861   7.058
 2500SOL    HW1 7952   0.144   4.815   7.142
 2500SOL    HW2 7953   0.154   4.791   6.993
 2501SOL     OW 7954   1.322   4.765   6.804
 2501SOL    HW1 7955   1.343   4.702   6.735
 2501SOL    HW2 7956   1.255   4.821   6.767
 2502SOL     OW 7957   1.315   4.582   5.889
 2502SOL    HW1 7958   1.242   4.549   5.941
 2502SOL    HW2 7959   1.289   4.567   5.798
 2503SOL     OW 7960   0.071   4.899   6.618
 2503SOL    HW1 7961   0.060   4.946   6.701
 2503SOL    HW2 7962   5.287   4.908   6.574
 2504SOL     OW 7963   0.753   0.028   7.299
 2504SOL    HW1 7964   0.661   0.052   7.305
 2504SOL    HW2 7965   0.780   0.059   7.212
 2505SOL     OW 7966   1.722   3.880   6.090
 2505SOL    HW1 7967   1.793   3.863   6.028
 2505SOL    HW2 7968   1.706   3.794   6.131
 2506SOL     OW 7969   1.278   4.653   6.258
 2506SOL    HW1 7970   1.351   4.592   6.269
 2506SOL    HW2 7971   1.313   4.723   6.203
 2507SOL     OW 7972   0.808   4.992   6.987
 2507SOL    HW1 7973   0.774   5.026   7.070
 2507SOL    HW2 7974   0.733   4.995   6.928
 2508SOL     OW 7975   1.843   3.894   6.552
 2508SOL    HW1 7976   1.872   3.806   6.527
 2508SOL    HW2 7977   1.756   3.903   6.512
 2509SOL     OW 7978   0.275   4.040   6.301
 2509SOL    HW1 7979   0.188   4.078   6.285
 2509SOL    HW2 7980   0.278   4.030   6.396
 2510SOL     OW 7981   0.826   4.724   6.958
 2510SOL    HW1 7982   0.874   4.710   6.876
 2510SOL    HW2 7983   0.827   4.819   6.971
 2511SOL     OW 7984   0.916   4.636   5.878
 2511SOL    HW1 7985   0.976   4.670   5.811
 2511SOL    HW2 7986   0.966   4.568   5.923
 2512SOL     OW 7987   0.365   5.027   7.091
 2512SOL    HW1 7988   0.370   5.094   7.022
 2512SOL    HW2 7989   0.290   4.973   7.066
 2513SOL     OW 7990   1.612   5.005   6.867
 2513SOL    HW1 7991   1.665   4.992   6.946
 2513SOL    HW2 7992   1.549   5.072   6.892
 2514SOL     OW 7993   1.065   4.836   6.305
 2514SOL    HW1 7994   0.991   4.785   6.337
 2514SOL    HW2 7995   1.129   4.771   6.277
 2515SOL     OW 7996   1.024   3.966   6.552
 2515SOL    HW1 7997   1.021   3.920   6.469
 2515SOL    HW2 7998   1.019   3.897   6.618
 2516SOL     OW 7999   1.728   4.116   6.967
 2516SOL    HW1 8000   1.800   4.179   6.967
 2516SOL    HW2 8001   1.757   4.045   6.909
 2517SOL     OW 8002   0.261   5.056   5.881
 2517SOL    HW1 8003   0.169   5.058   5.854
 2517SOL    HW2 8004   0.261   5.099   5.967
 2518SOL     OW 8005   0.121   4.747   7.308
 2518SOL    HW1 8006   0.050   4.703   7.356
 2518SOL    HW2 8007   0.201   4.711   7.346
 2519SOL     OW 8008   0.676   3.919   7.086
 2519SOL    HW1 8009   0.760   3.897   7.046
 2519SOL    HW2 8010   0.699   3.951   7.174
 2520SOL     OW 8011   0.089   4.057   5.623
 2520SOL    HW1 8012   0.002   4.022   5.603
 2520SOL    HW2 8013   0.103   4.124   5.556
 2521SOL     OW 8014   1.426   4.580   6.983
 2521SOL    HW1 8015   1.376   4.641   6.928
 2521SOL    HW2 8016   1.514   4.583   6.947
 2522SOL     OW 8017   0.065   3.862   5.842
 2522SOL    HW1 8018   0.060   3.949   5.803
 2522SOL    HW2 8019   0.146   3.825   5.809
 2523SOL     OW 8020   1.182   5.058   5.710
 2523SOL    HW1 8021   1.092   5.027   5.712
 2523SOL    HW2 8022   1.211   5.053   5.801
 2524SOL     OW 8023   0.621   4.555   7.024
 2524SOL    HW1 8024   0.679   4.629   7.007
 2524SOL    HW2 8025   0.679   4.480   7.030
 2525SOL     OW 8026   0.717   4.282   7.287
 2525SOL    HW1 8027   0.762   4.341   7.347
 2525SOL    HW2 8028   0.737   4.195   7.320
 2526SOL     OW 8029   1.476   4.915   7.215
 2526SOL    HW1 8030   1.464   4.931   7.309
 2526SOL    HW2 8031   1.569   4.933   7.200
 2527SOL     OW 8032   1.664   4.603   6.841
 2527SOL    HW1 8033   1.660   4.518   6.797
 2527SOL    HW2 8034   1.654   4.667   6.770
 2528SOL     OW 8035   1.217   4.044   6.043
 2528SOL    HW1 8036   1.278   3.970   6.037
 2528SOL    HW2 8037   1.246   4.093   6.119
 2529SOL     OW 8038   0.586   4.458   6.259
 2529SOL    HW1 8039   0.626   4.544   6.244
 2529SOL    HW2 8040   0.519   4.450   6.191
 2530SOL     OW 8041   1.755   4.088   7.241
 2530SOL    HW1 8042   1.743   4.104   7.147
 2530SOL    HW2 8043   1.682   4.031   7.265
 2531SOL     OW 8044   1.749   4.657   7.096
 2531SOL    HW1 8045   1.735   4.751   7.108
 2531SOL    HW2 8046   1.730   4.641   7.003
 2532SOL     OW 8047   0.844   5.093   5.608
 2532SOL    HW1 8048   0.831   5.092   5.703
 2532SOL    HW2 8049   0.852   5.185   5.586
 2533SOL     OW 8050   0.871   4.694   6.438
 2533SOL    HW1 8051   0.919   4.621   6.477
 2533SOL    HW2 8052   0.831   4.739   6.512
 2534SOL     OW 8053   1.079   4.714   5.677
 2534SOL    HW1 8054   1.056   4.765   5.599
 2534SOL    HW2 8055   1.151   4.659   5.649
 2535SOL     OW 8056   0.215   5.014   7.441
 2535SOL    HW1 8057   0.159   4.940   7.418
 2535SOL    HW2 8058   0.201   5.027   7.534
 2536SOL     OW 8059   0.091   4.912   6.235
 2536SOL    HW1 8060   0.118   4.898   6.326
 2536SOL    HW2 8061   0.160   4.968   6.198
 2537SOL     OW 8062   0.678   5.094   7.195
 2537SOL    HW1 8063   0.597   5.070   7.241
 2537SOL    HW2 8064   0.713   5.167   7.245
 2538SOL     OW 8065   1.811   3.906   6.822
 2538SOL    HW1 8066   1.818   3.811   6.835
 2538SOL    HW2 8067   1.822   3.918   6.728
 2539SOL     OW 8068   0.439   4.159   6.109
 2539SOL    HW1 8069   0.467   4.086   6.053
 2539SOL    HW2 8070   0.390   4.118   6.180
 2540SOL     OW 8071   1.706   5.227   6.703
 2540SOL    HW1 8072   1.632   5.210   6.644
 2540SOL    HW2 8073   1.712   5.149   6.758
 2541SOL     OW 8074   0.342   4.289   6.879
 2541SOL    HW1 8075   0.395   4.228   6.932
 2541SOL    HW2 8076   0.354   4.258   6.790
 2542SOL     OW 8077   1.429   3.953   6.703
 2542SOL    HW1 8078   1.449   3.870   6.745
 2542SOL    HW2 8079   1.379   4.002   6.768
 2543SOL     OW 8080   1.009   3.741   6.721
 2543SOL    HW1 8081   0.954   3.675   6.679
 2543SOL    HW2 8082   1.096   3.702   6.723
 2544SOL     OW 8083   0.811   5.044   5.873
 2544SOL    HW1 8084   0.760   4.966   5.897
 2544SOL    HW2 8085   0.866   5.062   5.949
 2545SOL     OW 8086   0.643   0.006   6.882
 2545SOL    HW1 8087   0.644   0.061   6.961
 2545SOL    HW2 8088   0.736   5.290   6.864
 2546SOL     OW 8089   1.357   3.776   5.758
 2546SOL    HW1 8090   1.390   3.707   5.701
 2546SOL    HW2 8091   1.268   3.749   5.779
 2547SOL     OW 8092   1.296   4.187   6.264
 2547SOL    HW1 8093   1.244   4.267   6.268
 2547SOL    HW2 8094   1.291   4.151   6.352
 2548SOL     OW 8095   1.585   3.919   6.469
 2548SOL    HW1 8096   1.529   3.944   6.542
 2548SOL    HW2 8097   1.584   3.996   6.411
 2549SOL     OW 8098   0.050   4.785   5.876
 2549SOL    HW1 8099   0.139   4.751   5.868
 2549SOL    HW2 8100   0.001   4.717   5.922
 2550SOL     OW 8101   0.225   4.348   7.570
 2550SOL    HW1 8102   0.158   4.299   7.619
 2550SOL    HW2 8103   0.210   4.325   7.479
 2551SOL     OW 8104   1.772   4.317   7.677
 2551SOL    HW1 8105   1.749   4.314   7.585
 2551SOL    HW2 8106   1.732   4.238   7.715
 2552SOL     OW 8107   0.281   0.133   7.962
 2552SOL    HW1 8108   0.232   0.203   8.005
 2552SOL    HW2 8109   0.283   0.158   7.870
 2553SOL     OW 8110   0.226   5.165   7.991
 2553SOL    HW1 8111   0.248   5.258   7.991
 2553SOL    HW2 8112   0.152   5.157   8.051
 2554SOL     OW 8113   0.575   4.710   7.587
 2554SOL    HW1 8114   0.623   4.754   7.517
 2554SOL    HW2 8115   0.617   4.742   7.667
 2555SOL     OW 8116   5.300   5.293   7.521
 2555SOL    HW1 8117   0.010   5.207   7.561
 2555SOL    HW2 8118   0.022   0.054   7.591
 2556SOL     OW 8119   1.681   4.582   8.026
 2556SOL    HW1 8120   1.756   4.593   0.004
 2556SOL    HW2 8121   1.666   4.668   7.988
 2557SOL     OW 8122   1.662   4.822   7.880
 2557SOL    HW1 8123   1.751   4.839   7.851
 2557SOL    HW2 8124   1.639   4.897   7.935
 2558SOL     OW 8125   0.797   3.723   7.937
 2558SOL    HW1 8126   0.848   3.802   7.917
 2558SOL    HW2 8127   0.707   3.754   7.946
 2559SOL     OW 8128   1.534   4.727   7.652
 2559SOL    HW1 8129   1.466   4.669   7.685
 2559SOL    HW2 8130   1.580   4.758   7.730
 2560SOL     OW 8131   0.587   4.446   7.709
 2560SOL    HW1 8132   0.590   4.530   7.664
 2560SOL    HW2 8133   0.541   4.464   7.791
 2561SOL     OW 8134   0.053   4.545   0.188
 2561SOL    HW1 8135   0.115   4.474   0.170
 2561SOL    HW2 8136   0.041   4.589   0.104
 2562SOL     OW 8137   0.894   4.078   7.643
 2562SOL    HW1 8138   0.930   4.136   7.576
 2562SOL    HW2 8139   0.919   3.990   7.615
 2563SOL     OW 8140   0.311   4.667   7.693
 2563SOL    HW1 8141   0.392   4.694   7.650
 2563SOL    HW2 8142   0.291   4.581   7.655
 2564SOL     OW 8143   1.078   0.189   7.638
 2564SOL    HW1 8144   1.059   0.116   7.698
 2564SOL    HW2 8145   1.073   0.150   7.551
 2565SOL     OW 8146   1.628   5.101   7.554
 2565SOL    HW1 8147   1.623   5.173   7.491
 2565SOL    HW2 8148   1.558   5.041   7.527
 2566SOL     OW 8149   1.421   3.862   7.864
 2566SOL    HW1 8150   1.411   3.825   7.776
 2566SOL    HW2 8151   1.516   3.863   7.879
 2567SOL     OW 8152   0.375   4.425   7.925
 2567SOL    HW1 8153   0.388   4.330   7.935
 2567SOL    HW2 8154   0.280   4.434   7.917
 2568SOL     OW 8155   0.639   3.840   7.556
 2568SOL    HW1 8156   0.703   3.771   7.573
 2568SOL    HW2 8157   0.590   3.810   7.479
 2569SOL     OW 8158   0.523   3.807   7.963
 2569SOL    HW1 8159   0.433   3.812   7.997
 2569SOL    HW2 8160   0.526   3.874   7.895
 2570SOL     OW 8161   1.428   4.928   7.487
 2570SOL    HW1 8162   1.457   4.853   7.539
 2570SOL    HW2 8163   1.340   4.947   7.518
 2571SOL     OW 8164   0.307   3.766   7.619
 2571SOL    HW1 8165   0.366   3.830   7.580
 2571SOL    HW2 8166   0.364   3.706   7.667
 2572SOL     OW 8167   0.944   3.950   7.903
 2572SOL    HW1 8168   0.905   4.012   7.842
 2572SOL    HW2 8169   1.035   3.978   7.912
 2573SOL     OW 8170   0.448   4.884   0.081
 2573SOL    HW1 8171   0.378   4.907   0.141
 2573SOL    HW2 8172   0.405   4.869   8.077
 2574SOL     OW 8173   1.024   4.258   7.471
 2574SOL    HW1 8174   0.978   4.340   7.455
 2574SOL    HW2 8175   1.082   4.277   7.544
 2575SOL     OW 8176   1.877   4.534   7.805
 2575SOL    HW1 8177   1.842   4.524   7.894
 2575SOL    HW2 8178   1.840   4.460   7.757
 2576SOL     OW 8179   0.469   5.151   7.594
 2576SOL    HW1 8180   0.415   5.097   7.652
 2576SOL    HW2 8181   0.488   5.094   7.520
 2577SOL     OW 8182   1.394   4.297   7.518
 2577SOL    HW1 8183   1.331   4.274   7.587
 2577SOL    HW2 8184   1.477   4.263   7.550
 2578SOL     OW 8185   0.526   3.990   7.765
 2578SOL    HW1 8186   0.575   3.943   7.697
 2578SOL    HW2 8187   0.500   4.072   7.723
 2579SOL     OW 8188   0.713   4.789   7.813
 2579SOL    HW1 8189   0.686   4.768   7.903
 2579SOL    HW2 8190   0.790   4.735   7.798
 2580SOL     OW 8191   0.338   4.825   7.920
 2580SOL    HW1 8192   0.325   4.908   7.873
 2580SOL    HW2 8193   0.338   4.758   7.851
 2581SOL     OW 8194   1.225   5.118   7.835
 2581SOL    HW1 8195   1.313   5.119   7.872
 2581SOL    HW2 8196   1.174   5.065   7.896
 2582SOL     OW 8197   1.587   4.346   7.918
 2582SOL    HW1 8198   1.585   4.406   7.992
 2582SOL    HW2 8199   1.618   4.399   7.844
 2583SOL     OW 8200   1.199   4.248   7.710
 2583SOL    HW1 8201   1.200   4.166   7.759
 2583SOL    HW2 8202   1.176   4.314   7.774
 2584SOL     OW 8203   1.623   4.105   7.806
 2584SOL    HW1 8204   1.646   4.038   7.870
 2584SOL    HW2 8205   1.598   4.181   7.858
 2585SOL     OW 8206   1.525   4.000   7.572
 2585SOL    HW1 8207   1.462   3.933   7.598
 2585SOL    HW2 8208   1.559   4.035   7.654
 2586SOL     OW 8209   1.290   4.550   7.478
 2586SOL    HW1 8210   1.331   4.463   7.480
 2586SOL    HW2 8211   1.321   4.588   7.396
 2587SOL     OW 8212   0.007   5.043   7.649
 2587SOL    HW1 8213   5.234   5.025   7.589
 2587SOL    HW2 8214   0.021   4.961   7.694
 2588SOL     OW 8215   0.852   4.347   7.745
 2588SOL    HW1 8216   0.851   4.253   7.729
 2588SOL    HW2 8217   0.760   4.371   7.752
 2589SOL     OW 8218   0.458   4.217   7.632
 2589SOL    HW1 8219   0.520   4.287   7.653
 2589SOL    HW2 8220   0.375   4.262   7.616
 2590SOL     OW 8221   1.314   4.585   7.750
 2590SOL    HW1 8222   1.228   4.592   7.790
 2590SOL    HW2 8223   1.296   4.568   7.657
 2591SOL     OW 8224   1.713   3.877   7.938
 2591SOL    HW1 8225   1.788   3.872   7.878
 2591SOL    HW2 8226   1.721   3.798   7.992
 2592SOL     OW 8227   0.922   4.626   7.758
 2592SOL    HW1 8228   0.976   4.649   7.682
 2592SOL    HW2 8229   0.912   4.531   7.752
 2593SOL     OW 8230   0.262   5.054   7.752
 2593SOL    HW1 8231   0.171   5.063   7.724
 2593SOL    HW2 8232   0.265   5.097   7.838
 2594SOL     OW 8233   0.090   4.049   7.486
 2594SOL    HW1 8234   0.000   4.019   7.470
 2594SOL    HW2 8235   0.103   4.119   7.422
 2595SOL     OW 8236   0.087   3.870   7.744
 2595SOL    HW1 8237   0.075   3.952   7.695
 2595SOL    HW2 8238   0.156   3.824   7.696
 2596SOL     OW 8239   1.178   5.053   7.569
 2596SOL    HW1 8240   1.086   5.027   7.566
 2596SOL    HW2 8241   1.194   5.073   7.661
 2597SOL     OW 8242   1.213   4.042   7.904
 2597SOL    HW1 8243   1.288   3.984   7.892
 2597SOL    HW2 8244   1.231   4.089   7.985
 2598SOL     OW 8245   0.628   4.484   8.027
 2598SOL    HW1 8246   0.629   4.544   0.022
 2598SOL    HW2 8247   0.536   4.465   8.012
 2599SOL     OW 8248   0.849   5.091   7.469
 2599SOL    HW1 8249   0.835   5.092   7.564
 2599SOL    HW2 8250   0.850   5.183   7.444
 2600SOL     OW 8251   1.068   4.697   7.540
 2600SOL    HW1 8252   1.049   4.756   7.467
 2600SOL    HW2 8253   1.146   4.648   7.512
 2601SOL     OW 8254   0.391   4.161   7.984
 2601SOL    HW1 8255   0.431   4.096   7.926
 2601SOL    HW2 8256   0.439   4.153   8.066
 2602SOL     OW 8257   0.811   5.055   7.735
 2602SOL    HW1 8258   0.771   4.973   7.762
 2602SOL    HW2 8259   0.809   5.110   7.814
 2603SOL     OW 8260   1.359   3.774   7.612
 2603SOL    HW1 8261   1.393   3.701   7.561
 2603SOL    HW2 8262   1.271   3.747   7.637
 2604SOL     OW 8263   0.054   4.788   7.725
 2604SOL    HW1 8264   0.141   4.749   7.717
 2604SOL    HW2 8265   0.006   4.728   7.782
 2605SOL     OW 8266   2.067   0.620   0.126
 2605SOL    HW1 8267   1.986   0.589   0.166
 2605SOL    HW2 8268   2.090   0.552   0.063
 2606SOL     OW 8269   2.076   0.288   0.995
 2606SOL    HW1 8270   2.105   0.250   1.078
 2606SOL    HW2 8271   1.995   0.240   0.974
 2607SOL     OW 8272   1.859   0.393   0.637
 2607SOL    HW1 8273   1.776   0.415   0.678
 2607SOL    HW2 8274   1.841   0.315   0.585
 2608SOL     OW 8275   2.430   1.297   1.183
 2608SOL    HW1 8276   2.344   1.303   1.142
 2608SOL    HW2 8277   2.447   1.386   1.215
 2609SOL     OW 8278   3.433   1.515   0.710
 2609SOL    HW1 8279   3.390   1.491   0.792
 2609SOL    HW2 8280   3.363   1.517   0.645
 2610SOL     OW 8281   2.998   0.698   0.698
 2610SOL    HW1 8282   3.044   0.780   0.684
 2610SOL    HW2 8283   2.948   0.710   0.779
 2611SOL     OW 8284   3.638   0.596   0.227
 2611SOL    HW1 8285   3.586   0.608   0.148
 2611SOL    HW2 8286   3.597   0.522   0.272
 2612SOL     OW 8287   2.607   1.137   1.047
 2612SOL    HW1 8288   2.541   1.175   1.105
 2612SOL    HW2 8289   2.647   1.213   1.003
 2613SOL     OW 8290   2.736   0.768   1.825
 2613SOL    HW1 8291   2.726   0.838   1.889
 2613SOL    HW2 8292   2.759   0.813   1.744
 2614SOL     OW 8293   2.545   0.995   0.649
 2614SOL    HW1 8294   2.612   0.988   0.717
 2614SOL    HW2 8295   2.478   1.051   0.687
 2615SOL     OW 8296   2.576   1.149   1.819
 2615SOL    HW1 8297   2.623   1.227   1.850
 2615SOL    HW2 8298   2.496   1.185   1.780
 2616SOL     OW 8299   2.193   1.418   1.067
 2616SOL    HW1 8300   2.119   1.378   1.021
 2616SOL    HW2 8301   2.238   1.469   1.000
 2617SOL     OW 8302   3.321   1.502   1.361
 2617SOL    HW1 8303   3.375   1.581   1.371
 2617SOL    HW2 8304   3.253   1.512   1.428
 2618SOL     OW 8305   2.310   0.394   1.474
 2618SOL    HW1 8306   2.384   0.335   1.480
 2618SOL    HW2 8307   2.234   0.340   1.496
 2619SOL     OW 8308   3.466   0.449   0.741
 2619SOL    HW1 8309   3.387   0.463   0.689
 2619SOL    HW2 8310   3.475   0.529   0.793
 2620SOL     OW 8311   2.084   1.716   0.468
 2620SOL    HW1 8312   2.104   1.791   0.524
 2620SOL    HW2 8313   2.161   1.707   0.412
 2621SOL     OW 8314   3.000   1.343   1.694
 2621SOL    HW1 8315   3.041   1.336   1.781
 2621SOL    HW2 8316   2.948   1.263   1.687
 2622SOL     OW 8317   2.088   1.441   0.523
 2622SOL    HW1 8318   2.074   1.536   0.527
 2622SOL    HW2 8319   2.034   1.406   0.594
 2623SOL     OW 8320   2.128   1.091   0.892
 2623SOL    HW1 8321   2.125   1.003   0.930
 2623SOL    HW2 8322   2.070   1.143   0.947
 2624SOL     OW 8323   2.460   1.793   1.420
 2624SOL    HW1 8324   2.382   1.773   1.472
 2624SOL    HW2 8325   2.487   1.880   1.450
 2625SOL     OW 8326   2.480   0.955   0.145
 2625SOL    HW1 8327   2.426   1.029   0.118
 2625SOL    HW2 8328   2.537   0.990   0.214
 2626SOL     OW 8329   3.449   0.140   1.454
 2626SOL    HW1 8330   3.483   0.220   1.415
 2626SOL    HW2 8331   3.437   0.161   1.546
 2627SOL     OW 8332   1.979   0.654   0.565
 2627SOL    HW1 8333   1.948   0.566   0.586
 2627SOL    HW2 8334   1.971   0.702   0.647
 2628SOL     OW 8335   3.712   1.754   0.324
 2628SOL    HW1 8336   3.780   1.726   0.385
 2628SOL    HW2 8337   3.732   1.846   0.306
 2629SOL     OW 8338   1.902   1.591   0.108
 2629SOL    HW1 8339   1.884   1.504   0.144
 2629SOL    HW2 8340   1.882   1.651   0.180
 2630SOL     OW 8341   3.552   0.920   0.649
 2630SOL    HW1 8342   3.631   0.873   0.623
 2630SOL    HW2 8343   3.528   0.972   0.572
 2631SOL     OW 8344   3.511   1.101   0.435
 2631SOL    HW1 8345   3.593   1.108   0.387
 2631SOL    HW2 8346   3.518   1.166   0.505
 2632SOL     OW 8347   1.986   0.747   1.581
 2632SOL    HW1 8348   2.077   0.777   1.585
 2632SOL    HW2 8349   1.934   0.827   1.586
 2633SOL     OW 8350   2.478   1.392   0.733
 2633SOL    HW1 8351   2.433   1.308   0.743
 2633SOL    HW2 8352   2.463   1.417   0.642
 2634SOL     OW 8353   3.147   1.236   1.421
 2634SOL    HW1 8354   3.178   1.167   1.361
 2634SOL    HW2 8355   3.207   1.231   1.495
 2635SOL     OW 8356   2.680   0.038   0.536
 2635SOL    HW1 8357   2.710   0.122   0.503
 2635SOL    HW2 8358   2.585   0.041   0.528
 2636SOL     OW 8359   2.050   0.962   1.278
 2636SOL    HW1 8360   2.136   0.923   1.264
 2636SOL    HW2 8361   1.991   0.912   1.221
 2637SOL     OW 8362   3.363   1.014   0.217
 2637SOL    HW1 8363   3.301   0.950   0.252
 2637SOL    HW2 8364   3.419   1.036   0.291
 2638SOL     OW 8365   3.047   1.813   1.625
 2638SOL    HW1 8366   3.051   1.874   1.551
 2638SOL    HW2 8367   3.064   1.727   1.587
 2639SOL     OW 8368   2.200   0.276   1.821
 2639SOL    HW1 8369   2.248   0.347   1.863
 2639SOL    HW2 8370   2.112   0.282   1.857
 2640SOL     OW 8371   3.329   1.419   0.946
 2640SOL    HW1 8372   3.263   1.435   1.013
 2640SOL    HW2 8373   3.316   1.328   0.920
 2641SOL     OW 8374   3.516   1.755   0.582
 2641SOL    HW1 8375   3.496   1.722   0.494
 2641SOL    HW2 8376   3.498   1.681   0.640
 2642SOL     OW 8377   2.461   0.710   0.286
 2642SOL    HW1 8378   2.475   0.793   0.240
 2642SOL    HW2 8379   2.396   0.731   0.353
 2643SOL     OW 8380   3.137   0.356   0.934
 2643SOL    HW1 8381   3.047   0.326   0.946
 2643SOL    HW2 8382   3.188   0.304   0.995
 2644SOL     OW 8383   3.449   1.673   0.323
 2644SOL    HW1 8384   3.541   1.697   0.314
 2644SOL    HW2 8385   3.420   1.656   0.234
 2645SOL     OW 8386   2.655   0.619   1.444
 2645SOL    HW1 8387   2.628   0.597   1.533
 2645SOL    HW2 8388   2.619   0.550   1.390
 2646SOL     OW 8389   3.256   0.477   1.678
 2646SOL    HW1 8390   3.259   0.521   1.763
 2646SOL    HW2 8391   3.317   0.404   1.687
 2647SOL     OW 8392   2.812   0.886   1.586
 2647SOL    HW1 8393   2.867   0.818   1.548
 2647SOL    HW2 8394   2.763   0.922   1.512
 2648SOL     OW 8395   2.857   0.416   1.228
 2648SOL    HW1 8396   2.767   0.432   1.259
 2648SOL    HW2 8397   2.846   0.370   1.145
 2649SOL     OW 8398   2.919   0.699   0.428
 2649SOL    HW1 8399   2.937   0.692   0.522
 2649SOL    HW2 8400   2.835   0.655   0.417
 2650SOL     OW 8401   1.950   0.823   0.779
 2650SOL    HW1 8402   2.031   0.815   0.830
 2650SOL    HW2 8403   1.906   0.900   0.814
 2651SOL     OW 8404   1.986   1.871   1.583
 2651SOL    HW1 8405   1.991   1.849   1.676
 2651SOL    HW2 8406   1.902   1.837   1.555
 2652SOL     OW 8407   2.750   0.359   0.206
 2652SOL    HW1 8408   2.794   0.409   0.137
 2652SOL    HW2 8409   2.732   0.274   0.166
 2653SOL     OW 8410   3.564   0.568   1.829
 2653SOL    HW1 8411   3.530   0.643   1.779
 2653SOL    HW2 8412   3.598   0.508   1.762
 2654SOL     OW 8413   3.243   1.142   0.541
 2654SOL    HW1 8414   3.321   1.131   0.487
 2654SOL    HW2 8415   3.188   1.203   0.492
 2655SOL     OW 8416   2.376   0.204   0.878
 2655SOL    HW1 8417   2.398   0.218   0.970
 2655SOL    HW2 8418   2.400   0.286   0.835
 2656SOL     OW 8419   2.859   1.443   0.468
 2656SOL    HW1 8420   2.827   1.519   0.419
 2656SOL    HW2 8421   2.837   1.462   0.559
 2657SOL     OW 8422   2.216   1.813   0.869
 2657SOL    HW1 8423   2.259   1.728   0.875
 2657SOL    HW2 8424   2.285   1.877   0.886
 2658SOL     OW 8425   3.664   1.052   0.873
 2658SOL    HW1 8426   3.612   1.030   0.795
 2658SOL    HW2 8427   3.599   1.059   0.944
 2659SOL     OW 8428   3.088   1.540   1.513
 2659SOL    HW1 8429   3.077   1.468   1.575
 2659SOL    HW2 8430   3.021   1.526   1.447
 2660SOL     OW 8431   2.175   0.946   0.264
 2660SOL    HW1 8432   2.238   0.989   0.205
 2660SOL    HW2 8433   2.188   0.852   0.250
 2661SOL     OW 8434   3.343   0.751   0.723
 2661SOL    HW1 8435   3.339   0.711   0.810
 2661SOL    HW2 8436   3.421   0.806   0.726
 2662SOL     OW 8437   2.332   1.268   1.738
 2662SOL    HW1 8438   2.306   1.273   1.646
 2662SOL    HW2 8439   2.250   1.264   1.786
 2663SOL     OW 8440   2.968   1.782   0.219
 2663SOL    HW1 8441   2.909   1.741   0.283
 2663SOL    HW2 8442   2.993   1.711   0.160
 2664SOL     OW 8443   2.060   0.277   1.509
 2664SOL    HW1 8444   1.981   0.331   1.513
 2664SOL    HW2 8445   2.057   0.223   1.589
 2665SOL     OW 8446   3.498   1.371   0.084
 2665SOL    HW1 8447   3.456   1.457   0.086
 2665SOL    HW2 8448   3.426   1.310   0.064
 2666SOL     OW 8449   2.326   1.735   0.323
 2666SOL    HW1 8450   2.371   1.794   0.383
 2666SOL    HW2 8451   2.394   1.705   0.263
 2667SOL     OW 8452   3.285   0.102   0.447
 2667SOL    HW1 8453   3.283   0.082   0.354
 2667SOL    HW2 8454   3.375   0.127   0.465
 2668SOL     OW 8455   2.119   1.790   1.228
 2668SOL    HW1 8456   2.168   1.721   1.272
 2668SOL    HW2 8457   2.111   1.760   1.138
 2669SOL     OW 8458   2.801   1.699   0.896
 2669SOL    HW1 8459   2.880   1.651   0.918
 2669SOL    HW2 8460   2.760   1.648   0.826
 2670SOL     OW 8461   2.249   0.699   0.472
 2670SOL    HW1 8462   2.270   0.607   0.486
 2670SOL    HW2 8463   2.157   0.706   0.497
 2671SOL     OW 8464   3.394   0.228   1.720
 2671SOL    HW1 8465   3.403   0.244   1.814
 2671SOL    HW2 8466   3.317   0.172   1.712
 2672SOL     OW 8467   2.489   0.140   0.124
 2672SOL    HW1 8468   2.581   0.115   0.130
 2672SOL    HW2 8469   2.460   0.103   0.040
 2673SOL     OW 8470   2.635   0.312   1.771
 2673SOL    HW1 8471   2.698   0.240   1.770
 2673SOL    HW2 8472   2.589   0.302   1.854
 2674SOL     OW 8473   2.737   1.523   1.195
 2674SOL    HW1 8474   2.720   1.485   1.108
 2674SOL    HW2 8475   2.807   1.469   1.232
 2675SOL     OW 8476   3.201   0.589   1.433
 2675SOL    HW1 8477   3.231   0.559   1.518
 2675SOL    HW2 8478   3.238   0.677   1.424
 2676SOL     OW 8479   2.680   1.389   0.946
 2676SOL    HW1 8480   2.765   1.378   0.904
 2676SOL    HW2 8481   2.618   1.396   0.874
 2677SOL     OW 8482   2.790   0.512   0.900
 2677SOL    HW1 8483   2.765   0.503   0.808
 2677SOL    HW2 8484   2.818   0.424   0.926
 2678SOL     OW 8485   2.409   0.060   0.509
 2678SOL    HW1 8486   2.324   0.054   0.553
 2678SOL    HW2 8487   2.397   0.128   0.443
 2679SOL     OW 8488   3.293   1.201   0.033
 2679SOL    HW1 8489   3.316   1.129   0.092
 2679SOL    HW2 8490   3.206   1.229   0.062
 2680SOL     OW 8491   2.164   0.077   0.208
 2680SOL    HW1 8492   2.226   0.149   0.198
 2680SOL    HW2 8493   2.215   5.299   0.187
 2681SOL     OW 8494   2.810   0.265   0.455
 2681SOL    HW1 8495   2.785   0.307   0.372
 2681SOL    HW2 8496   2.903   0.288   0.465
 2682SOL     OW 8497   2.943   0.686   1.457
 2682SOL    HW1 8498   2.877   0.617   1.460
 2682SOL    HW2 8499   3.027   0.639   1.451
 2683SOL     OW 8500   3.080   1.573   0.796
 2683SOL    HW1 8501   3.095   1.638   0.727
 2683SOL    HW2 8502   3.150   1.588   0.859
 2684SOL     OW 8503   2.333   1.156   0.727
 2684SOL    HW1 8504   2.267   1.134   0.793
 2684SOL    HW2 8505   2.289   1.141   0.644
 2685SOL     OW 8506   3.126   1.793   0.612
 2685SOL    HW1 8507   3.178   1.856   0.563
 2685SOL    HW2 8508   3.056   1.844   0.653
 2686SOL     OW 8509   2.891   0.520   0.035
 2686SOL    HW1 8510   2.857   0.605   0.008
 2686SOL    HW2 8511   2.956   0.541   0.103
 2687SOL     OW 8512   1.945   0.552   1.393
 2687SOL    HW1 8513   2.037   0.553   1.366
 2687SOL    HW2 8514   1.939   0.622   1.458
 2688SOL     OW 8515   2.412   0.238   1.159
 2688SOL    HW1 8516   2.446   0.155   1.190
 2688SOL    HW2 8517   2.321   0.239   1.187
 2689SOL     OW 8518   2.727   0.461   0.640
 2689SOL    HW1 8519   2.687   0.517   0.573
 2689SOL    HW2 8520   2.751   0.381   0.593
 2690SOL     OW 8521   2.839   0.063   0.768
 2690SOL    HW1 8522   2.777   0.063   0.695
 2690SOL    HW2 8523   2.852   5.271   0.788
 2691SOL     OW 8524   3.301   1.160   0.856
 2691SOL    HW1 8525   3.230   1.096   0.857
 2691SOL    HW2 8526   3.325   1.168   0.764
 2692SOL     OW 8527   3.328   0.612   0.969
 2692SOL    HW1 8528   3.273   0.533   0.973
 2692SOL    HW2 8529   3.386   0.604   1.045
 2693SOL     OW 8530   3.708   0.810   0.388
 2693SOL    HW1 8531   3.762   0.759   0.449
 2693SOL    HW2 8532   3.680   0.747   0.322
 2694SOL     OW 8533   2.347   1.439   0.174
 2694SOL    HW1 8534   2.272   1.402   0.220
 2694SOL    HW2 8535   2.359   1.383   0.097
 2695SOL     OW 8536   3.540   1.266   0.643
 2695SOL    HW1 8537   3.635   1.265   0.658
 2695SOL    HW2 8538   3.513   1.355   0.665
 2696SOL     OW 8539   3.260   0.571   0.089
 2696SOL    HW1 8540   3.196   0.556   0.158
 2696SOL    HW2 8541   3.309   0.489   0.083
 2697SOL     OW 8542   2.379   0.269   0.326
 2697SOL    HW1 8543   2.426   0.217   0.261
 2697SOL    HW2 8544   2.362   0.353   0.282
 2698SOL     OW 8545   3.610   1.242   1.562
 2698SOL    HW1 8546   3.698   1.204   1.556
 2698SOL    HW2 8547   3.626   1.332   1.592
 2699SOL     OW 8548   2.916   1.354   1.332
 2699SOL    HW1 8549   2.841   1.322   1.382
 2699SOL    HW2 8550   2.992   1.312   1.373
 2700SOL     OW 8551   3.471   1.628   1.658
 2700SOL    HW1 8552   3.463   1.662   1.569
 2700SOL    HW2 8553   3.553   1.578   1.657
 2701SOL     OW 8554   2.998   1.211   1.102
 2701SOL    HW1 8555   2.937   1.248   1.166
 2701SOL    HW2 8556   2.968   1.245   1.018
 2702SOL     OW 8557   3.485   1.095   1.075
 2702SOL    HW1 8558   3.478   1.158   1.147
 2702SOL    HW2 8559   3.409   1.114   1.020
 2703SOL     OW 8560   2.762   0.110   1.379
 2703SOL    HW1 8561   2.793   0.075   1.296
 2703SOL    HW2 8562   2.839   0.151   1.418
 2704SOL     OW 8563   2.846   1.116   1.723
 2704SOL    HW1 8564   2.755   1.132   1.747
 2704SOL    HW2 8565   2.843   1.037   1.668
 2705SOL     OW 8566   2.584   1.067   0.383
 2705SOL    HW1 8567   2.563   1.044   0.474
 2705SOL    HW2 8568   2.661   1.014   0.362
 2706SOL     OW 8569   2.284   0.820   1.252
 2706SOL    HW1 8570   2.351   0.829   1.319
 2706SOL    HW2 8571   2.249   0.732   1.265
 2707SOL     OW 8572   3.126   0.376   1.278
 2707SOL    HW1 8573   3.159   0.453   1.324
 2707SOL    HW2 8574   3.036   0.399   1.255
 2708SOL     OW 8575   1.937   1.574   1.358
 2708SOL    HW1 8576   1.910   1.645   1.300
 2708SOL    HW2 8577   2.032   1.572   1.349
 2709SOL     OW 8578   2.197   1.115   0.492
 2709SOL    HW1 8579   2.201   1.186   0.427
 2709SOL    HW2 8580   2.203   1.035   0.439
 2710SOL     OW 8581   2.411   0.531   0.860
 2710SOL    HW1 8582   2.424   0.590   0.786
 2710SOL    HW2 8583   2.478   0.556   0.923
 2711SOL     OW 8584   3.108   1.347   0.396
 2711SOL    HW1 8585   3.163   1.419   0.426
 2711SOL    HW2 8586   3.020   1.370   0.426
 2712SOL     OW 8587   3.152   1.460   1.148
 2712SOL    HW1 8588   3.207   1.465   1.226
 2712SOL    HW2 8589   3.097   1.383   1.162
 2713SOL     OW 8590   3.438   0.624   0.486
 2713SOL    HW1 8591   3.388   0.667   0.556
 2713SOL    HW2 8592   3.466   0.695   0.429
 2714SOL     OW 8593   2.207   1.530   1.310
 2714SOL    HW1 8594   2.196   1.485   1.226
 2714SOL    HW2 8595   2.302   1.541   1.319
 2715SOL     OW 8596   2.281   0.745   1.604
 2715SOL    HW1 8597   2.343   0.789   1.546
 2715SOL    HW2 8598   2.322   0.661   1.624
 2716SOL     OW 8599   3.471   0.781   1.686
 2716SOL    HW1 8600   3.385   0.822   1.681
 2716SOL    HW2 8601   3.523   0.823   1.618
 2717SOL     OW 8602   2.923   0.120   1.792
 2717SOL    HW1 8603   2.950   0.201   1.747
 2717SOL    HW2 8604   2.923   0.053   1.723
 2718SOL     OW 8605   2.346   0.062   1.738
 2718SOL    HW1 8606   2.281   5.297   1.712
 2718SOL    HW2 8607   2.295   0.140   1.759
 2719SOL     OW 8608   2.447   0.874   1.032
 2719SOL    HW1 8609   2.481   0.964   1.035
 2719SOL    HW2 8610   2.390   0.868   1.109
 2720SOL     OW 8611   3.209   0.859   1.021
 2720SOL    HW1 8612   3.123   0.844   0.982
 2720SOL    HW2 8613   3.255   0.776   1.012
 2721SOL     OW 8614   3.059   0.525   0.268
 2721SOL    HW1 8615   3.071   0.448   0.323
 2721SOL    HW2 8616   3.017   0.589   0.325
 2722SOL     OW 8617   2.153   0.201   1.251
 2722SOL    HW1 8618   2.113   0.239   1.329
 2722SOL    HW2 8619   2.158   0.107   1.270
 2723SOL     OW 8620   1.909   1.312   1.273
 2723SOL    HW1 8621   1.940   1.256   1.344
 2723SOL    HW2 8622   1.914   1.401   1.310
 2724SOL     OW 8623   2.583   0.630   1.054
 2724SOL    HW1 8624   2.659   0.617   0.997
 2724SOL    HW2 8625   2.554   0.719   1.034
 2725SOL     OW 8626   3.601   0.959   1.858
 2725SOL    HW1 8627   3.558   0.892   1.806
 2725SOL    HW2 8628   3.540   0.977   1.930
 2726SOL     OW 8629   2.180   0.067   0.667
 2726SOL    HW1 8630   2.146   0.156   0.664
 2726SOL    HW2 8631   2.238   0.065   0.743
 2727SOL     OW 8632   3.495   0.387   0.361
 2727SOL    HW1 8633   3.516   0.316   0.422
 2727SOL    HW2 8634   3.466   0.459   0.417
 2728SOL     OW 8635   2.891   0.759   0.958
 2728SOL    HW1 8636   2.882   0.775   1.052
 2728SOL    HW2 8637   2.864   0.668   0.947
 2729SOL     OW 8638   2.843   1.566   1.722
 2729SOL    HW1 8639   2.827   1.610   1.638
 2729SOL    HW2 8640   2.887   1.485   1.698
 2730SOL     OW 8641   3.713   1.501   1.604
 2730SOL    HW1 8642   3.735   1.528   1.515
 2730SOL    HW2 8643   3.793   1.515   1.654
 2731SOL     OW 8644   2.214   0.918   1.809
 2731SOL    HW1 8645   2.294   0.936   1.858
 2731SOL    HW2 8646   2.240   0.854   1.743
 2732SOL     OW 8647   3.376   0.319   0.124
 2732SOL    HW1 8648   3.348   0.227   0.133
 2732SOL    HW2 8649   3.419   0.339   0.207
 2733SOL     OW 8650   3.160   0.818   0.021
 2733SOL    HW1 8651   3.196   0.731   0.036
 2733SOL    HW2 8652   3.225   0.862   8.046
 2734SOL     OW 8653   2.930   1.339   0.858
 2734SOL    HW1 8654   2.936   1.267   0.795
 2734SOL    HW2 8655   2.988   1.406   0.822
 2735SOL     OW 8656   2.171   0.808   0.946
 2735SOL    HW1 8657   2.264   0.829   0.940
 2735SOL    HW2 8658   2.168   0.718   0.976
 2736SOL     OW 8659   2.190   0.530   1.013
 2736SOL    HW1 8660   2.153   0.442   1.000
 2736SOL    HW2 8661   2.267   0.532   0.956
 2737SOL     OW 8662   2.997   0.375   1.692
 2737SOL    HW1 8663   2.949   0.430   1.754
 2737SOL    HW2 8664   3.084   0.416   1.687
 2738SOL     OW 8665   2.990   0.219   1.469
 2738SOL    HW1 8666   2.993   0.279   1.544
 2738SOL    HW2 8667   3.046   0.260   1.403
 2739SOL     OW 8668   1.878   1.317   0.185
 2739SOL    HW1 8669   1.791   1.332   0.148
 2739SOL    HW2 8670   1.874   1.229   0.221
 2740SOL     OW 8671   1.952   1.782   0.941
 2740SOL    HW1 8672   1.921   1.704   0.895
 2740SOL    HW2 8673   2.041   1.795   0.910
 2741SOL     OW 8674   2.353   1.574   0.903
 2741SOL    HW1 8675   2.422   1.635   0.929
 2741SOL    HW2 8676   2.397   1.512   0.845
 2742SOL     OW 8677   2.835   0.788   1.224
 2742SOL    HW1 8678   2.895   0.769   1.296
 2742SOL    HW2 8679   2.752   0.748   1.250
 2743SOL     OW 8680   1.898   0.549   1.117
 2743SOL    HW1 8681   1.977   0.536   1.064
 2743SOL    HW2 8682   1.929   0.550   1.207
 2744SOL     OW 8683   2.045   0.528   1.733
 2744SOL    HW1 8684   2.111   0.489   1.676
 2744SOL    HW2 8685   2.012   0.603   1.683
 2745SOL     OW 8686   3.243   0.933   1.657
 2745SOL    HW1 8687   3.264   1.026   1.653
 2745SOL    HW2 8688   3.239   0.906   1.565
 2746SOL     OW 8689   2.683   0.571   0.376
 2746SOL    HW1 8690   2.692   0.500   0.312
 2746SOL    HW2 8691   2.606   0.620   0.346
 2747SOL     OW 8692   3.502   0.601   1.180
 2747SOL    HW1 8693   3.492   0.542   1.254
 2747SOL    HW2 8694   3.591   0.583   1.147
 2748SOL     OW 8695   2.099   1.549   1.723
 2748SOL    HW1 8696   2.079   1.613   1.791
 2748SOL    HW2 8697   2.107   1.465   1.769
 2749SOL     OW 8698   2.574   0.445   1.252
 2749SOL    HW1 8699   2.516   0.375   1.224
 2749SOL    HW2 8700   2.568   0.511   1.183
 2750SOL     OW 8701   2.783   1.679   1.471
 2750SOL    HW1 8702   2.760   1.639   1.387
 2750SOL    HW2 8703   2.778   1.773   1.456
 2751SOL     OW 8704   2.327   0.495   0.174
 2751SOL    HW1 8705   2.396   0.557   0.195
 2751SOL    HW2 8706   2.245   0.541   0.192
 2752SOL     OW 8707   2.003   1.143   1.474
 2752SOL    HW1 8708   2.005   1.096   1.557
 2752SOL    HW2 8709   2.020   1.076   1.408
 2753SOL     OW 8710   3.182   1.043   1.219
 2753SOL    HW1 8711   3.203   0.980   1.151
 2753SOL    HW2 8712   3.116   1.100   1.180
 2754SOL     OW 8713   3.167   0.846   0.309
 2754SOL    HW1 8714   3.091   0.814   0.357
 2754SOL    HW2 8715   3.145   0.832   0.217
 2755SOL     OW 8716   3.641   1.737   1.156
 2755SOL    HW1 8717   3.701   1.763   1.087
 2755SOL    HW2 8718   3.614   1.648   1.133
 2756SOL     OW 8719   3.102   1.732   1.105
 2756SOL    HW1 8720   3.185   1.756   1.064
 2756SOL    HW2 8721   3.112   1.639   1.126
 2757SOL     OW 8722   1.949   1.266   1.010
 2757SOL    HW1 8723   1.932   1.281   1.103
 2757SOL    HW2 8724   1.877   1.210   0.980
 2758SOL     OW 8725   2.539   1.671   1.738
 2758SOL    HW1 8726   2.483   1.748   1.735
 2758SOL    HW2 8727   2.610   1.690   1.677
 2759SOL     OW 8728   2.755   0.084   0.137
 2759SOL    HW1 8729   2.810   0.070   0.060
 2759SOL    HW2 8730   2.763   0.003   0.187
 2760SOL     OW 8731   3.572   0.155   0.499
 2760SOL    HW1 8732   3.645   0.134   0.442
 2760SOL    HW2 8733   3.569   0.082   0.561
 2761SOL     OW 8734   3.254   1.568   0.493
 2761SOL    HW1 8735   3.316   1.601   0.428
 2761SOL    HW2 8736   3.204   1.644   0.521
 2762SOL     OW 8737   2.002   1.797   1.843
 2762SOL    HW1 8738   1.952   1.730   1.889
 2762SOL    HW2 8739   2.050   1.843   1.912
 2763SOL     OW 8740   3.139   0.929   0.672
 2763SOL    HW1 8741   3.213   0.869   0.682
 2763SOL    HW2 8742   3.173   1.000   0.618
 2764SOL     OW 8743   2.667   1.277   1.424
 2764SOL    HW1 8744   2.639   1.318   1.506
 2764SOL    HW2 8745   2.596   1.296   1.362
 2765SOL     OW 8746   2.536   1.627   0.157
 2765SOL    HW1 8747   2.546   1.635   0.062
 2765SOL    HW2 8748   2.477   1.553   0.169
 2766SOL     OW 8749   3.481   1.728   1.392
 2766SOL    HW1 8750   3.535   1.733   1.312
 2766SOL    HW2 8751   3.467   1.819   1.416
 2767SOL     OW 8752   3.710   0.147   0.955
 2767SOL    HW1 8753   3.698   0.053   0.967
 2767SOL    HW2 8754   3.625   0.178   0.922
 2768SOL     OW 8755   2.116   0.328   0.716
 2768SOL    HW1 8756   2.028   0.360   0.697
 2768SOL    HW2 8757   2.118   0.318   0.811
 2769SOL     OW 8758   3.027   1.577   0.052
 2769SOL    HW1 8759   3.033   1.485   0.077
 2769SOL    HW2 8760   3.038   1.577   8.036
 2770SOL     OW 8761   2.685   1.007   1.375
 2770SOL    HW1 8762   2.729   1.000   1.291
 2770SOL    HW2 8763   2.682   1.101   1.393
 2771SOL     OW 8764   2.786   0.916   0.302
 2771SOL    HW1 8765   2.838   0.937   0.224
 2771SOL    HW2 8766   2.834   0.844   0.344
 2772SOL     OW 8767   3.370   1.620   0.064
 2772SOL    HW1 8768   3.275   1.621   0.051
 2772SOL    HW2 8769   3.406   1.629   8.056
 2773SOL     OW 8770   2.229   1.305   1.493
 2773SOL    HW1 8771   2.216   1.381   1.436
 2773SOL    HW2 8772   2.152   1.251   1.477
 2774SOL     OW 8773   3.470   1.284   1.279
 2774SOL    HW1 8774   3.529   1.268   1.353
 2774SOL    HW2 8775   3.409   1.351   1.312
 2775SOL     OW 8776   2.923   1.111   0.712
 2775SOL    HW1 8777   2.850   1.060   0.748
 2775SOL    HW2 8778   2.986   1.045   0.684
 2776SOL     OW 8779   2.879   0.246   0.972
 2776SOL    HW1 8780   2.859   0.201   0.890
 2776SOL    HW2 8781   2.874   0.178   1.039
 2777SOL     OW 8782   2.468   1.484   0.476
 2777SOL    HW1 8783   2.517   1.434   0.410
 2777SOL    HW2 8784   2.395   1.523   0.428
 2778SOL     OW 8785   3.592   0.384   1.377
 2778SOL    HW1 8786   3.664   0.448   1.376
 2778SOL    HW2 8787   3.622   0.315   1.318
 2779SOL     OW 8788   2.132   1.316   0.290
 2779SOL    HW1 8789   2.046   1.323   0.249
 2779SOL    HW2 8790   2.122   1.362   0.374
 2780SOL     OW 8791   1.976   1.032   1.724
 2780SOL    HW1 8792   1.900   1.005   1.775
 2780SOL    HW2 8793   2.050   0.990   1.767
 2781SOL     OW 8794   2.536   0.218   1.494
 2781SOL    HW1 8795   2.617   0.203   1.446
 2781SOL    HW2 8796   2.562   0.266   1.572
 2782SOL     OW 8797   1.932   0.361   0.030
 2782SOL    HW1 8798   1.861   0.296   0.030
 2782SOL    HW2 8799   1.938   0.389   8.019
 2783SOL     OW 8800   3.287   0.857   1.397
 2783SOL    HW1 8801   3.237   0.918   1.343
 2783SOL    HW2 8802   3.376   0.860   1.361
 2784SOL     OW 8803   1.927   0.164   0.312
 2784SOL    HW1 8804   1.937   0.254   0.281
 2784SOL    HW2 8805   2.011   0.123   0.295
 2785SOL     OW 8806   3.045   1.311   0.121
 2785SOL    HW1 8807   2.950   1.305   0.115
 2785SOL    HW2 8808   3.064   1.311   0.215
 2786SOL     OW 8809   2.483   0.831   1.435
 2786SOL    HW1 8810   2.539   0.907   1.421
 2786SOL    HW2 8811   2.543   0.757   1.441
 2787SOL     OW 8812   3.345   1.784   0.983
 2787SOL    HW1 8813   3.368   1.851   0.918
 2787SOL    HW2 8814   3.429   1.757   1.020
 2788SOL     OW 8815   2.577   0.573   1.698
 2788SOL    HW1 8816   2.622   0.634   1.756
 2788SOL    HW2 8817   2.599   0.486   1.732
 2789SOL     OW 8818   3.336   1.194   1.628
 2789SOL    HW1 8819   3.324   1.209   1.722
 2789SOL    HW2 8820   3.428   1.214   1.612
 2790SOL     OW 8821   2.231   1.739   1.563
 2790SOL    HW1 8822   2.148   1.785   1.550
 2790SOL    HW2 8823   2.206   1.657   1.605
 2791SOL     OW 8824   3.526   0.880   1.255
 2791SOL    HW1 8825   3.523   0.794   1.212
 2791SOL    HW2 8826   3.516   0.943   1.184
 2792SOL     OW 8827   3.079   0.327   0.472
 2792SOL    HW1 8828   3.137   0.252   0.459
 2792SOL    HW2 8829   3.117   0.375   0.546
 2793SOL     OW 8830   2.445   0.734   0.674
 2793SOL    HW1 8831   2.486   0.819   0.660
 2793SOL    HW2 8832   2.379   0.728   0.604
 2794SOL     OW 8833   3.625   0.362   1.650
 2794SOL    HW1 8834   3.608   0.378   1.557
 2794SOL    HW2 8835   3.552   0.308   1.678
 2795SOL     OW 8836   3.611   0.934   1.511
 2795SOL    HW1 8837   3.600   1.028   1.523
 2795SOL    HW2 8838   3.592   0.919   1.418
 2796SOL     OW 8839   2.768   1.368   0.054
 2796SOL    HW1 8840   2.706   1.355   0.127
 2796SOL    HW2 8841   2.736   1.446   0.010
 2797SOL     OW 8842   2.526   1.781   0.939
 2797SOL    HW1 8843   2.509   1.873   0.917
 2797SOL    HW2 8844   2.622   1.773   0.933
 2798SOL     OW 8845   2.731   0.970   0.855
 2798SOL    HW1 8846   2.782   0.898   0.892
 2798SOL    HW2 8847   2.693   1.014   0.931
 2799SOL     OW 8848   2.940   0.969   0.085
 2799SOL    HW1 8849   2.927   1.033   0.015
 2799SOL    HW2 8850   3.017   0.919   0.058
 2800SOL     OW 8851   3.709   1.553   0.842
 2800SOL    HW1 8852   3.629   1.541   0.790
 2800SOL    HW2 8853   3.701   1.489   0.913
 2801SOL     OW 8854   2.088   1.299   1.853
 2801SOL    HW1 8855   2.026   1.233   1.821
 2801SOL    HW2 8856   2.064   1.311   1.945
 2802SOL     OW 8857   1.953   1.229   0.666
 2802SOL    HW1 8858   1.961   1.183   0.750
 2802SOL    HW2 8859   2.022   1.191   0.612
 2803SOL     OW 8860   2.546   1.409   1.630
 2803SOL    HW1 8861   2.468   1.366   1.665
 2803SOL    HW2 8862   2.544   1.497   1.668
 2804SOL     OW 8863   3.666   0.173   1.228
 2804SOL    HW1 8864   3.629   0.085   1.224
 2804SOL    HW2 8865   3.696   0.190   1.138
 2805SOL     OW 8866   2.286   0.440   0.525
 2805SOL    HW1 8867   2.324   0.368   0.475
 2805SOL    HW2 8868   2.238   0.397   0.596
 2806SOL     OW 8869   3.559   1.486   1.091
 2806SOL    HW1 8870   3.480   1.466   1.041
 2806SOL    HW2 8871   3.564   1.416   1.157
 2807SOL     OW 8872   2.195   0.562   1.291
 2807SOL    HW1 8873   2.249   0.504   1.345
 2807SOL    HW2 8874   2.213   0.533   1.201
 2808SOL     OW 8875   2.693   1.578   0.675
 2808SOL    HW1 8876   2.672   1.638   0.604
 2808SOL    HW2 8877   2.618   1.518   0.678
 2809SOL     OW 8878   3.288   0.222   1.116
 2809SOL    HW1 8879   3.323   0.146   1.163
 2809SOL    HW2 8880   3.239   0.270   1.183
 2810SOL     OW 8881   2.864   0.018   1.134
 2810SOL    HW1 8882   2.813   5.251   1.088
 2810SOL    HW2 8883   2.949   5.277   1.150
 2811SOL     OW 8884   2.638   1.328   0.311
 2811SOL    HW1 8885   2.610   1.238   0.329
 2811SOL    HW2 8886   2.718   1.338   0.362
 2812SOL     OW 8887   2.481   1.555   1.286
 2812SOL    HW1 8888   2.481   1.638   1.334
 2812SOL    HW2 8889   2.570   1.549   1.250
 2813SOL     OW 8890   3.265   0.058   0.165
 2813SOL    HW1 8891   3.249   0.031   0.074
 2813SOL    HW2 8892   3.181   0.090   0.196
 2814SOL     OW 8893   3.172   0.470   0.687
 2814SOL    HW1 8894   3.116   0.548   0.688
 2814SOL    HW2 8895   3.158   0.430   0.773
 2815SOL     OW 8896   3.458   0.214   0.886
 2815SOL    HW1 8897   3.394   0.227   0.957
 2815SOL    HW2 8898   3.450   0.293   0.832
 2816SOL     OW 8899   1.907   1.062   0.309
 2816SOL    HW1 8900   2.003   1.059   0.312
 2816SOL    HW2 8901   1.879   0.977   0.343
 2817SOL     OW 8902   2.746   1.662   0.347
 2817SOL    HW1 8903   2.677   1.647   0.283
 2817SOL    HW2 8904   2.716   1.737   0.399
 2818SOL     OW 8905   2.083   0.627   1.991
 2818SOL    HW1 8906   1.995   0.620   2.029
 2818SOL    HW2 8907   2.071   0.603   1.899
 2819SOL     OW 8908   2.076   0.288   2.857
 2819SOL    HW1 8909   2.105   0.250   2.940
 2819SOL    HW2 8910   1.995   0.240   2.836
 2820SOL     OW 8911   1.860   0.393   2.499
 2820SOL    HW1 8912   1.776   0.413   2.540
 2820SOL    HW2 8913   1.842   0.317   2.443
 2821SOL     OW 8914   2.431   1.297   3.046
 2821SOL    HW1 8915   2.345   1.302   3.003
 2821SOL    HW2 8916   2.447   1.387   3.077
 2822SOL     OW 8917   3.433   1.514   2.570
 2822SOL    HW1 8918   3.389   1.490   2.652
 2822SOL    HW2 8919   3.363   1.518   2.506
 2823SOL     OW 8920   2.997   0.698   2.558
 2823SOL    HW1 8921   3.043   0.781   2.545
 2823SOL    HW2 8922   2.948   0.710   2.640
 2824SOL     OW 8923   3.637   0.600   2.087
 2824SOL    HW1 8924   3.612   0.594   1.995
 2824SOL    HW2 8925   3.598   0.522   2.127
 2825SOL     OW 8926   2.608   1.138   2.909
 2825SOL    HW1 8927   2.542   1.176   2.968
 2825SOL    HW2 8928   2.647   1.213   2.865
 2826SOL     OW 8929   2.736   0.768   3.687
 2826SOL    HW1 8930   2.726   0.838   3.751
 2826SOL    HW2 8931   2.759   0.813   3.606
 2827SOL     OW 8932   2.548   0.997   2.506
 2827SOL    HW1 8933   2.614   0.989   2.575
 2827SOL    HW2 8934   2.479   1.052   2.544
 2828SOL     OW 8935   2.575   1.148   3.680
 2828SOL    HW1 8936   2.622   1.225   3.711
 2828SOL    HW2 8937   2.495   1.183   3.641
 2829SOL     OW 8938   2.193   1.417   2.928
 2829SOL    HW1 8939   2.119   1.377   2.882
 2829SOL    HW2 8940   2.238   1.469   2.861
 2830SOL     OW 8941   3.322   1.501   3.222
 2830SOL    HW1 8942   3.376   1.580   3.232
 2830SOL    HW2 8943   3.255   1.510   3.290
 2831SOL     OW 8944   2.310   0.395   3.336
 2831SOL    HW1 8945   2.384   0.335   3.342
 2831SOL    HW2 8946   2.234   0.341   3.358
 2832SOL     OW 8947   3.467   0.449   2.603
 2832SOL    HW1 8948   3.392   0.466   2.545
 2832SOL    HW2 8949   3.475   0.529   2.654
 2833SOL     OW 8950   2.082   1.716   2.331
 2833SOL    HW1 8951   2.103   1.792   2.386
 2833SOL    HW2 8952   2.158   1.706   2.273
 2834SOL     OW 8953   3.001   1.341   3.558
 2834SOL    HW1 8954   3.042   1.334   3.644
 2834SOL    HW2 8955   2.949   1.261   3.550
 2835SOL     OW 8956   2.094   1.445   2.398
 2835SOL    HW1 8957   2.075   1.538   2.399
 2835SOL    HW2 8958   2.036   1.408   2.464
 2836SOL     OW 8959   2.128   1.091   2.754
 2836SOL    HW1 8960   2.124   1.003   2.791
 2836SOL    HW2 8961   2.070   1.143   2.809
 2837SOL     OW 8962   2.468   1.796   3.286
 2837SOL    HW1 8963   2.384   1.782   3.330
 2837SOL    HW2 8964   2.493   1.885   3.312
 2838SOL     OW 8965   2.440   0.985   2.002
 2838SOL    HW1 8966   2.489   1.030   1.933
 2838SOL    HW2 8967   2.479   1.016   2.083
 2839SOL     OW 8968   3.449   0.140   3.316
 2839SOL    HW1 8969   3.483   0.220   3.277
 2839SOL    HW2 8970   3.437   0.161   3.408
 2840SOL     OW 8971   1.979   0.657   2.423
 2840SOL    HW1 8972   1.950   0.568   2.444
 2840SOL    HW2 8973   1.972   0.705   2.505
 2841SOL     OW 8974   3.706   1.754   2.193
 2841SOL    HW1 8975   3.775   1.729   2.254
 2841SOL    HW2 8976   3.723   1.846   2.173
 2842SOL     OW 8977   1.901   1.591   1.982
 2842SOL    HW1 8978   1.882   1.499   2.002
 2842SOL    HW2 8979   1.875   1.638   2.061
 2843SOL     OW 8980   3.552   0.919   2.508
 2843SOL    HW1 8981   3.633   0.874   2.483
 2843SOL    HW2 8982   3.529   0.970   2.430
 2844SOL     OW 8983   3.512   1.103   2.292
 2844SOL    HW1 8984   3.598   1.104   2.251
 2844SOL    HW2 8985   3.518   1.167   2.363
 2845SOL     OW 8986   1.986   0.747   3.443
 2845SOL    HW1 8987   2.077   0.778   3.447
 2845SOL    HW2 8988   1.934   0.827   3.447
 2846SOL     OW 8989   2.476   1.391   2.597
 2846SOL    HW1 8990   2.433   1.306   2.605
 2846SOL    HW2 8991   2.461   1.418   2.507
 2847SOL     OW 8992   3.148   1.235   3.283
 2847SOL    HW1 8993   3.178   1.167   3.223
 2847SOL    HW2 8994   3.207   1.230   3.357
 2848SOL     OW 8995   2.680   0.038   2.399
 2848SOL    HW1 8996   2.709   0.125   2.369
 2848SOL    HW2 8997   2.585   0.040   2.389
 2849SOL     OW 8998   2.049   0.961   3.141
 2849SOL    HW1 8999   2.136   0.923   3.126
 2849SOL    HW2 9000   1.991   0.913   3.082
 2850SOL     OW 9001   3.393   0.999   2.062
 2850SOL    HW1 9002   3.324   0.942   2.095
 2850SOL    HW2 9003   3.436   1.032   2.141
 2851SOL     OW 9004   3.045   1.801   3.456
 2851SOL    HW1 9005   3.083   1.852   3.384
 2851SOL    HW2 9006   3.068   1.710   3.436
 2852SOL     OW 9007   2.200   0.276   3.683
 2852SOL    HW1 9008   2.248   0.347   3.725
 2852SOL    HW2 9009   2.112   0.282   3.719
 2853SOL     OW 9010   3.329   1.420   2.808
 2853SOL    HW1 9011   3.263   1.435   2.875
 2853SOL    HW2 9012   3.316   1.328   2.782
 2854SOL     OW 9013   3.514   1.754   2.439
 2854SOL    HW1 9014   3.497   1.721   2.351
 2854SOL    HW2 9015   3.496   1.680   2.496
 2855SOL     OW 9016   2.454   0.717   2.131
 2855SOL    HW1 9017   2.457   0.801   2.086
 2855SOL    HW2 9018   2.389   0.729   2.200
 2856SOL     OW 9019   3.138   0.357   2.794
 2856SOL    HW1 9020   3.048   0.327   2.807
 2856SOL    HW2 9021   3.189   0.305   2.856
 2857SOL     OW 9022   3.440   1.674   2.173
 2857SOL    HW1 9023   3.532   1.699   2.164
 2857SOL    HW2 9024   3.412   1.657   2.083
 2858SOL     OW 9025   2.655   0.619   3.306
 2858SOL    HW1 9026   2.628   0.597   3.395
 2858SOL    HW2 9027   2.619   0.549   3.252
 2859SOL     OW 9028   3.256   0.477   3.540
 2859SOL    HW1 9029   3.259   0.521   3.625
 2859SOL    HW2 9030   3.317   0.404   3.549
 2860SOL     OW 9031   2.812   0.886   3.448
 2860SOL    HW1 9032   2.868   0.818   3.410
 2860SOL    HW2 9033   2.763   0.921   3.374
 2861SOL     OW 9034   2.857   0.416   3.091
 2861SOL    HW1 9035   2.767   0.431   3.121
 2861SOL    HW2 9036   2.846   0.370   3.007
 2862SOL     OW 9037   2.916   0.697   2.287
 2862SOL    HW1 9038   2.934   0.691   2.381
 2862SOL    HW2 9039   2.831   0.654   2.276
 2863SOL     OW 9040   1.950   0.822   2.640
 2863SOL    HW1 9041   2.030   0.815   2.692
 2863SOL    HW2 9042   1.906   0.899   2.676
 2864SOL     OW 9043   1.982   1.867   3.444
 2864SOL    HW1 9044   1.989   1.846   3.537
 2864SOL    HW2 9045   1.899   1.828   3.416
 2865SOL     OW 9046   2.745   0.375   2.056
 2865SOL    HW1 9047   2.778   0.431   1.987
 2865SOL    HW2 9048   2.801   0.297   2.053
 2866SOL     OW 9049   3.564   0.568   3.691
 2866SOL    HW1 9050   3.530   0.643   3.641
 2866SOL    HW2 9051   3.598   0.508   3.624
 2867SOL     OW 9052   3.243   1.142   2.401
 2867SOL    HW1 9053   3.322   1.131   2.348
 2867SOL    HW2 9054   3.189   1.204   2.352
 2868SOL     OW 9055   2.377   0.205   2.740
 2868SOL    HW1 9056   2.399   0.218   2.832
 2868SOL    HW2 9057   2.400   0.287   2.697
 2869SOL     OW 9058   2.862   1.444   2.330
 2869SOL    HW1 9059   2.831   1.519   2.278
 2869SOL    HW2 9060   2.837   1.465   2.420
 2870SOL     OW 9061   2.216   1.813   2.731
 2870SOL    HW1 9062   2.260   1.728   2.738
 2870SOL    HW2 9063   2.285   1.878   2.747
 2871SOL     OW 9064   3.663   1.052   2.734
 2871SOL    HW1 9065   3.612   1.031   2.656
 2871SOL    HW2 9066   3.599   1.058   2.805
 2872SOL     OW 9067   3.087   1.534   3.373
 2872SOL    HW1 9068   3.077   1.465   3.438
 2872SOL    HW2 9069   3.027   1.509   3.302
 2873SOL     OW 9070   2.175   0.960   2.116
 2873SOL    HW1 9071   2.258   0.979   2.072
 2873SOL    HW2 9072   2.147   0.877   2.079
 2874SOL     OW 9073   3.344   0.750   2.584
 2874SOL    HW1 9074   3.340   0.711   2.672
 2874SOL    HW2 9075   3.422   0.806   2.587
 2875SOL     OW 9076   2.332   1.269   3.600
 2875SOL    HW1 9077   2.305   1.273   3.509
 2875SOL    HW2 9078   2.249   1.264   3.649
 2876SOL     OW 9079   2.987   1.778   2.091
 2876SOL    HW1 9080   2.910   1.740   2.133
 2876SOL    HW2 9081   3.011   1.715   2.023
 2877SOL     OW 9082   2.060   0.277   3.371
 2877SOL    HW1 9083   1.981   0.331   3.375
 2877SOL    HW2 9084   2.057   0.224   3.451
 2878SOL     OW 9085   3.490   1.382   1.953
 2878SOL    HW1 9086   3.449   1.467   1.938
 2878SOL    HW2 9087   3.422   1.318   1.932
 2879SOL     OW 9088   2.327   1.732   2.185
 2879SOL    HW1 9089   2.371   1.793   2.244
 2879SOL    HW2 9090   2.395   1.704   2.124
 2880SOL     OW 9091   3.272   0.104   2.295
 2880SOL    HW1 9092   3.265   0.079   2.203
 2880SOL    HW2 9093   3.365   0.121   2.308
 2881SOL     OW 9094   2.121   1.788   3.088
 2881SOL    HW1 9095   2.169   1.715   3.127
 2881SOL    HW2 9096   2.109   1.762   2.997
 2882SOL     OW 9097   2.800   1.698   2.756
 2882SOL    HW1 9098   2.880   1.650   2.776
 2882SOL    HW2 9099   2.760   1.647   2.685
 2883SOL     OW 9100   2.258   0.696   2.334
 2883SOL    HW1 9101   2.275   0.603   2.348
 2883SOL    HW2 9102   2.164   0.705   2.352
 2884SOL     OW 9103   3.394   0.228   3.582
 2884SOL    HW1 9104   3.403   0.244   3.676
 2884SOL    HW2 9105   3.317   0.172   3.574
 2885SOL     OW 9106   2.487   0.130   1.971
 2885SOL    HW1 9107   2.534   0.054   2.005
 2885SOL    HW2 9108   2.434   0.095   1.899
 2886SOL     OW 9109   2.635   0.312   3.633
 2886SOL    HW1 9110   2.698   0.240   3.632
 2886SOL    HW2 9111   2.589   0.302   3.717
 2887SOL     OW 9112   2.736   1.523   3.057
 2887SOL    HW1 9113   2.721   1.486   2.970
 2887SOL    HW2 9114   2.807   1.470   3.094
 2888SOL     OW 9115   3.201   0.590   3.295
 2888SOL    HW1 9116   3.231   0.559   3.380
 2888SOL    HW2 9117   3.238   0.677   3.286
 2889SOL     OW 9118   2.680   1.389   2.808
 2889SOL    HW1 9119   2.765   1.378   2.765
 2889SOL    HW2 9120   2.618   1.397   2.735
 2890SOL     OW 9121   2.791   0.512   2.763
 2890SOL    HW1 9122   2.765   0.504   2.671
 2890SOL    HW2 9123   2.819   0.424   2.788
 2891SOL     OW 9124   2.409   0.061   2.366
 2891SOL    HW1 9125   2.325   0.056   2.413
 2891SOL    HW2 9126   2.396   0.129   2.301
 2892SOL     OW 9127   3.290   1.201   1.901
 2892SOL    HW1 9128   3.319   1.126   1.952
 2892SOL    HW2 9129   3.205   1.223   1.938
 2893SOL     OW 9130   2.163   0.068   2.057
 2893SOL    HW1 9131   2.221   0.141   2.037
 2893SOL    HW2 9132   2.219   5.290   2.049
 2894SOL     OW 9133   2.803   0.272   2.324
 2894SOL    HW1 9134   2.776   0.304   2.238
 2894SOL    HW2 9135   2.899   0.280   2.323
 2895SOL     OW 9136   2.943   0.686   3.319
 2895SOL    HW1 9137   2.877   0.616   3.322
 2895SOL    HW2 9138   3.027   0.639   3.313
 2896SOL     OW 9139   3.079   1.573   2.658
 2896SOL    HW1 9140   3.094   1.638   2.588
 2896SOL    HW2 9141   3.150   1.588   2.720
 2897SOL     OW 9142   2.334   1.153   2.589
 2897SOL    HW1 9143   2.268   1.132   2.654
 2897SOL    HW2 9144   2.290   1.140   2.505
 2898SOL     OW 9145   3.126   1.792   2.475
 2898SOL    HW1 9146   3.174   1.854   2.420
 2898SOL    HW2 9147   3.057   1.844   2.515
 2899SOL     OW 9148   2.887   0.542   1.885
 2899SOL    HW1 9149   2.844   0.625   1.869
 2899SOL    HW2 9150   2.949   0.560   1.956
 2900SOL     OW 9151   1.946   0.552   3.256
 2900SOL    HW1 9152   2.037   0.553   3.228
 2900SOL    HW2 9153   1.939   0.622   3.320
 2901SOL     OW 9154   2.412   0.238   3.020
 2901SOL    HW1 9155   2.446   0.155   3.052
 2901SOL    HW2 9156   2.321   0.239   3.049
 2902SOL     OW 9157   2.725   0.467   2.504
 2902SOL    HW1 9158   2.680   0.521   2.440
 2902SOL    HW2 9159   2.752   0.389   2.455
 2903SOL     OW 9160   2.841   0.063   2.630
 2903SOL    HW1 9161   2.778   0.064   2.558
 2903SOL    HW2 9162   2.852   5.270   2.651
 2904SOL     OW 9163   3.302   1.160   2.718
 2904SOL    HW1 9164   3.230   1.097   2.718
 2904SOL    HW2 9165   3.327   1.169   2.626
 2905SOL     OW 9166   3.327   0.612   2.831
 2905SOL    HW1 9167   3.273   0.533   2.834
 2905SOL    HW2 9168   3.386   0.603   2.906
 2906SOL     OW 9169   3.702   0.811   2.247
 2906SOL    HW1 9170   3.760   0.762   2.305
 2906SOL    HW2 9171   3.677   0.749   2.179
 2907SOL     OW 9172   2.351   1.421   2.012
 2907SOL    HW1 9173   2.275   1.393   2.064
 2907SOL    HW2 9174   2.345   1.369   1.932
 2908SOL     OW 9175   3.539   1.264   2.504
 2908SOL    HW1 9176   3.633   1.264   2.519
 2908SOL    HW2 9177   3.512   1.353   2.525
 2909SOL     OW 9178   3.255   0.574   1.933
 2909SOL    HW1 9179   3.193   0.552   2.003
 2909SOL    HW2 9180   3.340   0.546   1.967
 2910SOL     OW 9181   2.381   0.266   2.180
 2910SOL    HW1 9182   2.431   0.220   2.113
 2910SOL    HW2 9183   2.358   0.350   2.139
 2911SOL     OW 9184   3.611   1.243   3.424
 2911SOL    HW1 9185   3.698   1.204   3.418
 2911SOL    HW2 9186   3.626   1.332   3.454
 2912SOL     OW 9187   2.918   1.357   3.198
 2912SOL    HW1 9188   2.842   1.324   3.245
 2912SOL    HW2 9189   2.992   1.310   3.236
 2913SOL     OW 9190   3.469   1.626   3.518
 2913SOL    HW1 9191   3.463   1.662   3.430
 2913SOL    HW2 9192   3.552   1.577   3.518
 2914SOL     OW 9193   2.998   1.213   2.965
 2914SOL    HW1 9194   2.934   1.248   3.027
 2914SOL    HW2 9195   2.969   1.246   2.880
 2915SOL     OW 9196   3.485   1.095   2.937
 2915SOL    HW1 9197   3.478   1.158   3.009
 2915SOL    HW2 9198   3.409   1.114   2.881
 2916SOL     OW 9199   2.762   0.110   3.241
 2916SOL    HW1 9200   2.793   0.075   3.158
 2916SOL    HW2 9201   2.839   0.151   3.280
 2917SOL     OW 9202   2.846   1.116   3.585
 2917SOL    HW1 9203   2.754   1.132   3.609
 2917SOL    HW2 9204   2.843   1.037   3.530
 2918SOL     OW 9205   2.572   1.062   2.233
 2918SOL    HW1 9206   2.558   1.042   2.325
 2918SOL    HW2 9207   2.648   1.009   2.208
 2919SOL     OW 9208   2.283   0.820   3.114
 2919SOL    HW1 9209   2.352   0.829   3.181
 2919SOL    HW2 9210   2.249   0.732   3.127
 2920SOL     OW 9211   3.126   0.376   3.140
 2920SOL    HW1 9212   3.159   0.453   3.186
 2920SOL    HW2 9213   3.036   0.399   3.117
 2921SOL     OW 9214   1.937   1.575   3.220
 2921SOL    HW1 9215   1.906   1.643   3.160
 2921SOL    HW2 9216   2.032   1.573   3.209
 2922SOL     OW 9217   2.199   1.118   2.351
 2922SOL    HW1 9218   2.204   1.192   2.290
 2922SOL    HW2 9219   2.197   1.040   2.296
 2923SOL     OW 9220   2.411   0.531   2.722
 2923SOL    HW1 9221   2.424   0.590   2.647
 2923SOL    HW2 9222   2.478   0.557   2.785
 2924SOL     OW 9223   3.109   1.350   2.253
 2924SOL    HW1 9224   3.165   1.421   2.285
 2924SOL    HW2 9225   3.022   1.371   2.286
 2925SOL     OW 9226   3.152   1.460   3.010
 2925SOL    HW1 9227   3.207   1.463   3.088
 2925SOL    HW2 9228   3.098   1.382   3.022
 2926SOL     OW 9229   3.439   0.620   2.345
 2926SOL    HW1 9230   3.390   0.668   2.411
 2926SOL    HW2 9231   3.484   0.688   2.294
 2927SOL     OW 9232   2.208   1.530   3.170
 2927SOL    HW1 9233   2.197   1.484   3.087
 2927SOL    HW2 9234   2.302   1.541   3.179
 2928SOL     OW 9235   2.281   0.745   3.467
 2928SOL    HW1 9236   2.343   0.788   3.408
 2928SOL    HW2 9237   2.322   0.660   3.486
 2929SOL     OW 9238   3.471   0.781   3.548
 2929SOL    HW1 9239   3.385   0.822   3.543
 2929SOL    HW2 9240   3.523   0.823   3.480
 2930SOL     OW 9241   2.923   0.120   3.654
 2930SOL    HW1 9242   2.950   0.200   3.608
 2930SOL    HW2 9243   2.923   0.053   3.585
 2931SOL     OW 9244   2.346   0.062   3.600
 2931SOL    HW1 9245   2.281   5.297   3.574
 2931SOL    HW2 9246   2.295   0.140   3.621
 2932SOL     OW 9247   2.448   0.874   2.895
 2932SOL    HW1 9248   2.481   0.964   2.897
 2932SOL    HW2 9249   2.390   0.868   2.971
 2933SOL     OW 9250   3.209   0.859   2.883
 2933SOL    HW1 9251   3.123   0.843   2.844
 2933SOL    HW2 9252   3.255   0.776   2.874
 2934SOL     OW 9253   3.062   0.526   2.124
 2934SOL    HW1 9254   3.069   0.446   2.177
 2934SOL    HW2 9255   3.020   0.589   2.182
 2935SOL     OW 9256   2.153   0.201   3.113
 2935SOL    HW1 9257   2.113   0.240   3.191
 2935SOL    HW2 9258   2.158   0.107   3.132
 2936SOL     OW 9259   1.909   1.312   3.136
 2936SOL    HW1 9260   1.940   1.256   3.207
 2936SOL    HW2 9261   1.913   1.400   3.172
 2937SOL     OW 9262   2.584   0.630   2.917
 2937SOL    HW1 9263   2.659   0.617   2.860
 2937SOL    HW2 9264   2.554   0.719   2.897
 2938SOL     OW 9265   3.601   0.959   3.720
 2938SOL    HW1 9266   3.558   0.892   3.668
 2938SOL    HW2 9267   3.540   0.977   3.792
 2939SOL     OW 9268   2.183   0.069   2.532
 2939SOL    HW1 9269   2.148   0.158   2.528
 2939SOL    HW2 9270   2.242   0.070   2.608
 2940SOL     OW 9271   3.482   0.382   2.216
 2940SOL    HW1 9272   3.511   0.314   2.277
 2940SOL    HW2 9273   3.458   0.456   2.272
 2941SOL     OW 9274   2.892   0.759   2.820
 2941SOL    HW1 9275   2.882   0.776   2.914
 2941SOL    HW2 9276   2.864   0.668   2.809
 2942SOL     OW 9277   2.843   1.562   3.589
 2942SOL    HW1 9278   2.824   1.606   3.506
 2942SOL    HW2 9279   2.888   1.481   3.563
 2943SOL     OW 9280   3.713   1.501   3.466
 2943SOL    HW1 9281   3.735   1.529   3.377
 2943SOL    HW2 9282   3.793   1.515   3.516
 2944SOL     OW 9283   2.214   0.918   3.671
 2944SOL    HW1 9284   2.294   0.936   3.720
 2944SOL    HW2 9285   2.240   0.854   3.604
 2945SOL     OW 9286   3.384   0.268   1.986
 2945SOL    HW1 9287   3.318   0.208   2.021
 2945SOL    HW2 9288   3.422   0.309   2.063
 2946SOL     OW 9289   3.149   0.825   1.890
 2946SOL    HW1 9290   3.191   0.739   1.895
 2946SOL    HW2 9291   3.181   0.863   1.809
 2947SOL     OW 9292   2.931   1.339   2.720
 2947SOL    HW1 9293   2.936   1.267   2.657
 2947SOL    HW2 9294   2.988   1.407   2.683
 2948SOL     OW 9295   2.170   0.809   2.808
 2948SOL    HW1 9296   2.264   0.829   2.800
 2948SOL    HW2 9297   2.167   0.718   2.838
 2949SOL     OW 9298   2.190   0.530   2.875
 2949SOL    HW1 9299   2.153   0.442   2.862
 2949SOL    HW2 9300   2.267   0.532   2.818
 2950SOL     OW 9301   2.997   0.375   3.554
 2950SOL    HW1 9302   2.949   0.430   3.616
 2950SOL    HW2 9303   3.084   0.416   3.549
 2951SOL     OW 9304   2.990   0.219   3.331
 2951SOL    HW1 9305   2.993   0.279   3.406
 2951SOL    HW2 9306   3.046   0.260   3.265
 2952SOL     OW 9307   1.869   1.317   2.056
 2952SOL    HW1 9308   1.782   1.334   2.020
 2952SOL    HW2 9309   1.864   1.228   2.091
 2953SOL     OW 9310   1.953   1.781   2.804
 2953SOL    HW1 9311   1.922   1.704   2.757
 2953SOL    HW2 9312   2.042   1.795   2.772
 2954SOL     OW 9313   2.354   1.575   2.767
 2954SOL    HW1 9314   2.424   1.636   2.792
 2954SOL    HW2 9315   2.397   1.512   2.708
 2955SOL     OW 9316   2.835   0.788   3.086
 2955SOL    HW1 9317   2.895   0.769   3.158
 2955SOL    HW2 9318   2.752   0.747   3.112
 2956SOL     OW 9319   1.897   0.548   2.979
 2956SOL    HW1 9320   1.976   0.536   2.926
 2956SOL    HW2 9321   1.929   0.550   3.069
 2957SOL     OW 9322   2.045   0.528   3.595
 2957SOL    HW1 9323   2.111   0.488   3.538
 2957SOL    HW2 9324   2.013   0.603   3.545
 2958SOL     OW 9325   3.243   0.933   3.519
 2958SOL    HW1 9326   3.264   1.027   3.515
 2958SOL    HW2 9327   3.239   0.906   3.427
 2959SOL     OW 9328   2.676   0.577   2.233
 2959SOL    HW1 9329   2.684   0.504   2.171
 2959SOL    HW2 9330   2.601   0.627   2.200
 2960SOL     OW 9331   3.502   0.601   3.042
 2960SOL    HW1 9332   3.492   0.542   3.116
 2960SOL    HW2 9333   3.590   0.583   3.009
 2961SOL     OW 9334   2.100   1.548   3.583
 2961SOL    HW1 9335   2.080   1.611   3.652
 2961SOL    HW2 9336   2.108   1.464   3.630
 2962SOL     OW 9337   2.574   0.445   3.114
 2962SOL    HW1 9338   2.516   0.374   3.086
 2962SOL    HW2 9339   2.568   0.511   3.045
 2963SOL     OW 9340   2.780   1.676   3.343
 2963SOL    HW1 9341   2.757   1.648   3.254
 2963SOL    HW2 9342   2.835   1.753   3.329
 2964SOL     OW 9343   2.318   0.491   2.036
 2964SOL    HW1 9344   2.381   0.559   2.062
 2964SOL    HW2 9345   2.234   0.537   2.030
 2965SOL     OW 9346   2.003   1.143   3.336
 2965SOL    HW1 9347   2.005   1.096   3.419
 2965SOL    HW2 9348   2.020   1.076   3.270
 2966SOL     OW 9349   3.182   1.043   3.081
 2966SOL    HW1 9350   3.203   0.980   3.013
 2966SOL    HW2 9351   3.116   1.101   3.042
 2967SOL     OW 9352   3.178   0.857   2.166
 2967SOL    HW1 9353   3.104   0.824   2.217
 2967SOL    HW2 9354   3.151   0.843   2.075
 2968SOL     OW 9355   3.640   1.737   3.018
 2968SOL    HW1 9356   3.701   1.763   2.949
 2968SOL    HW2 9357   3.614   1.648   2.995
 2969SOL     OW 9358   3.104   1.732   2.973
 2969SOL    HW1 9359   3.186   1.757   2.931
 2969SOL    HW2 9360   3.113   1.638   2.990
 2970SOL     OW 9361   1.949   1.265   2.872
 2970SOL    HW1 9362   1.931   1.280   2.965
 2970SOL    HW2 9363   1.877   1.210   2.842
 2971SOL     OW 9364   2.546   1.665   3.597
 2971SOL    HW1 9365   2.481   1.735   3.587
 2971SOL    HW2 9366   2.609   1.682   3.527
 2972SOL     OW 9367   3.571   0.155   2.356
 2972SOL    HW1 9368   3.647   0.136   2.301
 2972SOL    HW2 9369   3.569   0.083   2.419
 2973SOL     OW 9370   3.255   1.568   2.353
 2973SOL    HW1 9371   3.313   1.602   2.285
 2973SOL    HW2 9372   3.204   1.644   2.381
 2974SOL     OW 9373   2.012   1.797   3.706
 2974SOL    HW1 9374   1.959   1.731   3.751
 2974SOL    HW2 9375   2.050   1.850   3.776
 2975SOL     OW 9376   3.140   0.929   2.533
 2975SOL    HW1 9377   3.214   0.868   2.543
 2975SOL    HW2 9378   3.174   1.000   2.479
 2976SOL     OW 9379   2.668   1.276   3.284
 2976SOL    HW1 9380   2.639   1.316   3.366
 2976SOL    HW2 9381   2.597   1.295   3.222
 2977SOL     OW 9382   2.533   1.621   2.019
 2977SOL    HW1 9383   2.543   1.640   1.926
 2977SOL    HW2 9384   2.475   1.544   2.022
 2978SOL     OW 9385   3.480   1.729   3.253
 2978SOL    HW1 9386   3.534   1.733   3.174
 2978SOL    HW2 9387   3.466   1.820   3.277
 2979SOL     OW 9388   3.710   0.147   2.817
 2979SOL    HW1 9389   3.698   0.053   2.829
 2979SOL    HW2 9390   3.625   0.178   2.784
 2980SOL     OW 9391   2.117   0.329   2.578
 2980SOL    HW1 9392   2.029   0.361   2.557
 2980SOL    HW2 9393   2.118   0.320   2.673
 2981SOL     OW 9394   3.070   1.601   1.895
 2981SOL    HW1 9395   3.059   1.510   1.922
 2981SOL    HW2 9396   3.004   1.615   1.827
 2982SOL     OW 9397   2.685   1.006   3.237
 2982SOL    HW1 9398   2.729   0.998   3.152
 2982SOL    HW2 9399   2.683   1.100   3.254
 2983SOL     OW 9400   2.779   0.911   2.154
 2983SOL    HW1 9401   2.839   0.944   2.087
 2983SOL    HW2 9402   2.829   0.842   2.199
 2984SOL     OW 9403   3.351   1.629   1.907
 2984SOL    HW1 9404   3.257   1.619   1.892
 2984SOL    HW2 9405   3.389   1.635   1.820
 2985SOL     OW 9406   2.228   1.307   3.355
 2985SOL    HW1 9407   2.216   1.381   3.296
 2985SOL    HW2 9408   2.152   1.251   3.339
 2986SOL     OW 9409   3.469   1.283   3.141
 2986SOL    HW1 9410   3.530   1.268   3.213
 2986SOL    HW2 9411   3.410   1.351   3.173
 2987SOL     OW 9412   2.923   1.111   2.574
 2987SOL    HW1 9413   2.850   1.060   2.610
 2987SOL    HW2 9414   2.987   1.044   2.546
 2988SOL     OW 9415   2.879   0.246   2.834
 2988SOL    HW1 9416   2.860   0.201   2.752
 2988SOL    HW2 9417   2.875   0.178   2.901
 2989SOL     OW 9418   2.467   1.488   2.342
 2989SOL    HW1 9419   2.517   1.438   2.277
 2989SOL    HW2 9420   2.397   1.529   2.293
 2990SOL     OW 9421   3.592   0.384   3.239
 2990SOL    HW1 9422   3.664   0.448   3.238
 2990SOL    HW2 9423   3.622   0.315   3.180
 2991SOL     OW 9424   2.124   1.342   2.153
 2991SOL    HW1 9425   2.031   1.338   2.130
 2991SOL    HW2 9426   2.125   1.382   2.240
 2992SOL     OW 9427   1.977   1.034   3.588
 2992SOL    HW1 9428   1.900   1.006   3.638
 2992SOL    HW2 9429   2.051   0.990   3.629
 2993SOL     OW 9430   2.536   0.218   3.356
 2993SOL    HW1 9431   2.617   0.203   3.308
 2993SOL    HW2 9432   2.562   0.266   3.434
 2994SOL     OW 9433   1.942   0.334   1.904
 2994SOL    HW1 9434   1.858   0.300   1.872
 2994SOL    HW2 9435   1.960   0.410   1.848
 2995SOL     OW 9436   3.287   0.857   3.259
 2995SOL    HW1 9437   3.237   0.918   3.205
 2995SOL    HW2 9438   3.376   0.860   3.223
 2996SOL     OW 9439   1.930   0.167   2.172
 2996SOL    HW1 9440   1.936   0.249   2.124
 2996SOL    HW2 9441   2.014   0.124   2.156
 2997SOL     OW 9442   3.040   1.334   1.980
 2997SOL    HW1 9443   2.949   1.304   1.981
 2997SOL    HW2 9444   3.066   1.336   2.072
 2998SOL     OW 9445   2.483   0.831   3.297
 2998SOL    HW1 9446   2.539   0.907   3.283
 2998SOL    HW2 9447   2.543   0.757   3.303
 2999SOL     OW 9448   3.346   1.789   2.851
 2999SOL    HW1 9449   3.368   1.849   2.780
 2999SOL    HW2 9450   3.431   1.756   2.881
 3000SOL     OW 9451   2.577   0.573   3.560
 3000SOL    HW1 9452   2.622   0.634   3.618
 3000SOL    HW2 9453   2.599   0.486   3.594
 3001SOL     OW 9454   3.336   1.195   3.490
 3001SOL    HW1 9455   3.324   1.209   3.584
 3001SOL    HW2 9456   3.428   1.214   3.474
 3002SOL     OW 9457   2.230   1.735   3.417
 3002SOL    HW1 9458   2.148   1.781   3.400
 3002SOL    HW2 9459   2.203   1.651   3.454
 3003SOL     OW 9460   3.526   0.880   3.117
 3003SOL    HW1 9461   3.523   0.794   3.074
 3003SOL    HW2 9462   3.516   0.943   3.046
 3004SOL     OW 9463   3.082   0.317   2.324
 3004SOL    HW1 9464   3.144   0.244   2.319
 3004SOL    HW2 9465   3.112   0.369   2.399
 3005SOL     OW 9466   2.447   0.735   2.536
 3005SOL    HW1 9467   2.488   0.820   2.521
 3005SOL    HW2 9468   2.383   0.726   2.465
 3006SOL     OW 9469   3.625   0.362   3.512
 3006SOL    HW1 9470   3.608   0.378   3.419
 3006SOL    HW2 9471   3.552   0.308   3.540
 3007SOL     OW 9472   3.610   0.934   3.373
 3007SOL    HW1 9473   3.600   1.028   3.385
 3007SOL    HW2 9474   3.592   0.920   3.280
 3008SOL     OW 9475   2.725   1.366   1.905
 3008SOL    HW1 9476   2.687   1.394   1.988
 3008SOL    HW2 9477   2.741   1.447   1.857
 3009SOL     OW 9478   2.528   1.782   2.805
 3009SOL    HW1 9479   2.509   1.872   2.779
 3009SOL    HW2 9480   2.622   1.773   2.797
 3010SOL     OW 9481   2.731   0.971   2.716
 3010SOL    HW1 9482   2.781   0.898   2.753
 3010SOL    HW2 9483   2.692   1.015   2.792
 3011SOL     OW 9484   2.939   0.989   1.951
 3011SOL    HW1 9485   2.918   1.040   1.873
 3011SOL    HW2 9486   3.013   0.934   1.924
 3012SOL     OW 9487   3.709   1.553   2.703
 3012SOL    HW1 9488   3.630   1.540   2.651
 3012SOL    HW2 9489   3.702   1.488   2.774
 3013SOL     OW 9490   2.086   1.298   3.714
 3013SOL    HW1 9491   2.027   1.231   3.680
 3013SOL    HW2 9492   2.060   1.310   3.805
 3014SOL     OW 9493   1.951   1.229   2.527
 3014SOL    HW1 9494   1.963   1.183   2.611
 3014SOL    HW2 9495   2.018   1.192   2.470
 3015SOL     OW 9496   2.547   1.404   3.490
 3015SOL    HW1 9497   2.468   1.363   3.526
 3015SOL    HW2 9498   2.548   1.491   3.531
 3016SOL     OW 9499   3.666   0.173   3.090
 3016SOL    HW1 9500   3.629   0.085   3.086
 3016SOL    HW2 9501   3.696   0.190   3.000
 3017SOL     OW 9502   2.291   0.437   2.388
 3017SOL    HW1 9503   2.325   0.364   2.335
 3017SOL    HW2 9504   2.241   0.394   2.457
 3018SOL     OW 9505   3.559   1.486   2.953
 3018SOL    HW1 9506   3.480   1.465   2.903
 3018SOL    HW2 9507   3.565   1.416   3.018
 3019SOL     OW 9508   2.195   0.562   3.153
 3019SOL    HW1 9509   2.249   0.504   3.207
 3019SOL    HW2 9510   2.213   0.534   3.063
 3020SOL     OW 9511   2.694   1.579   2.534
 3020SOL    HW1 9512   2.673   1.647   2.470
 3020SOL    HW2 9513   2.618   1.521   2.532
 3021SOL     OW 9514   3.288   0.222   2.978
 3021SOL    HW1 9515   3.323   0.146   3.025
 3021SOL    HW2 9516   3.239   0.270   3.044
 3022SOL     OW 9517   2.864   0.018   2.996
 3022SOL    HW1 9518   2.813   5.251   2.951
 3022SOL    HW2 9519   2.949   5.277   3.013
 3023SOL     OW 9520   2.636   1.333   2.184
 3023SOL    HW1 9521   2.609   1.242   2.191
 3023SOL    HW2 9522   2.718   1.338   2.233
 3024SOL     OW 9523   2.482   1.557   3.149
 3024SOL    HW1 9524   2.484   1.640   3.198
 3024SOL    HW2 9525   2.570   1.549   3.113
 3025SOL     OW 9526   3.219   0.030   2.030
 3025SOL    HW1 9527   3.269   5.290   1.959
 3025SOL    HW2 9528   3.140   5.277   2.036
 3026SOL     OW 9529   3.163   0.465   2.543
 3026SOL    HW1 9530   3.109   0.545   2.546
 3026SOL    HW2 9531   3.154   0.427   2.630
 3027SOL     OW 9532   3.458   0.214   2.748
 3027SOL    HW1 9533   3.394   0.227   2.818
 3027SOL    HW2 9534   3.450   0.293   2.694
 3028SOL     OW 9535   1.904   1.066   2.171
 3028SOL    HW1 9536   1.998   1.058   2.152
 3028SOL    HW2 9537   1.877   0.977   2.192
 3029SOL     OW 9538   2.751   1.659   2.196
 3029SOL    HW1 9539   2.677   1.643   2.139
 3029SOL    HW2 9540   2.722   1.728   2.255
 3030SOL     OW 9541   2.083   0.627   3.853
 3030SOL    HW1 9542   1.995   0.620   3.891
 3030SOL    HW2 9543   2.072   0.603   3.761
 3031SOL     OW 9544   2.076   0.287   4.719
 3031SOL    HW1 9545   2.105   0.250   4.802
 3031SOL    HW2 9546   1.995   0.240   4.698
 3032SOL     OW 9547   1.860   0.393   4.361
 3032SOL    HW1 9548   1.776   0.413   4.402
 3032SOL    HW2 9549   1.842   0.317   4.305
 3033SOL     OW 9550   2.430   1.297   4.907
 3033SOL    HW1 9551   2.344   1.302   4.866
 3033SOL    HW2 9552   2.447   1.386   4.939
 3034SOL     OW 9553   3.433   1.514   4.432
 3034SOL    HW1 9554   3.389   1.490   4.514
 3034SOL    HW2 9555   3.363   1.516   4.367
 3035SOL     OW 9556   2.996   0.698   4.420
 3035SOL    HW1 9557   3.043   0.780   4.407
 3035SOL    HW2 9558   2.948   0.710   4.502
 3036SOL     OW 9559   3.637   0.600   3.949
 3036SOL    HW1 9560   3.612   0.594   3.857
 3036SOL    HW2 9561   3.598   0.522   3.989
 3037SOL     OW 9562   2.607   1.137   4.771
 3037SOL    HW1 9563   2.542   1.175   4.829
 3037SOL    HW2 9564   2.647   1.212   4.727
 3038SOL     OW 9565   2.736   0.768   5.549
 3038SOL    HW1 9566   2.725   0.838   5.613
 3038SOL    HW2 9567   2.759   0.813   5.468
 3039SOL     OW 9568   2.548   0.997   4.368
 3039SOL    HW1 9569   2.614   0.989   4.436
 3039SOL    HW2 9570   2.479   1.052   4.406
 3040SOL     OW 9571   2.576   1.149   5.543
 3040SOL    HW1 9572   2.623   1.227   5.573
 3040SOL    HW2 9573   2.496   1.185   5.504
 3041SOL     OW 9574   2.193   1.417   4.791
 3041SOL    HW1 9575   2.119   1.378   4.745
 3041SOL    HW2 9576   2.240   1.467   4.723
 3042SOL     OW 9577   3.321   1.502   5.085
 3042SOL    HW1 9578   3.375   1.580   5.094
 3042SOL    HW2 9579   3.253   1.512   5.152
 3043SOL     OW 9580   2.310   0.394   5.198
 3043SOL    HW1 9581   2.384   0.335   5.204
 3043SOL    HW2 9582   2.234   0.340   5.220
 3044SOL     OW 9583   3.467   0.450   4.465
 3044SOL    HW1 9584   3.392   0.466   4.407
 3044SOL    HW2 9585   3.475   0.529   4.516
 3045SOL     OW 9586   2.079   1.714   4.189
 3045SOL    HW1 9587   2.103   1.786   4.247
 3045SOL    HW2 9588   2.155   1.703   4.132
 3046SOL     OW 9589   2.999   1.343   5.419
 3046SOL    HW1 9590   3.041   1.336   5.505
 3046SOL    HW2 9591   2.947   1.263   5.411
 3047SOL     OW 9592   2.095   1.444   4.261
 3047SOL    HW1 9593   2.073   1.537   4.262
 3047SOL    HW2 9594   2.037   1.404   4.326
 3048SOL     OW 9595   2.128   1.091   4.615
 3048SOL    HW1 9596   2.125   1.003   4.653
 3048SOL    HW2 9597   2.070   1.143   4.671
 3049SOL     OW 9598   2.457   1.798   5.141
 3049SOL    HW1 9599   2.381   1.776   5.194
 3049SOL    HW2 9600   2.486   1.883   5.174
 3050SOL     OW 9601   2.439   0.985   3.864
 3050SOL    HW1 9602   2.489   1.029   3.795
 3050SOL    HW2 9603   2.479   1.016   3.945
 3051SOL     OW 9604   3.449   0.140   5.178
 3051SOL    HW1 9605   3.483   0.220   5.139
 3051SOL    HW2 9606   3.437   0.161   5.271
 3052SOL     OW 9607   1.979   0.657   4.285
 3052SOL    HW1 9608   1.950   0.568   4.306
 3052SOL    HW2 9609   1.972   0.705   4.367
 3053SOL     OW 9610   3.706   1.753   4.054
 3053SOL    HW1 9611   3.774   1.728   4.116
 3053SOL    HW2 9612   3.724   1.846   4.035
 3054SOL     OW 9613   1.902   1.592   3.843
 3054SOL    HW1 9614   1.883   1.500   3.861
 3054SOL    HW2 9615   1.874   1.639   3.921
 3055SOL     OW 9616   3.552   0.919   4.370
 3055SOL    HW1 9617   3.633   0.874   4.345
 3055SOL    HW2 9618   3.529   0.970   4.292
 3056SOL     OW 9619   3.512   1.103   4.154
 3056SOL    HW1 9620   3.598   1.104   4.113
 3056SOL    HW2 9621   3.518   1.167   4.225
 3057SOL     OW 9622   1.986   0.747   5.305
 3057SOL    HW1 9623   2.077   0.777   5.309
 3057SOL    HW2 9624   1.934   0.827   5.310
 3058SOL     OW 9625   2.480   1.390   4.457
 3058SOL    HW1 9626   2.435   1.306   4.466
 3058SOL    HW2 9627   2.464   1.417   4.367
 3059SOL     OW 9628   3.148   1.235   5.145
 3059SOL    HW1 9629   3.178   1.167   5.085
 3059SOL    HW2 9630   3.207   1.230   5.220
 3060SOL     OW 9631   2.680   0.038   4.261
 3060SOL    HW1 9632   2.709   0.125   4.231
 3060SOL    HW2 9633   2.585   0.040   4.251
 3061SOL     OW 9634   2.049   0.962   5.003
 3061SOL    HW1 9635   2.136   0.923   4.988
 3061SOL    HW2 9636   1.991   0.913   4.944
 3062SOL     OW 9637   3.393   0.999   3.924
 3062SOL    HW1 9638   3.324   0.942   3.957
 3062SOL    HW2 9639   3.436   1.033   4.003
 3063SOL     OW 9640   3.046   1.811   5.351
 3063SOL    HW1 9641   3.051   1.871   5.277
 3063SOL    HW2 9642   3.064   1.725   5.313
 3064SOL     OW 9643   2.200   0.276   5.546
 3064SOL    HW1 9644   2.248   0.347   5.587
 3064SOL    HW2 9645   2.112   0.282   5.581
 3065SOL     OW 9646   3.329   1.420   4.670
 3065SOL    HW1 9647   3.263   1.435   4.737
 3065SOL    HW2 9648   3.316   1.329   4.644
 3066SOL     OW 9649   3.519   1.752   4.302
 3066SOL    HW1 9650   3.497   1.723   4.214
 3066SOL    HW2 9651   3.498   1.677   4.358
 3067SOL     OW 9652   2.454   0.716   3.994
 3067SOL    HW1 9653   2.457   0.801   3.948
 3067SOL    HW2 9654   2.388   0.729   4.062
 3068SOL     OW 9655   3.138   0.357   4.656
 3068SOL    HW1 9656   3.048   0.327   4.669
 3068SOL    HW2 9657   3.189   0.305   4.718
 3069SOL     OW 9658   3.443   1.669   4.034
 3069SOL    HW1 9659   3.534   1.697   4.027
 3069SOL    HW2 9660   3.415   1.654   3.944
 3070SOL     OW 9661   2.656   0.619   5.168
 3070SOL    HW1 9662   2.628   0.597   5.257
 3070SOL    HW2 9663   2.619   0.549   5.114
 3071SOL     OW 9664   3.256   0.477   5.402
 3071SOL    HW1 9665   3.259   0.521   5.487
 3071SOL    HW2 9666   3.317   0.404   5.411
 3072SOL     OW 9667   2.812   0.886   5.310
 3072SOL    HW1 9668   2.867   0.818   5.272
 3072SOL    HW2 9669   2.763   0.922   5.236
 3073SOL     OW 9670   2.857   0.415   4.953
 3073SOL    HW1 9671   2.767   0.432   4.983
 3073SOL    HW2 9672   2.846   0.370   4.869
 3074SOL     OW 9673   2.916   0.697   4.149
 3074SOL    HW1 9674   2.934   0.691   4.243
 3074SOL    HW2 9675   2.831   0.654   4.138
 3075SOL     OW 9676   1.950   0.822   4.502
 3075SOL    HW1 9677   2.030   0.815   4.553
 3075SOL    HW2 9678   1.906   0.900   4.538
 3076SOL     OW 9679   1.989   1.871   5.307
 3076SOL    HW1 9680   1.993   1.849   5.400
 3076SOL    HW2 9681   1.905   1.836   5.277
 3077SOL     OW 9682   2.745   0.375   3.918
 3077SOL    HW1 9683   2.778   0.431   3.849
 3077SOL    HW2 9684   2.801   0.297   3.915
 3078SOL     OW 9685   3.564   0.569   5.553
 3078SOL    HW1 9686   3.530   0.643   5.503
 3078SOL    HW2 9687   3.598   0.509   5.486
 3079SOL     OW 9688   3.243   1.142   4.263
 3079SOL    HW1 9689   3.322   1.130   4.211
 3079SOL    HW2 9690   3.190   1.204   4.213
 3080SOL     OW 9691   2.377   0.205   4.602
 3080SOL    HW1 9692   2.399   0.218   4.694
 3080SOL    HW2 9693   2.400   0.287   4.559
 3081SOL     OW 9694   2.862   1.442   4.194
 3081SOL    HW1 9695   2.832   1.515   4.140
 3081SOL    HW2 9696   2.839   1.467   4.283
 3082SOL     OW 9697   2.205   1.790   4.589
 3082SOL    HW1 9698   2.254   1.708   4.595
 3082SOL    HW2 9699   2.261   1.854   4.635
 3083SOL     OW 9700   3.663   1.051   4.596
 3083SOL    HW1 9701   3.612   1.031   4.518
 3083SOL    HW2 9702   3.599   1.058   4.667
 3084SOL     OW 9703   3.088   1.540   5.238
 3084SOL    HW1 9704   3.076   1.468   5.299
 3084SOL    HW2 9705   3.023   1.524   5.169
 3085SOL     OW 9706   2.175   0.960   3.978
 3085SOL    HW1 9707   2.258   0.979   3.934
 3085SOL    HW2 9708   2.147   0.876   3.941
 3086SOL     OW 9709   3.344   0.750   4.446
 3086SOL    HW1 9710   3.340   0.712   4.534
 3086SOL    HW2 9711   3.422   0.806   4.448
 3087SOL     OW 9712   2.332   1.268   5.462
 3087SOL    HW1 9713   2.306   1.273   5.370
 3087SOL    HW2 9714   2.250   1.265   5.510
 3088SOL     OW 9715   2.983   1.777   3.949
 3088SOL    HW1 9716   2.908   1.734   3.990
 3088SOL    HW2 9717   3.012   1.715   3.882
 3089SOL     OW 9718   2.060   0.277   5.233
 3089SOL    HW1 9719   1.981   0.331   5.237
 3089SOL    HW2 9720   2.056   0.224   5.313
 3090SOL     OW 9721   3.491   1.381   3.815
 3090SOL    HW1 9722   3.450   1.466   3.800
 3090SOL    HW2 9723   3.422   1.317   3.793
 3091SOL     OW 9724   2.318   1.722   4.034
 3091SOL    HW1 9725   2.360   1.781   4.096
 3091SOL    HW2 9726   2.390   1.691   3.979
 3092SOL     OW 9727   3.272   0.104   4.157
 3092SOL    HW1 9728   3.264   0.079   4.065
 3092SOL    HW2 9729   3.365   0.121   4.170
 3093SOL     OW 9730   2.117   1.795   4.953
 3093SOL    HW1 9731   2.167   1.724   4.993
 3093SOL    HW2 9732   2.105   1.767   4.862
 3094SOL     OW 9733   2.788   1.710   4.626
 3094SOL    HW1 9734   2.875   1.674   4.642
 3094SOL    HW2 9735   2.756   1.664   4.548
 3095SOL     OW 9736   2.258   0.696   4.196
 3095SOL    HW1 9737   2.275   0.603   4.210
 3095SOL    HW2 9738   2.164   0.706   4.214
 3096SOL     OW 9739   3.394   0.228   5.444
 3096SOL    HW1 9740   3.403   0.244   5.538
 3096SOL    HW2 9741   3.317   0.172   5.436
 3097SOL     OW 9742   2.487   0.130   3.833
 3097SOL    HW1 9743   2.534   0.054   3.867
 3097SOL    HW2 9744   2.434   0.095   3.761
 3098SOL     OW 9745   2.635   0.312   5.495
 3098SOL    HW1 9746   2.698   0.240   5.494
 3098SOL    HW2 9747   2.589   0.302   5.578
 3099SOL     OW 9748   2.733   1.517   4.921
 3099SOL    HW1 9749   2.720   1.483   4.833
 3099SOL    HW2 9750   2.806   1.466   4.956
 3100SOL     OW 9751   3.201   0.589   5.157
 3100SOL    HW1 9752   3.231   0.559   5.242
 3100SOL    HW2 9753   3.237   0.677   5.148
 3101SOL     OW 9754   2.680   1.389   4.669
 3101SOL    HW1 9755   2.766   1.379   4.628
 3101SOL    HW2 9756   2.619   1.394   4.596
 3102SOL     OW 9757   2.791   0.512   4.625
 3102SOL    HW1 9758   2.765   0.504   4.533
 3102SOL    HW2 9759   2.819   0.424   4.650
 3103SOL     OW 9760   2.409   0.061   4.228
 3103SOL    HW1 9761   2.325   0.056   4.275
 3103SOL    HW2 9762   2.396   0.129   4.163
 3104SOL     OW 9763   3.290   1.200   3.763
 3104SOL    HW1 9764   3.320   1.125   3.814
 3104SOL    HW2 9765   3.205   1.223   3.800
 3105SOL     OW 9766   2.163   0.068   3.919
 3105SOL    HW1 9767   2.221   0.141   3.899
 3105SOL    HW2 9768   2.219   5.290   3.911
 3106SOL     OW 9769   2.803   0.272   4.186
 3106SOL    HW1 9770   2.776   0.304   4.100
 3106SOL    HW2 9771   2.899   0.280   4.185
 3107SOL     OW 9772   2.943   0.686   5.181
 3107SOL    HW1 9773   2.877   0.617   5.184
 3107SOL    HW2 9774   3.027   0.639   5.175
 3108SOL     OW 9775   3.081   1.571   4.516
 3108SOL    HW1 9776   3.100   1.634   4.447
 3108SOL    HW2 9777   3.149   1.586   4.582
 3109SOL     OW 9778   2.334   1.154   4.450
 3109SOL    HW1 9779   2.268   1.133   4.516
 3109SOL    HW2 9780   2.290   1.140   4.366
 3110SOL     OW 9781   3.136   1.784   4.333
 3110SOL    HW1 9782   3.191   1.838   4.276
 3110SOL    HW2 9783   3.070   1.844   4.366
 3111SOL     OW 9784   2.887   0.542   3.747
 3111SOL    HW1 9785   2.844   0.625   3.731
 3111SOL    HW2 9786   2.949   0.560   3.818
 3112SOL     OW 9787   1.945   0.552   5.118
 3112SOL    HW1 9788   2.037   0.553   5.090
 3112SOL    HW2 9789   1.939   0.622   5.182
 3113SOL     OW 9790   2.412   0.238   4.882
 3113SOL    HW1 9791   2.446   0.155   4.914
 3113SOL    HW2 9792   2.321   0.239   4.911
 3114SOL     OW 9793   2.725   0.467   4.366
 3114SOL    HW1 9794   2.680   0.521   4.302
 3114SOL    HW2 9795   2.752   0.389   4.317
 3115SOL     OW 9796   2.841   0.063   4.492
 3115SOL    HW1 9797   2.778   0.064   4.420
 3115SOL    HW2 9798   2.852   5.270   4.513
 3116SOL     OW 9799   3.302   1.160   4.581
 3116SOL    HW1 9800   3.230   1.097   4.580
 3116SOL    HW2 9801   3.327   1.169   4.489
 3117SOL     OW 9802   3.327   0.612   4.693
 3117SOL    HW1 9803   3.273   0.533   4.696
 3117SOL    HW2 9804   3.386   0.603   4.768
 3118SOL     OW 9805   3.702   0.811   4.109
 3118SOL    HW1 9806   3.760   0.762   4.167
 3118SOL    HW2 9807   3.677   0.748   4.041
 3119SOL     OW 9808   2.350   1.420   3.874
 3119SOL    HW1 9809   2.274   1.393   3.925
 3119SOL    HW2 9810   2.346   1.366   3.795
 3120SOL     OW 9811   3.538   1.264   4.366
 3120SOL    HW1 9812   3.633   1.263   4.381
 3120SOL    HW2 9813   3.511   1.353   4.387
 3121SOL     OW 9814   3.255   0.574   3.795
 3121SOL    HW1 9815   3.193   0.552   3.865
 3121SOL    HW2 9816   3.340   0.546   3.829
 3122SOL     OW 9817   2.381   0.266   4.042
 3122SOL    HW1 9818   2.431   0.220   3.975
 3122SOL    HW2 9819   2.358   0.350   4.001
 3123SOL     OW 9820   3.611   1.242   5.286
 3123SOL    HW1 9821   3.698   1.204   5.279
 3123SOL    HW2 9822   3.626   1.332   5.316
 3124SOL     OW 9823   2.918   1.354   5.057
 3124SOL    HW1 9824   2.842   1.322   5.106
 3124SOL    HW2 9825   2.993   1.311   5.098
 3125SOL     OW 9826   3.471   1.628   5.383
 3125SOL    HW1 9827   3.463   1.662   5.293
 3125SOL    HW2 9828   3.553   1.578   5.381
 3126SOL     OW 9829   2.997   1.211   4.826
 3126SOL    HW1 9830   2.936   1.248   4.890
 3126SOL    HW2 9831   2.968   1.245   4.742
 3127SOL     OW 9832   3.485   1.095   4.799
 3127SOL    HW1 9833   3.478   1.158   4.871
 3127SOL    HW2 9834   3.409   1.114   4.744
 3128SOL     OW 9835   2.762   0.110   5.103
 3128SOL    HW1 9836   2.793   0.075   5.020
 3128SOL    HW2 9837   2.839   0.151   5.142
 3129SOL     OW 9838   2.846   1.116   5.447
 3129SOL    HW1 9839   2.755   1.132   5.471
 3129SOL    HW2 9840   2.843   1.037   5.392
 3130SOL     OW 9841   2.572   1.063   4.095
 3130SOL    HW1 9842   2.558   1.042   4.187
 3130SOL    HW2 9843   2.648   1.009   4.070
 3131SOL     OW 9844   2.283   0.820   4.976
 3131SOL    HW1 9845   2.352   0.829   5.043
 3131SOL    HW2 9846   2.249   0.732   4.989
 3132SOL     OW 9847   3.126   0.376   5.002
 3132SOL    HW1 9848   3.159   0.453   5.048
 3132SOL    HW2 9849   3.036   0.399   4.979
 3133SOL     OW 9850   1.937   1.574   5.082
 3133SOL    HW1 9851   1.908   1.645   5.024
 3133SOL    HW2 9852   2.032   1.573   5.072
 3134SOL     OW 9853   2.198   1.118   4.213
 3134SOL    HW1 9854   2.203   1.191   4.151
 3134SOL    HW2 9855   2.197   1.040   4.158
 3135SOL     OW 9856   2.411   0.531   4.584
 3135SOL    HW1 9857   2.424   0.590   4.509
 3135SOL    HW2 9858   2.478   0.557   4.647
 3136SOL     OW 9859   3.109   1.349   4.114
 3136SOL    HW1 9860   3.166   1.419   4.145
 3136SOL    HW2 9861   3.023   1.370   4.149
 3137SOL     OW 9862   3.152   1.461   4.872
 3137SOL    HW1 9863   3.207   1.466   4.951
 3137SOL    HW2 9864   3.096   1.385   4.887
 3138SOL     OW 9865   3.439   0.620   4.207
 3138SOL    HW1 9866   3.390   0.668   4.273
 3138SOL    HW2 9867   3.484   0.688   4.156
 3139SOL     OW 9868   2.206   1.532   5.032
 3139SOL    HW1 9869   2.196   1.486   4.949
 3139SOL    HW2 9870   2.301   1.543   5.042
 3140SOL     OW 9871   2.281   0.745   5.329
 3140SOL    HW1 9872   2.343   0.789   5.270
 3140SOL    HW2 9873   2.322   0.661   5.348
 3141SOL     OW 9874   3.471   0.781   5.410
 3141SOL    HW1 9875   3.385   0.822   5.404
 3141SOL    HW2 9876   3.523   0.823   5.342
 3142SOL     OW 9877   2.923   0.120   5.516
 3142SOL    HW1 9878   2.950   0.201   5.471
 3142SOL    HW2 9879   2.923   0.053   5.447
 3143SOL     OW 9880   2.346   0.062   5.462
 3143SOL    HW1 9881   2.281   5.297   5.436
 3143SOL    HW2 9882   2.295   0.140   5.483
 3144SOL     OW 9883   2.447   0.874   4.756
 3144SOL    HW1 9884   2.481   0.964   4.759
 3144SOL    HW2 9885   2.390   0.868   4.833
 3145SOL     OW 9886   3.209   0.859   4.746
 3145SOL    HW1 9887   3.123   0.844   4.706
 3145SOL    HW2 9888   3.255   0.776   4.736
 3146SOL     OW 9889   3.062   0.526   3.986
 3146SOL    HW1 9890   3.069   0.446   4.039
 3146SOL    HW2 9891   3.020   0.589   4.044
 3147SOL     OW 9892   2.153   0.201   4.975
 3147SOL    HW1 9893   2.113   0.240   5.053
 3147SOL    HW2 9894   2.158   0.107   4.994
 3148SOL     OW 9895   1.908   1.312   4.998
 3148SOL    HW1 9896   1.940   1.256   5.068
 3148SOL    HW2 9897   1.913   1.401   5.034
 3149SOL     OW 9898   2.583   0.630   4.779
 3149SOL    HW1 9899   2.659   0.617   4.722
 3149SOL    HW2 9900   2.554   0.719   4.759
 3150SOL     OW 9901   3.601   0.959   5.582
 3150SOL    HW1 9902   3.558   0.892   5.530
 3150SOL    HW2 9903   3.540   0.977   5.654
 3151SOL     OW 9904   2.184   0.069   4.394
 3151SOL    HW1 9905   2.148   0.158   4.390
 3151SOL    HW2 9906   2.242   0.070   4.470
 3152SOL     OW 9907   3.482   0.382   4.078
 3152SOL    HW1 9908   3.511   0.314   4.139
 3152SOL    HW2 9909   3.458   0.456   4.134
 3153SOL     OW 9910   2.892   0.759   4.682
 3153SOL    HW1 9911   2.882   0.776   4.776
 3153SOL    HW2 9912   2.864   0.668   4.671
 3154SOL     OW 9913   2.843   1.567   5.445
 3154SOL    HW1 9914   2.826   1.610   5.361
 3154SOL    HW2 9915   2.886   1.485   5.422
 3155SOL     OW 9916   3.713   1.501   5.328
 3155SOL    HW1 9917   3.735   1.528   5.239
 3155SOL    HW2 9918   3.793   1.515   5.378
 3156SOL     OW 9919   2.214   0.917   5.533
 3156SOL    HW1 9920   2.294   0.936   5.582
 3156SOL    HW2 9921   2.240   0.854   5.467
 3157SOL     OW 9922   3.383   0.268   3.848
 3157SOL    HW1 9923   3.318   0.208   3.883
 3157SOL    HW2 9924   3.422   0.309   3.925
 3158SOL     OW 9925   3.148   0.825   3.752
 3158SOL    HW1 9926   3.190   0.739   3.757
 3158SOL    HW2 9927   3.181   0.863   3.671
 3159SOL     OW 9928   2.931   1.338   4.582
 3159SOL    HW1 9929   2.936   1.267   4.519
 3159SOL    HW2 9930   2.987   1.407   4.546
 3160SOL     OW 9931   2.170   0.809   4.670
 3160SOL    HW1 9932   2.264   0.829   4.663
 3160SOL    HW2 9933   2.168   0.718   4.700
 3161SOL     OW 9934   2.190   0.530   4.737
 3161SOL    HW1 9935   2.153   0.442   4.724
 3161SOL    HW2 9936   2.267   0.532   4.680
 3162SOL     OW 9937   2.997   0.375   5.416
 3162SOL    HW1 9938   2.949   0.430   5.478
 3162SOL    HW2 9939   3.084   0.416   5.411
 3163SOL     OW 9940   2.990   0.219   5.193
 3163SOL    HW1 9941   2.993   0.279   5.268
 3163SOL    HW2 9942   3.046   0.260   5.127
 3164SOL     OW 9943   1.870   1.317   3.918
 3164SOL    HW1 9944   1.782   1.334   3.882
 3164SOL    HW2 9945   1.865   1.228   3.953
 3165SOL     OW 9946   1.942   1.784   4.665
 3165SOL    HW1 9947   1.914   1.705   4.618
 3165SOL    HW2 9948   2.031   1.799   4.635
 3166SOL     OW 9949   2.361   1.571   4.628
 3166SOL    HW1 9950   2.429   1.635   4.649
 3166SOL    HW2 9951   2.403   1.508   4.570
 3167SOL     OW 9952   2.835   0.788   4.947
 3167SOL    HW1 9953   2.895   0.769   5.020
 3167SOL    HW2 9954   2.752   0.748   4.974
 3168SOL     OW 9955   1.898   0.548   4.841
 3168SOL    HW1 9956   1.976   0.536   4.788
 3168SOL    HW2 9957   1.929   0.550   4.931
 3169SOL     OW 9958   2.045   0.528   5.456
 3169SOL    HW1 9959   2.112   0.489   5.400
 3169SOL    HW2 9960   2.012   0.603   5.407
 3170SOL     OW 9961   3.243   0.933   5.381
 3170SOL    HW1 9962   3.264   1.026   5.377
 3170SOL    HW2 9963   3.239   0.906   5.289
 3171SOL     OW 9964   2.676   0.577   4.095
 3171SOL    HW1 9965   2.684   0.504   4.033
 3171SOL    HW2 9966   2.601   0.627   4.062
 3172SOL     OW 9967   3.502   0.601   4.904
 3172SOL    HW1 9968   3.492   0.542   4.978
 3172SOL    HW2 9969   3.590   0.583   4.871
 3173SOL     OW 9970   2.099   1.549   5.447
 3173SOL    HW1 9971   2.079   1.613   5.515
 3173SOL    HW2 9972   2.107   1.465   5.493
 3174SOL     OW 9973   2.574   0.445   4.976
 3174SOL    HW1 9974   2.516   0.375   4.948
 3174SOL    HW2 9975   2.568   0.511   4.907
 3175SOL     OW 9976   2.781   1.680   5.194
 3175SOL    HW1 9977   2.763   1.640   5.109
 3175SOL    HW2 9978   2.777   1.774   5.178
 3176SOL     OW 9979   2.318   0.491   3.898
 3176SOL    HW1 9980   2.380   0.559   3.924
 3176SOL    HW2 9981   2.234   0.537   3.892
 3177SOL     OW 9982   2.003   1.143   5.198
 3177SOL    HW1 9983   2.005   1.096   5.281
 3177SOL    HW2 9984   2.020   1.076   5.132
 3178SOL     OW 9985   3.182   1.043   4.944
 3178SOL    HW1 9986   3.203   0.980   4.875
 3178SOL    HW2 9987   3.116   1.100   4.904
 3179SOL     OW 9988   3.178   0.857   4.027
 3179SOL    HW1 9989   3.104   0.824   4.079
 3179SOL    HW2 9990   3.151   0.843   3.937
 3180SOL     OW 9991   3.642   1.736   4.882
 3180SOL    HW1 9992   3.701   1.763   4.812
 3180SOL    HW2 9993   3.614   1.648   4.857
 3181SOL     OW 9994   3.103   1.732   4.826
 3181SOL    HW1 9995   3.187   1.758   4.787
 3181SOL    HW2 9996   3.113   1.640   4.847
 3182SOL     OW 9997   1.949   1.266   4.734
 3182SOL    HW1 9998   1.931   1.280   4.827
 3182SOL    HW2 9999   1.877   1.210   4.704
 3183SOL     OW10000   2.540   1.670   5.462
 3183SOL    HW110001   2.484   1.748   5.458
 3183SOL    HW210002   2.610   1.689   5.400
 3184SOL     OW10003   3.571   0.155   4.218
 3184SOL    HW110004   3.647   0.136   4.163
 3184SOL    HW210005   3.569   0.083   4.281
 3185SOL     OW10006   3.258   1.563   4.212
 3185SOL    HW110007   3.317   1.597   4.145
 3185SOL    HW210008   3.209   1.639   4.242
 3186SOL     OW10009   2.001   1.797   5.567
 3186SOL    HW110010   1.952   1.730   5.613
 3186SOL    HW210011   2.049   1.843   5.636
 3187SOL     OW10012   3.140   0.928   4.395
 3187SOL    HW110013   3.214   0.868   4.405
 3187SOL    HW210014   3.174   1.000   4.341
 3188SOL     OW10015   2.668   1.276   5.149
 3188SOL    HW110016   2.640   1.317   5.230
 3188SOL    HW210017   2.599   1.297   5.086
 3189SOL     OW10018   2.531   1.620   3.873
 3189SOL    HW110019   2.546   1.632   3.780
 3189SOL    HW210020   2.475   1.543   3.879
 3190SOL     OW10021   3.481   1.727   5.116
 3190SOL    HW110022   3.535   1.732   5.037
 3190SOL    HW210023   3.467   1.818   5.141
 3191SOL     OW10024   3.710   0.147   4.679
 3191SOL    HW110025   3.698   0.053   4.690
 3191SOL    HW210026   3.625   0.178   4.646
 3192SOL     OW10027   2.117   0.329   4.440
 3192SOL    HW110028   2.029   0.361   4.419
 3192SOL    HW210029   2.118   0.320   4.535
 3193SOL     OW10030   3.071   1.601   3.755
 3193SOL    HW110031   3.061   1.510   3.784
 3193SOL    HW210032   3.003   1.614   3.689
 3194SOL     OW10033   2.685   1.007   5.099
 3194SOL    HW110034   2.729   1.000   5.014
 3194SOL    HW210035   2.682   1.101   5.117
 3195SOL     OW10036   2.779   0.911   4.015
 3195SOL    HW110037   2.840   0.944   3.949
 3195SOL    HW210038   2.828   0.843   4.061
 3196SOL     OW10039   3.352   1.627   3.769
 3196SOL    HW110040   3.258   1.618   3.754
 3196SOL    HW210041   3.390   1.633   3.681
 3197SOL     OW10042   2.229   1.306   5.217
 3197SOL    HW110043   2.216   1.382   5.159
 3197SOL    HW210044   2.152   1.251   5.201
 3198SOL     OW10045   3.469   1.284   5.003
 3198SOL    HW110046   3.529   1.268   5.076
 3198SOL    HW210047   3.409   1.351   5.036
 3199SOL     OW10048   2.923   1.111   4.435
 3199SOL    HW110049   2.850   1.060   4.472
 3199SOL    HW210050   2.987   1.044   4.408
 3200SOL     OW10051   2.879   0.246   4.696
 3200SOL    HW110052   2.860   0.201   4.614
 3200SOL    HW210053   2.874   0.178   4.763
 3201SOL     OW10054   2.467   1.487   4.203
 3201SOL    HW110055   2.518   1.437   4.139
 3201SOL    HW210056   2.393   1.521   4.153
 3202SOL     OW10057   3.593   0.384   5.101
 3202SOL    HW110058   3.664   0.448   5.100
 3202SOL    HW210059   3.622   0.315   5.042
 3203SOL     OW10060   2.125   1.342   4.016
 3203SOL    HW110061   2.032   1.339   3.992
 3203SOL    HW210062   2.125   1.382   4.104
 3204SOL     OW10063   1.976   1.032   5.448
 3204SOL    HW110064   1.900   1.005   5.499
 3204SOL    HW210065   2.051   0.990   5.491
 3205SOL     OW10066   2.536   0.218   5.218
 3205SOL    HW110067   2.617   0.203   5.170
 3205SOL    HW210068   2.562   0.267   5.296
 3206SOL     OW10069   1.942   0.334   3.766
 3206SOL    HW110070   1.858   0.300   3.734
 3206SOL    HW210071   1.960   0.410   3.710
 3207SOL     OW10072   3.287   0.857   5.121
 3207SOL    HW110073   3.237   0.918   5.067
 3207SOL    HW210074   3.376   0.860   5.085
 3208SOL     OW10075   1.930   0.167   4.034
 3208SOL    HW110076   1.936   0.249   3.985
 3208SOL    HW210077   2.014   0.124   4.018
 3209SOL     OW10078   3.041   1.334   3.843
 3209SOL    HW110079   2.951   1.300   3.845
 3209SOL    HW210080   3.068   1.336   3.934
 3210SOL     OW10081   2.483   0.831   5.159
 3210SOL    HW110082   2.539   0.907   5.144
 3210SOL    HW210083   2.543   0.757   5.165
 3211SOL     OW10084   3.347   1.793   4.709
 3211SOL    HW110085   3.372   1.856   4.641
 3211SOL    HW210086   3.430   1.758   4.742
 3212SOL     OW10087   2.577   0.573   5.422
 3212SOL    HW110088   2.622   0.634   5.480
 3212SOL    HW210089   2.599   0.486   5.456
 3213SOL     OW10090   3.336   1.194   5.353
 3213SOL    HW110091   3.324   1.209   5.446
 3213SOL    HW210092   3.428   1.213   5.337
 3214SOL     OW10093   2.232   1.739   5.288
 3214SOL    HW110094   2.150   1.785   5.273
 3214SOL    HW210095   2.207   1.656   5.329
 3215SOL     OW10096   3.526   0.880   4.979
 3215SOL    HW110097   3.523   0.794   4.936
 3215SOL    HW210098   3.516   0.943   4.908
 3216SOL     OW10099   3.082   0.317   4.186
 3216SOL    HW110100   3.144   0.244   4.181
 3216SOL    HW210101   3.112   0.369   4.261
 3217SOL     OW10102   2.447   0.735   4.398
 3217SOL    HW110103   2.488   0.820   4.383
 3217SOL    HW210104   2.383   0.726   4.327
 3218SOL     OW10105   3.625   0.362   5.374
 3218SOL    HW110106   3.608   0.378   5.281
 3218SOL    HW210107   3.552   0.308   5.402
 3219SOL     OW10108   3.611   0.934   5.235
 3219SOL    HW110109   3.600   1.028   5.247
 3219SOL    HW210110   3.592   0.919   5.142
 3220SOL     OW10111   2.721   1.364   3.765
 3220SOL    HW110112   2.688   1.393   3.851
 3220SOL    HW210113   2.743   1.446   3.720
 3221SOL     OW10114   2.523   1.802   4.666
 3221SOL    HW110115   2.527   1.873   4.730
 3221SOL    HW210116   2.614   1.773   4.657
 3222SOL     OW10117   2.731   0.971   4.577
 3222SOL    HW110118   2.781   0.898   4.615
 3222SOL    HW210119   2.693   1.015   4.653
 3223SOL     OW10120   2.939   0.990   3.813
 3223SOL    HW110121   2.918   1.040   3.734
 3223SOL    HW210122   3.013   0.934   3.787
 3224SOL     OW10123   3.710   1.553   4.566
 3224SOL    HW110124   3.631   1.542   4.512
 3224SOL    HW210125   3.700   1.489   4.636
 3225SOL     OW10126   2.088   1.299   5.577
 3225SOL    HW110127   2.026   1.233   5.544
 3225SOL    HW210128   2.064   1.311   5.669
 3226SOL     OW10129   1.952   1.229   4.389
 3226SOL    HW110130   1.962   1.184   4.473
 3226SOL    HW210131   2.018   1.190   4.332
 3227SOL     OW10132   2.546   1.408   5.354
 3227SOL    HW110133   2.468   1.365   5.389
 3227SOL    HW210134   2.544   1.496   5.392
 3228SOL     OW10135   3.666   0.172   4.952
 3228SOL    HW110136   3.629   0.084   4.948
 3228SOL    HW210137   3.696   0.190   4.862
 3229SOL     OW10138   2.291   0.437   4.249
 3229SOL    HW110139   2.325   0.364   4.197
 3229SOL    HW210140   2.241   0.395   4.319
 3230SOL     OW10141   3.559   1.486   4.815
 3230SOL    HW110142   3.480   1.466   4.765
 3230SOL    HW210143   3.564   1.416   4.881
 3231SOL     OW10144   2.195   0.562   5.015
 3231SOL    HW110145   2.249   0.504   5.069
 3231SOL    HW210146   2.213   0.534   4.925
 3232SOL     OW10147   2.694   1.585   4.397
 3232SOL    HW110148   2.670   1.649   4.330
 3232SOL    HW210149   2.621   1.523   4.398
 3233SOL     OW10150   3.288   0.222   4.840
 3233SOL    HW110151   3.323   0.146   4.887
 3233SOL    HW210152   3.239   0.270   4.906
 3234SOL     OW10153   2.864   0.018   4.858
 3234SOL    HW110154   2.813   5.251   4.813
 3234SOL    HW210155   2.949   5.277   4.875
 3235SOL     OW10156   2.637   1.333   4.045
 3235SOL    HW110157   2.609   1.242   4.052
 3235SOL    HW210158   2.718   1.338   4.095
 3236SOL     OW10159   2.480   1.557   5.010
 3236SOL    HW110160   2.480   1.640   5.056
 3236SOL    HW210161   2.569   1.547   4.977
 3237SOL     OW10162   3.219   0.030   3.892
 3237SOL    HW110163   3.270   5.290   3.821
 3237SOL    HW210164   3.140   5.276   3.898
 3238SOL     OW10165   3.163   0.465   4.405
 3238SOL    HW110166   3.109   0.545   4.408
 3238SOL    HW210167   3.154   0.427   4.492
 3239SOL     OW10168   3.458   0.214   4.610
 3239SOL    HW110169   3.394   0.227   4.680
 3239SOL    HW210170   3.450   0.293   4.556
 3240SOL     OW10171   1.905   1.066   4.033
 3240SOL    HW110172   1.998   1.057   4.013
 3240SOL    HW210173   1.877   0.977   4.054
 3241SOL     OW10174   2.754   1.648   4.046
 3241SOL    HW110175   2.679   1.629   3.989
 3241SOL    HW210176   2.720   1.712   4.108
 3242SOL     OW10177   2.083   0.626   5.715
 3242SOL    HW110178   1.995   0.620   5.753
 3242SOL    HW210179   2.071   0.603   5.623
 3243SOL     OW10180   2.076   0.288   6.581
 3243SOL    HW110181   2.105   0.250   6.663
 3243SOL    HW210182   1.995   0.241   6.560
 3244SOL     OW10183   1.860   0.393   6.223
 3244SOL    HW110184   1.776   0.413   6.264
 3244SOL    HW210185   1.842   0.317   6.167
 3245SOL     OW10186   2.430   1.297   6.769
 3245SOL    HW110187   2.344   1.303   6.727
 3245SOL    HW210188   2.447   1.386   6.801
 3246SOL     OW10189   3.433   1.514   6.295
 3246SOL    HW110190   3.390   1.491   6.377
 3246SOL    HW210191   3.363   1.518   6.230
 3247SOL     OW10192   2.997   0.698   6.282
 3247SOL    HW110193   3.043   0.780   6.269
 3247SOL    HW210194   2.948   0.710   6.364
 3248SOL     OW10195   3.637   0.600   5.811
 3248SOL    HW110196   3.612   0.594   5.719
 3248SOL    HW210197   3.598   0.522   5.851
 3249SOL     OW10198   2.607   1.137   6.633
 3249SOL    HW110199   2.541   1.175   6.691
 3249SOL    HW210200   2.647   1.212   6.589
 3250SOL     OW10201   2.733   0.768   7.406
 3250SOL    HW110202   2.726   0.840   7.468
 3250SOL    HW210203   2.759   0.810   7.324
 3251SOL     OW10204   2.548   0.997   6.230
 3251SOL    HW110205   2.614   0.989   6.299
 3251SOL    HW210206   2.479   1.052   6.268
 3252SOL     OW10207   2.576   1.151   7.403
 3252SOL    HW110208   2.624   1.229   7.435
 3252SOL    HW210209   2.496   1.187   7.364
 3253SOL     OW10210   2.193   1.417   6.653
 3253SOL    HW110211   2.119   1.378   6.606
 3253SOL    HW210212   2.239   1.469   6.586
 3254SOL     OW10213   3.321   1.502   6.947
 3254SOL    HW110214   3.375   1.581   6.956
 3254SOL    HW210215   3.253   1.512   7.013
 3255SOL     OW10216   2.310   0.395   7.061
 3255SOL    HW110217   2.385   0.336   7.067
 3255SOL    HW210218   2.234   0.340   7.082
 3256SOL     OW10219   3.467   0.450   6.327
 3256SOL    HW110220   3.392   0.466   6.269
 3256SOL    HW210221   3.475   0.529   6.379
 3257SOL     OW10222   2.082   1.717   6.055
 3257SOL    HW110223   2.103   1.792   6.110
 3257SOL    HW210224   2.157   1.707   5.997
 3258SOL     OW10225   2.999   1.342   7.276
 3258SOL    HW110226   3.039   1.338   7.363
 3258SOL    HW210227   2.948   1.261   7.269
 3259SOL     OW10228   2.094   1.445   6.122
 3259SOL    HW110229   2.075   1.539   6.123
 3259SOL    HW210230   2.036   1.408   6.188
 3260SOL     OW10231   2.128   1.091   6.477
 3260SOL    HW110232   2.124   1.003   6.515
 3260SOL    HW210233   2.070   1.143   6.532
 3261SOL     OW10234   2.461   1.792   7.007
 3261SOL    HW110235   2.382   1.773   7.059
 3261SOL    HW210236   2.488   1.879   7.035
 3262SOL     OW10237   2.440   0.985   5.726
 3262SOL    HW110238   2.489   1.030   5.657
 3262SOL    HW210239   2.479   1.016   5.807
 3263SOL     OW10240   3.450   0.139   7.041
 3263SOL    HW110241   3.483   0.220   7.002
 3263SOL    HW210242   3.436   0.161   7.133
 3264SOL     OW10243   1.979   0.657   6.147
 3264SOL    HW110244   1.950   0.568   6.168
 3264SOL    HW210245   1.972   0.705   6.229
 3265SOL     OW10246   3.706   1.754   5.917
 3265SOL    HW110247   3.775   1.728   5.978
 3265SOL    HW210248   3.724   1.846   5.897
 3266SOL     OW10249   1.900   1.591   5.706
 3266SOL    HW110250   1.882   1.499   5.726
 3266SOL    HW210251   1.875   1.638   5.786
 3267SOL     OW10252   3.552   0.919   6.232
 3267SOL    HW110253   3.633   0.874   6.207
 3267SOL    HW210254   3.529   0.970   6.154
 3268SOL     OW10255   3.512   1.103   6.016
 3268SOL    HW110256   3.598   1.104   5.975
 3268SOL    HW210257   3.518   1.167   6.087
 3269SOL     OW10258   1.986   0.746   7.169
 3269SOL    HW110259   2.077   0.777   7.171
 3269SOL    HW210260   1.933   0.826   7.173
 3270SOL     OW10261   2.477   1.391   6.321
 3270SOL    HW110262   2.433   1.306   6.329
 3270SOL    HW210263   2.461   1.418   6.231
 3271SOL     OW10264   3.148   1.236   7.006
 3271SOL    HW110265   3.178   1.167   6.947
 3271SOL    HW210266   3.206   1.231   7.082
 3272SOL     OW10267   2.680   0.038   6.123
 3272SOL    HW110268   2.709   0.125   6.093
 3272SOL    HW210269   2.585   0.040   6.113
 3273SOL     OW10270   2.049   0.961   6.865
 3273SOL    HW110271   2.136   0.923   6.850
 3273SOL    HW210272   1.991   0.914   6.805
 3274SOL     OW10273   3.393   0.999   5.786
 3274SOL    HW110274   3.324   0.942   5.819
 3274SOL    HW210275   3.436   1.032   5.865
 3275SOL     OW10276   3.046   1.813   7.211
 3275SOL    HW110277   3.051   1.874   7.138
 3275SOL    HW210278   3.064   1.727   7.173
 3276SOL     OW10279   2.199   0.269   7.420
 3276SOL    HW110280   2.246   0.346   7.453
 3276SOL    HW210281   2.108   0.283   7.446
 3277SOL     OW10282   3.330   1.419   6.533
 3277SOL    HW110283   3.263   1.435   6.599
 3277SOL    HW210284   3.316   1.328   6.507
 3278SOL     OW10285   3.514   1.754   6.163
 3278SOL    HW110286   3.497   1.720   6.075
 3278SOL    HW210287   3.496   1.680   6.221
 3279SOL     OW10288   2.454   0.717   5.855
 3279SOL    HW110289   2.457   0.801   5.810
 3279SOL    HW210290   2.389   0.729   5.924
 3280SOL     OW10291   3.138   0.357   6.518
 3280SOL    HW110292   3.048   0.327   6.531
 3280SOL    HW210293   3.189   0.305   6.580
 3281SOL     OW10294   3.440   1.674   5.896
 3281SOL    HW110295   3.532   1.699   5.888
 3281SOL    HW210296   3.412   1.657   5.807
 3282SOL     OW10297   2.656   0.619   7.030
 3282SOL    HW110298   2.627   0.597   7.119
 3282SOL    HW210299   2.619   0.550   6.976
 3283SOL     OW10300   3.256   0.476   7.264
 3283SOL    HW110301   3.259   0.521   7.349
 3283SOL    HW210302   3.316   0.403   7.273
 3284SOL     OW10303   2.814   0.887   7.170
 3284SOL    HW110304   2.869   0.818   7.132
 3284SOL    HW210305   2.765   0.923   7.097
 3285SOL     OW10306   2.857   0.415   6.815
 3285SOL    HW110307   2.767   0.432   6.845
 3285SOL    HW210308   2.846   0.371   6.731
 3286SOL     OW10309   2.916   0.697   6.011
 3286SOL    HW110310   2.934   0.691   6.105
 3286SOL    HW210311   2.831   0.654   6.000
 3287SOL     OW10312   1.950   0.822   6.364
 3287SOL    HW110313   2.030   0.815   6.415
 3287SOL    HW210314   1.906   0.899   6.400
 3288SOL     OW10315   1.986   1.871   7.170
 3288SOL    HW110316   1.990   1.847   7.263
 3288SOL    HW210317   1.901   1.837   7.141
 3289SOL     OW10318   2.745   0.375   5.780
 3289SOL    HW110319   2.778   0.431   5.711
 3289SOL    HW210320   2.801   0.297   5.777
 3290SOL     OW10321   3.567   0.569   7.417
 3290SOL    HW110322   3.532   0.644   7.368
 3290SOL    HW210323   3.598   0.509   7.349
 3291SOL     OW10324   3.243   1.142   6.125
 3291SOL    HW110325   3.322   1.131   6.073
 3291SOL    HW210326   3.189   1.204   6.076
 3292SOL     OW10327   2.377   0.205   6.463
 3292SOL    HW110328   2.399   0.218   6.556
 3292SOL    HW210329   2.400   0.287   6.421
 3293SOL     OW10330   2.862   1.444   6.054
 3293SOL    HW110331   2.831   1.519   6.003
 3293SOL    HW210332   2.837   1.465   6.144
 3294SOL     OW10333   2.216   1.813   6.455
 3294SOL    HW110334   2.260   1.728   6.461
 3294SOL    HW210335   2.285   1.877   6.472
 3295SOL     OW10336   3.663   1.052   6.458
 3295SOL    HW110337   3.611   1.031   6.380
 3295SOL    HW210338   3.599   1.058   6.529
 3296SOL     OW10339   3.089   1.541   7.098
 3296SOL    HW110340   3.077   1.468   7.160
 3296SOL    HW210341   3.021   1.528   7.032
 3297SOL     OW10342   2.175   0.960   5.840
 3297SOL    HW110343   2.258   0.979   5.796
 3297SOL    HW210344   2.147   0.877   5.803
 3298SOL     OW10345   3.344   0.750   6.308
 3298SOL    HW110346   3.340   0.712   6.396
 3298SOL    HW210347   3.422   0.806   6.310
 3299SOL     OW10348   2.331   1.267   7.324
 3299SOL    HW110349   2.305   1.272   7.232
 3299SOL    HW210350   2.249   1.264   7.372
 3300SOL     OW10351   2.987   1.779   5.814
 3300SOL    HW110352   2.910   1.740   5.857
 3300SOL    HW210353   3.011   1.715   5.747
 3301SOL     OW10354   2.060   0.277   7.094
 3301SOL    HW110355   1.982   0.332   7.097
 3301SOL    HW210356   2.053   0.222   7.173
 3302SOL     OW10357   3.490   1.382   5.678
 3302SOL    HW110358   3.449   1.467   5.662
 3302SOL    HW210359   3.423   1.318   5.656
 3303SOL     OW10360   2.327   1.733   5.908
 3303SOL    HW110361   2.372   1.793   5.968
 3303SOL    HW210362   2.395   1.703   5.848
 3304SOL     OW10363   3.272   0.104   6.019
 3304SOL    HW110364   3.265   0.079   5.927
 3304SOL    HW210365   3.365   0.121   6.032
 3305SOL     OW10366   2.118   1.790   6.814
 3305SOL    HW110367   2.169   1.721   6.857
 3305SOL    HW210368   2.111   1.761   6.723
 3306SOL     OW10369   2.801   1.699   6.481
 3306SOL    HW110370   2.881   1.651   6.503
 3306SOL    HW210371   2.761   1.648   6.411
 3307SOL     OW10372   2.258   0.696   6.058
 3307SOL    HW110373   2.275   0.603   6.072
 3307SOL    HW210374   2.164   0.706   6.075
 3308SOL     OW10375   3.393   0.228   7.307
 3308SOL    HW110376   3.403   0.244   7.401
 3308SOL    HW210377   3.317   0.171   7.300
 3309SOL     OW10378   2.487   0.130   5.695
 3309SOL    HW110379   2.534   0.053   5.729
 3309SOL    HW210380   2.434   0.095   5.623
 3310SOL     OW10381   2.636   0.312   7.354
 3310SOL    HW110382   2.700   0.241   7.354
 3310SOL    HW210383   2.598   0.310   7.441
 3311SOL     OW10384   2.737   1.522   6.781
 3311SOL    HW110385   2.720   1.485   6.694
 3311SOL    HW210386   2.807   1.468   6.817
 3312SOL     OW10387   3.201   0.589   7.018
 3312SOL    HW110388   3.232   0.559   7.104
 3312SOL    HW210389   3.238   0.677   7.010
 3313SOL     OW10390   2.680   1.389   6.532
 3313SOL    HW110391   2.765   1.378   6.489
 3313SOL    HW210392   2.618   1.396   6.459
 3314SOL     OW10393   2.791   0.512   6.487
 3314SOL    HW110394   2.765   0.504   6.395
 3314SOL    HW210395   2.819   0.424   6.512
 3315SOL     OW10396   2.409   0.061   6.090
 3315SOL    HW110397   2.325   0.056   6.137
 3315SOL    HW210398   2.396   0.129   6.025
 3316SOL     OW10399   3.290   1.201   5.625
 3316SOL    HW110400   3.320   1.126   5.676
 3316SOL    HW210401   3.205   1.223   5.662
 3317SOL     OW10402   2.163   0.067   5.781
 3317SOL    HW110403   2.221   0.141   5.761
 3317SOL    HW210404   2.219   5.290   5.773
 3318SOL     OW10405   2.803   0.272   6.048
 3318SOL    HW110406   2.775   0.304   5.962
 3318SOL    HW210407   2.899   0.280   6.047
 3319SOL     OW10408   2.944   0.686   7.042
 3319SOL    HW110409   2.878   0.616   7.046
 3319SOL    HW210410   3.027   0.639   7.037
 3320SOL     OW10411   3.080   1.573   6.381
 3320SOL    HW110412   3.095   1.638   6.312
 3320SOL    HW210413   3.150   1.589   6.445
 3321SOL     OW10414   2.334   1.153   6.312
 3321SOL    HW110415   2.268   1.132   6.378
 3321SOL    HW210416   2.290   1.140   6.228
 3322SOL     OW10417   3.126   1.792   6.198
 3322SOL    HW110418   3.174   1.854   6.144
 3322SOL    HW210419   3.057   1.844   6.239
 3323SOL     OW10420   2.887   0.542   5.609
 3323SOL    HW110421   2.844   0.625   5.593
 3323SOL    HW210422   2.949   0.560   5.680
 3324SOL     OW10423   1.946   0.551   6.981
 3324SOL    HW110424   2.037   0.553   6.952
 3324SOL    HW210425   1.939   0.622   7.045
 3325SOL     OW10426   2.412   0.238   6.744
 3325SOL    HW110427   2.446   0.155   6.776
 3325SOL    HW210428   2.321   0.239   6.772
 3326SOL     OW10429   2.725   0.467   6.228
 3326SOL    HW110430   2.680   0.521   6.164
 3326SOL    HW210431   2.752   0.389   6.178
 3327SOL     OW10432   2.841   0.063   6.354
 3327SOL    HW110433   2.778   0.064   6.282
 3327SOL    HW210434   2.852   5.270   6.375
 3328SOL     OW10435   3.302   1.160   6.442
 3328SOL    HW110436   3.230   1.097   6.443
 3328SOL    HW210437   3.326   1.168   6.350
 3329SOL     OW10438   3.327   0.612   6.555
 3329SOL    HW110439   3.273   0.533   6.558
 3329SOL    HW210440   3.386   0.603   6.630
 3330SOL     OW10441   3.702   0.811   5.971
 3330SOL    HW110442   3.760   0.762   6.029
 3330SOL    HW210443   3.677   0.749   5.903
 3331SOL     OW10444   2.351   1.421   5.736
 3331SOL    HW110445   2.275   1.393   5.788
 3331SOL    HW210446   2.346   1.369   5.656
 3332SOL     OW10447   3.539   1.264   6.228
 3332SOL    HW110448   3.633   1.264   6.243
 3332SOL    HW210449   3.511   1.353   6.249
 3333SOL     OW10450   3.255   0.574   5.657
 3333SOL    HW110451   3.193   0.552   5.727
 3333SOL    HW210452   3.340   0.546   5.691
 3334SOL     OW10453   2.381   0.266   5.904
 3334SOL    HW110454   2.431   0.220   5.837
 3334SOL    HW210455   2.358   0.350   5.863
 3335SOL     OW10456   3.610   1.242   7.147
 3335SOL    HW110457   3.698   1.204   7.140
 3335SOL    HW210458   3.625   1.332   7.178
 3336SOL     OW10459   2.916   1.353   6.917
 3336SOL    HW110460   2.841   1.322   6.967
 3336SOL    HW210461   2.992   1.312   6.959
 3337SOL     OW10462   3.472   1.627   7.242
 3337SOL    HW110463   3.464   1.662   7.153
 3337SOL    HW210464   3.553   1.577   7.241
 3338SOL     OW10465   2.997   1.210   6.688
 3338SOL    HW110466   2.937   1.248   6.752
 3338SOL    HW210467   2.968   1.245   6.604
 3339SOL     OW10468   3.485   1.096   6.661
 3339SOL    HW110469   3.478   1.159   6.733
 3339SOL    HW210470   3.409   1.114   6.606
 3340SOL     OW10471   2.762   0.110   6.965
 3340SOL    HW110472   2.793   0.075   6.882
 3340SOL    HW210473   2.839   0.151   7.005
 3341SOL     OW10474   2.846   1.114   7.312
 3341SOL    HW110475   2.755   1.131   7.334
 3341SOL    HW210476   2.844   1.036   7.257
 3342SOL     OW10477   2.572   1.063   5.957
 3342SOL    HW110478   2.558   1.042   6.049
 3342SOL    HW210479   2.648   1.009   5.932
 3343SOL     OW10480   2.283   0.820   6.838
 3343SOL    HW110481   2.352   0.829   6.905
 3343SOL    HW210482   2.249   0.732   6.851
 3344SOL     OW10483   3.126   0.376   6.864
 3344SOL    HW110484   3.159   0.453   6.910
 3344SOL    HW210485   3.036   0.399   6.841
 3345SOL     OW10486   1.937   1.574   6.943
 3345SOL    HW110487   1.910   1.645   6.886
 3345SOL    HW210488   2.033   1.572   6.935
 3346SOL     OW10489   2.198   1.118   6.075
 3346SOL    HW110490   2.204   1.192   6.014
 3346SOL    HW210491   2.197   1.040   6.020
 3347SOL     OW10492   2.411   0.531   6.446
 3347SOL    HW110493   2.424   0.590   6.371
 3347SOL    HW210494   2.478   0.557   6.509
 3348SOL     OW10495   3.109   1.350   5.977
 3348SOL    HW110496   3.165   1.421   6.009
 3348SOL    HW210497   3.022   1.371   6.010
 3349SOL     OW10498   3.152   1.460   6.734
 3349SOL    HW110499   3.207   1.466   6.813
 3349SOL    HW210500   3.096   1.384   6.749
 3350SOL     OW10501   3.439   0.620   6.069
 3350SOL    HW110502   3.390   0.668   6.136
 3350SOL    HW210503   3.484   0.688   6.018
 3351SOL     OW10504   2.207   1.530   6.896
 3351SOL    HW110505   2.196   1.485   6.812
 3351SOL    HW210506   2.302   1.541   6.905
 3352SOL     OW10507   2.281   0.744   7.190
 3352SOL    HW110508   2.342   0.789   7.132
 3352SOL    HW210509   2.324   0.661   7.210
 3353SOL     OW10510   3.471   0.780   7.273
 3353SOL    HW110511   3.385   0.822   7.267
 3353SOL    HW210512   3.523   0.822   7.205
 3354SOL     OW10513   2.910   0.122   7.377
 3354SOL    HW110514   2.945   0.200   7.335
 3354SOL    HW210515   2.920   0.053   7.311
 3355SOL     OW10516   2.345   0.060   7.324
 3355SOL    HW110517   2.279   5.296   7.297
 3355SOL    HW210518   2.294   0.138   7.348
 3356SOL     OW10519   2.448   0.874   6.619
 3356SOL    HW110520   2.481   0.964   6.621
 3356SOL    HW210521   2.390   0.868   6.695
 3357SOL     OW10522   3.209   0.859   6.607
 3357SOL    HW110523   3.123   0.844   6.568
 3357SOL    HW210524   3.255   0.776   6.598
 3358SOL     OW10525   3.062   0.526   5.848
 3358SOL    HW110526   3.069   0.446   5.901
 3358SOL    HW210527   3.020   0.589   5.906
 3359SOL     OW10528   2.153   0.201   6.836
 3359SOL    HW110529   2.113   0.239   6.914
 3359SOL    HW210530   2.158   0.107   6.856
 3360SOL     OW10531   1.908   1.312   6.860
 3360SOL    HW110532   1.940   1.256   6.930
 3360SOL    HW210533   1.914   1.401   6.895
 3361SOL     OW10534   2.583   0.630   6.641
 3361SOL    HW110535   2.659   0.617   6.584
 3361SOL    HW210536   2.554   0.719   6.621
 3362SOL     OW10537   3.602   0.960   7.444
 3362SOL    HW110538   3.557   0.893   7.393
 3362SOL    HW210539   3.543   0.978   7.517
 3363SOL     OW10540   2.184   0.069   6.256
 3363SOL    HW110541   2.148   0.158   6.252
 3363SOL    HW210542   2.242   0.070   6.332
 3364SOL     OW10543   3.482   0.382   5.940
 3364SOL    HW110544   3.511   0.314   6.001
 3364SOL    HW210545   3.458   0.456   5.996
 3365SOL     OW10546   2.892   0.759   6.544
 3365SOL    HW110547   2.882   0.776   6.638
 3365SOL    HW210548   2.864   0.668   6.533
 3366SOL     OW10549   2.842   1.565   7.307
 3366SOL    HW110550   2.827   1.610   7.224
 3366SOL    HW210551   2.888   1.484   7.282
 3367SOL     OW10552   3.713   1.500   7.190
 3367SOL    HW110553   3.735   1.528   7.101
 3367SOL    HW210554   3.794   1.515   7.239
 3368SOL     OW10555   2.214   0.915   7.396
 3368SOL    HW110556   2.296   0.936   7.441
 3368SOL    HW210557   2.240   0.852   7.328
 3369SOL     OW10558   3.384   0.268   5.710
 3369SOL    HW110559   3.318   0.208   5.745
 3369SOL    HW210560   3.422   0.309   5.787
 3370SOL     OW10561   3.149   0.825   5.614
 3370SOL    HW110562   3.191   0.739   5.619
 3370SOL    HW210563   3.181   0.863   5.533
 3371SOL     OW10564   2.931   1.339   6.444
 3371SOL    HW110565   2.936   1.267   6.381
 3371SOL    HW210566   2.989   1.407   6.408
 3372SOL     OW10567   2.170   0.809   6.532
 3372SOL    HW110568   2.264   0.829   6.524
 3372SOL    HW210569   2.168   0.718   6.562
 3373SOL     OW10570   2.190   0.530   6.599
 3373SOL    HW110571   2.153   0.442   6.586
 3373SOL    HW210572   2.267   0.532   6.542
 3374SOL     OW10573   2.998   0.374   7.279
 3374SOL    HW110574   2.949   0.429   7.341
 3374SOL    HW210575   3.084   0.415   7.273
 3375SOL     OW10576   2.990   0.219   7.055
 3375SOL    HW110577   2.993   0.278   7.130
 3375SOL    HW210578   3.046   0.260   6.989
 3376SOL     OW10579   1.869   1.317   5.780
 3376SOL    HW110580   1.782   1.333   5.744
 3376SOL    HW210581   1.864   1.228   5.815
 3377SOL     OW10582   1.952   1.782   6.527
 3377SOL    HW110583   1.921   1.704   6.480
 3377SOL    HW210584   2.041   1.796   6.496
 3378SOL     OW10585   2.353   1.574   6.490
 3378SOL    HW110586   2.422   1.635   6.515
 3378SOL    HW210587   2.396   1.511   6.432
 3379SOL     OW10588   2.835   0.788   6.809
 3379SOL    HW110589   2.895   0.769   6.881
 3379SOL    HW210590   2.752   0.748   6.836
 3380SOL     OW10591   1.897   0.547   6.704
 3380SOL    HW110592   1.976   0.536   6.650
 3380SOL    HW210593   1.930   0.549   6.794
 3381SOL     OW10594   2.047   0.526   7.318
 3381SOL    HW110595   2.114   0.489   7.259
 3381SOL    HW210596   2.013   0.601   7.270
 3382SOL     OW10597   3.243   0.933   7.243
 3382SOL    HW110598   3.264   1.026   7.240
 3382SOL    HW210599   3.239   0.906   7.151
 3383SOL     OW10600   2.676   0.577   5.957
 3383SOL    HW110601   2.684   0.504   5.895
 3383SOL    HW210602   2.601   0.627   5.925
 3384SOL     OW10603   3.502   0.601   6.766
 3384SOL    HW110604   3.492   0.543   6.841
 3384SOL    HW210605   3.590   0.583   6.733
 3385SOL     OW10606   2.098   1.549   7.309
 3385SOL    HW110607   2.080   1.614   7.376
 3385SOL    HW210608   2.108   1.467   7.357
 3386SOL     OW10609   2.574   0.445   6.839
 3386SOL    HW110610   2.516   0.375   6.810
 3386SOL    HW210611   2.568   0.511   6.769
 3387SOL     OW10612   2.784   1.678   7.057
 3387SOL    HW110613   2.759   1.640   6.973
 3387SOL    HW210614   2.779   1.773   7.042
 3388SOL     OW10615   2.318   0.491   5.760
 3388SOL    HW110616   2.381   0.559   5.786
 3388SOL    HW210617   2.234   0.537   5.754
 3389SOL     OW10618   2.002   1.143   7.060
 3389SOL    HW110619   2.005   1.096   7.143
 3389SOL    HW210620   2.020   1.076   6.994
 3390SOL     OW10621   3.182   1.043   6.805
 3390SOL    HW110622   3.203   0.980   6.737
 3390SOL    HW210623   3.116   1.100   6.766
 3391SOL     OW10624   3.178   0.857   5.889
 3391SOL    HW110625   3.104   0.824   5.941
 3391SOL    HW210626   3.151   0.843   5.799
 3392SOL     OW10627   3.641   1.737   6.742
 3392SOL    HW110628   3.701   1.763   6.672
 3392SOL    HW210629   3.614   1.648   6.719
 3393SOL     OW10630   3.102   1.732   6.691
 3393SOL    HW110631   3.185   1.756   6.650
 3393SOL    HW210632   3.112   1.639   6.712
 3394SOL     OW10633   1.949   1.266   6.596
 3394SOL    HW110634   1.931   1.280   6.689
 3394SOL    HW210635   1.877   1.210   6.566
 3395SOL     OW10636   2.539   1.670   7.323
 3395SOL    HW110637   2.484   1.747   7.320
 3395SOL    HW210638   2.611   1.689   7.263
 3396SOL     OW10639   3.571   0.155   6.080
 3396SOL    HW110640   3.647   0.136   6.025
 3396SOL    HW210641   3.569   0.083   6.143
 3397SOL     OW10642   3.255   1.568   6.077
 3397SOL    HW110643   3.313   1.602   6.009
 3397SOL    HW210644   3.204   1.643   6.105
 3398SOL     OW10645   2.002   1.794   7.430
 3398SOL    HW110646   1.951   1.729   7.478
 3398SOL    HW210647   2.050   1.842   7.498
 3399SOL     OW10648   3.140   0.928   6.257
 3399SOL    HW110649   3.214   0.868   6.267
 3399SOL    HW210650   3.174   1.000   6.203
 3400SOL     OW10651   2.667   1.277   7.010
 3400SOL    HW110652   2.639   1.318   7.092
 3400SOL    HW210653   2.597   1.297   6.948
 3401SOL     OW10654   2.532   1.622   5.743
 3401SOL    HW110655   2.543   1.640   5.649
 3401SOL    HW210656   2.475   1.545   5.746
 3402SOL     OW10657   3.481   1.728   6.977
 3402SOL    HW110658   3.535   1.733   6.898
 3402SOL    HW210659   3.467   1.819   7.002
 3403SOL     OW10660   3.710   0.147   6.541
 3403SOL    HW110661   3.698   0.053   6.553
 3403SOL    HW210662   3.625   0.178   6.508
 3404SOL     OW10663   2.117   0.329   6.302
 3404SOL    HW110664   2.029   0.361   6.281
 3404SOL    HW210665   2.118   0.320   6.397
 3405SOL     OW10666   3.070   1.601   5.619
 3405SOL    HW110667   3.059   1.510   5.646
 3405SOL    HW210668   3.004   1.615   5.551
 3406SOL     OW10669   2.685   1.007   6.961
 3406SOL    HW110670   2.729   1.001   6.876
 3406SOL    HW210671   2.682   1.101   6.979
 3407SOL     OW10672   2.779   0.911   5.878
 3407SOL    HW110673   2.839   0.944   5.811
 3407SOL    HW210674   2.829   0.842   5.923
 3408SOL     OW10675   3.350   1.630   5.631
 3408SOL    HW110676   3.256   1.619   5.615
 3408SOL    HW210677   3.389   1.635   5.544
 3409SOL     OW10678   2.228   1.305   7.079
 3409SOL    HW110679   2.216   1.381   7.021
 3409SOL    HW210680   2.151   1.251   7.063
 3410SOL     OW10681   3.470   1.285   6.866
 3410SOL    HW110682   3.528   1.268   6.940
 3410SOL    HW210683   3.409   1.352   6.897
 3411SOL     OW10684   2.923   1.111   6.298
 3411SOL    HW110685   2.850   1.060   6.334
 3411SOL    HW210686   2.987   1.044   6.270
 3412SOL     OW10687   2.879   0.246   6.558
 3412SOL    HW110688   2.860   0.201   6.476
 3412SOL    HW210689   2.874   0.178   6.625
 3413SOL     OW10690   2.467   1.488   6.066
 3413SOL    HW110691   2.517   1.438   6.001
 3413SOL    HW210692   2.396   1.528   6.017
 3414SOL     OW10693   3.593   0.384   6.964
 3414SOL    HW110694   3.664   0.448   6.962
 3414SOL    HW210695   3.622   0.314   6.905
 3415SOL     OW10696   2.124   1.342   5.877
 3415SOL    HW110697   2.031   1.338   5.854
 3415SOL    HW210698   2.125   1.382   5.964
 3416SOL     OW10699   1.977   1.032   7.310
 3416SOL    HW110700   1.900   1.005   7.361
 3416SOL    HW210701   2.050   0.988   7.354
 3417SOL     OW10702   2.536   0.218   7.082
 3417SOL    HW110703   2.617   0.203   7.034
 3417SOL    HW210704   2.563   0.266   7.160
 3418SOL     OW10705   1.942   0.334   5.627
 3418SOL    HW110706   1.858   0.300   5.596
 3418SOL    HW210707   1.961   0.410   5.572
 3419SOL     OW10708   3.287   0.857   6.983
 3419SOL    HW110709   3.237   0.918   6.929
 3419SOL    HW210710   3.376   0.860   6.947
 3420SOL     OW10711   1.930   0.167   5.896
 3420SOL    HW110712   1.936   0.249   5.848
 3420SOL    HW210713   2.014   0.124   5.880
 3421SOL     OW10714   3.040   1.334   5.704
 3421SOL    HW110715   2.949   1.304   5.706
 3421SOL    HW210716   3.066   1.335   5.796
 3422SOL     OW10717   2.483   0.831   7.021
 3422SOL    HW110718   2.539   0.907   7.006
 3422SOL    HW210719   2.543   0.757   7.027
 3423SOL     OW10720   3.345   1.784   6.569
 3423SOL    HW110721   3.367   1.850   6.503
 3423SOL    HW210722   3.429   1.757   6.605
 3424SOL     OW10723   2.574   0.573   7.283
 3424SOL    HW110724   2.619   0.635   7.341
 3424SOL    HW210725   2.598   0.487   7.316
 3425SOL     OW10726   3.335   1.194   7.215
 3425SOL    HW110727   3.323   1.209   7.309
 3425SOL    HW210728   3.427   1.213   7.199
 3426SOL     OW10729   2.232   1.740   7.150
 3426SOL    HW110730   2.149   1.786   7.137
 3426SOL    HW210731   2.207   1.658   7.191
 3427SOL     OW10732   3.526   0.880   6.841
 3427SOL    HW110733   3.522   0.795   6.797
 3427SOL    HW210734   3.516   0.943   6.770
 3428SOL     OW10735   3.082   0.317   6.048
 3428SOL    HW110736   3.144   0.244   6.043
 3428SOL    HW210737   3.112   0.369   6.123
 3429SOL     OW10738   2.447   0.735   6.260
 3429SOL    HW110739   2.488   0.820   6.245
 3429SOL    HW210740   2.383   0.726   6.189
 3430SOL     OW10741   3.624   0.361   7.237
 3430SOL    HW110742   3.609   0.378   7.144
 3430SOL    HW210743   3.549   0.308   7.265
 3431SOL     OW10744   3.611   0.933   7.097
 3431SOL    HW110745   3.599   1.027   7.110
 3431SOL    HW210746   3.592   0.919   7.004
 3432SOL     OW10747   2.725   1.366   5.629
 3432SOL    HW110748   2.687   1.394   5.712
 3432SOL    HW210749   2.740   1.447   5.581
 3433SOL     OW10750   2.527   1.780   6.526
 3433SOL    HW110751   2.508   1.871   6.504
 3433SOL    HW210752   2.622   1.772   6.519
 3434SOL     OW10753   2.731   0.971   6.440
 3434SOL    HW110754   2.781   0.898   6.477
 3434SOL    HW210755   2.692   1.015   6.515
 3435SOL     OW10756   2.939   0.989   5.675
 3435SOL    HW110757   2.918   1.040   5.597
 3435SOL    HW210758   3.013   0.934   5.648
 3436SOL     OW10759   3.709   1.553   6.428
 3436SOL    HW110760   3.629   1.541   6.375
 3436SOL    HW210761   3.700   1.490   6.499
 3437SOL     OW10762   2.087   1.298   7.440
 3437SOL    HW110763   2.028   1.232   7.403
 3437SOL    HW210764   2.053   1.314   7.528
 3438SOL     OW10765   1.951   1.229   6.251
 3438SOL    HW110766   1.963   1.184   6.335
 3438SOL    HW210767   2.018   1.191   6.194
 3439SOL     OW10768   2.546   1.408   7.217
 3439SOL    HW110769   2.467   1.366   7.251
 3439SOL    HW210770   2.544   1.496   7.253
 3440SOL     OW10771   3.667   0.172   6.814
 3440SOL    HW110772   3.629   0.085   6.810
 3440SOL    HW210773   3.696   0.190   6.725
 3441SOL     OW10774   2.291   0.437   6.112
 3441SOL    HW110775   2.325   0.364   6.059
 3441SOL    HW210776   2.241   0.394   6.181
 3442SOL     OW10777   3.559   1.485   6.677
 3442SOL    HW110778   3.480   1.466   6.627
 3442SOL    HW210779   3.564   1.416   6.743
 3443SOL     OW10780   2.195   0.562   6.877
 3443SOL    HW110781   2.250   0.505   6.931
 3443SOL    HW210782   2.213   0.534   6.787
 3444SOL     OW10783   2.694   1.580   6.259
 3444SOL    HW110784   2.673   1.648   6.195
 3444SOL    HW210785   2.618   1.521   6.258
 3445SOL     OW10786   3.288   0.222   6.702
 3445SOL    HW110787   3.323   0.146   6.749
 3445SOL    HW210788   3.239   0.270   6.768
 3446SOL     OW10789   2.864   0.018   6.720
 3446SOL    HW110790   2.813   5.251   6.675
 3446SOL    HW210791   2.949   5.277   6.737
 3447SOL     OW10792   2.636   1.333   5.908
 3447SOL    HW110793   2.609   1.242   5.915
 3447SOL    HW210794   2.718   1.338   5.957
 3448SOL     OW10795   2.481   1.555   6.872
 3448SOL    HW110796   2.481   1.638   6.920
 3448SOL    HW210797   2.570   1.548   6.836
 3449SOL     OW10798   3.219   0.031   5.754
 3449SOL    HW110799   3.269   5.290   5.683
 3449SOL    HW210800   3.140   5.278   5.760
 3450SOL     OW10801   3.163   0.465   6.267
 3450SOL    HW110802   3.109   0.545   6.270
 3450SOL    HW210803   3.154   0.427   6.354
 3451SOL     OW10804   3.458   0.214   6.472
 3451SOL    HW110805   3.394   0.227   6.542
 3451SOL    HW210806   3.450   0.293   6.418
 3452SOL     OW10807   1.904   1.066   5.895
 3452SOL    HW110808   1.998   1.058   5.876
 3452SOL    HW210809   1.877   0.977   5.916
 3453SOL     OW10810   2.752   1.659   5.920
 3453SOL    HW110811   2.677   1.642   5.863
 3453SOL    HW210812   2.722   1.728   5.979
 3454SOL     OW10813   2.082   0.623   7.577
 3454SOL    HW110814   1.993   0.629   7.612
 3454SOL    HW210815   2.070   0.602   7.484
 3455SOL     OW10816   3.636   0.592   7.677
 3455SOL    HW110817   3.612   0.588   7.585
 3455SOL    HW210818   3.595   0.514   7.716
 3456SOL     OW10819   2.083   1.714   7.919
 3456SOL    HW110820   2.109   1.749   8.004
 3456SOL    HW210821   2.163   1.715   7.867
 3457SOL     OW10822   2.074   1.440   7.995
 3457SOL    HW110823   2.061   1.534   7.985
 3457SOL    HW210824   2.016   1.415   8.067
 3458SOL     OW10825   2.441   0.985   7.582
 3458SOL    HW110826   2.489   1.030   7.512
 3458SOL    HW210827   2.481   1.017   7.663
 3459SOL     OW10828   3.701   1.756   7.796
 3459SOL    HW110829   3.774   1.728   7.850
 3459SOL    HW210830   3.723   1.845   7.769
 3460SOL     OW10831   1.896   1.597   7.577
 3460SOL    HW110832   1.880   1.504   7.593
 3460SOL    HW210833   1.868   1.640   7.658
 3461SOL     OW10834   3.546   0.856   8.023
 3461SOL    HW110835   3.620   0.869   0.003
 3461SOL    HW210836   3.529   0.943   7.987
 3462SOL     OW10837   3.520   1.096   7.882
 3462SOL    HW110838   3.608   1.123   7.856
 3462SOL    HW210839   3.485   1.169   7.933
 3463SOL     OW10840   2.673   5.276   7.937
 3463SOL    HW110841   2.720   0.059   7.926
 3463SOL    HW210842   2.581   0.001   7.940
 3464SOL     OW10843   3.397   1.000   7.652
 3464SOL    HW110844   3.328   0.942   7.686
 3464SOL    HW210845   3.442   1.031   7.731
 3465SOL     OW10846   2.449   0.722   7.708
 3465SOL    HW110847   2.449   0.807   7.664
 3465SOL    HW210848   2.392   0.734   7.784
 3466SOL     OW10849   3.435   1.675   7.757
 3466SOL    HW110850   3.527   1.699   7.766
 3466SOL    HW210851   3.422   1.661   7.663
 3467SOL     OW10852   1.917   0.864   0.082
 3467SOL    HW110853   1.978   0.793   0.101
 3467SOL    HW210854   1.930   0.927   0.152
 3468SOL     OW10855   2.746   0.369   7.634
 3468SOL    HW110856   2.780   0.427   7.566
 3468SOL    HW210857   2.814   0.303   7.646
 3469SOL     OW10858   2.181   0.958   7.699
 3469SOL    HW110859   2.261   0.973   7.648
 3469SOL    HW210860   2.143   0.879   7.661
 3470SOL     OW10861   2.991   1.775   7.682
 3470SOL    HW110862   2.911   1.739   7.719
 3470SOL    HW210863   3.016   1.713   7.613
 3471SOL     OW10864   3.491   1.383   7.537
 3471SOL    HW110865   3.449   1.468   7.522
 3471SOL    HW210866   3.423   1.319   7.517
 3472SOL     OW10867   2.327   1.738   7.773
 3472SOL    HW110868   2.380   1.791   7.832
 3472SOL    HW210869   2.390   1.699   7.712
 3473SOL     OW10870   3.281   0.107   7.889
 3473SOL    HW110871   3.278   0.080   7.798
 3473SOL    HW210872   3.375   0.115   7.909
 3474SOL     OW10873   2.257   0.697   7.918
 3474SOL    HW110874   2.251   0.602   7.932
 3474SOL    HW210875   2.166   0.727   7.925
 3475SOL     OW10876   2.480   0.131   7.563
 3475SOL    HW110877   2.539   0.060   7.590
 3475SOL    HW210878   2.430   0.095   7.490
 3476SOL     OW10879   2.416   0.066   7.949
 3476SOL    HW110880   2.325   0.045   7.969
 3476SOL    HW210881   2.410   0.141   7.889
 3477SOL     OW10882   3.290   1.201   7.488
 3477SOL    HW110883   3.320   1.127   7.542
 3477SOL    HW210884   3.205   1.224   7.525
 3478SOL     OW10885   2.167   0.082   7.668
 3478SOL    HW110886   2.210   0.142   7.607
 3478SOL    HW210887   2.214   5.299   7.657
 3479SOL     OW10888   2.811   0.219   7.905
 3479SOL    HW110889   2.761   0.294   7.873
 3479SOL    HW210890   2.900   0.253   7.916
 3480SOL     OW10891   2.293   1.145   0.098
 3480SOL    HW110892   2.225   1.198   0.140
 3480SOL    HW210893   2.265   1.139   0.007
 3481SOL     OW10894   3.156   1.817   8.012
 3481SOL    HW110895   3.195   1.886   7.958
 3481SOL    HW210896   3.064   1.842   8.020
 3482SOL     OW10897   2.888   0.541   7.470
 3482SOL    HW110898   2.842   0.624   7.456
 3482SOL    HW210899   2.944   0.557   7.546
 3483SOL     OW10900   3.739   0.811   7.805
 3483SOL    HW110901   3.700   0.805   7.892
 3483SOL    HW210902   3.703   0.736   7.757
 3484SOL     OW10903   2.346   1.419   7.599
 3484SOL    HW110904   2.272   1.391   7.653
 3484SOL    HW210905   2.339   1.367   7.519
 3485SOL     OW10906   3.255   0.573   7.519
 3485SOL    HW110907   3.191   0.549   7.587
 3485SOL    HW210908   3.338   0.541   7.553
 3486SOL     OW10909   2.387   0.278   7.775
 3486SOL    HW110910   2.429   0.225   7.706
 3486SOL    HW210911   2.361   0.359   7.730
 3487SOL     OW10912   2.576   1.064   7.809
 3487SOL    HW110913   2.545   1.044   7.897
 3487SOL    HW210914   2.653   1.009   7.797
 3488SOL     OW10915   2.224   1.117   7.920
 3488SOL    HW110916   2.201   1.194   7.868
 3488SOL    HW210917   2.211   1.043   7.860
 3489SOL     OW10918   3.078   1.358   7.822
 3489SOL    HW110919   3.135   1.433   7.841
 3489SOL    HW210920   3.067   1.314   7.906
 3490SOL     OW10921   3.449   0.618   7.918
 3490SOL    HW110922   3.443   0.675   7.994
 3490SOL    HW210923   3.479   0.675   7.847
 3491SOL     OW10924   3.061   0.520   7.709
 3491SOL    HW110925   3.062   0.434   7.751
 3491SOL    HW210926   3.044   0.581   7.781
 3492SOL     OW10927   3.485   0.375   7.806
 3492SOL    HW110928   3.505   0.307   7.870
 3492SOL    HW210929   3.460   0.451   7.859
 3493SOL     OW10930   3.388   0.270   7.572
 3493SOL    HW110931   3.329   0.201   7.603
 3493SOL    HW210932   3.425   0.307   7.652
 3494SOL     OW10933   3.151   0.826   7.478
 3494SOL    HW110934   3.192   0.739   7.481
 3494SOL    HW210935   3.183   0.865   7.396
 3495SOL     OW10936   1.872   1.322   7.637
 3495SOL    HW110937   1.784   1.336   7.602
 3495SOL    HW210938   1.870   1.232   7.671
 3496SOL     OW10939   2.711   0.626   7.749
 3496SOL    HW110940   2.709   0.533   7.727
 3496SOL    HW210941   2.619   0.652   7.755
 3497SOL     OW10942   2.316   0.494   7.627
 3497SOL    HW110943   2.378   0.564   7.648
 3497SOL    HW210944   2.232   0.539   7.618
 3498SOL     OW10945   3.177   0.858   7.750
 3498SOL    HW110946   3.091   0.868   7.791
 3498SOL    HW210947   3.158   0.843   7.658
 3499SOL     OW10948   3.573   0.138   7.940
 3499SOL    HW110949   3.645   0.137   7.878
 3499SOL    HW210950   3.607   0.092   8.017
 3500SOL     OW10951   3.219   1.580   7.891
 3500SOL    HW110952   3.296   1.599   7.837
 3500SOL    HW210953   3.191   1.666   7.924
 3501SOL     OW10954   2.526   1.621   7.604
 3501SOL    HW110955   2.539   1.637   7.510
 3501SOL    HW210956   2.470   1.543   7.607
 3502SOL     OW10957   3.073   1.603   7.479
 3502SOL    HW110958   3.060   1.512   7.506
 3502SOL    HW210959   3.006   1.619   7.413
 3503SOL     OW10960   2.786   0.901   7.760
 3503SOL    HW110961   2.838   0.923   7.683
 3503SOL    HW210962   2.774   0.806   7.755
 3504SOL     OW10963   3.353   1.631   7.490
 3504SOL    HW110964   3.259   1.620   7.476
 3504SOL    HW210965   3.390   1.635   7.401
 3505SOL     OW10966   2.480   1.514   7.937
 3505SOL    HW110967   2.527   1.454   7.879
 3505SOL    HW210968   2.399   1.533   7.890
 3506SOL     OW10969   2.123   1.342   7.751
 3506SOL    HW110970   2.033   1.340   7.720
 3506SOL    HW210971   2.118   1.379   7.839
 3507SOL     OW10972   1.937   0.335   7.488
 3507SOL    HW110973   1.855   0.305   7.449
 3507SOL    HW210974   1.961   0.412   7.437
 3508SOL     OW10975   1.920   0.184   7.737
 3508SOL    HW110976   1.920   0.258   7.676
 3508SOL    HW210977   2.005   0.141   7.722
 3509SOL     OW10978   3.033   1.335   7.555
 3509SOL    HW110979   2.940   1.313   7.551
 3509SOL    HW210980   3.052   1.341   7.649
 3510SOL     OW10981   3.082   0.314   7.916
 3510SOL    HW110982   3.150   0.247   7.911
 3510SOL    HW210983   3.103   0.363   7.995
 3511SOL     OW10984   2.500   0.744   8.043
 3511SOL    HW110985   2.495   0.817   0.025
 3511SOL    HW210986   2.410   0.734   8.011
 3512SOL     OW10987   2.728   1.367   7.493
 3512SOL    HW110988   2.687   1.399   7.574
 3512SOL    HW210989   2.743   1.446   7.442
 3513SOL     OW10990   2.927   0.971   7.538
 3513SOL    HW110991   2.911   1.032   7.466
 3513SOL    HW210992   3.006   0.924   7.512
 3514SOL     OW10993   2.250   0.425   7.987
 3514SOL    HW110994   2.306   0.372   7.930
 3514SOL    HW210995   2.297   0.428   8.070
 3515SOL     OW10996   2.627   1.339   7.773
 3515SOL    HW110997   2.598   1.248   7.772
 3515SOL    HW210998   2.714   1.336   7.814
 3516SOL     OW10999   3.232   0.037   7.618
 3516SOL    HW111000   3.236   5.276   7.544
 3516SOL    HW211001   3.141   0.034   7.647
 3517SOL     OW11002   1.917   1.075   7.748
 3517SOL    HW111003   2.012   1.068   7.736
 3517SOL    HW211004   1.887   0.985   7.762
 3518SOL     OW11005   2.756   1.661   7.774
 3518SOL    HW111006   2.678   1.635   7.725
 3518SOL    HW211007   2.722   1.719   7.843
 3519SOL     OW11008   2.073   2.475   0.124
 3519SOL    HW111009   1.991   2.452   0.168
 3519SOL    HW211010   2.082   2.410   0.054
 3520SOL     OW11011   2.086   2.145   0.993
 3520SOL    HW111012   2.113   2.109   1.077
 3520SOL    HW211013   1.996   2.113   0.981
 3521SOL     OW11014   1.860   2.245   0.639
 3521SOL    HW111015   1.779   2.273   0.682
 3521SOL    HW211016   1.835   2.167   0.590
 3522SOL     OW11017   2.429   3.157   1.182
 3522SOL    HW111018   2.344   3.167   1.139
 3522SOL    HW211019   2.448   3.244   1.219
 3523SOL     OW11020   3.432   3.376   0.710
 3523SOL    HW111021   3.389   3.354   0.792
 3523SOL    HW211022   3.361   3.380   0.646
 3524SOL     OW11023   3.026   2.537   0.745
 3524SOL    HW111024   3.042   2.624   0.709
 3524SOL    HW211025   2.933   2.537   0.767
 3525SOL     OW11026   3.633   2.459   0.231
 3525SOL    HW111027   3.590   2.466   0.146
 3525SOL    HW211028   3.595   2.382   0.271
 3526SOL     OW11029   2.634   3.019   1.053
 3526SOL    HW111030   2.555   3.040   1.103
 3526SOL    HW211031   2.656   3.101   1.009
 3527SOL     OW11032   2.570   3.035   1.836
 3527SOL    HW111033   2.625   3.111   1.852
 3527SOL    HW211034   2.498   3.068   1.782
 3528SOL     OW11035   2.192   3.282   1.067
 3528SOL    HW111036   2.119   3.242   1.019
 3528SOL    HW211037   2.239   3.332   1.000
 3529SOL     OW11038   3.320   3.364   1.361
 3529SOL    HW111039   3.375   3.442   1.370
 3529SOL    HW211040   3.251   3.374   1.427
 3530SOL     OW11041   2.316   2.261   1.494
 3530SOL    HW111042   2.392   2.203   1.495
 3530SOL    HW211043   2.241   2.202   1.509
 3531SOL     OW11044   3.469   2.305   0.745
 3531SOL    HW111045   3.394   2.321   0.687
 3531SOL    HW211046   3.468   2.378   0.807
 3532SOL     OW11047   2.084   3.578   0.468
 3532SOL    HW111048   2.103   3.652   0.524
 3532SOL    HW211049   2.161   3.570   0.411
 3533SOL     OW11050   3.004   3.208   1.697
 3533SOL    HW111051   3.043   3.201   1.784
 3533SOL    HW211052   2.952   3.128   1.688
 3534SOL     OW11053   2.084   3.306   0.532
 3534SOL    HW111054   2.074   3.402   0.530
 3534SOL    HW211055   2.029   3.278   0.605
 3535SOL     OW11056   2.121   2.953   0.884
 3535SOL    HW111057   2.119   2.868   0.926
 3535SOL    HW211058   2.069   3.010   0.941
 3536SOL     OW11059   2.463   3.657   1.426
 3536SOL    HW111060   2.383   3.638   1.475
 3536SOL    HW211061   2.488   3.745   1.454
 3537SOL     OW11062   2.458   2.856   0.105
 3537SOL    HW111063   2.405   2.934   0.088
 3537SOL    HW211064   2.507   2.878   0.184
 3538SOL     OW11065   3.457   1.990   1.464
 3538SOL    HW111066   3.481   2.070   1.418
 3538SOL    HW211067   3.437   2.018   1.553
 3539SOL     OW11068   1.981   2.510   0.568
 3539SOL    HW111069   1.943   2.425   0.590
 3539SOL    HW211070   1.970   2.562   0.648
 3540SOL     OW11071   3.712   3.616   0.324
 3540SOL    HW111072   3.781   3.588   0.385
 3540SOL    HW211073   3.733   3.708   0.306
 3541SOL     OW11074   1.902   3.454   0.108
 3541SOL    HW111075   1.884   3.367   0.143
 3541SOL    HW211076   1.882   3.514   0.179
 3542SOL     OW11077   3.551   2.781   0.648
 3542SOL    HW111078   3.632   2.736   0.625
 3542SOL    HW211079   3.530   2.833   0.571
 3543SOL     OW11080   3.510   2.964   0.434
 3543SOL    HW111081   3.593   2.970   0.387
 3543SOL    HW211082   3.518   3.028   0.505
 3544SOL     OW11083   1.974   2.605   1.585
 3544SOL    HW111084   2.064   2.636   1.596
 3544SOL    HW211085   1.921   2.684   1.586
 3545SOL     OW11086   2.482   3.255   0.732
 3545SOL    HW111087   2.437   3.171   0.743
 3545SOL    HW211088   2.463   3.280   0.642
 3546SOL     OW11089   3.147   3.095   1.423
 3546SOL    HW111090   3.178   3.029   1.362
 3546SOL    HW211091   3.208   3.091   1.497
 3547SOL     OW11092   2.683   1.872   0.517
 3547SOL    HW111093   2.721   1.956   0.491
 3547SOL    HW211094   2.589   1.889   0.521
 3548SOL     OW11095   2.042   2.826   1.279
 3548SOL    HW111096   2.128   2.785   1.267
 3548SOL    HW211097   1.985   2.779   1.219
 3549SOL     OW11098   3.358   2.874   0.220
 3549SOL    HW111099   3.314   2.795   0.251
 3549SOL    HW211100   3.416   2.899   0.292
 3550SOL     OW11101   3.045   3.674   1.626
 3550SOL    HW111102   3.051   3.736   1.552
 3550SOL    HW211103   3.063   3.589   1.586
 3551SOL     OW11104   2.200   2.107   1.822
 3551SOL    HW111105   2.241   2.192   1.838
 3551SOL    HW211106   2.109   2.119   1.847
 3552SOL     OW11107   3.330   3.282   0.949
 3552SOL    HW111108   3.263   3.298   1.015
 3552SOL    HW211109   3.317   3.191   0.923
 3553SOL     OW11110   3.517   3.616   0.582
 3553SOL    HW111111   3.496   3.584   0.494
 3553SOL    HW211112   3.498   3.542   0.640
 3554SOL     OW11113   3.145   2.219   0.933
 3554SOL    HW111114   3.056   2.186   0.942
 3554SOL    HW211115   3.196   2.167   0.996
 3555SOL     OW11116   3.450   3.534   0.323
 3555SOL    HW111117   3.542   3.559   0.314
 3555SOL    HW211118   3.420   3.517   0.234
 3556SOL     OW11119   3.259   2.337   1.674
 3556SOL    HW111120   3.260   2.381   1.759
 3556SOL    HW211121   3.314   2.260   1.686
 3557SOL     OW11122   2.850   2.275   1.251
 3557SOL    HW111123   2.758   2.275   1.277
 3557SOL    HW211124   2.849   2.253   1.158
 3558SOL     OW11125   1.949   2.683   0.778
 3558SOL    HW111126   2.028   2.678   0.831
 3558SOL    HW211127   1.903   2.760   0.811
 3559SOL     OW11128   1.986   3.732   1.583
 3559SOL    HW111129   1.990   3.709   1.676
 3559SOL    HW211130   1.901   3.699   1.554
 3560SOL     OW11131   2.758   2.215   0.205
 3560SOL    HW111132   2.809   2.263   0.140
 3560SOL    HW211133   2.753   2.126   0.171
 3561SOL     OW11134   3.564   2.432   1.830
 3561SOL    HW111135   3.530   2.506   1.780
 3561SOL    HW211136   3.594   2.370   1.764
 3562SOL     OW11137   3.237   2.996   0.534
 3562SOL    HW111138   3.320   2.992   0.487
 3562SOL    HW211139   3.187   3.064   0.489
 3563SOL     OW11140   2.408   2.032   0.893
 3563SOL    HW111141   2.410   2.055   0.986
 3563SOL    HW211142   2.406   2.116   0.847
 3564SOL     OW11143   2.857   3.305   0.468
 3564SOL    HW111144   2.828   3.381   0.418
 3564SOL    HW211145   2.834   3.326   0.559
 3565SOL     OW11146   2.216   3.675   0.871
 3565SOL    HW111147   2.261   3.591   0.876
 3565SOL    HW211148   2.285   3.740   0.889
 3566SOL     OW11149   3.663   2.912   0.874
 3566SOL    HW111150   3.611   2.892   0.796
 3566SOL    HW211151   3.600   2.920   0.945
 3567SOL     OW11152   3.087   3.402   1.512
 3567SOL    HW111153   3.077   3.331   1.576
 3567SOL    HW211154   3.021   3.383   1.445
 3568SOL     OW11155   2.194   2.802   0.257
 3568SOL    HW111156   2.263   2.817   0.193
 3568SOL    HW211157   2.203   2.710   0.281
 3569SOL     OW11158   3.339   2.616   0.720
 3569SOL    HW111159   3.336   2.573   0.805
 3569SOL    HW211160   3.418   2.670   0.723
 3570SOL     OW11161   2.328   3.135   1.737
 3570SOL    HW111162   2.302   3.137   1.645
 3570SOL    HW211163   2.246   3.130   1.785
 3571SOL     OW11164   2.969   3.644   0.220
 3571SOL    HW111165   2.908   3.604   0.282
 3571SOL    HW211166   2.993   3.573   0.161
 3572SOL     OW11167   2.064   2.136   1.507
 3572SOL    HW111168   1.980   2.181   1.506
 3572SOL    HW211169   2.045   2.051   1.546
 3573SOL     OW11170   3.497   3.232   0.084
 3573SOL    HW111171   3.456   3.319   0.085
 3573SOL    HW211172   3.425   3.172   0.064
 3574SOL     OW11173   2.326   3.597   0.324
 3574SOL    HW111174   2.371   3.657   0.384
 3574SOL    HW211175   2.394   3.569   0.263
 3575SOL     OW11176   3.269   1.973   0.451
 3575SOL    HW111177   3.264   1.950   0.358
 3575SOL    HW211178   3.363   1.980   0.469
 3576SOL     OW11179   2.118   3.651   1.228
 3576SOL    HW111180   2.169   3.582   1.271
 3576SOL    HW211181   2.112   3.624   1.137
 3577SOL     OW11182   2.798   3.565   0.896
 3577SOL    HW111183   2.873   3.513   0.925
 3577SOL    HW211184   2.759   3.513   0.826
 3578SOL     OW11185   2.236   2.548   0.451
 3578SOL    HW111186   2.275   2.467   0.485
 3578SOL    HW211187   2.148   2.550   0.488
 3579SOL     OW11188   3.390   2.086   1.724
 3579SOL    HW111189   3.400   2.107   1.817
 3579SOL    HW211190   3.321   2.020   1.721
 3580SOL     OW11191   2.492   1.977   0.142
 3580SOL    HW111192   2.587   1.963   0.149
 3580SOL    HW211193   2.471   1.954   0.051
 3581SOL     OW11194   2.619   2.108   1.745
 3581SOL    HW111195   2.704   2.063   1.745
 3581SOL    HW211196   2.615   2.152   1.830
 3582SOL     OW11197   2.738   3.389   1.196
 3582SOL    HW111198   2.720   3.352   1.110
 3582SOL    HW211199   2.805   3.332   1.233
 3583SOL     OW11200   3.205   2.455   1.429
 3583SOL    HW111201   3.234   2.423   1.514
 3583SOL    HW211202   3.243   2.543   1.421
 3584SOL     OW11203   2.682   3.268   0.943
 3584SOL    HW111204   2.766   3.250   0.900
 3584SOL    HW211205   2.618   3.266   0.871
 3585SOL     OW11206   2.751   2.341   0.900
 3585SOL    HW111207   2.744   2.331   0.805
 3585SOL    HW211208   2.810   2.271   0.927
 3586SOL     OW11209   2.414   1.927   0.500
 3586SOL    HW111210   2.335   1.923   0.553
 3586SOL    HW211211   2.403   2.006   0.447
 3587SOL     OW11212   3.292   3.062   0.034
 3587SOL    HW111213   3.313   2.989   0.093
 3587SOL    HW211214   3.206   3.092   0.062
 3588SOL     OW11215   2.176   1.924   0.177
 3588SOL    HW111216   2.243   1.990   0.196
 3588SOL    HW211217   2.210   1.843   0.216
 3589SOL     OW11218   2.804   2.117   0.456
 3589SOL    HW111219   2.780   2.153   0.371
 3589SOL    HW211220   2.899   2.128   0.461
 3590SOL     OW11221   2.928   2.503   1.460
 3590SOL    HW111222   2.899   2.425   1.413
 3590SOL    HW211223   3.023   2.502   1.451
 3591SOL     OW11224   3.084   3.431   0.793
 3591SOL    HW111225   3.096   3.498   0.726
 3591SOL    HW211226   3.150   3.451   0.859
 3592SOL     OW11227   2.331   3.027   0.723
 3592SOL    HW111228   2.266   2.999   0.788
 3592SOL    HW211229   2.293   3.001   0.639
 3593SOL     OW11230   3.126   3.654   0.613
 3593SOL    HW111231   3.177   3.718   0.564
 3593SOL    HW211232   3.056   3.706   0.653
 3594SOL     OW11233   2.922   2.360   0.034
 3594SOL    HW111234   2.886   2.444   0.004
 3594SOL    HW211235   2.977   2.383   0.109
 3595SOL     OW11236   1.946   2.417   1.391
 3595SOL    HW111237   2.038   2.416   1.368
 3595SOL    HW211238   1.938   2.486   1.456
 3596SOL     OW11239   2.412   2.064   1.166
 3596SOL    HW111240   2.452   1.991   1.212
 3596SOL    HW211241   2.322   2.066   1.197
 3597SOL     OW11242   2.719   2.313   0.635
 3597SOL    HW111243   2.751   2.386   0.582
 3597SOL    HW211244   2.738   2.236   0.582
 3598SOL     OW11245   2.878   1.914   0.745
 3598SOL    HW111246   2.818   1.907   0.670
 3598SOL    HW211247   2.855   1.840   0.801
 3599SOL     OW11248   3.305   3.023   0.859
 3599SOL    HW111249   3.236   2.957   0.857
 3599SOL    HW211250   3.333   3.031   0.767
 3600SOL     OW11251   3.333   2.470   0.964
 3600SOL    HW111252   3.271   2.397   0.969
 3600SOL    HW211253   3.388   2.461   1.042
 3601SOL     OW11254   3.706   2.672   0.390
 3601SOL    HW111255   3.761   2.621   0.450
 3601SOL    HW211256   3.679   2.609   0.323
 3602SOL     OW11257   2.343   3.306   0.182
 3602SOL    HW111258   2.268   3.275   0.233
 3602SOL    HW211259   2.355   3.241   0.114
 3603SOL     OW11260   3.537   3.126   0.645
 3603SOL    HW111261   3.632   3.125   0.660
 3603SOL    HW211262   3.511   3.216   0.666
 3604SOL     OW11263   3.257   2.432   0.085
 3604SOL    HW111264   3.195   2.415   0.156
 3604SOL    HW211265   3.308   2.351   0.078
 3605SOL     OW11266   2.373   2.134   0.324
 3605SOL    HW111267   2.426   2.082   0.264
 3605SOL    HW211268   2.358   2.217   0.278
 3606SOL     OW11269   3.611   3.105   1.562
 3606SOL    HW111270   3.698   3.066   1.555
 3606SOL    HW211271   3.626   3.194   1.592
 3607SOL     OW11272   2.921   3.222   1.335
 3607SOL    HW111273   2.844   3.188   1.380
 3607SOL    HW211274   2.995   3.175   1.374
 3608SOL     OW11275   3.471   3.490   1.658
 3608SOL    HW111276   3.463   3.524   1.569
 3608SOL    HW211277   3.553   3.440   1.657
 3609SOL     OW11278   2.996   3.070   1.099
 3609SOL    HW111279   2.927   3.091   1.162
 3609SOL    HW211280   2.965   3.106   1.016
 3610SOL     OW11281   3.486   2.958   1.077
 3610SOL    HW111282   3.480   3.021   1.149
 3610SOL    HW211283   3.410   2.978   1.021
 3611SOL     OW11284   2.780   1.954   1.390
 3611SOL    HW111285   2.802   1.936   1.299
 3611SOL    HW211286   2.858   1.994   1.427
 3612SOL     OW11287   2.850   2.981   1.718
 3612SOL    HW111288   2.760   2.994   1.747
 3612SOL    HW211289   2.842   2.934   1.635
 3613SOL     OW11290   2.565   2.942   0.359
 3613SOL    HW111291   2.504   2.944   0.433
 3613SOL    HW211292   2.592   2.851   0.353
 3614SOL     OW11293   2.270   2.678   1.262
 3614SOL    HW111294   2.362   2.680   1.288
 3614SOL    HW211295   2.244   2.587   1.276
 3615SOL     OW11296   3.125   2.237   1.281
 3615SOL    HW111297   3.160   2.315   1.325
 3615SOL    HW211298   3.034   2.258   1.263
 3616SOL     OW11299   1.938   3.436   1.357
 3616SOL    HW111300   1.911   3.508   1.300
 3616SOL    HW211301   2.033   3.434   1.349
 3617SOL     OW11302   2.219   2.972   0.476
 3617SOL    HW111303   2.204   3.048   0.421
 3617SOL    HW211304   2.214   2.897   0.417
 3618SOL     OW11305   2.417   2.360   0.863
 3618SOL    HW111306   2.401   2.372   0.770
 3618SOL    HW211307   2.512   2.366   0.872
 3619SOL     OW11308   3.107   3.208   0.399
 3619SOL    HW111309   3.162   3.281   0.426
 3619SOL    HW211310   3.019   3.233   0.428
 3620SOL     OW11311   3.150   3.323   1.148
 3620SOL    HW111312   3.204   3.326   1.226
 3620SOL    HW211313   3.089   3.251   1.165
 3621SOL     OW11314   3.434   2.481   0.487
 3621SOL    HW111315   3.387   2.529   0.555
 3621SOL    HW211316   3.475   2.549   0.434
 3622SOL     OW11317   2.208   3.392   1.310
 3622SOL    HW111318   2.197   3.348   1.226
 3622SOL    HW211319   2.303   3.404   1.318
 3623SOL     OW11320   2.254   2.602   1.606
 3623SOL    HW111321   2.301   2.651   1.538
 3623SOL    HW211322   2.282   2.512   1.594
 3624SOL     OW11323   3.470   2.643   1.687
 3624SOL    HW111324   3.384   2.685   1.680
 3624SOL    HW211325   3.522   2.685   1.618
 3625SOL     OW11326   2.868   1.994   1.760
 3625SOL    HW111327   2.923   2.067   1.732
 3625SOL    HW211328   2.915   1.916   1.731
 3626SOL     OW11329   2.358   1.894   1.748
 3626SOL    HW111330   2.310   1.842   1.683
 3626SOL    HW211331   2.304   1.971   1.762
 3627SOL     OW11332   3.220   2.721   1.021
 3627SOL    HW111333   3.134   2.702   0.982
 3627SOL    HW211334   3.268   2.639   1.014
 3628SOL     OW11335   3.062   2.393   0.275
 3628SOL    HW111336   3.063   2.317   0.333
 3628SOL    HW211337   3.091   2.466   0.330
 3629SOL     OW11338   2.154   2.059   1.249
 3629SOL    HW111339   2.119   2.090   1.332
 3629SOL    HW211340   2.136   1.965   1.249
 3630SOL     OW11341   1.907   3.175   1.273
 3630SOL    HW111342   1.939   3.119   1.344
 3630SOL    HW211343   1.913   3.264   1.308
 3631SOL     OW11344   3.602   2.821   1.858
 3631SOL    HW111345   3.558   2.754   1.805
 3631SOL    HW211346   3.541   2.840   1.930
 3632SOL     OW11347   2.169   1.925   0.625
 3632SOL    HW111348   2.146   2.015   0.647
 3632SOL    HW211349   2.177   1.882   0.710
 3633SOL     OW11350   3.491   2.243   0.364
 3633SOL    HW111351   3.516   2.175   0.427
 3633SOL    HW211352   3.463   2.316   0.418
 3634SOL     OW11353   2.842   3.428   1.720
 3634SOL    HW111354   2.826   3.473   1.637
 3634SOL    HW211355   2.889   3.348   1.696
 3635SOL     OW11356   3.713   3.363   1.604
 3635SOL    HW111357   3.735   3.391   1.515
 3635SOL    HW211358   3.793   3.377   1.654
 3636SOL     OW11359   2.207   2.782   1.814
 3636SOL    HW111360   2.288   2.807   1.860
 3636SOL    HW211361   2.235   2.714   1.753
 3637SOL     OW11362   3.365   2.174   0.129
 3637SOL    HW111363   3.321   2.091   0.145
 3637SOL    HW211364   3.412   2.193   0.210
 3638SOL     OW11365   3.166   2.682   0.020
 3638SOL    HW111366   3.198   2.593   0.032
 3638SOL    HW211367   3.224   2.720   8.034
 3639SOL     OW11368   2.929   3.203   0.852
 3639SOL    HW111369   2.936   3.134   0.786
 3639SOL    HW211370   2.989   3.272   0.820
 3640SOL     OW11371   2.165   2.674   0.951
 3640SOL    HW111372   2.256   2.704   0.953
 3640SOL    HW211373   2.168   2.586   0.988
 3641SOL     OW11374   2.193   2.390   1.020
 3641SOL    HW111375   2.152   2.304   1.006
 3641SOL    HW211376   2.272   2.388   0.966
 3642SOL     OW11377   3.005   2.228   1.682
 3642SOL    HW111378   2.958   2.283   1.744
 3642SOL    HW211379   3.090   2.271   1.671
 3643SOL     OW11380   3.023   2.056   1.469
 3643SOL    HW111381   3.013   2.118   1.541
 3643SOL    HW211382   3.066   2.107   1.400
 3644SOL     OW11383   1.878   3.180   0.185
 3644SOL    HW111384   1.791   3.196   0.148
 3644SOL    HW211385   1.873   3.091   0.219
 3645SOL     OW11386   1.952   3.644   0.941
 3645SOL    HW111387   1.922   3.566   0.894
 3645SOL    HW211388   2.041   3.658   0.910
 3646SOL     OW11389   2.354   3.436   0.903
 3646SOL    HW111390   2.423   3.497   0.928
 3646SOL    HW211391   2.398   3.373   0.846
 3647SOL     OW11392   1.898   2.411   1.117
 3647SOL    HW111393   1.980   2.408   1.068
 3647SOL    HW211394   1.925   2.412   1.209
 3648SOL     OW11395   2.050   2.382   1.730
 3648SOL    HW111396   2.093   2.331   1.661
 3648SOL    HW211397   2.013   2.458   1.685
 3649SOL     OW11398   3.242   2.795   1.656
 3649SOL    HW111399   3.264   2.888   1.653
 3649SOL    HW211400   3.240   2.768   1.564
 3650SOL     OW11401   3.502   2.463   1.179
 3650SOL    HW111402   3.492   2.406   1.255
 3650SOL    HW211403   3.590   2.445   1.147
 3651SOL     OW11404   2.099   3.411   1.723
 3651SOL    HW111405   2.078   3.475   1.791
 3651SOL    HW211406   2.107   3.328   1.770
 3652SOL     OW11407   2.571   2.274   1.234
 3652SOL    HW111408   2.514   2.197   1.224
 3652SOL    HW211409   2.549   2.330   1.159
 3653SOL     OW11410   2.781   3.542   1.473
 3653SOL    HW111411   2.760   3.500   1.389
 3653SOL    HW211412   2.776   3.636   1.454
 3654SOL     OW11413   2.330   2.369   0.188
 3654SOL    HW111414   2.387   2.441   0.214
 3654SOL    HW211415   2.242   2.407   0.186
 3655SOL     OW11416   2.000   3.007   1.475
 3655SOL    HW111417   2.003   2.959   1.558
 3655SOL    HW211418   2.017   2.940   1.408
 3656SOL     OW11419   3.184   2.906   1.219
 3656SOL    HW111420   3.206   2.843   1.150
 3656SOL    HW211421   3.118   2.963   1.179
 3657SOL     OW11422   3.154   2.685   0.302
 3657SOL    HW111423   3.094   2.754   0.329
 3657SOL    HW211424   3.149   2.686   0.206
 3658SOL     OW11425   3.640   3.599   1.156
 3658SOL    HW111426   3.700   3.625   1.086
 3658SOL    HW211427   3.614   3.510   1.133
 3659SOL     OW11428   3.101   3.594   1.104
 3659SOL    HW111429   3.185   3.618   1.063
 3659SOL    HW211430   3.111   3.502   1.126
 3660SOL     OW11431   1.949   3.128   1.010
 3660SOL    HW111432   1.932   3.143   1.103
 3660SOL    HW211433   1.876   3.072   0.981
 3661SOL     OW11434   2.541   3.533   1.738
 3661SOL    HW111435   2.483   3.609   1.729
 3661SOL    HW211436   2.611   3.548   1.675
 3662SOL     OW11437   2.767   1.952   0.128
 3662SOL    HW111438   2.767   1.925   0.037
 3662SOL    HW211439   2.837   1.901   0.168
 3663SOL     OW11440   3.585   2.015   0.505
 3663SOL    HW111441   3.655   1.996   0.442
 3663SOL    HW211442   3.568   1.931   0.548
 3664SOL     OW11443   3.253   3.430   0.492
 3664SOL    HW111444   3.315   3.464   0.427
 3664SOL    HW211445   3.204   3.506   0.521
 3665SOL     OW11446   2.002   3.658   1.843
 3665SOL    HW111447   1.952   3.591   1.890
 3665SOL    HW211448   2.049   3.705   1.912
 3666SOL     OW11449   3.129   2.790   0.673
 3666SOL    HW111450   3.200   2.727   0.683
 3666SOL    HW211451   3.165   2.859   0.618
 3667SOL     OW11452   2.685   3.139   1.436
 3667SOL    HW111453   2.643   3.185   1.509
 3667SOL    HW211454   2.613   3.116   1.377
 3668SOL     OW11455   2.536   3.489   0.155
 3668SOL    HW111456   2.545   3.496   0.060
 3668SOL    HW211457   2.475   3.417   0.168
 3669SOL     OW11458   3.481   3.590   1.391
 3669SOL    HW111459   3.534   3.595   1.312
 3669SOL    HW211460   3.467   3.681   1.417
 3670SOL     OW11461   3.705   2.032   0.965
 3670SOL    HW111462   3.734   1.944   0.941
 3670SOL    HW211463   3.618   2.040   0.926
 3671SOL     OW11464   2.118   2.180   0.715
 3671SOL    HW111465   2.031   2.210   0.692
 3671SOL    HW211466   2.116   2.170   0.811
 3672SOL     OW11467   3.028   3.441   0.052
 3672SOL    HW111468   3.035   3.348   0.076
 3672SOL    HW211469   3.037   3.441   8.036
 3673SOL     OW11470   3.370   3.481   0.064
 3673SOL    HW111471   3.275   3.484   0.051
 3673SOL    HW211472   3.406   3.491   8.055
 3674SOL     OW11473   2.227   3.168   1.492
 3674SOL    HW111474   2.217   3.243   1.433
 3674SOL    HW211475   2.150   3.114   1.475
 3675SOL     OW11476   3.470   3.147   1.280
 3675SOL    HW111477   3.529   3.131   1.354
 3675SOL    HW211478   3.409   3.214   1.311
 3676SOL     OW11479   2.918   2.970   0.709
 3676SOL    HW111480   2.854   2.922   0.762
 3676SOL    HW211481   2.986   2.905   0.689
 3677SOL     OW11482   2.893   2.099   0.963
 3677SOL    HW111483   2.889   2.049   0.882
 3677SOL    HW211484   2.884   2.034   1.032
 3678SOL     OW11485   2.466   3.348   0.475
 3678SOL    HW111486   2.515   3.304   0.405
 3678SOL    HW211487   2.394   3.392   0.430
 3679SOL     OW11488   3.589   2.253   1.381
 3679SOL    HW111489   3.661   2.316   1.381
 3679SOL    HW211490   3.619   2.183   1.323
 3680SOL     OW11491   2.125   3.177   0.303
 3680SOL    HW111492   2.041   3.188   0.259
 3680SOL    HW211493   2.115   3.225   0.385
 3681SOL     OW11494   1.973   2.894   1.723
 3681SOL    HW111495   1.897   2.868   1.775
 3681SOL    HW211496   2.047   2.853   1.768
 3682SOL     OW11497   2.532   2.054   1.493
 3682SOL    HW111498   2.618   2.036   1.453
 3682SOL    HW211499   2.552   2.074   1.584
 3683SOL     OW11500   1.919   2.214   0.040
 3683SOL    HW111501   1.835   2.176   0.014
 3683SOL    HW211502   1.969   2.219   8.038
 3684SOL     OW11503   3.289   2.722   1.397
 3684SOL    HW111504   3.239   2.782   1.342
 3684SOL    HW211505   3.378   2.724   1.361
 3685SOL     OW11506   1.932   2.014   0.292
 3685SOL    HW111507   1.916   2.098   0.249
 3685SOL    HW211508   2.016   1.985   0.257
 3686SOL     OW11509   3.046   3.175   0.121
 3686SOL    HW111510   2.950   3.171   0.115
 3686SOL    HW211511   3.064   3.174   0.215
 3687SOL     OW11512   3.345   3.646   0.983
 3687SOL    HW111513   3.368   3.713   0.917
 3687SOL    HW211514   3.430   3.620   1.020
 3688SOL     OW11515   3.337   3.055   1.629
 3688SOL    HW111516   3.325   3.072   1.722
 3688SOL    HW211517   3.429   3.075   1.613
 3689SOL     OW11518   2.233   3.603   1.566
 3689SOL    HW111519   2.150   3.648   1.551
 3689SOL    HW211520   2.208   3.520   1.606
 3690SOL     OW11521   3.527   2.742   1.255
 3690SOL    HW111522   3.523   2.656   1.211
 3690SOL    HW211523   3.517   2.805   1.184
 3691SOL     OW11524   3.078   2.181   0.461
 3691SOL    HW111525   3.140   2.109   0.452
 3691SOL    HW211526   3.109   2.229   0.538
 3692SOL     OW11527   3.618   2.225   1.654
 3692SOL    HW111528   3.604   2.242   1.560
 3692SOL    HW211529   3.545   2.169   1.679
 3693SOL     OW11530   3.610   2.795   1.511
 3693SOL    HW111531   3.601   2.889   1.524
 3693SOL    HW211532   3.593   2.781   1.418
 3694SOL     OW11533   2.770   3.232   0.052
 3694SOL    HW111534   2.711   3.224   0.127
 3694SOL    HW211535   2.737   3.308   0.004
 3695SOL     OW11536   2.524   3.647   0.938
 3695SOL    HW111537   2.507   3.739   0.919
 3695SOL    HW211538   2.619   3.638   0.932
 3696SOL     OW11539   2.970   2.859   0.102
 3696SOL    HW111540   2.955   2.924   0.033
 3696SOL    HW211541   3.033   2.798   0.063
 3697SOL     OW11542   3.709   3.414   0.842
 3697SOL    HW111543   3.629   3.403   0.790
 3697SOL    HW211544   3.698   3.353   0.915
 3698SOL     OW11545   2.086   3.161   1.854
 3698SOL    HW111546   2.023   3.097   1.821
 3698SOL    HW211547   2.063   3.173   1.946
 3699SOL     OW11548   1.949   3.090   0.670
 3699SOL    HW111549   1.960   3.044   0.753
 3699SOL    HW211550   2.022   3.061   0.616
 3700SOL     OW11551   2.544   3.271   1.630
 3700SOL    HW111552   2.463   3.230   1.660
 3700SOL    HW211553   2.542   3.359   1.667
 3701SOL     OW11554   3.673   2.044   1.236
 3701SOL    HW111555   3.680   1.949   1.249
 3701SOL    HW211556   3.684   2.056   1.142
 3702SOL     OW11557   2.312   2.299   0.554
 3702SOL    HW111558   2.332   2.238   0.484
 3702SOL    HW211559   2.244   2.256   0.605
 3703SOL     OW11560   3.561   3.347   1.090
 3703SOL    HW111561   3.480   3.328   1.042
 3703SOL    HW211562   3.566   3.278   1.157
 3704SOL     OW11563   2.201   2.417   1.300
 3704SOL    HW111564   2.254   2.358   1.354
 3704SOL    HW211565   2.213   2.386   1.211
 3705SOL     OW11566   2.695   3.441   0.673
 3705SOL    HW111567   2.672   3.505   0.605
 3705SOL    HW211568   2.619   3.383   0.677
 3706SOL     OW11569   3.293   2.089   1.120
 3706SOL    HW111570   3.313   2.007   1.164
 3706SOL    HW211571   3.243   2.139   1.184
 3707SOL     OW11572   2.871   1.876   1.136
 3707SOL    HW111573   2.816   1.810   1.093
 3707SOL    HW211574   2.958   1.838   1.138
 3708SOL     OW11575   2.642   3.202   0.303
 3708SOL    HW111576   2.614   3.111   0.316
 3708SOL    HW211577   2.718   3.212   0.359
 3709SOL     OW11578   2.480   3.420   1.286
 3709SOL    HW111579   2.482   3.503   1.334
 3709SOL    HW211580   2.569   3.410   1.252
 3710SOL     OW11581   3.217   1.917   0.188
 3710SOL    HW111582   3.234   1.874   0.105
 3710SOL    HW211583   3.130   1.886   0.214
 3711SOL     OW11584   3.172   2.316   0.681
 3711SOL    HW111585   3.127   2.400   0.694
 3711SOL    HW211586   3.166   2.272   0.766
 3712SOL     OW11587   3.446   2.056   0.883
 3712SOL    HW111588   3.391   2.081   0.957
 3712SOL    HW211589   3.446   2.134   0.826
 3713SOL     OW11590   1.907   2.923   0.303
 3713SOL    HW111591   2.003   2.923   0.309
 3713SOL    HW211592   1.881   2.839   0.341
 3714SOL     OW11593   2.748   3.524   0.344
 3714SOL    HW111594   2.678   3.509   0.281
 3714SOL    HW211595   2.717   3.598   0.397
 3715SOL     OW11596   2.086   2.479   1.989
 3715SOL    HW111597   1.997   2.481   2.026
 3715SOL    HW211598   2.073   2.458   1.896
 3716SOL     OW11599   2.087   2.152   2.853
 3716SOL    HW111600   2.115   2.115   2.937
 3716SOL    HW211601   1.997   2.119   2.841
 3717SOL     OW11602   1.860   2.246   2.500
 3717SOL    HW111603   1.779   2.273   2.544
 3717SOL    HW211604   1.835   2.168   2.450
 3718SOL     OW11605   2.421   3.149   3.018
 3718SOL    HW111606   2.337   3.168   2.975
 3718SOL    HW211607   2.431   3.220   3.082
 3719SOL     OW11608   3.432   3.376   2.573
 3719SOL    HW111609   3.388   3.353   2.655
 3719SOL    HW211610   3.361   3.379   2.508
 3720SOL     OW11611   3.020   2.533   2.584
 3720SOL    HW111612   3.042   2.624   2.565
 3720SOL    HW211613   2.945   2.537   2.643
 3721SOL     OW11614   3.637   2.461   2.088
 3721SOL    HW111615   3.612   2.456   1.996
 3721SOL    HW211616   3.598   2.383   2.128
 3722SOL     OW11617   2.666   3.040   2.940
 3722SOL    HW111618   2.578   3.044   2.977
 3722SOL    HW211619   2.671   3.114   2.879
 3723SOL     OW11620   2.189   3.281   2.925
 3723SOL    HW111621   2.117   3.242   2.876
 3723SOL    HW211622   2.237   3.334   2.860
 3724SOL     OW11623   3.328   3.357   3.217
 3724SOL    HW111624   3.381   3.436   3.218
 3724SOL    HW211625   3.269   3.366   3.292
 3725SOL     OW11626   3.469   2.304   2.605
 3725SOL    HW111627   3.394   2.321   2.549
 3725SOL    HW211628   3.471   2.380   2.665
 3726SOL     OW11629   2.081   3.579   2.330
 3726SOL    HW111630   2.103   3.653   2.386
 3726SOL    HW211631   2.156   3.570   2.272
 3727SOL     OW11632   2.092   3.307   2.397
 3727SOL    HW111633   2.075   3.401   2.399
 3727SOL    HW211634   2.036   3.271   2.466
 3728SOL     OW11635   2.122   2.953   2.744
 3728SOL    HW111636   2.115   2.865   2.781
 3728SOL    HW211637   2.067   3.007   2.801
 3729SOL     OW11638   2.473   3.654   3.288
 3729SOL    HW111639   2.388   3.640   3.328
 3729SOL    HW211640   2.498   3.743   3.313
 3730SOL     OW11641   2.427   2.860   1.987
 3730SOL    HW111642   2.469   2.922   1.927
 3730SOL    HW211643   2.493   2.841   2.053
 3731SOL     OW11644   3.453   1.990   3.324
 3731SOL    HW111645   3.484   2.071   3.282
 3731SOL    HW211646   3.438   2.016   3.415
 3732SOL     OW11647   1.979   2.512   2.425
 3732SOL    HW111648   1.943   2.427   2.447
 3732SOL    HW211649   1.969   2.564   2.505
 3733SOL     OW11650   3.706   3.616   2.193
 3733SOL    HW111651   3.775   3.590   2.254
 3733SOL    HW211652   3.724   3.708   2.173
 3734SOL     OW11653   1.901   3.452   1.983
 3734SOL    HW111654   1.882   3.361   2.003
 3734SOL    HW211655   1.875   3.500   2.062
 3735SOL     OW11656   3.550   2.778   2.505
 3735SOL    HW111657   3.634   2.737   2.488
 3735SOL    HW211658   3.531   2.830   2.427
 3736SOL     OW11659   3.511   2.964   2.290
 3736SOL    HW111660   3.598   2.964   2.249
 3736SOL    HW211661   3.518   3.029   2.361
 3737SOL     OW11662   2.482   3.254   2.596
 3737SOL    HW111663   2.438   3.170   2.606
 3737SOL    HW211664   2.462   3.282   2.507
 3738SOL     OW11665   2.678   1.855   2.378
 3738SOL    HW111666   2.724   1.935   2.354
 3738SOL    HW211667   2.586   1.880   2.380
 3739SOL     OW11668   3.394   2.859   2.062
 3739SOL    HW111669   3.331   2.795   2.095
 3739SOL    HW211670   3.436   2.894   2.140
 3740SOL     OW11671   3.045   3.682   3.485
 3740SOL    HW111672   3.052   3.744   3.413
 3740SOL    HW211673   3.071   3.598   3.446
 3741SOL     OW11674   3.326   3.285   2.812
 3741SOL    HW111675   3.258   3.296   2.879
 3741SOL    HW211676   3.315   3.195   2.782
 3742SOL     OW11677   3.514   3.615   2.439
 3742SOL    HW111678   3.497   3.581   2.351
 3742SOL    HW211679   3.496   3.542   2.498
 3743SOL     OW11680   3.147   2.223   2.801
 3743SOL    HW111681   3.057   2.190   2.805
 3743SOL    HW211682   3.193   2.169   2.866
 3744SOL     OW11683   3.441   3.535   2.173
 3744SOL    HW111684   3.532   3.561   2.165
 3744SOL    HW211685   3.412   3.519   2.083
 3745SOL     OW11686   2.831   2.279   3.117
 3745SOL    HW111687   2.738   2.303   3.120
 3745SOL    HW211688   2.851   2.269   3.024
 3746SOL     OW11689   1.946   2.684   2.637
 3746SOL    HW111690   2.027   2.678   2.688
 3746SOL    HW211691   1.901   2.760   2.673
 3747SOL     OW11692   1.985   3.739   3.446
 3747SOL    HW111693   1.990   3.714   3.538
 3747SOL    HW211694   1.903   3.700   3.414
 3748SOL     OW11695   2.748   2.183   1.994
 3748SOL    HW111696   2.802   2.249   1.949
 3748SOL    HW211697   2.799   2.102   1.988
 3749SOL     OW11698   3.594   2.448   3.690
 3749SOL    HW111699   3.589   2.529   3.639
 3749SOL    HW211700   3.601   2.379   3.624
 3750SOL     OW11701   3.238   2.995   2.396
 3750SOL    HW111702   3.321   2.991   2.350
 3750SOL    HW211703   3.189   3.064   2.350
 3751SOL     OW11704   2.408   2.029   2.749
 3751SOL    HW111705   2.409   2.059   2.840
 3751SOL    HW211706   2.404   2.110   2.698
 3752SOL     OW11707   2.860   3.305   2.330
 3752SOL    HW111708   2.832   3.382   2.280
 3752SOL    HW211709   2.838   3.327   2.421
 3753SOL     OW11710   2.216   3.676   2.732
 3753SOL    HW111711   2.260   3.591   2.738
 3753SOL    HW211712   2.285   3.740   2.751
 3754SOL     OW11713   3.660   2.913   2.734
 3754SOL    HW111714   3.605   2.895   2.658
 3754SOL    HW211715   3.597   2.924   2.806
 3755SOL     OW11716   3.103   3.418   3.371
 3755SOL    HW111717   3.101   3.355   3.443
 3755SOL    HW211718   3.031   3.392   3.314
 3756SOL     OW11719   2.171   2.828   2.116
 3756SOL    HW111720   2.251   2.850   2.068
 3756SOL    HW211721   2.149   2.740   2.088
 3757SOL     OW11722   3.338   2.617   2.585
 3757SOL    HW111723   3.340   2.573   2.670
 3757SOL    HW211724   3.418   2.669   2.584
 3758SOL     OW11725   2.987   3.640   2.091
 3758SOL    HW111726   2.911   3.601   2.134
 3758SOL    HW211727   3.011   3.577   2.023
 3759SOL     OW11728   2.004   2.125   3.331
 3759SOL    HW111729   1.931   2.177   3.365
 3759SOL    HW211730   1.995   2.040   3.376
 3760SOL     OW11731   3.490   3.244   1.953
 3760SOL    HW111732   3.449   3.329   1.938
 3760SOL    HW211733   3.421   3.180   1.932
 3761SOL     OW11734   2.325   3.598   2.181
 3761SOL    HW111735   2.370   3.654   2.244
 3761SOL    HW211736   2.395   3.564   2.125
 3762SOL     OW11737   3.263   1.967   2.302
 3762SOL    HW111738   3.255   1.942   2.210
 3762SOL    HW211739   3.357   1.973   2.317
 3763SOL     OW11740   2.115   3.657   3.086
 3763SOL    HW111741   2.161   3.583   3.126
 3763SOL    HW211742   2.106   3.633   2.994
 3764SOL     OW11743   2.800   3.565   2.757
 3764SOL    HW111744   2.877   3.515   2.784
 3764SOL    HW211745   2.760   3.512   2.688
 3765SOL     OW11746   2.244   2.544   2.322
 3765SOL    HW111747   2.276   2.461   2.356
 3765SOL    HW211748   2.152   2.548   2.351
 3766SOL     OW11749   3.400   2.071   3.585
 3766SOL    HW111750   3.407   2.102   3.675
 3766SOL    HW211751   3.324   2.013   3.585
 3767SOL     OW11752   2.474   1.966   1.988
 3767SOL    HW111753   2.566   1.942   1.984
 3767SOL    HW211754   2.440   1.945   1.900
 3768SOL     OW11755   2.739   3.388   3.045
 3768SOL    HW111756   2.714   3.360   2.957
 3768SOL    HW211757   2.798   3.320   3.077
 3769SOL     OW11758   2.680   3.274   2.797
 3769SOL    HW111759   2.763   3.254   2.754
 3769SOL    HW211760   2.614   3.266   2.728
 3770SOL     OW11761   2.777   2.347   2.765
 3770SOL    HW111762   2.762   2.334   2.672
 3770SOL    HW211763   2.820   2.267   2.795
 3771SOL     OW11764   2.414   1.928   2.359
 3771SOL    HW111765   2.334   1.926   2.410
 3771SOL    HW211766   2.406   2.006   2.305
 3772SOL     OW11767   3.290   3.062   1.901
 3772SOL    HW111768   3.319   2.987   1.952
 3772SOL    HW211769   3.202   3.081   1.936
 3773SOL     OW11770   2.155   1.909   2.048
 3773SOL    HW111771   2.215   1.967   2.002
 3773SOL    HW211772   2.213   1.845   2.091
 3774SOL     OW11773   2.816   2.089   2.333
 3774SOL    HW111774   2.774   2.162   2.287
 3774SOL    HW211775   2.909   2.106   2.326
 3775SOL     OW11776   3.083   3.432   2.655
 3775SOL    HW111777   3.097   3.500   2.588
 3775SOL    HW211778   3.152   3.447   2.719
 3776SOL     OW11779   2.333   3.026   2.589
 3776SOL    HW111780   2.267   2.999   2.652
 3776SOL    HW211781   2.297   3.002   2.503
 3777SOL     OW11782   3.126   3.654   2.474
 3777SOL    HW111783   3.175   3.716   2.420
 3777SOL    HW211784   3.058   3.706   2.515
 3778SOL     OW11785   2.905   2.379   1.889
 3778SOL    HW111786   2.835   2.444   1.889
 3778SOL    HW211787   2.960   2.402   1.963
 3779SOL     OW11788   1.931   2.415   3.250
 3779SOL    HW111789   2.021   2.385   3.265
 3779SOL    HW211790   1.936   2.510   3.263
 3780SOL     OW11791   2.414   2.077   3.017
 3780SOL    HW111792   2.455   1.999   3.054
 3780SOL    HW211793   2.328   2.081   3.058
 3781SOL     OW11794   2.733   2.294   2.511
 3781SOL    HW111795   2.711   2.349   2.435
 3781SOL    HW211796   2.762   2.211   2.473
 3782SOL     OW11797   2.882   1.915   2.609
 3782SOL    HW111798   2.823   1.911   2.534
 3782SOL    HW211799   2.855   1.841   2.664
 3783SOL     OW11800   3.293   3.038   2.700
 3783SOL    HW111801   3.239   2.961   2.715
 3783SOL    HW211802   3.315   3.035   2.607
 3784SOL     OW11803   3.330   2.469   2.825
 3784SOL    HW111804   3.273   2.392   2.828
 3784SOL    HW211805   3.387   2.460   2.902
 3785SOL     OW11806   3.702   2.673   2.246
 3785SOL    HW111807   3.761   2.624   2.304
 3785SOL    HW211808   3.678   2.609   2.178
 3786SOL     OW11809   2.353   3.281   2.014
 3786SOL    HW111810   2.276   3.254   2.065
 3786SOL    HW211811   2.347   3.230   1.933
 3787SOL     OW11812   3.538   3.128   2.498
 3787SOL    HW111813   3.632   3.126   2.517
 3787SOL    HW211814   3.509   3.215   2.526
 3788SOL     OW11815   3.257   2.433   1.931
 3788SOL    HW111816   3.197   2.409   2.001
 3788SOL    HW211817   3.343   2.402   1.961
 3789SOL     OW11818   2.384   2.136   2.183
 3789SOL    HW111819   2.420   2.078   2.116
 3789SOL    HW211820   2.362   2.216   2.137
 3790SOL     OW11821   3.618   3.102   3.424
 3790SOL    HW111822   3.705   3.065   3.409
 3790SOL    HW211823   3.635   3.191   3.454
 3791SOL     OW11824   3.470   3.490   3.517
 3791SOL    HW111825   3.461   3.523   3.428
 3791SOL    HW211826   3.549   3.438   3.517
 3792SOL     OW11827   2.963   3.084   2.963
 3792SOL    HW111828   2.877   3.054   2.990
 3792SOL    HW211829   2.949   3.123   2.876
 3793SOL     OW11830   3.493   2.964   2.948
 3793SOL    HW111831   3.505   3.027   3.019
 3793SOL    HW211832   3.399   2.966   2.929
 3794SOL     OW11833   2.292   2.707   3.082
 3794SOL    HW111834   2.369   2.675   3.128
 3794SOL    HW211835   2.226   2.639   3.097
 3795SOL     OW11836   1.936   3.447   3.220
 3795SOL    HW111837   1.912   3.519   3.162
 3795SOL    HW211838   2.031   3.439   3.212
 3796SOL     OW11839   2.208   2.978   2.348
 3796SOL    HW111840   2.203   3.053   2.289
 3796SOL    HW211841   2.198   2.902   2.290
 3797SOL     OW11842   2.412   2.371   2.733
 3797SOL    HW111843   2.397   2.382   2.639
 3797SOL    HW211844   2.507   2.370   2.742
 3798SOL     OW11845   3.109   3.210   2.256
 3798SOL    HW111846   3.165   3.282   2.286
 3798SOL    HW211847   3.022   3.233   2.288
 3799SOL     OW11848   3.139   3.316   3.014
 3799SOL    HW111849   3.198   3.315   3.089
 3799SOL    HW211850   3.087   3.236   3.022
 3800SOL     OW11851   3.437   2.483   2.345
 3800SOL    HW111852   3.389   2.532   2.412
 3800SOL    HW211853   3.486   2.549   2.297
 3801SOL     OW11854   2.200   3.408   3.165
 3801SOL    HW111855   2.195   3.355   3.085
 3801SOL    HW211856   2.288   3.390   3.199
 3802SOL     OW11857   2.341   1.867   3.621
 3802SOL    HW111858   2.304   1.819   3.547
 3802SOL    HW211859   2.266   1.908   3.664
 3803SOL     OW11860   3.209   2.721   2.888
 3803SOL    HW111861   3.138   2.696   2.829
 3803SOL    HW211862   3.264   2.644   2.893
 3804SOL     OW11863   3.063   2.391   2.128
 3804SOL    HW111864   3.061   2.311   2.181
 3804SOL    HW211865   3.080   2.461   2.191
 3805SOL     OW11866   2.149   2.059   3.104
 3805SOL    HW111867   2.101   2.089   3.181
 3805SOL    HW211868   2.138   1.964   3.104
 3806SOL     OW11869   1.898   3.194   3.121
 3806SOL    HW111870   1.921   3.138   3.195
 3806SOL    HW211871   1.908   3.284   3.154
 3807SOL     OW11872   3.604   2.801   3.705
 3807SOL    HW111873   3.553   2.806   3.624
 3807SOL    HW211874   3.540   2.813   3.775
 3808SOL     OW11875   2.170   1.925   2.487
 3808SOL    HW111876   2.145   2.015   2.508
 3808SOL    HW211877   2.178   1.881   2.572
 3809SOL     OW11878   3.483   2.241   2.223
 3809SOL    HW111879   3.512   2.176   2.286
 3809SOL    HW211880   3.459   2.317   2.275
 3810SOL     OW11881   2.870   3.441   3.570
 3810SOL    HW111882   2.861   3.500   3.495
 3810SOL    HW211883   2.783   3.401   3.579
 3811SOL     OW11884   3.713   3.361   3.467
 3811SOL    HW111885   3.734   3.391   3.378
 3811SOL    HW211886   3.793   3.376   3.517
 3812SOL     OW11887   3.387   2.134   1.988
 3812SOL    HW111888   3.324   2.068   2.017
 3812SOL    HW211889   3.422   2.170   2.069
 3813SOL     OW11890   3.149   2.683   1.887
 3813SOL    HW111891   3.190   2.597   1.890
 3813SOL    HW211892   3.181   2.722   1.805
 3814SOL     OW11893   2.928   3.204   2.713
 3814SOL    HW111894   2.935   3.133   2.649
 3814SOL    HW211895   2.989   3.271   2.681
 3815SOL     OW11896   2.162   2.674   2.809
 3815SOL    HW111897   2.241   2.708   2.851
 3815SOL    HW211898   2.160   2.581   2.834
 3816SOL     OW11899   2.181   2.403   2.878
 3816SOL    HW111900   2.146   2.315   2.871
 3816SOL    HW211901   2.266   2.399   2.834
 3817SOL     OW11902   1.869   3.179   2.056
 3817SOL    HW111903   1.782   3.195   2.020
 3817SOL    HW211904   1.865   3.090   2.091
 3818SOL     OW11905   1.952   3.644   2.803
 3818SOL    HW111906   1.922   3.567   2.756
 3818SOL    HW211907   2.042   3.658   2.771
 3819SOL     OW11908   2.353   3.437   2.765
 3819SOL    HW111909   2.423   3.497   2.791
 3819SOL    HW211910   2.397   3.372   2.709
 3820SOL     OW11911   1.898   2.406   2.975
 3820SOL    HW111912   1.980   2.410   2.926
 3820SOL    HW211913   1.925   2.402   3.067
 3821SOL     OW11914   2.703   2.313   2.232
 3821SOL    HW111915   2.703   2.278   2.143
 3821SOL    HW211916   2.626   2.369   2.235
 3822SOL     OW11917   3.497   2.453   3.040
 3822SOL    HW111918   3.495   2.400   3.120
 3822SOL    HW211919   3.586   2.443   3.007
 3823SOL     OW11920   2.110   3.439   3.568
 3823SOL    HW111921   2.084   3.507   3.630
 3823SOL    HW211922   2.107   3.358   3.620
 3824SOL     OW11923   2.553   2.305   3.104
 3824SOL    HW111924   2.503   2.230   3.072
 3824SOL    HW211925   2.564   2.362   3.028
 3825SOL     OW11926   2.781   3.546   3.327
 3825SOL    HW111927   2.759   3.506   3.243
 3825SOL    HW211928   2.774   3.641   3.311
 3826SOL     OW11929   2.326   2.370   2.056
 3826SOL    HW111930   2.365   2.447   2.097
 3826SOL    HW211931   2.236   2.397   2.036
 3827SOL     OW11932   1.966   3.035   3.330
 3827SOL    HW111933   2.009   3.044   3.415
 3827SOL    HW211934   2.030   2.987   3.276
 3828SOL     OW11935   3.211   2.971   3.008
 3828SOL    HW111936   3.208   2.879   2.983
 3828SOL    HW211937   3.123   3.003   2.989
 3829SOL     OW11938   3.175   2.706   2.160
 3829SOL    HW111939   3.103   2.758   2.195
 3829SOL    HW211940   3.156   2.699   2.066
 3830SOL     OW11941   3.643   3.598   3.019
 3830SOL    HW111942   3.702   3.624   2.948
 3830SOL    HW211943   3.614   3.510   2.995
 3831SOL     OW11944   3.100   3.592   2.968
 3831SOL    HW111945   3.184   3.615   2.927
 3831SOL    HW211946   3.109   3.499   2.989
 3832SOL     OW11947   1.947   3.127   2.865
 3832SOL    HW111948   1.928   3.150   2.955
 3832SOL    HW211949   1.875   3.070   2.838
 3833SOL     OW11950   2.544   3.536   3.599
 3833SOL    HW111951   2.483   3.610   3.599
 3833SOL    HW211952   2.588   3.541   3.514
 3834SOL     OW11953   3.584   2.018   2.366
 3834SOL    HW111954   3.655   2.002   2.304
 3834SOL    HW211955   3.568   1.932   2.406
 3835SOL     OW11956   3.254   3.429   2.352
 3835SOL    HW111957   3.313   3.464   2.285
 3835SOL    HW211958   3.204   3.505   2.381
 3836SOL     OW11959   2.003   3.655   3.705
 3836SOL    HW111960   1.953   3.589   3.753
 3836SOL    HW211961   2.048   3.705   3.772
 3837SOL     OW11962   3.128   2.787   2.535
 3837SOL    HW111963   3.201   2.726   2.545
 3837SOL    HW211964   3.162   2.858   2.481
 3838SOL     OW11965   2.530   3.487   2.017
 3838SOL    HW111966   2.542   3.502   1.923
 3838SOL    HW211967   2.475   3.409   2.022
 3839SOL     OW11968   3.480   3.589   3.250
 3839SOL    HW111969   3.536   3.595   3.172
 3839SOL    HW211970   3.465   3.680   3.276
 3840SOL     OW11971   3.704   2.033   2.828
 3840SOL    HW111972   3.733   1.945   2.803
 3840SOL    HW211973   3.618   2.042   2.788
 3841SOL     OW11974   2.118   2.178   2.576
 3841SOL    HW111975   2.031   2.210   2.552
 3841SOL    HW211976   2.117   2.173   2.672
 3842SOL     OW11977   3.070   3.465   1.895
 3842SOL    HW111978   3.059   3.374   1.922
 3842SOL    HW211979   3.005   3.478   1.826
 3843SOL     OW11980   3.351   3.491   1.907
 3843SOL    HW111981   3.257   3.481   1.892
 3843SOL    HW211982   3.389   3.496   1.820
 3844SOL     OW11983   3.492   3.151   3.149
 3844SOL    HW111984   3.531   3.125   3.233
 3844SOL    HW211985   3.423   3.212   3.173
 3845SOL     OW11986   2.915   2.969   2.571
 3845SOL    HW111987   2.841   2.921   2.608
 3845SOL    HW211988   2.981   2.903   2.556
 3846SOL     OW11989   2.894   2.101   2.824
 3846SOL    HW111990   2.890   2.049   2.744
 3846SOL    HW211991   2.884   2.037   2.895
 3847SOL     OW11992   2.465   3.356   2.343
 3847SOL    HW111993   2.516   3.306   2.278
 3847SOL    HW211994   2.390   3.389   2.294
 3848SOL     OW11995   3.589   2.253   3.241
 3848SOL    HW111996   3.661   2.315   3.242
 3848SOL    HW211997   3.618   2.182   3.183
 3849SOL     OW11998   2.124   3.203   2.154
 3849SOL    HW111999   2.032   3.200   2.130
 3849SOL    HW212000   2.124   3.244   2.241
 3850SOL     OW12001   1.942   2.189   1.896
 3850SOL    HW112002   1.855   2.170   1.860
 3850SOL    HW212003   1.971   2.267   1.848
 3851SOL     OW12004   1.926   2.015   2.163
 3851SOL    HW112005   1.913   2.094   2.109
 3851SOL    HW212006   2.012   1.982   2.136
 3852SOL     OW12007   3.042   3.201   1.981
 3852SOL    HW112008   2.955   3.161   1.980
 3852SOL    HW212009   3.068   3.199   2.073
 3853SOL     OW12010   3.344   3.647   2.847
 3853SOL    HW112011   3.367   3.712   2.780
 3853SOL    HW212012   3.429   3.617   2.881
 3854SOL     OW12013   3.348   3.117   3.497
 3854SOL    HW112014   3.341   3.100   3.591
 3854SOL    HW212015   3.441   3.106   3.477
 3855SOL     OW12016   2.237   3.620   3.414
 3855SOL    HW112017   2.154   3.666   3.397
 3855SOL    HW212018   2.210   3.538   3.456
 3856SOL     OW12019   3.564   2.744   3.122
 3856SOL    HW112020   3.519   2.664   3.094
 3856SOL    HW212021   3.536   2.811   3.060
 3857SOL     OW12022   3.081   2.179   2.318
 3857SOL    HW112023   3.142   2.106   2.309
 3857SOL    HW212024   3.111   2.227   2.395
 3858SOL     OW12025   3.611   2.234   3.515
 3858SOL    HW112026   3.598   2.245   3.421
 3858SOL    HW212027   3.540   2.175   3.542
 3859SOL     OW12028   3.600   2.795   3.394
 3859SOL    HW112029   3.591   2.890   3.394
 3859SOL    HW212030   3.586   2.769   3.303
 3860SOL     OW12031   2.734   3.241   1.905
 3860SOL    HW112032   2.694   3.278   1.984
 3860SOL    HW212033   2.753   3.316   1.850
 3861SOL     OW12034   2.525   3.646   2.802
 3861SOL    HW112035   2.507   3.738   2.781
 3861SOL    HW212036   2.620   3.638   2.794
 3862SOL     OW12037   2.981   2.890   1.950
 3862SOL    HW112038   2.937   2.920   1.870
 3862SOL    HW212039   3.035   2.817   1.922
 3863SOL     OW12040   3.710   3.414   2.704
 3863SOL    HW112041   3.629   3.402   2.653
 3863SOL    HW212042   3.704   3.349   2.774
 3864SOL     OW12043   2.070   3.217   3.706
 3864SOL    HW112044   2.019   3.136   3.698
 3864SOL    HW212045   2.041   3.255   3.788
 3865SOL     OW12046   1.950   3.091   2.528
 3865SOL    HW112047   1.964   3.048   2.613
 3865SOL    HW212048   2.018   3.055   2.472
 3866SOL     OW12049   3.672   2.042   3.098
 3866SOL    HW112050   3.681   1.947   3.110
 3866SOL    HW212051   3.684   2.055   3.004
 3867SOL     OW12052   2.314   2.293   2.416
 3867SOL    HW112053   2.333   2.234   2.343
 3867SOL    HW212054   2.244   2.250   2.465
 3868SOL     OW12055   3.557   3.348   2.954
 3868SOL    HW112056   3.478   3.328   2.904
 3868SOL    HW212057   3.562   3.279   3.021
 3869SOL     OW12058   2.695   3.442   2.533
 3869SOL    HW112059   2.670   3.507   2.467
 3869SOL    HW212060   2.620   3.383   2.539
 3870SOL     OW12061   3.286   2.085   2.989
 3870SOL    HW112062   3.320   1.997   3.007
 3870SOL    HW212063   3.249   2.114   3.072
 3871SOL     OW12064   2.872   1.879   2.990
 3871SOL    HW112065   2.816   1.809   2.956
 3871SOL    HW212066   2.959   1.840   2.997
 3872SOL     OW12067   2.636   3.207   2.183
 3872SOL    HW112068   2.627   3.115   2.158
 3872SOL    HW212069   2.718   3.211   2.232
 3873SOL     OW12070   2.492   3.407   3.160
 3873SOL    HW112071   2.486   3.494   3.201
 3873SOL    HW212072   2.572   3.410   3.109
 3874SOL     OW12073   3.219   1.913   2.034
 3874SOL    HW112074   3.253   1.844   1.977
 3874SOL    HW212075   3.130   1.886   2.055
 3875SOL     OW12076   3.172   2.312   2.541
 3875SOL    HW112077   3.123   2.394   2.547
 3875SOL    HW212078   3.166   2.273   2.629
 3876SOL     OW12079   3.446   2.060   2.745
 3876SOL    HW112080   3.386   2.088   2.814
 3876SOL    HW212081   3.450   2.135   2.685
 3877SOL     OW12082   1.904   2.927   2.170
 3877SOL    HW112083   1.997   2.918   2.149
 3877SOL    HW212084   1.876   2.838   2.193
 3878SOL     OW12085   2.752   3.523   2.198
 3878SOL    HW112086   2.676   3.506   2.142
 3878SOL    HW212087   2.724   3.594   2.256
 3879SOL     OW12088   2.107   2.062   4.677
 3879SOL    HW112089   2.140   2.106   4.756
 3879SOL    HW212090   2.012   2.075   4.681
 3880SOL     OW12091   1.850   2.223   4.361
 3880SOL    HW112092   1.773   2.244   4.413
 3880SOL    HW212093   1.826   2.143   4.314
 3881SOL     OW12094   2.407   3.166   4.945
 3881SOL    HW112095   2.347   3.181   4.872
 3881SOL    HW212096   2.435   3.253   4.971
 3882SOL     OW12097   3.438   3.379   4.435
 3882SOL    HW112098   3.388   3.364   4.516
 3882SOL    HW212099   3.371   3.386   4.367
 3883SOL     OW12100   3.625   2.459   3.958
 3883SOL    HW112101   3.608   2.461   3.864
 3883SOL    HW212102   3.590   2.375   3.987
 3884SOL     OW12103   2.571   3.035   5.563
 3884SOL    HW112104   2.626   3.112   5.577
 3884SOL    HW212105   2.498   3.068   5.510
 3885SOL     OW12106   2.187   3.287   4.786
 3885SOL    HW112107   2.107   3.261   4.741
 3885SOL    HW212108   2.232   3.344   4.723
 3886SOL     OW12109   3.321   3.365   5.083
 3886SOL    HW112110   3.376   3.442   5.091
 3886SOL    HW212111   3.253   3.377   5.150
 3887SOL     OW12112   2.280   2.298   5.273
 3887SOL    HW112113   2.363   2.268   5.236
 3887SOL    HW212114   2.218   2.228   5.253
 3888SOL     OW12115   3.488   2.296   4.455
 3888SOL    HW112116   3.458   2.354   4.385
 3888SOL    HW212117   3.457   2.338   4.536
 3889SOL     OW12118   2.083   3.575   4.191
 3889SOL    HW112119   2.102   3.650   4.248
 3889SOL    HW212120   2.156   3.572   4.129
 3890SOL     OW12121   3.008   3.206   5.421
 3890SOL    HW112122   3.044   3.201   5.510
 3890SOL    HW212123   2.953   3.128   5.413
 3891SOL     OW12124   2.091   3.301   4.251
 3891SOL    HW112125   2.077   3.396   4.248
 3891SOL    HW212126   2.028   3.270   4.316
 3892SOL     OW12127   2.460   3.658   5.150
 3892SOL    HW112128   2.381   3.640   5.200
 3892SOL    HW212129   2.487   3.746   5.179
 3893SOL     OW12130   2.484   2.852   3.835
 3893SOL    HW112131   2.453   2.918   3.773
 3893SOL    HW212132   2.484   2.897   3.919
 3894SOL     OW12133   3.457   1.988   5.190
 3894SOL    HW112134   3.480   2.066   5.139
 3894SOL    HW212135   3.438   2.020   5.278
 3895SOL     OW12136   1.887   2.489   4.310
 3895SOL    HW112137   1.873   2.395   4.321
 3895SOL    HW212138   1.981   2.498   4.294
 3896SOL     OW12139   3.706   3.616   4.054
 3896SOL    HW112140   3.775   3.591   4.115
 3896SOL    HW212141   3.724   3.708   4.034
 3897SOL     OW12142   1.900   3.450   3.849
 3897SOL    HW112143   1.866   3.363   3.869
 3897SOL    HW212144   1.877   3.504   3.925
 3898SOL     OW12145   3.560   2.797   4.373
 3898SOL    HW112146   3.620   2.732   4.337
 3898SOL    HW212147   3.527   2.844   4.296
 3899SOL     OW12148   3.514   2.960   4.146
 3899SOL    HW112149   3.604   2.969   4.115
 3899SOL    HW212150   3.506   3.026   4.215
 3900SOL     OW12151   1.976   2.598   5.298
 3900SOL    HW112152   2.064   2.632   5.314
 3900SOL    HW212153   1.919   2.675   5.299
 3901SOL     OW12154   3.153   3.084   5.146
 3901SOL    HW112155   3.208   3.030   5.090
 3901SOL    HW212156   3.201   3.091   5.228
 3902SOL     OW12157   2.655   1.824   4.228
 3902SOL    HW112158   2.699   1.898   4.269
 3902SOL    HW212159   2.563   1.850   4.224
 3903SOL     OW12160   2.032   2.807   5.029
 3903SOL    HW112161   2.108   2.748   5.025
 3903SOL    HW212162   1.989   2.797   4.944
 3904SOL     OW12163   3.399   2.856   3.915
 3904SOL    HW112164   3.331   2.794   3.943
 3904SOL    HW212165   3.437   2.889   3.996
 3905SOL     OW12166   3.046   3.675   5.349
 3905SOL    HW112167   3.051   3.737   5.277
 3905SOL    HW212168   3.064   3.590   5.310
 3906SOL     OW12169   2.199   2.102   5.548
 3906SOL    HW112170   2.239   2.189   5.547
 3906SOL    HW212171   2.108   2.118   5.574
 3907SOL     OW12172   3.322   3.269   4.680
 3907SOL    HW112173   3.257   3.291   4.746
 3907SOL    HW212174   3.279   3.204   4.624
 3908SOL     OW12175   3.517   3.618   4.299
 3908SOL    HW112176   3.497   3.586   4.212
 3908SOL    HW212177   3.500   3.544   4.358
 3909SOL     OW12178   3.440   3.538   4.034
 3909SOL    HW112179   3.533   3.562   4.025
 3909SOL    HW212180   3.411   3.521   3.944
 3910SOL     OW12181   3.257   2.334   5.402
 3910SOL    HW112182   3.261   2.379   5.486
 3910SOL    HW212183   3.314   2.258   5.412
 3911SOL     OW12184   2.913   2.482   4.154
 3911SOL    HW112185   2.903   2.544   4.227
 3911SOL    HW212186   2.855   2.517   4.086
 3912SOL     OW12187   1.986   3.732   5.307
 3912SOL    HW112188   1.990   3.709   5.400
 3912SOL    HW212189   1.901   3.700   5.277
 3913SOL     OW12190   3.563   2.432   5.555
 3913SOL    HW112191   3.529   2.506   5.504
 3913SOL    HW212192   3.594   2.369   5.489
 3914SOL     OW12193   2.905   3.384   4.174
 3914SOL    HW112194   2.847   3.440   4.121
 3914SOL    HW212195   2.852   3.359   4.249
 3915SOL     OW12196   2.216   3.675   4.592
 3915SOL    HW112197   2.264   3.592   4.596
 3915SOL    HW212198   2.282   3.742   4.611
 3916SOL     OW12199   3.668   2.920   4.595
 3916SOL    HW112200   3.623   2.892   4.516
 3916SOL    HW212201   3.600   2.920   4.663
 3917SOL     OW12202   3.091   3.400   5.238
 3917SOL    HW112203   3.082   3.334   5.306
 3917SOL    HW212204   3.025   3.377   5.173
 3918SOL     OW12205   2.330   3.135   5.462
 3918SOL    HW112206   2.302   3.139   5.371
 3918SOL    HW212207   2.248   3.130   5.512
 3919SOL     OW12208   2.987   3.649   3.948
 3919SOL    HW112209   2.906   3.618   3.987
 3919SOL    HW212210   3.010   3.582   3.884
 3920SOL     OW12211   2.053   2.138   5.227
 3920SOL    HW112212   1.966   2.174   5.247
 3920SOL    HW212213   2.051   2.050   5.263
 3921SOL     OW12214   3.502   3.255   3.815
 3921SOL    HW112215   3.457   3.338   3.799
 3921SOL    HW212216   3.436   3.188   3.793
 3922SOL     OW12217   2.319   3.605   4.038
 3922SOL    HW112218   2.369   3.655   4.103
 3922SOL    HW212219   2.386   3.564   3.983
 3923SOL     OW12220   3.273   1.945   4.166
 3923SOL    HW112221   3.257   1.939   4.072
 3923SOL    HW212222   3.360   1.984   4.173
 3924SOL     OW12223   2.119   3.654   4.953
 3924SOL    HW112224   2.167   3.580   4.993
 3924SOL    HW212225   2.103   3.626   4.863
 3925SOL     OW12226   2.805   3.554   4.621
 3925SOL    HW112227   2.891   3.513   4.621
 3925SOL    HW212228   2.758   3.512   4.549
 3926SOL     OW12229   3.390   2.086   5.448
 3926SOL    HW112230   3.400   2.107   5.541
 3926SOL    HW212231   3.326   2.015   5.446
 3927SOL     OW12232   2.503   1.950   3.823
 3927SOL    HW112233   2.571   1.884   3.835
 3927SOL    HW212234   2.451   1.918   3.750
 3928SOL     OW12235   2.621   2.114   5.466
 3928SOL    HW112236   2.704   2.066   5.469
 3928SOL    HW212237   2.609   2.148   5.554
 3929SOL     OW12238   2.752   3.406   4.953
 3929SOL    HW112239   2.736   3.356   4.873
 3929SOL    HW212240   2.820   3.356   4.999
 3930SOL     OW12241   3.207   2.450   5.160
 3930SOL    HW112242   3.235   2.418   5.246
 3930SOL    HW212243   3.248   2.537   5.154
 3931SOL     OW12244   2.397   1.909   4.210
 3931SOL    HW112245   2.324   1.908   4.272
 3931SOL    HW212246   2.393   1.995   4.169
 3932SOL     OW12247   3.312   3.066   3.767
 3932SOL    HW112248   3.346   2.990   3.814
 3932SOL    HW212249   3.236   3.095   3.819
 3933SOL     OW12250   2.166   1.919   3.909
 3933SOL    HW112251   2.224   1.991   3.933
 3933SOL    HW212252   2.209   1.841   3.944
 3934SOL     OW12253   2.929   2.507   5.193
 3934SOL    HW112254   2.916   2.416   5.220
 3934SOL    HW212255   3.020   2.510   5.165
 3935SOL     OW12256   3.070   3.456   4.536
 3935SOL    HW112257   3.083   3.503   4.453
 3935SOL    HW212258   3.144   3.483   4.591
 3936SOL     OW12259   3.125   3.657   4.339
 3936SOL    HW112260   3.174   3.716   4.281
 3936SOL    HW212261   3.055   3.712   4.375
 3937SOL     OW12262   1.947   2.422   5.086
 3937SOL    HW112263   2.028   2.376   5.107
 3937SOL    HW212264   1.941   2.493   5.150
 3938SOL     OW12265   2.426   2.049   4.908
 3938SOL    HW112266   2.448   1.984   4.975
 3938SOL    HW212267   2.331   2.059   4.914
 3939SOL     OW12268   3.392   2.370   4.698
 3939SOL    HW112269   3.353   2.299   4.749
 3939SOL    HW212270   3.428   2.430   4.764
 3940SOL     OW12271   3.710   2.673   4.106
 3940SOL    HW112272   3.766   2.623   4.164
 3940SOL    HW212273   3.680   2.610   4.040
 3941SOL     OW12274   2.351   3.275   3.883
 3941SOL    HW112275   2.274   3.246   3.932
 3941SOL    HW212276   2.338   3.240   3.795
 3942SOL     OW12277   3.534   3.127   4.364
 3942SOL    HW112278   3.629   3.124   4.375
 3942SOL    HW212279   3.510   3.217   4.383
 3943SOL     OW12280   2.365   2.103   3.995
 3943SOL    HW112281   2.423   2.055   3.935
 3943SOL    HW212282   2.371   2.194   3.967
 3944SOL     OW12283   3.611   3.104   5.289
 3944SOL    HW112284   3.699   3.066   5.281
 3944SOL    HW212285   3.627   3.194   5.317
 3945SOL     OW12286   2.935   3.229   5.065
 3945SOL    HW112287   2.854   3.189   5.095
 3945SOL    HW212288   3.004   3.170   5.098
 3946SOL     OW12289   3.471   3.488   5.381
 3946SOL    HW112290   3.462   3.523   5.292
 3946SOL    HW212291   3.553   3.440   5.380
 3947SOL     OW12292   3.484   2.960   4.801
 3947SOL    HW112293   3.491   3.016   4.878
 3947SOL    HW212294   3.408   2.993   4.754
 3948SOL     OW12295   2.779   1.960   5.116
 3948SOL    HW112296   2.801   1.929   5.028
 3948SOL    HW212297   2.862   1.992   5.151
 3949SOL     OW12298   2.850   2.982   5.443
 3949SOL    HW112299   2.760   2.992   5.474
 3949SOL    HW212300   2.842   2.934   5.360
 3950SOL     OW12301   2.528   2.977   4.071
 3950SOL    HW112302   2.487   2.997   4.155
 3950SOL    HW212303   2.574   2.894   4.086
 3951SOL     OW12304   2.252   2.639   5.030
 3951SOL    HW112305   2.335   2.677   5.056
 3951SOL    HW212306   2.264   2.545   5.040
 3952SOL     OW12307   3.125   2.233   5.019
 3952SOL    HW112308   3.164   2.307   5.065
 3952SOL    HW212309   3.050   2.270   4.972
 3953SOL     OW12310   1.933   3.433   5.079
 3953SOL    HW112311   1.903   3.504   5.023
 3953SOL    HW212312   2.029   3.435   5.071
 3954SOL     OW12313   3.132   3.217   4.076
 3954SOL    HW112314   3.187   3.281   4.120
 3954SOL    HW212315   3.047   3.226   4.117
 3955SOL     OW12316   3.141   3.315   4.882
 3955SOL    HW112317   3.205   3.325   4.952
 3955SOL    HW212318   3.064   3.278   4.926
 3956SOL     OW12319   3.462   2.471   4.214
 3956SOL    HW112320   3.388   2.531   4.228
 3956SOL    HW212321   3.515   2.514   4.147
 3957SOL     OW12322   2.206   3.396   5.032
 3957SOL    HW112323   2.195   3.349   4.949
 3957SOL    HW212324   2.300   3.407   5.042
 3958SOL     OW12325   2.258   2.593   5.336
 3958SOL    HW112326   2.312   2.638   5.271
 3958SOL    HW212327   2.280   2.500   5.325
 3959SOL     OW12328   3.469   2.642   5.411
 3959SOL    HW112329   3.384   2.685   5.405
 3959SOL    HW212330   3.522   2.685   5.344
 3960SOL     OW12331   2.867   1.994   5.485
 3960SOL    HW112332   2.922   2.066   5.454
 3960SOL    HW212333   2.913   1.914   5.458
 3961SOL     OW12334   2.360   1.893   5.472
 3961SOL    HW112335   2.312   1.841   5.407
 3961SOL    HW212336   2.304   1.969   5.488
 3962SOL     OW12337   3.139   2.346   4.063
 3962SOL    HW112338   3.108   2.260   4.034
 3962SOL    HW212339   3.061   2.402   4.060
 3963SOL     OW12340   2.162   2.065   4.974
 3963SOL    HW112341   2.119   2.095   5.053
 3963SOL    HW212342   2.139   1.972   4.967
 3964SOL     OW12343   1.935   3.170   4.989
 3964SOL    HW112344   1.947   3.114   5.067
 3964SOL    HW212345   1.923   3.258   5.024
 3965SOL     OW12346   3.602   2.821   5.582
 3965SOL    HW112347   3.558   2.754   5.530
 3965SOL    HW212348   3.541   2.840   5.654
 3966SOL     OW12349   2.158   1.917   4.355
 3966SOL    HW112350   2.104   1.993   4.376
 3966SOL    HW212351   2.170   1.872   4.439
 3967SOL     OW12352   3.489   2.231   4.083
 3967SOL    HW112353   3.519   2.166   4.147
 3967SOL    HW212354   3.462   2.306   4.136
 3968SOL     OW12355   2.844   3.428   5.444
 3968SOL    HW112356   2.827   3.474   5.362
 3968SOL    HW212357   2.889   3.348   5.418
 3969SOL     OW12358   3.713   3.363   5.326
 3969SOL    HW112359   3.736   3.390   5.237
 3969SOL    HW212360   3.793   3.378   5.377
 3970SOL     OW12361   2.208   2.781   5.537
 3970SOL    HW112362   2.288   2.806   5.582
 3970SOL    HW212363   2.235   2.710   5.478
 3971SOL     OW12364   3.390   2.130   3.846
 3971SOL    HW112365   3.325   2.067   3.877
 3971SOL    HW212366   3.423   2.172   3.926
 3972SOL     OW12367   2.999   2.240   5.399
 3972SOL    HW112368   2.956   2.290   5.469
 3972SOL    HW212369   3.088   2.275   5.396
 3973SOL     OW12370   3.021   2.055   5.199
 3973SOL    HW112371   3.012   2.119   5.269
 3973SOL    HW212372   3.067   2.102   5.129
 3974SOL     OW12373   1.859   3.180   3.918
 3974SOL    HW112374   1.773   3.197   3.878
 3974SOL    HW212375   1.851   3.093   3.956
 3975SOL     OW12376   1.953   3.643   4.668
 3975SOL    HW112377   1.921   3.565   4.623
 3975SOL    HW212378   2.040   3.657   4.633
 3976SOL     OW12379   2.367   3.437   4.638
 3976SOL    HW112380   2.424   3.511   4.657
 3976SOL    HW212381   2.427   3.363   4.626
 3977SOL     OW12382   2.054   2.381   5.454
 3977SOL    HW112383   2.121   2.347   5.395
 3977SOL    HW212384   2.013   2.453   5.406
 3978SOL     OW12385   3.243   2.797   5.379
 3978SOL    HW112386   3.265   2.890   5.378
 3978SOL    HW212387   3.239   2.772   5.287
 3979SOL     OW12388   3.514   2.478   4.923
 3979SOL    HW112389   3.502   2.413   4.992
 3979SOL    HW212390   3.599   2.456   4.884
 3980SOL     OW12391   2.099   3.411   5.448
 3980SOL    HW112392   2.078   3.475   5.515
 3980SOL    HW212393   2.106   3.328   5.495
 3981SOL     OW12394   2.448   2.311   5.012
 3981SOL    HW112395   2.436   2.218   4.996
 3981SOL    HW212396   2.498   2.342   4.936
 3982SOL     OW12397   2.779   3.547   5.201
 3982SOL    HW112398   2.760   3.507   5.116
 3982SOL    HW212399   2.777   3.641   5.184
 3983SOL     OW12400   1.997   3.005   5.207
 3983SOL    HW112401   2.000   2.965   5.293
 3983SOL    HW212402   2.010   2.933   5.145
 3984SOL     OW12403   3.198   2.688   4.001
 3984SOL    HW112404   3.176   2.670   4.092
 3984SOL    HW212405   3.158   2.616   3.952
 3985SOL     OW12406   3.640   3.600   4.880
 3985SOL    HW112407   3.700   3.626   4.811
 3985SOL    HW212408   3.613   3.511   4.856
 3986SOL     OW12409   3.105   3.594   4.835
 3986SOL    HW112410   3.188   3.616   4.791
 3986SOL    HW212411   3.111   3.500   4.851
 3987SOL     OW12412   1.910   3.187   4.717
 3987SOL    HW112413   1.912   3.176   4.812
 3987SOL    HW212414   1.894   3.100   4.683
 3988SOL     OW12415   2.542   3.533   5.461
 3988SOL    HW112416   2.483   3.608   5.453
 3988SOL    HW212417   2.610   3.549   5.396
 3989SOL     OW12418   3.590   2.016   4.232
 3989SOL    HW112419   3.659   1.999   4.168
 3989SOL    HW212420   3.570   1.931   4.270
 3990SOL     OW12421   3.266   3.429   4.222
 3990SOL    HW112422   3.317   3.464   4.150
 3990SOL    HW212423   3.199   3.496   4.240
 3991SOL     OW12424   2.002   3.658   5.567
 3991SOL    HW112425   1.952   3.591   5.614
 3991SOL    HW212426   2.049   3.705   5.635
 3992SOL     OW12427   2.685   3.144   5.149
 3992SOL    HW112428   2.649   3.187   5.227
 3992SOL    HW212429   2.610   3.129   5.093
 3993SOL     OW12430   2.519   3.492   3.876
 3993SOL    HW112431   2.538   3.500   3.783
 3993SOL    HW212432   2.474   3.408   3.885
 3994SOL     OW12433   3.481   3.589   5.114
 3994SOL    HW112434   3.535   3.595   5.035
 3994SOL    HW212435   3.467   3.680   5.140
 3995SOL     OW12436   3.703   2.032   4.691
 3995SOL    HW112437   3.733   1.944   4.665
 3995SOL    HW212438   3.617   2.040   4.649
 3996SOL     OW12439   3.072   3.462   3.758
 3996SOL    HW112440   3.045   3.381   3.802
 3996SOL    HW212441   3.008   3.472   3.686
 3997SOL     OW12442   3.351   3.494   3.768
 3997SOL    HW112443   3.257   3.481   3.754
 3997SOL    HW212444   3.388   3.498   3.679
 3998SOL     OW12445   2.223   3.169   5.221
 3998SOL    HW112446   2.216   3.240   5.157
 3998SOL    HW212447   2.145   3.116   5.206
 3999SOL     OW12448   3.459   3.137   5.010
 3999SOL    HW112449   3.530   3.131   5.075
 3999SOL    HW212450   3.406   3.211   5.039
 4000SOL     OW12451   2.489   3.420   4.200
 4000SOL    HW112452   2.527   3.359   4.137
 4000SOL    HW212453   2.396   3.422   4.179
 4001SOL     OW12454   3.590   2.254   5.106
 4001SOL    HW112455   3.664   2.316   5.106
 4001SOL    HW212456   3.618   2.183   5.048
 4002SOL     OW12457   2.117   3.188   4.003
 4002SOL    HW112458   2.023   3.195   3.987
 4002SOL    HW212459   2.129   3.221   4.092
 4003SOL     OW12460   1.973   2.899   5.455
 4003SOL    HW112461   1.897   2.868   5.504
 4003SOL    HW212462   2.047   2.854   5.496
 4004SOL     OW12463   2.538   2.052   5.212
 4004SOL    HW112464   2.625   2.028   5.179
 4004SOL    HW212465   2.554   2.078   5.303
 4005SOL     OW12466   1.905   2.162   3.783
 4005SOL    HW112467   1.854   2.177   3.703
 4005SOL    HW212468   1.973   2.230   3.780
 4006SOL     OW12469   3.280   2.720   5.119
 4006SOL    HW112470   3.221   2.729   5.045
 4006SOL    HW212471   3.367   2.731   5.081
 4007SOL     OW12472   1.921   2.010   4.016
 4007SOL    HW112473   1.895   2.072   3.947
 4007SOL    HW212474   2.010   1.985   3.994
 4008SOL     OW12475   3.344   3.638   4.703
 4008SOL    HW112476   3.363   3.706   4.637
 4008SOL    HW212477   3.430   3.620   4.742
 4009SOL     OW12478   3.337   3.058   5.355
 4009SOL    HW112479   3.325   3.073   5.448
 4009SOL    HW212480   3.429   3.077   5.339
 4010SOL     OW12481   2.232   3.602   5.291
 4010SOL    HW112482   2.150   3.648   5.275
 4010SOL    HW212483   2.206   3.520   5.331
 4011SOL     OW12484   3.518   2.746   4.984
 4011SOL    HW112485   3.523   2.657   4.951
 4011SOL    HW212486   3.521   2.801   4.905
 4012SOL     OW12487   3.618   2.226   5.378
 4012SOL    HW112488   3.605   2.242   5.285
 4012SOL    HW212489   3.546   2.168   5.403
 4013SOL     OW12490   3.608   2.797   5.238
 4013SOL    HW112491   3.601   2.891   5.251
 4013SOL    HW212492   3.588   2.784   5.145
 4014SOL     OW12493   2.526   3.650   4.667
 4014SOL    HW112494   2.505   3.741   4.646
 4014SOL    HW212495   2.621   3.644   4.658
 4015SOL     OW12496   3.710   3.417   4.564
 4015SOL    HW112497   3.632   3.404   4.511
 4015SOL    HW212498   3.706   3.347   4.630
 4016SOL     OW12499   2.086   3.161   5.578
 4016SOL    HW112500   2.025   3.095   5.546
 4016SOL    HW212501   2.062   3.173   5.670
 4017SOL     OW12502   1.943   3.106   4.398
 4017SOL    HW112503   1.915   3.047   4.468
 4017SOL    HW212504   2.004   3.054   4.346
 4018SOL     OW12505   2.548   3.269   5.353
 4018SOL    HW112506   2.466   3.229   5.382
 4018SOL    HW212507   2.545   3.358   5.389
 4019SOL     OW12508   3.672   2.043   4.961
 4019SOL    HW112509   3.679   1.949   4.974
 4019SOL    HW212510   3.683   2.056   4.867
 4020SOL     OW12511   3.557   3.348   4.818
 4020SOL    HW112512   3.478   3.322   4.771
 4020SOL    HW212513   3.571   3.278   4.881
 4021SOL     OW12514   2.679   3.476   4.392
 4021SOL    HW112515   2.692   3.561   4.349
 4021SOL    HW212516   2.611   3.433   4.341
 4022SOL     OW12517   3.293   2.120   4.829
 4022SOL    HW112518   3.305   2.028   4.850
 4022SOL    HW212519   3.235   2.153   4.897
 4023SOL     OW12520   2.862   1.856   4.878
 4023SOL    HW112521   2.818   1.814   4.804
 4023SOL    HW212522   2.952   1.826   4.872
 4024SOL     OW12523   2.617   3.237   4.043
 4024SOL    HW112524   2.575   3.152   4.027
 4024SOL    HW212525   2.683   3.244   3.974
 4025SOL     OW12526   2.482   3.426   5.010
 4025SOL    HW112527   2.478   3.509   5.058
 4025SOL    HW212528   2.574   3.416   4.987
 4026SOL     OW12529   3.213   1.919   3.896
 4026SOL    HW112530   3.250   1.849   3.842
 4026SOL    HW212531   3.125   1.888   3.918
 4027SOL     OW12532   3.444   2.055   4.602
 4027SOL    HW112533   3.389   2.091   4.671
 4027SOL    HW212534   3.453   2.126   4.538
 4028SOL     OW12535   1.892   2.924   4.027
 4028SOL    HW112536   1.939   2.909   3.945
 4028SOL    HW212537   1.872   2.837   4.060
 4029SOL     OW12538   2.739   3.553   4.040
 4029SOL    HW112539   2.662   3.525   3.989
 4029SOL    HW212540   2.702   3.606   4.111
 4030SOL     OW12541   2.086   2.480   5.713
 4030SOL    HW112542   1.997   2.481   5.750
 4030SOL    HW212543   2.073   2.458   5.621
 4031SOL     OW12544   2.086   2.145   6.578
 4031SOL    HW112545   2.114   2.110   6.663
 4031SOL    HW212546   1.997   2.113   6.567
 4032SOL     OW12547   1.860   2.245   6.225
 4032SOL    HW112548   1.779   2.273   6.268
 4032SOL    HW212549   1.835   2.168   6.174
 4033SOL     OW12550   2.423   3.157   6.766
 4033SOL    HW112551   2.339   3.172   6.723
 4033SOL    HW212552   2.446   3.241   6.806
 4034SOL     OW12553   3.431   3.376   6.295
 4034SOL    HW112554   3.388   3.354   6.377
 4034SOL    HW212555   3.360   3.381   6.231
 4035SOL     OW12556   3.017   2.533   6.301
 4035SOL    HW112557   3.039   2.625   6.287
 4035SOL    HW212558   2.947   2.535   6.366
 4036SOL     OW12559   3.637   2.461   5.812
 4036SOL    HW112560   3.611   2.456   5.720
 4036SOL    HW212561   3.598   2.383   5.852
 4037SOL     OW12562   2.645   3.031   6.658
 4037SOL    HW112563   2.561   3.048   6.700
 4037SOL    HW212564   2.661   3.108   6.603
 4038SOL     OW12565   2.581   3.017   7.396
 4038SOL    HW112566   2.628   3.094   7.427
 4038SOL    HW212567   2.501   3.052   7.357
 4039SOL     OW12568   2.191   3.283   6.652
 4039SOL    HW112569   2.118   3.243   6.605
 4039SOL    HW212570   2.238   3.333   6.586
 4040SOL     OW12571   3.320   3.364   6.947
 4040SOL    HW112572   3.374   3.442   6.957
 4040SOL    HW212573   3.251   3.374   7.012
 4041SOL     OW12574   2.314   2.262   7.084
 4041SOL    HW112575   2.392   2.207   7.081
 4041SOL    HW212576   2.241   2.201   7.096
 4042SOL     OW12577   3.468   2.304   6.330
 4042SOL    HW112578   3.392   2.318   6.274
 4042SOL    HW212579   3.469   2.379   6.389
 4043SOL     OW12580   2.081   3.579   6.054
 4043SOL    HW112581   2.103   3.653   6.111
 4043SOL    HW212582   2.156   3.571   5.996
 4044SOL     OW12583   3.000   3.204   7.279
 4044SOL    HW112584   3.037   3.201   7.368
 4044SOL    HW212585   2.951   3.122   7.271
 4045SOL     OW12586   2.092   3.307   6.122
 4045SOL    HW112587   2.075   3.401   6.123
 4045SOL    HW212588   2.036   3.271   6.190
 4046SOL     OW12589   2.121   2.954   6.472
 4046SOL    HW112590   2.114   2.867   6.512
 4046SOL    HW212591   2.068   3.010   6.529
 4047SOL     OW12592   2.462   3.658   7.010
 4047SOL    HW112593   2.383   3.638   7.060
 4047SOL    HW212594   2.488   3.745   7.040
 4048SOL     OW12595   2.426   2.861   5.713
 4048SOL    HW112596   2.473   2.919   5.654
 4048SOL    HW212597   2.485   2.851   5.788
 4049SOL     OW12598   3.458   1.989   7.050
 4049SOL    HW112599   3.480   2.070   7.004
 4049SOL    HW212600   3.436   2.017   7.139
 4050SOL     OW12601   1.980   2.513   6.149
 4050SOL    HW112602   1.944   2.427   6.172
 4050SOL    HW212603   1.970   2.565   6.229
 4051SOL     OW12604   3.706   3.616   5.917
 4051SOL    HW112605   3.775   3.591   5.978
 4051SOL    HW212606   3.724   3.708   5.897
 4052SOL     OW12607   1.901   3.452   5.707
 4052SOL    HW112608   1.882   3.360   5.727
 4052SOL    HW212609   1.875   3.500   5.786
 4053SOL     OW12610   3.551   2.780   6.231
 4053SOL    HW112611   3.634   2.736   6.210
 4053SOL    HW212612   3.531   2.831   6.153
 4054SOL     OW12613   3.511   2.965   6.016
 4054SOL    HW112614   3.597   2.966   5.974
 4054SOL    HW212615   3.518   3.029   6.087
 4055SOL     OW12616   1.969   2.602   7.173
 4055SOL    HW112617   2.061   2.629   7.175
 4055SOL    HW212618   1.920   2.685   7.175
 4056SOL     OW12619   2.482   3.254   6.320
 4056SOL    HW112620   2.438   3.169   6.330
 4056SOL    HW212621   2.462   3.281   6.231
 4057SOL     OW12622   3.148   3.096   7.010
 4057SOL    HW112623   3.179   3.029   6.949
 4057SOL    HW212624   3.208   3.090   7.084
 4058SOL     OW12625   2.678   1.854   6.101
 4058SOL    HW112626   2.724   1.935   6.078
 4058SOL    HW212627   2.586   1.879   6.104
 4059SOL     OW12628   2.038   2.828   6.863
 4059SOL    HW112629   2.123   2.785   6.850
 4059SOL    HW212630   1.978   2.780   6.806
 4060SOL     OW12631   3.394   2.860   5.786
 4060SOL    HW112632   3.330   2.796   5.819
 4060SOL    HW212633   3.436   2.895   5.865
 4061SOL     OW12634   3.047   3.675   7.211
 4061SOL    HW112635   3.051   3.735   7.137
 4061SOL    HW212636   3.063   3.588   7.173
 4062SOL     OW12637   2.200   2.106   7.413
 4062SOL    HW112638   2.240   2.192   7.423
 4062SOL    HW212639   2.108   2.119   7.435
 4063SOL     OW12640   3.331   3.282   6.535
 4063SOL    HW112641   3.263   3.298   6.601
 4063SOL    HW212642   3.318   3.191   6.509
 4064SOL     OW12643   3.515   3.615   6.163
 4064SOL    HW112644   3.498   3.582   6.075
 4064SOL    HW212645   3.496   3.542   6.221
 4065SOL     OW12646   3.144   2.223   6.520
 4065SOL    HW112647   3.055   2.190   6.528
 4065SOL    HW212648   3.196   2.170   6.580
 4066SOL     OW12649   3.441   3.535   5.896
 4066SOL    HW112650   3.533   3.561   5.888
 4066SOL    HW212651   3.412   3.519   5.807
 4067SOL     OW12652   3.258   2.337   7.259
 4067SOL    HW112653   3.259   2.382   7.343
 4067SOL    HW212654   3.313   2.260   7.271
 4068SOL     OW12655   2.853   2.275   6.839
 4068SOL    HW112656   2.763   2.283   6.870
 4068SOL    HW212657   2.845   2.255   6.746
 4069SOL     OW12658   1.947   2.684   6.362
 4069SOL    HW112659   2.027   2.677   6.415
 4069SOL    HW212660   1.902   2.761   6.397
 4070SOL     OW12661   1.986   3.733   7.171
 4070SOL    HW112662   1.990   3.709   7.263
 4070SOL    HW212663   1.903   3.696   7.140
 4071SOL     OW12664   2.750   2.185   5.719
 4071SOL    HW112665   2.802   2.251   5.673
 4071SOL    HW212666   2.800   2.104   5.711
 4072SOL     OW12667   3.568   2.433   7.418
 4072SOL    HW112668   3.532   2.507   7.368
 4072SOL    HW212669   3.595   2.370   7.351
 4073SOL     OW12670   3.236   2.995   6.120
 4073SOL    HW112671   3.320   2.991   6.075
 4073SOL    HW212672   3.188   3.064   6.075
 4074SOL     OW12673   2.409   2.029   6.479
 4074SOL    HW112674   2.411   2.056   6.570
 4074SOL    HW212675   2.406   2.111   6.429
 4075SOL     OW12676   2.860   3.305   6.054
 4075SOL    HW112677   2.832   3.382   6.004
 4075SOL    HW212678   2.837   3.327   6.145
 4076SOL     OW12679   2.216   3.675   6.457
 4076SOL    HW112680   2.261   3.590   6.462
 4076SOL    HW212681   2.285   3.739   6.475
 4077SOL     OW12682   3.663   2.912   6.459
 4077SOL    HW112683   3.610   2.893   6.381
 4077SOL    HW212684   3.599   2.920   6.530
 4078SOL     OW12685   3.087   3.401   7.098
 4078SOL    HW112686   3.077   3.330   7.161
 4078SOL    HW212687   3.021   3.383   7.031
 4079SOL     OW12688   2.170   2.828   5.839
 4079SOL    HW112689   2.250   2.849   5.790
 4079SOL    HW212690   2.148   2.739   5.812
 4080SOL     OW12691   3.339   2.617   6.309
 4080SOL    HW112692   3.340   2.572   6.393
 4080SOL    HW212693   3.419   2.669   6.308
 4081SOL     OW12694   2.332   3.129   7.324
 4081SOL    HW112695   2.304   3.135   7.233
 4081SOL    HW212696   2.250   3.124   7.374
 4082SOL     OW12697   2.987   3.640   5.815
 4082SOL    HW112698   2.911   3.602   5.858
 4082SOL    HW212699   3.011   3.577   5.747
 4083SOL     OW12700   2.065   2.133   7.090
 4083SOL    HW112701   1.982   2.182   7.092
 4083SOL    HW212702   2.043   2.049   7.130
 4084SOL     OW12703   3.490   3.243   5.677
 4084SOL    HW112704   3.449   3.328   5.662
 4084SOL    HW212705   3.421   3.180   5.656
 4085SOL     OW12706   2.325   3.598   5.905
 4085SOL    HW112707   2.370   3.654   5.968
 4085SOL    HW212708   2.395   3.564   5.849
 4086SOL     OW12709   3.263   1.968   6.025
 4086SOL    HW112710   3.256   1.941   5.934
 4086SOL    HW212711   3.357   1.973   6.042
 4087SOL     OW12712   2.118   3.651   6.814
 4087SOL    HW112713   2.169   3.582   6.857
 4087SOL    HW212714   2.112   3.624   6.723
 4088SOL     OW12715   2.798   3.566   6.481
 4088SOL    HW112716   2.869   3.512   6.515
 4088SOL    HW212717   2.759   3.513   6.412
 4089SOL     OW12718   2.246   2.546   6.049
 4089SOL    HW112719   2.277   2.461   6.081
 4089SOL    HW212720   2.155   2.550   6.076
 4090SOL     OW12721   3.389   2.086   7.309
 4090SOL    HW112722   3.400   2.107   7.402
 4090SOL    HW212723   3.320   2.020   7.308
 4091SOL     OW12724   2.478   1.968   5.710
 4091SOL    HW112725   2.567   1.932   5.709
 4091SOL    HW212726   2.443   1.946   5.623
 4092SOL     OW12727   2.619   2.115   7.333
 4092SOL    HW112728   2.704   2.070   7.337
 4092SOL    HW212729   2.598   2.135   7.424
 4093SOL     OW12730   2.739   3.391   6.782
 4093SOL    HW112731   2.719   3.353   6.696
 4093SOL    HW212732   2.804   3.332   6.819
 4094SOL     OW12733   3.207   2.454   7.014
 4094SOL    HW112734   3.236   2.422   7.099
 4094SOL    HW212735   3.244   2.542   7.007
 4095SOL     OW12736   2.681   3.271   6.527
 4095SOL    HW112737   2.765   3.252   6.486
 4095SOL    HW212738   2.617   3.266   6.457
 4096SOL     OW12739   2.791   2.349   6.493
 4096SOL    HW112740   2.768   2.333   6.402
 4096SOL    HW212741   2.830   2.267   6.523
 4097SOL     OW12742   2.414   1.928   6.082
 4097SOL    HW112743   2.334   1.926   6.134
 4097SOL    HW212744   2.406   2.006   6.028
 4098SOL     OW12745   3.289   3.062   5.625
 4098SOL    HW112746   3.318   2.987   5.677
 4098SOL    HW212747   3.202   3.083   5.661
 4099SOL     OW12748   2.154   1.909   5.772
 4099SOL    HW112749   2.212   1.968   5.724
 4099SOL    HW212750   2.213   1.847   5.814
 4100SOL     OW12751   2.816   2.088   6.058
 4100SOL    HW112752   2.773   2.161   6.013
 4100SOL    HW212753   2.910   2.106   6.050
 4101SOL     OW12754   2.931   2.506   7.053
 4101SOL    HW112755   2.899   2.426   7.010
 4101SOL    HW212756   3.026   2.502   7.044
 4102SOL     OW12757   3.087   3.429   6.376
 4102SOL    HW112758   3.098   3.498   6.311
 4102SOL    HW212759   3.150   3.452   6.445
 4103SOL     OW12760   2.332   3.025   6.313
 4103SOL    HW112761   2.264   2.999   6.377
 4103SOL    HW212762   2.294   3.002   6.228
 4104SOL     OW12763   3.126   3.653   6.199
 4104SOL    HW112764   3.174   3.716   6.144
 4104SOL    HW212765   3.057   3.705   6.239
 4105SOL     OW12766   2.906   2.385   5.615
 4105SOL    HW112767   2.834   2.447   5.628
 4105SOL    HW212768   2.964   2.399   5.690
 4106SOL     OW12769   1.946   2.416   6.977
 4106SOL    HW112770   2.039   2.416   6.954
 4106SOL    HW212771   1.937   2.485   7.042
 4107SOL     OW12772   2.415   2.075   6.749
 4107SOL    HW112773   2.459   2.006   6.798
 4107SOL    HW212774   2.325   2.074   6.781
 4108SOL     OW12775   2.727   2.288   6.244
 4108SOL    HW112776   2.705   2.350   6.175
 4108SOL    HW212777   2.757   2.210   6.197
 4109SOL     OW12778   2.881   1.916   6.335
 4109SOL    HW112779   2.824   1.913   6.258
 4109SOL    HW212780   2.855   1.841   6.387
 4110SOL     OW12781   3.306   3.023   6.444
 4110SOL    HW112782   3.233   2.962   6.441
 4110SOL    HW212783   3.334   3.031   6.353
 4111SOL     OW12784   3.330   2.470   6.551
 4111SOL    HW112785   3.272   2.394   6.555
 4111SOL    HW212786   3.386   2.461   6.628
 4112SOL     OW12787   3.702   2.673   5.971
 4112SOL    HW112788   3.760   2.624   6.029
 4112SOL    HW212789   3.677   2.609   5.903
 4113SOL     OW12790   2.353   3.281   5.739
 4113SOL    HW112791   2.277   3.254   5.789
 4113SOL    HW212792   2.347   3.231   5.657
 4114SOL     OW12793   3.536   3.125   6.229
 4114SOL    HW112794   3.630   3.124   6.243
 4114SOL    HW212795   3.509   3.215   6.250
 4115SOL     OW12796   3.258   2.433   5.655
 4115SOL    HW112797   3.198   2.409   5.726
 4115SOL    HW212798   3.344   2.403   5.686
 4116SOL     OW12799   2.385   2.136   5.907
 4116SOL    HW112800   2.422   2.079   5.839
 4116SOL    HW212801   2.362   2.216   5.860
 4117SOL     OW12802   3.611   3.104   7.147
 4117SOL    HW112803   3.698   3.066   7.139
 4117SOL    HW212804   3.626   3.193   7.178
 4118SOL     OW12805   2.924   3.226   6.921
 4118SOL    HW112806   2.846   3.193   6.965
 4118SOL    HW212807   2.996   3.177   6.960
 4119SOL     OW12808   3.472   3.490   7.242
 4119SOL    HW112809   3.464   3.524   7.153
 4119SOL    HW212810   3.554   3.439   7.241
 4120SOL     OW12811   2.995   3.068   6.685
 4120SOL    HW112812   2.924   3.085   6.747
 4120SOL    HW212813   2.963   3.103   6.602
 4121SOL     OW12814   3.486   2.958   6.663
 4121SOL    HW112815   3.480   3.021   6.734
 4121SOL    HW212816   3.411   2.978   6.607
 4122SOL     OW12817   2.780   1.953   6.976
 4122SOL    HW112818   2.803   1.936   6.885
 4122SOL    HW212819   2.858   1.994   7.013
 4123SOL     OW12820   2.849   2.968   7.307
 4123SOL    HW112821   2.759   2.987   7.334
 4123SOL    HW212822   2.841   2.940   7.216
 4124SOL     OW12823   2.263   2.677   6.835
 4124SOL    HW112824   2.351   2.690   6.871
 4124SOL    HW212825   2.239   2.589   6.862
 4125SOL     OW12826   3.126   2.237   6.867
 4125SOL    HW112827   3.161   2.315   6.910
 4125SOL    HW212828   3.034   2.257   6.850
 4126SOL     OW12829   1.938   3.436   6.943
 4126SOL    HW112830   1.912   3.508   6.886
 4126SOL    HW212831   2.033   3.433   6.935
 4127SOL     OW12832   2.206   2.978   6.072
 4127SOL    HW112833   2.202   3.053   6.013
 4127SOL    HW212834   2.197   2.902   6.014
 4128SOL     OW12835   2.412   2.368   6.451
 4128SOL    HW112836   2.401   2.378   6.356
 4128SOL    HW212837   2.507   2.366   6.463
 4129SOL     OW12838   3.109   3.211   5.980
 4129SOL    HW112839   3.165   3.283   6.009
 4129SOL    HW212840   3.021   3.233   6.011
 4130SOL     OW12841   3.149   3.323   6.733
 4130SOL    HW112842   3.203   3.326   6.812
 4130SOL    HW212843   3.086   3.253   6.750
 4131SOL     OW12844   3.437   2.483   6.069
 4131SOL    HW112845   3.388   2.531   6.135
 4131SOL    HW212846   3.486   2.550   6.021
 4132SOL     OW12847   2.208   3.392   6.896
 4132SOL    HW112848   2.196   3.348   6.812
 4132SOL    HW212849   2.303   3.403   6.905
 4133SOL     OW12850   2.246   2.598   7.179
 4133SOL    HW112851   2.320   2.657   7.164
 4133SOL    HW212852   2.286   2.511   7.186
 4134SOL     OW12853   3.471   2.643   7.274
 4134SOL    HW112854   3.384   2.684   7.267
 4134SOL    HW212855   3.522   2.685   7.205
 4135SOL     OW12856   2.865   1.994   7.345
 4135SOL    HW112857   2.920   2.067   7.319
 4135SOL    HW212858   2.913   1.916   7.317
 4136SOL     OW12859   2.359   1.893   7.338
 4136SOL    HW112860   2.312   1.843   7.272
 4136SOL    HW212861   2.304   1.971   7.351
 4137SOL     OW12862   3.221   2.722   6.610
 4137SOL    HW112863   3.142   2.709   6.558
 4137SOL    HW212864   3.268   2.638   6.604
 4138SOL     OW12865   3.063   2.389   5.851
 4138SOL    HW112866   3.062   2.309   5.905
 4138SOL    HW212867   3.078   2.460   5.914
 4139SOL     OW12868   2.156   2.059   6.834
 4139SOL    HW112869   2.121   2.090   6.917
 4139SOL    HW212870   2.138   1.965   6.834
 4140SOL     OW12871   1.907   3.175   6.859
 4140SOL    HW112872   1.939   3.119   6.930
 4140SOL    HW212873   1.913   3.264   6.895
 4141SOL     OW12874   3.603   2.822   7.444
 4141SOL    HW112875   3.557   2.755   7.392
 4141SOL    HW212876   3.543   2.840   7.517
 4142SOL     OW12877   2.170   1.925   6.211
 4142SOL    HW112878   2.146   2.015   6.232
 4142SOL    HW212879   2.178   1.881   6.295
 4143SOL     OW12880   3.484   2.241   5.946
 4143SOL    HW112881   3.512   2.175   6.010
 4143SOL    HW212882   3.459   2.317   6.000
 4144SOL     OW12883   2.843   3.428   7.306
 4144SOL    HW112884   2.826   3.472   7.223
 4144SOL    HW212885   2.887   3.346   7.281
 4145SOL     OW12886   3.713   3.362   7.189
 4145SOL    HW112887   3.735   3.390   7.100
 4145SOL    HW212888   3.794   3.377   7.239
 4146SOL     OW12889   2.210   2.781   7.396
 4146SOL    HW112890   2.289   2.806   7.443
 4146SOL    HW212891   2.236   2.707   7.342
 4147SOL     OW12892   3.385   2.136   5.712
 4147SOL    HW112893   3.324   2.068   5.741
 4147SOL    HW212894   3.422   2.171   5.793
 4148SOL     OW12895   3.150   2.683   5.610
 4148SOL    HW112896   3.191   2.597   5.614
 4148SOL    HW212897   3.183   2.722   5.529
 4149SOL     OW12898   2.929   3.204   6.438
 4149SOL    HW112899   2.934   3.135   6.373
 4149SOL    HW212900   2.989   3.272   6.406
 4150SOL     OW12901   2.162   2.672   6.536
 4150SOL    HW112902   2.249   2.706   6.554
 4150SOL    HW212903   2.162   2.583   6.573
 4151SOL     OW12904   2.190   2.391   6.607
 4151SOL    HW112905   2.151   2.305   6.592
 4151SOL    HW212906   2.269   2.391   6.554
 4152SOL     OW12907   3.003   2.227   7.269
 4152SOL    HW112908   2.956   2.280   7.333
 4152SOL    HW212909   3.087   2.272   7.258
 4153SOL     OW12910   3.025   2.055   7.055
 4153SOL    HW112911   3.013   2.117   7.127
 4153SOL    HW212912   3.066   2.107   6.986
 4154SOL     OW12913   1.869   3.179   5.780
 4154SOL    HW112914   1.782   3.195   5.744
 4154SOL    HW212915   1.865   3.090   5.815
 4155SOL     OW12916   1.952   3.644   6.527
 4155SOL    HW112917   1.922   3.566   6.480
 4155SOL    HW212918   2.041   3.658   6.496
 4156SOL     OW12919   2.354   3.436   6.489
 4156SOL    HW112920   2.423   3.497   6.515
 4156SOL    HW212921   2.398   3.372   6.433
 4157SOL     OW12922   1.898   2.411   6.703
 4157SOL    HW112923   1.980   2.407   6.654
 4157SOL    HW212924   1.925   2.412   6.795
 4158SOL     OW12925   2.050   2.381   7.316
 4158SOL    HW112926   2.099   2.337   7.246
 4158SOL    HW212927   2.010   2.456   7.272
 4159SOL     OW12928   3.242   2.795   7.243
 4159SOL    HW112929   3.264   2.888   7.240
 4159SOL    HW212930   3.239   2.768   7.151
 4160SOL     OW12931   2.700   2.308   5.958
 4160SOL    HW112932   2.706   2.274   5.869
 4160SOL    HW212933   2.618   2.358   5.960
 4161SOL     OW12934   3.502   2.463   6.765
 4161SOL    HW112935   3.491   2.406   6.841
 4161SOL    HW212936   3.590   2.445   6.733
 4162SOL     OW12937   2.098   3.411   7.309
 4162SOL    HW112938   2.079   3.475   7.377
 4162SOL    HW212939   2.108   3.328   7.356
 4163SOL     OW12940   2.567   2.286   6.849
 4163SOL    HW112941   2.510   2.221   6.808
 4163SOL    HW212942   2.576   2.355   6.783
 4164SOL     OW12943   2.781   3.542   7.059
 4164SOL    HW112944   2.761   3.499   6.976
 4164SOL    HW212945   2.775   3.636   7.040
 4165SOL     OW12946   2.326   2.371   5.782
 4165SOL    HW112947   2.367   2.450   5.816
 4165SOL    HW212948   2.236   2.397   5.762
 4166SOL     OW12949   2.000   3.007   7.061
 4166SOL    HW112950   2.003   2.959   7.144
 4166SOL    HW212951   2.016   2.940   6.994
 4167SOL     OW12952   3.184   2.907   6.806
 4167SOL    HW112953   3.207   2.844   6.738
 4167SOL    HW212954   3.118   2.964   6.766
 4168SOL     OW12955   3.175   2.707   5.884
 4168SOL    HW112956   3.102   2.756   5.920
 4168SOL    HW212957   3.155   2.700   5.790
 4169SOL     OW12958   3.640   3.599   6.742
 4169SOL    HW112959   3.701   3.625   6.672
 4169SOL    HW212960   3.614   3.510   6.719
 4170SOL     OW12961   3.101   3.594   6.690
 4170SOL    HW112962   3.185   3.618   6.649
 4170SOL    HW212963   3.111   3.502   6.712
 4171SOL     OW12964   1.948   3.129   6.595
 4171SOL    HW112965   1.931   3.144   6.688
 4171SOL    HW212966   1.876   3.072   6.567
 4172SOL     OW12967   2.541   3.532   7.323
 4172SOL    HW112968   2.486   3.610   7.315
 4172SOL    HW212969   2.612   3.547   7.261
 4173SOL     OW12970   3.584   2.018   6.090
 4173SOL    HW112971   3.654   2.002   6.027
 4173SOL    HW212972   3.568   1.932   6.130
 4174SOL     OW12973   3.254   3.430   6.075
 4174SOL    HW112974   3.313   3.464   6.008
 4174SOL    HW212975   3.204   3.506   6.105
 4175SOL     OW12976   2.001   3.657   7.430
 4175SOL    HW112977   1.950   3.592   7.478
 4175SOL    HW212978   2.049   3.705   7.498
 4176SOL     OW12979   3.128   2.789   6.262
 4176SOL    HW112980   3.201   2.727   6.270
 4176SOL    HW212981   3.162   2.859   6.207
 4177SOL     OW12982   2.691   3.143   7.026
 4177SOL    HW112983   2.641   3.191   7.092
 4177SOL    HW212984   2.625   3.098   6.974
 4178SOL     OW12985   2.531   3.487   5.741
 4178SOL    HW112986   2.542   3.502   5.647
 4178SOL    HW212987   2.475   3.409   5.746
 4179SOL     OW12988   3.481   3.590   6.977
 4179SOL    HW112989   3.534   3.595   6.898
 4179SOL    HW212990   3.467   3.681   7.002
 4180SOL     OW12991   3.705   2.032   6.551
 4180SOL    HW112992   3.734   1.944   6.527
 4180SOL    HW212993   3.618   2.040   6.512
 4181SOL     OW12994   2.118   2.178   6.301
 4181SOL    HW112995   2.031   2.210   6.277
 4181SOL    HW212996   2.115   2.170   6.396
 4182SOL     OW12997   3.070   3.464   5.619
 4182SOL    HW112998   3.059   3.373   5.646
 4182SOL    HW212999   3.005   3.478   5.551
 4183SOL     OW13000   3.351   3.490   5.631
 4183SOL    HW113001   3.257   3.481   5.616
 4183SOL    HW213002   3.389   3.496   5.543
 4184SOL     OW13003   2.226   3.168   7.081
 4184SOL    HW113004   2.218   3.242   7.021
 4184SOL    HW213005   2.149   3.114   7.064
 4185SOL     OW13006   3.471   3.147   6.866
 4185SOL    HW113007   3.527   3.130   6.942
 4185SOL    HW213008   3.409   3.214   6.897
 4186SOL     OW13009   2.914   2.971   6.294
 4186SOL    HW113010   2.845   2.927   6.343
 4186SOL    HW213011   2.981   2.903   6.280
 4187SOL     OW13012   2.894   2.098   6.552
 4187SOL    HW113013   2.889   2.049   6.470
 4187SOL    HW213014   2.885   2.032   6.621
 4188SOL     OW13015   2.465   3.355   6.066
 4188SOL    HW113016   2.515   3.307   6.000
 4188SOL    HW213017   2.390   3.390   6.019
 4189SOL     OW13018   3.590   2.253   6.968
 4189SOL    HW113019   3.662   2.316   6.967
 4189SOL    HW213020   3.619   2.183   6.909
 4190SOL     OW13021   2.125   3.203   5.879
 4190SOL    HW113022   2.032   3.200   5.854
 4190SOL    HW213023   2.124   3.244   5.965
 4191SOL     OW13024   1.974   2.894   7.309
 4191SOL    HW113025   1.899   2.868   7.361
 4191SOL    HW213026   2.049   2.852   7.352
 4192SOL     OW13027   2.532   2.050   7.082
 4192SOL    HW113028   2.618   2.036   7.040
 4192SOL    HW213029   2.553   2.076   7.171
 4193SOL     OW13030   1.942   2.190   5.620
 4193SOL    HW113031   1.855   2.171   5.586
 4193SOL    HW213032   1.972   2.266   5.570
 4194SOL     OW13033   3.289   2.721   6.983
 4194SOL    HW113034   3.239   2.782   6.929
 4194SOL    HW213035   3.378   2.724   6.947
 4195SOL     OW13036   1.926   2.016   5.887
 4195SOL    HW113037   1.913   2.094   5.834
 4195SOL    HW213038   2.011   1.982   5.860
 4196SOL     OW13039   3.041   3.200   5.704
 4196SOL    HW113040   2.951   3.167   5.704
 4196SOL    HW213041   3.067   3.198   5.796
 4197SOL     OW13042   3.345   3.647   6.569
 4197SOL    HW113043   3.367   3.713   6.503
 4197SOL    HW213044   3.430   3.620   6.606
 4198SOL     OW13045   3.336   3.055   7.216
 4198SOL    HW113046   3.324   3.071   7.310
 4198SOL    HW213047   3.429   3.075   7.201
 4199SOL     OW13048   2.233   3.604   7.152
 4199SOL    HW113049   2.150   3.649   7.138
 4199SOL    HW213050   2.208   3.520   7.191
 4200SOL     OW13051   3.527   2.742   6.841
 4200SOL    HW113052   3.523   2.657   6.797
 4200SOL    HW213053   3.517   2.806   6.770
 4201SOL     OW13054   3.081   2.179   6.041
 4201SOL    HW113055   3.142   2.106   6.033
 4201SOL    HW213056   3.111   2.227   6.118
 4202SOL     OW13057   3.617   2.225   7.241
 4202SOL    HW113058   3.605   2.242   7.148
 4202SOL    HW213059   3.544   2.169   7.265
 4203SOL     OW13060   3.612   2.795   7.097
 4203SOL    HW113061   3.600   2.889   7.111
 4203SOL    HW213062   3.593   2.781   7.004
 4204SOL     OW13063   2.738   3.240   5.631
 4204SOL    HW113064   2.696   3.274   5.710
 4204SOL    HW213065   2.754   3.318   5.577
 4205SOL     OW13066   2.524   3.647   6.523
 4205SOL    HW113067   2.507   3.739   6.504
 4205SOL    HW213068   2.619   3.638   6.519
 4206SOL     OW13069   2.972   2.879   5.675
 4206SOL    HW113070   2.933   2.914   5.595
 4206SOL    HW213071   3.030   2.809   5.645
 4207SOL     OW13072   3.709   3.414   6.428
 4207SOL    HW113073   3.629   3.403   6.376
 4207SOL    HW213074   3.698   3.353   6.501
 4208SOL     OW13075   2.087   3.161   7.440
 4208SOL    HW113076   2.028   3.095   7.405
 4208SOL    HW213077   2.057   3.174   7.530
 4209SOL     OW13078   1.951   3.091   6.253
 4209SOL    HW113079   1.964   3.047   6.337
 4209SOL    HW213080   2.018   3.054   6.196
 4210SOL     OW13081   2.541   3.272   7.214
 4210SOL    HW113082   2.463   3.230   7.248
 4210SOL    HW213083   2.540   3.360   7.252
 4211SOL     OW13084   3.674   2.044   6.822
 4211SOL    HW113085   3.680   1.949   6.835
 4211SOL    HW213086   3.685   2.056   6.728
 4212SOL     OW13087   2.314   2.293   6.140
 4212SOL    HW113088   2.333   2.234   6.067
 4212SOL    HW213089   2.245   2.250   6.189
 4213SOL     OW13090   3.561   3.347   6.676
 4213SOL    HW113091   3.480   3.328   6.628
 4213SOL    HW213092   3.565   3.279   6.743
 4214SOL     OW13093   2.202   2.418   6.887
 4214SOL    HW113094   2.254   2.359   6.942
 4214SOL    HW213095   2.215   2.385   6.798
 4215SOL     OW13096   2.695   3.441   6.257
 4215SOL    HW113097   2.669   3.505   6.192
 4215SOL    HW213098   2.620   3.382   6.265
 4216SOL     OW13099   3.293   2.090   6.704
 4216SOL    HW113100   3.312   2.006   6.747
 4216SOL    HW213101   3.242   2.139   6.769
 4217SOL     OW13102   2.871   1.876   6.722
 4217SOL    HW113103   2.816   1.810   6.679
 4217SOL    HW213104   2.958   1.837   6.724
 4218SOL     OW13105   2.637   3.208   5.906
 4218SOL    HW113106   2.626   3.114   5.890
 4218SOL    HW213107   2.719   3.213   5.956
 4219SOL     OW13108   2.480   3.421   6.871
 4219SOL    HW113109   2.482   3.503   6.919
 4219SOL    HW213110   2.569   3.409   6.838
 4220SOL     OW13111   3.219   1.913   5.757
 4220SOL    HW113112   3.254   1.842   5.702
 4220SOL    HW213113   3.130   1.885   5.778
 4221SOL     OW13114   3.173   2.314   6.263
 4221SOL    HW113115   3.122   2.395   6.268
 4221SOL    HW213116   3.165   2.275   6.350
 4222SOL     OW13117   3.447   2.056   6.469
 4222SOL    HW113118   3.391   2.081   6.542
 4222SOL    HW213119   3.447   2.133   6.412
 4223SOL     OW13120   1.904   2.927   5.894
 4223SOL    HW113121   1.997   2.918   5.873
 4223SOL    HW213122   1.876   2.838   5.917
 4224SOL     OW13123   2.752   3.523   5.922
 4224SOL    HW113124   2.676   3.507   5.866
 4224SOL    HW213125   2.725   3.594   5.979
 4225SOL     OW13126   2.089   2.475   7.573
 4225SOL    HW113127   2.002   2.491   7.609
 4225SOL    HW213128   2.073   2.456   7.481
 4226SOL     OW13129   3.632   2.457   7.678
 4226SOL    HW113130   3.610   2.453   7.585
 4226SOL    HW213131   3.594   2.376   7.715
 4227SOL     OW13132   2.083   3.579   7.919
 4227SOL    HW113133   2.110   3.612   8.005
 4227SOL    HW213134   2.162   3.580   7.866
 4228SOL     OW13135   2.073   3.303   7.993
 4228SOL    HW113136   2.059   3.398   7.984
 4228SOL    HW213137   2.019   3.278   8.067
 4229SOL     OW13138   2.421   2.873   7.567
 4229SOL    HW113139   2.479   2.913   7.503
 4229SOL    HW213140   2.459   2.897   7.652
 4230SOL     OW13141   3.701   3.617   7.795
 4230SOL    HW113142   3.775   3.589   7.850
 4230SOL    HW213143   3.724   3.707   7.769
 4231SOL     OW13144   1.895   3.459   7.577
 4231SOL    HW113145   1.881   3.366   7.593
 4231SOL    HW213146   1.868   3.502   7.658
 4232SOL     OW13147   3.543   2.718   8.029
 4232SOL    HW113148   3.619   2.730   0.005
 4232SOL    HW213149   3.528   2.804   7.989
 4233SOL     OW13150   3.519   2.955   7.882
 4233SOL    HW113151   3.606   2.983   7.854
 4233SOL    HW213152   3.484   3.030   7.931
 4234SOL     OW13153   2.667   1.863   7.945
 4234SOL    HW113154   2.714   1.943   7.919
 4234SOL    HW213155   2.575   1.889   7.946
 4235SOL     OW13156   3.395   2.858   7.653
 4235SOL    HW113157   3.328   2.798   7.686
 4235SOL    HW213158   3.439   2.890   7.731
 4236SOL     OW13159   3.435   3.536   7.757
 4236SOL    HW113160   3.527   3.561   7.766
 4236SOL    HW213161   3.422   3.524   7.663
 4237SOL     OW13162   1.918   2.726   0.082
 4237SOL    HW113163   1.986   2.663   0.105
 4237SOL    HW213164   1.924   2.794   0.148
 4238SOL     OW13165   2.757   2.195   7.636
 4238SOL    HW113166   2.795   2.267   7.585
 4238SOL    HW213167   2.799   2.116   7.601
 4239SOL     OW13168   2.173   2.824   7.697
 4239SOL    HW113169   2.251   2.838   7.643
 4239SOL    HW213170   2.147   2.734   7.679
 4240SOL     OW13171   2.991   3.637   7.681
 4240SOL    HW113172   2.912   3.600   7.719
 4240SOL    HW213173   3.016   3.575   7.613
 4241SOL     OW13174   3.490   3.244   7.537
 4241SOL    HW113175   3.448   3.329   7.523
 4241SOL    HW213176   3.422   3.181   7.518
 4242SOL     OW13177   2.326   3.604   7.770
 4242SOL    HW113178   2.379   3.652   7.834
 4242SOL    HW213179   2.390   3.561   7.713
 4243SOL     OW13180   3.282   2.001   7.865
 4243SOL    HW113181   3.271   1.965   7.777
 4243SOL    HW213182   3.377   2.002   7.878
 4244SOL     OW13183   2.242   2.541   7.892
 4244SOL    HW113184   2.236   2.451   7.925
 4244SOL    HW213185   2.180   2.590   7.945
 4245SOL     OW13186   2.484   1.970   7.573
 4245SOL    HW113187   2.565   1.920   7.577
 4245SOL    HW213188   2.446   1.947   7.488
 4246SOL     OW13189   2.396   1.942   7.959
 4246SOL    HW113190   2.309   1.943   7.999
 4246SOL    HW213191   2.395   2.012   7.895
 4247SOL     OW13192   3.290   3.062   7.489
 4247SOL    HW113193   3.318   2.987   7.542
 4247SOL    HW213194   3.203   3.082   7.523
 4248SOL     OW13195   2.154   1.911   7.634
 4248SOL    HW113196   2.210   1.969   7.584
 4248SOL    HW213197   2.214   1.848   7.674
 4249SOL     OW13198   2.800   2.094   7.896
 4249SOL    HW113199   2.768   2.143   7.821
 4249SOL    HW213200   2.890   2.125   7.909
 4250SOL     OW13201   2.284   3.053   0.084
 4250SOL    HW113202   2.204   3.066   0.135
 4250SOL    HW213203   2.252   3.028   8.077
 4251SOL     OW13204   3.157   3.679   8.013
 4251SOL    HW113205   3.196   3.748   7.958
 4251SOL    HW213206   3.065   3.705   8.021
 4252SOL     OW13207   2.910   2.376   7.486
 4252SOL    HW113208   2.868   2.462   7.494
 4252SOL    HW213209   2.976   2.376   7.556
 4253SOL     OW13210   3.740   2.673   7.806
 4253SOL    HW113211   3.704   2.663   7.894
 4253SOL    HW213212   3.702   2.599   7.757
 4254SOL     OW13213   2.347   3.281   7.600
 4254SOL    HW113214   2.273   3.253   7.653
 4254SOL    HW213215   2.342   3.228   7.520
 4255SOL     OW13216   3.258   2.433   7.515
 4255SOL    HW113217   3.197   2.410   7.585
 4255SOL    HW213218   3.343   2.400   7.545
 4256SOL     OW13219   2.383   2.135   7.770
 4256SOL    HW113220   2.425   2.081   7.703
 4256SOL    HW213221   2.364   2.218   7.726
 4257SOL     OW13222   2.550   2.943   7.819
 4257SOL    HW113223   2.496   2.966   7.895
 4257SOL    HW213224   2.554   2.847   7.820
 4258SOL     OW13225   2.227   2.979   7.914
 4258SOL    HW113226   2.199   3.053   7.860
 4258SOL    HW213227   2.212   2.903   7.858
 4259SOL     OW13228   3.080   3.219   7.823
 4259SOL    HW113229   3.136   3.295   7.841
 4259SOL    HW213230   3.064   3.180   7.909
 4260SOL     OW13231   3.450   2.485   7.918
 4260SOL    HW113232   3.453   2.550   7.988
 4260SOL    HW213233   3.480   2.533   7.840
 4261SOL     OW13234   3.071   2.385   7.711
 4261SOL    HW113235   3.064   2.309   7.769
 4261SOL    HW213236   3.079   2.460   7.770
 4262SOL     OW13237   3.486   2.243   7.807
 4262SOL    HW113238   3.508   2.176   7.871
 4262SOL    HW213239   3.460   2.319   7.859
 4263SOL     OW13240   3.388   2.137   7.572
 4263SOL    HW113241   3.324   2.071   7.599
 4263SOL    HW213242   3.422   2.172   7.655
 4264SOL     OW13243   3.153   2.687   7.478
 4264SOL    HW113244   3.191   2.599   7.477
 4264SOL    HW213245   3.182   2.727   7.395
 4265SOL     OW13246   1.871   3.185   7.638
 4265SOL    HW113247   1.783   3.199   7.603
 4265SOL    HW213248   1.870   3.095   7.672
 4266SOL     OW13249   2.328   2.372   7.646
 4266SOL    HW113250   2.366   2.446   7.693
 4266SOL    HW213251   2.240   2.400   7.623
 4267SOL     OW13252   3.165   2.705   7.749
 4267SOL    HW113253   3.086   2.753   7.776
 4267SOL    HW213254   3.156   2.696   7.655
 4268SOL     OW13255   3.577   2.016   7.940
 4268SOL    HW113256   3.651   2.011   7.879
 4268SOL    HW213257   3.583   1.936   7.992
 4269SOL     OW13258   3.219   3.443   7.892
 4269SOL    HW113259   3.296   3.461   7.837
 4269SOL    HW213260   3.191   3.528   7.924
 4270SOL     OW13261   2.524   3.487   7.602
 4270SOL    HW113262   2.539   3.500   7.509
 4270SOL    HW213263   2.471   3.408   7.607
 4271SOL     OW13264   3.073   3.465   7.479
 4271SOL    HW113265   3.059   3.375   7.506
 4271SOL    HW213266   3.006   3.481   7.412
 4272SOL     OW13267   3.353   3.493   7.490
 4272SOL    HW113268   3.259   3.482   7.476
 4272SOL    HW213269   3.390   3.497   7.402
 4273SOL     OW13270   2.484   3.380   7.935
 4273SOL    HW113271   2.531   3.322   7.875
 4273SOL    HW213272   2.397   3.389   7.897
 4274SOL     OW13273   2.123   3.204   7.749
 4274SOL    HW113274   2.033   3.201   7.719
 4274SOL    HW213275   2.118   3.242   7.837
 4275SOL     OW13276   1.939   2.187   7.481
 4275SOL    HW113277   1.855   2.169   7.440
 4275SOL    HW213278   1.971   2.266   7.437
 4276SOL     OW13279   1.926   2.017   7.749
 4276SOL    HW113280   1.911   2.091   7.690
 4276SOL    HW213281   2.010   1.981   7.721
 4277SOL     OW13282   3.035   3.199   7.556
 4277SOL    HW113283   2.947   3.160   7.553
 4277SOL    HW213284   3.055   3.205   7.649
 4278SOL     OW13285   3.072   2.183   7.901
 4278SOL    HW113286   3.148   2.126   7.895
 4278SOL    HW213287   3.081   2.226   7.986
 4279SOL     OW13288   2.726   3.230   7.489
 4279SOL    HW113289   2.689   3.260   7.572
 4279SOL    HW213290   2.746   3.310   7.440
 4280SOL     OW13291   2.966   2.880   7.547
 4280SOL    HW113292   2.926   2.911   7.466
 4280SOL    HW213293   3.025   2.810   7.519
 4281SOL     OW13294   2.244   2.283   7.992
 4281SOL    HW113295   2.293   2.235   7.924
 4281SOL    HW213296   2.301   2.279   8.069
 4282SOL     OW13297   2.633   3.208   7.768
 4282SOL    HW113298   2.605   3.117   7.770
 4282SOL    HW213299   2.720   3.208   7.808
 4283SOL     OW13300   3.221   1.913   7.613
 4283SOL    HW113301   3.254   1.840   7.560
 4283SOL    HW213302   3.132   1.886   7.638
 4284SOL     OW13303   1.916   2.938   7.747
 4284SOL    HW113304   2.010   2.927   7.730
 4284SOL    HW213305   1.884   2.849   7.761
 4285SOL     OW13306   2.757   3.521   7.775
 4285SOL    HW113307   2.679   3.495   7.725
 4285SOL    HW213308   2.723   3.579   7.843
 4286SOL     OW13309   2.070   4.344   0.126
 4286SOL    HW113310   1.990   4.310   0.166
 4286SOL    HW213311   2.090   4.283   0.056
 4287SOL     OW13312   2.086   4.008   0.993
 4287SOL    HW113313   2.114   3.973   1.077
 4287SOL    HW213314   1.997   3.975   0.982
 4288SOL     OW13315   1.861   4.109   0.639
 4288SOL    HW113316   1.780   4.136   0.682
 4288SOL    HW213317   1.837   4.030   0.590
 4289SOL     OW13318   2.433   5.015   1.189
 4289SOL    HW113319   2.349   5.012   1.144
 4289SOL    HW213320   2.446   5.108   1.209
 4290SOL     OW13321   3.424   5.235   0.687
 4290SOL    HW113322   3.406   5.232   0.781
 4290SOL    HW213323   3.343   5.269   0.648
 4291SOL     OW13324   2.995   4.423   0.697
 4291SOL    HW113325   3.043   4.505   0.684
 4291SOL    HW213326   2.947   4.435   0.779
 4292SOL     OW13327   3.636   4.321   0.230
 4292SOL    HW113328   3.589   4.329   0.147
 4292SOL    HW213329   3.596   4.244   0.272
 4293SOL     OW13330   2.608   4.862   1.043
 4293SOL    HW113331   2.545   4.897   1.106
 4293SOL    HW213332   2.643   4.939   0.998
 4294SOL     OW13333   2.738   4.486   1.825
 4294SOL    HW113334   2.723   4.557   1.888
 4294SOL    HW213335   2.759   4.532   1.743
 4295SOL     OW13336   2.544   4.718   0.650
 4295SOL    HW113337   2.612   4.713   0.718
 4295SOL    HW213338   2.478   4.775   0.687
 4296SOL     OW13339   2.571   4.868   1.817
 4296SOL    HW113340   2.618   4.947   1.842
 4296SOL    HW213341   2.490   4.899   1.777
 4297SOL     OW13342   2.200   5.138   1.057
 4297SOL    HW113343   2.120   5.091   1.032
 4297SOL    HW213344   2.230   5.178   0.976
 4298SOL     OW13345   3.316   5.224   1.350
 4298SOL    HW113346   3.372   5.296   1.380
 4298SOL    HW213347   3.249   5.216   1.417
 4299SOL     OW13348   2.314   4.117   1.477
 4299SOL    HW113349   2.389   4.059   1.487
 4299SOL    HW213350   2.238   4.062   1.498
 4300SOL     OW13351   3.468   4.166   0.745
 4300SOL    HW113352   3.395   4.185   0.685
 4300SOL    HW213353   3.472   4.242   0.803
 4301SOL     OW13354   2.995   5.076   1.707
 4301SOL    HW113355   3.022   5.077   1.799
 4301SOL    HW213356   2.942   4.997   1.699
 4302SOL     OW13357   2.069   5.159   0.516
 4302SOL    HW113358   2.103   5.234   0.564
 4302SOL    HW213359   2.021   5.108   0.581
 4303SOL     OW13360   2.129   4.811   0.893
 4303SOL    HW113361   2.125   4.723   0.930
 4303SOL    HW213362   2.071   4.863   0.949
 4304SOL     OW13363   2.483   4.678   0.143
 4304SOL    HW113364   2.427   4.751   0.117
 4304SOL    HW213365   2.536   4.713   0.214
 4305SOL     OW13366   3.457   3.851   1.464
 4305SOL    HW113367   3.481   3.931   1.418
 4305SOL    HW213368   3.437   3.880   1.553
 4306SOL     OW13369   1.980   4.376   0.565
 4306SOL    HW113370   1.948   4.288   0.586
 4306SOL    HW213371   1.970   4.425   0.647
 4307SOL     OW13372   1.831   0.027   0.089
 4307SOL    HW113373   1.844   5.235   0.112
 4307SOL    HW213374   1.863   0.075   0.166
 4308SOL     OW13375   3.549   4.642   0.647
 4308SOL    HW113376   3.630   4.596   0.622
 4308SOL    HW213377   3.527   4.695   0.570
 4309SOL     OW13378   3.511   4.826   0.434
 4309SOL    HW113379   3.594   4.831   0.387
 4309SOL    HW213380   3.519   4.889   0.505
 4310SOL     OW13381   1.987   4.468   1.584
 4310SOL    HW113382   2.078   4.499   1.587
 4310SOL    HW213383   1.935   4.548   1.588
 4311SOL     OW13384   2.487   5.102   0.745
 4311SOL    HW113385   2.433   5.024   0.737
 4311SOL    HW213386   2.471   5.150   0.663
 4312SOL     OW13387   3.149   4.949   1.425
 4312SOL    HW113388   3.181   4.883   1.364
 4312SOL    HW213389   3.211   4.946   1.498
 4313SOL     OW13390   2.682   3.731   0.517
 4313SOL    HW113391   2.722   3.814   0.491
 4313SOL    HW213392   2.589   3.750   0.521
 4314SOL     OW13393   2.050   4.683   1.277
 4314SOL    HW113394   2.136   4.644   1.262
 4314SOL    HW213395   1.991   4.635   1.218
 4315SOL     OW13396   3.361   4.743   0.214
 4315SOL    HW113397   3.300   4.678   0.249
 4315SOL    HW213398   3.419   4.764   0.288
 4316SOL     OW13399   2.204   3.972   1.829
 4316SOL    HW113400   2.244   4.057   1.849
 4316SOL    HW213401   2.111   3.984   1.849
 4317SOL     OW13402   3.344   5.150   0.960
 4317SOL    HW113403   3.270   5.162   1.021
 4317SOL    HW213404   3.332   5.061   0.926
 4318SOL     OW13405   2.462   4.433   0.286
 4318SOL    HW113406   2.477   4.515   0.240
 4318SOL    HW213407   2.397   4.454   0.353
 4319SOL     OW13408   3.141   4.089   0.934
 4319SOL    HW113409   3.052   4.054   0.943
 4319SOL    HW213410   3.193   4.034   0.993
 4320SOL     OW13411   2.653   4.342   1.446
 4320SOL    HW113412   2.628   4.316   1.535
 4320SOL    HW213413   2.618   4.272   1.390
 4321SOL     OW13414   3.254   4.198   1.678
 4321SOL    HW113415   3.258   4.243   1.762
 4321SOL    HW213416   3.312   4.122   1.688
 4322SOL     OW13417   2.813   4.610   1.587
 4322SOL    HW113418   2.868   4.541   1.549
 4322SOL    HW213419   2.764   4.645   1.513
 4323SOL     OW13420   2.856   4.134   1.233
 4323SOL    HW113421   2.767   4.150   1.263
 4323SOL    HW213422   2.845   4.091   1.148
 4324SOL     OW13423   2.918   4.423   0.428
 4324SOL    HW113424   2.936   4.417   0.522
 4324SOL    HW213425   2.834   4.378   0.416
 4325SOL     OW13426   1.950   4.546   0.778
 4325SOL    HW113427   2.030   4.539   0.830
 4325SOL    HW213428   1.905   4.623   0.813
 4326SOL     OW13429   2.749   4.080   0.206
 4326SOL    HW113430   2.793   4.133   0.139
 4326SOL    HW213431   2.750   3.991   0.170
 4327SOL     OW13432   3.565   4.294   1.830
 4327SOL    HW113433   3.531   4.368   1.780
 4327SOL    HW213434   3.594   4.232   1.763
 4328SOL     OW13435   3.241   4.864   0.536
 4328SOL    HW113436   3.323   4.852   0.488
 4328SOL    HW213437   3.191   4.926   0.483
 4329SOL     OW13438   2.413   3.901   0.897
 4329SOL    HW113439   2.415   3.931   0.988
 4329SOL    HW213440   2.413   3.981   0.845
 4330SOL     OW13441   2.870   5.155   0.474
 4330SOL    HW113442   2.803   5.222   0.483
 4330SOL    HW213443   2.890   5.130   0.564
 4331SOL     OW13444   3.665   4.777   0.869
 4331SOL    HW113445   3.609   4.755   0.794
 4331SOL    HW213446   3.604   4.785   0.942
 4332SOL     OW13447   3.116   5.242   1.530
 4332SOL    HW113448   3.079   5.175   1.587
 4332SOL    HW213449   3.041   5.276   1.481
 4333SOL     OW13450   2.176   4.666   0.263
 4333SOL    HW113451   2.236   4.712   0.204
 4333SOL    HW213452   2.191   4.574   0.245
 4334SOL     OW13453   3.342   4.472   0.722
 4334SOL    HW113454   3.340   4.433   0.810
 4334SOL    HW213455   3.420   4.528   0.724
 4335SOL     OW13456   2.327   4.989   1.742
 4335SOL    HW113457   2.300   4.993   1.650
 4335SOL    HW213458   2.245   4.988   1.791
 4336SOL     OW13459   3.026   0.151   0.234
 4336SOL    HW113460   2.946   0.179   0.279
 4336SOL    HW213461   2.996   0.124   0.147
 4337SOL     OW13462   2.064   3.995   1.504
 4337SOL    HW113463   1.984   4.046   1.508
 4337SOL    HW213464   2.041   3.911   1.544
 4338SOL     OW13465   3.492   5.094   0.079
 4338SOL    HW113466   3.452   5.178   0.099
 4338SOL    HW213467   3.419   5.035   0.061
 4339SOL     OW13468   3.270   3.834   0.452
 4339SOL    HW113469   3.264   3.812   0.359
 4339SOL    HW213470   3.364   3.842   0.469
 4340SOL     OW13471   2.250   4.421   0.474
 4340SOL    HW113472   2.270   4.328   0.488
 4340SOL    HW213473   2.158   4.429   0.497
 4341SOL     OW13474   3.390   3.948   1.724
 4341SOL    HW113475   3.401   3.969   1.816
 4341SOL    HW213476   3.321   3.882   1.721
 4342SOL     OW13477   2.494   3.832   0.142
 4342SOL    HW113478   2.589   3.821   0.147
 4342SOL    HW213479   2.474   3.813   0.050
 4343SOL     OW13480   2.625   4.003   1.756
 4343SOL    HW113481   2.706   3.951   1.753
 4343SOL    HW213482   2.580   3.971   1.834
 4344SOL     OW13483   3.200   4.313   1.433
 4344SOL    HW113484   3.231   4.282   1.518
 4344SOL    HW213485   3.237   4.401   1.424
 4345SOL     OW13486   2.680   5.111   0.942
 4345SOL    HW113487   2.759   5.104   0.889
 4345SOL    HW213488   2.609   5.121   0.879
 4346SOL     OW13489   2.791   4.233   0.899
 4346SOL    HW113490   2.765   4.224   0.807
 4346SOL    HW213491   2.821   4.146   0.925
 4347SOL     OW13492   2.414   3.788   0.501
 4347SOL    HW113493   2.335   3.785   0.554
 4347SOL    HW213494   2.404   3.866   0.447
 4348SOL     OW13495   3.285   4.928   0.030
 4348SOL    HW113496   3.309   4.856   0.089
 4348SOL    HW213497   3.199   4.957   0.061
 4349SOL     OW13498   2.176   3.787   0.177
 4349SOL    HW113499   2.242   3.854   0.198
 4349SOL    HW213500   2.211   3.707   0.216
 4350SOL     OW13501   2.806   3.974   0.457
 4350SOL    HW113502   2.779   4.013   0.374
 4350SOL    HW213503   2.900   3.990   0.462
 4351SOL     OW13504   2.942   4.409   1.457
 4351SOL    HW113505   2.877   4.339   1.461
 4351SOL    HW213506   3.026   4.363   1.451
 4352SOL     OW13507   3.126   5.264   0.778
 4352SOL    HW113508   3.078   0.044   0.754
 4352SOL    HW213509   3.175   5.289   0.856
 4353SOL     OW13510   2.329   4.876   0.723
 4353SOL    HW113511   2.264   4.855   0.790
 4353SOL    HW213512   2.284   4.860   0.640
 4354SOL     OW13513   2.894   4.243   0.037
 4354SOL    HW113514   2.857   4.327   0.009
 4354SOL    HW213515   2.957   4.267   0.105
 4355SOL     OW13516   1.946   4.278   1.392
 4355SOL    HW113517   2.038   4.277   1.366
 4355SOL    HW213518   1.940   4.347   1.458
 4356SOL     OW13519   2.419   3.952   1.171
 4356SOL    HW113520   2.462   3.879   1.216
 4356SOL    HW213521   2.328   3.948   1.199
 4357SOL     OW13522   2.728   4.180   0.638
 4357SOL    HW113523   2.690   4.237   0.572
 4357SOL    HW213524   2.752   4.101   0.591
 4358SOL     OW13525   2.881   3.778   0.745
 4358SOL    HW113526   2.820   3.774   0.671
 4358SOL    HW213527   2.856   3.704   0.801
 4359SOL     OW13528   3.305   4.891   0.859
 4359SOL    HW113529   3.235   4.826   0.857
 4359SOL    HW213530   3.330   4.902   0.768
 4360SOL     OW13531   3.328   4.333   0.967
 4360SOL    HW113532   3.271   4.256   0.972
 4360SOL    HW213533   3.385   4.325   1.044
 4361SOL     OW13534   3.709   4.535   0.389
 4361SOL    HW113535   3.763   4.483   0.449
 4361SOL    HW213536   3.680   4.472   0.323
 4362SOL     OW13537   2.321   5.162   0.147
 4362SOL    HW113538   2.275   5.110   0.213
 4362SOL    HW213539   2.378   5.099   0.103
 4363SOL     OW13540   3.537   4.989   0.644
 4363SOL    HW113541   3.630   4.994   0.663
 4363SOL    HW213542   3.504   5.077   0.659
 4364SOL     OW13543   3.259   4.296   0.089
 4364SOL    HW113544   3.196   4.281   0.159
 4364SOL    HW213545   3.308   4.213   0.082
 4365SOL     OW13546   2.373   3.989   0.320
 4365SOL    HW113547   2.428   3.938   0.260
 4365SOL    HW213548   2.360   4.072   0.274
 4366SOL     OW13549   3.610   4.961   1.564
 4366SOL    HW113550   3.695   4.918   1.565
 4366SOL    HW213551   3.630   5.054   1.574
 4367SOL     OW13552   2.925   5.071   1.325
 4367SOL    HW113553   2.845   5.047   1.371
 4367SOL    HW213554   2.996   5.034   1.379
 4368SOL     OW13555   2.992   4.927   1.105
 4368SOL    HW113556   2.946   4.970   1.177
 4368SOL    HW213557   2.942   4.950   1.027
 4369SOL     OW13558   3.487   4.820   1.075
 4369SOL    HW113559   3.481   4.882   1.147
 4369SOL    HW213560   3.413   4.841   1.018
 4370SOL     OW13561   2.780   3.818   1.391
 4370SOL    HW113562   2.803   3.800   1.300
 4370SOL    HW213563   2.859   3.857   1.429
 4371SOL     OW13564   2.846   4.840   1.727
 4371SOL    HW113565   2.754   4.856   1.747
 4371SOL    HW213566   2.845   4.762   1.670
 4372SOL     OW13567   2.579   4.788   0.383
 4372SOL    HW113568   2.560   4.767   0.474
 4372SOL    HW213569   2.658   4.738   0.363
 4373SOL     OW13570   2.284   4.543   1.252
 4373SOL    HW113571   2.351   4.552   1.319
 4373SOL    HW213572   2.249   4.454   1.265
 4374SOL     OW13573   3.125   4.098   1.281
 4374SOL    HW113574   3.158   4.176   1.326
 4374SOL    HW213575   3.034   4.119   1.259
 4375SOL     OW13576   2.191   4.834   0.490
 4375SOL    HW113577   2.191   4.905   0.426
 4375SOL    HW213578   2.201   4.755   0.438
 4376SOL     OW13579   2.409   4.254   0.859
 4376SOL    HW113580   2.422   4.313   0.785
 4376SOL    HW213581   2.476   4.279   0.922
 4377SOL     OW13582   3.116   5.077   0.382
 4377SOL    HW113583   3.170   5.153   0.405
 4377SOL    HW213584   3.028   5.100   0.410
 4378SOL     OW13585   3.137   5.184   1.142
 4378SOL    HW113586   3.195   5.200   1.216
 4378SOL    HW213587   3.093   5.102   1.163
 4379SOL     OW13588   3.438   4.343   0.488
 4379SOL    HW113589   3.388   4.388   0.556
 4379SOL    HW213590   3.468   4.413   0.430
 4380SOL     OW13591   2.212   5.236   1.309
 4380SOL    HW113592   2.200   5.198   1.221
 4380SOL    HW213593   2.306   5.254   1.314
 4381SOL     OW13594   2.280   4.469   1.604
 4381SOL    HW113595   2.343   4.512   1.546
 4381SOL    HW213596   2.317   4.383   1.621
 4382SOL     OW13597   3.471   4.505   1.687
 4382SOL    HW113598   3.385   4.546   1.681
 4382SOL    HW213599   3.522   4.547   1.618
 4383SOL     OW13600   2.858   3.857   1.754
 4383SOL    HW113601   2.916   3.929   1.732
 4383SOL    HW213602   2.906   3.778   1.728
 4384SOL     OW13603   2.359   3.759   1.751
 4384SOL    HW113604   2.311   3.707   1.686
 4384SOL    HW213605   2.303   3.836   1.766
 4385SOL     OW13606   2.447   4.597   1.032
 4385SOL    HW113607   2.480   4.687   1.033
 4385SOL    HW213608   2.390   4.591   1.109
 4386SOL     OW13609   3.209   4.581   1.019
 4386SOL    HW113610   3.124   4.566   0.980
 4386SOL    HW213611   3.255   4.498   1.010
 4387SOL     OW13612   3.060   4.249   0.269
 4387SOL    HW113613   3.069   4.171   0.324
 4387SOL    HW213614   3.018   4.314   0.326
 4388SOL     OW13615   2.158   3.920   1.247
 4388SOL    HW113616   2.122   3.952   1.330
 4388SOL    HW213617   2.140   3.826   1.247
 4389SOL     OW13618   1.923   5.051   1.286
 4389SOL    HW113619   1.942   4.982   1.350
 4389SOL    HW213620   1.950   5.132   1.328
 4390SOL     OW13621   2.581   4.352   1.052
 4390SOL    HW113622   2.659   4.340   0.997
 4390SOL    HW213623   2.553   4.441   1.034
 4391SOL     OW13624   3.601   4.684   1.858
 4391SOL    HW113625   3.558   4.617   1.806
 4391SOL    HW213626   3.540   4.701   1.930
 4392SOL     OW13627   2.169   3.785   0.626
 4392SOL    HW113628   2.146   3.876   0.646
 4392SOL    HW213629   2.177   3.742   0.711
 4393SOL     OW13630   3.492   4.105   0.364
 4393SOL    HW113631   3.516   4.037   0.427
 4393SOL    HW213632   3.464   4.179   0.417
 4394SOL     OW13633   2.891   4.482   0.958
 4394SOL    HW113634   2.882   4.498   1.052
 4394SOL    HW213635   2.864   4.390   0.948
 4395SOL     OW13636   3.715   5.213   1.576
 4395SOL    HW113637   3.696   5.296   1.532
 4395SOL    HW213638   3.786   5.234   1.636
 4396SOL     OW13639   2.213   4.641   1.809
 4396SOL    HW113640   2.293   4.660   1.858
 4396SOL    HW213641   2.240   4.578   1.742
 4397SOL     OW13642   3.367   4.035   0.128
 4397SOL    HW113643   3.321   3.953   0.146
 4397SOL    HW213644   3.413   4.055   0.210
 4398SOL     OW13645   3.160   4.542   0.018
 4398SOL    HW113646   3.196   4.455   0.035
 4398SOL    HW213647   3.225   4.585   8.042
 4399SOL     OW13648   2.916   5.089   0.811
 4399SOL    HW113649   2.925   5.000   0.776
 4399SOL    HW213650   3.004   5.127   0.804
 4400SOL     OW13651   2.170   4.532   0.946
 4400SOL    HW113652   2.264   4.552   0.940
 4400SOL    HW213653   2.167   4.442   0.977
 4401SOL     OW13654   2.188   4.255   1.013
 4401SOL    HW113655   2.153   4.166   1.000
 4401SOL    HW213656   2.265   4.258   0.956
 4402SOL     OW13657   2.996   4.096   1.686
 4402SOL    HW113658   2.948   4.150   1.748
 4402SOL    HW213659   3.083   4.136   1.681
 4403SOL     OW13660   3.022   3.922   1.472
 4403SOL    HW113661   3.011   3.984   1.544
 4403SOL    HW213662   3.065   3.972   1.403
 4404SOL     OW13663   1.878   5.038   0.167
 4404SOL    HW113664   1.790   5.051   0.134
 4404SOL    HW213665   1.875   4.953   0.211
 4405SOL     OW13666   2.834   4.510   1.224
 4405SOL    HW113667   2.895   4.493   1.295
 4405SOL    HW213668   2.752   4.471   1.252
 4406SOL     OW13669   1.899   4.273   1.117
 4406SOL    HW113670   1.980   4.266   1.067
 4406SOL    HW213671   1.927   4.274   1.208
 4407SOL     OW13672   2.054   4.247   1.732
 4407SOL    HW113673   2.107   4.202   1.666
 4407SOL    HW213674   2.018   4.323   1.686
 4408SOL     OW13675   3.242   4.656   1.656
 4408SOL    HW113676   3.263   4.749   1.652
 4408SOL    HW213677   3.238   4.628   1.565
 4409SOL     OW13678   2.683   4.293   0.376
 4409SOL    HW113679   2.693   4.221   0.313
 4409SOL    HW213680   2.607   4.342   0.345
 4410SOL     OW13681   3.502   4.324   1.179
 4410SOL    HW113682   3.493   4.267   1.255
 4410SOL    HW213683   3.590   4.306   1.146
 4411SOL     OW13684   2.064   5.274   1.747
 4411SOL    HW113685   2.034   0.021   1.825
 4411SOL    HW213686   2.078   5.184   1.777
 4412SOL     OW13687   2.576   4.169   1.252
 4412SOL    HW113688   2.517   4.097   1.227
 4412SOL    HW213689   2.567   4.232   1.181
 4413SOL     OW13690   2.328   4.217   0.174
 4413SOL    HW113691   2.396   4.281   0.196
 4413SOL    HW213692   2.246   4.263   0.188
 4414SOL     OW13693   2.003   4.863   1.473
 4414SOL    HW113694   2.005   4.815   1.556
 4414SOL    HW213695   2.020   4.796   1.407
 4415SOL     OW13696   3.184   4.764   1.218
 4415SOL    HW113697   3.205   4.702   1.149
 4415SOL    HW213698   3.116   4.821   1.181
 4416SOL     OW13699   3.169   4.571   0.308
 4416SOL    HW113700   3.093   4.540   0.357
 4416SOL    HW213701   3.145   4.557   0.216
 4417SOL     OW13702   1.962   4.987   1.024
 4417SOL    HW113703   1.941   5.008   1.115
 4417SOL    HW213704   1.881   4.950   0.988
 4418SOL     OW13705   2.619   0.031   1.708
 4418SOL    HW113706   2.527   0.054   1.721
 4418SOL    HW213707   2.639   0.060   1.619
 4419SOL     OW13708   2.769   3.815   0.128
 4419SOL    HW113709   2.771   3.790   0.035
 4419SOL    HW213710   2.839   3.765   0.169
 4420SOL     OW13711   3.585   3.877   0.505
 4420SOL    HW113712   3.655   3.858   0.442
 4420SOL    HW213713   3.569   3.793   0.548
 4421SOL     OW13714   3.140   4.653   0.672
 4421SOL    HW113715   3.213   4.592   0.682
 4421SOL    HW213716   3.174   4.723   0.617
 4422SOL     OW13717   2.670   4.993   1.402
 4422SOL    HW113718   2.637   5.026   1.485
 4422SOL    HW213719   2.596   4.998   1.342
 4423SOL     OW13720   3.705   3.894   0.965
 4423SOL    HW113721   3.733   3.806   0.941
 4423SOL    HW213722   3.618   3.903   0.926
 4424SOL     OW13723   2.119   4.037   0.715
 4424SOL    HW113724   2.032   4.072   0.693
 4424SOL    HW213725   2.119   4.032   0.811
 4425SOL     OW13726   2.997   0.015   8.078
 4425SOL    HW113727   3.014   5.225   0.027
 4425SOL    HW213728   3.011   0.012   7.983
 4426SOL     OW13729   2.689   4.724   1.372
 4426SOL    HW113730   2.736   4.712   1.290
 4426SOL    HW213731   2.689   4.819   1.386
 4427SOL     OW13732   2.786   4.641   0.304
 4427SOL    HW113733   2.838   4.663   0.227
 4427SOL    HW213734   2.834   4.568   0.345
 4428SOL     OW13735   2.223   5.029   1.499
 4428SOL    HW113736   2.214   5.101   1.436
 4428SOL    HW213737   2.148   4.972   1.482
 4429SOL     OW13738   3.474   5.005   1.281
 4429SOL    HW113739   3.528   4.993   1.360
 4429SOL    HW213740   3.411   5.072   1.306
 4430SOL     OW13741   2.926   4.837   0.720
 4430SOL    HW113742   2.852   4.785   0.752
 4430SOL    HW213743   2.989   4.772   0.690
 4431SOL     OW13744   2.886   3.966   0.965
 4431SOL    HW113745   2.883   3.919   0.882
 4431SOL    HW213746   2.881   3.897   1.032
 4432SOL     OW13747   3.589   4.116   1.381
 4432SOL    HW113748   3.661   4.179   1.381
 4432SOL    HW213749   3.618   4.045   1.323
 4433SOL     OW13750   2.127   5.026   0.289
 4433SOL    HW113751   2.047   5.038   0.239
 4433SOL    HW213752   2.115   5.079   0.368
 4434SOL     OW13753   1.975   4.756   1.725
 4434SOL    HW113754   1.899   4.728   1.776
 4434SOL    HW213755   2.050   4.713   1.767
 4435SOL     OW13756   2.538   3.919   1.500
 4435SOL    HW113757   2.623   3.897   1.460
 4435SOL    HW213758   2.561   3.952   1.587
 4436SOL     OW13759   1.920   4.081   0.040
 4436SOL    HW113760   1.838   4.040   0.012
 4436SOL    HW213761   1.975   4.081   8.042
 4437SOL     OW13762   3.287   4.580   1.397
 4437SOL    HW113763   3.238   4.640   1.342
 4437SOL    HW213764   3.376   4.583   1.361
 4438SOL     OW13765   1.931   3.875   0.293
 4438SOL    HW113766   1.917   3.962   0.253
 4438SOL    HW213767   2.016   3.847   0.258
 4439SOL     OW13768   3.048   5.059   0.106
 4439SOL    HW113769   2.953   5.051   0.099
 4439SOL    HW213770   3.065   5.056   0.200
 4440SOL     OW13771   2.482   4.555   1.435
 4440SOL    HW113772   2.540   4.629   1.420
 4440SOL    HW213773   2.541   4.480   1.442
 4441SOL     OW13774   2.580   4.283   1.700
 4441SOL    HW113775   2.625   4.343   1.760
 4441SOL    HW213776   2.599   4.196   1.734
 4442SOL     OW13777   3.339   4.915   1.627
 4442SOL    HW113778   3.326   4.931   1.721
 4442SOL    HW213779   3.432   4.933   1.613
 4443SOL     OW13780   3.526   4.603   1.254
 4443SOL    HW113781   3.522   4.518   1.210
 4443SOL    HW213782   3.516   4.667   1.184
 4444SOL     OW13783   3.078   4.041   0.461
 4444SOL    HW113784   3.143   3.970   0.456
 4444SOL    HW213785   3.106   4.093   0.536
 4445SOL     OW13786   2.445   4.457   0.674
 4445SOL    HW113787   2.486   4.542   0.662
 4445SOL    HW213788   2.380   4.452   0.604
 4446SOL     OW13789   3.618   4.087   1.653
 4446SOL    HW113790   3.604   4.104   1.560
 4446SOL    HW213791   3.545   4.031   1.679
 4447SOL     OW13792   3.609   4.657   1.510
 4447SOL    HW113793   3.597   4.751   1.522
 4447SOL    HW213794   3.592   4.642   1.417
 4448SOL     OW13795   2.782   5.093   0.042
 4448SOL    HW113796   2.722   5.071   0.113
 4448SOL    HW213797   2.732   5.149   8.064
 4449SOL     OW13798   2.733   4.695   0.855
 4449SOL    HW113799   2.781   4.622   0.893
 4449SOL    HW213800   2.693   4.740   0.930
 4450SOL     OW13801   2.942   4.694   0.087
 4450SOL    HW113802   2.920   4.751   0.013
 4450SOL    HW213803   3.018   4.644   0.058
 4451SOL     OW13804   2.081   5.017   1.850
 4451SOL    HW113805   2.021   4.948   1.820
 4451SOL    HW213806   2.064   5.025   1.943
 4452SOL     OW13807   1.956   4.950   0.669
 4452SOL    HW113808   1.951   4.901   0.751
 4452SOL    HW213809   2.023   4.905   0.618
 4453SOL     OW13810   2.540   5.097   1.607
 4453SOL    HW113811   2.462   5.070   1.655
 4453SOL    HW213812   2.576   5.169   1.659
 4454SOL     OW13813   3.673   3.906   1.236
 4454SOL    HW113814   3.680   3.811   1.249
 4454SOL    HW213815   3.684   3.918   1.142
 4455SOL     OW13816   2.283   4.160   0.524
 4455SOL    HW113817   2.317   4.090   0.469
 4455SOL    HW213818   2.237   4.116   0.595
 4456SOL     OW13819   3.568   5.227   1.116
 4456SOL    HW113820   3.494   5.209   1.058
 4456SOL    HW213821   3.574   5.149   1.171
 4457SOL     OW13822   2.198   4.284   1.293
 4457SOL    HW113823   2.251   4.227   1.348
 4457SOL    HW213824   2.214   4.255   1.203
 4458SOL     OW13825   3.291   3.953   1.117
 4458SOL    HW113826   3.312   3.870   1.161
 4458SOL    HW213827   3.241   4.002   1.181
 4459SOL     OW13828   2.871   3.741   1.136
 4459SOL    HW113829   2.815   3.675   1.095
 4459SOL    HW213830   2.958   3.702   1.137
 4460SOL     OW13831   2.661   5.036   0.281
 4460SOL    HW113832   2.617   4.957   0.311
 4460SOL    HW213833   2.720   5.059   0.352
 4461SOL     OW13834   2.485   0.001   1.299
 4461SOL    HW113835   2.486   0.055   1.378
 4461SOL    HW213836   2.577   5.282   1.281
 4462SOL     OW13837   3.217   3.779   0.189
 4462SOL    HW113838   3.233   3.737   0.105
 4462SOL    HW213839   3.131   3.749   0.215
 4463SOL     OW13840   3.158   4.188   0.678
 4463SOL    HW113841   3.106   4.269   0.683
 4463SOL    HW213842   3.153   4.151   0.767
 4464SOL     OW13843   3.446   3.919   0.883
 4464SOL    HW113844   3.391   3.943   0.957
 4464SOL    HW213845   3.446   3.996   0.826
 4465SOL     OW13846   1.904   4.788   0.307
 4465SOL    HW113847   2.000   4.789   0.314
 4465SOL    HW213848   1.879   4.702   0.342
 4466SOL     OW13849   2.085   4.349   1.991
 4466SOL    HW113850   1.996   4.343   2.027
 4466SOL    HW213851   2.075   4.325   1.899
 4467SOL     OW13852   2.086   4.009   2.855
 4467SOL    HW113853   2.114   3.974   2.939
 4467SOL    HW213854   1.997   3.975   2.844
 4468SOL     OW13855   1.861   4.109   2.500
 4468SOL    HW113856   1.780   4.135   2.543
 4468SOL    HW213857   1.837   4.031   2.450
 4469SOL     OW13858   2.433   5.015   3.051
 4469SOL    HW113859   2.349   5.011   3.006
 4469SOL    HW213860   2.445   5.108   3.071
 4470SOL     OW13861   3.422   5.234   2.552
 4470SOL    HW113862   3.410   5.229   2.646
 4470SOL    HW213863   3.339   5.268   2.518
 4471SOL     OW13864   2.994   4.423   2.557
 4471SOL    HW113865   3.042   4.505   2.545
 4471SOL    HW213866   2.947   4.435   2.639
 4472SOL     OW13867   3.638   4.323   2.087
 4472SOL    HW113868   3.612   4.318   1.995
 4472SOL    HW213869   3.598   4.246   2.128
 4473SOL     OW13870   2.609   4.863   2.905
 4473SOL    HW113871   2.546   4.897   2.968
 4473SOL    HW213872   2.643   4.940   2.860
 4474SOL     OW13873   2.738   4.486   3.687
 4474SOL    HW113874   2.723   4.557   3.750
 4474SOL    HW213875   2.759   4.531   3.605
 4475SOL     OW13876   2.547   4.720   2.506
 4475SOL    HW113877   2.613   4.714   2.575
 4475SOL    HW213878   2.479   4.776   2.544
 4476SOL     OW13879   2.571   4.868   3.679
 4476SOL    HW113880   2.618   4.947   3.704
 4476SOL    HW213881   2.490   4.899   3.639
 4477SOL     OW13882   2.199   5.137   2.919
 4477SOL    HW113883   2.120   5.091   2.894
 4477SOL    HW213884   2.230   5.177   2.837
 4478SOL     OW13885   3.316   5.224   3.211
 4478SOL    HW113886   3.372   5.296   3.242
 4478SOL    HW213887   3.248   5.216   3.279
 4479SOL     OW13888   2.313   4.117   3.340
 4479SOL    HW113889   2.389   4.060   3.349
 4479SOL    HW213890   2.238   4.062   3.360
 4480SOL     OW13891   3.468   4.166   2.606
 4480SOL    HW113892   3.396   4.185   2.546
 4480SOL    HW213893   3.472   4.243   2.664
 4481SOL     OW13894   2.995   5.076   3.569
 4481SOL    HW113895   3.022   5.077   3.660
 4481SOL    HW213896   2.941   4.997   3.561
 4482SOL     OW13897   2.071   5.164   2.387
 4482SOL    HW113898   2.105   5.237   2.438
 4482SOL    HW213899   2.024   5.110   2.450
 4483SOL     OW13900   2.130   4.811   2.755
 4483SOL    HW113901   2.126   4.722   2.791
 4483SOL    HW213902   2.072   4.862   2.812
 4484SOL     OW13903   2.439   4.707   2.002
 4484SOL    HW113904   2.488   4.751   1.933
 4484SOL    HW213905   2.478   4.739   2.084
 4485SOL     OW13906   3.457   3.850   3.326
 4485SOL    HW113907   3.481   3.931   3.280
 4485SOL    HW213908   3.437   3.879   3.415
 4486SOL     OW13909   1.980   4.379   2.423
 4486SOL    HW113910   1.950   4.291   2.444
 4486SOL    HW213911   1.972   4.428   2.505
 4487SOL     OW13912   1.852   0.009   1.954
 4487SOL    HW113913   1.863   5.220   1.990
 4487SOL    HW213914   1.869   0.067   2.028
 4488SOL     OW13915   3.551   4.642   2.507
 4488SOL    HW113916   3.632   4.597   2.484
 4488SOL    HW213917   3.529   4.693   2.429
 4489SOL     OW13918   3.511   4.827   2.292
 4489SOL    HW113919   3.598   4.827   2.251
 4489SOL    HW213920   3.519   4.890   2.363
 4490SOL     OW13921   1.987   4.468   3.446
 4490SOL    HW113922   2.078   4.498   3.449
 4490SOL    HW213923   1.935   4.548   3.450
 4491SOL     OW13924   2.487   5.101   2.606
 4491SOL    HW113925   2.433   5.022   2.599
 4491SOL    HW213926   2.470   5.149   2.525
 4492SOL     OW13927   3.149   4.950   3.287
 4492SOL    HW113928   3.181   4.883   3.226
 4492SOL    HW213929   3.211   4.946   3.360
 4493SOL     OW13930   2.682   3.728   2.373
 4493SOL    HW113931   2.722   3.812   2.350
 4493SOL    HW213932   2.588   3.747   2.379
 4494SOL     OW13933   2.050   4.683   3.139
 4494SOL    HW113934   2.136   4.644   3.124
 4494SOL    HW213935   1.991   4.635   3.080
 4495SOL     OW13936   3.392   4.725   2.061
 4495SOL    HW113937   3.323   4.668   2.094
 4495SOL    HW213938   3.435   4.758   2.140
 4496SOL     OW13939   2.204   3.973   3.693
 4496SOL    HW113940   2.244   4.058   3.712
 4496SOL    HW213941   2.111   3.986   3.712
 4497SOL     OW13942   3.343   5.150   2.822
 4497SOL    HW113943   3.271   5.162   2.883
 4497SOL    HW213944   3.332   5.061   2.788
 4498SOL     OW13945   2.457   4.440   2.133
 4498SOL    HW113946   2.459   4.524   2.087
 4498SOL    HW213947   2.391   4.453   2.202
 4499SOL     OW13948   3.140   4.089   2.796
 4499SOL    HW113949   3.052   4.054   2.805
 4499SOL    HW213950   3.193   4.035   2.854
 4500SOL     OW13951   2.652   4.342   3.309
 4500SOL    HW113952   2.628   4.315   3.397
 4500SOL    HW213953   2.618   4.272   3.253
 4501SOL     OW13954   3.254   4.198   3.540
 4501SOL    HW113955   3.259   4.243   3.624
 4501SOL    HW213956   3.311   4.122   3.550
 4502SOL     OW13957   2.813   4.610   3.449
 4502SOL    HW113958   2.868   4.541   3.411
 4502SOL    HW213959   2.764   4.645   3.375
 4503SOL     OW13960   2.856   4.134   3.095
 4503SOL    HW113961   2.767   4.150   3.125
 4503SOL    HW213962   2.846   4.091   3.010
 4504SOL     OW13963   2.916   4.422   2.286
 4504SOL    HW113964   2.934   4.416   2.380
 4504SOL    HW213965   2.832   4.377   2.274
 4505SOL     OW13966   1.950   4.546   2.640
 4505SOL    HW113967   2.030   4.538   2.691
 4505SOL    HW213968   1.906   4.623   2.675
 4506SOL     OW13969   2.762   4.075   2.058
 4506SOL    HW113970   2.801   4.138   1.998
 4506SOL    HW213971   2.772   3.991   2.013
 4507SOL     OW13972   3.566   4.295   3.692
 4507SOL    HW113973   3.531   4.368   3.642
 4507SOL    HW213974   3.594   4.232   3.626
 4508SOL     OW13975   3.243   4.862   2.397
 4508SOL    HW113976   3.325   4.850   2.350
 4508SOL    HW213977   3.194   4.925   2.344
 4509SOL     OW13978   2.413   3.900   2.759
 4509SOL    HW113979   2.415   3.931   2.850
 4509SOL    HW213980   2.413   3.980   2.707
 4510SOL     OW13981   2.878   5.162   2.341
 4510SOL    HW113982   2.808   5.227   2.344
 4510SOL    HW213983   2.892   5.137   2.432
 4511SOL     OW13984   3.665   4.776   2.731
 4511SOL    HW113985   3.610   4.756   2.655
 4511SOL    HW213986   3.604   4.785   2.804
 4512SOL     OW13987   3.116   5.242   3.392
 4512SOL    HW113988   3.079   5.175   3.449
 4512SOL    HW213989   3.041   5.276   3.343
 4513SOL     OW13990   2.176   4.681   2.116
 4513SOL    HW113991   2.259   4.701   2.072
 4513SOL    HW213992   2.147   4.598   2.077
 4514SOL     OW13993   3.343   4.474   2.584
 4514SOL    HW113994   3.340   4.433   2.671
 4514SOL    HW213995   3.421   4.528   2.586
 4515SOL     OW13996   2.327   4.989   3.604
 4515SOL    HW113997   2.300   4.993   3.512
 4515SOL    HW213998   2.245   4.988   3.653
 4516SOL     OW13999   2.916   0.170   2.059
 4516SOL    HW114000   2.948   0.097   2.111
 4516SOL    HW214001   2.931   0.144   1.968
 4517SOL     OW14002   2.064   3.995   3.366
 4517SOL    HW114003   1.983   4.046   3.370
 4517SOL    HW214004   2.041   3.910   3.404
 4518SOL     OW14005   3.481   5.106   1.974
 4518SOL    HW114006   3.497   5.167   1.903
 4518SOL    HW214007   3.416   5.045   1.940
 4519SOL     OW14008   3.262   3.831   2.302
 4519SOL    HW114009   3.254   3.806   2.210
 4519SOL    HW214010   3.357   3.836   2.318
 4520SOL     OW14011   2.259   4.418   2.335
 4520SOL    HW114012   2.275   4.325   2.349
 4520SOL    HW214013   2.165   4.428   2.351
 4521SOL     OW14014   3.389   3.948   3.586
 4521SOL    HW114015   3.400   3.969   3.678
 4521SOL    HW214016   3.321   3.881   3.583
 4522SOL     OW14017   2.507   3.842   1.964
 4522SOL    HW114018   2.566   3.769   1.982
 4522SOL    HW214019   2.453   3.811   1.891
 4523SOL     OW14020   2.625   4.002   3.619
 4523SOL    HW114021   2.706   3.951   3.615
 4523SOL    HW214022   2.579   3.968   3.696
 4524SOL     OW14023   3.200   4.313   3.295
 4524SOL    HW114024   3.231   4.282   3.380
 4524SOL    HW214025   3.238   4.401   3.286
 4525SOL     OW14026   2.681   5.111   2.803
 4525SOL    HW114027   2.759   5.104   2.749
 4525SOL    HW214028   2.609   5.121   2.740
 4526SOL     OW14029   2.791   4.233   2.761
 4526SOL    HW114030   2.766   4.224   2.669
 4526SOL    HW214031   2.821   4.146   2.787
 4527SOL     OW14032   2.414   3.787   2.358
 4527SOL    HW114033   2.335   3.787   2.411
 4527SOL    HW214034   2.406   3.865   2.302
 4528SOL     OW14035   3.291   4.927   1.897
 4528SOL    HW114036   3.319   4.851   1.949
 4528SOL    HW214037   3.202   4.946   1.928
 4529SOL     OW14038   2.151   3.772   2.048
 4529SOL    HW114039   2.209   3.836   2.007
 4529SOL    HW214040   2.211   3.710   2.090
 4530SOL     OW14041   2.804   3.974   2.317
 4530SOL    HW114042   2.780   4.012   2.233
 4530SOL    HW214043   2.899   3.989   2.324
 4531SOL     OW14044   2.942   4.409   3.319
 4531SOL    HW114045   2.877   4.339   3.323
 4531SOL    HW214046   3.026   4.363   3.313
 4532SOL     OW14047   3.127   5.266   2.636
 4532SOL    HW114048   3.074   0.044   2.620
 4532SOL    HW214049   3.176   5.288   2.716
 4533SOL     OW14050   2.330   4.874   2.584
 4533SOL    HW114051   2.265   4.853   2.650
 4533SOL    HW214052   2.285   4.860   2.501
 4534SOL     OW14053   2.885   4.258   1.889
 4534SOL    HW114054   2.842   4.341   1.869
 4534SOL    HW214055   2.951   4.281   1.955
 4535SOL     OW14056   1.946   4.278   3.255
 4535SOL    HW114057   2.038   4.277   3.228
 4535SOL    HW214058   1.941   4.347   3.320
 4536SOL     OW14059   2.420   3.952   3.032
 4536SOL    HW114060   2.462   3.878   3.077
 4536SOL    HW214061   2.328   3.949   3.061
 4537SOL     OW14062   2.728   4.181   2.500
 4537SOL    HW114063   2.685   4.238   2.436
 4537SOL    HW214064   2.751   4.102   2.451
 4538SOL     OW14065   2.880   3.780   2.609
 4538SOL    HW114066   2.821   3.774   2.533
 4538SOL    HW214067   2.857   3.705   2.664
 4539SOL     OW14068   3.305   4.891   2.721
 4539SOL    HW114069   3.236   4.825   2.719
 4539SOL    HW214070   3.332   4.901   2.630
 4540SOL     OW14071   3.328   4.333   2.829
 4540SOL    HW114072   3.271   4.256   2.833
 4540SOL    HW214073   3.385   4.325   2.906
 4541SOL     OW14074   3.702   4.534   2.247
 4541SOL    HW114075   3.760   4.485   2.305
 4541SOL    HW214076   3.677   4.471   2.179
 4542SOL     OW14077   2.333   5.153   2.004
 4542SOL    HW114078   2.278   5.100   2.061
 4542SOL    HW214079   2.354   5.096   1.930
 4543SOL     OW14080   3.535   4.987   2.504
 4543SOL    HW114081   3.629   4.992   2.523
 4543SOL    HW214082   3.503   5.076   2.520
 4544SOL     OW14083   3.255   4.297   1.933
 4544SOL    HW114084   3.194   4.275   2.003
 4544SOL    HW214085   3.340   4.266   1.965
 4545SOL     OW14086   2.387   3.986   2.173
 4545SOL    HW114087   2.437   3.942   2.105
 4545SOL    HW214088   2.360   4.069   2.134
 4546SOL     OW14089   3.610   4.961   3.426
 4546SOL    HW114090   3.695   4.917   3.428
 4546SOL    HW214091   3.630   5.054   3.436
 4547SOL     OW14092   2.925   5.071   3.188
 4547SOL    HW114093   2.845   5.047   3.234
 4547SOL    HW214094   2.996   5.034   3.241
 4548SOL     OW14095   2.993   4.928   2.967
 4548SOL    HW114096   2.947   4.970   3.040
 4548SOL    HW214097   2.940   4.948   2.890
 4549SOL     OW14098   3.487   4.820   2.937
 4549SOL    HW114099   3.481   4.882   3.009
 4549SOL    HW214100   3.413   4.841   2.881
 4550SOL     OW14101   2.780   3.820   3.252
 4550SOL    HW114102   2.803   3.801   3.161
 4550SOL    HW214103   2.859   3.859   3.289
 4551SOL     OW14104   2.846   4.840   3.589
 4551SOL    HW114105   2.754   4.856   3.609
 4551SOL    HW214106   2.845   4.762   3.532
 4552SOL     OW14107   2.569   4.786   2.233
 4552SOL    HW114108   2.555   4.767   2.325
 4552SOL    HW214109   2.646   4.734   2.208
 4553SOL     OW14110   2.284   4.543   3.114
 4553SOL    HW114111   2.352   4.552   3.181
 4553SOL    HW214112   2.249   4.454   3.127
 4554SOL     OW14113   3.125   4.099   3.142
 4554SOL    HW114114   3.158   4.177   3.187
 4554SOL    HW214115   3.035   4.120   3.120
 4555SOL     OW14116   2.194   4.840   2.349
 4555SOL    HW114117   2.193   4.913   2.286
 4555SOL    HW214118   2.196   4.762   2.294
 4556SOL     OW14119   2.409   4.255   2.721
 4556SOL    HW114120   2.423   4.314   2.647
 4556SOL    HW214121   2.476   4.280   2.784
 4557SOL     OW14122   3.122   5.082   2.249
 4557SOL    HW114123   3.179   5.149   2.287
 4557SOL    HW214124   3.034   5.105   2.280
 4558SOL     OW14125   3.137   5.184   3.003
 4558SOL    HW114126   3.195   5.200   3.078
 4558SOL    HW214127   3.094   5.101   3.024
 4559SOL     OW14128   3.440   4.343   2.346
 4559SOL    HW114129   3.390   4.391   2.412
 4559SOL    HW214130   3.484   4.411   2.296
 4560SOL     OW14131   2.212   5.235   3.171
 4560SOL    HW114132   2.200   5.198   3.083
 4560SOL    HW214133   2.305   5.255   3.176
 4561SOL     OW14134   2.279   4.469   3.466
 4561SOL    HW114135   2.343   4.512   3.408
 4561SOL    HW214136   2.316   4.383   3.483
 4562SOL     OW14137   3.471   4.505   3.549
 4562SOL    HW114138   3.385   4.546   3.542
 4562SOL    HW214139   3.523   4.547   3.480
 4563SOL     OW14140   2.858   3.860   3.615
 4563SOL    HW114141   2.917   3.933   3.594
 4563SOL    HW214142   2.908   3.782   3.590
 4564SOL     OW14143   2.358   3.761   3.614
 4564SOL    HW114144   2.315   3.714   3.542
 4564SOL    HW214145   2.302   3.837   3.630
 4565SOL     OW14146   2.447   4.597   2.894
 4565SOL    HW114147   2.480   4.687   2.895
 4565SOL    HW214148   2.390   4.591   2.971
 4566SOL     OW14149   3.209   4.581   2.881
 4566SOL    HW114150   3.123   4.565   2.843
 4566SOL    HW214151   3.255   4.498   2.872
 4567SOL     OW14152   3.062   4.251   2.124
 4567SOL    HW114153   3.070   4.173   2.179
 4567SOL    HW214154   3.019   4.315   2.181
 4568SOL     OW14155   2.159   3.923   3.109
 4568SOL    HW114156   2.122   3.954   3.192
 4568SOL    HW214157   2.141   3.829   3.108
 4569SOL     OW14158   1.922   5.051   3.148
 4569SOL    HW114159   1.942   4.982   3.212
 4569SOL    HW214160   1.951   5.132   3.190
 4570SOL     OW14161   2.582   4.352   2.914
 4570SOL    HW114162   2.659   4.340   2.859
 4570SOL    HW214163   2.553   4.441   2.896
 4571SOL     OW14164   3.601   4.684   3.720
 4571SOL    HW114165   3.558   4.617   3.668
 4571SOL    HW214166   3.539   4.701   3.792
 4572SOL     OW14167   2.171   3.785   2.487
 4572SOL    HW114168   2.147   3.876   2.507
 4572SOL    HW214169   2.179   3.742   2.572
 4573SOL     OW14170   3.485   4.103   2.222
 4573SOL    HW114171   3.512   4.037   2.286
 4573SOL    HW214172   3.460   4.179   2.275
 4574SOL     OW14173   2.891   4.482   2.820
 4574SOL    HW114174   2.882   4.499   2.914
 4574SOL    HW214175   2.864   4.391   2.809
 4575SOL     OW14176   3.715   5.213   3.438
 4575SOL    HW114177   3.696   5.296   3.394
 4575SOL    HW214178   3.786   5.234   3.498
 4576SOL     OW14179   2.213   4.641   3.671
 4576SOL    HW114180   2.293   4.660   3.720
 4576SOL    HW214181   2.240   4.578   3.604
 4577SOL     OW14182   3.388   3.996   1.988
 4577SOL    HW114183   3.324   3.930   2.016
 4577SOL    HW214184   3.423   4.033   2.069
 4578SOL     OW14185   3.149   4.548   1.890
 4578SOL    HW114186   3.191   4.463   1.895
 4578SOL    HW214187   3.181   4.587   1.808
 4579SOL     OW14188   2.916   5.090   2.669
 4579SOL    HW114189   2.925   5.000   2.636
 4579SOL    HW214190   3.004   5.126   2.664
 4580SOL     OW14191   2.170   4.532   2.808
 4580SOL    HW114192   2.264   4.552   2.801
 4580SOL    HW214193   2.167   4.442   2.839
 4581SOL     OW14194   2.188   4.255   2.875
 4581SOL    HW114195   2.153   4.167   2.862
 4581SOL    HW214196   2.265   4.258   2.818
 4582SOL     OW14197   2.996   4.097   3.547
 4582SOL    HW114198   2.948   4.151   3.610
 4582SOL    HW214199   3.083   4.137   3.543
 4583SOL     OW14200   3.023   3.923   3.333
 4583SOL    HW114201   3.011   3.986   3.404
 4583SOL    HW214202   3.065   3.974   3.263
 4584SOL     OW14203   1.868   5.035   2.055
 4584SOL    HW114204   1.776   5.054   2.033
 4584SOL    HW214205   1.866   4.946   2.091
 4585SOL     OW14206   2.834   4.511   3.086
 4585SOL    HW114207   2.895   4.493   3.157
 4585SOL    HW214208   2.752   4.470   3.113
 4586SOL     OW14209   1.899   4.274   2.979
 4586SOL    HW114210   1.979   4.265   2.928
 4586SOL    HW214211   1.928   4.274   3.070
 4587SOL     OW14212   2.054   4.246   3.594
 4587SOL    HW114213   2.106   4.201   3.528
 4587SOL    HW214214   2.018   4.322   3.548
 4588SOL     OW14215   3.242   4.656   3.518
 4588SOL    HW114216   3.263   4.749   3.514
 4588SOL    HW214217   3.238   4.628   3.427
 4589SOL     OW14218   2.679   4.294   2.229
 4589SOL    HW114219   2.685   4.220   2.168
 4589SOL    HW214220   2.605   4.345   2.198
 4590SOL     OW14221   3.502   4.325   3.041
 4590SOL    HW114222   3.493   4.267   3.117
 4590SOL    HW214223   3.590   4.307   3.008
 4591SOL     OW14224   2.065   5.274   3.609
 4591SOL    HW114225   2.034   0.021   3.687
 4591SOL    HW214226   2.078   5.184   3.638
 4592SOL     OW14227   2.576   4.169   3.115
 4592SOL    HW114228   2.518   4.097   3.089
 4592SOL    HW214229   2.567   4.232   3.044
 4593SOL     OW14230   2.321   4.215   2.042
 4593SOL    HW114231   2.381   4.286   2.067
 4593SOL    HW214232   2.236   4.259   2.033
 4594SOL     OW14233   2.003   4.863   3.335
 4594SOL    HW114234   2.006   4.815   3.418
 4594SOL    HW214235   2.020   4.796   3.268
 4595SOL     OW14236   3.184   4.764   3.080
 4595SOL    HW114237   3.205   4.702   3.011
 4595SOL    HW214238   3.117   4.821   3.043
 4596SOL     OW14239   3.177   4.582   2.165
 4596SOL    HW114240   3.104   4.549   2.217
 4596SOL    HW214241   3.151   4.567   2.074
 4597SOL     OW14242   1.962   4.986   2.886
 4597SOL    HW114243   1.940   5.008   2.977
 4597SOL    HW214244   1.881   4.949   2.850
 4598SOL     OW14245   2.619   0.032   3.570
 4598SOL    HW114246   2.527   0.054   3.582
 4598SOL    HW214247   2.639   0.060   3.481
 4599SOL     OW14248   3.584   3.879   2.366
 4599SOL    HW114249   3.654   3.863   2.304
 4599SOL    HW214250   3.567   3.794   2.407
 4600SOL     OW14251   3.140   4.653   2.534
 4600SOL    HW114252   3.213   4.592   2.545
 4600SOL    HW214253   3.175   4.723   2.479
 4601SOL     OW14254   2.670   4.993   3.264
 4601SOL    HW114255   2.637   5.026   3.347
 4601SOL    HW214256   2.595   4.998   3.204
 4602SOL     OW14257   3.705   3.894   2.827
 4602SOL    HW114258   3.734   3.806   2.803
 4602SOL    HW214259   3.618   3.903   2.788
 4603SOL     OW14260   2.119   4.036   2.576
 4603SOL    HW114261   2.033   4.072   2.554
 4603SOL    HW214262   2.118   4.032   2.672
 4604SOL     OW14263   2.688   4.724   3.234
 4604SOL    HW114264   2.736   4.711   3.152
 4604SOL    HW214265   2.689   4.819   3.248
 4605SOL     OW14266   2.779   4.636   2.154
 4605SOL    HW114267   2.839   4.670   2.087
 4605SOL    HW214268   2.828   4.568   2.199
 4606SOL     OW14269   2.223   5.029   3.361
 4606SOL    HW114270   2.214   5.101   3.298
 4606SOL    HW214271   2.148   4.972   3.344
 4607SOL     OW14272   3.474   5.005   3.143
 4607SOL    HW114273   3.528   4.993   3.221
 4607SOL    HW214274   3.411   5.072   3.168
 4608SOL     OW14275   2.927   4.836   2.581
 4608SOL    HW114276   2.852   4.786   2.614
 4608SOL    HW214277   2.990   4.771   2.553
 4609SOL     OW14278   2.886   3.966   2.828
 4609SOL    HW114279   2.883   3.920   2.745
 4609SOL    HW214280   2.881   3.897   2.894
 4610SOL     OW14281   3.589   4.116   3.243
 4610SOL    HW114282   3.661   4.179   3.242
 4610SOL    HW214283   3.618   4.045   3.185
 4611SOL     OW14284   2.121   5.047   2.152
 4611SOL    HW114285   2.030   5.047   2.123
 4611SOL    HW214286   2.121   5.098   2.233
 4612SOL     OW14287   1.975   4.756   3.587
 4612SOL    HW114288   1.899   4.728   3.638
 4612SOL    HW214289   2.050   4.713   3.629
 4613SOL     OW14290   2.539   3.920   3.362
 4613SOL    HW114291   2.624   3.900   3.321
 4613SOL    HW214292   2.561   3.952   3.449
 4614SOL     OW14293   1.943   4.052   1.894
 4614SOL    HW114294   1.856   4.033   1.857
 4614SOL    HW214295   1.973   4.130   1.846
 4615SOL     OW14296   3.288   4.580   3.259
 4615SOL    HW114297   3.238   4.641   3.204
 4615SOL    HW214298   3.376   4.583   3.223
 4616SOL     OW14299   1.924   3.878   2.164
 4616SOL    HW114300   1.911   3.957   2.111
 4616SOL    HW214301   2.009   3.844   2.136
 4617SOL     OW14302   3.044   5.057   1.985
 4617SOL    HW114303   2.954   5.026   1.988
 4617SOL    HW214304   3.073   5.053   2.076
 4618SOL     OW14305   2.482   4.555   3.298
 4618SOL    HW114306   2.540   4.629   3.282
 4618SOL    HW214307   2.541   4.479   3.305
 4619SOL     OW14308   2.581   4.282   3.562
 4619SOL    HW114309   2.625   4.341   3.623
 4619SOL    HW214310   2.599   4.195   3.596
 4620SOL     OW14311   3.339   4.915   3.489
 4620SOL    HW114312   3.326   4.931   3.583
 4620SOL    HW214313   3.432   4.933   3.475
 4621SOL     OW14314   3.526   4.603   3.116
 4621SOL    HW114315   3.522   4.518   3.073
 4621SOL    HW214316   3.516   4.667   3.045
 4622SOL     OW14317   3.078   4.043   2.319
 4622SOL    HW114318   3.140   3.970   2.313
 4622SOL    HW214319   3.107   4.093   2.395
 4623SOL     OW14320   2.448   4.458   2.536
 4623SOL    HW114321   2.489   4.544   2.521
 4623SOL    HW214322   2.384   4.450   2.465
 4624SOL     OW14323   3.618   4.088   3.515
 4624SOL    HW114324   3.604   4.104   3.422
 4624SOL    HW214325   3.545   4.031   3.541
 4625SOL     OW14326   3.610   4.657   3.372
 4625SOL    HW114327   3.597   4.751   3.383
 4625SOL    HW214328   3.592   4.642   3.279
 4626SOL     OW14329   2.706   5.093   1.883
 4626SOL    HW114330   2.693   5.092   1.978
 4626SOL    HW214331   2.713   5.186   1.861
 4627SOL     OW14332   2.732   4.696   2.716
 4627SOL    HW114333   2.780   4.622   2.754
 4627SOL    HW214334   2.692   4.740   2.790
 4628SOL     OW14335   2.941   4.715   1.953
 4628SOL    HW114336   2.918   4.765   1.875
 4628SOL    HW214337   3.014   4.659   1.925
 4629SOL     OW14338   2.081   5.016   3.711
 4629SOL    HW114339   2.022   4.948   3.682
 4629SOL    HW214340   2.063   5.025   3.805
 4630SOL     OW14341   1.953   4.951   2.531
 4630SOL    HW114342   1.953   4.901   2.612
 4630SOL    HW214343   2.017   4.905   2.475
 4631SOL     OW14344   2.540   5.097   3.469
 4631SOL    HW114345   2.462   5.070   3.517
 4631SOL    HW214346   2.576   5.169   3.521
 4632SOL     OW14347   3.673   3.906   3.098
 4632SOL    HW114348   3.680   3.811   3.111
 4632SOL    HW214349   3.684   3.918   3.004
 4633SOL     OW14350   2.290   4.157   2.387
 4633SOL    HW114351   2.321   4.087   2.331
 4633SOL    HW214352   2.240   4.112   2.456
 4634SOL     OW14353   3.568   5.227   2.978
 4634SOL    HW114354   3.494   5.209   2.920
 4634SOL    HW214355   3.574   5.149   3.033
 4635SOL     OW14356   2.198   4.284   3.155
 4635SOL    HW114357   2.251   4.227   3.210
 4635SOL    HW214358   2.214   4.254   3.066
 4636SOL     OW14359   3.292   3.953   2.978
 4636SOL    HW114360   3.310   3.869   3.020
 4636SOL    HW214361   3.241   4.002   3.044
 4637SOL     OW14362   2.871   3.741   2.997
 4637SOL    HW114363   2.816   3.675   2.954
 4637SOL    HW214364   2.958   3.701   3.000
 4638SOL     OW14365   2.672   5.044   2.148
 4638SOL    HW114366   2.622   4.966   2.173
 4638SOL    HW214367   2.727   5.062   2.225
 4639SOL     OW14368   2.484   0.001   3.161
 4639SOL    HW114369   2.486   0.056   3.240
 4639SOL    HW214370   2.576   5.282   3.144
 4640SOL     OW14371   3.219   3.776   2.034
 4640SOL    HW114372   3.252   3.706   1.977
 4640SOL    HW214373   3.130   3.749   2.055
 4641SOL     OW14374   3.158   4.187   2.540
 4641SOL    HW114375   3.105   4.267   2.544
 4641SOL    HW214376   3.153   4.151   2.628
 4642SOL     OW14377   3.447   3.919   2.745
 4642SOL    HW114378   3.391   3.944   2.818
 4642SOL    HW214379   3.446   3.996   2.687
 4643SOL     OW14380   1.904   4.788   2.172
 4643SOL    HW114381   1.998   4.781   2.155
 4643SOL    HW214382   1.877   4.698   2.193
 4644SOL     OW14383   2.085   4.349   3.853
 4644SOL    HW114384   1.996   4.344   3.888
 4644SOL    HW214385   2.076   4.326   3.761
 4645SOL     OW14386   2.086   4.008   4.717
 4645SOL    HW114387   2.114   3.973   4.802
 4645SOL    HW214388   1.997   3.975   4.705
 4646SOL     OW14389   1.861   4.109   4.362
 4646SOL    HW114390   1.780   4.135   4.405
 4646SOL    HW214391   1.837   4.031   4.312
 4647SOL     OW14392   2.433   5.015   4.913
 4647SOL    HW114393   2.349   5.011   4.868
 4647SOL    HW214394   2.445   5.108   4.933
 4648SOL     OW14395   3.422   5.234   4.413
 4648SOL    HW114396   3.410   5.230   4.508
 4648SOL    HW214397   3.339   5.268   4.380
 4649SOL     OW14398   2.995   4.423   4.419
 4649SOL    HW114399   3.042   4.505   4.407
 4649SOL    HW214400   2.947   4.435   4.501
 4650SOL     OW14401   3.637   4.323   3.950
 4650SOL    HW114402   3.612   4.318   3.858
 4650SOL    HW214403   3.598   4.245   3.990
 4651SOL     OW14404   2.609   4.863   4.767
 4651SOL    HW114405   2.546   4.897   4.830
 4651SOL    HW214406   2.643   4.940   4.722
 4652SOL     OW14407   2.738   4.486   5.549
 4652SOL    HW114408   2.723   4.557   5.612
 4652SOL    HW214409   2.759   4.532   5.467
 4653SOL     OW14410   2.547   4.720   4.368
 4653SOL    HW114411   2.613   4.714   4.437
 4653SOL    HW214412   2.479   4.776   4.405
 4654SOL     OW14413   2.571   4.868   5.541
 4654SOL    HW114414   2.619   4.947   5.566
 4654SOL    HW214415   2.490   4.899   5.501
 4655SOL     OW14416   2.200   5.137   4.781
 4655SOL    HW114417   2.120   5.091   4.756
 4655SOL    HW214418   2.230   5.177   4.699
 4656SOL     OW14419   3.316   5.224   5.073
 4656SOL    HW114420   3.372   5.296   5.104
 4656SOL    HW214421   3.248   5.216   5.141
 4657SOL     OW14422   2.314   4.117   5.202
 4657SOL    HW114423   2.389   4.059   5.211
 4657SOL    HW214424   2.238   4.062   5.222
 4658SOL     OW14425   3.468   4.166   4.468
 4658SOL    HW114426   3.396   4.184   4.407
 4658SOL    HW214427   3.473   4.243   4.524
 4659SOL     OW14428   2.995   5.076   5.431
 4659SOL    HW114429   3.022   5.077   5.523
 4659SOL    HW214430   2.942   4.997   5.423
 4660SOL     OW14431   2.071   5.164   4.249
 4660SOL    HW114432   2.105   5.237   4.300
 4660SOL    HW214433   2.024   5.110   4.312
 4661SOL     OW14434   2.129   4.811   4.617
 4661SOL    HW114435   2.126   4.722   4.653
 4661SOL    HW214436   2.072   4.862   4.674
 4662SOL     OW14437   2.439   4.707   3.864
 4662SOL    HW114438   2.488   4.751   3.795
 4662SOL    HW214439   2.478   4.739   3.946
 4663SOL     OW14440   3.457   3.850   5.189
 4663SOL    HW114441   3.482   3.930   5.142
 4663SOL    HW214442   3.437   3.880   5.277
 4664SOL     OW14443   1.980   4.379   4.285
 4664SOL    HW114444   1.950   4.291   4.306
 4664SOL    HW214445   1.971   4.428   4.367
 4665SOL     OW14446   1.852   0.009   3.816
 4665SOL    HW114447   1.863   5.220   3.852
 4665SOL    HW214448   1.869   0.067   3.890
 4666SOL     OW14449   3.551   4.642   4.369
 4666SOL    HW114450   3.632   4.597   4.345
 4666SOL    HW214451   3.529   4.693   4.291
 4667SOL     OW14452   3.511   4.827   4.154
 4667SOL    HW114453   3.598   4.827   4.113
 4667SOL    HW214454   3.519   4.890   4.225
 4668SOL     OW14455   1.987   4.468   5.308
 4668SOL    HW114456   2.078   4.499   5.311
 4668SOL    HW214457   1.935   4.548   5.312
 4669SOL     OW14458   2.487   5.101   4.468
 4669SOL    HW114459   2.433   5.022   4.461
 4669SOL    HW214460   2.470   5.149   4.387
 4670SOL     OW14461   3.149   4.949   5.149
 4670SOL    HW114462   3.181   4.883   5.088
 4670SOL    HW214463   3.211   4.946   5.222
 4671SOL     OW14464   2.683   3.731   4.259
 4671SOL    HW114465   2.722   3.811   4.226
 4671SOL    HW214466   2.589   3.747   4.256
 4672SOL     OW14467   2.049   4.683   5.001
 4672SOL    HW114468   2.136   4.644   4.986
 4672SOL    HW214469   1.991   4.636   4.941
 4673SOL     OW14470   3.392   4.725   3.923
 4673SOL    HW114471   3.323   4.668   3.956
 4673SOL    HW214472   3.435   4.758   4.002
 4674SOL     OW14473   2.205   3.972   5.554
 4674SOL    HW114474   2.244   4.057   5.573
 4674SOL    HW214475   2.112   3.984   5.573
 4675SOL     OW14476   3.343   5.150   4.684
 4675SOL    HW114477   3.271   5.162   4.745
 4675SOL    HW214478   3.332   5.061   4.650
 4676SOL     OW14479   2.457   4.440   3.995
 4676SOL    HW114480   2.459   4.524   3.948
 4676SOL    HW214481   2.391   4.453   4.064
 4677SOL     OW14482   3.140   4.089   4.659
 4677SOL    HW114483   3.051   4.055   4.667
 4677SOL    HW214484   3.193   4.034   4.717
 4678SOL     OW14485   2.653   4.342   5.170
 4678SOL    HW114486   2.628   4.316   5.259
 4678SOL    HW214487   2.619   4.272   5.115
 4679SOL     OW14488   3.254   4.198   5.402
 4679SOL    HW114489   3.258   4.243   5.486
 4679SOL    HW214490   3.312   4.123   5.412
 4680SOL     OW14491   2.813   4.610   5.311
 4680SOL    HW114492   2.868   4.541   5.273
 4680SOL    HW214493   2.764   4.645   5.237
 4681SOL     OW14494   2.856   4.133   4.957
 4681SOL    HW114495   2.766   4.150   4.986
 4681SOL    HW214496   2.846   4.091   4.872
 4682SOL     OW14497   2.916   4.423   4.148
 4682SOL    HW114498   2.934   4.416   4.242
 4682SOL    HW214499   2.832   4.377   4.136
 4683SOL     OW14500   1.950   4.546   4.502
 4683SOL    HW114501   2.030   4.538   4.553
 4683SOL    HW214502   1.905   4.623   4.537
 4684SOL     OW14503   2.760   4.075   3.921
 4684SOL    HW114504   2.801   4.137   3.860
 4684SOL    HW214505   2.763   3.991   3.875
 4685SOL     OW14506   3.565   4.294   5.554
 4685SOL    HW114507   3.530   4.368   5.504
 4685SOL    HW214508   3.594   4.232   5.487
 4686SOL     OW14509   3.243   4.862   4.259
 4686SOL    HW114510   3.325   4.850   4.212
 4686SOL    HW214511   3.194   4.925   4.206
 4687SOL     OW14512   2.410   3.899   4.621
 4687SOL    HW114513   2.413   3.931   4.712
 4687SOL    HW214514   2.411   3.978   4.568
 4688SOL     OW14515   2.878   5.162   4.203
 4688SOL    HW114516   2.808   5.227   4.206
 4688SOL    HW214517   2.892   5.137   4.294
 4689SOL     OW14518   3.665   4.776   4.593
 4689SOL    HW114519   3.610   4.755   4.517
 4689SOL    HW214520   3.603   4.784   4.665
 4690SOL     OW14521   3.116   5.242   5.254
 4690SOL    HW114522   3.079   5.175   5.311
 4690SOL    HW214523   3.041   5.276   5.206
 4691SOL     OW14524   2.175   4.681   3.977
 4691SOL    HW114525   2.258   4.701   3.934
 4691SOL    HW214526   2.147   4.598   3.939
 4692SOL     OW14527   3.343   4.474   4.446
 4692SOL    HW114528   3.340   4.434   4.533
 4692SOL    HW214529   3.422   4.529   4.448
 4693SOL     OW14530   2.327   4.989   5.466
 4693SOL    HW114531   2.300   4.993   5.374
 4693SOL    HW214532   2.245   4.988   5.515
 4694SOL     OW14533   2.916   0.170   3.921
 4694SOL    HW114534   2.949   0.097   3.973
 4694SOL    HW214535   2.931   0.144   3.830
 4695SOL     OW14536   2.064   3.995   5.228
 4695SOL    HW114537   1.983   4.046   5.231
 4695SOL    HW214538   2.041   3.912   5.268
 4696SOL     OW14539   3.481   5.106   3.836
 4696SOL    HW114540   3.497   5.167   3.764
 4696SOL    HW214541   3.416   5.045   3.802
 4697SOL     OW14542   3.262   3.831   4.164
 4697SOL    HW114543   3.253   3.805   4.072
 4697SOL    HW214544   3.356   3.835   4.179
 4698SOL     OW14545   2.259   4.418   4.197
 4698SOL    HW114546   2.276   4.325   4.210
 4698SOL    HW214547   2.165   4.428   4.213
 4699SOL     OW14548   3.390   3.949   5.447
 4699SOL    HW114549   3.401   3.969   5.540
 4699SOL    HW214550   3.320   3.883   5.445
 4700SOL     OW14551   2.509   3.841   3.826
 4700SOL    HW114552   2.564   3.765   3.847
 4700SOL    HW214553   2.454   3.811   3.753
 4701SOL     OW14554   2.625   4.002   5.480
 4701SOL    HW114555   2.706   3.951   5.477
 4701SOL    HW214556   2.579   3.971   5.558
 4702SOL     OW14557   3.200   4.313   5.157
 4702SOL    HW114558   3.231   4.283   5.242
 4702SOL    HW214559   3.237   4.401   5.147
 4703SOL     OW14560   2.681   5.111   4.665
 4703SOL    HW114561   2.759   5.104   4.611
 4703SOL    HW214562   2.609   5.121   4.602
 4704SOL     OW14563   2.791   4.233   4.623
 4704SOL    HW114564   2.766   4.224   4.531
 4704SOL    HW214565   2.821   4.146   4.649
 4705SOL     OW14566   2.416   3.788   4.221
 4705SOL    HW114567   2.335   3.787   4.272
 4705SOL    HW214568   2.408   3.864   4.163
 4706SOL     OW14569   3.291   4.927   3.759
 4706SOL    HW114570   3.319   4.851   3.811
 4706SOL    HW214571   3.202   4.946   3.790
 4707SOL     OW14572   2.149   3.775   3.907
 4707SOL    HW114573   2.205   3.839   3.864
 4707SOL    HW214574   2.209   3.715   3.950
 4708SOL     OW14575   2.804   3.973   4.180
 4708SOL    HW114576   2.779   4.010   4.095
 4708SOL    HW214577   2.898   3.987   4.186
 4709SOL     OW14578   2.942   4.409   5.181
 4709SOL    HW114579   2.877   4.339   5.185
 4709SOL    HW214580   3.026   4.363   5.175
 4710SOL     OW14581   3.127   5.266   4.499
 4710SOL    HW114582   3.074   0.044   4.481
 4710SOL    HW214583   3.176   5.288   4.578
 4711SOL     OW14584   2.330   4.874   4.446
 4711SOL    HW114585   2.265   4.853   4.512
 4711SOL    HW214586   2.285   4.860   4.363
 4712SOL     OW14587   2.886   4.258   3.750
 4712SOL    HW114588   2.842   4.341   3.731
 4712SOL    HW214589   2.951   4.280   3.817
 4713SOL     OW14590   1.946   4.277   5.117
 4713SOL    HW114591   2.038   4.277   5.090
 4713SOL    HW214592   1.941   4.347   5.182
 4714SOL     OW14593   2.419   3.952   4.895
 4714SOL    HW114594   2.461   3.879   4.941
 4714SOL    HW214595   2.328   3.948   4.923
 4715SOL     OW14596   2.728   4.181   4.362
 4715SOL    HW114597   2.685   4.238   4.297
 4715SOL    HW214598   2.751   4.102   4.313
 4716SOL     OW14599   2.875   3.780   4.476
 4716SOL    HW114600   2.816   3.773   4.401
 4716SOL    HW214601   2.855   3.703   4.530
 4717SOL     OW14602   3.306   4.891   4.583
 4717SOL    HW114603   3.236   4.825   4.580
 4717SOL    HW214604   3.333   4.902   4.492
 4718SOL     OW14605   3.328   4.334   4.691
 4718SOL    HW114606   3.271   4.256   4.694
 4718SOL    HW214607   3.385   4.325   4.768
 4719SOL     OW14608   3.702   4.534   4.110
 4719SOL    HW114609   3.761   4.485   4.167
 4719SOL    HW214610   3.677   4.471   4.042
 4720SOL     OW14611   2.333   5.154   3.866
 4720SOL    HW114612   2.278   5.100   3.923
 4720SOL    HW214613   2.354   5.096   3.792
 4721SOL     OW14614   3.535   4.987   4.367
 4721SOL    HW114615   3.629   4.992   4.385
 4721SOL    HW214616   3.503   5.076   4.382
 4722SOL     OW14617   3.256   4.297   3.795
 4722SOL    HW114618   3.194   4.275   3.865
 4722SOL    HW214619   3.340   4.264   3.827
 4723SOL     OW14620   2.388   3.986   4.035
 4723SOL    HW114621   2.438   3.941   3.966
 4723SOL    HW214622   2.361   4.068   3.995
 4724SOL     OW14623   3.610   4.961   5.288
 4724SOL    HW114624   3.695   4.918   5.289
 4724SOL    HW214625   3.630   5.054   5.298
 4725SOL     OW14626   2.925   5.071   5.049
 4725SOL    HW114627   2.845   5.047   5.096
 4725SOL    HW214628   2.995   5.034   5.103
 4726SOL     OW14629   2.993   4.927   4.829
 4726SOL    HW114630   2.947   4.970   4.902
 4726SOL    HW214631   2.940   4.948   4.752
 4727SOL     OW14632   3.487   4.820   4.799
 4727SOL    HW114633   3.481   4.882   4.871
 4727SOL    HW214634   3.413   4.841   4.742
 4728SOL     OW14635   2.781   3.819   5.115
 4728SOL    HW114636   2.803   3.799   5.024
 4728SOL    HW214637   2.860   3.858   5.152
 4729SOL     OW14638   2.846   4.840   5.451
 4729SOL    HW114639   2.754   4.856   5.471
 4729SOL    HW214640   2.845   4.762   5.394
 4730SOL     OW14641   2.569   4.787   4.095
 4730SOL    HW114642   2.555   4.767   4.187
 4730SOL    HW214643   2.646   4.734   4.070
 4731SOL     OW14644   2.284   4.543   4.976
 4731SOL    HW114645   2.352   4.552   5.043
 4731SOL    HW214646   2.249   4.455   4.989
 4732SOL     OW14647   3.125   4.098   5.005
 4732SOL    HW114648   3.157   4.176   5.050
 4732SOL    HW214649   3.034   4.119   4.983
 4733SOL     OW14650   2.194   4.840   4.211
 4733SOL    HW114651   2.193   4.913   4.148
 4733SOL    HW214652   2.197   4.762   4.156
 4734SOL     OW14653   2.409   4.256   4.584
 4734SOL    HW114654   2.422   4.314   4.509
 4734SOL    HW214655   2.476   4.281   4.647
 4735SOL     OW14656   3.122   5.082   4.111
 4735SOL    HW114657   3.179   5.149   4.149
 4735SOL    HW214658   3.034   5.105   4.142
 4736SOL     OW14659   3.137   5.184   4.865
 4736SOL    HW114660   3.195   5.200   4.940
 4736SOL    HW214661   3.094   5.102   4.886
 4737SOL     OW14662   3.440   4.343   4.209
 4737SOL    HW114663   3.390   4.391   4.274
 4737SOL    HW214664   3.484   4.410   4.157
 4738SOL     OW14665   2.212   5.235   5.033
 4738SOL    HW114666   2.200   5.198   4.945
 4738SOL    HW214667   2.305   5.255   5.038
 4739SOL     OW14668   2.280   4.470   5.328
 4739SOL    HW114669   2.343   4.512   5.270
 4739SOL    HW214670   2.317   4.383   5.345
 4740SOL     OW14671   3.471   4.505   5.411
 4740SOL    HW114672   3.385   4.546   5.404
 4740SOL    HW214673   3.522   4.547   5.342
 4741SOL     OW14674   2.858   3.857   5.478
 4741SOL    HW114675   2.916   3.930   5.457
 4741SOL    HW214676   2.907   3.779   5.452
 4742SOL     OW14677   2.358   3.759   5.475
 4742SOL    HW114678   2.311   3.707   5.411
 4742SOL    HW214679   2.303   3.835   5.490
 4743SOL     OW14680   2.448   4.597   4.756
 4743SOL    HW114681   2.480   4.687   4.757
 4743SOL    HW214682   2.390   4.591   4.833
 4744SOL     OW14683   3.209   4.582   4.743
 4744SOL    HW114684   3.123   4.566   4.704
 4744SOL    HW214685   3.255   4.498   4.734
 4745SOL     OW14686   3.062   4.251   3.986
 4745SOL    HW114687   3.070   4.173   4.040
 4745SOL    HW214688   3.019   4.315   4.043
 4746SOL     OW14689   2.158   3.921   4.971
 4746SOL    HW114690   2.121   3.953   5.054
 4746SOL    HW214691   2.141   3.827   4.971
 4747SOL     OW14692   1.922   5.051   5.010
 4747SOL    HW114693   1.942   4.982   5.074
 4747SOL    HW214694   1.951   5.132   5.052
 4748SOL     OW14695   2.582   4.352   4.777
 4748SOL    HW114696   2.659   4.340   4.721
 4748SOL    HW214697   2.553   4.442   4.759
 4749SOL     OW14698   3.601   4.684   5.583
 4749SOL    HW114699   3.558   4.617   5.530
 4749SOL    HW214700   3.540   4.701   5.654
 4750SOL     OW14701   2.169   3.785   4.346
 4750SOL    HW114702   2.146   3.876   4.367
 4750SOL    HW214703   2.177   3.743   4.432
 4751SOL     OW14704   3.485   4.103   4.084
 4751SOL    HW114705   3.513   4.037   4.148
 4751SOL    HW214706   3.461   4.179   4.137
 4752SOL     OW14707   2.890   4.482   4.682
 4752SOL    HW114708   2.882   4.499   4.776
 4752SOL    HW214709   2.864   4.391   4.671
 4753SOL     OW14710   3.715   5.213   5.300
 4753SOL    HW114711   3.695   5.296   5.256
 4753SOL    HW214712   3.786   5.234   5.360
 4754SOL     OW14713   2.213   4.641   5.533
 4754SOL    HW114714   2.293   4.660   5.582
 4754SOL    HW214715   2.240   4.578   5.466
 4755SOL     OW14716   3.387   3.997   3.849
 4755SOL    HW114717   3.325   3.930   3.878
 4755SOL    HW214718   3.423   4.033   3.931
 4756SOL     OW14719   3.149   4.548   3.752
 4756SOL    HW114720   3.192   4.463   3.757
 4756SOL    HW214721   3.181   4.586   3.670
 4757SOL     OW14722   2.916   5.090   4.531
 4757SOL    HW114723   2.925   5.000   4.498
 4757SOL    HW214724   3.005   5.126   4.526
 4758SOL     OW14725   2.170   4.532   4.670
 4758SOL    HW114726   2.264   4.551   4.662
 4758SOL    HW214727   2.167   4.442   4.701
 4759SOL     OW14728   2.188   4.255   4.737
 4759SOL    HW114729   2.153   4.166   4.724
 4759SOL    HW214730   2.265   4.258   4.680
 4760SOL     OW14731   2.996   4.096   5.411
 4760SOL    HW114732   2.948   4.150   5.473
 4760SOL    HW214733   3.083   4.136   5.406
 4761SOL     OW14734   3.023   3.921   5.197
 4761SOL    HW114735   3.011   3.984   5.268
 4761SOL    HW214736   3.065   3.972   5.127
 4762SOL     OW14737   1.867   5.035   3.917
 4762SOL    HW114738   1.776   5.054   3.896
 4762SOL    HW214739   1.866   4.946   3.953
 4763SOL     OW14740   2.835   4.511   4.947
 4763SOL    HW114741   2.895   4.493   5.019
 4763SOL    HW214742   2.752   4.471   4.975
 4764SOL     OW14743   1.899   4.273   4.841
 4764SOL    HW114744   1.979   4.266   4.790
 4764SOL    HW214745   1.928   4.274   4.932
 4765SOL     OW14746   2.054   4.246   5.456
 4765SOL    HW114747   2.107   4.202   5.390
 4765SOL    HW214748   2.018   4.322   5.410
 4766SOL     OW14749   3.242   4.656   5.380
 4766SOL    HW114750   3.263   4.749   5.376
 4766SOL    HW214751   3.238   4.628   5.289
 4767SOL     OW14752   2.680   4.294   4.092
 4767SOL    HW114753   2.686   4.220   4.031
 4767SOL    HW214754   2.605   4.345   4.059
 4768SOL     OW14755   3.502   4.324   4.903
 4768SOL    HW114756   3.493   4.267   4.979
 4768SOL    HW214757   3.590   4.306   4.870
 4769SOL     OW14758   2.065   5.274   5.471
 4769SOL    HW114759   2.034   0.021   5.549
 4769SOL    HW214760   2.078   5.184   5.501
 4770SOL     OW14761   2.576   4.169   4.976
 4770SOL    HW114762   2.517   4.097   4.951
 4770SOL    HW214763   2.567   4.233   4.906
 4771SOL     OW14764   2.320   4.215   3.905
 4771SOL    HW114765   2.381   4.285   3.929
 4771SOL    HW214766   2.236   4.259   3.895
 4772SOL     OW14767   2.003   4.863   5.197
 4772SOL    HW114768   2.005   4.815   5.280
 4772SOL    HW214769   2.020   4.796   5.130
 4773SOL     OW14770   3.184   4.764   4.942
 4773SOL    HW114771   3.205   4.702   4.873
 4773SOL    HW214772   3.117   4.821   4.905
 4774SOL     OW14773   3.177   4.582   4.027
 4774SOL    HW114774   3.104   4.548   4.079
 4774SOL    HW214775   3.151   4.567   3.936
 4775SOL     OW14776   1.962   4.986   4.748
 4775SOL    HW114777   1.940   5.008   4.839
 4775SOL    HW214778   1.881   4.949   4.712
 4776SOL     OW14779   2.619   0.031   5.433
 4776SOL    HW114780   2.527   0.054   5.445
 4776SOL    HW214781   2.640   0.060   5.344
 4777SOL     OW14782   3.587   3.881   4.229
 4777SOL    HW114783   3.656   3.865   4.165
 4777SOL    HW214784   3.569   3.795   4.268
 4778SOL     OW14785   3.140   4.653   4.396
 4778SOL    HW114786   3.213   4.592   4.407
 4778SOL    HW214787   3.174   4.723   4.341
 4779SOL     OW14788   2.670   4.993   5.126
 4779SOL    HW114789   2.637   5.026   5.209
 4779SOL    HW214790   2.596   4.998   5.066
 4780SOL     OW14791   3.704   3.895   4.690
 4780SOL    HW114792   3.734   3.807   4.665
 4780SOL    HW214793   3.618   3.903   4.650
 4781SOL     OW14794   2.119   4.036   4.438
 4781SOL    HW114795   2.033   4.072   4.415
 4781SOL    HW214796   2.118   4.032   4.534
 4782SOL     OW14797   2.689   4.724   5.096
 4782SOL    HW114798   2.736   4.712   5.014
 4782SOL    HW214799   2.689   4.819   5.110
 4783SOL     OW14800   2.779   4.637   4.016
 4783SOL    HW114801   2.839   4.670   3.949
 4783SOL    HW214802   2.829   4.568   4.061
 4784SOL     OW14803   2.223   5.029   5.223
 4784SOL    HW114804   2.214   5.101   5.160
 4784SOL    HW214805   2.148   4.972   5.206
 4785SOL     OW14806   3.474   5.005   5.005
 4785SOL    HW114807   3.528   4.993   5.083
 4785SOL    HW214808   3.411   5.072   5.030
 4786SOL     OW14809   2.926   4.837   4.443
 4786SOL    HW114810   2.852   4.786   4.476
 4786SOL    HW214811   2.990   4.771   4.415
 4787SOL     OW14812   2.886   3.966   4.692
 4787SOL    HW114813   2.882   3.920   4.608
 4787SOL    HW214814   2.881   3.897   4.757
 4788SOL     OW14815   3.589   4.115   5.105
 4788SOL    HW114816   3.661   4.178   5.105
 4788SOL    HW214817   3.618   4.045   5.047
 4789SOL     OW14818   2.121   5.047   4.014
 4789SOL    HW114819   2.030   5.047   3.985
 4789SOL    HW214820   2.121   5.098   4.095
 4790SOL     OW14821   1.975   4.756   5.449
 4790SOL    HW114822   1.899   4.728   5.500
 4790SOL    HW214823   2.050   4.713   5.491
 4791SOL     OW14824   2.538   3.919   5.224
 4791SOL    HW114825   2.623   3.898   5.184
 4791SOL    HW214826   2.561   3.952   5.311
 4792SOL     OW14827   1.942   4.053   3.756
 4792SOL    HW114828   1.856   4.034   3.717
 4792SOL    HW214829   1.972   4.130   3.709
 4793SOL     OW14830   3.287   4.580   5.121
 4793SOL    HW114831   3.238   4.640   5.066
 4793SOL    HW214832   3.376   4.583   5.085
 4794SOL     OW14833   1.923   3.879   4.026
 4794SOL    HW114834   1.910   3.958   3.974
 4794SOL    HW214835   2.009   3.846   3.998
 4795SOL     OW14836   3.044   5.058   3.847
 4795SOL    HW114837   2.954   5.026   3.850
 4795SOL    HW214838   3.073   5.053   3.938
 4796SOL     OW14839   2.483   4.554   5.159
 4796SOL    HW114840   2.540   4.629   5.144
 4796SOL    HW214841   2.542   4.479   5.166
 4797SOL     OW14842   2.580   4.283   5.424
 4797SOL    HW114843   2.625   4.343   5.484
 4797SOL    HW214844   2.599   4.196   5.458
 4798SOL     OW14845   3.339   4.915   5.351
 4798SOL    HW114846   3.326   4.931   5.445
 4798SOL    HW214847   3.432   4.933   5.337
 4799SOL     OW14848   3.526   4.603   4.978
 4799SOL    HW114849   3.522   4.518   4.934
 4799SOL    HW214850   3.516   4.667   4.908
 4800SOL     OW14851   3.077   4.043   4.181
 4800SOL    HW114852   3.139   3.970   4.174
 4800SOL    HW214853   3.107   4.093   4.257
 4801SOL     OW14854   2.448   4.458   4.398
 4801SOL    HW114855   2.488   4.544   4.384
 4801SOL    HW214856   2.384   4.450   4.328
 4802SOL     OW14857   3.618   4.087   5.377
 4802SOL    HW114858   3.605   4.104   5.284
 4802SOL    HW214859   3.545   4.031   5.403
 4803SOL     OW14860   3.609   4.657   5.234
 4803SOL    HW114861   3.597   4.751   5.246
 4803SOL    HW214862   3.592   4.642   5.141
 4804SOL     OW14863   2.705   5.093   3.745
 4804SOL    HW114864   2.693   5.092   3.840
 4804SOL    HW214865   2.714   5.186   3.723
 4805SOL     OW14866   2.732   4.696   4.578
 4805SOL    HW114867   2.780   4.622   4.616
 4805SOL    HW214868   2.692   4.740   4.653
 4806SOL     OW14869   2.942   4.715   3.815
 4806SOL    HW114870   2.918   4.765   3.737
 4806SOL    HW214871   3.014   4.659   3.787
 4807SOL     OW14872   2.081   5.017   5.574
 4807SOL    HW114873   2.021   4.948   5.544
 4807SOL    HW214874   2.064   5.025   5.667
 4808SOL     OW14875   1.953   4.951   4.392
 4808SOL    HW114876   1.953   4.901   4.474
 4808SOL    HW214877   2.016   4.905   4.337
 4809SOL     OW14878   2.540   5.097   5.331
 4809SOL    HW114879   2.462   5.070   5.379
 4809SOL    HW214880   2.576   5.169   5.383
 4810SOL     OW14881   3.672   3.905   4.960
 4810SOL    HW114882   3.681   3.810   4.973
 4810SOL    HW214883   3.683   3.918   4.866
 4811SOL     OW14884   2.290   4.157   4.249
 4811SOL    HW114885   2.322   4.087   4.192
 4811SOL    HW214886   2.240   4.112   4.317
 4812SOL     OW14887   3.568   5.227   4.840
 4812SOL    HW114888   3.494   5.209   4.782
 4812SOL    HW214889   3.574   5.149   4.895
 4813SOL     OW14890   2.198   4.284   5.017
 4813SOL    HW114891   2.251   4.227   5.071
 4813SOL    HW214892   2.214   4.255   4.927
 4814SOL     OW14893   3.290   3.953   4.842
 4814SOL    HW114894   3.314   3.872   4.887
 4814SOL    HW214895   3.239   4.002   4.906
 4815SOL     OW14896   2.872   3.739   4.860
 4815SOL    HW114897   2.818   3.670   4.820
 4815SOL    HW214898   2.960   3.701   4.863
 4816SOL     OW14899   2.672   5.044   4.010
 4816SOL    HW114900   2.622   4.966   4.034
 4816SOL    HW214901   2.728   5.062   4.086
 4817SOL     OW14902   2.484   0.001   5.023
 4817SOL    HW114903   2.486   0.056   5.102
 4817SOL    HW214904   2.576   5.282   5.005
 4818SOL     OW14905   3.221   3.777   3.895
 4818SOL    HW114906   3.255   3.706   3.840
 4818SOL    HW214907   3.132   3.751   3.915
 4819SOL     OW14908   3.158   4.187   4.402
 4819SOL    HW114909   3.106   4.268   4.406
 4819SOL    HW214910   3.153   4.151   4.490
 4820SOL     OW14911   3.446   3.919   4.607
 4820SOL    HW114912   3.390   3.945   4.680
 4820SOL    HW214913   3.446   3.995   4.549
 4821SOL     OW14914   1.904   4.788   4.034
 4821SOL    HW114915   1.998   4.781   4.016
 4821SOL    HW214916   1.877   4.698   4.055
 4822SOL     OW14917   2.085   4.349   5.715
 4822SOL    HW114918   1.996   4.343   5.750
 4822SOL    HW214919   2.076   4.325   5.623
 4823SOL     OW14920   2.086   4.009   6.579
 4823SOL    HW114921   2.115   3.973   6.663
 4823SOL    HW214922   1.997   3.975   6.568
 4824SOL     OW14923   1.861   4.109   6.224
 4824SOL    HW114924   1.780   4.135   6.267
 4824SOL    HW214925   1.837   4.031   6.174
 4825SOL     OW14926   2.433   5.015   6.775
 4825SOL    HW114927   2.349   5.011   6.730
 4825SOL    HW214928   2.445   5.108   6.795
 4826SOL     OW14929   3.422   5.234   6.275
 4826SOL    HW114930   3.410   5.230   6.370
 4826SOL    HW214931   3.339   5.268   6.242
 4827SOL     OW14932   2.995   4.423   6.281
 4827SOL    HW114933   3.042   4.505   6.269
 4827SOL    HW214934   2.947   4.434   6.363
 4828SOL     OW14935   3.638   4.323   5.811
 4828SOL    HW114936   3.612   4.318   5.719
 4828SOL    HW214937   3.598   4.246   5.852
 4829SOL     OW14938   2.609   4.863   6.629
 4829SOL    HW114939   2.546   4.897   6.692
 4829SOL    HW214940   2.643   4.940   6.584
 4830SOL     OW14941   2.735   4.487   7.405
 4830SOL    HW114942   2.722   4.559   7.467
 4830SOL    HW214943   2.760   4.529   7.323
 4831SOL     OW14944   2.547   4.720   6.230
 4831SOL    HW114945   2.613   4.714   6.299
 4831SOL    HW214946   2.479   4.776   6.268
 4832SOL     OW14947   2.571   4.868   7.401
 4832SOL    HW114948   2.619   4.947   7.426
 4832SOL    HW214949   2.490   4.901   7.362
 4833SOL     OW14950   2.200   5.138   6.643
 4833SOL    HW114951   2.120   5.091   6.619
 4833SOL    HW214952   2.230   5.177   6.561
 4834SOL     OW14953   3.316   5.224   6.935
 4834SOL    HW114954   3.372   5.296   6.966
 4834SOL    HW214955   3.249   5.216   7.003
 4835SOL     OW14956   2.313   4.117   7.065
 4835SOL    HW114957   2.389   4.060   7.074
 4835SOL    HW214958   2.238   4.061   7.084
 4836SOL     OW14959   3.468   4.166   6.330
 4836SOL    HW114960   3.396   4.185   6.270
 4836SOL    HW214961   3.472   4.242   6.388
 4837SOL     OW14962   2.995   5.074   7.291
 4837SOL    HW114963   3.024   5.074   7.382
 4837SOL    HW214964   2.941   4.995   7.283
 4838SOL     OW14965   2.071   5.164   6.111
 4838SOL    HW114966   2.105   5.237   6.162
 4838SOL    HW214967   2.024   5.110   6.175
 4839SOL     OW14968   2.130   4.811   6.479
 4839SOL    HW114969   2.126   4.722   6.515
 4839SOL    HW214970   2.072   4.862   6.536
 4840SOL     OW14971   2.439   4.707   5.726
 4840SOL    HW114972   2.488   4.751   5.657
 4840SOL    HW214973   2.478   4.739   5.808
 4841SOL     OW14974   3.458   3.851   7.050
 4841SOL    HW114975   3.480   3.932   7.004
 4841SOL    HW214976   3.436   3.880   7.139
 4842SOL     OW14977   1.980   4.379   6.147
 4842SOL    HW114978   1.950   4.291   6.168
 4842SOL    HW214979   1.972   4.428   6.229
 4843SOL     OW14980   1.852   0.008   5.678
 4843SOL    HW114981   1.863   5.220   5.714
 4843SOL    HW214982   1.869   0.067   5.752
 4844SOL     OW14983   3.551   4.642   6.231
 4844SOL    HW114984   3.632   4.597   6.207
 4844SOL    HW214985   3.529   4.693   6.153
 4845SOL     OW14986   3.511   4.827   6.016
 4845SOL    HW114987   3.598   4.827   5.975
 4845SOL    HW214988   3.519   4.890   6.087
 4846SOL     OW14989   1.987   4.468   7.171
 4846SOL    HW114990   2.077   4.498   7.173
 4846SOL    HW214991   1.934   4.547   7.173
 4847SOL     OW14992   2.487   5.101   6.330
 4847SOL    HW114993   2.433   5.022   6.323
 4847SOL    HW214994   2.470   5.149   6.249
 4848SOL     OW14995   3.149   4.950   7.011
 4848SOL    HW114996   3.181   4.883   6.950
 4848SOL    HW214997   3.211   4.946   7.085
 4849SOL     OW14998   2.682   3.728   6.096
 4849SOL    HW114999   2.722   3.812   6.074
 4849SOL    HW215000   2.588   3.747   6.103
 4850SOL     OW15001   2.050   4.683   6.863
 4850SOL    HW115002   2.136   4.644   6.848
 4850SOL    HW215003   1.991   4.636   6.803
 4851SOL     OW15004   3.392   4.725   5.785
 4851SOL    HW115005   3.323   4.668   5.818
 4851SOL    HW215006   3.435   4.758   5.864
 4852SOL     OW15007   2.203   3.970   7.415
 4852SOL    HW115008   2.243   4.056   7.432
 4852SOL    HW215009   2.110   3.983   7.436
 4853SOL     OW15010   3.343   5.150   6.546
 4853SOL    HW115011   3.271   5.162   6.607
 4853SOL    HW215012   3.332   5.061   6.512
 4854SOL     OW15013   2.457   4.440   5.857
 4854SOL    HW115014   2.459   4.524   5.811
 4854SOL    HW215015   2.391   4.453   5.926
 4855SOL     OW15016   3.140   4.089   6.520
 4855SOL    HW115017   3.052   4.054   6.529
 4855SOL    HW215018   3.193   4.034   6.579
 4856SOL     OW15019   2.652   4.342   7.033
 4856SOL    HW115020   2.627   4.315   7.122
 4856SOL    HW215021   2.618   4.272   6.977
 4857SOL     OW15022   3.255   4.198   7.263
 4857SOL    HW115023   3.259   4.243   7.348
 4857SOL    HW215024   3.311   4.122   7.273
 4858SOL     OW15025   2.814   4.610   7.172
 4858SOL    HW115026   2.869   4.542   7.133
 4858SOL    HW215027   2.765   4.645   7.098
 4859SOL     OW15028   2.856   4.134   6.819
 4859SOL    HW115029   2.767   4.150   6.849
 4859SOL    HW215030   2.846   4.090   6.735
 4860SOL     OW15031   2.916   4.422   6.010
 4860SOL    HW115032   2.934   4.416   6.104
 4860SOL    HW215033   2.832   4.377   5.998
 4861SOL     OW15034   1.950   4.546   6.364
 4861SOL    HW115035   2.030   4.538   6.415
 4861SOL    HW215036   1.905   4.623   6.399
 4862SOL     OW15037   2.762   4.075   5.782
 4862SOL    HW115038   2.801   4.139   5.722
 4862SOL    HW215039   2.772   3.991   5.737
 4863SOL     OW15040   3.567   4.295   7.418
 4863SOL    HW115041   3.532   4.369   7.368
 4863SOL    HW215042   3.594   4.232   7.351
 4864SOL     OW15043   3.243   4.862   6.121
 4864SOL    HW115044   3.325   4.850   6.074
 4864SOL    HW215045   3.194   4.925   6.068
 4865SOL     OW15046   2.413   3.902   6.483
 4865SOL    HW115047   2.415   3.932   6.574
 4865SOL    HW215048   2.413   3.982   6.431
 4866SOL     OW15049   2.878   5.162   6.065
 4866SOL    HW115050   2.808   5.227   6.068
 4866SOL    HW215051   2.892   5.137   6.156
 4867SOL     OW15052   3.665   4.776   6.455
 4867SOL    HW115053   3.610   4.756   6.379
 4867SOL    HW215054   3.604   4.784   6.528
 4868SOL     OW15055   3.116   5.242   7.116
 4868SOL    HW115056   3.079   5.174   7.172
 4868SOL    HW215057   3.042   5.278   7.068
 4869SOL     OW15058   2.176   4.681   5.840
 4869SOL    HW115059   2.259   4.701   5.796
 4869SOL    HW215060   2.147   4.598   5.801
 4870SOL     OW15061   3.343   4.473   6.308
 4870SOL    HW115062   3.340   4.433   6.395
 4870SOL    HW215063   3.421   4.528   6.309
 4871SOL     OW15064   2.325   4.990   7.330
 4871SOL    HW115065   2.297   4.993   7.239
 4871SOL    HW215066   2.244   4.988   7.380
 4872SOL     OW15067   2.916   0.171   5.783
 4872SOL    HW115068   2.947   0.097   5.835
 4872SOL    HW215069   2.931   0.144   5.692
 4873SOL     OW15070   2.064   3.994   7.090
 4873SOL    HW115071   1.983   4.044   7.093
 4873SOL    HW215072   2.042   3.909   7.129
 4874SOL     OW15073   3.482   5.106   5.698
 4874SOL    HW115074   3.497   5.167   5.627
 4874SOL    HW215075   3.416   5.045   5.664
 4875SOL     OW15076   3.262   3.831   6.027
 4875SOL    HW115077   3.254   3.806   5.935
 4875SOL    HW215078   3.357   3.837   6.042
 4876SOL     OW15079   2.259   4.418   6.059
 4876SOL    HW115080   2.275   4.325   6.073
 4876SOL    HW215081   2.165   4.428   6.075
 4877SOL     OW15082   3.389   3.947   7.309
 4877SOL    HW115083   3.400   3.969   7.402
 4877SOL    HW215084   3.321   3.880   7.308
 4878SOL     OW15085   2.507   3.842   5.688
 4878SOL    HW115086   2.566   3.769   5.706
 4878SOL    HW215087   2.453   3.811   5.615
 4879SOL     OW15088   2.625   4.002   7.343
 4879SOL    HW115089   2.706   3.950   7.340
 4879SOL    HW215090   2.582   3.975   7.425
 4880SOL     OW15091   3.200   4.313   7.019
 4880SOL    HW115092   3.231   4.282   7.103
 4880SOL    HW215093   3.238   4.401   7.010
 4881SOL     OW15094   2.681   5.111   6.527
 4881SOL    HW115095   2.759   5.104   6.473
 4881SOL    HW215096   2.609   5.121   6.464
 4882SOL     OW15097   2.791   4.233   6.485
 4882SOL    HW115098   2.766   4.224   6.393
 4882SOL    HW215099   2.821   4.146   6.511
 4883SOL     OW15100   2.414   3.787   6.082
 4883SOL    HW115101   2.335   3.787   6.135
 4883SOL    HW215102   2.406   3.865   6.026
 4884SOL     OW15103   3.291   4.927   5.621
 4884SOL    HW115104   3.319   4.851   5.673
 4884SOL    HW215105   3.202   4.946   5.652
 4885SOL     OW15106   2.151   3.772   5.772
 4885SOL    HW115107   2.208   3.836   5.730
 4885SOL    HW215108   2.211   3.710   5.814
 4886SOL     OW15109   2.804   3.974   6.041
 4886SOL    HW115110   2.780   4.012   5.957
 4886SOL    HW215111   2.899   3.989   6.048
 4887SOL     OW15112   2.942   4.408   7.042
 4887SOL    HW115113   2.877   4.338   7.048
 4887SOL    HW215114   3.026   4.363   7.037
 4888SOL     OW15115   3.127   5.266   6.361
 4888SOL    HW115116   3.073   0.044   6.343
 4888SOL    HW215117   3.176   5.288   6.440
 4889SOL     OW15118   2.330   4.874   6.308
 4889SOL    HW115119   2.265   4.853   6.374
 4889SOL    HW215120   2.285   4.860   6.225
 4890SOL     OW15121   2.885   4.258   5.612
 4890SOL    HW115122   2.842   4.341   5.593
 4890SOL    HW215123   2.951   4.281   5.679
 4891SOL     OW15124   1.946   4.278   6.978
 4891SOL    HW115125   2.038   4.277   6.952
 4891SOL    HW215126   1.941   4.347   7.044
 4892SOL     OW15127   2.420   3.952   6.757
 4892SOL    HW115128   2.462   3.878   6.802
 4892SOL    HW215129   2.328   3.947   6.785
 4893SOL     OW15130   2.728   4.181   6.224
 4893SOL    HW115131   2.685   4.238   6.160
 4893SOL    HW215132   2.751   4.102   6.175
 4894SOL     OW15133   2.882   3.779   6.332
 4894SOL    HW115134   2.822   3.773   6.258
 4894SOL    HW215135   2.857   3.705   6.388
 4895SOL     OW15136   3.305   4.891   6.445
 4895SOL    HW115137   3.236   4.825   6.443
 4895SOL    HW215138   3.332   4.901   6.354
 4896SOL     OW15139   3.328   4.333   6.553
 4896SOL    HW115140   3.271   4.256   6.557
 4896SOL    HW215141   3.385   4.325   6.630
 4897SOL     OW15142   3.702   4.534   5.971
 4897SOL    HW115143   3.761   4.485   6.029
 4897SOL    HW215144   3.678   4.471   5.903
 4898SOL     OW15145   2.333   5.153   5.728
 4898SOL    HW115146   2.278   5.100   5.785
 4898SOL    HW215147   2.354   5.096   5.654
 4899SOL     OW15148   3.535   4.987   6.229
 4899SOL    HW115149   3.629   4.992   6.247
 4899SOL    HW215150   3.503   5.076   6.244
 4900SOL     OW15151   3.255   4.297   5.657
 4900SOL    HW115152   3.194   4.276   5.727
 4900SOL    HW215153   3.340   4.267   5.689
 4901SOL     OW15154   2.387   3.986   5.897
 4901SOL    HW115155   2.437   3.942   5.829
 4901SOL    HW215156   2.360   4.069   5.858
 4902SOL     OW15157   3.609   4.960   7.149
 4902SOL    HW115158   3.694   4.917   7.150
 4902SOL    HW215159   3.629   5.053   7.159
 4903SOL     OW15160   2.925   5.071   6.911
 4903SOL    HW115161   2.845   5.047   6.957
 4903SOL    HW215162   2.996   5.034   6.965
 4904SOL     OW15163   2.993   4.927   6.691
 4904SOL    HW115164   2.947   4.970   6.764
 4904SOL    HW215165   2.940   4.948   6.614
 4905SOL     OW15166   3.487   4.820   6.661
 4905SOL    HW115167   3.482   4.882   6.733
 4905SOL    HW215168   3.413   4.841   6.605
 4906SOL     OW15169   2.779   3.818   6.977
 4906SOL    HW115170   2.803   3.800   6.886
 4906SOL    HW215171   2.858   3.857   7.015
 4907SOL     OW15172   2.847   4.838   7.316
 4907SOL    HW115173   2.755   4.855   7.334
 4907SOL    HW215174   2.847   4.761   7.258
 4908SOL     OW15175   2.569   4.786   5.957
 4908SOL    HW115176   2.555   4.767   6.049
 4908SOL    HW215177   2.646   4.734   5.932
 4909SOL     OW15178   2.284   4.543   6.838
 4909SOL    HW115179   2.352   4.552   6.905
 4909SOL    HW215180   2.250   4.454   6.851
 4910SOL     OW15181   3.125   4.099   6.866
 4910SOL    HW115182   3.158   4.177   6.912
 4910SOL    HW215183   3.034   4.120   6.844
 4911SOL     OW15184   2.194   4.840   6.073
 4911SOL    HW115185   2.193   4.913   6.010
 4911SOL    HW215186   2.197   4.762   6.018
 4912SOL     OW15187   2.409   4.255   6.445
 4912SOL    HW115188   2.423   4.314   6.371
 4912SOL    HW215189   2.476   4.280   6.509
 4913SOL     OW15190   3.122   5.082   5.973
 4913SOL    HW115191   3.179   5.149   6.011
 4913SOL    HW215192   3.034   5.105   6.004
 4914SOL     OW15193   3.137   5.184   6.727
 4914SOL    HW115194   3.195   5.200   6.802
 4914SOL    HW215195   3.094   5.102   6.748
 4915SOL     OW15196   3.440   4.343   6.070
 4915SOL    HW115197   3.390   4.391   6.137
 4915SOL    HW215198   3.484   4.411   6.020
 4916SOL     OW15199   2.212   5.235   6.895
 4916SOL    HW115200   2.200   5.198   6.808
 4916SOL    HW215201   2.306   5.254   6.900
 4917SOL     OW15202   2.279   4.469   7.189
 4917SOL    HW115203   2.343   4.512   7.132
 4917SOL    HW215204   2.316   4.383   7.206
 4918SOL     OW15205   3.471   4.505   7.274
 4918SOL    HW115206   3.385   4.546   7.267
 4918SOL    HW215207   3.523   4.547   7.205
 4919SOL     OW15208   2.858   3.857   7.339
 4919SOL    HW115209   2.917   3.929   7.317
 4919SOL    HW215210   2.907   3.778   7.314
 4920SOL     OW15211   2.360   3.759   7.337
 4920SOL    HW115212   2.313   3.707   7.272
 4920SOL    HW215213   2.304   3.836   7.351
 4921SOL     OW15214   2.447   4.597   6.618
 4921SOL    HW115215   2.480   4.687   6.619
 4921SOL    HW215216   2.391   4.591   6.695
 4922SOL     OW15217   3.209   4.581   6.605
 4922SOL    HW115218   3.123   4.565   6.567
 4922SOL    HW215219   3.255   4.498   6.596
 4923SOL     OW15220   3.062   4.251   5.848
 4923SOL    HW115221   3.070   4.173   5.903
 4923SOL    HW215222   3.019   4.315   5.904
 4924SOL     OW15223   2.158   3.920   6.833
 4924SOL    HW115224   2.122   3.951   6.916
 4924SOL    HW215225   2.140   3.826   6.833
 4925SOL     OW15226   1.923   5.050   6.871
 4925SOL    HW115227   1.942   4.982   6.936
 4925SOL    HW215228   1.950   5.132   6.914
 4926SOL     OW15229   2.582   4.352   6.638
 4926SOL    HW115230   2.659   4.340   6.583
 4926SOL    HW215231   2.553   4.441   6.620
 4927SOL     OW15232   3.602   4.685   7.444
 4927SOL    HW115233   3.557   4.617   7.393
 4927SOL    HW215234   3.543   4.703   7.517
 4928SOL     OW15235   2.171   3.785   6.211
 4928SOL    HW115236   2.147   3.875   6.232
 4928SOL    HW215237   2.179   3.742   6.296
 4929SOL     OW15238   3.484   4.103   5.946
 4929SOL    HW115239   3.512   4.037   6.010
 4929SOL    HW215240   3.460   4.179   5.999
 4930SOL     OW15241   2.891   4.482   6.544
 4930SOL    HW115242   2.882   4.499   6.638
 4930SOL    HW215243   2.864   4.391   6.533
 4931SOL     OW15244   3.715   5.212   7.157
 4931SOL    HW115245   3.694   5.295   7.116
 4931SOL    HW215246   3.786   5.232   7.217
 4932SOL     OW15247   2.214   4.640   7.395
 4932SOL    HW115248   2.295   4.660   7.441
 4932SOL    HW215249   2.239   4.577   7.327
 4933SOL     OW15250   3.388   3.996   5.712
 4933SOL    HW115251   3.324   3.930   5.741
 4933SOL    HW215252   3.423   4.033   5.793
 4934SOL     OW15253   3.149   4.548   5.614
 4934SOL    HW115254   3.191   4.463   5.619
 4934SOL    HW215255   3.181   4.587   5.532
 4935SOL     OW15256   2.916   5.090   6.393
 4935SOL    HW115257   2.925   5.000   6.360
 4935SOL    HW215258   3.004   5.126   6.388
 4936SOL     OW15259   2.170   4.532   6.532
 4936SOL    HW115260   2.264   4.551   6.525
 4936SOL    HW215261   2.167   4.442   6.563
 4937SOL     OW15262   2.188   4.255   6.599
 4937SOL    HW115263   2.153   4.167   6.586
 4937SOL    HW215264   2.265   4.258   6.542
 4938SOL     OW15265   2.997   4.096   7.270
 4938SOL    HW115266   2.948   4.151   7.333
 4938SOL    HW215267   3.084   4.137   7.266
 4939SOL     OW15268   3.022   3.922   7.057
 4939SOL    HW115269   3.011   3.984   7.129
 4939SOL    HW215270   3.065   3.972   6.988
 4940SOL     OW15271   1.868   5.035   5.779
 4940SOL    HW115272   1.776   5.054   5.757
 4940SOL    HW215273   1.866   4.946   5.815
 4941SOL     OW15274   2.834   4.511   6.810
 4941SOL    HW115275   2.895   4.492   6.881
 4941SOL    HW215276   2.752   4.470   6.836
 4942SOL     OW15277   1.899   4.274   6.703
 4942SOL    HW115278   1.979   4.265   6.652
 4942SOL    HW215279   1.928   4.274   6.794
 4943SOL     OW15280   2.054   4.245   7.317
 4943SOL    HW115281   2.106   4.199   7.251
 4943SOL    HW215282   2.018   4.321   7.272
 4944SOL     OW15283   3.242   4.656   7.243
 4944SOL    HW115284   3.263   4.749   7.239
 4944SOL    HW215285   3.237   4.628   7.151
 4945SOL     OW15286   2.679   4.294   5.953
 4945SOL    HW115287   2.685   4.220   5.892
 4945SOL    HW215288   2.605   4.345   5.922
 4946SOL     OW15289   3.502   4.325   6.765
 4946SOL    HW115290   3.492   4.267   6.841
 4946SOL    HW215291   3.590   4.307   6.732
 4947SOL     OW15292   2.061   5.272   7.332
 4947SOL    HW115293   2.010   0.009   7.403
 4947SOL    HW215294   2.081   5.183   7.360
 4948SOL     OW15295   2.576   4.169   6.839
 4948SOL    HW115296   2.518   4.097   6.814
 4948SOL    HW215297   2.567   4.232   6.768
 4949SOL     OW15298   2.321   4.216   5.767
 4949SOL    HW115299   2.381   4.286   5.791
 4949SOL    HW215300   2.236   4.259   5.757
 4950SOL     OW15301   2.003   4.862   7.059
 4950SOL    HW115302   2.006   4.815   7.142
 4950SOL    HW215303   2.020   4.796   6.993
 4951SOL     OW15304   3.184   4.764   6.804
 4951SOL    HW115305   3.205   4.702   6.735
 4951SOL    HW215306   3.117   4.821   6.767
 4952SOL     OW15307   3.178   4.582   5.889
 4952SOL    HW115308   3.104   4.549   5.941
 4952SOL    HW215309   3.151   4.568   5.798
 4953SOL     OW15310   1.962   4.986   6.610
 4953SOL    HW115311   1.940   5.008   6.700
 4953SOL    HW215312   1.881   4.949   6.574
 4954SOL     OW15313   2.617   0.029   7.299
 4954SOL    HW115314   2.524   0.053   7.309
 4954SOL    HW215315   2.640   0.060   7.212
 4955SOL     OW15316   3.584   3.879   6.090
 4955SOL    HW115317   3.654   3.863   6.028
 4955SOL    HW215318   3.568   3.794   6.131
 4956SOL     OW15319   3.140   4.653   6.258
 4956SOL    HW115320   3.213   4.592   6.269
 4956SOL    HW215321   3.174   4.723   6.203
 4957SOL     OW15322   2.670   4.993   6.988
 4957SOL    HW115323   2.637   5.026   7.071
 4957SOL    HW215324   2.596   4.998   6.928
 4958SOL     OW15325   3.705   3.894   6.552
 4958SOL    HW115326   3.733   3.806   6.527
 4958SOL    HW215327   3.618   3.903   6.512
 4959SOL     OW15328   2.119   4.036   6.301
 4959SOL    HW115329   2.033   4.072   6.278
 4959SOL    HW215330   2.118   4.032   6.396
 4960SOL     OW15331   2.688   4.725   6.958
 4960SOL    HW115332   2.736   4.712   6.876
 4960SOL    HW215333   2.689   4.819   6.971
 4961SOL     OW15334   2.779   4.636   5.878
 4961SOL    HW115335   2.839   4.670   5.811
 4961SOL    HW215336   2.828   4.568   5.923
 4962SOL     OW15337   2.222   5.030   7.087
 4962SOL    HW115338   2.214   5.101   7.023
 4962SOL    HW215339   2.148   4.973   7.068
 4963SOL     OW15340   3.474   5.005   6.867
 4963SOL    HW115341   3.527   4.992   6.946
 4963SOL    HW215342   3.411   5.072   6.892
 4964SOL     OW15343   2.927   4.836   6.305
 4964SOL    HW115344   2.852   4.786   6.338
 4964SOL    HW215345   2.990   4.771   6.277
 4965SOL     OW15346   2.886   3.966   6.552
 4965SOL    HW115347   2.883   3.919   6.469
 4965SOL    HW215348   2.881   3.897   6.618
 4966SOL     OW15349   3.589   4.116   6.967
 4966SOL    HW115350   3.661   4.179   6.967
 4966SOL    HW215351   3.619   4.045   6.909
 4967SOL     OW15352   2.121   5.047   5.876
 4967SOL    HW115353   2.030   5.047   5.847
 4967SOL    HW215354   2.121   5.098   5.957
 4968SOL     OW15355   1.976   4.759   7.313
 4968SOL    HW115356   1.900   4.730   7.362
 4968SOL    HW215357   2.050   4.713   7.354
 4969SOL     OW15358   2.538   3.920   7.086
 4969SOL    HW115359   2.622   3.898   7.046
 4969SOL    HW215360   2.561   3.951   7.174
 4970SOL     OW15361   1.943   4.052   5.618
 4970SOL    HW115362   1.857   4.033   5.580
 4970SOL    HW215363   1.973   4.129   5.570
 4971SOL     OW15364   3.288   4.580   6.983
 4971SOL    HW115365   3.238   4.641   6.928
 4971SOL    HW215366   3.376   4.583   6.947
 4972SOL     OW15367   1.924   3.878   5.888
 4972SOL    HW115368   1.911   3.957   5.835
 4972SOL    HW215369   2.009   3.844   5.860
 4973SOL     OW15370   3.044   5.057   5.709
 4973SOL    HW115371   2.954   5.026   5.712
 4973SOL    HW215372   3.073   5.053   5.800
 4974SOL     OW15373   2.482   4.555   7.022
 4974SOL    HW115374   2.540   4.629   7.006
 4974SOL    HW215375   2.541   4.480   7.029
 4975SOL     OW15376   2.579   4.282   7.286
 4975SOL    HW115377   2.624   4.341   7.346
 4975SOL    HW215378   2.599   4.194   7.320
 4976SOL     OW15379   3.338   4.915   7.215
 4976SOL    HW115380   3.325   4.931   7.309
 4976SOL    HW215381   3.431   4.933   7.200
 4977SOL     OW15382   3.526   4.603   6.840
 4977SOL    HW115383   3.522   4.518   6.797
 4977SOL    HW215384   3.516   4.667   6.770
 4978SOL     OW15385   3.078   4.043   6.043
 4978SOL    HW115386   3.140   3.970   6.037
 4978SOL    HW215387   3.107   4.093   6.119
 4979SOL     OW15388   2.448   4.458   6.260
 4979SOL    HW115389   2.489   4.544   6.245
 4979SOL    HW215390   2.384   4.450   6.189
 4980SOL     OW15391   3.617   4.087   7.241
 4980SOL    HW115392   3.604   4.104   7.147
 4980SOL    HW215393   3.544   4.031   7.265
 4981SOL     OW15394   3.610   4.657   7.096
 4981SOL    HW115395   3.597   4.750   7.108
 4981SOL    HW215396   3.592   4.642   7.003
 4982SOL     OW15397   2.706   5.093   5.607
 4982SOL    HW115398   2.693   5.092   5.702
 4982SOL    HW215399   2.713   5.186   5.585
 4983SOL     OW15400   2.733   4.696   6.440
 4983SOL    HW115401   2.780   4.622   6.478
 4983SOL    HW215402   2.692   4.740   6.514
 4984SOL     OW15403   2.941   4.715   5.677
 4984SOL    HW115404   2.918   4.765   5.599
 4984SOL    HW215405   3.014   4.659   5.649
 4985SOL     OW15406   2.077   5.014   7.437
 4985SOL    HW115407   2.026   4.942   7.400
 4985SOL    HW215408   2.039   5.028   7.524
 4986SOL     OW15409   1.953   4.951   6.255
 4986SOL    HW115410   1.953   4.901   6.336
 4986SOL    HW215411   2.016   4.905   6.199
 4987SOL     OW15412   2.539   5.096   7.193
 4987SOL    HW115413   2.460   5.069   7.240
 4987SOL    HW215414   2.574   5.169   7.244
 4988SOL     OW15415   3.674   3.906   6.822
 4988SOL    HW115416   3.679   3.811   6.835
 4988SOL    HW215417   3.685   3.918   6.728
 4989SOL     OW15418   2.290   4.157   6.111
 4989SOL    HW115419   2.321   4.087   6.055
 4989SOL    HW215420   2.240   4.112   6.180
 4990SOL     OW15421   3.568   5.227   6.702
 4990SOL    HW115422   3.494   5.210   6.644
 4990SOL    HW215423   3.574   5.149   6.758
 4991SOL     OW15424   2.198   4.284   6.879
 4991SOL    HW115425   2.251   4.227   6.934
 4991SOL    HW215426   2.215   4.254   6.790
 4992SOL     OW15427   3.291   3.953   6.703
 4992SOL    HW115428   3.310   3.869   6.745
 4992SOL    HW215429   3.241   4.002   6.767
 4993SOL     OW15430   2.871   3.742   6.722
 4993SOL    HW115431   2.815   3.675   6.683
 4993SOL    HW215432   2.958   3.702   6.723
 4994SOL     OW15433   2.672   5.044   5.872
 4994SOL    HW115434   2.622   4.966   5.896
 4994SOL    HW215435   2.727   5.062   5.949
 4995SOL     OW15436   2.484   0.002   6.885
 4995SOL    HW115437   2.486   0.056   6.964
 4995SOL    HW215438   2.576   5.282   6.868
 4996SOL     OW15439   3.219   3.776   5.758
 4996SOL    HW115440   3.251   3.707   5.700
 4996SOL    HW215441   3.129   3.749   5.780
 4997SOL     OW15442   3.158   4.187   6.264
 4997SOL    HW115443   3.106   4.267   6.268
 4997SOL    HW215444   3.153   4.151   6.352
 4998SOL     OW15445   3.447   3.919   6.469
 4998SOL    HW115446   3.391   3.944   6.543
 4998SOL    HW215447   3.446   3.996   6.412
 4999SOL     OW15448   1.904   4.788   5.896
 4999SOL    HW115449   1.998   4.781   5.879
 4999SOL    HW215450   1.877   4.698   5.917
 5000SOL     OW15451   2.085   4.346   7.576
 5000SOL    HW115452   1.995   4.350   7.609
 5000SOL    HW215453   2.076   4.323   7.484
 5001SOL     OW15454   3.635   4.317   7.677
 5001SOL    HW115455   3.611   4.314   7.585
 5001SOL    HW215456   3.594   4.239   7.715
 5002SOL     OW15457   2.142   0.122   7.958
 5002SOL    HW115458   2.121   0.208   7.993
 5002SOL    HW215459   2.148   0.135   7.863
 5003SOL     OW15460   2.075   5.158   7.996
 5003SOL    HW115461   2.095   5.252   7.999
 5003SOL    HW215462   2.022   5.143   8.074
 5004SOL     OW15463   2.441   4.708   7.584
 5004SOL    HW115464   2.488   4.752   7.514
 5004SOL    HW215465   2.481   4.741   7.664
 5005SOL     OW15466   1.868   0.006   7.530
 5005SOL    HW115467   1.867   5.219   7.570
 5005SOL    HW215468   1.865   0.066   7.604
 5006SOL     OW15469   3.544   4.581   8.025
 5006SOL    HW115470   3.619   4.593   0.004
 5006SOL    HW215471   3.529   4.668   7.988
 5007SOL     OW15472   3.523   4.822   7.880
 5007SOL    HW115473   3.613   4.840   7.851
 5007SOL    HW215474   3.500   4.897   7.935
 5008SOL     OW15475   2.666   3.723   7.942
 5008SOL    HW115476   2.714   3.802   7.919
 5008SOL    HW215477   2.575   3.751   7.946
 5009SOL     OW15478   3.395   4.727   7.652
 5009SOL    HW115479   3.327   4.669   7.686
 5009SOL    HW215480   3.441   4.758   7.730
 5010SOL     OW15481   2.451   4.446   7.709
 5010SOL    HW115482   2.450   4.531   7.663
 5010SOL    HW215483   2.393   4.459   7.784
 5011SOL     OW15484   1.917   4.588   0.082
 5011SOL    HW115485   1.979   4.518   0.103
 5011SOL    HW215486   1.929   4.653   0.151
 5012SOL     OW15487   2.756   4.078   7.643
 5012SOL    HW115488   2.792   4.136   7.577
 5012SOL    HW215489   2.780   3.990   7.614
 5013SOL     OW15490   2.181   4.680   7.699
 5013SOL    HW115491   2.261   4.696   7.649
 5013SOL    HW215492   2.143   4.602   7.659
 5014SOL     OW15493   2.952   0.178   7.640
 5014SOL    HW115494   2.906   0.116   7.696
 5014SOL    HW215495   2.934   0.148   7.551
 5015SOL     OW15496   3.491   5.100   7.553
 5015SOL    HW115497   3.481   5.176   7.495
 5015SOL    HW215498   3.421   5.041   7.527
 5016SOL     OW15499   3.283   3.862   7.864
 5016SOL    HW115500   3.273   3.825   7.776
 5016SOL    HW215501   3.378   3.863   7.878
 5017SOL     OW15502   2.257   4.426   7.916
 5017SOL    HW115503   2.248   4.332   7.930
 5017SOL    HW215504   2.167   4.459   7.918
 5018SOL     OW15505   2.501   3.840   7.557
 5018SOL    HW115506   2.564   3.770   7.574
 5018SOL    HW215507   2.452   3.810   7.481
 5019SOL     OW15508   2.397   3.803   7.961
 5019SOL    HW115509   2.311   3.807   8.003
 5019SOL    HW215510   2.395   3.872   7.895
 5020SOL     OW15511   3.290   4.928   7.487
 5020SOL    HW115512   3.318   4.853   7.539
 5020SOL    HW215513   3.202   4.948   7.518
 5021SOL     OW15514   2.152   3.773   7.634
 5021SOL    HW115515   2.208   3.834   7.586
 5021SOL    HW215516   2.212   3.712   7.675
 5022SOL     OW15517   2.806   3.951   7.901
 5022SOL    HW115518   2.768   4.013   7.839
 5022SOL    HW215519   2.897   3.980   7.912
 5023SOL     OW15520   2.293   4.865   0.099
 5023SOL    HW115521   2.226   4.920   0.140
 5023SOL    HW215522   2.267   4.861   0.007
 5024SOL     OW15523   2.886   4.258   7.471
 5024SOL    HW115524   2.840   4.340   7.454
 5024SOL    HW215525   2.944   4.277   7.544
 5025SOL     OW15526   3.739   4.533   7.805
 5025SOL    HW115527   3.703   4.525   7.893
 5025SOL    HW215528   3.702   4.459   7.757
 5026SOL     OW15529   2.322   5.158   7.595
 5026SOL    HW115530   2.270   5.103   7.654
 5026SOL    HW215531   2.346   5.099   7.523
 5027SOL     OW15532   3.256   4.296   7.518
 5027SOL    HW115533   3.193   4.274   7.587
 5027SOL    HW215534   3.339   4.263   7.550
 5028SOL     OW15535   2.387   3.989   7.766
 5028SOL    HW115536   2.435   3.943   7.698
 5028SOL    HW215537   2.360   4.071   7.725
 5029SOL     OW15538   2.577   4.791   7.810
 5029SOL    HW115539   2.544   4.770   7.897
 5029SOL    HW215540   2.654   4.735   7.799
 5030SOL     OW15541   2.225   4.837   7.920
 5030SOL    HW115542   2.198   4.915   7.871
 5030SOL    HW215543   2.213   4.765   7.859
 5031SOL     OW15544   3.085   5.116   7.835
 5031SOL    HW115545   3.174   5.121   7.870
 5031SOL    HW215546   3.037   5.062   7.898
 5032SOL     OW15547   3.449   4.345   7.918
 5032SOL    HW115548   3.446   4.405   7.992
 5032SOL    HW215549   3.479   4.399   7.845
 5033SOL     OW15550   3.061   4.248   7.709
 5033SOL    HW115551   3.062   4.166   7.759
 5033SOL    HW215552   3.038   4.315   7.773
 5034SOL     OW15553   3.486   4.105   7.805
 5034SOL    HW115554   3.508   4.038   7.870
 5034SOL    HW215555   3.460   4.181   7.857
 5035SOL     OW15556   3.388   3.999   7.572
 5035SOL    HW115557   3.324   3.933   7.598
 5035SOL    HW215558   3.422   4.034   7.654
 5036SOL     OW15559   3.152   4.550   7.478
 5036SOL    HW115560   3.193   4.463   7.480
 5036SOL    HW215561   3.183   4.588   7.396
 5037SOL     OW15562   1.875   5.041   7.640
 5037SOL    HW115563   1.783   5.056   7.615
 5037SOL    HW215564   1.876   4.952   7.675
 5038SOL     OW15565   2.714   4.348   7.745
 5038SOL    HW115566   2.712   4.253   7.730
 5038SOL    HW215567   2.622   4.373   7.750
 5039SOL     OW15568   2.318   4.217   7.638
 5039SOL    HW115569   2.379   4.289   7.655
 5039SOL    HW215570   2.234   4.259   7.622
 5040SOL     OW15571   3.175   4.584   7.750
 5040SOL    HW115572   3.088   4.594   7.790
 5040SOL    HW215573   3.157   4.568   7.657
 5041SOL     OW15574   3.575   3.877   7.938
 5041SOL    HW115575   3.650   3.872   7.879
 5041SOL    HW215576   3.583   3.799   7.993
 5042SOL     OW15577   2.788   4.625   7.761
 5042SOL    HW115578   2.839   4.649   7.684
 5042SOL    HW215579   2.775   4.531   7.754
 5043SOL     OW15580   2.124   5.051   7.758
 5043SOL    HW115581   2.035   5.054   7.723
 5043SOL    HW215582   2.118   5.093   7.843
 5044SOL     OW15583   1.941   4.051   7.480
 5044SOL    HW115584   1.856   4.032   7.439
 5044SOL    HW215585   1.972   4.129   7.435
 5045SOL     OW15586   1.925   3.880   7.749
 5045SOL    HW115587   1.911   3.954   7.690
 5045SOL    HW215588   2.009   3.843   7.722
 5046SOL     OW15589   3.040   5.053   7.568
 5046SOL    HW115590   2.949   5.026   7.566
 5046SOL    HW215591   3.057   5.075   7.660
 5047SOL     OW15592   3.075   4.043   7.903
 5047SOL    HW115593   3.150   3.985   7.892
 5047SOL    HW215594   3.092   4.089   7.985
 5048SOL     OW15595   2.499   4.464   8.045
 5048SOL    HW115596   2.497   4.539   0.025
 5048SOL    HW215597   2.410   4.459   8.010
 5049SOL     OW15598   2.710   5.091   7.469
 5049SOL    HW115599   2.697   5.092   7.563
 5049SOL    HW215600   2.712   5.184   7.444
 5050SOL     OW15601   2.930   4.697   7.541
 5050SOL    HW115602   2.911   4.756   7.468
 5050SOL    HW215603   3.008   4.648   7.512
 5051SOL     OW15604   2.245   4.157   7.987
 5051SOL    HW115605   2.297   4.105   7.926
 5051SOL    HW215606   2.297   4.159   8.068
 5052SOL     OW15607   2.672   5.056   7.734
 5052SOL    HW115608   2.633   4.972   7.760
 5052SOL    HW215609   2.671   5.109   7.813
 5053SOL     OW15610   3.221   3.774   7.612
 5053SOL    HW115611   3.254   3.701   7.560
 5053SOL    HW215612   3.133   3.747   7.637
 5054SOL     OW15613   1.917   4.796   7.750
 5054SOL    HW115614   2.012   4.791   7.740
 5054SOL    HW215615   1.889   4.706   7.763
 5055SOL     OW15616   3.929   0.619   0.126
 5055SOL    HW115617   3.848   0.589   0.167
 5055SOL    HW215618   3.950   0.551   0.062
 5056SOL     OW15619   3.937   0.288   0.995
 5056SOL    HW115620   3.967   0.250   1.078
 5056SOL    HW215621   3.857   0.240   0.974
 5057SOL     OW15622   3.721   0.393   0.637
 5057SOL    HW115623   3.638   0.415   0.678
 5057SOL    HW215624   3.703   0.315   0.585
 5058SOL     OW15625   4.292   1.298   1.184
 5058SOL    HW115626   4.206   1.303   1.142
 5058SOL    HW215627   4.309   1.386   1.215
 5059SOL     OW15628   5.288   1.561   0.708
 5059SOL    HW115629   5.254   1.505   0.777
 5059SOL    HW215630   5.232   1.544   0.633
 5060SOL     OW15631   4.865   0.699   0.698
 5060SOL    HW115632   4.914   0.781   0.688
 5060SOL    HW215633   4.814   0.712   0.777
 5061SOL     OW15634   4.469   1.138   1.047
 5061SOL    HW115635   4.404   1.175   1.106
 5061SOL    HW215636   4.508   1.213   1.003
 5062SOL     OW15637   4.598   0.767   1.826
 5062SOL    HW115638   4.580   0.838   1.887
 5062SOL    HW215639   4.620   0.812   1.744
 5063SOL     OW15640   4.407   0.995   0.649
 5063SOL    HW115641   4.474   0.988   0.718
 5063SOL    HW215642   4.340   1.051   0.687
 5064SOL     OW15643   4.439   1.150   1.820
 5064SOL    HW115644   4.486   1.227   1.850
 5064SOL    HW215645   4.359   1.185   1.780
 5065SOL     OW15646   4.055   1.418   1.067
 5065SOL    HW115647   3.981   1.378   1.021
 5065SOL    HW215648   4.100   1.469   1.000
 5066SOL     OW15649   5.158   1.481   1.363
 5066SOL    HW115650   5.219   1.551   1.385
 5066SOL    HW215651   5.090   1.487   1.429
 5067SOL     OW15652   4.172   0.395   1.474
 5067SOL    HW115653   4.248   0.337   1.481
 5067SOL    HW215654   4.097   0.340   1.497
 5068SOL     OW15655   3.946   1.715   0.467
 5068SOL    HW115656   3.965   1.790   0.524
 5068SOL    HW215657   4.023   1.707   0.411
 5069SOL     OW15658   4.857   1.341   1.696
 5069SOL    HW115659   4.895   1.336   1.783
 5069SOL    HW215660   4.807   1.261   1.687
 5070SOL     OW15661   3.950   1.441   0.523
 5070SOL    HW115662   3.937   1.535   0.526
 5070SOL    HW215663   3.896   1.406   0.594
 5071SOL     OW15664   3.990   1.091   0.892
 5071SOL    HW115665   3.987   1.003   0.929
 5071SOL    HW215666   3.932   1.143   0.947
 5072SOL     OW15667   4.322   1.795   1.422
 5072SOL    HW115668   4.244   1.776   1.473
 5072SOL    HW215669   4.350   1.882   1.452
 5073SOL     OW15670   4.344   0.955   0.145
 5073SOL    HW115671   4.288   1.028   0.118
 5073SOL    HW215672   4.399   0.991   0.215
 5074SOL     OW15673   5.254   0.135   1.485
 5074SOL    HW115674   0.011   0.211   1.472
 5074SOL    HW215675   5.262   0.115   1.579
 5075SOL     OW15676   3.842   0.654   0.565
 5075SOL    HW115677   3.810   0.566   0.586
 5075SOL    HW215678   3.833   0.702   0.647
 5076SOL     OW15679   3.764   1.591   0.108
 5076SOL    HW115680   3.746   1.504   0.144
 5076SOL    HW215681   3.744   1.651   0.180
 5077SOL     OW15682   0.118   0.949   0.596
 5077SOL    HW115683   0.209   0.925   0.581
 5077SOL    HW215684   0.095   1.007   0.524
 5078SOL     OW15685   3.848   0.747   1.581
 5078SOL    HW115686   3.939   0.778   1.584
 5078SOL    HW215687   3.796   0.827   1.585
 5079SOL     OW15688   4.339   1.392   0.733
 5079SOL    HW115689   4.295   1.307   0.743
 5079SOL    HW215690   4.324   1.417   0.642
 5080SOL     OW15691   4.994   1.229   1.423
 5080SOL    HW115692   5.030   1.163   1.363
 5080SOL    HW215693   5.053   1.226   1.499
 5081SOL     OW15694   4.542   0.036   0.535
 5081SOL    HW115695   4.572   0.121   0.502
 5081SOL    HW215696   4.447   0.040   0.527
 5082SOL     OW15697   3.912   0.962   1.278
 5082SOL    HW115698   3.998   0.923   1.264
 5082SOL    HW215699   3.853   0.912   1.221
 5083SOL     OW15700   4.891   1.811   1.627
 5083SOL    HW115701   4.909   1.873   1.556
 5083SOL    HW215702   4.917   1.726   1.591
 5084SOL     OW15703   4.060   0.277   1.820
 5084SOL    HW115704   4.109   0.347   1.863
 5084SOL    HW215705   3.972   0.284   1.858
 5085SOL     OW15706   5.165   1.439   0.927
 5085SOL    HW115707   5.106   1.445   1.002
 5085SOL    HW215708   5.160   1.347   0.899
 5086SOL     OW15709   4.323   0.711   0.285
 5086SOL    HW115710   4.336   0.794   0.241
 5086SOL    HW215711   4.257   0.730   0.352
 5087SOL     OW15712   4.991   0.326   0.917
 5087SOL    HW115713   4.901   0.304   0.940
 5087SOL    HW215714   5.043   0.295   0.991
 5088SOL     OW15715   4.516   0.619   1.445
 5088SOL    HW115716   4.489   0.595   1.534
 5088SOL    HW215717   4.480   0.549   1.389
 5089SOL     OW15718   5.116   0.493   1.683
 5089SOL    HW115719   5.121   0.523   1.774
 5089SOL    HW215720   5.188   0.432   1.673
 5090SOL     OW15721   4.673   0.886   1.586
 5090SOL    HW115722   4.726   0.816   1.548
 5090SOL    HW215723   4.624   0.922   1.513
 5091SOL     OW15724   4.719   0.423   1.222
 5091SOL    HW115725   4.630   0.432   1.256
 5091SOL    HW215726   4.709   0.369   1.144
 5092SOL     OW15727   4.781   0.699   0.427
 5092SOL    HW115728   4.800   0.692   0.521
 5092SOL    HW215729   4.697   0.654   0.417
 5093SOL     OW15730   3.812   0.823   0.778
 5093SOL    HW115731   3.893   0.815   0.830
 5093SOL    HW215732   3.768   0.900   0.814
 5094SOL     OW15733   3.848   1.870   1.583
 5094SOL    HW115734   3.852   1.847   1.676
 5094SOL    HW215735   3.763   1.837   1.554
 5095SOL     OW15736   4.610   0.360   0.200
 5095SOL    HW115737   4.655   0.403   0.128
 5095SOL    HW215738   4.589   0.273   0.168
 5096SOL     OW15739   5.103   1.155   0.554
 5096SOL    HW115740   5.185   1.150   0.504
 5096SOL    HW215741   5.045   1.210   0.500
 5097SOL     OW15742   4.236   0.204   0.878
 5097SOL    HW115743   4.260   0.216   0.970
 5097SOL    HW215744   4.262   0.286   0.836
 5098SOL     OW15745   4.722   1.442   0.469
 5098SOL    HW115746   4.687   1.517   0.420
 5098SOL    HW215747   4.699   1.460   0.560
 5099SOL     OW15748   4.078   1.814   0.871
 5099SOL    HW115749   4.123   1.729   0.876
 5099SOL    HW215750   4.146   1.878   0.889
 5100SOL     OW15751   4.936   1.538   1.516
 5100SOL    HW115752   4.925   1.467   1.579
 5100SOL    HW215753   4.868   1.522   1.450
 5101SOL     OW15754   4.036   0.946   0.265
 5101SOL    HW115755   4.096   0.991   0.205
 5101SOL    HW215756   4.051   0.853   0.249
 5102SOL     OW15757   4.194   1.268   1.739
 5102SOL    HW115758   4.168   1.272   1.647
 5102SOL    HW215759   4.111   1.264   1.787
 5103SOL     OW15760   4.817   1.773   0.220
 5103SOL    HW115761   4.759   1.733   0.286
 5103SOL    HW215762   4.835   1.702   0.158
 5104SOL     OW15763   3.922   0.276   1.509
 5104SOL    HW115764   3.843   0.330   1.514
 5104SOL    HW215765   3.920   0.224   1.589
 5105SOL     OW15766   4.188   1.735   0.322
 5105SOL    HW115767   4.232   1.794   0.383
 5105SOL    HW215768   4.257   1.706   0.263
 5106SOL     OW15769   5.092   0.123   0.451
 5106SOL    HW115770   5.093   0.074   0.369
 5106SOL    HW215771   5.184   0.133   0.474
 5107SOL     OW15772   3.980   1.790   1.228
 5107SOL    HW115773   4.030   1.720   1.271
 5107SOL    HW215774   3.973   1.762   1.137
 5108SOL     OW15775   4.665   1.699   0.895
 5108SOL    HW115776   4.747   1.652   0.912
 5108SOL    HW215777   4.622   1.648   0.826
 5109SOL     OW15778   4.112   0.698   0.472
 5109SOL    HW115779   4.133   0.606   0.487
 5109SOL    HW215780   4.020   0.707   0.497
 5110SOL     OW15781   4.349   0.141   0.122
 5110SOL    HW115782   4.440   0.113   0.131
 5110SOL    HW215783   4.320   0.104   0.039
 5111SOL     OW15784   4.507   0.305   1.767
 5111SOL    HW115785   4.582   0.246   1.768
 5111SOL    HW215786   4.457   0.282   1.846
 5112SOL     OW15787   4.598   1.524   1.194
 5112SOL    HW115788   4.582   1.487   1.108
 5112SOL    HW215789   4.667   1.470   1.232
 5113SOL     OW15790   5.059   0.595   1.431
 5113SOL    HW115791   5.087   0.568   1.519
 5113SOL    HW215792   5.100   0.681   1.419
 5114SOL     OW15793   4.541   1.389   0.946
 5114SOL    HW115794   4.626   1.377   0.904
 5114SOL    HW215795   4.479   1.397   0.873
 5115SOL     OW15796   4.651   0.512   0.899
 5115SOL    HW115797   4.627   0.501   0.807
 5115SOL    HW215798   4.677   0.424   0.928
 5116SOL     OW15799   4.271   0.060   0.508
 5116SOL    HW115800   4.187   0.054   0.553
 5116SOL    HW215801   4.259   0.129   0.443
 5117SOL     OW15802   5.134   1.170   0.053
 5117SOL    HW115803   5.116   1.089   0.102
 5117SOL    HW215804   5.054   1.221   0.060
 5118SOL     OW15805   4.026   0.077   0.208
 5118SOL    HW115806   4.088   0.149   0.195
 5118SOL    HW215807   4.077   5.298   0.188
 5119SOL     OW15808   4.667   0.265   0.452
 5119SOL    HW115809   4.642   0.307   0.369
 5119SOL    HW215810   4.759   0.289   0.463
 5120SOL     OW15811   4.801   0.685   1.457
 5120SOL    HW115812   4.735   0.616   1.457
 5120SOL    HW215813   4.884   0.639   1.448
 5121SOL     OW15814   4.937   1.571   0.795
 5121SOL    HW115815   4.956   1.639   0.731
 5121SOL    HW215816   5.021   1.551   0.835
 5122SOL     OW15817   4.196   1.155   0.727
 5122SOL    HW115818   4.130   1.134   0.793
 5122SOL    HW215819   4.151   1.141   0.644
 5123SOL     OW15820   4.985   1.794   0.611
 5123SOL    HW115821   5.030   1.858   0.556
 5123SOL    HW215822   4.916   1.844   0.654
 5124SOL     OW15823   4.762   0.521   0.028
 5124SOL    HW115824   4.712   0.601   0.011
 5124SOL    HW215825   4.814   0.541   0.106
 5125SOL     OW15826   3.807   0.552   1.393
 5125SOL    HW115827   3.899   0.553   1.366
 5125SOL    HW215828   3.801   0.622   1.458
 5126SOL     OW15829   4.274   0.238   1.158
 5126SOL    HW115830   4.310   0.156   1.191
 5126SOL    HW215831   4.183   0.238   1.187
 5127SOL     OW15832   4.591   0.462   0.639
 5127SOL    HW115833   4.549   0.517   0.573
 5127SOL    HW215834   4.612   0.381   0.593
 5128SOL     OW15835   4.695   0.065   0.769
 5128SOL    HW115836   4.634   0.061   0.695
 5128SOL    HW215837   4.716   5.274   0.788
 5129SOL     OW15838   5.154   1.177   0.847
 5129SOL    HW115839   5.104   1.098   0.866
 5129SOL    HW215840   5.157   1.181   0.751
 5130SOL     OW15841   4.209   1.440   0.173
 5130SOL    HW115842   4.134   1.402   0.219
 5130SOL    HW215843   4.219   1.387   0.094
 5131SOL     OW15844   5.134   0.577   0.090
 5131SOL    HW115845   5.053   0.554   0.134
 5131SOL    HW215846   5.201   0.573   0.159
 5132SOL     OW15847   4.242   0.270   0.327
 5132SOL    HW115848   4.288   0.217   0.261
 5132SOL    HW215849   4.224   0.353   0.282
 5133SOL     OW15850   4.774   1.357   1.333
 5133SOL    HW115851   4.698   1.324   1.382
 5133SOL    HW215852   4.848   1.312   1.372
 5134SOL     OW15853   0.009   1.611   1.611
 5134SOL    HW115854   0.044   1.610   1.522
 5134SOL    HW215855   0.082   1.584   1.667
 5135SOL     OW15856   4.861   1.212   1.104
 5135SOL    HW115857   4.795   1.243   1.166
 5135SOL    HW215858   4.829   1.241   1.018
 5136SOL     OW15859   4.619   0.108   1.376
 5136SOL    HW115860   4.654   0.072   1.294
 5136SOL    HW215861   4.694   0.152   1.416
 5137SOL     OW15862   4.709   1.112   1.727
 5137SOL    HW115863   4.618   1.130   1.750
 5137SOL    HW215864   4.704   1.035   1.670
 5138SOL     OW15865   4.446   1.067   0.383
 5138SOL    HW115866   4.425   1.044   0.474
 5138SOL    HW215867   4.522   1.014   0.362
 5139SOL     OW15868   4.146   0.820   1.252
 5139SOL    HW115869   4.213   0.828   1.319
 5139SOL    HW215870   4.111   0.731   1.264
 5140SOL     OW15871   4.988   0.382   1.273
 5140SOL    HW115872   5.022   0.460   1.317
 5140SOL    HW215873   4.898   0.404   1.249
 5141SOL     OW15874   3.799   1.574   1.358
 5141SOL    HW115875   3.772   1.646   1.300
 5141SOL    HW215876   3.895   1.572   1.349
 5142SOL     OW15877   4.059   1.115   0.492
 5142SOL    HW115878   4.063   1.186   0.428
 5142SOL    HW215879   4.065   1.035   0.439
 5143SOL     OW15880   4.273   0.531   0.859
 5143SOL    HW115881   4.287   0.591   0.785
 5143SOL    HW215882   4.340   0.556   0.923
 5144SOL     OW15883   4.969   1.348   0.392
 5144SOL    HW115884   5.024   1.422   0.418
 5144SOL    HW215885   4.882   1.371   0.424
 5145SOL     OW15886   5.004   1.458   1.141
 5145SOL    HW115887   5.054   1.458   1.222
 5145SOL    HW215888   4.949   1.379   1.148
 5146SOL     OW15889   4.069   1.530   1.310
 5146SOL    HW115890   4.058   1.485   1.226
 5146SOL    HW215891   4.164   1.541   1.319
 5147SOL     OW15892   4.142   0.745   1.605
 5147SOL    HW115893   4.205   0.788   1.546
 5147SOL    HW215894   4.182   0.660   1.623
 5148SOL     OW15895   4.754   0.130   1.741
 5148SOL    HW115896   4.801   0.213   1.728
 5148SOL    HW215897   4.806   0.066   1.692
 5149SOL     OW15898   4.201   0.064   1.733
 5149SOL    HW115899   4.134   5.299   1.710
 5149SOL    HW215900   4.152   0.142   1.757
 5150SOL     OW15901   4.308   0.875   1.031
 5150SOL    HW115902   4.343   0.964   1.036
 5150SOL    HW215903   4.252   0.867   1.109
 5151SOL     OW15904   5.087   0.854   1.033
 5151SOL    HW115905   5.011   0.825   0.983
 5151SOL    HW215906   5.152   0.785   1.021
 5152SOL     OW15907   4.922   0.531   0.260
 5152SOL    HW115908   4.928   0.450   0.309
 5152SOL    HW215909   4.880   0.593   0.320
 5153SOL     OW15910   4.015   0.201   1.251
 5153SOL    HW115911   3.976   0.239   1.329
 5153SOL    HW215912   4.021   0.107   1.271
 5154SOL     OW15913   3.771   1.312   1.274
 5154SOL    HW115914   3.802   1.256   1.344
 5154SOL    HW215915   3.776   1.401   1.309
 5155SOL     OW15916   4.446   0.630   1.054
 5155SOL    HW115917   4.522   0.616   0.998
 5155SOL    HW215918   4.417   0.719   1.033
 5156SOL     OW15919   4.042   0.067   0.667
 5156SOL    HW115920   4.008   0.156   0.664
 5156SOL    HW215921   4.100   0.065   0.743
 5157SOL     OW15922   0.049   0.420   0.355
 5157SOL    HW115923   0.059   0.358   0.427
 5157SOL    HW215924   0.023   0.502   0.397
 5158SOL     OW15925   4.751   0.759   0.956
 5158SOL    HW115926   4.745   0.776   1.050
 5158SOL    HW215927   4.724   0.668   0.947
 5159SOL     OW15928   4.694   1.562   1.717
 5159SOL    HW115929   4.683   1.608   1.634
 5159SOL    HW215930   4.741   1.482   1.694
 5160SOL     OW15931   4.076   0.918   1.809
 5160SOL    HW115932   4.157   0.936   1.858
 5160SOL    HW215933   4.102   0.854   1.742
 5161SOL     OW15934   5.033   0.832   0.018
 5161SOL    HW115935   5.065   0.744   0.040
 5161SOL    HW215936   5.050   0.841   8.005
 5162SOL     OW15937   4.791   1.336   0.859
 5162SOL    HW115938   4.797   1.265   0.795
 5162SOL    HW215939   4.845   1.406   0.822
 5163SOL     OW15940   4.033   0.808   0.945
 5163SOL    HW115941   4.126   0.829   0.940
 5163SOL    HW215942   4.029   0.718   0.976
 5164SOL     OW15943   4.052   0.530   1.012
 5164SOL    HW115944   4.015   0.443   1.000
 5164SOL    HW215945   4.129   0.532   0.956
 5165SOL     OW15946   4.863   0.380   1.692
 5165SOL    HW115947   4.813   0.433   1.754
 5165SOL    HW215948   4.947   0.425   1.685
 5166SOL     OW15949   4.839   0.236   1.458
 5166SOL    HW115950   4.850   0.286   1.539
 5166SOL    HW215951   4.904   0.274   1.398
 5167SOL     OW15952   3.741   1.317   0.184
 5167SOL    HW115953   3.653   1.332   0.148
 5167SOL    HW215954   3.736   1.229   0.221
 5168SOL     OW15955   3.814   1.782   0.941
 5168SOL    HW115956   3.784   1.704   0.894
 5168SOL    HW215957   3.903   1.796   0.910
 5169SOL     OW15958   4.216   1.574   0.904
 5169SOL    HW115959   4.285   1.636   0.928
 5169SOL    HW215960   4.259   1.512   0.846
 5170SOL     OW15961   4.696   0.790   1.223
 5170SOL    HW115962   4.755   0.770   1.296
 5170SOL    HW215963   4.615   0.745   1.246
 5171SOL     OW15964   3.760   0.549   1.117
 5171SOL    HW115965   3.839   0.535   1.064
 5171SOL    HW215966   3.791   0.550   1.207
 5172SOL     OW15967   3.906   0.528   1.733
 5172SOL    HW115968   3.972   0.488   1.677
 5172SOL    HW215969   3.875   0.603   1.683
 5173SOL     OW15970   5.121   0.931   1.666
 5173SOL    HW115971   5.126   1.026   1.652
 5173SOL    HW215972   5.125   0.894   1.577
 5174SOL     OW15973   4.545   0.572   0.372
 5174SOL    HW115974   4.552   0.500   0.310
 5174SOL    HW215975   4.468   0.621   0.345
 5175SOL     OW15976   3.961   1.548   1.723
 5175SOL    HW115977   3.940   1.612   1.791
 5175SOL    HW215978   3.969   1.465   1.770
 5176SOL     OW15979   4.435   0.446   1.253
 5176SOL    HW115980   4.378   0.374   1.225
 5176SOL    HW215981   4.429   0.511   1.182
 5177SOL     OW15982   4.638   1.679   1.471
 5177SOL    HW115983   4.617   1.642   1.385
 5177SOL    HW215984   4.638   1.774   1.457
 5178SOL     OW15985   4.189   0.495   0.175
 5178SOL    HW115986   4.256   0.559   0.197
 5178SOL    HW215987   4.106   0.541   0.191
 5179SOL     OW15988   3.865   1.143   1.474
 5179SOL    HW115989   3.867   1.096   1.557
 5179SOL    HW215990   3.882   1.076   1.408
 5180SOL     OW15991   5.050   1.045   1.222
 5180SOL    HW115992   5.069   0.979   1.155
 5180SOL    HW215993   4.983   1.100   1.182
 5181SOL     OW15994   5.028   0.870   0.319
 5181SOL    HW115995   4.949   0.830   0.356
 5181SOL    HW215996   5.021   0.855   0.224
 5182SOL     OW15997   4.958   1.731   1.118
 5182SOL    HW115998   5.043   1.756   1.082
 5182SOL    HW215999   4.962   1.636   1.129
 5183SOL     OW16000   3.811   1.266   1.010
 5183SOL    HW116001   3.794   1.281   1.103
 5183SOL    HW216002   3.739   1.210   0.980
 5184SOL     OW16003   4.403   1.670   1.739
 5184SOL    HW116004   4.346   1.747   1.727
 5184SOL    HW216005   4.476   1.685   1.679
 5185SOL     OW16006   4.614   0.081   0.143
 5185SOL    HW116007   4.668   0.062   0.066
 5185SOL    HW216008   4.617   0.001   0.195
 5186SOL     OW16009   5.109   1.577   0.478
 5186SOL    HW116010   5.165   1.623   0.415
 5186SOL    HW216011   5.058   1.646   0.520
 5187SOL     OW16012   3.864   1.796   1.843
 5187SOL    HW116013   3.814   1.729   1.889
 5187SOL    HW216014   3.911   1.843   1.911
 5188SOL     OW16015   5.020   0.922   0.669
 5188SOL    HW116016   5.100   0.870   0.662
 5188SOL    HW216017   5.040   1.003   0.621
 5189SOL     OW16018   4.527   1.276   1.424
 5189SOL    HW116019   4.499   1.317   1.506
 5189SOL    HW216020   4.457   1.296   1.363
 5190SOL     OW16021   4.399   1.626   0.157
 5190SOL    HW116022   4.410   1.634   0.062
 5190SOL    HW216023   4.339   1.553   0.169
 5191SOL     OW16024   3.978   0.328   0.716
 5191SOL    HW116025   3.890   0.360   0.697
 5191SOL    HW216026   3.981   0.318   0.811
 5192SOL     OW16027   4.861   1.579   0.041
 5192SOL    HW116028   4.891   1.490   0.061
 5192SOL    HW216029   4.913   1.605   8.045
 5193SOL     OW16030   4.547   1.007   1.376
 5193SOL    HW116031   4.590   0.998   1.292
 5193SOL    HW216032   4.543   1.101   1.392
 5194SOL     OW16033   4.648   0.915   0.304
 5194SOL    HW116034   4.700   0.936   0.226
 5194SOL    HW216035   4.695   0.842   0.345
 5195SOL     OW16036   4.091   1.305   1.493
 5195SOL    HW116037   4.079   1.381   1.436
 5195SOL    HW216038   4.014   1.250   1.477
 5196SOL     OW16039   4.784   1.110   0.710
 5196SOL    HW116040   4.712   1.060   0.749
 5196SOL    HW216041   4.842   1.043   0.674
 5197SOL     OW16042   4.731   0.245   0.976
 5197SOL    HW116043   4.712   0.200   0.894
 5197SOL    HW216044   4.728   0.176   1.042
 5198SOL     OW16045   4.329   1.483   0.476
 5198SOL    HW116046   4.378   1.435   0.410
 5198SOL    HW216047   4.258   1.525   0.428
 5199SOL     OW16048   3.994   1.316   0.289
 5199SOL    HW116049   3.908   1.323   0.248
 5199SOL    HW216050   3.985   1.362   0.373
 5200SOL     OW16051   3.838   1.033   1.725
 5200SOL    HW116052   3.762   1.005   1.775
 5200SOL    HW216053   3.912   0.990   1.767
 5201SOL     OW16054   4.398   0.220   1.497
 5201SOL    HW116055   4.478   0.198   1.450
 5201SOL    HW216056   4.428   0.265   1.576
 5202SOL     OW16057   3.795   0.360   0.028
 5202SOL    HW116058   3.724   0.296   0.030
 5202SOL    HW216059   3.797   0.390   8.018
 5203SOL     OW16060   5.166   0.859   1.401
 5203SOL    HW116061   5.114   0.917   1.346
 5203SOL    HW216062   5.255   0.865   1.365
 5204SOL     OW16063   3.789   0.164   0.312
 5204SOL    HW116064   3.800   0.254   0.281
 5204SOL    HW216065   3.873   0.122   0.295
 5205SOL     OW16066   4.908   1.313   0.116
 5205SOL    HW116067   4.812   1.311   0.109
 5205SOL    HW216068   4.925   1.317   0.210
 5206SOL     OW16069   4.344   0.831   1.435
 5206SOL    HW116070   4.401   0.907   1.421
 5206SOL    HW216071   4.404   0.756   1.441
 5207SOL     OW16072   4.440   0.569   1.699
 5207SOL    HW116073   4.484   0.630   1.758
 5207SOL    HW216074   4.463   0.482   1.732
 5208SOL     OW16075   5.176   1.199   1.630
 5208SOL    HW116076   5.167   1.214   1.725
 5208SOL    HW216077   5.269   1.216   1.613
 5209SOL     OW16078   4.095   1.741   1.566
 5209SOL    HW116079   4.012   1.786   1.551
 5209SOL    HW216080   4.069   1.658   1.607
 5210SOL     OW16081   4.929   0.338   0.469
 5210SOL    HW116082   4.982   0.259   0.458
 5210SOL    HW216083   4.965   0.381   0.546
 5211SOL     OW16084   4.308   0.734   0.673
 5211SOL    HW116085   4.349   0.819   0.660
 5211SOL    HW216086   4.242   0.728   0.604
 5212SOL     OW16087   4.634   1.361   0.050
 5212SOL    HW116088   4.568   1.354   0.119
 5212SOL    HW216089   4.626   1.452   0.020
 5213SOL     OW16090   4.387   1.784   0.938
 5213SOL    HW116091   4.369   1.876   0.919
 5213SOL    HW216092   4.482   1.777   0.932
 5214SOL     OW16093   4.594   0.971   0.855
 5214SOL    HW116094   4.644   0.898   0.891
 5214SOL    HW216095   4.555   1.014   0.931
 5215SOL     OW16096   4.804   0.968   0.088
 5215SOL    HW116097   4.786   1.032   0.018
 5215SOL    HW216098   4.884   0.924   0.059
 5216SOL     OW16099   3.949   1.299   1.853
 5216SOL    HW116100   3.889   1.232   1.819
 5216SOL    HW216101   3.924   1.311   1.944
 5217SOL     OW16102   3.815   1.228   0.666
 5217SOL    HW116103   3.823   1.182   0.750
 5217SOL    HW216104   3.884   1.191   0.612
 5218SOL     OW16105   4.409   1.407   1.633
 5218SOL    HW116106   4.329   1.365   1.666
 5218SOL    HW216107   4.406   1.495   1.668
 5219SOL     OW16108   4.148   0.440   0.526
 5219SOL    HW116109   4.186   0.368   0.475
 5219SOL    HW216110   4.101   0.397   0.597
 5220SOL     OW16111   0.087   1.518   1.102
 5220SOL    HW116112   0.022   1.500   1.033
 5220SOL    HW216113   0.084   1.440   1.158
 5221SOL     OW16114   4.058   0.562   1.291
 5221SOL    HW116115   4.111   0.504   1.346
 5221SOL    HW216116   4.075   0.533   1.201
 5222SOL     OW16117   4.555   1.578   0.675
 5222SOL    HW116118   4.536   1.640   0.605
 5222SOL    HW216119   4.480   1.519   0.677
 5223SOL     OW16120   5.141   0.211   1.123
 5223SOL    HW116121   5.150   0.131   1.174
 5223SOL    HW216122   5.097   0.272   1.183
 5224SOL     OW16123   4.720   0.016   1.132
 5224SOL    HW116124   4.668   5.250   1.085
 5224SOL    HW216125   4.806   5.276   1.141
 5225SOL     OW16126   4.500   1.328   0.310
 5225SOL    HW116127   4.471   1.238   0.328
 5225SOL    HW216128   4.580   1.338   0.362
 5226SOL     OW16129   4.343   1.556   1.287
 5226SOL    HW116130   4.343   1.639   1.334
 5226SOL    HW216131   4.431   1.549   1.251
 5227SOL     OW16132   5.073   5.292   0.215
 5227SOL    HW116133   5.139   5.298   0.146
 5227SOL    HW216134   5.011   0.063   0.195
 5228SOL     OW16135   5.031   0.467   0.689
 5228SOL    HW116136   4.975   0.545   0.692
 5228SOL    HW216137   5.014   0.422   0.772
 5229SOL     OW16138   5.292   0.216   0.891
 5229SOL    HW116139   5.236   0.208   0.969
 5229SOL    HW216140   5.258   0.293   0.846
 5230SOL     OW16141   3.769   1.062   0.309
 5230SOL    HW116142   3.864   1.059   0.312
 5230SOL    HW216143   3.741   0.977   0.343
 5231SOL     OW16144   4.603   1.658   0.351
 5231SOL    HW116145   4.534   1.644   0.286
 5231SOL    HW216146   4.574   1.734   0.402
 5232SOL     OW16147   3.945   0.628   1.991
 5232SOL    HW116148   3.857   0.620   2.029
 5232SOL    HW216149   3.934   0.603   1.899
 5233SOL     OW16150   3.938   0.288   2.857
 5233SOL    HW116151   3.967   0.250   2.940
 5233SOL    HW216152   3.857   0.240   2.836
 5234SOL     OW16153   3.722   0.393   2.499
 5234SOL    HW116154   3.638   0.413   2.540
 5234SOL    HW216155   3.704   0.317   2.443
 5235SOL     OW16156   4.293   1.297   3.046
 5235SOL    HW116157   4.207   1.302   3.004
 5235SOL    HW216158   4.309   1.386   3.077
 5236SOL     OW16159   5.294   1.530   2.566
 5236SOL    HW116160   5.251   1.496   2.644
 5236SOL    HW216161   5.225   1.531   2.499
 5237SOL     OW16162   4.865   0.698   2.558
 5237SOL    HW116163   4.914   0.780   2.548
 5237SOL    HW216164   4.814   0.710   2.638
 5238SOL     OW16165   4.470   1.138   2.910
 5238SOL    HW116166   4.404   1.175   2.968
 5238SOL    HW216167   4.508   1.213   2.865
 5239SOL     OW16168   4.598   0.767   3.688
 5239SOL    HW116169   4.580   0.838   3.749
 5239SOL    HW216170   4.620   0.812   3.606
 5240SOL     OW16171   4.410   0.997   2.506
 5240SOL    HW116172   4.476   0.990   2.575
 5240SOL    HW216173   4.341   1.052   2.544
 5241SOL     OW16174   4.439   1.150   3.682
 5241SOL    HW116175   4.486   1.227   3.712
 5241SOL    HW216176   4.359   1.185   3.642
 5242SOL     OW16177   4.055   1.417   2.929
 5242SOL    HW116178   3.981   1.378   2.883
 5242SOL    HW216179   4.101   1.469   2.862
 5243SOL     OW16180   5.158   1.481   3.225
 5243SOL    HW116181   5.220   1.550   3.247
 5243SOL    HW216182   5.090   1.488   3.291
 5244SOL     OW16183   4.172   0.395   3.336
 5244SOL    HW116184   4.248   0.337   3.343
 5244SOL    HW216185   4.097   0.340   3.359
 5245SOL     OW16186   3.943   1.716   2.330
 5245SOL    HW116187   3.965   1.791   2.386
 5245SOL    HW216188   4.018   1.708   2.272
 5246SOL     OW16189   4.857   1.341   3.558
 5246SOL    HW116190   4.895   1.336   3.645
 5246SOL    HW216191   4.807   1.261   3.548
 5247SOL     OW16192   3.957   1.445   2.398
 5247SOL    HW116193   3.937   1.539   2.399
 5247SOL    HW216194   3.899   1.407   2.464
 5248SOL     OW16195   3.991   1.091   2.754
 5248SOL    HW116196   3.987   1.003   2.791
 5248SOL    HW216197   3.932   1.143   2.809
 5249SOL     OW16198   4.323   1.795   3.285
 5249SOL    HW116199   4.244   1.776   3.335
 5249SOL    HW216200   4.350   1.882   3.314
 5250SOL     OW16201   4.302   0.985   2.002
 5250SOL    HW116202   4.351   1.030   1.933
 5250SOL    HW216203   4.341   1.016   2.083
 5251SOL     OW16204   5.254   0.135   3.347
 5251SOL    HW116205   0.011   0.211   3.334
 5251SOL    HW216206   5.261   0.116   3.440
 5252SOL     OW16207   3.842   0.657   2.423
 5252SOL    HW116208   3.812   0.568   2.444
 5252SOL    HW216209   3.834   0.705   2.505
 5253SOL     OW16210   3.763   1.590   1.983
 5253SOL    HW116211   3.744   1.499   2.003
 5253SOL    HW216212   3.737   1.638   2.062
 5254SOL     OW16213   0.115   0.935   2.438
 5254SOL    HW116214   0.208   0.913   2.429
 5254SOL    HW216215   0.114   1.031   2.435
 5255SOL     OW16216   3.848   0.747   3.443
 5255SOL    HW116217   3.939   0.777   3.446
 5255SOL    HW216218   3.796   0.827   3.447
 5256SOL     OW16219   4.340   1.391   2.597
 5256SOL    HW116220   4.295   1.306   2.605
 5256SOL    HW216221   4.323   1.418   2.507
 5257SOL     OW16222   4.995   1.229   3.285
 5257SOL    HW116223   5.030   1.163   3.225
 5257SOL    HW216224   5.053   1.226   3.361
 5258SOL     OW16225   4.541   0.037   2.399
 5258SOL    HW116226   4.569   0.124   2.369
 5258SOL    HW216227   4.446   0.038   2.389
 5259SOL     OW16228   3.912   0.962   3.140
 5259SOL    HW116229   3.998   0.923   3.126
 5259SOL    HW216230   3.853   0.912   3.083
 5260SOL     OW16231   4.892   1.812   3.489
 5260SOL    HW116232   4.909   1.873   3.418
 5260SOL    HW216233   4.918   1.727   3.453
 5261SOL     OW16234   4.060   0.277   3.683
 5261SOL    HW116235   4.109   0.347   3.725
 5261SOL    HW216236   3.972   0.284   3.720
 5262SOL     OW16237   5.164   1.440   2.790
 5262SOL    HW116238   5.105   1.447   2.866
 5262SOL    HW216239   5.158   1.348   2.764
 5263SOL     OW16240   4.316   0.717   2.132
 5263SOL    HW116241   4.318   0.801   2.086
 5263SOL    HW216242   4.250   0.728   2.201
 5264SOL     OW16243   4.992   0.326   2.777
 5264SOL    HW116244   4.901   0.305   2.801
 5264SOL    HW216245   5.044   0.296   2.851
 5265SOL     OW16246   4.516   0.619   3.307
 5265SOL    HW116247   4.489   0.595   3.396
 5265SOL    HW216248   4.481   0.549   3.251
 5266SOL     OW16249   5.116   0.493   3.545
 5266SOL    HW116250   5.121   0.523   3.636
 5266SOL    HW216251   5.189   0.433   3.535
 5267SOL     OW16252   4.673   0.886   3.448
 5267SOL    HW116253   4.726   0.816   3.410
 5267SOL    HW216254   4.624   0.922   3.374
 5268SOL     OW16255   4.719   0.422   3.085
 5268SOL    HW116256   4.630   0.432   3.119
 5268SOL    HW216257   4.708   0.369   3.006
 5269SOL     OW16258   4.777   0.699   2.287
 5269SOL    HW116259   4.796   0.692   2.380
 5269SOL    HW216260   4.693   0.655   2.276
 5270SOL     OW16261   3.812   0.822   2.640
 5270SOL    HW116262   3.892   0.814   2.692
 5270SOL    HW216263   3.768   0.899   2.676
 5271SOL     OW16264   3.848   1.869   3.445
 5271SOL    HW116265   3.853   1.845   3.538
 5271SOL    HW216266   3.761   1.839   3.418
 5272SOL     OW16267   4.611   0.367   2.056
 5272SOL    HW116268   4.638   0.422   1.982
 5272SOL    HW216269   4.666   0.289   2.050
 5273SOL     OW16270   5.099   1.155   2.416
 5273SOL    HW116271   5.189   1.167   2.386
 5273SOL    HW216272   5.047   1.208   2.357
 5274SOL     OW16273   4.238   0.205   2.740
 5274SOL    HW116274   4.261   0.217   2.832
 5274SOL    HW216275   4.262   0.287   2.698
 5275SOL     OW16276   4.724   1.442   2.331
 5275SOL    HW116277   4.690   1.517   2.281
 5275SOL    HW216278   4.701   1.461   2.421
 5276SOL     OW16279   4.078   1.814   2.733
 5276SOL    HW116280   4.122   1.730   2.738
 5276SOL    HW216281   4.146   1.879   2.751
 5277SOL     OW16282   4.936   1.538   3.378
 5277SOL    HW116283   4.925   1.467   3.441
 5277SOL    HW216284   4.867   1.523   3.313
 5278SOL     OW16285   4.037   0.960   2.116
 5278SOL    HW116286   4.120   0.979   2.071
 5278SOL    HW216287   4.009   0.876   2.079
 5279SOL     OW16288   4.194   1.268   3.600
 5279SOL    HW116289   4.168   1.272   3.508
 5279SOL    HW216290   4.111   1.264   3.649
 5280SOL     OW16291   4.829   1.774   2.101
 5280SOL    HW116292   4.754   1.732   2.144
 5280SOL    HW216293   4.854   1.714   2.031
 5281SOL     OW16294   3.922   0.277   3.371
 5281SOL    HW116295   3.843   0.330   3.375
 5281SOL    HW216296   3.919   0.224   3.451
 5282SOL     OW16297   4.187   1.736   2.181
 5282SOL    HW116298   4.232   1.792   2.244
 5282SOL    HW216299   4.256   1.702   2.125
 5283SOL     OW16300   5.086   0.095   2.275
 5283SOL    HW116301   5.077   0.078   2.182
 5283SOL    HW216302   5.179   0.115   2.286
 5284SOL     OW16303   3.979   1.789   3.090
 5284SOL    HW116304   4.030   1.720   3.133
 5284SOL    HW216305   3.973   1.763   2.999
 5285SOL     OW16306   4.664   1.699   2.757
 5285SOL    HW116307   4.746   1.652   2.775
 5285SOL    HW216308   4.622   1.648   2.688
 5286SOL     OW16309   4.120   0.696   2.334
 5286SOL    HW116310   4.138   0.603   2.348
 5286SOL    HW216311   4.026   0.705   2.352
 5287SOL     OW16312   4.348   0.135   1.968
 5287SOL    HW116313   4.411   0.067   1.993
 5287SOL    HW216314   4.296   0.095   1.898
 5288SOL     OW16315   4.507   0.305   3.629
 5288SOL    HW116316   4.582   0.246   3.630
 5288SOL    HW216317   4.457   0.282   3.708
 5289SOL     OW16318   4.598   1.524   3.056
 5289SOL    HW116319   4.581   1.486   2.970
 5289SOL    HW216320   4.667   1.470   3.093
 5290SOL     OW16321   5.059   0.595   3.293
 5290SOL    HW116322   5.087   0.568   3.381
 5290SOL    HW216323   5.100   0.681   3.281
 5291SOL     OW16324   4.541   1.389   2.808
 5291SOL    HW116325   4.626   1.377   2.766
 5291SOL    HW216326   4.479   1.396   2.736
 5292SOL     OW16327   4.652   0.512   2.763
 5292SOL    HW116328   4.627   0.503   2.671
 5292SOL    HW216329   4.678   0.424   2.790
 5293SOL     OW16330   4.271   0.061   2.367
 5293SOL    HW116331   4.187   0.056   2.413
 5293SOL    HW216332   4.258   0.129   2.301
 5294SOL     OW16333   5.130   1.184   1.906
 5294SOL    HW116334   5.130   1.102   1.955
 5294SOL    HW216335   5.045   1.224   1.926
 5295SOL     OW16336   4.026   0.068   2.057
 5295SOL    HW116337   4.084   0.141   2.036
 5295SOL    HW216338   4.081   5.290   2.049
 5296SOL     OW16339   4.661   0.272   2.322
 5296SOL    HW116340   4.633   0.303   2.236
 5296SOL    HW216341   4.756   0.287   2.323
 5297SOL     OW16342   4.801   0.685   3.319
 5297SOL    HW116343   4.735   0.617   3.319
 5297SOL    HW216344   4.884   0.638   3.310
 5298SOL     OW16345   4.936   1.571   2.655
 5298SOL    HW116346   4.955   1.640   2.592
 5298SOL    HW216347   5.019   1.553   2.698
 5299SOL     OW16348   4.197   1.153   2.588
 5299SOL    HW116349   4.130   1.132   2.654
 5299SOL    HW216350   4.152   1.140   2.504
 5300SOL     OW16351   4.990   1.794   2.471
 5300SOL    HW116352   5.031   1.855   2.410
 5300SOL    HW216353   4.921   1.846   2.513
 5301SOL     OW16354   4.750   0.544   1.884
 5301SOL    HW116355   4.704   0.626   1.868
 5301SOL    HW216356   4.803   0.561   1.962
 5302SOL     OW16357   3.808   0.552   3.255
 5302SOL    HW116358   3.899   0.553   3.228
 5302SOL    HW216359   3.801   0.623   3.320
 5303SOL     OW16360   4.274   0.238   3.020
 5303SOL    HW116361   4.309   0.155   3.053
 5303SOL    HW216362   4.183   0.238   3.049
 5304SOL     OW16363   4.589   0.469   2.503
 5304SOL    HW116364   4.541   0.522   2.440
 5304SOL    HW216365   4.611   0.389   2.454
 5305SOL     OW16366   4.700   0.064   2.630
 5305SOL    HW116367   4.637   0.062   2.558
 5305SOL    HW216368   4.714   5.271   2.652
 5306SOL     OW16369   5.153   1.178   2.712
 5306SOL    HW116370   5.101   1.100   2.731
 5306SOL    HW216371   5.162   1.179   2.617
 5307SOL     OW16372   4.213   1.421   2.013
 5307SOL    HW116373   4.137   1.393   2.064
 5307SOL    HW216374   4.208   1.371   1.932
 5308SOL     OW16375   5.131   0.553   1.951
 5308SOL    HW116376   5.050   0.545   2.001
 5308SOL    HW216377   5.201   0.534   2.014
 5309SOL     OW16378   4.244   0.266   2.180
 5309SOL    HW116379   4.292   0.219   2.112
 5309SOL    HW216380   4.220   0.350   2.139
 5310SOL     OW16381   4.773   1.356   3.195
 5310SOL    HW116382   4.698   1.323   3.243
 5310SOL    HW216383   4.848   1.311   3.234
 5311SOL     OW16384   0.009   1.611   3.474
 5311SOL    HW116385   0.044   1.609   3.385
 5311SOL    HW216386   0.082   1.584   3.529
 5312SOL     OW16387   4.861   1.211   2.966
 5312SOL    HW116388   4.795   1.242   3.028
 5312SOL    HW216389   4.829   1.241   2.880
 5313SOL     OW16390   4.619   0.108   3.238
 5313SOL    HW116391   4.654   0.072   3.156
 5313SOL    HW216392   4.694   0.152   3.278
 5314SOL     OW16393   4.709   1.112   3.589
 5314SOL    HW116394   4.618   1.130   3.613
 5314SOL    HW216395   4.704   1.035   3.532
 5315SOL     OW16396   4.434   1.063   2.233
 5315SOL    HW116397   4.419   1.042   2.325
 5315SOL    HW216398   4.510   1.010   2.208
 5316SOL     OW16399   4.146   0.820   3.114
 5316SOL    HW116400   4.214   0.828   3.181
 5316SOL    HW216401   4.111   0.732   3.126
 5317SOL     OW16402   4.988   0.382   3.135
 5317SOL    HW116403   5.022   0.460   3.179
 5317SOL    HW216404   4.898   0.404   3.112
 5318SOL     OW16405   3.799   1.574   3.219
 5318SOL    HW116406   3.772   1.646   3.163
 5318SOL    HW216407   3.895   1.572   3.212
 5319SOL     OW16408   4.061   1.118   2.351
 5319SOL    HW116409   4.065   1.191   2.289
 5319SOL    HW216410   4.059   1.040   2.296
 5320SOL     OW16411   4.273   0.531   2.721
 5320SOL    HW116412   4.287   0.590   2.647
 5320SOL    HW216413   4.340   0.556   2.785
 5321SOL     OW16414   4.971   1.352   2.248
 5321SOL    HW116415   5.025   1.424   2.280
 5321SOL    HW216416   4.883   1.372   2.282
 5322SOL     OW16417   5.003   1.458   3.004
 5322SOL    HW116418   5.054   1.459   3.085
 5322SOL    HW216419   4.948   1.380   3.010
 5323SOL     OW16420   4.070   1.530   3.172
 5323SOL    HW116421   4.058   1.485   3.088
 5323SOL    HW216422   4.164   1.541   3.181
 5324SOL     OW16423   4.142   0.745   3.467
 5324SOL    HW116424   4.205   0.788   3.408
 5324SOL    HW216425   4.182   0.660   3.485
 5325SOL     OW16426   4.754   0.130   3.603
 5325SOL    HW116427   4.801   0.213   3.590
 5325SOL    HW216428   4.806   0.066   3.554
 5326SOL     OW16429   4.201   0.064   3.595
 5326SOL    HW116430   4.134   5.299   3.572
 5326SOL    HW216431   4.152   0.142   3.619
 5327SOL     OW16432   4.309   0.875   2.894
 5327SOL    HW116433   4.342   0.964   2.897
 5327SOL    HW216434   4.252   0.867   2.971
 5328SOL     OW16435   5.086   0.854   2.895
 5328SOL    HW116436   5.009   0.825   2.846
 5328SOL    HW216437   5.149   0.783   2.884
 5329SOL     OW16438   4.920   0.530   2.122
 5329SOL    HW116439   4.925   0.451   2.175
 5329SOL    HW216440   4.878   0.594   2.180
 5330SOL     OW16441   4.015   0.201   3.113
 5330SOL    HW116442   3.975   0.239   3.191
 5330SOL    HW216443   4.020   0.107   3.132
 5331SOL     OW16444   3.769   1.312   3.136
 5331SOL    HW116445   3.802   1.256   3.206
 5331SOL    HW216446   3.775   1.401   3.171
 5332SOL     OW16447   4.446   0.630   2.916
 5332SOL    HW116448   4.522   0.616   2.860
 5332SOL    HW216449   4.417   0.719   2.896
 5333SOL     OW16450   4.045   0.069   2.532
 5333SOL    HW116451   4.010   0.158   2.528
 5333SOL    HW216452   4.104   0.070   2.608
 5334SOL     OW16453   0.030   0.423   2.223
 5334SOL    HW116454   0.046   0.355   2.287
 5334SOL    HW216455   0.027   0.504   2.274
 5335SOL     OW16456   4.752   0.759   2.818
 5335SOL    HW116457   4.746   0.776   2.912
 5335SOL    HW216458   4.725   0.668   2.809
 5336SOL     OW16459   4.694   1.562   3.579
 5336SOL    HW116460   4.683   1.608   3.496
 5336SOL    HW216461   4.741   1.482   3.556
 5337SOL     OW16462   4.076   0.918   3.671
 5337SOL    HW116463   4.157   0.936   3.720
 5337SOL    HW216464   4.102   0.854   3.605
 5338SOL     OW16465   5.030   0.828   1.898
 5338SOL    HW116466   5.064   0.738   1.901
 5338SOL    HW216467   5.058   0.862   1.814
 5339SOL     OW16468   4.791   1.336   2.720
 5339SOL    HW116469   4.797   1.265   2.657
 5339SOL    HW216470   4.844   1.406   2.683
 5340SOL     OW16471   4.032   0.809   2.808
 5340SOL    HW116472   4.126   0.829   2.801
 5340SOL    HW216473   4.029   0.718   2.838
 5341SOL     OW16474   4.052   0.530   2.875
 5341SOL    HW116475   4.015   0.443   2.862
 5341SOL    HW216476   4.129   0.532   2.818
 5342SOL     OW16477   4.863   0.380   3.554
 5342SOL    HW116478   4.812   0.433   3.616
 5342SOL    HW216479   4.947   0.424   3.547
 5343SOL     OW16480   4.840   0.236   3.320
 5343SOL    HW116481   4.850   0.286   3.401
 5343SOL    HW216482   4.904   0.274   3.260
 5344SOL     OW16483   3.731   1.317   2.056
 5344SOL    HW116484   3.644   1.333   2.020
 5344SOL    HW216485   3.727   1.228   2.091
 5345SOL     OW16486   3.813   1.782   2.803
 5345SOL    HW116487   3.784   1.704   2.756
 5345SOL    HW216488   3.903   1.796   2.772
 5346SOL     OW16489   4.216   1.575   2.766
 5346SOL    HW116490   4.285   1.637   2.790
 5346SOL    HW216491   4.259   1.512   2.708
 5347SOL     OW16492   4.696   0.790   3.085
 5347SOL    HW116493   4.755   0.770   3.158
 5347SOL    HW216494   4.614   0.746   3.108
 5348SOL     OW16495   3.759   0.548   2.979
 5348SOL    HW116496   3.838   0.536   2.926
 5348SOL    HW216497   3.791   0.550   3.069
 5349SOL     OW16498   3.906   0.528   3.595
 5349SOL    HW116499   3.972   0.488   3.538
 5349SOL    HW216500   3.874   0.603   3.545
 5350SOL     OW16501   5.121   0.931   3.528
 5350SOL    HW116502   5.126   1.025   3.514
 5350SOL    HW216503   5.125   0.894   3.439
 5351SOL     OW16504   4.539   0.577   2.229
 5351SOL    HW116505   4.546   0.502   2.169
 5351SOL    HW216506   4.463   0.626   2.198
 5352SOL     OW16507   3.962   1.548   3.585
 5352SOL    HW116508   3.941   1.613   3.652
 5352SOL    HW216509   3.969   1.466   3.633
 5353SOL     OW16510   4.436   0.446   3.115
 5353SOL    HW116511   4.378   0.374   3.087
 5353SOL    HW216512   4.429   0.511   3.044
 5354SOL     OW16513   4.639   1.678   3.332
 5354SOL    HW116514   4.617   1.642   3.246
 5354SOL    HW216515   4.638   1.773   3.319
 5355SOL     OW16516   4.180   0.492   2.037
 5355SOL    HW116517   4.242   0.560   2.063
 5355SOL    HW216518   4.096   0.537   2.031
 5356SOL     OW16519   3.865   1.143   3.336
 5356SOL    HW116520   3.867   1.096   3.419
 5356SOL    HW216521   3.882   1.076   3.270
 5357SOL     OW16522   5.050   1.045   3.083
 5357SOL    HW116523   5.069   0.979   3.017
 5357SOL    HW216524   4.983   1.100   3.044
 5358SOL     OW16525   5.042   0.860   2.178
 5358SOL    HW116526   4.961   0.829   2.218
 5358SOL    HW216527   5.027   0.853   2.084
 5359SOL     OW16528   4.957   1.731   2.979
 5359SOL    HW116529   5.043   1.757   2.946
 5359SOL    HW216530   4.963   1.636   2.990
 5360SOL     OW16531   3.811   1.266   2.872
 5360SOL    HW116532   3.793   1.280   2.965
 5360SOL    HW216533   3.739   1.209   2.842
 5361SOL     OW16534   4.402   1.670   3.601
 5361SOL    HW116535   4.346   1.746   3.590
 5361SOL    HW216536   4.475   1.685   3.541
 5362SOL     OW16537   5.112   1.572   2.351
 5362SOL    HW116538   5.181   1.617   2.301
 5362SOL    HW216539   5.056   1.643   2.384
 5363SOL     OW16540   3.865   1.794   3.704
 5363SOL    HW116541   3.815   1.728   3.752
 5363SOL    HW216542   3.911   1.843   3.773
 5364SOL     OW16543   5.020   0.922   2.529
 5364SOL    HW116544   5.099   0.869   2.521
 5364SOL    HW216545   5.040   1.003   2.483
 5365SOL     OW16546   4.527   1.277   3.286
 5365SOL    HW116547   4.499   1.317   3.368
 5365SOL    HW216548   4.456   1.297   3.225
 5366SOL     OW16549   4.391   1.626   2.018
 5366SOL    HW116550   4.405   1.640   1.924
 5366SOL    HW216551   4.336   1.548   2.022
 5367SOL     OW16552   3.979   0.329   2.578
 5367SOL    HW116553   3.891   0.361   2.557
 5367SOL    HW216554   3.980   0.320   2.673
 5368SOL     OW16555   4.904   1.607   1.907
 5368SOL    HW116556   4.915   1.512   1.917
 5368SOL    HW216557   4.846   1.616   1.831
 5369SOL     OW16558   4.547   1.007   3.238
 5369SOL    HW116559   4.589   0.999   3.153
 5369SOL    HW216560   4.543   1.101   3.254
 5370SOL     OW16561   4.642   0.913   2.153
 5370SOL    HW116562   4.704   0.944   2.087
 5370SOL    HW216563   4.689   0.843   2.198
 5371SOL     OW16564   4.091   1.305   3.355
 5371SOL    HW116565   4.079   1.381   3.298
 5371SOL    HW216566   4.014   1.250   3.339
 5372SOL     OW16567   4.785   1.109   2.572
 5372SOL    HW116568   4.712   1.061   2.611
 5372SOL    HW216569   4.844   1.042   2.538
 5373SOL     OW16570   4.732   0.245   2.838
 5373SOL    HW116571   4.714   0.200   2.755
 5373SOL    HW216572   4.728   0.176   2.904
 5374SOL     OW16573   4.329   1.488   2.343
 5374SOL    HW116574   4.379   1.438   2.278
 5374SOL    HW216575   4.254   1.523   2.294
 5375SOL     OW16576   3.987   1.342   2.154
 5375SOL    HW116577   3.894   1.338   2.130
 5375SOL    HW216578   3.987   1.382   2.241
 5376SOL     OW16579   3.838   1.033   3.586
 5376SOL    HW116580   3.762   1.005   3.637
 5376SOL    HW216581   3.912   0.989   3.629
 5377SOL     OW16582   4.398   0.220   3.359
 5377SOL    HW116583   4.478   0.198   3.312
 5377SOL    HW216584   4.428   0.265   3.438
 5378SOL     OW16585   3.803   0.335   1.905
 5378SOL    HW116586   3.719   0.301   1.873
 5378SOL    HW216587   3.821   0.410   1.849
 5379SOL     OW16588   5.166   0.859   3.263
 5379SOL    HW116589   5.114   0.917   3.208
 5379SOL    HW216590   5.255   0.866   3.228
 5380SOL     OW16591   3.793   0.167   2.172
 5380SOL    HW116592   3.798   0.249   2.123
 5380SOL    HW216593   3.877   0.124   2.156
 5381SOL     OW16594   4.902   1.326   1.976
 5381SOL    HW116595   4.808   1.306   1.976
 5381SOL    HW216596   4.925   1.333   2.068
 5382SOL     OW16597   4.344   0.831   3.297
 5382SOL    HW116598   4.401   0.906   3.283
 5382SOL    HW216599   4.404   0.756   3.303
 5383SOL     OW16600   4.440   0.569   3.561
 5383SOL    HW116601   4.484   0.630   3.620
 5383SOL    HW216602   4.463   0.482   3.594
 5384SOL     OW16603   5.176   1.199   3.492
 5384SOL    HW116604   5.167   1.214   3.586
 5384SOL    HW216605   5.269   1.216   3.475
 5385SOL     OW16606   4.095   1.741   3.428
 5385SOL    HW116607   4.012   1.786   3.413
 5385SOL    HW216608   4.070   1.658   3.469
 5386SOL     OW16609   4.935   0.325   2.320
 5386SOL    HW116610   4.988   0.245   2.314
 5386SOL    HW216611   4.968   0.369   2.398
 5387SOL     OW16612   4.311   0.734   2.535
 5387SOL    HW116613   4.351   0.820   2.520
 5387SOL    HW216614   4.246   0.725   2.465
 5388SOL     OW16615   4.594   1.364   1.907
 5388SOL    HW116616   4.552   1.394   1.988
 5388SOL    HW216617   4.605   1.444   1.855
 5389SOL     OW16618   4.387   1.784   2.799
 5389SOL    HW116619   4.368   1.876   2.781
 5389SOL    HW216620   4.482   1.777   2.794
 5390SOL     OW16621   4.594   0.972   2.716
 5390SOL    HW116622   4.643   0.898   2.753
 5390SOL    HW216623   4.554   1.014   2.792
 5391SOL     OW16624   4.809   0.987   1.953
 5391SOL    HW116625   4.784   1.036   1.875
 5391SOL    HW216626   4.882   0.932   1.924
 5392SOL     OW16627   3.949   1.299   3.715
 5392SOL    HW116628   3.888   1.233   3.681
 5392SOL    HW216629   3.923   1.311   3.806
 5393SOL     OW16630   3.813   1.230   2.527
 5393SOL    HW116631   3.824   1.184   2.611
 5393SOL    HW216632   3.879   1.191   2.470
 5394SOL     OW16633   4.409   1.407   3.495
 5394SOL    HW116634   4.329   1.365   3.528
 5394SOL    HW216635   4.406   1.495   3.530
 5395SOL     OW16636   4.155   0.436   2.388
 5395SOL    HW116637   4.188   0.364   2.335
 5395SOL    HW216638   4.104   0.394   2.457
 5396SOL     OW16639   0.091   1.514   2.961
 5396SOL    HW116640   0.023   1.498   2.896
 5396SOL    HW216641   0.084   1.439   3.021
 5397SOL     OW16642   4.058   0.562   3.153
 5397SOL    HW116643   4.111   0.504   3.207
 5397SOL    HW216644   4.075   0.533   3.063
 5398SOL     OW16645   4.556   1.578   2.536
 5398SOL    HW116646   4.536   1.642   2.468
 5398SOL    HW216647   4.480   1.519   2.537
 5399SOL     OW16648   5.141   0.212   2.985
 5399SOL    HW116649   5.151   0.132   3.036
 5399SOL    HW216650   5.096   0.273   3.044
 5400SOL     OW16651   4.720   0.016   2.994
 5400SOL    HW116652   4.668   5.250   2.949
 5400SOL    HW216653   4.806   5.276   3.004
 5401SOL     OW16654   4.497   1.333   2.183
 5401SOL    HW116655   4.470   1.242   2.191
 5401SOL    HW216656   4.579   1.338   2.232
 5402SOL     OW16657   4.343   1.556   3.149
 5402SOL    HW116658   4.343   1.639   3.197
 5402SOL    HW216659   4.431   1.550   3.112
 5403SOL     OW16660   5.033   0.026   2.012
 5403SOL    HW116661   5.118   0.020   1.968
 5403SOL    HW216662   4.986   5.247   1.984
 5404SOL     OW16663   5.025   0.461   2.544
 5404SOL    HW116664   4.971   0.540   2.548
 5404SOL    HW216665   5.011   0.418   2.628
 5405SOL     OW16666   5.292   0.214   2.754
 5405SOL    HW116667   5.236   0.209   2.831
 5405SOL    HW216668   5.262   0.291   2.706
 5406SOL     OW16669   3.767   1.066   2.171
 5406SOL    HW116670   3.860   1.057   2.152
 5406SOL    HW216671   3.738   0.977   2.192
 5407SOL     OW16672   4.603   1.655   2.207
 5407SOL    HW116673   4.530   1.642   2.146
 5407SOL    HW216674   4.577   1.730   2.259
 5408SOL     OW16675   3.945   0.627   3.853
 5408SOL    HW116676   3.857   0.620   3.891
 5408SOL    HW216677   3.934   0.603   3.761
 5409SOL     OW16678   3.938   0.288   4.719
 5409SOL    HW116679   3.967   0.250   4.802
 5409SOL    HW216680   3.857   0.241   4.698
 5410SOL     OW16681   3.722   0.393   4.361
 5410SOL    HW116682   3.638   0.413   4.402
 5410SOL    HW216683   3.704   0.317   4.305
 5411SOL     OW16684   4.292   1.297   4.908
 5411SOL    HW116685   4.207   1.302   4.866
 5411SOL    HW216686   4.309   1.386   4.939
 5412SOL     OW16687   5.294   1.529   4.428
 5412SOL    HW116688   5.251   1.496   4.506
 5412SOL    HW216689   5.225   1.531   4.361
 5413SOL     OW16690   4.865   0.698   4.420
 5413SOL    HW116691   4.914   0.780   4.410
 5413SOL    HW216692   4.814   0.710   4.500
 5414SOL     OW16693   4.470   1.138   4.772
 5414SOL    HW116694   4.404   1.175   4.830
 5414SOL    HW216695   4.508   1.213   4.727
 5415SOL     OW16696   4.598   0.767   5.550
 5415SOL    HW116697   4.580   0.838   5.611
 5415SOL    HW216698   4.620   0.812   5.468
 5416SOL     OW16699   4.410   0.997   4.368
 5416SOL    HW116700   4.476   0.990   4.437
 5416SOL    HW216701   4.341   1.052   4.406
 5417SOL     OW16702   4.439   1.150   5.544
 5417SOL    HW116703   4.486   1.227   5.574
 5417SOL    HW216704   4.359   1.185   5.504
 5418SOL     OW16705   4.055   1.417   4.791
 5418SOL    HW116706   3.981   1.378   4.745
 5418SOL    HW216707   4.100   1.469   4.724
 5419SOL     OW16708   5.158   1.481   5.087
 5419SOL    HW116709   5.220   1.550   5.109
 5419SOL    HW216710   5.090   1.488   5.153
 5420SOL     OW16711   4.172   0.395   5.199
 5420SOL    HW116712   4.248   0.337   5.205
 5420SOL    HW216713   4.097   0.340   5.221
 5421SOL     OW16714   3.944   1.716   4.193
 5421SOL    HW116715   3.965   1.791   4.248
 5421SOL    HW216716   4.018   1.708   4.133
 5422SOL     OW16717   4.857   1.341   5.420
 5422SOL    HW116718   4.895   1.336   5.507
 5422SOL    HW216719   4.807   1.261   5.410
 5423SOL     OW16720   3.957   1.445   4.261
 5423SOL    HW116721   3.938   1.539   4.261
 5423SOL    HW216722   3.898   1.408   4.327
 5424SOL     OW16723   3.991   1.091   4.616
 5424SOL    HW116724   3.986   1.003   4.653
 5424SOL    HW216725   3.932   1.143   4.670
 5425SOL     OW16726   4.323   1.795   5.147
 5425SOL    HW116727   4.244   1.776   5.197
 5425SOL    HW216728   4.350   1.882   5.176
 5426SOL     OW16729   4.302   0.985   3.864
 5426SOL    HW116730   4.351   1.030   3.795
 5426SOL    HW216731   4.341   1.016   3.945
 5427SOL     OW16732   5.254   0.135   5.209
 5427SOL    HW116733   0.011   0.211   5.196
 5427SOL    HW216734   5.261   0.116   5.302
 5428SOL     OW16735   3.842   0.657   4.285
 5428SOL    HW116736   3.812   0.568   4.306
 5428SOL    HW216737   3.834   0.705   4.367
 5429SOL     OW16738   3.762   1.590   3.844
 5429SOL    HW116739   3.743   1.498   3.866
 5429SOL    HW216740   3.736   1.638   3.923
 5430SOL     OW16741   0.116   0.935   4.300
 5430SOL    HW116742   0.208   0.913   4.291
 5430SOL    HW216743   0.113   1.031   4.297
 5431SOL     OW16744   3.848   0.747   5.305
 5431SOL    HW116745   3.938   0.778   5.308
 5431SOL    HW216746   3.795   0.827   5.309
 5432SOL     OW16747   4.339   1.391   4.459
 5432SOL    HW116748   4.295   1.306   4.467
 5432SOL    HW216749   4.323   1.418   4.369
 5433SOL     OW16750   4.995   1.229   5.147
 5433SOL    HW116751   5.030   1.163   5.087
 5433SOL    HW216752   5.053   1.226   5.223
 5434SOL     OW16753   4.541   0.037   4.261
 5434SOL    HW116754   4.569   0.124   4.231
 5434SOL    HW216755   4.446   0.038   4.251
 5435SOL     OW16756   3.912   0.961   5.003
 5435SOL    HW116757   3.998   0.922   4.988
 5435SOL    HW216758   3.853   0.913   4.944
 5436SOL     OW16759   4.892   1.811   5.351
 5436SOL    HW116760   4.909   1.873   5.280
 5436SOL    HW216761   4.918   1.726   5.315
 5437SOL     OW16762   4.060   0.277   5.545
 5437SOL    HW116763   4.109   0.347   5.587
 5437SOL    HW216764   3.972   0.285   5.582
 5438SOL     OW16765   5.164   1.440   4.652
 5438SOL    HW116766   5.105   1.447   4.727
 5438SOL    HW216767   5.158   1.348   4.626
 5439SOL     OW16768   4.316   0.717   3.994
 5439SOL    HW116769   4.317   0.801   3.948
 5439SOL    HW216770   4.250   0.729   4.063
 5440SOL     OW16771   4.992   0.326   4.639
 5440SOL    HW116772   4.901   0.305   4.663
 5440SOL    HW216773   5.044   0.296   4.713
 5441SOL     OW16774   4.516   0.619   5.169
 5441SOL    HW116775   4.489   0.595   5.258
 5441SOL    HW216776   4.481   0.549   5.113
 5442SOL     OW16777   5.116   0.493   5.407
 5442SOL    HW116778   5.121   0.523   5.498
 5442SOL    HW216779   5.189   0.433   5.397
 5443SOL     OW16780   4.673   0.886   5.310
 5443SOL    HW116781   4.726   0.816   5.272
 5443SOL    HW216782   4.624   0.922   5.237
 5444SOL     OW16783   4.719   0.422   4.947
 5444SOL    HW116784   4.630   0.432   4.981
 5444SOL    HW216785   4.708   0.369   4.868
 5445SOL     OW16786   4.777   0.699   4.149
 5445SOL    HW116787   4.796   0.692   4.242
 5445SOL    HW216788   4.693   0.655   4.138
 5446SOL     OW16789   3.812   0.822   4.502
 5446SOL    HW116790   3.892   0.814   4.554
 5446SOL    HW216791   3.768   0.899   4.538
 5447SOL     OW16792   3.848   1.871   5.307
 5447SOL    HW116793   3.852   1.848   5.400
 5447SOL    HW216794   3.764   1.835   5.277
 5448SOL     OW16795   4.611   0.367   3.918
 5448SOL    HW116796   4.638   0.422   3.844
 5448SOL    HW216797   4.666   0.289   3.912
 5449SOL     OW16798   5.099   1.155   4.278
 5449SOL    HW116799   5.189   1.167   4.248
 5449SOL    HW216800   5.046   1.208   4.219
 5450SOL     OW16801   4.238   0.205   4.602
 5450SOL    HW116802   4.261   0.217   4.694
 5450SOL    HW216803   4.262   0.287   4.559
 5451SOL     OW16804   4.724   1.442   4.193
 5451SOL    HW116805   4.690   1.517   4.143
 5451SOL    HW216806   4.700   1.462   4.283
 5452SOL     OW16807   4.078   1.814   4.595
 5452SOL    HW116808   4.123   1.730   4.600
 5452SOL    HW216809   4.147   1.879   4.612
 5453SOL     OW16810   4.936   1.538   5.240
 5453SOL    HW116811   4.925   1.467   5.303
 5453SOL    HW216812   4.868   1.523   5.175
 5454SOL     OW16813   4.037   0.960   3.978
 5454SOL    HW116814   4.120   0.979   3.933
 5454SOL    HW216815   4.009   0.876   3.941
 5455SOL     OW16816   4.194   1.268   5.463
 5455SOL    HW116817   4.168   1.272   5.371
 5455SOL    HW216818   4.111   1.264   5.511
 5456SOL     OW16819   4.830   1.774   3.964
 5456SOL    HW116820   4.754   1.732   4.006
 5456SOL    HW216821   4.855   1.713   3.894
 5457SOL     OW16822   3.922   0.277   5.233
 5457SOL    HW116823   3.843   0.330   5.237
 5457SOL    HW216824   3.919   0.224   5.313
 5458SOL     OW16825   4.187   1.736   4.043
 5458SOL    HW116826   4.232   1.792   4.106
 5458SOL    HW216827   4.257   1.702   3.987
 5459SOL     OW16828   5.086   0.095   4.137
 5459SOL    HW116829   5.077   0.078   4.044
 5459SOL    HW216830   5.179   0.115   4.148
 5460SOL     OW16831   3.980   1.790   4.952
 5460SOL    HW116832   4.030   1.719   4.993
 5460SOL    HW216833   3.971   1.763   4.861
 5461SOL     OW16834   4.664   1.699   4.619
 5461SOL    HW116835   4.746   1.652   4.637
 5461SOL    HW216836   4.622   1.648   4.550
 5462SOL     OW16837   4.120   0.696   4.196
 5462SOL    HW116838   4.138   0.603   4.210
 5462SOL    HW216839   4.026   0.705   4.214
 5463SOL     OW16840   4.348   0.135   3.830
 5463SOL    HW116841   4.411   0.067   3.855
 5463SOL    HW216842   4.296   0.095   3.760
 5464SOL     OW16843   4.507   0.305   5.491
 5464SOL    HW116844   4.582   0.246   5.492
 5464SOL    HW216845   4.457   0.282   5.570
 5465SOL     OW16846   4.598   1.524   4.918
 5465SOL    HW116847   4.581   1.487   4.832
 5465SOL    HW216848   4.667   1.470   4.955
 5466SOL     OW16849   5.059   0.595   5.155
 5466SOL    HW116850   5.087   0.568   5.243
 5466SOL    HW216851   5.100   0.681   5.143
 5467SOL     OW16852   4.541   1.389   4.670
 5467SOL    HW116853   4.626   1.377   4.628
 5467SOL    HW216854   4.479   1.396   4.598
 5468SOL     OW16855   4.652   0.512   4.625
 5468SOL    HW116856   4.627   0.503   4.533
 5468SOL    HW216857   4.678   0.424   4.652
 5469SOL     OW16858   4.271   0.061   4.229
 5469SOL    HW116859   4.187   0.056   4.275
 5469SOL    HW216860   4.258   0.129   4.163
 5470SOL     OW16861   5.130   1.184   3.768
 5470SOL    HW116862   5.130   1.102   3.817
 5470SOL    HW216863   5.045   1.224   3.788
 5471SOL     OW16864   4.026   0.068   3.919
 5471SOL    HW116865   4.084   0.141   3.897
 5471SOL    HW216866   4.081   5.290   3.911
 5472SOL     OW16867   4.661   0.272   4.184
 5472SOL    HW116868   4.632   0.303   4.099
 5472SOL    HW216869   4.756   0.287   4.185
 5473SOL     OW16870   4.801   0.685   5.181
 5473SOL    HW116871   4.735   0.617   5.181
 5473SOL    HW216872   4.884   0.638   5.172
 5474SOL     OW16873   4.935   1.571   4.518
 5474SOL    HW116874   4.955   1.640   4.454
 5474SOL    HW216875   5.019   1.553   4.560
 5475SOL     OW16876   4.197   1.153   4.450
 5475SOL    HW116877   4.130   1.132   4.516
 5475SOL    HW216878   4.152   1.140   4.366
 5476SOL     OW16879   4.990   1.794   4.333
 5476SOL    HW116880   5.031   1.855   4.272
 5476SOL    HW216881   4.921   1.846   4.375
 5477SOL     OW16882   4.750   0.544   3.746
 5477SOL    HW116883   4.704   0.626   3.730
 5477SOL    HW216884   4.803   0.561   3.824
 5478SOL     OW16885   3.808   0.552   5.117
 5478SOL    HW116886   3.899   0.553   5.090
 5478SOL    HW216887   3.801   0.622   5.182
 5479SOL     OW16888   4.274   0.238   4.882
 5479SOL    HW116889   4.309   0.155   4.915
 5479SOL    HW216890   4.183   0.238   4.911
 5480SOL     OW16891   4.589   0.469   4.365
 5480SOL    HW116892   4.541   0.523   4.302
 5480SOL    HW216893   4.611   0.389   4.316
 5481SOL     OW16894   4.700   0.064   4.492
 5481SOL    HW116895   4.637   0.062   4.420
 5481SOL    HW216896   4.714   5.271   4.514
 5482SOL     OW16897   5.153   1.178   4.574
 5482SOL    HW116898   5.101   1.100   4.593
 5482SOL    HW216899   5.162   1.179   4.479
 5483SOL     OW16900   4.213   1.421   3.875
 5483SOL    HW116901   4.137   1.393   3.927
 5483SOL    HW216902   4.207   1.371   3.794
 5484SOL     OW16903   5.131   0.553   3.813
 5484SOL    HW116904   5.050   0.545   3.863
 5484SOL    HW216905   5.200   0.535   3.876
 5485SOL     OW16906   4.244   0.266   4.042
 5485SOL    HW116907   4.292   0.219   3.974
 5485SOL    HW216908   4.220   0.350   4.001
 5486SOL     OW16909   4.773   1.356   5.057
 5486SOL    HW116910   4.698   1.323   5.105
 5486SOL    HW216911   4.848   1.311   5.096
 5487SOL     OW16912   0.009   1.611   5.336
 5487SOL    HW116913   0.044   1.609   5.247
 5487SOL    HW216914   0.082   1.584   5.391
 5488SOL     OW16915   4.861   1.212   4.828
 5488SOL    HW116916   4.795   1.242   4.890
 5488SOL    HW216917   4.829   1.241   4.742
 5489SOL     OW16918   4.619   0.108   5.100
 5489SOL    HW116919   4.654   0.072   5.018
 5489SOL    HW216920   4.694   0.152   5.140
 5490SOL     OW16921   4.709   1.112   5.451
 5490SOL    HW116922   4.618   1.130   5.475
 5490SOL    HW216923   4.704   1.035   5.394
 5491SOL     OW16924   4.434   1.063   4.095
 5491SOL    HW116925   4.419   1.042   4.187
 5491SOL    HW216926   4.510   1.010   4.070
 5492SOL     OW16927   4.146   0.820   4.976
 5492SOL    HW116928   4.214   0.828   5.043
 5492SOL    HW216929   4.111   0.732   4.988
 5493SOL     OW16930   4.988   0.382   4.997
 5493SOL    HW116931   5.022   0.460   5.041
 5493SOL    HW216932   4.898   0.404   4.974
 5494SOL     OW16933   3.799   1.574   5.082
 5494SOL    HW116934   3.770   1.645   5.023
 5494SOL    HW216935   3.894   1.573   5.073
 5495SOL     OW16936   4.062   1.118   4.213
 5495SOL    HW116937   4.065   1.192   4.151
 5495SOL    HW216938   4.060   1.041   4.157
 5496SOL     OW16939   4.273   0.531   4.584
 5496SOL    HW116940   4.287   0.590   4.509
 5496SOL    HW216941   4.340   0.557   4.647
 5497SOL     OW16942   4.971   1.352   4.110
 5497SOL    HW116943   5.025   1.424   4.142
 5497SOL    HW216944   4.883   1.372   4.144
 5498SOL     OW16945   5.003   1.458   4.866
 5498SOL    HW116946   5.054   1.459   4.947
 5498SOL    HW216947   4.948   1.380   4.872
 5499SOL     OW16948   4.069   1.530   5.034
 5499SOL    HW116949   4.058   1.485   4.950
 5499SOL    HW216950   4.164   1.541   5.043
 5500SOL     OW16951   4.143   0.745   5.329
 5500SOL    HW116952   4.205   0.788   5.270
 5500SOL    HW216953   4.182   0.660   5.346
 5501SOL     OW16954   4.754   0.130   5.465
 5501SOL    HW116955   4.801   0.213   5.453
 5501SOL    HW216956   4.806   0.066   5.416
 5502SOL     OW16957   4.201   0.064   5.457
 5502SOL    HW116958   4.134   5.300   5.434
 5502SOL    HW216959   4.152   0.142   5.481
 5503SOL     OW16960   4.309   0.874   4.756
 5503SOL    HW116961   4.342   0.964   4.759
 5503SOL    HW216962   4.252   0.867   4.832
 5504SOL     OW16963   5.086   0.854   4.757
 5504SOL    HW116964   5.009   0.825   4.708
 5504SOL    HW216965   5.149   0.783   4.746
 5505SOL     OW16966   4.920   0.530   3.984
 5505SOL    HW116967   4.925   0.450   4.037
 5505SOL    HW216968   4.878   0.594   4.042
 5506SOL     OW16969   4.015   0.201   4.975
 5506SOL    HW116970   3.975   0.239   5.053
 5506SOL    HW216971   4.020   0.107   4.994
 5507SOL     OW16972   3.770   1.312   4.998
 5507SOL    HW116973   3.802   1.256   5.069
 5507SOL    HW216974   3.775   1.401   5.033
 5508SOL     OW16975   4.446   0.630   4.779
 5508SOL    HW116976   4.522   0.617   4.722
 5508SOL    HW216977   4.417   0.719   4.758
 5509SOL     OW16978   4.045   0.069   4.394
 5509SOL    HW116979   4.010   0.158   4.390
 5509SOL    HW216980   4.104   0.070   4.470
 5510SOL     OW16981   0.030   0.423   4.085
 5510SOL    HW116982   0.046   0.355   4.149
 5510SOL    HW216983   0.027   0.504   4.136
 5511SOL     OW16984   4.752   0.759   4.680
 5511SOL    HW116985   4.746   0.776   4.774
 5511SOL    HW216986   4.725   0.668   4.671
 5512SOL     OW16987   4.694   1.562   5.441
 5512SOL    HW116988   4.683   1.608   5.358
 5512SOL    HW216989   4.741   1.482   5.418
 5513SOL     OW16990   4.076   0.918   5.533
 5513SOL    HW116991   4.157   0.935   5.582
 5513SOL    HW216992   4.102   0.854   5.466
 5514SOL     OW16993   5.030   0.828   3.761
 5514SOL    HW116994   5.064   0.738   3.763
 5514SOL    HW216995   5.058   0.862   3.676
 5515SOL     OW16996   4.791   1.336   4.582
 5515SOL    HW116997   4.797   1.265   4.519
 5515SOL    HW216998   4.844   1.406   4.545
 5516SOL     OW16999   4.032   0.809   4.670
 5516SOL    HW117000   4.126   0.828   4.663
 5516SOL    HW217001   4.029   0.718   4.700
 5517SOL     OW17002   4.052   0.530   4.737
 5517SOL    HW117003   4.015   0.443   4.724
 5517SOL    HW217004   4.129   0.532   4.680
 5518SOL     OW17005   4.863   0.380   5.416
 5518SOL    HW117006   4.812   0.433   5.478
 5518SOL    HW217007   4.947   0.424   5.409
 5519SOL     OW17008   4.840   0.236   5.182
 5519SOL    HW117009   4.850   0.286   5.263
 5519SOL    HW217010   4.904   0.274   5.122
 5520SOL     OW17011   3.732   1.317   3.918
 5520SOL    HW117012   3.645   1.333   3.882
 5520SOL    HW217013   3.727   1.228   3.953
 5521SOL     OW17014   3.814   1.782   4.666
 5521SOL    HW117015   3.784   1.705   4.619
 5521SOL    HW217016   3.903   1.797   4.634
 5522SOL     OW17017   4.216   1.575   4.629
 5522SOL    HW117018   4.285   1.637   4.652
 5522SOL    HW217019   4.259   1.512   4.570
 5523SOL     OW17020   4.696   0.790   4.947
 5523SOL    HW117021   4.755   0.770   5.020
 5523SOL    HW217022   4.614   0.746   4.970
 5524SOL     OW17023   3.759   0.548   4.841
 5524SOL    HW117024   3.838   0.536   4.788
 5524SOL    HW217025   3.791   0.550   4.931
 5525SOL     OW17026   3.906   0.528   5.457
 5525SOL    HW117027   3.972   0.488   5.400
 5525SOL    HW217028   3.874   0.603   5.407
 5526SOL     OW17029   5.121   0.931   5.390
 5526SOL    HW117030   5.126   1.025   5.376
 5526SOL    HW217031   5.125   0.894   5.301
 5527SOL     OW17032   4.539   0.577   4.091
 5527SOL    HW117033   4.546   0.502   4.031
 5527SOL    HW217034   4.463   0.626   4.060
 5528SOL     OW17035   3.961   1.549   5.447
 5528SOL    HW117036   3.940   1.612   5.516
 5528SOL    HW217037   3.969   1.465   5.494
 5529SOL     OW17038   4.435   0.446   4.977
 5529SOL    HW117039   4.378   0.374   4.949
 5529SOL    HW217040   4.429   0.511   4.906
 5530SOL     OW17041   4.639   1.679   5.194
 5530SOL    HW117042   4.617   1.642   5.108
 5530SOL    HW217043   4.638   1.773   5.181
 5531SOL     OW17044   4.180   0.492   3.899
 5531SOL    HW117045   4.242   0.560   3.925
 5531SOL    HW217046   4.096   0.537   3.893
 5532SOL     OW17047   3.865   1.143   5.198
 5532SOL    HW117048   3.867   1.096   5.281
 5532SOL    HW217049   3.882   1.076   5.132
 5533SOL     OW17050   5.050   1.045   4.945
 5533SOL    HW117051   5.069   0.979   4.879
 5533SOL    HW217052   4.983   1.100   4.906
 5534SOL     OW17053   5.043   0.860   4.040
 5534SOL    HW117054   4.961   0.829   4.080
 5534SOL    HW217055   5.028   0.853   3.946
 5535SOL     OW17056   4.957   1.731   4.841
 5535SOL    HW117057   5.043   1.757   4.808
 5535SOL    HW217058   4.963   1.636   4.853
 5536SOL     OW17059   3.811   1.265   4.734
 5536SOL    HW117060   3.793   1.280   4.827
 5536SOL    HW217061   3.739   1.210   4.704
 5537SOL     OW17062   4.403   1.670   5.463
 5537SOL    HW117063   4.346   1.746   5.451
 5537SOL    HW217064   4.476   1.685   5.403
 5538SOL     OW17065   5.112   1.572   4.213
 5538SOL    HW117066   5.180   1.617   4.163
 5538SOL    HW217067   5.056   1.643   4.246
 5539SOL     OW17068   3.863   1.797   5.567
 5539SOL    HW117069   3.814   1.729   5.613
 5539SOL    HW217070   3.911   1.843   5.636
 5540SOL     OW17071   5.020   0.922   4.391
 5540SOL    HW117072   5.100   0.869   4.383
 5540SOL    HW217073   5.040   1.003   4.345
 5541SOL     OW17074   4.527   1.277   5.148
 5541SOL    HW117075   4.499   1.317   5.230
 5541SOL    HW217076   4.457   1.297   5.087
 5542SOL     OW17077   4.392   1.626   3.880
 5542SOL    HW117078   4.405   1.640   3.786
 5542SOL    HW217079   4.336   1.548   3.884
 5543SOL     OW17080   3.979   0.329   4.440
 5543SOL    HW117081   3.891   0.361   4.419
 5543SOL    HW217082   3.980   0.320   4.535
 5544SOL     OW17083   4.904   1.607   3.769
 5544SOL    HW117084   4.915   1.512   3.779
 5544SOL    HW217085   4.846   1.616   3.693
 5545SOL     OW17086   4.547   1.007   5.100
 5545SOL    HW117087   4.589   0.999   5.015
 5545SOL    HW217088   4.543   1.101   5.116
 5546SOL     OW17089   4.642   0.913   4.015
 5546SOL    HW117090   4.704   0.944   3.949
 5546SOL    HW217091   4.689   0.843   4.060
 5547SOL     OW17092   4.091   1.306   5.217
 5547SOL    HW117093   4.079   1.381   5.159
 5547SOL    HW217094   4.015   1.251   5.201
 5548SOL     OW17095   4.785   1.110   4.434
 5548SOL    HW117096   4.712   1.061   4.473
 5548SOL    HW217097   4.843   1.042   4.400
 5549SOL     OW17098   4.732   0.245   4.700
 5549SOL    HW117099   4.714   0.200   4.617
 5549SOL    HW217100   4.728   0.176   4.766
 5550SOL     OW17101   4.329   1.488   4.205
 5550SOL    HW117102   4.378   1.438   4.140
 5550SOL    HW217103   4.254   1.524   4.156
 5551SOL     OW17104   3.987   1.342   4.017
 5551SOL    HW117105   3.894   1.338   3.992
 5551SOL    HW217106   3.987   1.382   4.104
 5552SOL     OW17107   3.839   1.034   5.449
 5552SOL    HW117108   3.762   1.006   5.500
 5552SOL    HW217109   3.912   0.990   5.491
 5553SOL     OW17110   4.398   0.220   5.221
 5553SOL    HW117111   4.478   0.198   5.174
 5553SOL    HW217112   4.428   0.265   5.300
 5554SOL     OW17113   3.803   0.335   3.767
 5554SOL    HW117114   3.719   0.301   3.735
 5554SOL    HW217115   3.821   0.410   3.711
 5555SOL     OW17116   5.166   0.859   5.125
 5555SOL    HW117117   5.114   0.917   5.070
 5555SOL    HW217118   5.255   0.866   5.090
 5556SOL     OW17119   3.793   0.167   4.034
 5556SOL    HW117120   3.798   0.249   3.985
 5556SOL    HW217121   3.877   0.124   4.018
 5557SOL     OW17122   4.901   1.326   3.837
 5557SOL    HW117123   4.808   1.307   3.838
 5557SOL    HW217124   4.925   1.333   3.930
 5558SOL     OW17125   4.344   0.831   5.159
 5558SOL    HW117126   4.401   0.906   5.145
 5558SOL    HW217127   4.404   0.756   5.165
 5559SOL     OW17128   4.440   0.569   5.423
 5559SOL    HW117129   4.484   0.630   5.482
 5559SOL    HW217130   4.463   0.482   5.456
 5560SOL     OW17131   5.176   1.199   5.354
 5560SOL    HW117132   5.167   1.214   5.448
 5560SOL    HW217133   5.269   1.216   5.337
 5561SOL     OW17134   4.095   1.741   5.291
 5561SOL    HW117135   4.012   1.787   5.275
 5561SOL    HW217136   4.069   1.658   5.331
 5562SOL     OW17137   4.935   0.325   4.182
 5562SOL    HW117138   4.988   0.245   4.176
 5562SOL    HW217139   4.968   0.369   4.260
 5563SOL     OW17140   4.311   0.734   4.397
 5563SOL    HW117141   4.351   0.820   4.382
 5563SOL    HW217142   4.246   0.725   4.327
 5564SOL     OW17143   4.595   1.364   3.769
 5564SOL    HW117144   4.552   1.393   3.850
 5564SOL    HW217145   4.605   1.444   3.717
 5565SOL     OW17146   4.387   1.784   4.662
 5565SOL    HW117147   4.369   1.876   4.643
 5565SOL    HW217148   4.483   1.777   4.656
 5566SOL     OW17149   4.594   0.972   4.578
 5566SOL    HW117150   4.643   0.898   4.615
 5566SOL    HW217151   4.554   1.015   4.654
 5567SOL     OW17152   4.809   0.987   3.815
 5567SOL    HW117153   4.784   1.036   3.737
 5567SOL    HW217154   4.882   0.932   3.786
 5568SOL     OW17155   3.949   1.298   5.577
 5568SOL    HW117156   3.889   1.232   5.543
 5568SOL    HW217157   3.923   1.311   5.668
 5569SOL     OW17158   3.813   1.229   4.389
 5569SOL    HW117159   3.824   1.184   4.473
 5569SOL    HW217160   3.879   1.192   4.332
 5570SOL     OW17161   4.409   1.406   5.357
 5570SOL    HW117162   4.329   1.365   5.390
 5570SOL    HW217163   4.406   1.495   5.392
 5571SOL     OW17164   4.155   0.436   4.250
 5571SOL    HW117165   4.188   0.364   4.197
 5571SOL    HW217166   4.104   0.394   4.320
 5572SOL     OW17167   0.091   1.514   4.824
 5572SOL    HW117168   0.023   1.498   4.758
 5572SOL    HW217169   0.084   1.439   4.883
 5573SOL     OW17170   4.058   0.562   5.015
 5573SOL    HW117171   4.111   0.504   5.069
 5573SOL    HW217172   4.075   0.533   4.925
 5574SOL     OW17173   4.556   1.578   4.398
 5574SOL    HW117174   4.536   1.642   4.330
 5574SOL    HW217175   4.480   1.520   4.399
 5575SOL     OW17176   5.141   0.212   4.847
 5575SOL    HW117177   5.151   0.132   4.898
 5575SOL    HW217178   5.096   0.273   4.906
 5576SOL     OW17179   4.720   0.016   4.856
 5576SOL    HW117180   4.668   5.250   4.811
 5576SOL    HW217181   4.806   5.276   4.866
 5577SOL     OW17182   4.497   1.333   4.045
 5577SOL    HW117183   4.469   1.242   4.053
 5577SOL    HW217184   4.579   1.338   4.094
 5578SOL     OW17185   4.343   1.556   5.011
 5578SOL    HW117186   4.343   1.639   5.059
 5578SOL    HW217187   4.431   1.549   4.974
 5579SOL     OW17188   5.033   0.026   3.874
 5579SOL    HW117189   5.118   0.020   3.830
 5579SOL    HW217190   4.986   5.247   3.846
 5580SOL     OW17191   5.026   0.461   4.406
 5580SOL    HW117192   4.971   0.540   4.410
 5580SOL    HW217193   5.011   0.418   4.490
 5581SOL     OW17194   5.292   0.214   4.616
 5581SOL    HW117195   5.236   0.209   4.693
 5581SOL    HW217196   5.262   0.291   4.568
 5582SOL     OW17197   3.767   1.066   4.033
 5582SOL    HW117198   3.860   1.057   4.014
 5582SOL    HW217199   3.738   0.977   4.054
 5583SOL     OW17200   4.603   1.655   4.068
 5583SOL    HW117201   4.530   1.642   4.008
 5583SOL    HW217202   4.577   1.730   4.121
 5584SOL     OW17203   3.945   0.627   5.715
 5584SOL    HW117204   3.857   0.620   5.753
 5584SOL    HW217205   3.934   0.603   5.623
 5585SOL     OW17206   3.938   0.288   6.581
 5585SOL    HW117207   3.967   0.250   6.663
 5585SOL    HW217208   3.857   0.241   6.560
 5586SOL     OW17209   3.722   0.393   6.223
 5586SOL    HW117210   3.638   0.413   6.264
 5586SOL    HW217211   3.704   0.317   6.167
 5587SOL     OW17212   4.292   1.297   6.770
 5587SOL    HW117213   4.207   1.302   6.728
 5587SOL    HW217214   4.309   1.386   6.801
 5588SOL     OW17215   5.294   1.529   6.289
 5588SOL    HW117216   5.251   1.495   6.368
 5588SOL    HW217217   5.225   1.531   6.223
 5589SOL     OW17218   4.865   0.698   6.282
 5589SOL    HW117219   4.914   0.780   6.272
 5589SOL    HW217220   4.814   0.710   6.362
 5590SOL     OW17221   4.470   1.138   6.634
 5590SOL    HW117222   4.404   1.175   6.692
 5590SOL    HW217223   4.508   1.213   6.589
 5591SOL     OW17224   4.596   0.768   7.407
 5591SOL    HW117225   4.573   0.841   7.464
 5591SOL    HW217226   4.621   0.809   7.324
 5592SOL     OW17227   4.410   0.997   6.230
 5592SOL    HW117228   4.476   0.990   6.299
 5592SOL    HW217229   4.341   1.052   6.268
 5593SOL     OW17230   4.439   1.151   7.405
 5593SOL    HW117231   4.487   1.229   7.435
 5593SOL    HW217232   4.360   1.187   7.364
 5594SOL     OW17233   4.055   1.417   6.653
 5594SOL    HW117234   3.981   1.378   6.607
 5594SOL    HW217235   4.100   1.469   6.586
 5595SOL     OW17236   5.158   1.481   6.949
 5595SOL    HW117237   5.220   1.550   6.971
 5595SOL    HW217238   5.089   1.488   7.015
 5596SOL     OW17239   4.172   0.395   7.062
 5596SOL    HW117240   4.248   0.338   7.069
 5596SOL    HW217241   4.097   0.339   7.082
 5597SOL     OW17242   3.943   1.716   6.054
 5597SOL    HW117243   3.965   1.791   6.110
 5597SOL    HW217244   4.018   1.708   5.995
 5598SOL     OW17245   4.856   1.340   7.277
 5598SOL    HW117246   4.895   1.338   7.365
 5598SOL    HW217247   4.807   1.259   7.270
 5599SOL     OW17248   3.957   1.445   6.122
 5599SOL    HW117249   3.937   1.539   6.124
 5599SOL    HW217250   3.899   1.407   6.188
 5600SOL     OW17251   3.991   1.091   6.478
 5600SOL    HW117252   3.986   1.003   6.515
 5600SOL    HW217253   3.932   1.143   6.532
 5601SOL     OW17254   4.323   1.795   7.008
 5601SOL    HW117255   4.244   1.776   7.059
 5601SOL    HW217256   4.350   1.882   7.037
 5602SOL     OW17257   4.302   0.985   5.726
 5602SOL    HW117258   4.351   1.030   5.657
 5602SOL    HW217259   4.341   1.016   5.807
 5603SOL     OW17260   5.253   0.136   7.069
 5603SOL    HW117261   0.008   0.213   7.056
 5603SOL    HW217262   5.260   0.117   7.163
 5604SOL     OW17263   3.842   0.657   6.147
 5604SOL    HW117264   3.812   0.568   6.168
 5604SOL    HW217265   3.834   0.705   6.229
 5605SOL     OW17266   3.763   1.590   5.707
 5605SOL    HW117267   3.744   1.499   5.727
 5605SOL    HW217268   3.737   1.638   5.786
 5606SOL     OW17269   0.115   0.935   6.162
 5606SOL    HW117270   0.208   0.914   6.153
 5606SOL    HW217271   0.113   1.031   6.160
 5607SOL     OW17272   3.848   0.746   7.169
 5607SOL    HW117273   3.938   0.777   7.171
 5607SOL    HW217274   3.794   0.825   7.172
 5608SOL     OW17275   4.340   1.391   6.321
 5608SOL    HW117276   4.295   1.306   6.329
 5608SOL    HW217277   4.323   1.418   6.231
 5609SOL     OW17278   4.995   1.229   7.008
 5609SOL    HW117279   5.030   1.163   6.948
 5609SOL    HW217280   5.053   1.226   7.084
 5610SOL     OW17281   4.541   0.037   6.123
 5610SOL    HW117282   4.569   0.124   6.093
 5610SOL    HW217283   4.446   0.038   6.113
 5611SOL     OW17284   3.912   0.961   6.865
 5611SOL    HW117285   3.998   0.922   6.850
 5611SOL    HW217286   3.853   0.914   6.806
 5612SOL     OW17287   4.892   1.812   7.212
 5612SOL    HW117288   4.909   1.873   7.141
 5612SOL    HW217289   4.919   1.727   7.178
 5613SOL     OW17290   4.058   0.271   7.419
 5613SOL    HW117291   4.106   0.346   7.453
 5613SOL    HW217292   3.968   0.285   7.448
 5614SOL     OW17293   5.164   1.440   6.514
 5614SOL    HW117294   5.105   1.447   6.590
 5614SOL    HW217295   5.158   1.348   6.488
 5615SOL     OW17296   4.316   0.717   5.856
 5615SOL    HW117297   4.318   0.801   5.810
 5615SOL    HW217298   4.250   0.728   5.925
 5616SOL     OW17299   4.992   0.326   6.501
 5616SOL    HW117300   4.901   0.305   6.525
 5616SOL    HW217301   5.044   0.296   6.575
 5617SOL     OW17302   4.516   0.619   7.031
 5617SOL    HW117303   4.489   0.595   7.120
 5617SOL    HW217304   4.481   0.549   6.976
 5618SOL     OW17305   5.116   0.495   7.269
 5618SOL    HW117306   5.121   0.524   7.360
 5618SOL    HW217307   5.186   0.430   7.260
 5619SOL     OW17308   4.674   0.886   7.171
 5619SOL    HW117309   4.727   0.817   7.132
 5619SOL    HW217310   4.625   0.923   7.097
 5620SOL     OW17311   4.719   0.422   6.809
 5620SOL    HW117312   4.630   0.432   6.843
 5620SOL    HW217313   4.708   0.369   6.730
 5621SOL     OW17314   4.777   0.699   6.011
 5621SOL    HW117315   4.796   0.692   6.104
 5621SOL    HW217316   4.693   0.655   6.000
 5622SOL     OW17317   3.812   0.822   6.364
 5622SOL    HW117318   3.892   0.815   6.416
 5622SOL    HW217319   3.768   0.899   6.400
 5623SOL     OW17320   3.848   1.870   7.171
 5623SOL    HW117321   3.852   1.846   7.263
 5623SOL    HW217322   3.763   1.836   7.141
 5624SOL     OW17323   4.611   0.367   5.780
 5624SOL    HW117324   4.638   0.422   5.706
 5624SOL    HW217325   4.666   0.289   5.774
 5625SOL     OW17326   5.099   1.155   6.140
 5625SOL    HW117327   5.189   1.167   6.110
 5625SOL    HW217328   5.047   1.208   6.081
 5626SOL     OW17329   4.238   0.205   6.464
 5626SOL    HW117330   4.261   0.217   6.556
 5626SOL    HW217331   4.262   0.287   6.421
 5627SOL     OW17332   4.724   1.442   6.055
 5627SOL    HW117333   4.690   1.516   6.005
 5627SOL    HW217334   4.701   1.461   6.145
 5628SOL     OW17335   4.078   1.814   6.456
 5628SOL    HW117336   4.122   1.729   6.462
 5628SOL    HW217337   4.146   1.878   6.475
 5629SOL     OW17338   4.936   1.538   7.101
 5629SOL    HW117339   4.925   1.467   7.164
 5629SOL    HW217340   4.867   1.524   7.036
 5630SOL     OW17341   4.037   0.960   5.840
 5630SOL    HW117342   4.120   0.979   5.795
 5630SOL    HW217343   4.008   0.876   5.803
 5631SOL     OW17344   4.193   1.266   7.324
 5631SOL    HW117345   4.167   1.271   7.232
 5631SOL    HW217346   4.110   1.263   7.372
 5632SOL     OW17347   4.829   1.774   5.825
 5632SOL    HW117348   4.754   1.732   5.868
 5632SOL    HW217349   4.854   1.714   5.756
 5633SOL     OW17350   3.922   0.277   7.095
 5633SOL    HW117351   3.843   0.331   7.097
 5633SOL    HW217352   3.916   0.222   7.173
 5634SOL     OW17353   4.187   1.736   5.905
 5634SOL    HW117354   4.232   1.792   5.968
 5634SOL    HW217355   4.256   1.702   5.849
 5635SOL     OW17356   5.086   0.095   5.999
 5635SOL    HW117357   5.077   0.078   5.906
 5635SOL    HW217358   5.179   0.115   6.011
 5636SOL     OW17359   3.980   1.790   6.814
 5636SOL    HW117360   4.030   1.720   6.856
 5636SOL    HW217361   3.972   1.763   6.723
 5637SOL     OW17362   4.664   1.699   6.481
 5637SOL    HW117363   4.745   1.652   6.499
 5637SOL    HW217364   4.622   1.648   6.412
 5638SOL     OW17365   4.120   0.696   6.058
 5638SOL    HW117366   4.138   0.603   6.072
 5638SOL    HW217367   4.026   0.705   6.076
 5639SOL     OW17368   4.348   0.135   5.692
 5639SOL    HW117369   4.411   0.067   5.717
 5639SOL    HW217370   4.296   0.095   5.622
 5640SOL     OW17371   4.508   0.305   7.349
 5640SOL    HW117372   4.584   0.248   7.350
 5640SOL    HW217373   4.465   0.289   7.433
 5641SOL     OW17374   4.598   1.524   6.780
 5641SOL    HW117375   4.581   1.486   6.693
 5641SOL    HW217376   4.667   1.470   6.817
 5642SOL     OW17377   5.060   0.596   7.017
 5642SOL    HW117378   5.087   0.569   7.105
 5642SOL    HW217379   5.100   0.681   7.004
 5643SOL     OW17380   4.541   1.389   6.532
 5643SOL    HW117381   4.626   1.377   6.490
 5643SOL    HW217382   4.479   1.396   6.460
 5644SOL     OW17383   4.652   0.512   6.487
 5644SOL    HW117384   4.627   0.503   6.395
 5644SOL    HW217385   4.678   0.424   6.514
 5645SOL     OW17386   4.271   0.061   6.091
 5645SOL    HW117387   4.187   0.056   6.137
 5645SOL    HW217388   4.258   0.129   6.025
 5646SOL     OW17389   5.130   1.184   5.630
 5646SOL    HW117390   5.130   1.102   5.679
 5646SOL    HW217391   5.045   1.224   5.650
 5647SOL     OW17392   4.026   0.068   5.781
 5647SOL    HW117393   4.083   0.141   5.759
 5647SOL    HW217394   4.081   5.290   5.773
 5648SOL     OW17395   4.661   0.272   6.046
 5648SOL    HW117396   4.632   0.303   5.961
 5648SOL    HW217397   4.756   0.287   6.047
 5649SOL     OW17398   4.801   0.685   7.043
 5649SOL    HW117399   4.735   0.616   7.043
 5649SOL    HW217400   4.884   0.638   7.034
 5650SOL     OW17401   4.936   1.571   6.379
 5650SOL    HW117402   4.956   1.640   6.316
 5650SOL    HW217403   5.019   1.553   6.422
 5651SOL     OW17404   4.197   1.153   6.312
 5651SOL    HW117405   4.130   1.132   6.378
 5651SOL    HW217406   4.152   1.140   6.228
 5652SOL     OW17407   4.990   1.794   6.195
 5652SOL    HW117408   5.031   1.855   6.133
 5652SOL    HW217409   4.921   1.846   6.237
 5653SOL     OW17410   4.750   0.544   5.608
 5653SOL    HW117411   4.704   0.626   5.592
 5653SOL    HW217412   4.803   0.561   5.686
 5654SOL     OW17413   3.808   0.551   6.980
 5654SOL    HW117414   3.900   0.553   6.952
 5654SOL    HW217415   3.801   0.622   7.044
 5655SOL     OW17416   4.274   0.238   6.744
 5655SOL    HW117417   4.310   0.156   6.778
 5655SOL    HW217418   4.183   0.238   6.773
 5656SOL     OW17419   4.589   0.469   6.227
 5656SOL    HW117420   4.541   0.523   6.164
 5656SOL    HW217421   4.611   0.389   6.178
 5657SOL     OW17422   4.700   0.064   6.354
 5657SOL    HW117423   4.637   0.062   6.282
 5657SOL    HW217424   4.714   5.271   6.376
 5658SOL     OW17425   5.153   1.178   6.436
 5658SOL    HW117426   5.100   1.100   6.455
 5658SOL    HW217427   5.162   1.179   6.341
 5659SOL     OW17428   4.213   1.421   5.737
 5659SOL    HW117429   4.137   1.393   5.788
 5659SOL    HW217430   4.207   1.371   5.656
 5660SOL     OW17431   5.131   0.553   5.675
 5660SOL    HW117432   5.050   0.545   5.725
 5660SOL    HW217433   5.200   0.535   5.738
 5661SOL     OW17434   4.244   0.266   5.904
 5661SOL    HW117435   4.292   0.219   5.837
 5661SOL    HW217436   4.220   0.350   5.863
 5662SOL     OW17437   4.773   1.356   6.918
 5662SOL    HW117438   4.698   1.323   6.967
 5662SOL    HW217439   4.848   1.312   6.958
 5663SOL     OW17440   0.008   1.610   7.197
 5663SOL    HW117441   0.044   1.609   7.108
 5663SOL    HW217442   0.082   1.586   7.253
 5664SOL     OW17443   4.861   1.211   6.690
 5664SOL    HW117444   4.795   1.243   6.752
 5664SOL    HW217445   4.829   1.241   6.604
 5665SOL     OW17446   4.619   0.108   6.961
 5665SOL    HW117447   4.654   0.073   6.880
 5665SOL    HW217448   4.694   0.151   7.003
 5666SOL     OW17449   4.710   1.109   7.318
 5666SOL    HW117450   4.619   1.129   7.338
 5666SOL    HW217451   4.706   1.034   7.259
 5667SOL     OW17452   4.434   1.063   5.957
 5667SOL    HW117453   4.419   1.042   6.049
 5667SOL    HW217454   4.510   1.010   5.932
 5668SOL     OW17455   4.146   0.820   6.838
 5668SOL    HW117456   4.214   0.828   6.905
 5668SOL    HW217457   4.111   0.731   6.850
 5669SOL     OW17458   4.988   0.382   6.859
 5669SOL    HW117459   5.022   0.461   6.902
 5669SOL    HW217460   4.898   0.405   6.836
 5670SOL     OW17461   3.799   1.574   6.943
 5670SOL    HW117462   3.771   1.645   6.886
 5670SOL    HW217463   3.894   1.572   6.935
 5671SOL     OW17464   4.061   1.118   6.075
 5671SOL    HW117465   4.065   1.191   6.013
 5671SOL    HW217466   4.059   1.040   6.019
 5672SOL     OW17467   4.273   0.531   6.446
 5672SOL    HW117468   4.287   0.590   6.371
 5672SOL    HW217469   4.340   0.557   6.509
 5673SOL     OW17470   4.971   1.352   5.972
 5673SOL    HW117471   5.025   1.424   6.004
 5673SOL    HW217472   4.883   1.372   6.006
 5674SOL     OW17473   5.003   1.458   6.728
 5674SOL    HW117474   5.054   1.459   6.809
 5674SOL    HW217475   4.948   1.380   6.735
 5675SOL     OW17476   4.069   1.530   6.896
 5675SOL    HW117477   4.058   1.485   6.812
 5675SOL    HW217478   4.164   1.541   6.905
 5676SOL     OW17479   4.143   0.745   7.190
 5676SOL    HW117480   4.204   0.788   7.132
 5676SOL    HW217481   4.183   0.659   7.208
 5677SOL     OW17482   4.745   0.131   7.316
 5677SOL    HW117483   4.797   0.211   7.315
 5677SOL    HW217484   4.802   0.066   7.274
 5678SOL     OW17485   4.199   0.063   7.318
 5678SOL    HW117486   4.131   5.300   7.295
 5678SOL    HW217487   4.151   0.141   7.346
 5679SOL     OW17488   4.309   0.874   6.618
 5679SOL    HW117489   4.342   0.964   6.621
 5679SOL    HW217490   4.252   0.867   6.694
 5680SOL     OW17491   5.086   0.854   6.618
 5680SOL    HW117492   5.009   0.825   6.570
 5680SOL    HW217493   5.149   0.783   6.608
 5681SOL     OW17494   4.920   0.530   5.846
 5681SOL    HW117495   4.925   0.450   5.899
 5681SOL    HW217496   4.878   0.594   5.904
 5682SOL     OW17497   4.015   0.201   6.836
 5682SOL    HW117498   3.976   0.239   6.914
 5682SOL    HW217499   4.021   0.107   6.856
 5683SOL     OW17500   3.771   1.312   6.859
 5683SOL    HW117501   3.802   1.256   6.931
 5683SOL    HW217502   3.776   1.401   6.895
 5684SOL     OW17503   4.446   0.631   6.640
 5684SOL    HW117504   4.522   0.617   6.584
 5684SOL    HW217505   4.417   0.719   6.620
 5685SOL     OW17506   4.045   0.069   6.256
 5685SOL    HW117507   4.010   0.158   6.252
 5685SOL    HW217508   4.104   0.070   6.332
 5686SOL     OW17509   0.030   0.423   5.947
 5686SOL    HW117510   0.046   0.355   6.012
 5686SOL    HW217511   0.028   0.504   5.998
 5687SOL     OW17512   4.752   0.759   6.542
 5687SOL    HW117513   4.746   0.776   6.636
 5687SOL    HW217514   4.725   0.668   6.532
 5688SOL     OW17515   4.695   1.561   7.303
 5688SOL    HW117516   4.683   1.608   7.220
 5688SOL    HW217517   4.742   1.481   7.279
 5689SOL     OW17518   4.077   0.915   7.396
 5689SOL    HW117519   4.159   0.935   7.441
 5689SOL    HW217520   4.101   0.852   7.328
 5690SOL     OW17521   5.030   0.828   5.623
 5690SOL    HW117522   5.064   0.738   5.625
 5690SOL    HW217523   5.058   0.862   5.538
 5691SOL     OW17524   4.791   1.336   6.444
 5691SOL    HW117525   4.797   1.265   6.381
 5691SOL    HW217526   4.844   1.406   6.407
 5692SOL     OW17527   4.032   0.809   6.532
 5692SOL    HW117528   4.126   0.828   6.525
 5692SOL    HW217529   4.029   0.718   6.562
 5693SOL     OW17530   4.052   0.530   6.599
 5693SOL    HW117531   4.015   0.443   6.586
 5693SOL    HW217532   4.129   0.532   6.542
 5694SOL     OW17533   4.863   0.380   7.278
 5694SOL    HW117534   4.813   0.433   7.340
 5694SOL    HW217535   4.947   0.425   7.270
 5695SOL     OW17536   4.842   0.234   7.043
 5695SOL    HW117537   4.850   0.283   7.124
 5695SOL    HW217538   4.905   0.274   6.983
 5696SOL     OW17539   3.732   1.317   5.780
 5696SOL    HW117540   3.644   1.333   5.744
 5696SOL    HW217541   3.727   1.228   5.815
 5697SOL     OW17542   3.814   1.782   6.527
 5697SOL    HW117543   3.784   1.704   6.480
 5697SOL    HW217544   3.903   1.796   6.496
 5698SOL     OW17545   4.216   1.575   6.490
 5698SOL    HW117546   4.285   1.637   6.514
 5698SOL    HW217547   4.259   1.512   6.432
 5699SOL     OW17548   4.696   0.790   6.809
 5699SOL    HW117549   4.755   0.770   6.882
 5699SOL    HW217550   4.614   0.746   6.831
 5700SOL     OW17551   3.759   0.548   6.703
 5700SOL    HW117552   3.838   0.535   6.650
 5700SOL    HW217553   3.792   0.549   6.794
 5701SOL     OW17554   3.908   0.526   7.318
 5701SOL    HW117555   3.974   0.487   7.260
 5701SOL    HW217556   3.875   0.602   7.270
 5702SOL     OW17557   5.118   0.931   7.254
 5702SOL    HW117558   5.124   1.025   7.240
 5702SOL    HW217559   5.122   0.893   7.166
 5703SOL     OW17560   4.539   0.577   5.953
 5703SOL    HW117561   4.546   0.502   5.893
 5703SOL    HW217562   4.463   0.626   5.922
 5704SOL     OW17563   3.961   1.549   7.309
 5704SOL    HW117564   3.941   1.614   7.376
 5704SOL    HW217565   3.970   1.467   7.357
 5705SOL     OW17566   4.435   0.446   6.839
 5705SOL    HW117567   4.378   0.375   6.811
 5705SOL    HW217568   4.429   0.511   6.768
 5706SOL     OW17569   4.640   1.678   7.056
 5706SOL    HW117570   4.617   1.642   6.970
 5706SOL    HW217571   4.639   1.773   7.043
 5707SOL     OW17572   4.180   0.492   5.761
 5707SOL    HW117573   4.242   0.560   5.787
 5707SOL    HW217574   4.096   0.537   5.755
 5708SOL     OW17575   3.865   1.143   7.060
 5708SOL    HW117576   3.867   1.095   7.144
 5708SOL    HW217577   3.882   1.076   6.994
 5709SOL     OW17578   5.050   1.044   6.807
 5709SOL    HW117579   5.069   0.978   6.741
 5709SOL    HW217580   4.983   1.100   6.767
 5710SOL     OW17581   5.042   0.860   5.902
 5710SOL    HW117582   4.961   0.829   5.942
 5710SOL    HW217583   5.027   0.853   5.808
 5711SOL     OW17584   4.957   1.731   6.703
 5711SOL    HW117585   5.043   1.756   6.670
 5711SOL    HW217586   4.963   1.636   6.715
 5712SOL     OW17587   3.811   1.265   6.596
 5712SOL    HW117588   3.794   1.280   6.689
 5712SOL    HW217589   3.739   1.210   6.566
 5713SOL     OW17590   4.402   1.668   7.323
 5713SOL    HW117591   4.347   1.747   7.315
 5713SOL    HW217592   4.476   1.685   7.265
 5714SOL     OW17593   5.112   1.572   6.075
 5714SOL    HW117594   5.181   1.617   6.025
 5714SOL    HW217595   5.056   1.643   6.108
 5715SOL     OW17596   3.864   1.794   7.430
 5715SOL    HW117597   3.813   1.729   7.478
 5715SOL    HW217598   3.911   1.842   7.498
 5716SOL     OW17599   5.020   0.922   6.253
 5716SOL    HW117600   5.099   0.869   6.245
 5716SOL    HW217601   5.040   1.003   6.207
 5717SOL     OW17602   4.527   1.276   7.010
 5717SOL    HW117603   4.499   1.317   7.092
 5717SOL    HW217604   4.457   1.297   6.949
 5718SOL     OW17605   4.391   1.626   5.742
 5718SOL    HW117606   4.405   1.640   5.648
 5718SOL    HW217607   4.336   1.548   5.746
 5719SOL     OW17608   3.979   0.329   6.301
 5719SOL    HW117609   3.891   0.361   6.281
 5719SOL    HW217610   3.980   0.320   6.397
 5720SOL     OW17611   4.904   1.607   5.631
 5720SOL    HW117612   4.915   1.512   5.641
 5720SOL    HW217613   4.846   1.616   5.555
 5721SOL     OW17614   4.546   1.007   6.962
 5721SOL    HW117615   4.589   0.999   6.877
 5721SOL    HW217616   4.543   1.102   6.978
 5722SOL     OW17617   4.642   0.913   5.877
 5722SOL    HW117618   4.704   0.944   5.811
 5722SOL    HW217619   4.689   0.843   5.922
 5723SOL     OW17620   4.091   1.305   7.079
 5723SOL    HW117621   4.078   1.381   7.021
 5723SOL    HW217622   4.014   1.250   7.063
 5724SOL     OW17623   4.785   1.109   6.296
 5724SOL    HW117624   4.712   1.061   6.335
 5724SOL    HW217625   4.844   1.042   6.262
 5725SOL     OW17626   4.732   0.245   6.561
 5725SOL    HW117627   4.714   0.200   6.479
 5725SOL    HW217628   4.728   0.176   6.628
 5726SOL     OW17629   4.329   1.488   6.067
 5726SOL    HW117630   4.379   1.438   6.002
 5726SOL    HW217631   4.254   1.523   6.018
 5727SOL     OW17632   3.987   1.342   5.879
 5727SOL    HW117633   3.894   1.338   5.854
 5727SOL    HW217634   3.987   1.382   5.966
 5728SOL     OW17635   3.839   1.033   7.311
 5728SOL    HW117636   3.762   1.006   7.361
 5728SOL    HW217637   3.912   0.988   7.354
 5729SOL     OW17638   4.398   0.220   7.084
 5729SOL    HW117639   4.478   0.197   7.037
 5729SOL    HW217640   4.428   0.263   7.164
 5730SOL     OW17641   3.803   0.335   5.629
 5730SOL    HW117642   3.719   0.301   5.597
 5730SOL    HW217643   3.821   0.410   5.573
 5731SOL     OW17644   5.166   0.859   6.988
 5731SOL    HW117645   5.114   0.917   6.933
 5731SOL    HW217646   5.255   0.867   6.953
 5732SOL     OW17647   3.793   0.167   5.896
 5732SOL    HW117648   3.798   0.249   5.847
 5732SOL    HW217649   3.877   0.124   5.880
 5733SOL     OW17650   4.902   1.326   5.699
 5733SOL    HW117651   4.808   1.307   5.700
 5733SOL    HW217652   4.925   1.333   5.792
 5734SOL     OW17653   4.344   0.831   7.021
 5734SOL    HW117654   4.401   0.907   7.006
 5734SOL    HW217655   4.404   0.757   7.027
 5735SOL     OW17656   4.437   0.569   7.284
 5735SOL    HW117657   4.482   0.629   7.343
 5735SOL    HW217658   4.462   0.482   7.316
 5736SOL     OW17659   5.176   1.198   7.215
 5736SOL    HW117660   5.166   1.213   7.309
 5736SOL    HW217661   5.268   1.218   7.198
 5737SOL     OW17662   4.095   1.741   7.152
 5737SOL    HW117663   4.012   1.787   7.137
 5737SOL    HW217664   4.070   1.658   7.192
 5738SOL     OW17665   4.935   0.325   6.044
 5738SOL    HW117666   4.988   0.245   6.038
 5738SOL    HW217667   4.968   0.369   6.122
 5739SOL     OW17668   4.311   0.734   6.259
 5739SOL    HW117669   4.351   0.820   6.244
 5739SOL    HW217670   4.246   0.725   6.189
 5740SOL     OW17671   4.595   1.364   5.631
 5740SOL    HW117672   4.552   1.394   5.711
 5740SOL    HW217673   4.605   1.444   5.579
 5741SOL     OW17674   4.387   1.784   6.523
 5741SOL    HW117675   4.369   1.876   6.505
 5741SOL    HW217676   4.482   1.777   6.518
 5742SOL     OW17677   4.594   0.972   6.440
 5742SOL    HW117678   4.643   0.898   6.477
 5742SOL    HW217679   4.554   1.014   6.516
 5743SOL     OW17680   4.809   0.987   5.677
 5743SOL    HW117681   4.784   1.036   5.599
 5743SOL    HW217682   4.882   0.932   5.648
 5744SOL     OW17683   3.948   1.298   7.440
 5744SOL    HW117684   3.890   1.232   7.402
 5744SOL    HW217685   3.913   1.314   7.528
 5745SOL     OW17686   3.813   1.230   6.251
 5745SOL    HW117687   3.824   1.184   6.335
 5745SOL    HW217688   3.880   1.191   6.194
 5746SOL     OW17689   4.408   1.406   7.219
 5746SOL    HW117690   4.328   1.365   7.252
 5746SOL    HW217691   4.406   1.495   7.254
 5747SOL     OW17692   4.155   0.436   6.112
 5747SOL    HW117693   4.188   0.364   6.059
 5747SOL    HW217694   4.104   0.394   6.181
 5748SOL     OW17695   0.091   1.513   6.685
 5748SOL    HW117696   0.023   1.498   6.620
 5748SOL    HW217697   0.084   1.439   6.745
 5749SOL     OW17698   4.058   0.562   6.877
 5749SOL    HW117699   4.112   0.504   6.932
 5749SOL    HW217700   4.075   0.533   6.787
 5750SOL     OW17701   4.556   1.578   6.260
 5750SOL    HW117702   4.536   1.642   6.192
 5750SOL    HW217703   4.480   1.519   6.261
 5751SOL     OW17704   5.141   0.212   6.709
 5751SOL    HW117705   5.151   0.132   6.760
 5751SOL    HW217706   5.096   0.273   6.768
 5752SOL     OW17707   4.720   0.016   6.717
 5752SOL    HW117708   4.668   5.250   6.673
 5752SOL    HW217709   4.806   5.276   6.728
 5753SOL     OW17710   4.497   1.333   5.907
 5753SOL    HW117711   4.469   1.242   5.915
 5753SOL    HW217712   4.579   1.338   5.956
 5754SOL     OW17713   4.343   1.556   6.873
 5754SOL    HW117714   4.343   1.639   6.920
 5754SOL    HW217715   4.431   1.549   6.836
 5755SOL     OW17716   5.033   0.026   5.736
 5755SOL    HW117717   5.118   0.020   5.692
 5755SOL    HW217718   4.986   5.247   5.708
 5756SOL     OW17719   5.025   0.461   6.268
 5756SOL    HW117720   4.971   0.540   6.272
 5756SOL    HW217721   5.011   0.418   6.352
 5757SOL     OW17722   5.292   0.214   6.478
 5757SOL    HW117723   5.235   0.209   6.555
 5757SOL    HW217724   5.262   0.290   6.430
 5758SOL     OW17725   3.767   1.066   5.895
 5758SOL    HW117726   3.860   1.057   5.876
 5758SOL    HW217727   3.738   0.977   5.916
 5759SOL     OW17728   4.603   1.655   5.931
 5759SOL    HW117729   4.530   1.642   5.870
 5759SOL    HW217730   4.577   1.730   5.983
 5760SOL     OW17731   3.944   0.624   7.577
 5760SOL    HW117732   3.855   0.629   7.612
 5760SOL    HW217733   3.933   0.602   7.485
 5761SOL     OW17734   3.945   1.715   7.919
 5761SOL    HW117735   3.971   1.750   8.004
 5761SOL    HW217736   4.025   1.717   7.867
 5762SOL     OW17737   3.936   1.440   7.996
 5762SOL    HW117738   3.923   1.535   7.986
 5762SOL    HW217739   3.878   1.415   8.067
 5763SOL     OW17740   4.304   0.985   7.582
 5763SOL    HW117741   4.351   1.032   7.513
 5763SOL    HW217742   4.344   1.017   7.663
 5764SOL     OW17743   3.758   1.597   7.577
 5764SOL    HW117744   3.742   1.504   7.593
 5764SOL    HW217745   3.731   1.640   7.658
 5765SOL     OW17746   0.114   0.928   8.010
 5765SOL    HW117747   0.210   0.933   8.016
 5765SOL    HW217748   0.086   1.020   8.006
 5766SOL     OW17749   4.535   5.276   7.942
 5766SOL    HW117750   4.582   0.058   7.928
 5766SOL    HW217751   4.442   0.001   7.942
 5767SOL     OW17752   4.312   0.723   7.709
 5767SOL    HW117753   4.309   0.808   7.665
 5767SOL    HW217754   4.254   0.733   7.784
 5768SOL     OW17755   3.780   0.865   0.082
 5768SOL    HW117756   3.841   0.794   0.102
 5768SOL    HW217757   3.792   0.927   0.153
 5769SOL     OW17758   4.603   0.369   7.636
 5769SOL    HW117759   4.634   0.422   7.563
 5769SOL    HW217760   4.662   0.294   7.637
 5770SOL     OW17761   4.043   0.958   7.699
 5770SOL    HW117762   4.121   0.973   7.647
 5770SOL    HW217763   4.003   0.879   7.662
 5771SOL     OW17764   4.836   1.774   7.689
 5771SOL    HW117765   4.759   1.733   7.729
 5771SOL    HW217766   4.861   1.714   7.618
 5772SOL     OW17767   4.189   1.741   7.771
 5772SOL    HW117768   4.241   1.790   7.834
 5772SOL    HW217769   4.253   1.700   7.713
 5773SOL     OW17770   5.107   0.114   7.865
 5773SOL    HW117771   5.079   0.086   7.778
 5773SOL    HW217772   5.202   0.104   7.865
 5774SOL     OW17773   4.120   0.696   7.919
 5774SOL    HW117774   4.114   0.602   7.932
 5774SOL    HW217775   4.030   0.727   7.924
 5775SOL     OW17776   4.343   0.135   7.560
 5775SOL    HW117777   4.416   0.076   7.577
 5775SOL    HW217778   4.293   0.092   7.490
 5776SOL     OW17779   4.277   0.066   7.949
 5776SOL    HW117780   4.186   0.045   7.968
 5776SOL    HW217781   4.272   0.140   7.888
 5777SOL     OW17782   5.130   1.186   7.489
 5777SOL    HW117783   5.136   1.108   7.545
 5777SOL    HW217784   5.044   1.223   7.509
 5778SOL     OW17785   4.030   0.082   7.668
 5778SOL    HW117786   4.074   0.142   7.608
 5778SOL    HW217787   4.077   5.299   7.657
 5779SOL     OW17788   4.670   0.223   7.905
 5779SOL    HW117789   4.616   0.288   7.859
 5779SOL    HW217790   4.753   0.268   7.921
 5780SOL     OW17791   4.153   1.142   0.099
 5780SOL    HW117792   4.088   1.199   0.140
 5780SOL    HW217793   4.127   1.137   0.008
 5781SOL     OW17794   5.016   1.809   8.010
 5781SOL    HW117795   5.055   1.874   7.952
 5781SOL    HW217796   4.930   1.845   8.032
 5782SOL     OW17797   4.751   0.545   7.469
 5782SOL    HW117798   4.702   0.626   7.454
 5782SOL    HW217799   4.797   0.559   7.551
 5783SOL     OW17800   4.207   1.420   7.599
 5783SOL    HW117801   4.134   1.391   7.654
 5783SOL    HW217802   4.199   1.368   7.519
 5784SOL     OW17803   5.130   0.551   7.539
 5784SOL    HW117804   5.048   0.544   7.588
 5784SOL    HW217805   5.198   0.521   7.600
 5785SOL     OW17806   4.250   0.278   7.774
 5785SOL    HW117807   4.290   0.224   7.706
 5785SOL    HW217808   4.224   0.358   7.730
 5786SOL     OW17809   4.441   1.063   7.809
 5786SOL    HW117810   4.407   1.043   7.896
 5786SOL    HW217811   4.519   1.008   7.800
 5787SOL     OW17812   4.087   1.117   7.919
 5787SOL    HW117813   4.063   1.194   7.868
 5787SOL    HW217814   4.074   1.043   7.860
 5788SOL     OW17815   4.956   1.363   7.814
 5788SOL    HW117816   5.014   1.435   7.839
 5788SOL    HW217817   4.915   1.337   7.897
 5789SOL     OW17818   0.028   0.643   7.941
 5789SOL    HW117819   5.263   0.653   8.012
 5789SOL    HW217820   0.046   0.733   7.914
 5790SOL     OW17821   4.919   0.529   7.711
 5790SOL    HW117822   4.921   0.445   7.758
 5790SOL    HW217823   4.884   0.591   7.774
 5791SOL     OW17824   0.025   0.418   7.789
 5791SOL    HW117825   0.034   0.354   7.860
 5791SOL    HW217826   0.025   0.503   7.833
 5792SOL     OW17827   5.042   0.832   7.496
 5792SOL    HW117828   5.068   0.740   7.492
 5792SOL    HW217829   5.065   0.867   7.409
 5793SOL     OW17830   3.734   1.322   7.637
 5793SOL    HW117831   3.646   1.336   7.602
 5793SOL    HW217832   3.732   1.232   7.671
 5794SOL     OW17833   4.576   0.627   7.747
 5794SOL    HW117834   4.573   0.534   7.726
 5794SOL    HW217835   4.484   0.653   7.754
 5795SOL     OW17836   4.178   0.495   7.629
 5795SOL    HW117837   4.240   0.565   7.649
 5795SOL    HW217838   4.094   0.540   7.618
 5796SOL     OW17839   5.026   0.851   7.782
 5796SOL    HW117840   4.935   0.879   7.790
 5796SOL    HW217841   5.042   0.843   7.688
 5797SOL     OW17842   5.110   1.572   7.908
 5797SOL    HW117843   5.200   1.569   7.941
 5797SOL    HW217844   5.078   1.658   7.936
 5798SOL     OW17845   4.385   1.624   7.603
 5798SOL    HW117846   4.400   1.637   7.509
 5798SOL    HW217847   4.331   1.545   7.607
 5799SOL     OW17848   4.907   1.610   7.489
 5799SOL    HW117849   4.917   1.515   7.502
 5799SOL    HW217850   4.846   1.618   7.416
 5800SOL     OW17851   4.655   0.900   7.762
 5800SOL    HW117852   4.704   0.921   7.683
 5800SOL    HW217853   4.636   0.807   7.755
 5801SOL     OW17854   4.336   1.513   7.935
 5801SOL    HW117855   4.385   1.454   7.878
 5801SOL    HW217856   4.255   1.530   7.888
 5802SOL     OW17857   3.986   1.342   7.752
 5802SOL    HW117858   3.895   1.339   7.720
 5802SOL    HW217859   3.979   1.380   7.839
 5803SOL     OW17860   3.798   0.336   7.489
 5803SOL    HW117861   3.716   0.305   7.450
 5803SOL    HW217862   3.822   0.413   7.437
 5804SOL     OW17863   3.784   0.184   7.737
 5804SOL    HW117864   3.783   0.258   7.677
 5804SOL    HW217865   3.867   0.141   7.721
 5805SOL     OW17866   4.897   1.326   7.553
 5805SOL    HW117867   4.802   1.314   7.551
 5805SOL    HW217868   4.918   1.340   7.645
 5806SOL     OW17869   5.281   1.741   0.321
 5806SOL    HW117870   5.282   1.828   0.282
 5806SOL    HW217871   0.061   1.738   0.374
 5807SOL     OW17872   4.935   0.326   7.909
 5807SOL    HW117873   4.999   0.255   7.904
 5807SOL    HW217874   4.943   0.360   7.998
 5808SOL     OW17875   4.365   0.747   8.040
 5808SOL    HW117876   4.359   0.817   0.024
 5808SOL    HW217877   4.275   0.733   8.010
 5809SOL     OW17878   4.596   1.365   7.495
 5809SOL    HW117879   4.553   1.395   7.575
 5809SOL    HW217880   4.607   1.444   7.442
 5810SOL     OW17881   4.802   0.970   7.543
 5810SOL    HW117882   4.779   1.027   7.470
 5810SOL    HW217883   4.881   0.925   7.514
 5811SOL     OW17884   4.113   0.426   7.986
 5811SOL    HW117885   4.167   0.371   7.930
 5811SOL    HW217886   4.159   0.427   8.070
 5812SOL     OW17887   4.488   1.339   7.770
 5812SOL    HW117888   4.462   1.247   7.771
 5812SOL    HW217889   4.568   1.342   7.822
 5813SOL     OW17890   5.033   0.031   7.607
 5813SOL    HW117891   5.114   0.025   7.557
 5813SOL    HW217892   4.986   5.250   7.586
 5814SOL     OW17893   3.779   1.075   7.748
 5814SOL    HW117894   3.874   1.067   7.736
 5814SOL    HW217895   3.749   0.986   7.762
 5815SOL     OW17896   4.610   1.650   7.780
 5815SOL    HW117897   4.533   1.630   7.727
 5815SOL    HW217898   4.579   1.712   7.846
 5816SOL     OW17899   3.933   2.482   0.127
 5816SOL    HW117900   3.854   2.446   0.166
 5816SOL    HW217901   3.954   2.422   0.055
 5817SOL     OW17902   3.948   2.146   0.993
 5817SOL    HW117903   3.977   2.111   1.077
 5817SOL    HW217904   3.859   2.113   0.982
 5818SOL     OW17905   3.723   2.247   0.639
 5818SOL    HW117906   3.642   2.275   0.682
 5818SOL    HW217907   3.699   2.168   0.590
 5819SOL     OW17908   4.292   3.159   1.183
 5819SOL    HW117909   4.206   3.165   1.142
 5819SOL    HW217910   4.309   3.248   1.215
 5820SOL     OW17911   5.288   3.423   0.708
 5820SOL    HW117912   5.254   3.367   0.777
 5820SOL    HW217913   5.232   3.406   0.633
 5821SOL     OW17914   4.865   2.562   0.696
 5821SOL    HW117915   4.915   2.643   0.686
 5821SOL    HW217916   4.815   2.575   0.777
 5822SOL     OW17917   4.469   2.999   1.047
 5822SOL    HW117918   4.403   3.037   1.106
 5822SOL    HW217919   4.508   3.074   1.003
 5823SOL     OW17920   4.600   2.624   1.825
 5823SOL    HW117921   4.582   2.694   1.888
 5823SOL    HW217922   4.620   2.669   1.743
 5824SOL     OW17923   4.407   2.856   0.650
 5824SOL    HW117924   4.474   2.850   0.718
 5824SOL    HW217925   4.340   2.913   0.687
 5825SOL     OW17926   4.438   3.012   1.820
 5825SOL    HW117927   4.486   3.089   1.850
 5825SOL    HW217928   4.359   3.047   1.780
 5826SOL     OW17929   4.056   3.279   1.067
 5826SOL    HW117930   3.981   3.240   1.021
 5826SOL    HW217931   4.101   3.331   1.000
 5827SOL     OW17932   5.158   3.343   1.363
 5827SOL    HW117933   5.220   3.413   1.384
 5827SOL    HW217934   5.090   3.350   1.430
 5828SOL     OW17935   4.176   2.255   1.478
 5828SOL    HW117936   4.251   2.197   1.487
 5828SOL    HW217937   4.100   2.200   1.498
 5829SOL     OW17938   3.947   3.576   0.467
 5829SOL    HW117939   3.965   3.651   0.524
 5829SOL    HW217940   4.024   3.569   0.411
 5830SOL     OW17941   4.857   3.203   1.696
 5830SOL    HW117942   4.896   3.198   1.783
 5830SOL    HW217943   4.807   3.123   1.687
 5831SOL     OW17944   3.949   3.302   0.522
 5831SOL    HW117945   3.937   3.397   0.524
 5831SOL    HW217946   3.894   3.270   0.594
 5832SOL     OW17947   3.989   2.953   0.890
 5832SOL    HW117948   3.986   2.865   0.929
 5832SOL    HW217949   3.932   3.006   0.946
 5833SOL     OW17950   4.322   3.657   1.422
 5833SOL    HW117951   4.243   3.638   1.473
 5833SOL    HW217952   4.350   3.744   1.451
 5834SOL     OW17953   4.345   2.816   0.144
 5834SOL    HW117954   4.288   2.889   0.118
 5834SOL    HW217955   4.400   2.852   0.213
 5835SOL     OW17956   3.841   2.514   0.565
 5835SOL    HW117957   3.811   2.426   0.587
 5835SOL    HW217958   3.832   2.564   0.647
 5836SOL     OW17959   3.763   3.452   0.108
 5836SOL    HW117960   3.746   3.366   0.145
 5836SOL    HW217961   3.744   3.513   0.179
 5837SOL     OW17962   0.118   2.810   0.596
 5837SOL    HW117963   0.210   2.792   0.580
 5837SOL    HW217964   0.090   2.862   0.521
 5838SOL     OW17965   3.849   2.606   1.584
 5838SOL    HW117966   3.940   2.637   1.587
 5838SOL    HW217967   3.797   2.686   1.588
 5839SOL     OW17968   4.339   3.254   0.733
 5839SOL    HW117969   4.295   3.169   0.743
 5839SOL    HW217970   4.324   3.279   0.642
 5840SOL     OW17971   4.994   3.091   1.424
 5840SOL    HW117972   5.030   3.025   1.363
 5840SOL    HW217973   5.053   3.088   1.499
 5841SOL     OW17974   4.544   1.870   0.518
 5841SOL    HW117975   4.583   1.953   0.492
 5841SOL    HW217976   4.450   1.888   0.522
 5842SOL     OW17977   3.912   2.823   1.279
 5842SOL    HW117978   3.998   2.784   1.264
 5842SOL    HW217979   3.853   2.774   1.222
 5843SOL     OW17980   4.891   3.673   1.627
 5843SOL    HW117981   4.909   3.735   1.556
 5843SOL    HW217982   4.918   3.588   1.591
 5844SOL     OW17983   4.066   2.110   1.829
 5844SOL    HW117984   4.106   2.195   1.849
 5844SOL    HW217985   3.973   2.122   1.849
 5845SOL     OW17986   5.165   3.301   0.927
 5845SOL    HW117987   5.106   3.307   1.002
 5845SOL    HW217988   5.160   3.209   0.899
 5846SOL     OW17989   4.324   2.571   0.286
 5846SOL    HW117990   4.338   2.654   0.240
 5846SOL    HW217991   4.259   2.592   0.353
 5847SOL     OW17992   4.994   2.200   0.916
 5847SOL    HW117993   4.905   2.171   0.937
 5847SOL    HW217994   5.048   2.164   0.986
 5848SOL     OW17995   4.513   2.480   1.446
 5848SOL    HW117996   4.488   2.454   1.535
 5848SOL    HW217997   4.479   2.410   1.390
 5849SOL     OW17998   5.113   2.347   1.683
 5849SOL    HW117999   5.117   2.380   1.772
 5849SOL    HW218000   5.195   2.299   1.672
 5850SOL     OW18001   4.672   2.747   1.587
 5850SOL    HW118002   4.726   2.678   1.548
 5850SOL    HW218003   4.624   2.784   1.513
 5851SOL     OW18004   4.717   2.271   1.232
 5851SOL    HW118005   4.627   2.288   1.261
 5851SOL    HW218006   4.707   2.228   1.147
 5852SOL     OW18007   4.782   2.560   0.425
 5852SOL    HW118008   4.801   2.555   0.519
 5852SOL    HW218009   4.699   2.515   0.415
 5853SOL     OW18010   3.812   2.685   0.778
 5853SOL    HW118011   3.893   2.678   0.829
 5853SOL    HW218012   3.767   2.762   0.814
 5854SOL     OW18013   3.848   3.731   1.583
 5854SOL    HW118014   3.852   3.708   1.676
 5854SOL    HW218015   3.762   3.699   1.555
 5855SOL     OW18016   4.611   2.219   0.203
 5855SOL    HW118017   4.656   2.270   0.135
 5855SOL    HW218018   4.612   2.129   0.170
 5856SOL     OW18019   5.103   3.016   0.553
 5856SOL    HW118020   5.184   3.010   0.503
 5856SOL    HW218021   5.046   3.072   0.499
 5857SOL     OW18022   4.274   2.038   0.898
 5857SOL    HW118023   4.277   2.068   0.988
 5857SOL    HW218024   4.275   2.118   0.845
 5858SOL     OW18025   4.721   3.304   0.469
 5858SOL    HW118026   4.687   3.379   0.420
 5858SOL    HW218027   4.699   3.322   0.560
 5859SOL     OW18028   4.078   3.676   0.871
 5859SOL    HW118029   4.123   3.592   0.876
 5859SOL    HW218030   4.146   3.741   0.889
 5860SOL     OW18031   4.936   3.400   1.516
 5860SOL    HW118032   4.925   3.329   1.579
 5860SOL    HW218033   4.868   3.385   1.450
 5861SOL     OW18034   4.036   2.807   0.265
 5861SOL    HW118035   4.094   2.854   0.205
 5861SOL    HW218036   4.054   2.714   0.247
 5862SOL     OW18037   4.194   3.130   1.738
 5862SOL    HW118038   4.168   3.134   1.646
 5862SOL    HW218039   4.111   3.126   1.787
 5863SOL     OW18040   4.817   3.635   0.220
 5863SOL    HW118041   4.760   3.595   0.286
 5863SOL    HW218042   4.834   3.564   0.158
 5864SOL     OW18043   3.926   2.133   1.504
 5864SOL    HW118044   3.846   2.184   1.508
 5864SOL    HW218045   3.903   2.049   1.544
 5865SOL     OW18046   4.188   3.597   0.323
 5865SOL    HW118047   4.232   3.656   0.383
 5865SOL    HW218048   4.257   3.568   0.263
 5866SOL     OW18049   5.108   1.986   0.446
 5866SOL    HW118050   5.094   1.965   0.354
 5866SOL    HW218051   5.204   1.994   0.455
 5867SOL     OW18052   3.979   3.652   1.229
 5867SOL    HW118053   4.030   3.583   1.271
 5867SOL    HW218054   3.973   3.624   1.137
 5868SOL     OW18055   4.665   3.561   0.896
 5868SOL    HW118056   4.747   3.515   0.912
 5868SOL    HW218057   4.622   3.510   0.826
 5869SOL     OW18058   4.112   2.559   0.474
 5869SOL    HW118059   4.132   2.466   0.488
 5869SOL    HW218060   4.020   2.568   0.497
 5870SOL     OW18061   4.357   1.970   0.141
 5870SOL    HW118062   4.452   1.959   0.147
 5870SOL    HW218063   4.335   1.951   0.050
 5871SOL     OW18064   4.486   2.142   1.757
 5871SOL    HW118065   4.567   2.091   1.753
 5871SOL    HW218066   4.440   2.109   1.834
 5872SOL     OW18067   4.597   3.386   1.194
 5872SOL    HW118068   4.582   3.348   1.108
 5872SOL    HW218069   4.668   3.332   1.231
 5873SOL     OW18070   5.056   2.455   1.432
 5873SOL    HW118071   5.086   2.426   1.518
 5873SOL    HW218072   5.100   2.539   1.419
 5874SOL     OW18073   4.541   3.250   0.946
 5874SOL    HW118074   4.626   3.239   0.904
 5874SOL    HW218075   4.479   3.259   0.873
 5875SOL     OW18076   4.652   2.370   0.900
 5875SOL    HW118077   4.627   2.361   0.808
 5875SOL    HW218078   4.681   2.283   0.925
 5876SOL     OW18079   4.276   1.925   0.501
 5876SOL    HW118080   4.196   1.923   0.554
 5876SOL    HW218081   4.266   2.004   0.447
 5877SOL     OW18082   5.135   3.033   0.054
 5877SOL    HW118083   5.117   2.951   0.098
 5877SOL    HW218084   5.054   3.084   0.062
 5878SOL     OW18085   4.039   1.925   0.177
 5878SOL    HW118086   4.104   1.992   0.198
 5878SOL    HW218087   4.073   1.845   0.215
 5879SOL     OW18088   4.663   2.112   0.456
 5879SOL    HW118089   4.636   2.151   0.372
 5879SOL    HW218090   4.757   2.132   0.462
 5880SOL     OW18091   4.800   2.547   1.458
 5880SOL    HW118092   4.736   2.476   1.459
 5880SOL    HW218093   4.885   2.503   1.449
 5881SOL     OW18094   4.937   3.433   0.795
 5881SOL    HW118095   4.956   3.501   0.731
 5881SOL    HW218096   5.021   3.413   0.835
 5882SOL     OW18097   4.195   3.017   0.727
 5882SOL    HW118098   4.129   2.996   0.793
 5882SOL    HW218099   4.151   3.003   0.643
 5883SOL     OW18100   4.984   3.656   0.611
 5883SOL    HW118101   5.030   3.720   0.556
 5883SOL    HW218102   4.916   3.706   0.655
 5884SOL     OW18103   4.759   2.384   0.036
 5884SOL    HW118104   4.715   2.465   0.011
 5884SOL    HW218105   4.820   2.409   0.105
 5885SOL     OW18106   3.808   2.416   1.392
 5885SOL    HW118107   3.900   2.416   1.366
 5885SOL    HW218108   3.802   2.485   1.458
 5886SOL     OW18109   4.281   2.089   1.171
 5886SOL    HW118110   4.324   2.017   1.217
 5886SOL    HW218111   4.190   2.085   1.199
 5887SOL     OW18112   4.591   2.319   0.638
 5887SOL    HW118113   4.552   2.376   0.572
 5887SOL    HW218114   4.612   2.239   0.590
 5888SOL     OW18115   4.740   1.916   0.746
 5888SOL    HW118116   4.680   1.910   0.672
 5888SOL    HW218117   4.717   1.841   0.801
 5889SOL     OW18118   5.154   3.039   0.847
 5889SOL    HW118119   5.103   2.960   0.865
 5889SOL    HW218120   5.160   3.043   0.752
 5890SOL     OW18121   4.210   3.302   0.173
 5890SOL    HW118122   4.135   3.263   0.218
 5890SOL    HW218123   4.217   3.253   0.092
 5891SOL     OW18124   5.136   2.443   0.068
 5891SOL    HW118125   5.075   2.423   0.139
 5891SOL    HW218126   5.197   2.370   0.068
 5892SOL     OW18127   4.235   2.126   0.319
 5892SOL    HW118128   4.290   2.076   0.260
 5892SOL    HW218129   4.222   2.210   0.274
 5893SOL     OW18130   4.773   3.217   1.332
 5893SOL    HW118131   4.698   3.185   1.381
 5893SOL    HW218132   4.848   3.173   1.372
 5894SOL     OW18133   0.009   3.473   1.611
 5894SOL    HW118134   0.044   3.472   1.522
 5894SOL    HW218135   0.082   3.446   1.667
 5895SOL     OW18136   4.860   3.073   1.104
 5895SOL    HW118137   4.795   3.106   1.166
 5895SOL    HW218138   4.829   3.103   1.019
 5896SOL     OW18139   4.641   1.956   1.392
 5896SOL    HW118140   4.663   1.938   1.301
 5896SOL    HW218141   4.721   1.994   1.429
 5897SOL     OW18142   4.709   2.974   1.727
 5897SOL    HW118143   4.618   2.992   1.751
 5897SOL    HW218144   4.704   2.897   1.670
 5898SOL     OW18145   4.445   2.929   0.384
 5898SOL    HW118146   4.425   2.906   0.474
 5898SOL    HW218147   4.522   2.876   0.362
 5899SOL     OW18148   4.145   2.681   1.252
 5899SOL    HW118149   4.213   2.691   1.319
 5899SOL    HW218150   4.111   2.592   1.265
 5900SOL     OW18151   4.986   2.235   1.281
 5900SOL    HW118152   5.020   2.315   1.321
 5900SOL    HW218153   4.895   2.257   1.258
 5901SOL     OW18154   3.799   3.436   1.357
 5901SOL    HW118155   3.772   3.508   1.301
 5901SOL    HW218156   3.895   3.434   1.349
 5902SOL     OW18157   4.058   2.977   0.491
 5902SOL    HW118158   4.064   3.048   0.428
 5902SOL    HW218159   4.065   2.897   0.438
 5903SOL     OW18160   4.271   2.392   0.859
 5903SOL    HW118161   4.285   2.451   0.785
 5903SOL    HW218162   4.338   2.417   0.922
 5904SOL     OW18163   4.969   3.210   0.392
 5904SOL    HW118164   5.024   3.284   0.418
 5904SOL    HW218165   4.882   3.233   0.424
 5905SOL     OW18166   5.004   3.319   1.142
 5905SOL    HW118167   5.055   3.321   1.222
 5905SOL    HW218168   4.949   3.241   1.149
 5906SOL     OW18169   4.070   3.392   1.310
 5906SOL    HW118170   4.059   3.347   1.226
 5906SOL    HW218171   4.164   3.403   1.319
 5907SOL     OW18172   4.142   2.607   1.604
 5907SOL    HW118173   4.205   2.651   1.546
 5907SOL    HW218174   4.180   2.521   1.621
 5908SOL     OW18175   4.718   1.997   1.755
 5908SOL    HW118176   4.777   2.068   1.733
 5908SOL    HW218177   4.764   1.918   1.728
 5909SOL     OW18178   4.221   1.898   1.751
 5909SOL    HW118179   4.173   1.845   1.686
 5909SOL    HW218180   4.165   1.974   1.766
 5910SOL     OW18181   4.308   2.737   1.032
 5910SOL    HW118182   4.343   2.826   1.035
 5910SOL    HW218183   4.252   2.730   1.109
 5911SOL     OW18184   5.087   2.715   1.034
 5911SOL    HW118185   5.011   2.688   0.982
 5911SOL    HW218186   5.151   2.645   1.020
 5912SOL     OW18187   4.933   2.395   0.262
 5912SOL    HW118188   4.935   2.315   0.314
 5912SOL    HW218189   4.888   2.459   0.317
 5913SOL     OW18190   4.020   2.058   1.247
 5913SOL    HW118191   3.983   2.090   1.330
 5913SOL    HW218192   4.002   1.964   1.247
 5914SOL     OW18193   3.771   3.174   1.274
 5914SOL    HW118194   3.802   3.118   1.345
 5914SOL    HW218195   3.776   3.263   1.309
 5915SOL     OW18196   4.443   2.490   1.052
 5915SOL    HW118197   4.520   2.478   0.997
 5915SOL    HW218198   4.415   2.580   1.034
 5916SOL     OW18199   4.031   1.923   0.625
 5916SOL    HW118200   4.008   2.014   0.646
 5916SOL    HW218201   4.039   1.880   0.711
 5917SOL     OW18202   0.054   2.237   0.350
 5917SOL    HW118203   0.062   2.183   0.429
 5917SOL    HW218204   0.029   2.323   0.383
 5918SOL     OW18205   4.750   2.619   0.955
 5918SOL    HW118206   4.745   2.637   1.049
 5918SOL    HW218207   4.725   2.528   0.946
 5919SOL     OW18208   4.694   3.424   1.717
 5919SOL    HW118209   4.682   3.470   1.634
 5919SOL    HW218210   4.741   3.344   1.694
 5920SOL     OW18211   4.076   2.778   1.810
 5920SOL    HW118212   4.157   2.798   1.858
 5920SOL    HW218213   4.102   2.716   1.743
 5921SOL     OW18214   5.034   2.697   0.020
 5921SOL    HW118215   5.070   2.610   0.040
 5921SOL    HW218216   5.052   2.709   8.007
 5922SOL     OW18217   4.791   3.198   0.859
 5922SOL    HW118218   4.797   3.127   0.795
 5922SOL    HW218219   4.845   3.268   0.822
 5923SOL     OW18220   4.033   2.671   0.945
 5923SOL    HW118221   4.126   2.692   0.941
 5923SOL    HW218222   4.029   2.581   0.977
 5924SOL     OW18223   4.050   2.393   1.013
 5924SOL    HW118224   4.015   2.305   1.000
 5924SOL    HW218225   4.127   2.396   0.956
 5925SOL     OW18226   4.857   2.235   1.685
 5925SOL    HW118227   4.808   2.289   1.747
 5925SOL    HW218228   4.943   2.276   1.680
 5926SOL     OW18229   4.885   2.059   1.471
 5926SOL    HW118230   4.873   2.122   1.543
 5926SOL    HW218231   4.925   2.111   1.402
 5927SOL     OW18232   3.740   3.179   0.184
 5927SOL    HW118233   3.653   3.194   0.148
 5927SOL    HW218234   3.735   3.090   0.220
 5928SOL     OW18235   3.814   3.644   0.941
 5928SOL    HW118236   3.784   3.566   0.894
 5928SOL    HW218237   3.903   3.658   0.910
 5929SOL     OW18238   4.216   3.436   0.904
 5929SOL    HW118239   4.285   3.499   0.928
 5929SOL    HW218240   4.259   3.374   0.846
 5930SOL     OW18241   4.696   2.650   1.222
 5930SOL    HW118242   4.756   2.632   1.295
 5930SOL    HW218243   4.613   2.610   1.250
 5931SOL     OW18244   3.761   2.411   1.117
 5931SOL    HW118245   3.842   2.404   1.067
 5931SOL    HW218246   3.789   2.412   1.208
 5932SOL     OW18247   3.915   2.385   1.732
 5932SOL    HW118248   3.969   2.341   1.666
 5932SOL    HW218249   3.879   2.461   1.686
 5933SOL     OW18250   5.120   2.793   1.666
 5933SOL    HW118251   5.125   2.887   1.652
 5933SOL    HW218252   5.124   2.756   1.577
 5934SOL     OW18253   4.546   2.431   0.375
 5934SOL    HW118254   4.554   2.359   0.312
 5934SOL    HW218255   4.470   2.480   0.345
 5935SOL     OW18256   3.961   3.411   1.723
 5935SOL    HW118257   3.940   3.475   1.791
 5935SOL    HW218258   3.969   3.328   1.770
 5936SOL     OW18259   4.437   2.307   1.252
 5936SOL    HW118260   4.379   2.235   1.227
 5936SOL    HW218261   4.428   2.371   1.181
 5937SOL     OW18262   4.638   3.541   1.470
 5937SOL    HW118263   4.617   3.504   1.384
 5937SOL    HW218264   4.638   3.635   1.457
 5938SOL     OW18265   4.191   2.355   0.174
 5938SOL    HW118266   4.258   2.419   0.196
 5938SOL    HW218267   4.108   2.400   0.188
 5939SOL     OW18268   3.865   3.005   1.474
 5939SOL    HW118269   3.867   2.958   1.557
 5939SOL    HW218270   3.882   2.938   1.408
 5940SOL     OW18271   5.050   2.906   1.222
 5940SOL    HW118272   5.069   2.840   1.155
 5940SOL    HW218273   4.983   2.962   1.182
 5941SOL     OW18274   5.025   2.737   0.319
 5941SOL    HW118275   4.948   2.691   0.354
 5941SOL    HW218276   5.025   2.716   0.226
 5942SOL     OW18277   4.957   3.593   1.118
 5942SOL    HW118278   5.043   3.618   1.083
 5942SOL    HW218279   4.963   3.498   1.128
 5943SOL     OW18280   3.812   3.127   1.010
 5943SOL    HW118281   3.795   3.142   1.103
 5943SOL    HW218282   3.739   3.072   0.981
 5944SOL     OW18283   4.403   3.532   1.739
 5944SOL    HW118284   4.347   3.609   1.728
 5944SOL    HW218285   4.476   3.547   1.680
 5945SOL     OW18286   4.630   1.954   0.127
 5945SOL    HW118287   4.635   1.929   0.035
 5945SOL    HW218288   4.696   1.899   0.170
 5946SOL     OW18289   0.072   2.012   0.528
 5946SOL    HW118290   0.164   1.998   0.505
 5946SOL    HW218291   0.055   1.950   0.599
 5947SOL     OW18292   5.109   3.439   0.478
 5947SOL    HW118293   5.165   3.485   0.415
 5947SOL    HW218294   5.058   3.508   0.520
 5948SOL     OW18295   3.864   3.658   1.843
 5948SOL    HW118296   3.814   3.591   1.890
 5948SOL    HW218297   3.911   3.705   1.911
 5949SOL     OW18298   5.021   2.784   0.668
 5949SOL    HW118299   5.101   2.732   0.660
 5949SOL    HW218300   5.040   2.865   0.621
 5950SOL     OW18301   4.527   3.138   1.425
 5950SOL    HW118302   4.500   3.179   1.507
 5950SOL    HW218303   4.457   3.159   1.363
 5951SOL     OW18304   4.400   3.488   0.158
 5951SOL    HW118305   4.411   3.496   0.063
 5951SOL    HW218306   4.340   3.415   0.169
 5952SOL     OW18307   3.981   2.175   0.715
 5952SOL    HW118308   3.895   2.210   0.693
 5952SOL    HW218309   3.981   2.170   0.811
 5953SOL     OW18310   4.860   3.440   0.040
 5953SOL    HW118311   4.892   3.352   0.060
 5953SOL    HW218312   4.913   3.469   8.046
 5954SOL     OW18313   4.547   2.869   1.375
 5954SOL    HW118314   4.591   2.862   1.290
 5954SOL    HW218315   4.543   2.963   1.393
 5955SOL     OW18316   4.647   2.776   0.303
 5955SOL    HW118317   4.698   2.797   0.225
 5955SOL    HW218318   4.696   2.704   0.344
 5956SOL     OW18319   4.091   3.167   1.493
 5956SOL    HW118320   4.079   3.243   1.436
 5956SOL    HW218321   4.014   3.113   1.477
 5957SOL     OW18322   4.784   2.972   0.710
 5957SOL    HW118323   4.712   2.922   0.749
 5957SOL    HW218324   4.842   2.906   0.673
 5958SOL     OW18325   4.738   2.101   0.968
 5958SOL    HW118326   4.737   2.055   0.885
 5958SOL    HW218327   4.734   2.032   1.034
 5959SOL     OW18328   4.329   3.345   0.476
 5959SOL    HW118329   4.378   3.296   0.410
 5959SOL    HW218330   4.259   3.388   0.428
 5960SOL     OW18331   3.994   3.178   0.289
 5960SOL    HW118332   3.908   3.185   0.248
 5960SOL    HW218333   3.985   3.224   0.372
 5961SOL     OW18334   3.839   2.894   1.724
 5961SOL    HW118335   3.762   2.867   1.775
 5961SOL    HW218336   3.913   2.851   1.767
 5962SOL     OW18337   4.400   2.057   1.500
 5962SOL    HW118338   4.485   2.035   1.460
 5962SOL    HW218339   4.423   2.090   1.587
 5963SOL     OW18340   3.781   2.219   0.041
 5963SOL    HW118341   3.700   2.177   0.012
 5963SOL    HW218342   3.837   2.219   8.043
 5964SOL     OW18343   5.166   2.720   1.401
 5964SOL    HW118344   5.114   2.779   1.346
 5964SOL    HW218345   5.255   2.727   1.366
 5965SOL     OW18346   3.793   2.014   0.293
 5965SOL    HW118347   3.779   2.099   0.253
 5965SOL    HW218348   3.878   1.985   0.258
 5966SOL     OW18349   4.907   3.174   0.116
 5966SOL    HW118350   4.812   3.174   0.110
 5966SOL    HW218351   4.925   3.179   0.210
 5967SOL     OW18352   4.344   2.693   1.435
 5967SOL    HW118353   4.401   2.769   1.421
 5967SOL    HW218354   4.403   2.619   1.442
 5968SOL     OW18355   4.442   2.420   1.700
 5968SOL    HW118356   4.486   2.479   1.761
 5968SOL    HW218357   4.459   2.333   1.733
 5969SOL     OW18358   5.176   3.061   1.630
 5969SOL    HW118359   5.167   3.076   1.725
 5969SOL    HW218360   5.269   3.077   1.613
 5970SOL     OW18361   4.095   3.603   1.566
 5970SOL    HW118362   4.012   3.648   1.551
 5970SOL    HW218363   4.069   3.520   1.607
 5971SOL     OW18364   4.929   2.192   0.459
 5971SOL    HW118365   4.989   2.117   0.453
 5971SOL    HW218366   4.958   2.239   0.537
 5972SOL     OW18367   4.308   2.594   0.673
 5972SOL    HW118368   4.349   2.680   0.661
 5972SOL    HW218369   4.242   2.590   0.604
 5973SOL     OW18370   4.633   3.223   0.050
 5973SOL    HW118371   4.568   3.217   0.119
 5973SOL    HW218372   4.627   3.314   0.020
 5974SOL     OW18373   4.387   3.646   0.937
 5974SOL    HW118374   4.369   3.738   0.919
 5974SOL    HW218375   4.482   3.639   0.933
 5975SOL     OW18376   4.594   2.833   0.855
 5975SOL    HW118377   4.644   2.760   0.891
 5975SOL    HW218378   4.555   2.876   0.931
 5976SOL     OW18379   4.801   2.829   0.086
 5976SOL    HW118380   4.788   2.897   0.019
 5976SOL    HW218381   4.883   2.786   0.061
 5977SOL     OW18382   3.950   3.161   1.853
 5977SOL    HW118383   3.888   3.096   1.820
 5977SOL    HW218384   3.925   3.173   1.945
 5978SOL     OW18385   3.813   3.088   0.665
 5978SOL    HW118386   3.824   3.044   0.750
 5978SOL    HW218387   3.883   3.054   0.611
 5979SOL     OW18388   4.409   3.269   1.632
 5979SOL    HW118389   4.329   3.227   1.666
 5979SOL    HW218390   4.406   3.357   1.668
 5980SOL     OW18391   4.145   2.298   0.524
 5980SOL    HW118392   4.179   2.227   0.469
 5980SOL    HW218393   4.099   2.254   0.595
 5981SOL     OW18394   0.087   3.379   1.102
 5981SOL    HW118395   0.023   3.362   1.033
 5981SOL    HW218396   0.084   3.302   1.158
 5982SOL     OW18397   4.060   2.422   1.293
 5982SOL    HW118398   4.113   2.365   1.348
 5982SOL    HW218399   4.077   2.392   1.204
 5983SOL     OW18400   4.555   3.440   0.675
 5983SOL    HW118401   4.537   3.502   0.605
 5983SOL    HW218402   4.479   3.382   0.676
 5984SOL     OW18403   5.143   2.081   1.116
 5984SOL    HW118404   5.187   2.016   1.172
 5984SOL    HW218405   5.096   2.137   1.177
 5985SOL     OW18406   4.727   1.877   1.136
 5985SOL    HW118407   4.675   1.810   1.092
 5985SOL    HW218408   4.815   1.839   1.143
 5986SOL     OW18409   4.500   3.190   0.310
 5986SOL    HW118410   4.472   3.100   0.329
 5986SOL    HW218411   4.580   3.201   0.362
 5987SOL     OW18412   4.343   3.418   1.287
 5987SOL    HW118413   4.343   3.501   1.334
 5987SOL    HW218414   4.431   3.411   1.251
 5988SOL     OW18415   5.047   1.917   0.195
 5988SOL    HW118416   5.082   1.875   0.116
 5988SOL    HW218417   4.965   1.871   0.212
 5989SOL     OW18418   5.025   2.326   0.680
 5989SOL    HW118419   4.972   2.406   0.684
 5989SOL    HW218420   5.012   2.284   0.765
 5990SOL     OW18421   5.297   2.094   0.882
 5990SOL    HW118422   5.240   2.071   0.955
 5990SOL    HW218423   5.262   2.178   0.850
 5991SOL     OW18424   3.768   2.923   0.308
 5991SOL    HW118425   3.863   2.921   0.313
 5991SOL    HW218426   3.740   2.838   0.343
 5992SOL     OW18427   4.603   3.520   0.351
 5992SOL    HW118428   4.534   3.507   0.286
 5992SOL    HW218429   4.574   3.596   0.402
 5993SOL     OW18430   3.947   2.486   1.991
 5993SOL    HW118431   3.858   2.481   2.027
 5993SOL    HW218432   3.937   2.463   1.899
 5994SOL     OW18433   3.949   2.145   2.854
 5994SOL    HW118434   3.977   2.111   2.939
 5994SOL    HW218435   3.859   2.114   2.844
 5995SOL     OW18436   3.724   2.247   2.500
 5995SOL    HW118437   3.643   2.275   2.543
 5995SOL    HW218438   3.699   2.169   2.450
 5996SOL     OW18439   4.293   3.159   3.046
 5996SOL    HW118440   4.206   3.163   3.005
 5996SOL    HW218441   4.309   3.248   3.077
 5997SOL     OW18442   5.294   3.392   2.566
 5997SOL    HW118443   5.251   3.358   2.644
 5997SOL    HW218444   5.225   3.393   2.499
 5998SOL     OW18445   4.864   2.561   2.557
 5998SOL    HW118446   4.914   2.641   2.547
 5998SOL    HW218447   4.814   2.573   2.638
 5999SOL     OW18448   4.470   3.000   2.910
 5999SOL    HW118449   4.404   3.037   2.968
 5999SOL    HW218450   4.509   3.076   2.865
 6000SOL     OW18451   4.600   2.624   3.687
 6000SOL    HW118452   4.581   2.694   3.749
 6000SOL    HW218453   4.620   2.669   3.605
 6001SOL     OW18454   4.410   2.858   2.506
 6001SOL    HW118455   4.476   2.852   2.575
 6001SOL    HW218456   4.341   2.913   2.544
 6002SOL     OW18457   4.439   3.012   3.682
 6002SOL    HW118458   4.486   3.089   3.712
 6002SOL    HW218459   4.359   3.047   3.642
 6003SOL     OW18460   4.056   3.279   2.929
 6003SOL    HW118461   3.981   3.240   2.883
 6003SOL    HW218462   4.101   3.331   2.862
 6004SOL     OW18463   5.158   3.343   3.225
 6004SOL    HW118464   5.220   3.412   3.247
 6004SOL    HW218465   5.090   3.350   3.291
 6005SOL     OW18466   4.176   2.255   3.340
 6005SOL    HW118467   4.251   2.196   3.349
 6005SOL    HW218468   4.100   2.200   3.359
 6006SOL     OW18469   3.943   3.578   2.330
 6006SOL    HW118470   3.965   3.653   2.386
 6006SOL    HW218471   4.018   3.570   2.272
 6007SOL     OW18472   4.857   3.203   3.557
 6007SOL    HW118473   4.895   3.198   3.645
 6007SOL    HW218474   4.807   3.123   3.548
 6008SOL     OW18475   3.956   3.306   2.398
 6008SOL    HW118476   3.937   3.400   2.400
 6008SOL    HW218477   3.898   3.269   2.464
 6009SOL     OW18478   3.991   2.954   2.754
 6009SOL    HW118479   3.985   2.866   2.792
 6009SOL    HW218480   3.931   3.007   2.807
 6010SOL     OW18481   4.323   3.656   3.285
 6010SOL    HW118482   4.244   3.638   3.335
 6010SOL    HW218483   4.350   3.744   3.314
 6011SOL     OW18484   4.303   2.847   2.002
 6011SOL    HW118485   4.351   2.892   1.933
 6011SOL    HW218486   4.342   2.878   2.083
 6012SOL     OW18487   3.842   2.518   2.423
 6012SOL    HW118488   3.813   2.430   2.445
 6012SOL    HW218489   3.833   2.567   2.505
 6013SOL     OW18490   3.762   3.452   1.983
 6013SOL    HW118491   3.744   3.361   2.003
 6013SOL    HW218492   3.737   3.500   2.061
 6014SOL     OW18493   0.114   2.797   2.438
 6014SOL    HW118494   0.205   2.770   2.428
 6014SOL    HW218495   0.116   2.893   2.432
 6015SOL     OW18496   3.841   2.606   3.448
 6015SOL    HW118497   3.929   2.642   3.450
 6015SOL    HW218498   3.783   2.683   3.448
 6016SOL     OW18499   4.340   3.252   2.597
 6016SOL    HW118500   4.295   3.168   2.606
 6016SOL    HW218501   4.323   3.280   2.507
 6017SOL     OW18502   4.995   3.091   3.285
 6017SOL    HW118503   5.030   3.025   3.225
 6017SOL    HW218504   5.053   3.088   3.361
 6018SOL     OW18505   4.543   1.867   2.376
 6018SOL    HW118506   4.584   1.950   2.351
 6018SOL    HW218507   4.450   1.886   2.381
 6019SOL     OW18508   3.910   2.825   3.146
 6019SOL    HW118509   3.992   2.781   3.123
 6019SOL    HW218510   3.843   2.779   3.095
 6020SOL     OW18511   4.892   3.674   3.489
 6020SOL    HW118512   4.909   3.735   3.418
 6020SOL    HW218513   4.918   3.588   3.454
 6021SOL     OW18514   4.065   2.110   3.691
 6021SOL    HW118515   4.105   2.195   3.709
 6021SOL    HW218516   3.972   2.122   3.711
 6022SOL     OW18517   5.164   3.302   2.790
 6022SOL    HW118518   5.105   3.309   2.866
 6022SOL    HW218519   5.158   3.210   2.764
 6023SOL     OW18520   4.319   2.579   2.133
 6023SOL    HW118521   4.321   2.663   2.087
 6023SOL    HW218522   4.253   2.591   2.202
 6024SOL     OW18523   4.993   2.200   2.777
 6024SOL    HW118524   4.904   2.172   2.799
 6024SOL    HW218525   5.047   2.165   2.848
 6025SOL     OW18526   4.513   2.480   3.308
 6025SOL    HW118527   4.488   2.454   3.397
 6025SOL    HW218528   4.479   2.410   3.252
 6026SOL     OW18529   5.113   2.347   3.545
 6026SOL    HW118530   5.117   2.380   3.634
 6026SOL    HW218531   5.195   2.299   3.533
 6027SOL     OW18532   4.672   2.747   3.448
 6027SOL    HW118533   4.725   2.678   3.410
 6027SOL    HW218534   4.624   2.785   3.375
 6028SOL     OW18535   4.717   2.271   3.094
 6028SOL    HW118536   4.627   2.288   3.123
 6028SOL    HW218537   4.707   2.228   3.009
 6029SOL     OW18538   4.778   2.561   2.286
 6029SOL    HW118539   4.797   2.555   2.380
 6029SOL    HW218540   4.694   2.516   2.276
 6030SOL     OW18541   3.810   2.686   2.639
 6030SOL    HW118542   3.891   2.678   2.690
 6030SOL    HW218543   3.765   2.761   2.677
 6031SOL     OW18544   3.848   3.734   3.445
 6031SOL    HW118545   3.852   3.710   3.538
 6031SOL    HW218546   3.765   3.697   3.415
 6032SOL     OW18547   4.623   2.211   2.057
 6032SOL    HW118548   4.661   2.274   1.996
 6032SOL    HW218549   4.633   2.127   2.013
 6033SOL     OW18550   5.099   3.017   2.417
 6033SOL    HW118551   5.189   3.028   2.386
 6033SOL    HW218552   5.047   3.070   2.357
 6034SOL     OW18553   4.275   2.038   2.760
 6034SOL    HW118554   4.277   2.069   2.850
 6034SOL    HW218555   4.274   2.118   2.707
 6035SOL     OW18556   4.724   3.304   2.331
 6035SOL    HW118557   4.690   3.378   2.281
 6035SOL    HW218558   4.701   3.323   2.421
 6036SOL     OW18559   4.078   3.676   2.732
 6036SOL    HW118560   4.122   3.591   2.738
 6036SOL    HW218561   4.146   3.740   2.751
 6037SOL     OW18562   4.936   3.400   3.378
 6037SOL    HW118563   4.925   3.329   3.441
 6037SOL    HW218564   4.867   3.385   3.313
 6038SOL     OW18565   4.038   2.822   2.116
 6038SOL    HW118566   4.121   2.842   2.072
 6038SOL    HW218567   4.009   2.739   2.079
 6039SOL     OW18568   4.194   3.130   3.600
 6039SOL    HW118569   4.167   3.135   3.508
 6039SOL    HW218570   4.111   3.126   3.649
 6040SOL     OW18571   4.829   3.636   2.101
 6040SOL    HW118572   4.754   3.594   2.144
 6040SOL    HW218573   4.854   3.576   2.031
 6041SOL     OW18574   3.927   2.135   3.366
 6041SOL    HW118575   3.847   2.188   3.368
 6041SOL    HW218576   3.902   2.052   3.408
 6042SOL     OW18577   4.187   3.598   2.181
 6042SOL    HW118578   4.232   3.654   2.244
 6042SOL    HW218579   4.257   3.564   2.125
 6043SOL     OW18580   5.113   1.967   2.285
 6043SOL    HW118581   5.096   1.949   2.193
 6043SOL    HW218582   5.207   1.986   2.289
 6044SOL     OW18583   3.981   3.652   3.090
 6044SOL    HW118584   4.029   3.581   3.132
 6044SOL    HW218585   3.972   3.624   2.999
 6045SOL     OW18586   4.664   3.561   2.757
 6045SOL    HW118587   4.745   3.514   2.775
 6045SOL    HW218588   4.622   3.510   2.688
 6046SOL     OW18589   4.121   2.556   2.334
 6046SOL    HW118590   4.137   2.463   2.348
 6046SOL    HW218591   4.027   2.567   2.351
 6047SOL     OW18592   4.369   1.980   1.964
 6047SOL    HW118593   4.429   1.907   1.981
 6047SOL    HW218594   4.315   1.949   1.891
 6048SOL     OW18595   4.486   2.142   3.619
 6048SOL    HW118596   4.567   2.090   3.615
 6048SOL    HW218597   4.440   2.109   3.696
 6049SOL     OW18598   4.598   3.386   3.056
 6049SOL    HW118599   4.581   3.349   2.970
 6049SOL    HW218600   4.667   3.332   3.093
 6050SOL     OW18601   5.056   2.455   3.294
 6050SOL    HW118602   5.085   2.426   3.381
 6050SOL    HW218603   5.100   2.539   3.281
 6051SOL     OW18604   4.541   3.251   2.808
 6051SOL    HW118605   4.626   3.239   2.766
 6051SOL    HW218606   4.479   3.258   2.736
 6052SOL     OW18607   4.652   2.371   2.762
 6052SOL    HW118608   4.628   2.362   2.669
 6052SOL    HW218609   4.681   2.283   2.788
 6053SOL     OW18610   4.276   1.925   2.358
 6053SOL    HW118611   4.197   1.925   2.411
 6053SOL    HW218612   4.268   2.002   2.302
 6054SOL     OW18613   5.130   3.046   1.906
 6054SOL    HW118614   5.131   2.964   1.955
 6054SOL    HW218615   5.045   3.086   1.926
 6055SOL     OW18616   4.013   1.910   2.048
 6055SOL    HW118617   4.071   1.974   2.006
 6055SOL    HW218618   4.073   1.848   2.090
 6056SOL     OW18619   4.664   2.112   2.316
 6056SOL    HW118620   4.639   2.149   2.232
 6056SOL    HW218621   4.759   2.126   2.322
 6057SOL     OW18622   4.800   2.547   3.320
 6057SOL    HW118623   4.735   2.477   3.321
 6057SOL    HW218624   4.884   2.502   3.311
 6058SOL     OW18625   4.936   3.433   2.655
 6058SOL    HW118626   4.956   3.502   2.592
 6058SOL    HW218627   5.019   3.414   2.698
 6059SOL     OW18628   4.197   3.015   2.589
 6059SOL    HW118629   4.131   2.995   2.655
 6059SOL    HW218630   4.152   3.002   2.505
 6060SOL     OW18631   4.990   3.656   2.471
 6060SOL    HW118632   5.031   3.717   2.410
 6060SOL    HW218633   4.921   3.708   2.513
 6061SOL     OW18634   4.747   2.397   1.888
 6061SOL    HW118635   4.702   2.479   1.869
 6061SOL    HW218636   4.808   2.418   1.959
 6062SOL     OW18637   3.808   2.414   3.256
 6062SOL    HW118638   3.899   2.415   3.228
 6062SOL    HW218639   3.801   2.484   3.320
 6063SOL     OW18640   4.281   2.089   3.033
 6063SOL    HW118641   4.323   2.017   3.080
 6063SOL    HW218642   4.189   2.086   3.061
 6064SOL     OW18643   4.591   2.320   2.499
 6064SOL    HW118644   4.546   2.376   2.436
 6064SOL    HW218645   4.613   2.241   2.450
 6065SOL     OW18646   4.741   1.916   2.609
 6065SOL    HW118647   4.682   1.911   2.534
 6065SOL    HW218648   4.717   1.841   2.664
 6066SOL     OW18649   5.153   3.040   2.713
 6066SOL    HW118650   5.101   2.962   2.730
 6066SOL    HW218651   5.163   3.041   2.618
 6067SOL     OW18652   4.213   3.283   2.013
 6067SOL    HW118653   4.137   3.255   2.065
 6067SOL    HW218654   4.207   3.233   1.932
 6068SOL     OW18655   5.130   2.419   1.948
 6068SOL    HW118656   5.053   2.410   2.004
 6068SOL    HW218657   5.202   2.386   2.002
 6069SOL     OW18658   4.249   2.124   2.173
 6069SOL    HW118659   4.300   2.080   2.104
 6069SOL    HW218660   4.223   2.207   2.134
 6070SOL     OW18661   4.773   3.217   3.194
 6070SOL    HW118662   4.697   3.185   3.243
 6070SOL    HW218663   4.848   3.173   3.234
 6071SOL     OW18664   0.009   3.473   3.474
 6071SOL    HW118665   0.044   3.472   3.385
 6071SOL    HW218666   0.082   3.446   3.529
 6072SOL     OW18667   4.860   3.073   2.966
 6072SOL    HW118668   4.795   3.105   3.028
 6072SOL    HW218669   4.829   3.103   2.880
 6073SOL     OW18670   4.642   1.955   3.255
 6073SOL    HW118671   4.663   1.938   3.163
 6073SOL    HW218672   4.721   1.994   3.291
 6074SOL     OW18673   4.709   2.974   3.589
 6074SOL    HW118674   4.618   2.992   3.613
 6074SOL    HW218675   4.704   2.897   3.533
 6075SOL     OW18676   4.434   2.925   2.233
 6075SOL    HW118677   4.419   2.904   2.325
 6075SOL    HW218678   4.510   2.871   2.208
 6076SOL     OW18679   4.144   2.680   3.112
 6076SOL    HW118680   4.211   2.691   3.179
 6076SOL    HW218681   4.109   2.592   3.127
 6077SOL     OW18682   4.985   2.235   3.144
 6077SOL    HW118683   5.020   2.315   3.183
 6077SOL    HW218684   4.895   2.257   3.120
 6078SOL     OW18685   3.798   3.439   3.222
 6078SOL    HW118686   3.769   3.507   3.162
 6078SOL    HW218687   3.893   3.436   3.211
 6079SOL     OW18688   4.062   2.980   2.351
 6079SOL    HW118689   4.065   3.054   2.290
 6079SOL    HW218690   4.060   2.903   2.295
 6080SOL     OW18691   4.271   2.393   2.721
 6080SOL    HW118692   4.285   2.452   2.647
 6080SOL    HW218693   4.338   2.418   2.785
 6081SOL     OW18694   4.970   3.214   2.248
 6081SOL    HW118695   5.025   3.286   2.280
 6081SOL    HW218696   4.883   3.234   2.282
 6082SOL     OW18697   5.003   3.320   3.004
 6082SOL    HW118698   5.054   3.321   3.085
 6082SOL    HW218699   4.948   3.242   3.011
 6083SOL     OW18700   4.069   3.393   3.171
 6083SOL    HW118701   4.057   3.347   3.089
 6083SOL    HW218702   4.163   3.404   3.180
 6084SOL     OW18703   4.141   2.607   3.465
 6084SOL    HW118704   4.204   2.650   3.407
 6084SOL    HW218705   4.178   2.521   3.481
 6085SOL     OW18706   4.718   1.997   3.618
 6085SOL    HW118707   4.777   2.068   3.596
 6085SOL    HW218708   4.764   1.918   3.590
 6086SOL     OW18709   4.221   1.898   3.613
 6086SOL    HW118710   4.173   1.845   3.548
 6086SOL    HW218711   4.164   1.974   3.628
 6087SOL     OW18712   4.309   2.735   2.895
 6087SOL    HW118713   4.341   2.826   2.897
 6087SOL    HW218714   4.251   2.728   2.970
 6088SOL     OW18715   5.086   2.715   2.895
 6088SOL    HW118716   5.009   2.687   2.846
 6088SOL    HW218717   5.149   2.644   2.885
 6089SOL     OW18718   4.920   2.392   2.120
 6089SOL    HW118719   4.927   2.313   2.174
 6089SOL    HW218720   4.879   2.456   2.179
 6090SOL     OW18721   4.019   2.058   3.109
 6090SOL    HW118722   3.983   2.090   3.192
 6090SOL    HW218723   4.001   1.964   3.110
 6091SOL     OW18724   3.793   3.176   3.132
 6091SOL    HW118725   3.812   3.118   3.205
 6091SOL    HW218726   3.782   3.262   3.171
 6092SOL     OW18727   4.443   2.490   2.914
 6092SOL    HW118728   4.521   2.479   2.859
 6092SOL    HW218729   4.414   2.580   2.897
 6093SOL     OW18730   4.033   1.923   2.487
 6093SOL    HW118731   4.009   2.014   2.507
 6093SOL    HW218732   4.040   1.880   2.572
 6094SOL     OW18733   0.031   2.275   2.214
 6094SOL    HW118734   0.043   2.192   2.261
 6094SOL    HW218735   0.036   2.342   2.282
 6095SOL     OW18736   4.751   2.620   2.817
 6095SOL    HW118737   4.745   2.637   2.911
 6095SOL    HW218738   4.725   2.528   2.808
 6096SOL     OW18739   4.694   3.424   3.579
 6096SOL    HW118740   4.683   3.470   3.496
 6096SOL    HW218741   4.741   3.344   3.556
 6097SOL     OW18742   4.079   2.777   3.673
 6097SOL    HW118743   4.160   2.795   3.720
 6097SOL    HW218744   4.104   2.715   3.605
 6098SOL     OW18745   5.029   2.689   1.899
 6098SOL    HW118746   5.067   2.601   1.903
 6098SOL    HW218747   5.058   2.723   1.814
 6099SOL     OW18748   4.791   3.198   2.720
 6099SOL    HW118749   4.797   3.127   2.657
 6099SOL    HW218750   4.845   3.268   2.683
 6100SOL     OW18751   4.032   2.671   2.805
 6100SOL    HW118752   4.125   2.691   2.800
 6100SOL    HW218753   4.029   2.581   2.839
 6101SOL     OW18754   4.051   2.392   2.876
 6101SOL    HW118755   4.015   2.304   2.862
 6101SOL    HW218756   4.127   2.396   2.819
 6102SOL     OW18757   4.857   2.235   3.547
 6102SOL    HW118758   4.808   2.289   3.609
 6102SOL    HW218759   4.943   2.276   3.542
 6103SOL     OW18760   4.885   2.059   3.334
 6103SOL    HW118761   4.873   2.121   3.405
 6103SOL    HW218762   4.925   2.111   3.264
 6104SOL     OW18763   3.731   3.179   2.055
 6104SOL    HW118764   3.644   3.195   2.020
 6104SOL    HW218765   3.726   3.090   2.091
 6105SOL     OW18766   3.814   3.644   2.803
 6105SOL    HW118767   3.784   3.566   2.757
 6105SOL    HW218768   3.903   3.658   2.771
 6106SOL     OW18769   4.216   3.437   2.766
 6106SOL    HW118770   4.285   3.499   2.790
 6106SOL    HW218771   4.259   3.374   2.708
 6107SOL     OW18772   4.696   2.649   3.084
 6107SOL    HW118773   4.755   2.631   3.157
 6107SOL    HW218774   4.613   2.611   3.110
 6108SOL     OW18775   3.759   2.409   2.979
 6108SOL    HW118776   3.841   2.406   2.929
 6108SOL    HW218777   3.787   2.413   3.071
 6109SOL     OW18778   3.917   2.384   3.592
 6109SOL    HW118779   3.971   2.342   3.525
 6109SOL    HW218780   3.880   2.460   3.547
 6110SOL     OW18781   5.121   2.793   3.528
 6110SOL    HW118782   5.125   2.887   3.514
 6110SOL    HW218783   5.124   2.756   3.440
 6111SOL     OW18784   4.542   2.432   2.228
 6111SOL    HW118785   4.546   2.358   2.168
 6111SOL    HW218786   4.467   2.483   2.197
 6112SOL     OW18787   3.962   3.410   3.586
 6112SOL    HW118788   3.940   3.474   3.654
 6112SOL    HW218789   3.968   3.327   3.632
 6113SOL     OW18790   4.437   2.307   3.114
 6113SOL    HW118791   4.379   2.235   3.089
 6113SOL    HW218792   4.429   2.371   3.043
 6114SOL     OW18793   4.640   3.540   3.332
 6114SOL    HW118794   4.617   3.504   3.246
 6114SOL    HW218795   4.638   3.635   3.319
 6115SOL     OW18796   4.183   2.353   2.043
 6115SOL    HW118797   4.243   2.424   2.067
 6115SOL    HW218798   4.098   2.396   2.033
 6116SOL     OW18799   3.865   3.005   3.340
 6116SOL    HW118800   3.869   2.957   3.423
 6116SOL    HW218801   3.882   2.938   3.274
 6117SOL     OW18802   5.050   2.906   3.083
 6117SOL    HW118803   5.070   2.841   3.017
 6117SOL    HW218804   4.983   2.962   3.043
 6118SOL     OW18805   5.040   2.725   2.178
 6118SOL    HW118806   4.960   2.691   2.217
 6118SOL    HW218807   5.027   2.715   2.084
 6119SOL     OW18808   4.957   3.593   2.979
 6119SOL    HW118809   5.043   3.619   2.946
 6119SOL    HW218810   4.963   3.498   2.990
 6120SOL     OW18811   3.810   3.130   2.868
 6120SOL    HW118812   3.800   3.145   2.962
 6120SOL    HW218813   3.736   3.074   2.845
 6121SOL     OW18814   4.403   3.532   3.601
 6121SOL    HW118815   4.346   3.608   3.590
 6121SOL    HW218816   4.475   3.547   3.541
 6122SOL     OW18817   0.067   2.029   2.402
 6122SOL    HW118818   0.137   2.004   2.342
 6122SOL    HW218819   0.060   1.955   2.462
 6123SOL     OW18820   5.112   3.434   2.351
 6123SOL    HW118821   5.181   3.479   2.301
 6123SOL    HW218822   5.056   3.505   2.384
 6124SOL     OW18823   3.864   3.660   3.704
 6124SOL    HW118824   3.814   3.592   3.751
 6124SOL    HW218825   3.911   3.706   3.773
 6125SOL     OW18826   5.020   2.783   2.529
 6125SOL    HW118827   5.100   2.731   2.521
 6125SOL    HW218828   5.040   2.865   2.483
 6126SOL     OW18829   4.526   3.138   3.286
 6126SOL    HW118830   4.499   3.179   3.369
 6126SOL    HW218831   4.456   3.159   3.225
 6127SOL     OW18832   4.391   3.488   2.018
 6127SOL    HW118833   4.405   3.502   1.924
 6127SOL    HW218834   4.336   3.410   2.022
 6128SOL     OW18835   3.981   2.174   2.576
 6128SOL    HW118836   3.895   2.210   2.553
 6128SOL    HW218837   3.981   2.170   2.672
 6129SOL     OW18838   4.904   3.469   1.907
 6129SOL    HW118839   4.915   3.374   1.917
 6129SOL    HW218840   4.847   3.478   1.831
 6130SOL     OW18841   4.547   2.869   3.237
 6130SOL    HW118842   4.589   2.863   3.152
 6130SOL    HW218843   4.542   2.963   3.255
 6131SOL     OW18844   4.642   2.773   2.152
 6131SOL    HW118845   4.703   2.805   2.086
 6131SOL    HW218846   4.690   2.705   2.199
 6132SOL     OW18847   4.091   3.168   3.354
 6132SOL    HW118848   4.078   3.243   3.297
 6132SOL    HW218849   4.015   3.112   3.339
 6133SOL     OW18850   4.785   2.971   2.572
 6133SOL    HW118851   4.712   2.922   2.611
 6133SOL    HW218852   4.844   2.904   2.538
 6134SOL     OW18853   4.738   2.102   2.831
 6134SOL    HW118854   4.737   2.055   2.747
 6134SOL    HW218855   4.733   2.032   2.897
 6135SOL     OW18856   4.329   3.350   2.343
 6135SOL    HW118857   4.378   3.300   2.277
 6135SOL    HW218858   4.255   3.386   2.294
 6136SOL     OW18859   3.986   3.204   2.154
 6136SOL    HW118860   3.894   3.201   2.130
 6136SOL    HW218861   3.986   3.244   2.241
 6137SOL     OW18862   3.845   2.897   3.594
 6137SOL    HW118863   3.769   2.859   3.639
 6137SOL    HW218864   3.920   2.852   3.632
 6138SOL     OW18865   4.400   2.056   3.362
 6138SOL    HW118866   4.485   2.035   3.322
 6138SOL    HW218867   4.422   2.090   3.449
 6139SOL     OW18868   3.804   2.190   1.893
 6139SOL    HW118869   3.719   2.171   1.856
 6139SOL    HW218870   3.835   2.268   1.846
 6140SOL     OW18871   5.166   2.720   3.263
 6140SOL    HW118872   5.114   2.779   3.208
 6140SOL    HW218873   5.255   2.727   3.228
 6141SOL     OW18874   3.786   2.016   2.163
 6141SOL    HW118875   3.773   2.095   2.111
 6141SOL    HW218876   3.871   1.982   2.136
 6142SOL     OW18877   4.902   3.188   1.976
 6142SOL    HW118878   4.808   3.168   1.977
 6142SOL    HW218879   4.926   3.195   2.068
 6143SOL     OW18880   4.343   2.693   3.296
 6143SOL    HW118881   4.401   2.768   3.282
 6143SOL    HW218882   4.403   2.618   3.303
 6144SOL     OW18883   4.442   2.420   3.561
 6144SOL    HW118884   4.486   2.479   3.623
 6144SOL    HW218885   4.460   2.332   3.595
 6145SOL     OW18886   5.176   3.061   3.492
 6145SOL    HW118887   5.167   3.076   3.586
 6145SOL    HW218888   5.269   3.077   3.475
 6146SOL     OW18889   4.095   3.603   3.429
 6146SOL    HW118890   4.012   3.649   3.413
 6146SOL    HW218891   4.069   3.520   3.469
 6147SOL     OW18892   4.936   2.183   2.314
 6147SOL    HW118893   4.996   2.109   2.304
 6147SOL    HW218894   4.967   2.228   2.393
 6148SOL     OW18895   4.312   2.595   2.534
 6148SOL    HW118896   4.351   2.681   2.521
 6148SOL    HW218897   4.246   2.587   2.465
 6149SOL     OW18898   4.594   3.226   1.906
 6149SOL    HW118899   4.552   3.256   1.987
 6149SOL    HW218900   4.605   3.306   1.855
 6150SOL     OW18901   4.387   3.646   2.799
 6150SOL    HW118902   4.369   3.738   2.781
 6150SOL    HW218903   4.483   3.639   2.794
 6151SOL     OW18904   4.594   2.834   2.716
 6151SOL    HW118905   4.643   2.760   2.753
 6151SOL    HW218906   4.555   2.877   2.792
 6152SOL     OW18907   4.808   2.848   1.953
 6152SOL    HW118908   4.783   2.898   1.875
 6152SOL    HW218909   4.882   2.794   1.924
 6153SOL     OW18910   3.947   3.158   3.713
 6153SOL    HW118911   3.893   3.089   3.676
 6153SOL    HW218912   3.913   3.172   3.801
 6154SOL     OW18913   3.812   3.091   2.528
 6154SOL    HW118914   3.820   3.048   2.613
 6154SOL    HW218915   3.880   3.052   2.473
 6155SOL     OW18916   4.409   3.268   3.495
 6155SOL    HW118917   4.329   3.227   3.527
 6155SOL    HW218918   4.406   3.357   3.530
 6156SOL     OW18919   4.152   2.295   2.387
 6156SOL    HW118920   4.183   2.224   2.331
 6156SOL    HW218921   4.102   2.251   2.456
 6157SOL     OW18922   0.091   3.376   2.962
 6157SOL    HW118923   0.023   3.360   2.896
 6157SOL    HW218924   0.084   3.301   3.021
 6158SOL     OW18925   4.059   2.421   3.155
 6158SOL    HW118926   4.113   2.364   3.210
 6158SOL    HW218927   4.075   2.393   3.066
 6159SOL     OW18928   4.556   3.440   2.537
 6159SOL    HW118929   4.536   3.504   2.468
 6159SOL    HW218930   4.480   3.381   2.538
 6160SOL     OW18931   5.141   2.082   2.978
 6160SOL    HW118932   5.188   2.019   3.033
 6160SOL    HW218933   5.093   2.137   3.040
 6161SOL     OW18934   4.727   1.877   2.998
 6161SOL    HW118935   4.674   1.811   2.954
 6161SOL    HW218936   4.814   1.839   3.004
 6162SOL     OW18937   4.497   3.195   2.183
 6162SOL    HW118938   4.470   3.104   2.191
 6162SOL    HW218939   4.579   3.200   2.233
 6163SOL     OW18940   4.343   3.418   3.149
 6163SOL    HW118941   4.343   3.501   3.197
 6163SOL    HW218942   4.431   3.412   3.112
 6164SOL     OW18943   5.053   1.905   2.027
 6164SOL    HW118944   5.067   1.866   1.941
 6164SOL    HW218945   4.968   1.870   2.055
 6165SOL     OW18946   5.024   2.321   2.538
 6165SOL    HW118947   4.972   2.401   2.542
 6165SOL    HW218948   5.012   2.280   2.624
 6166SOL     OW18949   0.001   2.091   2.749
 6166SOL    HW118950   5.237   2.078   2.820
 6166SOL    HW218951   5.268   2.167   2.701
 6167SOL     OW18952   3.766   2.927   2.170
 6167SOL    HW118953   3.860   2.920   2.152
 6167SOL    HW218954   3.739   2.838   2.191
 6168SOL     OW18955   4.603   3.517   2.207
 6168SOL    HW118956   4.530   3.504   2.146
 6168SOL    HW218957   4.577   3.592   2.259
 6169SOL     OW18958   3.949   2.484   3.852
 6169SOL    HW118959   3.860   2.481   3.887
 6169SOL    HW218960   3.939   2.461   3.760
 6170SOL     OW18961   3.946   2.147   4.717
 6170SOL    HW118962   3.975   2.111   4.801
 6170SOL    HW218963   3.857   2.114   4.706
 6171SOL     OW18964   3.735   2.242   4.358
 6171SOL    HW118965   3.656   2.270   4.405
 6171SOL    HW218966   3.707   2.166   4.308
 6172SOL     OW18967   4.292   3.159   4.908
 6172SOL    HW118968   4.207   3.165   4.864
 6172SOL    HW218969   4.309   3.248   4.939
 6173SOL     OW18970   5.294   3.393   4.428
 6173SOL    HW118971   5.251   3.358   4.506
 6173SOL    HW218972   5.225   3.394   4.361
 6174SOL     OW18973   4.864   2.561   4.419
 6174SOL    HW118974   4.915   2.641   4.409
 6174SOL    HW218975   4.814   2.573   4.500
 6175SOL     OW18976   4.470   3.000   4.772
 6175SOL    HW118977   4.404   3.037   4.830
 6175SOL    HW218978   4.508   3.075   4.727
 6176SOL     OW18979   4.600   2.624   5.549
 6176SOL    HW118980   4.583   2.694   5.611
 6176SOL    HW218981   4.620   2.669   5.467
 6177SOL     OW18982   4.410   2.858   4.368
 6177SOL    HW118983   4.476   2.851   4.437
 6177SOL    HW218984   4.342   2.913   4.405
 6178SOL     OW18985   4.438   3.012   5.544
 6178SOL    HW118986   4.486   3.089   5.574
 6178SOL    HW218987   4.359   3.047   5.504
 6179SOL     OW18988   4.055   3.280   4.791
 6179SOL    HW118989   3.982   3.240   4.744
 6179SOL    HW218990   4.101   3.331   4.725
 6180SOL     OW18991   5.158   3.343   5.087
 6180SOL    HW118992   5.221   3.412   5.108
 6180SOL    HW218993   5.090   3.350   5.154
 6181SOL     OW18994   4.175   2.256   5.203
 6181SOL    HW118995   4.251   2.198   5.211
 6181SOL    HW218996   4.100   2.200   5.222
 6182SOL     OW18997   3.943   3.578   4.193
 6182SOL    HW118998   3.965   3.653   4.248
 6182SOL    HW218999   4.018   3.570   4.133
 6183SOL     OW19000   4.857   3.203   5.420
 6183SOL    HW119001   4.896   3.198   5.507
 6183SOL    HW219002   4.807   3.123   5.410
 6184SOL     OW19003   3.959   3.308   4.263
 6184SOL    HW119004   3.937   3.401   4.262
 6184SOL    HW219005   3.898   3.270   4.326
 6185SOL     OW19006   3.995   2.953   4.618
 6185SOL    HW119007   3.988   2.865   4.654
 6185SOL    HW219008   3.935   3.005   4.671
 6186SOL     OW19009   4.322   3.657   5.146
 6186SOL    HW119010   4.244   3.638   5.197
 6186SOL    HW219011   4.350   3.744   5.175
 6187SOL     OW19012   4.304   2.846   3.863
 6187SOL    HW119013   4.352   2.892   3.795
 6187SOL    HW219014   4.342   2.878   3.945
 6188SOL     OW19015   3.843   2.515   4.283
 6188SOL    HW119016   3.814   2.427   4.305
 6188SOL    HW219017   3.835   2.564   4.365
 6189SOL     OW19018   3.765   3.453   3.844
 6189SOL    HW119019   3.744   3.362   3.863
 6189SOL    HW219020   3.738   3.501   3.923
 6190SOL     OW19021   0.115   2.797   4.302
 6190SOL    HW119022   0.206   2.771   4.290
 6190SOL    HW219023   0.116   2.892   4.294
 6191SOL     OW19024   3.851   2.607   5.309
 6191SOL    HW119025   3.942   2.635   5.311
 6191SOL    HW219026   3.800   2.688   5.315
 6192SOL     OW19027   4.339   3.253   4.459
 6192SOL    HW119028   4.295   3.168   4.467
 6192SOL    HW219029   4.323   3.280   4.369
 6193SOL     OW19030   4.995   3.090   5.147
 6193SOL    HW119031   5.030   3.025   5.087
 6193SOL    HW219032   5.053   3.088   5.223
 6194SOL     OW19033   4.544   1.867   4.239
 6194SOL    HW119034   4.584   1.950   4.214
 6194SOL    HW219035   4.450   1.886   4.243
 6195SOL     OW19036   3.911   2.822   4.999
 6195SOL    HW119037   3.999   2.786   4.988
 6195SOL    HW219038   3.856   2.771   4.940
 6196SOL     OW19039   4.891   3.673   5.351
 6196SOL    HW119040   4.909   3.735   5.280
 6196SOL    HW219041   4.917   3.588   5.315
 6197SOL     OW19042   4.066   2.110   5.554
 6197SOL    HW119043   4.106   2.195   5.573
 6197SOL    HW219044   3.973   2.123   5.574
 6198SOL     OW19045   5.163   3.302   4.652
 6198SOL    HW119046   5.105   3.309   4.727
 6198SOL    HW219047   5.158   3.210   4.626
 6199SOL     OW19048   4.319   2.579   3.995
 6199SOL    HW119049   4.320   2.663   3.949
 6199SOL    HW219050   4.253   2.591   4.064
 6200SOL     OW19051   4.993   2.200   4.639
 6200SOL    HW119052   4.904   2.171   4.661
 6200SOL    HW219053   5.047   2.165   4.710
 6201SOL     OW19054   4.513   2.479   5.171
 6201SOL    HW119055   4.488   2.453   5.259
 6201SOL    HW219056   4.479   2.410   5.114
 6202SOL     OW19057   5.113   2.347   5.407
 6202SOL    HW119058   5.117   2.380   5.496
 6202SOL    HW219059   5.195   2.299   5.395
 6203SOL     OW19060   4.672   2.747   5.310
 6203SOL    HW119061   4.726   2.678   5.272
 6203SOL    HW219062   4.624   2.784   5.237
 6204SOL     OW19063   4.716   2.271   4.956
 6204SOL    HW119064   4.627   2.287   4.985
 6204SOL    HW219065   4.707   2.228   4.871
 6205SOL     OW19066   4.778   2.561   4.148
 6205SOL    HW119067   4.797   2.555   4.242
 6205SOL    HW219068   4.694   2.516   4.137
 6206SOL     OW19069   3.818   2.677   4.501
 6206SOL    HW119070   3.896   2.675   4.556
 6206SOL    HW219071   3.771   2.756   4.530
 6207SOL     OW19072   3.848   3.731   5.307
 6207SOL    HW119073   3.852   3.707   5.400
 6207SOL    HW219074   3.761   3.701   5.279
 6208SOL     OW19075   4.623   2.211   3.919
 6208SOL    HW119076   4.661   2.274   3.858
 6208SOL    HW219077   4.632   2.127   3.875
 6209SOL     OW19078   5.099   3.017   4.278
 6209SOL    HW119079   5.189   3.028   4.247
 6209SOL    HW219080   5.046   3.070   4.219
 6210SOL     OW19081   4.275   2.037   4.622
 6210SOL    HW119082   4.277   2.069   4.712
 6210SOL    HW219083   4.273   2.116   4.568
 6211SOL     OW19084   4.724   3.304   4.193
 6211SOL    HW119085   4.690   3.378   4.143
 6211SOL    HW219086   4.700   3.324   4.284
 6212SOL     OW19087   4.078   3.676   4.595
 6212SOL    HW119088   4.123   3.592   4.600
 6212SOL    HW219089   4.147   3.741   4.612
 6213SOL     OW19090   4.936   3.400   5.240
 6213SOL    HW119091   4.925   3.329   5.303
 6213SOL    HW219092   4.868   3.384   5.174
 6214SOL     OW19093   4.039   2.822   3.978
 6214SOL    HW119094   4.121   2.841   3.932
 6214SOL    HW219095   4.009   2.739   3.941
 6215SOL     OW19096   4.194   3.130   5.463
 6215SOL    HW119097   4.168   3.134   5.371
 6215SOL    HW219098   4.111   3.127   5.511
 6216SOL     OW19099   4.829   3.636   3.964
 6216SOL    HW119100   4.754   3.594   4.006
 6216SOL    HW219101   4.855   3.576   3.894
 6217SOL     OW19102   3.927   2.132   5.228
 6217SOL    HW119103   3.847   2.184   5.231
 6217SOL    HW219104   3.903   2.048   5.267
 6218SOL     OW19105   4.187   3.598   4.043
 6218SOL    HW119106   4.232   3.654   4.106
 6218SOL    HW219107   4.256   3.563   3.987
 6219SOL     OW19108   5.113   1.967   4.147
 6219SOL    HW119109   5.096   1.948   4.055
 6219SOL    HW219110   5.207   1.986   4.150
 6220SOL     OW19111   3.978   3.651   4.953
 6220SOL    HW119112   4.030   3.582   4.993
 6220SOL    HW219113   3.972   3.626   4.861
 6221SOL     OW19114   4.664   3.561   4.619
 6221SOL    HW119115   4.746   3.514   4.636
 6221SOL    HW219116   4.622   3.510   4.550
 6222SOL     OW19117   4.121   2.556   4.197
 6222SOL    HW119118   4.138   2.463   4.211
 6222SOL    HW219119   4.027   2.566   4.213
 6223SOL     OW19120   4.370   1.979   3.826
 6223SOL    HW119121   4.429   1.907   3.843
 6223SOL    HW219122   4.315   1.949   3.753
 6224SOL     OW19123   4.486   2.142   5.481
 6224SOL    HW119124   4.567   2.091   5.477
 6224SOL    HW219125   4.440   2.109   5.558
 6225SOL     OW19126   4.597   3.385   4.918
 6225SOL    HW119127   4.582   3.348   4.832
 6225SOL    HW219128   4.668   3.332   4.955
 6226SOL     OW19129   5.056   2.456   5.156
 6226SOL    HW119130   5.086   2.426   5.243
 6226SOL    HW219131   5.100   2.539   5.143
 6227SOL     OW19132   4.541   3.251   4.670
 6227SOL    HW119133   4.626   3.239   4.628
 6227SOL    HW219134   4.479   3.258   4.598
 6228SOL     OW19135   4.652   2.371   4.624
 6228SOL    HW119136   4.628   2.362   4.531
 6228SOL    HW219137   4.681   2.283   4.649
 6229SOL     OW19138   4.277   1.925   4.220
 6229SOL    HW119139   4.197   1.925   4.273
 6229SOL    HW219140   4.268   2.002   4.164
 6230SOL     OW19141   5.130   3.047   3.768
 6230SOL    HW119142   5.129   2.964   3.816
 6230SOL    HW219143   5.045   3.086   3.788
 6231SOL     OW19144   4.013   1.910   3.910
 6231SOL    HW119145   4.070   1.975   3.868
 6231SOL    HW219146   4.073   1.849   3.952
 6232SOL     OW19147   4.665   2.112   4.179
 6232SOL    HW119148   4.639   2.149   4.094
 6232SOL    HW219149   4.759   2.127   4.184
 6233SOL     OW19150   4.800   2.547   5.182
 6233SOL    HW119151   4.736   2.476   5.183
 6233SOL    HW219152   4.885   2.503   5.173
 6234SOL     OW19153   4.935   3.434   4.518
 6234SOL    HW119154   4.955   3.502   4.454
 6234SOL    HW219155   5.019   3.414   4.560
 6235SOL     OW19156   4.198   3.015   4.450
 6235SOL    HW119157   4.131   2.994   4.515
 6235SOL    HW219158   4.153   3.003   4.366
 6236SOL     OW19159   4.990   3.656   4.333
 6236SOL    HW119160   5.031   3.717   4.271
 6236SOL    HW219161   4.921   3.708   4.375
 6237SOL     OW19162   4.747   2.397   3.750
 6237SOL    HW119163   4.702   2.479   3.730
 6237SOL    HW219164   4.808   2.419   3.821
 6238SOL     OW19165   3.810   2.413   5.121
 6238SOL    HW119166   3.902   2.414   5.092
 6238SOL    HW219167   3.804   2.484   5.185
 6239SOL     OW19168   4.281   2.090   4.895
 6239SOL    HW119169   4.323   2.016   4.940
 6239SOL    HW219170   4.190   2.086   4.922
 6240SOL     OW19171   4.591   2.320   4.361
 6240SOL    HW119172   4.546   2.376   4.298
 6240SOL    HW219173   4.613   2.241   4.312
 6241SOL     OW19174   4.741   1.916   4.471
 6241SOL    HW119175   4.682   1.911   4.396
 6241SOL    HW219176   4.717   1.841   4.525
 6242SOL     OW19177   5.153   3.040   4.575
 6242SOL    HW119178   5.100   2.962   4.592
 6242SOL    HW219179   5.164   3.042   4.480
 6243SOL     OW19180   4.213   3.283   3.874
 6243SOL    HW119181   4.139   3.255   3.927
 6243SOL    HW219182   4.206   3.233   3.793
 6244SOL     OW19183   5.130   2.418   3.810
 6244SOL    HW119184   5.053   2.410   3.866
 6244SOL    HW219185   5.202   2.386   3.865
 6245SOL     OW19186   4.250   2.124   4.035
 6245SOL    HW119187   4.300   2.079   3.966
 6245SOL    HW219188   4.223   2.207   3.996
 6246SOL     OW19189   4.774   3.218   5.057
 6246SOL    HW119190   4.698   3.185   5.105
 6246SOL    HW219191   4.849   3.173   5.096
 6247SOL     OW19192   0.008   3.473   5.336
 6247SOL    HW119193   0.044   3.472   5.247
 6247SOL    HW219194   0.082   3.446   5.391
 6248SOL     OW19195   4.860   3.073   4.828
 6248SOL    HW119196   4.795   3.105   4.890
 6248SOL    HW219197   4.829   3.103   4.742
 6249SOL     OW19198   4.641   1.956   5.117
 6249SOL    HW119199   4.663   1.938   5.025
 6249SOL    HW219200   4.721   1.994   5.153
 6250SOL     OW19201   4.709   2.974   5.451
 6250SOL    HW119202   4.618   2.992   5.474
 6250SOL    HW219203   4.704   2.897   5.394
 6251SOL     OW19204   4.434   2.925   4.095
 6251SOL    HW119205   4.419   2.904   4.187
 6251SOL    HW219206   4.510   2.871   4.070
 6252SOL     OW19207   4.146   2.682   4.978
 6252SOL    HW119208   4.214   2.691   5.044
 6252SOL    HW219209   4.112   2.593   4.990
 6253SOL     OW19210   4.985   2.235   5.006
 6253SOL    HW119211   5.020   2.315   5.045
 6253SOL    HW219212   4.895   2.257   4.982
 6254SOL     OW19213   3.800   3.433   5.078
 6254SOL    HW119214   3.773   3.507   5.024
 6254SOL    HW219215   3.895   3.432   5.072
 6255SOL     OW19216   4.064   2.981   4.212
 6255SOL    HW119217   4.064   3.054   4.150
 6255SOL    HW219218   4.061   2.903   4.157
 6256SOL     OW19219   4.271   2.394   4.584
 6256SOL    HW119220   4.285   2.452   4.509
 6256SOL    HW219221   4.339   2.419   4.646
 6257SOL     OW19222   4.970   3.214   4.110
 6257SOL    HW119223   5.025   3.286   4.142
 6257SOL    HW219224   4.883   3.234   4.144
 6258SOL     OW19225   5.003   3.320   4.866
 6258SOL    HW119226   5.054   3.321   4.947
 6258SOL    HW219227   4.949   3.241   4.873
 6259SOL     OW19228   4.070   3.391   5.034
 6259SOL    HW119229   4.060   3.347   4.950
 6259SOL    HW219230   4.165   3.403   5.043
 6260SOL     OW19231   4.141   2.607   5.327
 6260SOL    HW119232   4.205   2.650   5.270
 6260SOL    HW219233   4.179   2.521   5.344
 6261SOL     OW19234   4.718   1.997   5.479
 6261SOL    HW119235   4.777   2.068   5.458
 6261SOL    HW219236   4.764   1.918   5.452
 6262SOL     OW19237   4.221   1.898   5.475
 6262SOL    HW119238   4.174   1.845   5.410
 6262SOL    HW219239   4.165   1.974   5.490
 6263SOL     OW19240   4.310   2.736   4.758
 6263SOL    HW119241   4.343   2.826   4.759
 6263SOL    HW219242   4.253   2.730   4.834
 6264SOL     OW19243   5.087   2.715   4.758
 6264SOL    HW119244   5.010   2.687   4.707
 6264SOL    HW219245   5.150   2.644   4.746
 6265SOL     OW19246   4.920   2.392   3.982
 6265SOL    HW119247   4.927   2.313   4.036
 6265SOL    HW219248   4.879   2.456   4.040
 6266SOL     OW19249   4.020   2.058   4.971
 6266SOL    HW119250   3.984   2.089   5.054
 6266SOL    HW219251   4.002   1.964   4.971
 6267SOL     OW19252   3.754   3.172   4.999
 6267SOL    HW119253   3.793   3.116   5.066
 6267SOL    HW219254   3.769   3.261   5.030
 6268SOL     OW19255   4.444   2.491   4.777
 6268SOL    HW119256   4.521   2.479   4.721
 6268SOL    HW219257   4.415   2.580   4.759
 6269SOL     OW19258   4.033   1.922   4.348
 6269SOL    HW119259   4.010   2.013   4.369
 6269SOL    HW219260   4.040   1.880   4.434
 6270SOL     OW19261   0.031   2.276   4.076
 6270SOL    HW119262   0.043   2.193   4.122
 6270SOL    HW219263   0.036   2.342   4.144
 6271SOL     OW19264   4.751   2.620   4.679
 6271SOL    HW119265   4.745   2.637   4.773
 6271SOL    HW219266   4.725   2.528   4.670
 6272SOL     OW19267   4.694   3.423   5.441
 6272SOL    HW119268   4.682   3.470   5.358
 6272SOL    HW219269   4.741   3.344   5.418
 6273SOL     OW19270   4.076   2.779   5.533
 6273SOL    HW119271   4.156   2.798   5.581
 6273SOL    HW219272   4.102   2.716   5.466
 6274SOL     OW19273   5.030   2.689   3.761
 6274SOL    HW119274   5.067   2.601   3.765
 6274SOL    HW219275   5.058   2.723   3.676
 6275SOL     OW19276   4.791   3.198   4.583
 6275SOL    HW119277   4.797   3.127   4.519
 6275SOL    HW219278   4.844   3.268   4.545
 6276SOL     OW19279   4.033   2.672   4.674
 6276SOL    HW119280   4.126   2.691   4.665
 6276SOL    HW219281   4.030   2.581   4.703
 6277SOL     OW19282   4.052   2.393   4.737
 6277SOL    HW119283   4.015   2.305   4.724
 6277SOL    HW219284   4.128   2.396   4.680
 6278SOL     OW19285   4.857   2.235   5.409
 6278SOL    HW119286   4.808   2.289   5.471
 6278SOL    HW219287   4.943   2.276   5.404
 6279SOL     OW19288   4.885   2.059   5.196
 6279SOL    HW119289   4.873   2.121   5.267
 6279SOL    HW219290   4.925   2.110   5.126
 6280SOL     OW19291   3.738   3.179   3.918
 6280SOL    HW119292   3.651   3.197   3.884
 6280SOL    HW219293   3.732   3.090   3.954
 6281SOL     OW19294   3.814   3.645   4.667
 6281SOL    HW119295   3.784   3.567   4.619
 6281SOL    HW219296   3.903   3.659   4.634
 6282SOL     OW19297   4.216   3.436   4.629
 6282SOL    HW119298   4.285   3.499   4.652
 6282SOL    HW219299   4.259   3.374   4.570
 6283SOL     OW19300   4.696   2.650   4.946
 6283SOL    HW119301   4.755   2.631   5.019
 6283SOL    HW219302   4.613   2.609   4.972
 6284SOL     OW19303   3.762   2.413   4.843
 6284SOL    HW119304   3.839   2.403   4.787
 6284SOL    HW219305   3.798   2.409   4.932
 6285SOL     OW19306   3.916   2.384   5.456
 6285SOL    HW119307   3.969   2.339   5.390
 6285SOL    HW219308   3.880   2.460   5.410
 6286SOL     OW19309   5.120   2.793   5.390
 6286SOL    HW119310   5.125   2.887   5.376
 6286SOL    HW219311   5.124   2.756   5.302
 6287SOL     OW19312   4.542   2.432   4.090
 6287SOL    HW119313   4.546   2.358   4.030
 6287SOL    HW219314   4.467   2.484   4.059
 6288SOL     OW19315   3.960   3.410   5.447
 6288SOL    HW119316   3.940   3.475   5.514
 6288SOL    HW219317   3.969   3.328   5.494
 6289SOL     OW19318   4.437   2.307   4.976
 6289SOL    HW119319   4.379   2.235   4.951
 6289SOL    HW219320   4.429   2.371   4.906
 6290SOL     OW19321   4.638   3.541   5.195
 6290SOL    HW119322   4.617   3.504   5.109
 6290SOL    HW219323   4.638   3.635   5.181
 6291SOL     OW19324   4.184   2.353   3.906
 6291SOL    HW119325   4.243   2.425   3.930
 6291SOL    HW219326   4.099   2.396   3.895
 6292SOL     OW19327   3.864   3.004   5.195
 6292SOL    HW119328   3.867   2.958   5.278
 6292SOL    HW219329   3.882   2.937   5.129
 6293SOL     OW19330   5.050   2.906   4.945
 6293SOL    HW119331   5.070   2.840   4.879
 6293SOL    HW219332   4.983   2.962   4.905
 6294SOL     OW19333   5.041   2.725   4.040
 6294SOL    HW119334   4.960   2.691   4.079
 6294SOL    HW219335   5.028   2.715   3.946
 6295SOL     OW19336   4.957   3.593   4.841
 6295SOL    HW119337   5.043   3.619   4.808
 6295SOL    HW219338   4.963   3.498   4.852
 6296SOL     OW19339   3.812   3.129   4.734
 6296SOL    HW119340   3.788   3.140   4.826
 6296SOL    HW219341   3.745   3.070   4.699
 6297SOL     OW19342   4.403   3.532   5.463
 6297SOL    HW119343   4.347   3.609   5.451
 6297SOL    HW219344   4.476   3.547   5.403
 6298SOL     OW19345   0.067   2.029   4.264
 6298SOL    HW119346   0.135   2.004   4.202
 6298SOL    HW219347   0.061   1.955   4.325
 6299SOL     OW19348   5.112   3.434   4.213
 6299SOL    HW119349   5.181   3.479   4.163
 6299SOL    HW219350   5.057   3.505   4.246
 6300SOL     OW19351   3.864   3.657   5.567
 6300SOL    HW119352   3.814   3.591   5.614
 6300SOL    HW219353   3.911   3.705   5.635
 6301SOL     OW19354   5.021   2.783   4.391
 6301SOL    HW119355   5.100   2.731   4.383
 6301SOL    HW219356   5.040   2.864   4.345
 6302SOL     OW19357   4.527   3.138   5.149
 6302SOL    HW119358   4.499   3.179   5.231
 6302SOL    HW219359   4.458   3.159   5.086
 6303SOL     OW19360   4.391   3.488   3.880
 6303SOL    HW119361   4.405   3.502   3.786
 6303SOL    HW219362   4.336   3.410   3.884
 6304SOL     OW19363   3.986   2.174   4.439
 6304SOL    HW119364   3.901   2.208   4.413
 6304SOL    HW219365   3.982   2.170   4.535
 6305SOL     OW19366   4.904   3.469   3.769
 6305SOL    HW119367   4.915   3.374   3.779
 6305SOL    HW219368   4.846   3.478   3.693
 6306SOL     OW19369   4.547   2.869   5.100
 6306SOL    HW119370   4.589   2.862   5.014
 6306SOL    HW219371   4.543   2.963   5.117
 6307SOL     OW19372   4.642   2.774   4.015
 6307SOL    HW119373   4.703   2.806   3.949
 6307SOL    HW219374   4.690   2.705   4.060
 6308SOL     OW19375   4.090   3.167   5.218
 6308SOL    HW119376   4.080   3.243   5.160
 6308SOL    HW219377   4.013   3.113   5.200
 6309SOL     OW19378   4.784   2.972   4.434
 6309SOL    HW119379   4.712   2.922   4.473
 6309SOL    HW219380   4.843   2.905   4.399
 6310SOL     OW19381   4.738   2.102   4.693
 6310SOL    HW119382   4.737   2.055   4.609
 6310SOL    HW219383   4.733   2.032   4.759
 6311SOL     OW19384   4.329   3.351   4.205
 6311SOL    HW119385   4.379   3.300   4.140
 6311SOL    HW219386   4.254   3.384   4.157
 6312SOL     OW19387   3.992   3.203   4.021
 6312SOL    HW119388   3.900   3.199   3.993
 6312SOL    HW219389   3.989   3.244   4.107
 6313SOL     OW19390   3.838   2.893   5.446
 6313SOL    HW119391   3.762   2.867   5.498
 6313SOL    HW219392   3.913   2.851   5.489
 6314SOL     OW19393   4.400   2.057   5.224
 6314SOL    HW119394   4.484   2.035   5.184
 6314SOL    HW219395   4.423   2.090   5.311
 6315SOL     OW19396   3.804   2.189   3.755
 6315SOL    HW119397   3.714   2.174   3.725
 6315SOL    HW219398   3.832   2.267   3.706
 6316SOL     OW19399   5.166   2.720   5.125
 6316SOL    HW119400   5.114   2.779   5.070
 6316SOL    HW219401   5.255   2.727   5.090
 6317SOL     OW19402   3.786   2.015   4.026
 6317SOL    HW119403   3.772   2.094   3.975
 6317SOL    HW219404   3.871   1.982   3.997
 6318SOL     OW19405   4.901   3.188   3.837
 6318SOL    HW119406   4.808   3.169   3.838
 6318SOL    HW219407   4.925   3.195   3.930
 6319SOL     OW19408   4.345   2.693   5.160
 6319SOL    HW119409   4.402   2.768   5.145
 6319SOL    HW219410   4.404   2.618   5.167
 6320SOL     OW19411   4.441   2.420   5.424
 6320SOL    HW119412   4.486   2.479   5.485
 6320SOL    HW219413   4.459   2.333   5.457
 6321SOL     OW19414   5.176   3.061   5.354
 6321SOL    HW119415   5.167   3.076   5.449
 6321SOL    HW219416   5.269   3.076   5.337
 6322SOL     OW19417   4.095   3.603   5.290
 6322SOL    HW119418   4.012   3.648   5.275
 6322SOL    HW219419   4.070   3.520   5.331
 6323SOL     OW19420   4.936   2.183   4.176
 6323SOL    HW119421   4.996   2.109   4.166
 6323SOL    HW219422   4.967   2.228   4.255
 6324SOL     OW19423   4.311   2.596   4.397
 6324SOL    HW119424   4.351   2.682   4.383
 6324SOL    HW219425   4.246   2.587   4.328
 6325SOL     OW19426   4.595   3.226   3.769
 6325SOL    HW119427   4.552   3.256   3.849
 6325SOL    HW219428   4.605   3.306   3.717
 6326SOL     OW19429   4.387   3.646   4.662
 6326SOL    HW119430   4.369   3.738   4.643
 6326SOL    HW219431   4.483   3.639   4.656
 6327SOL     OW19432   4.594   2.834   4.578
 6327SOL    HW119433   4.643   2.760   4.615
 6327SOL    HW219434   4.555   2.876   4.654
 6328SOL     OW19435   4.809   2.848   3.815
 6328SOL    HW119436   4.783   2.898   3.737
 6328SOL    HW219437   4.882   2.794   3.786
 6329SOL     OW19438   3.950   3.161   5.578
 6329SOL    HW119439   3.887   3.097   5.546
 6329SOL    HW219440   3.927   3.173   5.670
 6330SOL     OW19441   3.810   3.095   4.388
 6330SOL    HW119442   3.814   3.044   4.469
 6330SOL    HW219443   3.876   3.055   4.331
 6331SOL     OW19444   4.409   3.268   5.356
 6331SOL    HW119445   4.329   3.228   5.390
 6331SOL    HW219446   4.407   3.357   5.392
 6332SOL     OW19447   4.155   2.295   4.250
 6332SOL    HW119448   4.184   2.224   4.192
 6332SOL    HW219449   4.105   2.251   4.319
 6333SOL     OW19450   0.090   3.376   4.824
 6333SOL    HW119451   0.023   3.360   4.758
 6333SOL    HW219452   0.084   3.300   4.883
 6334SOL     OW19453   4.060   2.422   5.017
 6334SOL    HW119454   4.114   2.365   5.071
 6334SOL    HW219455   4.076   2.394   4.927
 6335SOL     OW19456   4.556   3.440   4.398
 6335SOL    HW119457   4.537   3.504   4.330
 6335SOL    HW219458   4.480   3.382   4.398
 6336SOL     OW19459   5.141   2.082   4.840
 6336SOL    HW119460   5.187   2.019   4.895
 6336SOL    HW219461   5.093   2.137   4.902
 6337SOL     OW19462   4.727   1.877   4.860
 6337SOL    HW119463   4.674   1.811   4.816
 6337SOL    HW219464   4.814   1.839   4.866
 6338SOL     OW19465   4.497   3.195   4.046
 6338SOL    HW119466   4.469   3.104   4.053
 6338SOL    HW219467   4.579   3.200   4.094
 6339SOL     OW19468   4.343   3.418   5.011
 6339SOL    HW119469   4.343   3.501   5.058
 6339SOL    HW219470   4.431   3.411   4.975
 6340SOL     OW19471   5.054   1.904   3.889
 6340SOL    HW119472   5.067   1.866   3.802
 6340SOL    HW219473   4.969   1.870   3.917
 6341SOL     OW19474   5.024   2.321   4.400
 6341SOL    HW119475   4.972   2.401   4.404
 6341SOL    HW219476   5.012   2.280   4.486
 6342SOL     OW19477   0.001   2.092   4.612
 6342SOL    HW119478   5.237   2.078   4.682
 6342SOL    HW219479   5.268   2.167   4.563
 6343SOL     OW19480   3.774   2.929   4.032
 6343SOL    HW119481   3.867   2.916   4.012
 6343SOL    HW219482   3.742   2.841   4.054
 6344SOL     OW19483   4.603   3.517   4.069
 6344SOL    HW119484   4.530   3.503   4.008
 6344SOL    HW219485   4.577   3.592   4.121
 6345SOL     OW19486   3.947   2.487   5.715
 6345SOL    HW119487   3.858   2.481   5.750
 6345SOL    HW219488   3.938   2.463   5.623
 6346SOL     OW19489   3.948   2.146   6.579
 6346SOL    HW119490   3.977   2.111   6.663
 6346SOL    HW219491   3.859   2.113   6.568
 6347SOL     OW19492   3.723   2.247   6.224
 6347SOL    HW119493   3.642   2.274   6.267
 6347SOL    HW219494   3.699   2.169   6.174
 6348SOL     OW19495   4.292   3.159   6.770
 6348SOL    HW119496   4.206   3.165   6.728
 6348SOL    HW219497   4.309   3.248   6.801
 6349SOL     OW19498   5.294   3.392   6.290
 6349SOL    HW119499   5.251   3.358   6.368
 6349SOL    HW219500   5.225   3.393   6.223
 6350SOL     OW19501   4.864   2.561   6.281
 6350SOL    HW119502   4.914   2.641   6.271
 6350SOL    HW219503   4.814   2.573   6.362
 6351SOL     OW19504   4.469   2.999   6.633
 6351SOL    HW119505   4.403   3.037   6.692
 6351SOL    HW219506   4.508   3.075   6.589
 6352SOL     OW19507   4.597   2.624   7.406
 6352SOL    HW119508   4.575   2.696   7.465
 6352SOL    HW219509   4.621   2.667   7.323
 6353SOL     OW19510   4.410   2.858   6.230
 6353SOL    HW119511   4.476   2.851   6.299
 6353SOL    HW219512   4.341   2.913   6.268
 6354SOL     OW19513   4.439   3.014   7.405
 6354SOL    HW119514   4.487   3.091   7.435
 6354SOL    HW219515   4.360   3.049   7.364
 6355SOL     OW19516   4.056   3.279   6.653
 6355SOL    HW119517   3.981   3.240   6.607
 6355SOL    HW219518   4.101   3.331   6.586
 6356SOL     OW19519   5.159   3.343   6.949
 6356SOL    HW119520   5.221   3.412   6.971
 6356SOL    HW219521   5.090   3.350   7.015
 6357SOL     OW19522   4.175   2.255   7.065
 6357SOL    HW119523   4.251   2.197   7.074
 6357SOL    HW219524   4.100   2.199   7.084
 6358SOL     OW19525   3.944   3.578   6.054
 6358SOL    HW119526   3.965   3.653   6.110
 6358SOL    HW219527   4.019   3.570   5.995
 6359SOL     OW19528   4.856   3.202   7.277
 6359SOL    HW119529   4.895   3.199   7.365
 6359SOL    HW219530   4.807   3.121   7.270
 6360SOL     OW19531   3.956   3.306   6.122
 6360SOL    HW119532   3.938   3.400   6.123
 6360SOL    HW219533   3.897   3.271   6.189
 6361SOL     OW19534   3.990   2.953   6.477
 6361SOL    HW119535   3.986   2.865   6.515
 6361SOL    HW219536   3.932   3.006   6.532
 6362SOL     OW19537   4.322   3.657   7.007
 6362SOL    HW119538   4.244   3.638   7.059
 6362SOL    HW219539   4.350   3.744   7.037
 6363SOL     OW19540   4.302   2.847   5.726
 6363SOL    HW119541   4.351   2.892   5.657
 6363SOL    HW219542   4.342   2.878   5.807
 6364SOL     OW19543   3.841   2.518   6.147
 6364SOL    HW119544   3.812   2.429   6.168
 6364SOL    HW219545   3.833   2.566   6.229
 6365SOL     OW19546   3.762   3.452   5.707
 6365SOL    HW119547   3.744   3.361   5.728
 6365SOL    HW219548   3.737   3.500   5.786
 6366SOL     OW19549   0.114   2.797   6.163
 6366SOL    HW119550   0.205   2.770   6.152
 6366SOL    HW219551   0.116   2.893   6.156
 6367SOL     OW19552   3.848   2.606   7.171
 6367SOL    HW119553   3.938   2.638   7.173
 6367SOL    HW219554   3.795   2.685   7.173
 6368SOL     OW19555   4.339   3.253   6.321
 6368SOL    HW119556   4.295   3.168   6.329
 6368SOL    HW219557   4.323   3.280   6.231
 6369SOL     OW19558   4.995   3.091   7.008
 6369SOL    HW119559   5.030   3.025   6.949
 6369SOL    HW219560   5.053   3.088   7.084
 6370SOL     OW19561   4.544   1.867   6.100
 6370SOL    HW119562   4.584   1.950   6.075
 6370SOL    HW219563   4.450   1.886   6.105
 6371SOL     OW19564   3.912   2.823   6.866
 6371SOL    HW119565   3.998   2.784   6.850
 6371SOL    HW219566   3.853   2.775   6.807
 6372SOL     OW19567   4.891   3.674   7.212
 6372SOL    HW119568   4.909   3.735   7.141
 6372SOL    HW219569   4.919   3.589   7.178
 6373SOL     OW19570   4.065   2.108   7.416
 6373SOL    HW119571   4.105   2.194   7.431
 6373SOL    HW219572   3.972   2.121   7.435
 6374SOL     OW19573   5.163   3.302   6.514
 6374SOL    HW119574   5.105   3.309   6.590
 6374SOL    HW219575   5.158   3.210   6.488
 6375SOL     OW19576   4.319   2.579   5.857
 6375SOL    HW119577   4.321   2.663   5.811
 6375SOL    HW219578   4.253   2.591   5.925
 6376SOL     OW19579   4.993   2.200   6.501
 6376SOL    HW119580   4.904   2.171   6.523
 6376SOL    HW219581   5.047   2.165   6.572
 6377SOL     OW19582   4.512   2.480   7.033
 6377SOL    HW119583   4.487   2.453   7.121
 6377SOL    HW219584   4.479   2.410   6.977
 6378SOL     OW19585   5.114   2.348   7.269
 6378SOL    HW119586   5.118   2.380   7.359
 6378SOL    HW219587   5.197   2.300   7.257
 6379SOL     OW19588   4.673   2.748   7.171
 6379SOL    HW119589   4.727   2.679   7.132
 6379SOL    HW219590   4.625   2.785   7.098
 6380SOL     OW19591   4.717   2.271   6.818
 6380SOL    HW119592   4.627   2.288   6.847
 6380SOL    HW219593   4.707   2.228   6.733
 6381SOL     OW19594   4.778   2.561   6.010
 6381SOL    HW119595   4.797   2.555   6.104
 6381SOL    HW219596   4.694   2.515   6.000
 6382SOL     OW19597   3.811   2.685   6.363
 6382SOL    HW119598   3.892   2.677   6.414
 6382SOL    HW219599   3.767   2.762   6.400
 6383SOL     OW19600   3.848   3.732   7.170
 6383SOL    HW119601   3.852   3.708   7.263
 6383SOL    HW219602   3.763   3.698   7.141
 6384SOL     OW19603   4.623   2.211   5.781
 6384SOL    HW119604   4.661   2.274   5.720
 6384SOL    HW219605   4.633   2.127   5.737
 6385SOL     OW19606   5.099   3.017   6.140
 6385SOL    HW119607   5.189   3.028   6.110
 6385SOL    HW219608   5.047   3.070   6.080
 6386SOL     OW19609   4.275   2.038   6.484
 6386SOL    HW119610   4.277   2.069   6.574
 6386SOL    HW219611   4.275   2.118   6.431
 6387SOL     OW19612   4.724   3.304   6.055
 6387SOL    HW119613   4.690   3.378   6.005
 6387SOL    HW219614   4.701   3.323   6.146
 6388SOL     OW19615   4.078   3.676   6.457
 6388SOL    HW119616   4.123   3.592   6.462
 6388SOL    HW219617   4.146   3.741   6.475
 6389SOL     OW19618   4.936   3.400   7.101
 6389SOL    HW119619   4.925   3.329   7.164
 6389SOL    HW219620   4.867   3.386   7.036
 6390SOL     OW19621   4.038   2.822   5.840
 6390SOL    HW119622   4.121   2.841   5.796
 6390SOL    HW219623   4.009   2.739   5.803
 6391SOL     OW19624   4.193   3.128   7.324
 6391SOL    HW119625   4.167   3.133   7.232
 6391SOL    HW219626   4.110   3.125   7.372
 6392SOL     OW19627   4.829   3.636   5.825
 6392SOL    HW119628   4.754   3.594   5.868
 6392SOL    HW219629   4.854   3.576   5.755
 6393SOL     OW19630   3.926   2.133   7.090
 6393SOL    HW119631   3.845   2.183   7.092
 6393SOL    HW219632   3.903   2.049   7.130
 6394SOL     OW19633   4.187   3.598   5.905
 6394SOL    HW119634   4.232   3.654   5.968
 6394SOL    HW219635   4.257   3.564   5.849
 6395SOL     OW19636   5.113   1.967   6.009
 6395SOL    HW119637   5.096   1.949   5.917
 6395SOL    HW219638   5.207   1.986   6.013
 6396SOL     OW19639   3.980   3.652   6.815
 6396SOL    HW119640   4.030   3.582   6.856
 6396SOL    HW219641   3.972   3.625   6.723
 6397SOL     OW19642   4.664   3.561   6.481
 6397SOL    HW119643   4.746   3.514   6.499
 6397SOL    HW219644   4.622   3.510   6.412
 6398SOL     OW19645   4.121   2.556   6.059
 6398SOL    HW119646   4.137   2.463   6.072
 6398SOL    HW219647   4.027   2.567   6.075
 6399SOL     OW19648   4.369   1.980   5.688
 6399SOL    HW119649   4.429   1.907   5.705
 6399SOL    HW219650   4.315   1.949   5.615
 6400SOL     OW19651   4.485   2.141   7.344
 6400SOL    HW119652   4.566   2.090   7.340
 6400SOL    HW219653   4.443   2.113   7.425
 6401SOL     OW19654   4.597   3.386   6.780
 6401SOL    HW119655   4.582   3.348   6.693
 6401SOL    HW219656   4.667   3.332   6.817
 6402SOL     OW19657   5.056   2.456   7.019
 6402SOL    HW119658   5.086   2.427   7.105
 6402SOL    HW219659   5.100   2.539   7.005
 6403SOL     OW19660   4.541   3.251   6.532
 6403SOL    HW119661   4.626   3.239   6.490
 6403SOL    HW219662   4.479   3.258   6.460
 6404SOL     OW19663   4.652   2.371   6.486
 6404SOL    HW119664   4.628   2.362   6.393
 6404SOL    HW219665   4.681   2.283   6.512
 6405SOL     OW19666   4.276   1.925   6.082
 6405SOL    HW119667   4.197   1.925   6.135
 6405SOL    HW219668   4.268   2.002   6.026
 6406SOL     OW19669   5.130   3.046   5.630
 6406SOL    HW119670   5.131   2.964   5.679
 6406SOL    HW219671   5.045   3.086   5.650
 6407SOL     OW19672   4.013   1.910   5.772
 6407SOL    HW119673   4.070   1.974   5.729
 6407SOL    HW219674   4.073   1.848   5.814
 6408SOL     OW19675   4.665   2.112   6.041
 6408SOL    HW119676   4.640   2.149   5.956
 6408SOL    HW219677   4.759   2.126   6.046
 6409SOL     OW19678   4.800   2.547   7.043
 6409SOL    HW119679   4.736   2.476   7.045
 6409SOL    HW219680   4.885   2.503   7.035
 6410SOL     OW19681   4.936   3.433   6.379
 6410SOL    HW119682   4.956   3.502   6.316
 6410SOL    HW219683   5.019   3.414   6.422
 6411SOL     OW19684   4.197   3.015   6.312
 6411SOL    HW119685   4.130   2.994   6.378
 6411SOL    HW219686   4.152   3.002   6.228
 6412SOL     OW19687   4.990   3.656   6.195
 6412SOL    HW119688   5.031   3.717   6.133
 6412SOL    HW219689   4.921   3.708   6.237
 6413SOL     OW19690   4.747   2.397   5.612
 6413SOL    HW119691   4.703   2.479   5.593
 6413SOL    HW219692   4.808   2.419   5.683
 6414SOL     OW19693   3.808   2.416   6.979
 6414SOL    HW119694   3.900   2.416   6.952
 6414SOL    HW219695   3.803   2.485   7.044
 6415SOL     OW19696   4.281   2.089   6.757
 6415SOL    HW119697   4.324   2.017   6.803
 6415SOL    HW219698   4.190   2.085   6.785
 6416SOL     OW19699   4.591   2.320   6.223
 6416SOL    HW119700   4.547   2.376   6.160
 6416SOL    HW219701   4.613   2.241   6.174
 6417SOL     OW19702   4.740   1.916   6.333
 6417SOL    HW119703   4.682   1.911   6.258
 6417SOL    HW219704   4.717   1.841   6.388
 6418SOL     OW19705   5.153   3.040   6.437
 6418SOL    HW119706   5.101   2.962   6.454
 6418SOL    HW219707   5.163   3.041   6.342
 6419SOL     OW19708   4.213   3.284   5.737
 6419SOL    HW119709   4.137   3.255   5.788
 6419SOL    HW219710   4.208   3.232   5.656
 6420SOL     OW19711   5.130   2.419   5.672
 6420SOL    HW119712   5.053   2.410   5.728
 6420SOL    HW219713   5.202   2.386   5.726
 6421SOL     OW19714   4.250   2.124   5.897
 6421SOL    HW119715   4.300   2.080   5.829
 6421SOL    HW219716   4.223   2.207   5.857
 6422SOL     OW19717   4.773   3.217   6.918
 6422SOL    HW119718   4.698   3.185   6.967
 6422SOL    HW219719   4.848   3.174   6.958
 6423SOL     OW19720   0.008   3.473   7.196
 6423SOL    HW119721   0.044   3.472   7.108
 6423SOL    HW219722   0.081   3.448   7.253
 6424SOL     OW19723   4.860   3.072   6.690
 6424SOL    HW119724   4.795   3.105   6.752
 6424SOL    HW219725   4.829   3.103   6.604
 6425SOL     OW19726   4.641   1.956   6.979
 6425SOL    HW119727   4.663   1.938   6.887
 6425SOL    HW219728   4.721   1.994   7.015
 6426SOL     OW19729   4.710   2.971   7.318
 6426SOL    HW119730   4.619   2.991   7.338
 6426SOL    HW219731   4.706   2.895   7.260
 6427SOL     OW19732   4.434   2.924   5.957
 6427SOL    HW119733   4.420   2.904   6.050
 6427SOL    HW219734   4.510   2.871   5.932
 6428SOL     OW19735   4.146   2.681   6.838
 6428SOL    HW119736   4.213   2.691   6.905
 6428SOL    HW219737   4.111   2.592   6.851
 6429SOL     OW19738   4.985   2.236   6.867
 6429SOL    HW119739   5.020   2.316   6.907
 6429SOL    HW219740   4.895   2.257   6.844
 6430SOL     OW19741   3.799   3.436   6.943
 6430SOL    HW119742   3.771   3.508   6.886
 6430SOL    HW219743   3.894   3.435   6.935
 6431SOL     OW19744   4.061   2.980   6.075
 6431SOL    HW119745   4.065   3.054   6.014
 6431SOL    HW219746   4.059   2.903   6.019
 6432SOL     OW19747   4.271   2.393   6.445
 6432SOL    HW119748   4.285   2.452   6.371
 6432SOL    HW219749   4.338   2.418   6.508
 6433SOL     OW19750   4.970   3.214   5.972
 6433SOL    HW119751   5.025   3.286   6.004
 6433SOL    HW219752   4.883   3.234   6.006
 6434SOL     OW19753   5.003   3.320   6.728
 6434SOL    HW119754   5.054   3.321   6.809
 6434SOL    HW219755   4.949   3.242   6.735
 6435SOL     OW19756   4.070   3.392   6.896
 6435SOL    HW119757   4.058   3.347   6.812
 6435SOL    HW219758   4.164   3.403   6.905
 6436SOL     OW19759   4.141   2.608   7.189
 6436SOL    HW119760   4.205   2.651   7.132
 6436SOL    HW219761   4.178   2.521   7.205
 6437SOL     OW19762   4.718   1.997   7.340
 6437SOL    HW119763   4.778   2.069   7.318
 6437SOL    HW219764   4.765   1.918   7.313
 6438SOL     OW19765   4.222   1.897   7.337
 6438SOL    HW119766   4.175   1.845   7.272
 6438SOL    HW219767   4.166   1.973   7.352
 6439SOL     OW19768   4.309   2.736   6.618
 6439SOL    HW119769   4.342   2.826   6.621
 6439SOL    HW219770   4.252   2.729   6.695
 6440SOL     OW19771   5.087   2.715   6.619
 6440SOL    HW119772   5.010   2.687   6.569
 6440SOL    HW219773   5.150   2.644   6.608
 6441SOL     OW19774   4.920   2.392   5.844
 6441SOL    HW119775   4.927   2.313   5.898
 6441SOL    HW219776   4.879   2.456   5.903
 6442SOL     OW19777   4.020   2.058   6.833
 6442SOL    HW119778   3.983   2.090   6.916
 6442SOL    HW219779   4.002   1.964   6.833
 6443SOL     OW19780   3.773   3.174   6.859
 6443SOL    HW119781   3.803   3.118   6.931
 6443SOL    HW219782   3.776   3.263   6.895
 6444SOL     OW19783   4.443   2.491   6.638
 6444SOL    HW119784   4.521   2.478   6.583
 6444SOL    HW219785   4.415   2.580   6.620
 6445SOL     OW19786   4.033   1.923   6.210
 6445SOL    HW119787   4.009   2.014   6.231
 6445SOL    HW219788   4.040   1.881   6.296
 6446SOL     OW19789   0.031   2.275   5.938
 6446SOL    HW119790   0.043   2.192   5.984
 6446SOL    HW219791   0.036   2.342   6.006
 6447SOL     OW19792   4.751   2.620   6.541
 6447SOL    HW119793   4.745   2.637   6.635
 6447SOL    HW219794   4.725   2.528   6.532
 6448SOL     OW19795   4.695   3.423   7.303
 6448SOL    HW119796   4.683   3.470   7.220
 6448SOL    HW219797   4.742   3.343   7.279
 6449SOL     OW19798   4.076   2.776   7.398
 6449SOL    HW119799   4.159   2.798   7.441
 6449SOL    HW219800   4.100   2.714   7.329
 6450SOL     OW19801   5.029   2.689   5.623
 6450SOL    HW119802   5.067   2.601   5.627
 6450SOL    HW219803   5.058   2.723   5.538
 6451SOL     OW19804   4.791   3.198   6.444
 6451SOL    HW119805   4.797   3.127   6.381
 6451SOL    HW219806   4.845   3.268   6.407
 6452SOL     OW19807   4.032   2.671   6.531
 6452SOL    HW119808   4.125   2.691   6.525
 6452SOL    HW219809   4.029   2.581   6.563
 6453SOL     OW19810   4.050   2.393   6.599
 6453SOL    HW119811   4.015   2.305   6.586
 6453SOL    HW219812   4.128   2.396   6.542
 6454SOL     OW19813   4.858   2.236   7.269
 6454SOL    HW119814   4.809   2.290   7.331
 6454SOL    HW219815   4.944   2.276   7.265
 6455SOL     OW19816   4.885   2.059   7.057
 6455SOL    HW119817   4.873   2.121   7.129
 6455SOL    HW219818   4.925   2.111   6.987
 6456SOL     OW19819   3.731   3.179   5.780
 6456SOL    HW119820   3.644   3.195   5.744
 6456SOL    HW219821   3.726   3.090   5.815
 6457SOL     OW19822   3.814   3.644   6.527
 6457SOL    HW119823   3.784   3.566   6.480
 6457SOL    HW219824   3.903   3.658   6.496
 6458SOL     OW19825   4.216   3.437   6.490
 6458SOL    HW119826   4.285   3.499   6.514
 6458SOL    HW219827   4.259   3.374   6.432
 6459SOL     OW19828   4.696   2.650   6.808
 6459SOL    HW119829   4.755   2.631   6.881
 6459SOL    HW219830   4.613   2.610   6.834
 6460SOL     OW19831   3.760   2.411   6.703
 6460SOL    HW119832   3.841   2.403   6.652
 6460SOL    HW219833   3.789   2.411   6.794
 6461SOL     OW19834   3.917   2.384   7.317
 6461SOL    HW119835   3.968   2.338   7.250
 6461SOL    HW219836   3.880   2.460   7.272
 6462SOL     OW19837   5.117   2.792   7.254
 6462SOL    HW119838   5.123   2.887   7.240
 6462SOL    HW219839   5.122   2.755   7.166
 6463SOL     OW19840   4.542   2.432   5.952
 6463SOL    HW119841   4.547   2.358   5.892
 6463SOL    HW219842   4.467   2.483   5.921
 6464SOL     OW19843   3.961   3.411   7.309
 6464SOL    HW119844   3.941   3.476   7.376
 6464SOL    HW219845   3.970   3.329   7.358
 6465SOL     OW19846   4.437   2.307   6.838
 6465SOL    HW119847   4.379   2.235   6.813
 6465SOL    HW219848   4.428   2.371   6.767
 6466SOL     OW19849   4.639   3.540   7.056
 6466SOL    HW119850   4.617   3.505   6.970
 6466SOL    HW219851   4.639   3.635   7.043
 6467SOL     OW19852   4.183   2.354   5.767
 6467SOL    HW119853   4.243   2.424   5.791
 6467SOL    HW219854   4.098   2.397   5.757
 6468SOL     OW19855   3.865   3.005   7.061
 6468SOL    HW119856   3.867   2.957   7.144
 6468SOL    HW219857   3.882   2.938   6.994
 6469SOL     OW19858   5.050   2.906   6.807
 6469SOL    HW119859   5.070   2.840   6.741
 6469SOL    HW219860   4.983   2.962   6.767
 6470SOL     OW19861   5.040   2.725   5.902
 6470SOL    HW119862   4.960   2.691   5.941
 6470SOL    HW219863   5.027   2.715   5.808
 6471SOL     OW19864   4.957   3.593   6.702
 6471SOL    HW119865   5.043   3.619   6.671
 6471SOL    HW219866   4.963   3.498   6.714
 6472SOL     OW19867   3.812   3.127   6.596
 6472SOL    HW119868   3.795   3.143   6.689
 6472SOL    HW219869   3.739   3.073   6.567
 6473SOL     OW19870   4.402   3.530   7.323
 6473SOL    HW119871   4.347   3.609   7.315
 6473SOL    HW219872   4.476   3.547   7.266
 6474SOL     OW19873   0.067   2.029   6.126
 6474SOL    HW119874   0.137   2.004   6.066
 6474SOL    HW219875   0.060   1.955   6.187
 6475SOL     OW19876   5.112   3.434   6.074
 6475SOL    HW119877   5.181   3.479   6.025
 6475SOL    HW219878   5.057   3.505   6.107
 6476SOL     OW19879   3.864   3.656   7.430
 6476SOL    HW119880   3.813   3.591   7.478
 6476SOL    HW219881   3.912   3.704   7.498
 6477SOL     OW19882   5.020   2.783   6.253
 6477SOL    HW119883   5.100   2.731   6.245
 6477SOL    HW219884   5.040   2.864   6.207
 6478SOL     OW19885   4.527   3.138   7.011
 6478SOL    HW119886   4.499   3.179   7.093
 6478SOL    HW219887   4.457   3.159   6.949
 6479SOL     OW19888   4.391   3.488   5.742
 6479SOL    HW119889   4.405   3.502   5.648
 6479SOL    HW219890   4.336   3.410   5.746
 6480SOL     OW19891   3.981   2.174   6.300
 6480SOL    HW119892   3.895   2.210   6.278
 6480SOL    HW219893   3.980   2.170   6.396
 6481SOL     OW19894   4.904   3.469   5.631
 6481SOL    HW119895   4.916   3.374   5.641
 6481SOL    HW219896   4.847   3.478   5.554
 6482SOL     OW19897   4.547   2.869   6.961
 6482SOL    HW119898   4.590   2.862   6.876
 6482SOL    HW219899   4.543   2.963   6.979
 6483SOL     OW19900   4.642   2.773   5.877
 6483SOL    HW119901   4.703   2.805   5.810
 6483SOL    HW219902   4.690   2.705   5.923
 6484SOL     OW19903   4.091   3.167   7.079
 6484SOL    HW119904   4.079   3.243   7.022
 6484SOL    HW219905   4.014   3.113   7.063
 6485SOL     OW19906   4.784   2.971   6.296
 6485SOL    HW119907   4.712   2.922   6.335
 6485SOL    HW219908   4.844   2.904   6.262
 6486SOL     OW19909   4.738   2.102   6.555
 6486SOL    HW119910   4.737   2.055   6.471
 6486SOL    HW219911   4.734   2.032   6.621
 6487SOL     OW19912   4.329   3.350   6.067
 6487SOL    HW119913   4.378   3.300   6.002
 6487SOL    HW219914   4.255   3.387   6.017
 6488SOL     OW19915   3.986   3.204   5.878
 6488SOL    HW119916   3.893   3.201   5.854
 6488SOL    HW219917   3.986   3.244   5.965
 6489SOL     OW19918   3.840   2.895   7.312
 6489SOL    HW119919   3.762   2.868   7.361
 6489SOL    HW219920   3.913   2.850   7.355
 6490SOL     OW19921   4.400   2.057   7.086
 6490SOL    HW119922   4.484   2.035   7.047
 6490SOL    HW219923   4.422   2.089   7.174
 6491SOL     OW19924   3.804   2.191   5.618
 6491SOL    HW119925   3.719   2.171   5.579
 6491SOL    HW219926   3.835   2.268   5.570
 6492SOL     OW19927   5.166   2.721   6.988
 6492SOL    HW119928   5.114   2.779   6.933
 6492SOL    HW219929   5.255   2.727   6.954
 6493SOL     OW19930   3.786   2.016   5.887
 6493SOL    HW119931   3.774   2.095   5.835
 6493SOL    HW219932   3.871   1.982   5.860
 6494SOL     OW19933   4.902   3.188   5.700
 6494SOL    HW119934   4.808   3.168   5.701
 6494SOL    HW219935   4.926   3.195   5.792
 6495SOL     OW19936   4.344   2.693   7.021
 6495SOL    HW119937   4.402   2.768   7.006
 6495SOL    HW219938   4.403   2.619   7.028
 6496SOL     OW19939   4.441   2.419   7.286
 6496SOL    HW119940   4.486   2.478   7.346
 6496SOL    HW219941   4.459   2.331   7.319
 6497SOL     OW19942   5.176   3.060   7.215
 6497SOL    HW119943   5.166   3.075   7.309
 6497SOL    HW219944   5.269   3.077   7.198
 6498SOL     OW19945   4.095   3.603   7.152
 6498SOL    HW119946   4.012   3.649   7.137
 6498SOL    HW219947   4.070   3.520   7.192
 6499SOL     OW19948   4.936   2.183   6.038
 6499SOL    HW119949   4.996   2.109   6.028
 6499SOL    HW219950   4.967   2.228   6.117
 6500SOL     OW19951   4.311   2.595   6.259
 6500SOL    HW119952   4.351   2.681   6.245
 6500SOL    HW219953   4.246   2.587   6.189
 6501SOL     OW19954   4.593   3.226   5.630
 6501SOL    HW119955   4.552   3.256   5.711
 6501SOL    HW219956   4.605   3.306   5.578
 6502SOL     OW19957   4.387   3.646   6.523
 6502SOL    HW119958   4.369   3.738   6.505
 6502SOL    HW219959   4.482   3.639   6.518
 6503SOL     OW19960   4.594   2.833   6.440
 6503SOL    HW119961   4.643   2.760   6.477
 6503SOL    HW219962   4.555   2.877   6.516
 6504SOL     OW19963   4.808   2.848   5.676
 6504SOL    HW119964   4.783   2.897   5.598
 6504SOL    HW219965   4.882   2.794   5.649
 6505SOL     OW19966   3.948   3.160   7.440
 6505SOL    HW119967   3.890   3.094   7.402
 6505SOL    HW219968   3.912   3.176   7.527
 6506SOL     OW19969   3.811   3.090   6.251
 6506SOL    HW119970   3.824   3.046   6.335
 6506SOL    HW219971   3.879   3.053   6.194
 6507SOL     OW19972   4.408   3.268   7.219
 6507SOL    HW119973   4.328   3.228   7.252
 6507SOL    HW219974   4.406   3.357   7.253
 6508SOL     OW19975   4.152   2.295   6.111
 6508SOL    HW119976   4.183   2.225   6.055
 6508SOL    HW219977   4.102   2.250   6.180
 6509SOL     OW19978   0.090   3.376   6.686
 6509SOL    HW119979   0.023   3.360   6.620
 6509SOL    HW219980   0.084   3.301   6.745
 6510SOL     OW19981   4.060   2.422   6.879
 6510SOL    HW119982   4.114   2.364   6.934
 6510SOL    HW219983   4.077   2.393   6.790
 6511SOL     OW19984   4.556   3.440   6.261
 6511SOL    HW119985   4.537   3.504   6.192
 6511SOL    HW219986   4.480   3.382   6.261
 6512SOL     OW19987   5.141   2.082   6.702
 6512SOL    HW119988   5.187   2.019   6.757
 6512SOL    HW219989   5.094   2.137   6.764
 6513SOL     OW19990   4.727   1.877   6.722
 6513SOL    HW119991   4.674   1.811   6.679
 6513SOL    HW219992   4.814   1.839   6.728
 6514SOL     OW19993   4.497   3.195   5.908
 6514SOL    HW119994   4.470   3.104   5.915
 6514SOL    HW219995   4.579   3.200   5.956
 6515SOL     OW19996   4.343   3.418   6.873
 6515SOL    HW119997   4.343   3.501   6.920
 6515SOL    HW219998   4.431   3.411   6.836
 6516SOL     OW19999   5.053   1.904   5.751
 6516SOL    HW120000   5.067   1.866   5.665
 6516SOL    HW220001   4.968   1.870   5.779
 6517SOL     OW20002   5.024   2.321   6.262
 6517SOL    HW120003   4.972   2.401   6.266
 6517SOL    HW220004   5.012   2.280   6.348
 6518SOL     OW20005   0.001   2.091   6.473
 6518SOL    HW120006   5.238   2.078   6.543
 6518SOL    HW220007   5.268   2.167   6.425
 6519SOL     OW20008   3.766   2.927   5.894
 6519SOL    HW120009   3.859   2.920   5.876
 6519SOL    HW220010   3.738   2.838   5.916
 6520SOL     OW20011   4.603   3.517   5.931
 6520SOL    HW120012   4.530   3.504   5.870
 6520SOL    HW220013   4.577   3.592   5.983
 6521SOL     OW20014   3.948   2.482   7.577
 6521SOL    HW120015   3.858   2.490   7.609
 6521SOL    HW220016   3.938   2.460   7.484
 6522SOL     OW20017   3.946   3.576   7.919
 6522SOL    HW120018   3.971   3.613   8.004
 6522SOL    HW220019   4.025   3.579   7.867
 6523SOL     OW20020   3.936   3.302   7.996
 6523SOL    HW120021   3.925   3.397   7.984
 6523SOL    HW220022   3.876   3.280   8.067
 6524SOL     OW20023   4.305   2.847   7.582
 6524SOL    HW120024   4.351   2.894   7.513
 6524SOL    HW220025   4.344   2.879   7.663
 6525SOL     OW20026   3.758   3.459   7.577
 6525SOL    HW120027   3.742   3.366   7.593
 6525SOL    HW220028   3.731   3.502   7.658
 6526SOL     OW20029   0.110   2.794   8.007
 6526SOL    HW120030   0.205   2.790   8.018
 6526SOL    HW220031   0.090   2.888   8.007
 6527SOL     OW20032   4.526   1.860   7.940
 6527SOL    HW120033   4.575   1.939   7.918
 6527SOL    HW220034   4.435   1.890   7.946
 6528SOL     OW20035   4.314   2.585   7.709
 6528SOL    HW120036   4.311   2.670   7.663
 6528SOL    HW220037   4.255   2.597   7.784
 6529SOL     OW20038   3.779   2.726   0.083
 6529SOL    HW120039   3.842   2.657   0.104
 6529SOL    HW220040   3.792   2.791   0.151
 6530SOL     OW20041   4.619   2.214   7.644
 6530SOL    HW120042   4.653   2.271   7.576
 6530SOL    HW220043   4.642   2.125   7.616
 6531SOL     OW20044   4.044   2.819   7.700
 6531SOL    HW120045   4.123   2.836   7.648
 6531SOL    HW220046   4.004   2.743   7.658
 6532SOL     OW20047   4.835   3.636   7.688
 6532SOL    HW120048   4.759   3.595   7.729
 6532SOL    HW220049   4.860   3.576   7.618
 6533SOL     OW20050   4.189   3.603   7.771
 6533SOL    HW120051   4.241   3.653   7.834
 6533SOL    HW220052   4.253   3.563   7.713
 6534SOL     OW20053   5.132   1.993   7.846
 6534SOL    HW120054   5.094   1.967   7.762
 6534SOL    HW220055   5.226   1.993   7.831
 6535SOL     OW20056   4.119   2.564   7.916
 6535SOL    HW120057   4.110   2.470   7.930
 6535SOL    HW220058   4.029   2.597   7.914
 6536SOL     OW20059   4.364   1.978   7.557
 6536SOL    HW120060   4.427   1.909   7.574
 6536SOL    HW220061   4.314   1.947   7.481
 6537SOL     OW20062   4.258   1.941   7.961
 6537SOL    HW120063   4.172   1.946   8.004
 6537SOL    HW220064   4.256   2.010   7.895
 6538SOL     OW20065   5.130   3.048   7.489
 6538SOL    HW120066   5.137   2.971   7.545
 6538SOL    HW220067   5.044   3.085   7.509
 6539SOL     OW20068   4.014   1.911   7.634
 6539SOL    HW120069   4.070   1.972   7.586
 6539SOL    HW220070   4.075   1.850   7.675
 6540SOL     OW20071   4.666   2.090   7.901
 6540SOL    HW120072   4.628   2.149   7.837
 6540SOL    HW220073   4.757   2.118   7.910
 6541SOL     OW20074   4.151   3.001   0.100
 6541SOL    HW120075   4.089   3.062   0.140
 6541SOL    HW220076   4.125   2.998   0.008
 6542SOL     OW20077   5.015   3.670   8.010
 6542SOL    HW120078   5.055   3.735   7.952
 6542SOL    HW220079   4.930   3.708   8.034
 6543SOL     OW20080   4.748   2.397   7.470
 6543SOL    HW120081   4.700   2.479   7.454
 6543SOL    HW220082   4.801   2.415   7.548
 6544SOL     OW20083   4.207   3.282   7.599
 6544SOL    HW120084   4.134   3.253   7.654
 6544SOL    HW220085   4.199   3.229   7.519
 6545SOL     OW20086   5.131   2.416   7.537
 6545SOL    HW120087   5.051   2.407   7.589
 6545SOL    HW220088   5.200   2.382   7.594
 6546SOL     OW20089   4.249   2.127   7.766
 6546SOL    HW120090   4.297   2.080   7.698
 6546SOL    HW220091   4.223   2.209   7.725
 6547SOL     OW20092   4.441   2.925   7.809
 6547SOL    HW120093   4.409   2.907   7.898
 6547SOL    HW220094   4.518   2.870   7.799
 6548SOL     OW20095   4.086   2.979   7.920
 6548SOL    HW120096   4.063   3.056   7.868
 6548SOL    HW220097   4.074   2.906   7.860
 6549SOL     OW20098   4.955   3.225   7.815
 6549SOL    HW120099   5.014   3.297   7.838
 6549SOL    HW220100   4.915   3.199   7.898
 6550SOL     OW20101   0.043   2.520   7.929
 6550SOL    HW120102   5.280   2.505   8.000
 6550SOL    HW220103   0.039   2.615   7.914
 6551SOL     OW20104   4.918   2.391   7.707
 6551SOL    HW120105   4.920   2.309   7.756
 6551SOL    HW220106   4.890   2.456   7.771
 6552SOL     OW20107   0.018   2.286   7.790
 6552SOL    HW120108   0.021   2.217   7.857
 6552SOL    HW220109   0.029   2.367   7.840
 6553SOL     OW20110   5.041   2.693   7.495
 6553SOL    HW120111   5.071   2.602   7.493
 6553SOL    HW220112   5.064   2.728   7.409
 6554SOL     OW20113   3.734   3.184   7.636
 6554SOL    HW120114   3.646   3.198   7.602
 6554SOL    HW220115   3.732   3.094   7.671
 6555SOL     OW20116   4.577   2.486   7.743
 6555SOL    HW120117   4.574   2.391   7.730
 6555SOL    HW220118   4.485   2.512   7.749
 6556SOL     OW20119   4.181   2.355   7.639
 6556SOL    HW120120   4.241   2.428   7.655
 6556SOL    HW220121   4.096   2.397   7.623
 6557SOL     OW20122   5.025   2.713   7.781
 6557SOL    HW120123   4.935   2.744   7.788
 6557SOL    HW220124   5.041   2.705   7.687
 6558SOL     OW20125   0.200   1.999   7.991
 6558SOL    HW120126   0.159   1.995   7.905
 6558SOL    HW220127   0.141   1.950   8.048
 6559SOL     OW20128   5.110   3.434   7.908
 6559SOL    HW120129   5.200   3.430   7.942
 6559SOL    HW220130   5.077   3.520   7.936
 6560SOL     OW20131   4.385   3.486   7.603
 6560SOL    HW120132   4.400   3.499   7.509
 6560SOL    HW220133   4.331   3.407   7.607
 6561SOL     OW20134   4.907   3.472   7.489
 6561SOL    HW120135   4.917   3.378   7.502
 6561SOL    HW220136   4.846   3.480   7.416
 6562SOL     OW20137   4.653   2.761   7.760
 6562SOL    HW120138   4.703   2.784   7.682
 6562SOL    HW220139   4.637   2.667   7.753
 6563SOL     OW20140   4.335   3.373   7.936
 6563SOL    HW120141   4.384   3.315   7.878
 6563SOL    HW220142   4.255   3.393   7.887
 6564SOL     OW20143   3.986   3.203   7.752
 6564SOL    HW120144   3.895   3.201   7.720
 6564SOL    HW220145   3.979   3.241   7.840
 6565SOL     OW20146   3.803   2.189   7.480
 6565SOL    HW120147   3.718   2.171   7.439
 6565SOL    HW220148   3.835   2.267   7.435
 6566SOL     OW20149   3.787   2.018   7.749
 6566SOL    HW120150   3.772   2.092   7.690
 6566SOL    HW220151   3.871   1.981   7.722
 6567SOL     OW20152   4.897   3.188   7.553
 6567SOL    HW120153   4.802   3.176   7.551
 6567SOL    HW220154   4.918   3.202   7.645
 6568SOL     OW20155   5.282   3.603   0.321
 6568SOL    HW120156   5.282   3.690   0.282
 6568SOL    HW220157   0.061   3.600   0.374
 6569SOL     OW20158   4.934   2.184   7.899
 6569SOL    HW120159   5.007   2.123   7.887
 6569SOL    HW220160   4.949   2.223   7.985
 6570SOL     OW20161   4.362   2.602   8.046
 6570SOL    HW120162   4.359   2.677   0.025
 6570SOL    HW220163   4.273   2.596   8.010
 6571SOL     OW20164   4.596   3.227   7.495
 6571SOL    HW120165   4.553   3.258   7.575
 6571SOL    HW220166   4.607   3.306   7.442
 6572SOL     OW20167   4.801   2.832   7.543
 6572SOL    HW120168   4.779   2.889   7.470
 6572SOL    HW220169   4.881   2.786   7.514
 6573SOL     OW20170   4.107   2.295   7.988
 6573SOL    HW120171   4.159   2.243   7.927
 6573SOL    HW220172   4.159   2.297   8.068
 6574SOL     OW20173   4.487   3.201   7.770
 6574SOL    HW120174   4.462   3.109   7.771
 6574SOL    HW220175   4.568   3.204   7.821
 6575SOL     OW20176   5.055   1.905   7.603
 6575SOL    HW120177   5.070   1.860   7.520
 6575SOL    HW220178   4.972   1.869   7.636
 6576SOL     OW20179   3.778   2.937   7.748
 6576SOL    HW120180   3.873   2.930   7.736
 6576SOL    HW220181   3.749   2.847   7.763
 6577SOL     OW20182   4.610   3.511   7.780
 6577SOL    HW120183   4.533   3.492   7.727
 6577SOL    HW220184   4.579   3.574   7.846
 6578SOL     OW20185   3.933   4.344   0.127
 6578SOL    HW120186   3.852   4.311   0.167
 6578SOL    HW220187   3.951   4.282   0.056
 6579SOL     OW20188   3.948   4.008   0.993
 6579SOL    HW120189   3.977   3.973   1.077
 6579SOL    HW220190   3.859   3.975   0.982
 6580SOL     OW20191   3.723   4.109   0.639
 6580SOL    HW120192   3.642   4.136   0.682
 6580SOL    HW220193   3.699   4.030   0.590
 6581SOL     OW20194   4.295   5.015   1.189
 6581SOL    HW120195   4.211   5.014   1.143
 6581SOL    HW220196   4.309   5.108   1.209
 6582SOL     OW20197   5.274   5.231   0.685
 6582SOL    HW120198   5.275   5.217   0.780
 6582SOL    HW220199   5.181   5.224   0.661
 6583SOL     OW20200   4.864   4.424   0.696
 6583SOL    HW120201   4.915   4.505   0.686
 6583SOL    HW220202   4.814   4.437   0.777
 6584SOL     OW20203   4.469   4.861   1.043
 6584SOL    HW120204   4.406   4.897   1.105
 6584SOL    HW220205   4.504   4.938   0.998
 6585SOL     OW20206   4.600   4.486   1.825
 6585SOL    HW120207   4.581   4.557   1.887
 6585SOL    HW220208   4.620   4.531   1.743
 6586SOL     OW20209   4.406   4.717   0.650
 6586SOL    HW120210   4.474   4.713   0.718
 6586SOL    HW220211   4.339   4.775   0.687
 6587SOL     OW20212   4.434   4.870   1.821
 6587SOL    HW120213   4.484   4.949   1.843
 6587SOL    HW220214   4.354   4.903   1.779
 6588SOL     OW20215   4.062   5.137   1.057
 6588SOL    HW120216   3.982   5.091   1.032
 6588SOL    HW220217   4.093   5.178   0.976
 6589SOL     OW20218   5.111   5.244   1.340
 6589SOL    HW120219   5.136   0.007   1.408
 6589SOL    HW220220   5.096   5.162   1.387
 6590SOL     OW20221   4.176   4.117   1.478
 6590SOL    HW120222   4.251   4.059   1.487
 6590SOL    HW220223   4.100   4.062   1.498
 6591SOL     OW20224   4.870   5.042   1.705
 6591SOL    HW120225   4.882   5.062   1.798
 6591SOL    HW220226   4.807   4.970   1.704
 6592SOL     OW20227   3.931   5.159   0.516
 6592SOL    HW120228   3.965   5.234   0.564
 6592SOL    HW220229   3.883   5.108   0.581
 6593SOL     OW20230   3.990   4.811   0.892
 6593SOL    HW120231   3.988   4.723   0.929
 6593SOL    HW220232   3.933   4.863   0.949
 6594SOL     OW20233   4.345   4.678   0.143
 6594SOL    HW120234   4.288   4.750   0.117
 6594SOL    HW220235   4.399   4.713   0.214
 6595SOL     OW20236   3.842   4.376   0.565
 6595SOL    HW120237   3.810   4.288   0.587
 6595SOL    HW220238   3.832   4.426   0.647
 6596SOL     OW20239   3.694   0.027   0.089
 6596SOL    HW120240   3.706   5.235   0.112
 6596SOL    HW220241   3.725   0.075   0.166
 6597SOL     OW20242   0.123   4.651   0.591
 6597SOL    HW120243   0.216   4.651   0.568
 6597SOL    HW220244   0.097   4.743   0.586
 6598SOL     OW20245   3.849   4.468   1.584
 6598SOL    HW120246   3.940   4.498   1.587
 6598SOL    HW220247   3.797   4.549   1.588
 6599SOL     OW20248   4.348   5.102   0.745
 6599SOL    HW120249   4.294   5.024   0.737
 6599SOL    HW220250   4.333   5.150   0.663
 6600SOL     OW20251   5.026   4.980   1.417
 6600SOL    HW120252   5.049   4.906   1.359
 6600SOL    HW220253   5.069   4.960   1.500
 6601SOL     OW20254   4.544   3.732   0.518
 6601SOL    HW120255   4.583   3.815   0.492
 6601SOL    HW220256   4.450   3.750   0.522
 6602SOL     OW20257   3.911   4.683   1.277
 6602SOL    HW120258   3.998   4.645   1.262
 6602SOL    HW220259   3.853   4.635   1.218
 6603SOL     OW20260   4.066   3.972   1.829
 6603SOL    HW120261   4.106   4.057   1.849
 6603SOL    HW220262   3.973   3.984   1.849
 6604SOL     OW20263   5.181   5.157   0.947
 6604SOL    HW120264   5.112   5.168   1.012
 6604SOL    HW220265   5.167   5.069   0.912
 6605SOL     OW20266   0.044   0.164   0.556
 6605SOL    HW120267   0.089   0.125   0.481
 6605SOL    HW220268   0.034   0.093   0.619
 6606SOL     OW20269   4.323   4.433   0.285
 6606SOL    HW120270   4.339   4.515   0.240
 6606SOL    HW220271   4.259   4.454   0.353
 6607SOL     OW20272   4.993   4.062   0.915
 6607SOL    HW120273   4.905   4.033   0.938
 6607SOL    HW220274   5.048   4.026   0.986
 6608SOL     OW20275   4.512   4.341   1.446
 6608SOL    HW120276   4.488   4.315   1.535
 6608SOL    HW220277   4.479   4.271   1.390
 6609SOL     OW20278   5.113   4.209   1.683
 6609SOL    HW120279   5.117   4.242   1.772
 6609SOL    HW220280   5.196   4.162   1.671
 6610SOL     OW20281   4.671   4.607   1.586
 6610SOL    HW120282   4.726   4.539   1.548
 6610SOL    HW220283   4.623   4.644   1.511
 6611SOL     OW20284   4.716   4.133   1.232
 6611SOL    HW120285   4.627   4.150   1.261
 6611SOL    HW220286   4.707   4.091   1.147
 6612SOL     OW20287   4.782   4.422   0.425
 6612SOL    HW120288   4.801   4.418   0.518
 6612SOL    HW220289   4.698   4.377   0.415
 6613SOL     OW20290   3.812   4.546   0.778
 6613SOL    HW120291   3.892   4.540   0.829
 6613SOL    HW220292   3.767   4.624   0.813
 6614SOL     OW20293   4.611   4.081   0.203
 6614SOL    HW120294   4.656   4.132   0.136
 6614SOL    HW220295   4.612   3.991   0.169
 6615SOL     OW20296   5.098   4.877   0.550
 6615SOL    HW120297   5.187   4.878   0.516
 6615SOL    HW220298   5.049   4.932   0.489
 6616SOL     OW20299   4.274   3.900   0.898
 6616SOL    HW120300   4.277   3.930   0.988
 6616SOL    HW220301   4.275   3.980   0.845
 6617SOL     OW20302   4.735   5.157   0.472
 6617SOL    HW120303   4.666   5.222   0.483
 6617SOL    HW220304   4.762   5.135   0.561
 6618SOL     OW20305   4.929   5.269   1.577
 6618SOL    HW120306   4.913   5.181   1.612
 6618SOL    HW220307   4.897   5.265   1.487
 6619SOL     OW20308   4.038   4.666   0.263
 6619SOL    HW120309   4.098   4.713   0.204
 6619SOL    HW220310   4.054   4.574   0.245
 6620SOL     OW20311   4.188   4.987   1.743
 6620SOL    HW120312   4.161   4.991   1.651
 6620SOL    HW220313   4.106   4.988   1.792
 6621SOL     OW20314   4.887   0.192   0.200
 6621SOL    HW120315   4.814   0.194   0.263
 6621SOL    HW220316   4.852   0.145   0.125
 6622SOL     OW20317   3.926   3.995   1.504
 6622SOL    HW120318   3.846   4.047   1.508
 6622SOL    HW220319   3.903   3.912   1.545
 6623SOL     OW20320   5.108   3.848   0.447
 6623SOL    HW120321   5.094   3.827   0.354
 6623SOL    HW220322   5.203   3.856   0.455
 6624SOL     OW20323   4.112   4.421   0.474
 6624SOL    HW120324   4.132   4.328   0.488
 6624SOL    HW220325   4.020   4.430   0.497
 6625SOL     OW20326   4.357   3.831   0.141
 6625SOL    HW120327   4.452   3.821   0.147
 6625SOL    HW220328   4.336   3.813   0.050
 6626SOL     OW20329   4.486   4.004   1.756
 6626SOL    HW120330   4.567   3.953   1.753
 6626SOL    HW220331   4.440   3.972   1.834
 6627SOL     OW20332   5.056   4.318   1.432
 6627SOL    HW120333   5.086   4.289   1.518
 6627SOL    HW220334   5.101   4.401   1.418
 6628SOL     OW20335   4.541   5.111   0.943
 6628SOL    HW120336   4.621   5.105   0.890
 6628SOL    HW220337   4.471   5.121   0.879
 6629SOL     OW20338   4.651   4.232   0.900
 6629SOL    HW120339   4.627   4.223   0.808
 6629SOL    HW220340   4.681   4.144   0.925
 6630SOL     OW20341   4.276   3.787   0.501
 6630SOL    HW120342   4.196   3.785   0.554
 6630SOL    HW220343   4.266   3.866   0.447
 6631SOL     OW20344   5.125   4.898   0.039
 6631SOL    HW120345   5.121   4.822   0.098
 6631SOL    HW220346   5.042   4.943   0.054
 6632SOL     OW20347   4.039   3.787   0.176
 6632SOL    HW120348   4.104   3.854   0.198
 6632SOL    HW220349   4.074   3.706   0.215
 6633SOL     OW20350   4.663   3.974   0.455
 6633SOL    HW120351   4.636   4.013   0.372
 6633SOL    HW220352   4.757   3.993   0.462
 6634SOL     OW20353   4.801   4.408   1.458
 6634SOL    HW120354   4.737   4.337   1.459
 6634SOL    HW220355   4.886   4.365   1.449
 6635SOL     OW20356   4.986   5.262   0.763
 6635SOL    HW120357   4.950   0.049   0.747
 6635SOL    HW220358   5.043   5.274   0.839
 6636SOL     OW20359   4.191   4.876   0.723
 6636SOL    HW120360   4.126   4.855   0.790
 6636SOL    HW220361   4.146   4.860   0.640
 6637SOL     OW20362   4.759   4.246   0.036
 6637SOL    HW120363   4.716   4.328   0.012
 6637SOL    HW220364   4.820   4.270   0.105
 6638SOL     OW20365   3.808   4.278   1.393
 6638SOL    HW120366   3.900   4.277   1.366
 6638SOL    HW220367   3.802   4.347   1.458
 6639SOL     OW20368   4.281   3.951   1.171
 6639SOL    HW120369   4.324   3.879   1.217
 6639SOL    HW220370   4.190   3.947   1.199
 6640SOL     OW20371   4.590   4.180   0.638
 6640SOL    HW120372   4.552   4.238   0.572
 6640SOL    HW220373   4.612   4.101   0.590
 6641SOL     OW20374   4.740   3.778   0.746
 6641SOL    HW120375   4.680   3.772   0.672
 6641SOL    HW220376   4.717   3.703   0.801
 6642SOL     OW20377   5.150   4.904   0.848
 6642SOL    HW120378   5.099   4.825   0.861
 6642SOL    HW220379   5.168   4.907   0.754
 6643SOL     OW20380   4.184   5.162   0.148
 6643SOL    HW120381   4.137   5.110   0.214
 6643SOL    HW220382   4.240   5.099   0.103
 6644SOL     OW20383   5.135   4.303   0.067
 6644SOL    HW120384   5.074   4.285   0.139
 6644SOL    HW220385   5.197   4.231   0.068
 6645SOL     OW20386   4.235   3.988   0.319
 6645SOL    HW120387   4.290   3.938   0.260
 6645SOL    HW220388   4.221   4.072   0.274
 6646SOL     OW20389   4.784   5.072   1.326
 6646SOL    HW120390   4.705   5.047   1.374
 6646SOL    HW220391   4.856   5.038   1.379
 6647SOL     OW20392   4.852   4.925   1.107
 6647SOL    HW120393   4.803   4.969   1.177
 6647SOL    HW220394   4.804   4.946   1.027
 6648SOL     OW20395   4.642   3.818   1.393
 6648SOL    HW120396   4.663   3.800   1.301
 6648SOL    HW220397   4.721   3.856   1.429
 6649SOL     OW20398   4.704   4.828   1.734
 6649SOL    HW120399   4.612   4.849   1.754
 6649SOL    HW220400   4.699   4.754   1.674
 6650SOL     OW20401   4.441   4.789   0.383
 6650SOL    HW120402   4.421   4.768   0.474
 6650SOL    HW220403   4.519   4.738   0.363
 6651SOL     OW20404   4.146   4.543   1.252
 6651SOL    HW120405   4.213   4.553   1.319
 6651SOL    HW220406   4.111   4.454   1.265
 6652SOL     OW20407   4.986   4.097   1.281
 6652SOL    HW120408   5.021   4.177   1.320
 6652SOL    HW220409   4.896   4.119   1.258
 6653SOL     OW20410   4.053   4.834   0.490
 6653SOL    HW120411   4.053   4.905   0.426
 6653SOL    HW220412   4.063   4.755   0.438
 6654SOL     OW20413   4.271   4.254   0.859
 6654SOL    HW120414   4.284   4.313   0.785
 6654SOL    HW220415   4.338   4.279   0.922
 6655SOL     OW20416   4.978   5.069   0.374
 6655SOL    HW120417   5.024   5.150   0.352
 6655SOL    HW220418   4.893   5.098   0.408
 6656SOL     OW20419   4.975   5.185   1.121
 6656SOL    HW120420   5.023   5.211   1.199
 6656SOL    HW220421   4.941   5.097   1.141
 6657SOL     OW20422   4.074   5.235   1.309
 6657SOL    HW120423   4.063   5.198   1.221
 6657SOL    HW220424   4.168   5.254   1.315
 6658SOL     OW20425   4.142   4.469   1.604
 6658SOL    HW120426   4.205   4.513   1.546
 6658SOL    HW220427   4.180   4.383   1.621
 6659SOL     OW20428   4.718   3.859   1.755
 6659SOL    HW120429   4.777   3.931   1.734
 6659SOL    HW220430   4.764   3.780   1.728
 6660SOL     OW20431   4.221   3.760   1.751
 6660SOL    HW120432   4.173   3.707   1.686
 6660SOL    HW220433   4.165   3.836   1.766
 6661SOL     OW20434   4.308   4.598   1.031
 6661SOL    HW120435   4.343   4.687   1.033
 6661SOL    HW220436   4.253   4.592   1.109
 6662SOL     OW20437   5.086   4.577   1.036
 6662SOL    HW120438   5.012   4.551   0.981
 6662SOL    HW220439   5.153   4.511   1.018
 6663SOL     OW20440   4.932   4.256   0.262
 6663SOL    HW120441   4.934   4.176   0.314
 6663SOL    HW220442   4.888   4.321   0.317
 6664SOL     OW20443   4.019   3.920   1.247
 6664SOL    HW120444   3.984   3.952   1.330
 6664SOL    HW220445   4.001   3.826   1.248
 6665SOL     OW20446   3.784   5.051   1.285
 6665SOL    HW120447   3.804   4.983   1.350
 6665SOL    HW220448   3.813   5.132   1.327
 6666SOL     OW20449   4.443   4.352   1.052
 6666SOL    HW120450   4.521   4.340   0.997
 6666SOL    HW220451   4.415   4.442   1.034
 6667SOL     OW20452   4.030   3.785   0.625
 6667SOL    HW120453   4.008   3.875   0.646
 6667SOL    HW220454   4.039   3.742   0.711
 6668SOL     OW20455   0.053   4.099   0.351
 6668SOL    HW120456   0.061   4.046   0.430
 6668SOL    HW220457   0.034   4.187   0.383
 6669SOL     OW20458   4.750   4.481   0.955
 6669SOL    HW120459   4.745   4.498   1.049
 6669SOL    HW220460   4.725   4.389   0.946
 6670SOL     OW20461   4.075   4.640   1.810
 6670SOL    HW120462   4.155   4.661   1.857
 6670SOL    HW220463   4.102   4.578   1.742
 6671SOL     OW20464   5.032   4.557   0.021
 6671SOL    HW120465   5.067   4.470   0.039
 6671SOL    HW220466   5.054   4.573   8.009
 6672SOL     OW20467   4.777   5.089   0.813
 6672SOL    HW120468   4.786   5.001   0.777
 6672SOL    HW220469   4.864   5.128   0.801
 6673SOL     OW20470   4.033   4.532   0.946
 6673SOL    HW120471   4.126   4.553   0.941
 6673SOL    HW220472   4.030   4.442   0.977
 6674SOL     OW20473   4.050   4.255   1.013
 6674SOL    HW120474   4.015   4.166   1.000
 6674SOL    HW220475   4.127   4.258   0.956
 6675SOL     OW20476   4.857   4.097   1.685
 6675SOL    HW120477   4.808   4.151   1.747
 6675SOL    HW220478   4.943   4.138   1.680
 6676SOL     OW20479   4.885   3.921   1.472
 6676SOL    HW120480   4.873   3.984   1.543
 6676SOL    HW220481   4.925   3.972   1.402
 6677SOL     OW20482   3.740   5.038   0.167
 6677SOL    HW120483   3.652   5.051   0.134
 6677SOL    HW220484   3.737   4.953   0.211
 6678SOL     OW20485   4.696   4.511   1.222
 6678SOL    HW120486   4.757   4.493   1.294
 6678SOL    HW220487   4.614   4.470   1.251
 6679SOL     OW20488   3.761   4.273   1.117
 6679SOL    HW120489   3.842   4.266   1.067
 6679SOL    HW220490   3.789   4.274   1.208
 6680SOL     OW20491   3.916   4.247   1.732
 6680SOL    HW120492   3.970   4.203   1.666
 6680SOL    HW220493   3.879   4.323   1.686
 6681SOL     OW20494   5.122   4.654   1.665
 6681SOL    HW120495   5.125   4.749   1.653
 6681SOL    HW220496   5.126   4.618   1.577
 6682SOL     OW20497   4.546   4.292   0.375
 6682SOL    HW120498   4.554   4.221   0.312
 6682SOL    HW220499   4.469   4.342   0.345
 6683SOL     OW20500   3.925   5.273   1.747
 6683SOL    HW120501   3.895   0.020   1.825
 6683SOL    HW220502   3.939   5.183   1.777
 6684SOL     OW20503   4.436   4.169   1.252
 6684SOL    HW120504   4.378   4.097   1.226
 6684SOL    HW220505   4.428   4.233   1.181
 6685SOL     OW20506   4.190   4.217   0.174
 6685SOL    HW120507   4.257   4.281   0.197
 6685SOL    HW220508   4.107   4.262   0.188
 6686SOL     OW20509   3.864   4.863   1.473
 6686SOL    HW120510   3.867   4.815   1.556
 6686SOL    HW220511   3.882   4.796   1.406
 6687SOL     OW20512   5.044   4.765   1.228
 6687SOL    HW120513   5.067   4.702   1.160
 6687SOL    HW220514   4.977   4.820   1.187
 6688SOL     OW20515   5.023   4.599   0.319
 6688SOL    HW120516   4.946   4.552   0.353
 6688SOL    HW220517   5.025   4.577   0.226
 6689SOL     OW20518   3.824   4.987   1.024
 6689SOL    HW120519   3.803   5.008   1.115
 6689SOL    HW220520   3.743   4.950   0.988
 6690SOL     OW20521   4.470   0.017   1.721
 6690SOL    HW120522   4.381   0.050   1.714
 6690SOL    HW220523   4.519   0.065   1.654
 6691SOL     OW20524   4.630   3.816   0.127
 6691SOL    HW120525   4.636   3.792   0.034
 6691SOL    HW220526   4.696   3.761   0.170
 6692SOL     OW20527   0.071   3.873   0.528
 6692SOL    HW120528   0.163   3.860   0.505
 6692SOL    HW220529   0.055   3.812   0.599
 6693SOL     OW20530   5.021   4.645   0.669
 6693SOL    HW120531   5.101   4.593   0.660
 6693SOL    HW220532   5.039   4.725   0.620
 6694SOL     OW20533   4.532   4.990   1.403
 6694SOL    HW120534   4.499   5.023   1.486
 6694SOL    HW220535   4.459   4.999   1.342
 6695SOL     OW20536   3.981   4.037   0.715
 6695SOL    HW120537   3.895   4.072   0.693
 6695SOL    HW220538   3.981   4.032   0.811
 6696SOL     OW20539   4.850   0.014   8.077
 6696SOL    HW120540   4.876   5.228   0.029
 6696SOL    HW220541   4.877   0.015   7.985
 6697SOL     OW20542   4.550   4.724   1.371
 6697SOL    HW120543   4.598   4.712   1.289
 6697SOL    HW220544   4.550   4.818   1.385
 6698SOL     OW20545   4.646   4.639   0.304
 6698SOL    HW120546   4.698   4.662   0.226
 6698SOL    HW220547   4.696   4.568   0.345
 6699SOL     OW20548   4.085   5.029   1.499
 6699SOL    HW120549   4.077   5.101   1.437
 6699SOL    HW220550   4.009   4.973   1.482
 6700SOL     OW20551   4.786   4.838   0.718
 6700SOL    HW120552   4.714   4.785   0.754
 6700SOL    HW220553   4.845   4.773   0.679
 6701SOL     OW20554   4.738   3.963   0.968
 6701SOL    HW120555   4.737   3.917   0.885
 6701SOL    HW220556   4.734   3.894   1.034
 6702SOL     OW20557   3.989   5.026   0.289
 6702SOL    HW120558   3.909   5.038   0.239
 6702SOL    HW220559   3.977   5.079   0.367
 6703SOL     OW20560   3.837   4.755   1.724
 6703SOL    HW120561   3.761   4.727   1.776
 6703SOL    HW220562   3.912   4.712   1.767
 6704SOL     OW20563   4.400   3.918   1.500
 6704SOL    HW120564   4.485   3.897   1.460
 6704SOL    HW220565   4.422   3.952   1.587
 6705SOL     OW20566   3.782   4.079   0.041
 6705SOL    HW120567   3.699   4.041   0.013
 6705SOL    HW220568   3.836   4.081   8.042
 6706SOL     OW20569   5.168   4.582   1.401
 6706SOL    HW120570   5.114   4.640   1.348
 6706SOL    HW220571   5.256   4.590   1.363
 6707SOL     OW20572   3.793   3.875   0.293
 6707SOL    HW120573   3.779   3.961   0.253
 6707SOL    HW220574   3.878   3.847   0.258
 6708SOL     OW20575   4.905   5.048   0.097
 6708SOL    HW120576   4.809   5.048   0.090
 6708SOL    HW220577   4.922   5.051   0.191
 6709SOL     OW20578   4.344   4.555   1.435
 6709SOL    HW120579   4.402   4.630   1.419
 6709SOL    HW220580   4.403   4.480   1.442
 6710SOL     OW20581   4.441   4.283   1.700
 6710SOL    HW120582   4.486   4.341   1.761
 6710SOL    HW220583   4.459   4.195   1.733
 6711SOL     OW20584   5.182   4.922   1.633
 6711SOL    HW120585   5.167   4.936   1.726
 6711SOL    HW220586   5.277   4.928   1.622
 6712SOL     OW20587   4.929   4.053   0.459
 6712SOL    HW120588   4.989   3.979   0.453
 6712SOL    HW220589   4.958   4.101   0.537
 6713SOL     OW20590   4.308   4.456   0.673
 6713SOL    HW120591   4.349   4.542   0.662
 6713SOL    HW220592   4.242   4.452   0.604
 6714SOL     OW20593   4.643   5.089   0.042
 6714SOL    HW120594   4.583   5.070   0.114
 6714SOL    HW220595   4.594   5.148   8.064
 6715SOL     OW20596   4.595   4.695   0.854
 6715SOL    HW120597   4.643   4.622   0.892
 6715SOL    HW220598   4.555   4.739   0.930
 6716SOL     OW20599   4.801   4.693   0.087
 6716SOL    HW120600   4.785   4.754   0.015
 6716SOL    HW220601   4.883   4.649   0.063
 6717SOL     OW20602   3.942   5.017   1.850
 6717SOL    HW120603   3.882   4.949   1.821
 6717SOL    HW220604   3.926   5.025   1.944
 6718SOL     OW20605   3.818   4.949   0.668
 6718SOL    HW120606   3.815   4.902   0.751
 6718SOL    HW220607   3.885   4.905   0.617
 6719SOL     OW20608   4.401   5.090   1.608
 6719SOL    HW120609   4.321   5.067   1.654
 6719SOL    HW220610   4.434   5.167   1.654
 6720SOL     OW20611   4.145   4.160   0.524
 6720SOL    HW120612   4.179   4.089   0.469
 6720SOL    HW220613   4.099   4.116   0.595
 6721SOL     OW20614   0.126   5.235   1.047
 6721SOL    HW120615   0.042   5.208   1.010
 6721SOL    HW220616   0.107   5.251   1.139
 6722SOL     OW20617   4.059   4.284   1.293
 6722SOL    HW120618   4.113   4.227   1.348
 6722SOL    HW220619   4.077   4.255   1.203
 6723SOL     OW20620   5.142   3.942   1.116
 6723SOL    HW120621   5.188   3.880   1.172
 6723SOL    HW220622   5.095   3.999   1.176
 6724SOL     OW20623   4.727   3.739   1.136
 6724SOL    HW120624   4.675   3.672   1.092
 6724SOL    HW220625   4.814   3.701   1.143
 6725SOL     OW20626   4.523   5.037   0.282
 6725SOL    HW120627   4.479   4.958   0.312
 6725SOL    HW220628   4.583   5.059   0.353
 6726SOL     OW20629   4.347   0.001   1.300
 6726SOL    HW120630   4.348   0.054   1.380
 6726SOL    HW220631   4.439   5.285   1.281
 6727SOL     OW20632   5.047   3.780   0.194
 6727SOL    HW120633   5.083   3.737   0.117
 6727SOL    HW220634   4.965   3.733   0.211
 6728SOL     OW20635   5.024   4.188   0.680
 6728SOL    HW120636   4.972   4.268   0.685
 6728SOL    HW220637   5.011   4.146   0.765
 6729SOL     OW20638   5.297   3.955   0.883
 6729SOL    HW120639   5.239   3.934   0.956
 6729SOL    HW220640   5.265   4.039   0.850
 6730SOL     OW20641   3.766   4.788   0.307
 6730SOL    HW120642   3.862   4.789   0.314
 6730SOL    HW220643   3.741   4.702   0.342
 6731SOL     OW20644   3.947   4.348   1.991
 6731SOL    HW120645   3.858   4.343   2.027
 6731SOL    HW220646   3.937   4.325   1.899
 6732SOL     OW20647   3.948   4.008   2.855
 6732SOL    HW120648   3.976   3.973   2.939
 6732SOL    HW220649   3.859   3.975   2.844
 6733SOL     OW20650   3.723   4.109   2.500
 6733SOL    HW120651   3.642   4.135   2.544
 6733SOL    HW220652   3.699   4.031   2.450
 6734SOL     OW20653   4.295   5.015   3.051
 6734SOL    HW120654   4.211   5.012   3.006
 6734SOL    HW220655   4.308   5.108   3.071
 6735SOL     OW20656   5.273   5.229   2.547
 6735SOL    HW120657   5.278   5.217   2.642
 6735SOL    HW220658   5.179   5.230   2.529
 6736SOL     OW20659   4.863   4.423   2.557
 6736SOL    HW120660   4.914   4.504   2.547
 6736SOL    HW220661   4.814   4.435   2.638
 6737SOL     OW20662   4.471   4.862   2.905
 6737SOL    HW120663   4.407   4.897   2.968
 6737SOL    HW220664   4.504   4.940   2.860
 6738SOL     OW20665   4.600   4.486   3.687
 6738SOL    HW120666   4.581   4.557   3.749
 6738SOL    HW220667   4.620   4.531   3.605
 6739SOL     OW20668   4.409   4.720   2.507
 6739SOL    HW120669   4.475   4.714   2.576
 6739SOL    HW220670   4.341   4.776   2.544
 6740SOL     OW20671   4.434   4.871   3.683
 6740SOL    HW120672   4.484   4.949   3.705
 6740SOL    HW220673   4.354   4.903   3.641
 6741SOL     OW20674   4.062   5.137   2.919
 6741SOL    HW120675   3.982   5.091   2.894
 6741SOL    HW220676   4.092   5.177   2.837
 6742SOL     OW20677   5.114   5.242   3.202
 6742SOL    HW120678   5.136   0.006   3.269
 6742SOL    HW220679   5.095   5.161   3.250
 6743SOL     OW20680   4.175   4.117   3.340
 6743SOL    HW120681   4.251   4.059   3.349
 6743SOL    HW220682   4.100   4.062   3.360
 6744SOL     OW20683   4.869   5.043   3.567
 6744SOL    HW120684   4.882   5.063   3.659
 6744SOL    HW220685   4.806   4.971   3.566
 6745SOL     OW20686   3.933   5.164   2.387
 6745SOL    HW120687   3.967   5.237   2.438
 6745SOL    HW220688   3.886   5.110   2.451
 6746SOL     OW20689   3.991   4.811   2.754
 6746SOL    HW120690   3.988   4.723   2.791
 6746SOL    HW220691   3.934   4.862   2.811
 6747SOL     OW20692   4.301   4.707   2.002
 6747SOL    HW120693   4.350   4.753   1.934
 6747SOL    HW220694   4.340   4.739   2.084
 6748SOL     OW20695   3.842   4.379   2.423
 6748SOL    HW120696   3.812   4.291   2.444
 6748SOL    HW220697   3.834   4.428   2.505
 6749SOL     OW20698   3.714   0.009   1.955
 6749SOL    HW120699   3.725   5.221   1.990
 6749SOL    HW220700   3.731   0.067   2.029
 6750SOL     OW20701   0.111   4.655   2.428
 6750SOL    HW120702   0.204   4.634   2.424
 6750SOL    HW220703   0.109   4.750   2.439
 6751SOL     OW20704   3.849   4.468   3.446
 6751SOL    HW120705   3.940   4.498   3.449
 6751SOL    HW220706   3.797   4.548   3.450
 6752SOL     OW20707   4.349   5.101   2.606
 6752SOL    HW120708   4.295   5.022   2.599
 6752SOL    HW220709   4.332   5.149   2.525
 6753SOL     OW20710   5.026   4.979   3.279
 6753SOL    HW120711   5.049   4.906   3.222
 6753SOL    HW220712   5.069   4.959   3.362
 6754SOL     OW20713   4.543   3.729   2.376
 6754SOL    HW120714   4.584   3.812   2.351
 6754SOL    HW220715   4.450   3.748   2.381
 6755SOL     OW20716   3.912   4.683   3.139
 6755SOL    HW120717   3.998   4.644   3.124
 6755SOL    HW220718   3.853   4.635   3.079
 6756SOL     OW20719   4.066   3.972   3.692
 6756SOL    HW120720   4.106   4.057   3.711
 6756SOL    HW220721   3.973   3.984   3.712
 6757SOL     OW20722   5.181   5.156   2.810
 6757SOL    HW120723   5.112   5.167   2.875
 6757SOL    HW220724   5.167   5.068   2.775
 6758SOL     OW20725   0.035   0.167   2.421
 6758SOL    HW120726   0.081   0.132   2.344
 6758SOL    HW220727   0.026   0.092   2.480
 6759SOL     OW20728   4.319   4.440   2.133
 6759SOL    HW120729   4.321   4.524   2.087
 6759SOL    HW220730   4.253   4.453   2.202
 6760SOL     OW20731   4.993   4.062   2.777
 6760SOL    HW120732   4.904   4.033   2.799
 6760SOL    HW220733   5.047   4.027   2.848
 6761SOL     OW20734   4.513   4.341   3.308
 6761SOL    HW120735   4.488   4.315   3.397
 6761SOL    HW220736   4.479   4.271   3.252
 6762SOL     OW20737   5.113   4.209   3.545
 6762SOL    HW120738   5.117   4.242   3.634
 6762SOL    HW220739   5.195   4.161   3.533
 6763SOL     OW20740   4.671   4.607   3.448
 6763SOL    HW120741   4.726   4.539   3.410
 6763SOL    HW220742   4.623   4.644   3.374
 6764SOL     OW20743   4.717   4.133   3.094
 6764SOL    HW120744   4.627   4.149   3.123
 6764SOL    HW220745   4.707   4.090   3.009
 6765SOL     OW20746   4.778   4.423   2.286
 6765SOL    HW120747   4.797   4.417   2.380
 6765SOL    HW220748   4.694   4.378   2.275
 6766SOL     OW20749   3.812   4.546   2.640
 6766SOL    HW120750   3.892   4.539   2.691
 6766SOL    HW220751   3.767   4.623   2.675
 6767SOL     OW20752   4.623   4.073   2.056
 6767SOL    HW120753   4.661   4.137   1.996
 6767SOL    HW220754   4.634   3.989   2.013
 6768SOL     OW20755   5.100   4.878   2.415
 6768SOL    HW120756   5.192   4.883   2.389
 6768SOL    HW220757   5.053   4.933   2.352
 6769SOL     OW20758   4.275   3.900   2.760
 6769SOL    HW120759   4.277   3.931   2.850
 6769SOL    HW220760   4.275   3.980   2.707
 6770SOL     OW20761   4.738   5.160   2.340
 6770SOL    HW120762   4.667   5.224   2.343
 6770SOL    HW220763   4.756   5.139   2.432
 6771SOL     OW20764   4.931   5.268   3.437
 6771SOL    HW120765   4.914   5.181   3.473
 6771SOL    HW220766   4.894   5.265   3.349
 6772SOL     OW20767   4.038   4.681   2.116
 6772SOL    HW120768   4.121   4.701   2.072
 6772SOL    HW220769   4.010   4.598   2.077
 6773SOL     OW20770   4.188   4.988   3.605
 6773SOL    HW120771   4.161   4.991   3.513
 6773SOL    HW220772   4.106   4.988   3.654
 6774SOL     OW20773   4.789   0.166   2.071
 6774SOL    HW120774   4.802   0.115   2.151
 6774SOL    HW220775   4.862   0.141   2.015
 6775SOL     OW20776   3.926   3.995   3.366
 6775SOL    HW120777   3.845   4.045   3.370
 6775SOL    HW220778   3.903   3.910   3.405
 6776SOL     OW20779   5.113   3.829   2.285
 6776SOL    HW120780   5.096   3.811   2.193
 6776SOL    HW220781   5.207   3.848   2.289
 6777SOL     OW20782   4.121   4.418   2.335
 6777SOL    HW120783   4.137   4.325   2.349
 6777SOL    HW220784   4.027   4.428   2.351
 6778SOL     OW20785   4.369   3.842   1.964
 6778SOL    HW120786   4.430   3.770   1.981
 6778SOL    HW220787   4.315   3.811   1.891
 6779SOL     OW20788   4.486   4.004   3.619
 6779SOL    HW120789   4.567   3.952   3.615
 6779SOL    HW220790   4.440   3.971   3.696
 6780SOL     OW20791   5.056   4.318   3.294
 6780SOL    HW120792   5.086   4.289   3.380
 6780SOL    HW220793   5.101   4.401   3.280
 6781SOL     OW20794   4.542   5.111   2.803
 6781SOL    HW120795   4.621   5.105   2.750
 6781SOL    HW220796   4.471   5.121   2.741
 6782SOL     OW20797   4.652   4.233   2.762
 6782SOL    HW120798   4.628   4.223   2.669
 6782SOL    HW220799   4.681   4.145   2.788
 6783SOL     OW20800   4.276   3.787   2.358
 6783SOL    HW120801   4.197   3.787   2.411
 6783SOL    HW220802   4.268   3.865   2.302
 6784SOL     OW20803   5.127   4.906   1.905
 6784SOL    HW120804   5.123   4.823   1.951
 6784SOL    HW220805   5.040   4.945   1.919
 6785SOL     OW20806   4.013   3.772   2.048
 6785SOL    HW120807   4.071   3.836   2.006
 6785SOL    HW220808   4.073   3.710   2.090
 6786SOL     OW20809   4.664   3.974   2.316
 6786SOL    HW120810   4.639   4.011   2.232
 6786SOL    HW220811   4.759   3.988   2.322
 6787SOL     OW20812   4.801   4.409   3.319
 6787SOL    HW120813   4.737   4.337   3.321
 6787SOL    HW220814   4.885   4.365   3.311
 6788SOL     OW20815   4.990   5.264   2.622
 6788SOL    HW120816   4.940   0.046   2.616
 6788SOL    HW220817   5.043   5.275   2.701
 6789SOL     OW20818   4.192   4.874   2.584
 6789SOL    HW120819   4.127   4.853   2.650
 6789SOL    HW220820   4.147   4.860   2.500
 6790SOL     OW20821   4.747   4.259   1.888
 6790SOL    HW120822   4.702   4.342   1.869
 6790SOL    HW220823   4.808   4.281   1.959
 6791SOL     OW20824   3.808   4.278   3.255
 6791SOL    HW120825   3.900   4.277   3.228
 6791SOL    HW220826   3.803   4.347   3.320
 6792SOL     OW20827   4.281   3.951   3.033
 6792SOL    HW120828   4.323   3.879   3.079
 6792SOL    HW220829   4.190   3.948   3.061
 6793SOL     OW20830   4.591   4.182   2.499
 6793SOL    HW120831   4.547   4.238   2.436
 6793SOL    HW220832   4.613   4.103   2.450
 6794SOL     OW20833   4.741   3.778   2.609
 6794SOL    HW120834   4.682   3.773   2.534
 6794SOL    HW220835   4.717   3.703   2.664
 6795SOL     OW20836   5.150   4.903   2.710
 6795SOL    HW120837   5.098   4.824   2.727
 6795SOL    HW220838   5.160   4.905   2.615
 6796SOL     OW20839   4.193   5.153   2.004
 6796SOL    HW120840   4.139   5.098   2.061
 6796SOL    HW220841   4.216   5.096   1.930
 6797SOL     OW20842   5.130   4.280   1.948
 6797SOL    HW120843   5.053   4.272   2.004
 6797SOL    HW220844   5.202   4.248   2.003
 6798SOL     OW20845   4.249   3.986   2.173
 6798SOL    HW120846   4.299   3.942   2.105
 6798SOL    HW220847   4.223   4.069   2.134
 6799SOL     OW20848   4.784   5.072   3.188
 6799SOL    HW120849   4.705   5.048   3.236
 6799SOL    HW220850   4.856   5.038   3.242
 6800SOL     OW20851   4.852   4.925   2.969
 6800SOL    HW120852   4.804   4.968   3.040
 6800SOL    HW220853   4.801   4.943   2.891
 6801SOL     OW20854   4.641   3.818   3.255
 6801SOL    HW120855   4.663   3.800   3.163
 6801SOL    HW220856   4.721   3.856   3.291
 6802SOL     OW20857   4.704   4.828   3.596
 6802SOL    HW120858   4.612   4.849   3.616
 6802SOL    HW220859   4.699   4.754   3.536
 6803SOL     OW20860   4.431   4.786   2.233
 6803SOL    HW120861   4.417   4.766   2.326
 6803SOL    HW220862   4.507   4.734   2.209
 6804SOL     OW20863   4.146   4.543   3.114
 6804SOL    HW120864   4.213   4.552   3.181
 6804SOL    HW220865   4.111   4.454   3.127
 6805SOL     OW20866   4.985   4.097   3.144
 6805SOL    HW120867   5.020   4.178   3.183
 6805SOL    HW220868   4.895   4.119   3.120
 6806SOL     OW20869   4.056   4.840   2.349
 6806SOL    HW120870   4.055   4.913   2.287
 6806SOL    HW220871   4.058   4.762   2.293
 6807SOL     OW20872   4.271   4.255   2.721
 6807SOL    HW120873   4.285   4.314   2.647
 6807SOL    HW220874   4.338   4.280   2.784
 6808SOL     OW20875   4.984   5.084   2.249
 6808SOL    HW120876   5.035   5.162   2.271
 6808SOL    HW220877   4.895   5.103   2.279
 6809SOL     OW20878   4.975   5.185   2.983
 6809SOL    HW120879   5.024   5.210   3.061
 6809SOL    HW220880   4.941   5.098   3.004
 6810SOL     OW20881   4.074   5.235   3.171
 6810SOL    HW120882   4.063   5.198   3.083
 6810SOL    HW220883   4.168   5.255   3.177
 6811SOL     OW20884   4.141   4.470   3.466
 6811SOL    HW120885   4.205   4.513   3.408
 6811SOL    HW220886   4.178   4.383   3.482
 6812SOL     OW20887   4.718   3.859   3.618
 6812SOL    HW120888   4.777   3.930   3.596
 6812SOL    HW220889   4.764   3.780   3.590
 6813SOL     OW20890   4.221   3.760   3.613
 6813SOL    HW120891   4.173   3.707   3.549
 6813SOL    HW220892   4.164   3.836   3.628
 6814SOL     OW20893   4.309   4.597   2.894
 6814SOL    HW120894   4.342   4.687   2.895
 6814SOL    HW220895   4.252   4.591   2.971
 6815SOL     OW20896   5.086   4.578   2.895
 6815SOL    HW120897   5.009   4.549   2.845
 6815SOL    HW220898   5.149   4.506   2.885
 6816SOL     OW20899   4.919   4.254   2.120
 6816SOL    HW120900   4.927   4.175   2.174
 6816SOL    HW220901   4.879   4.318   2.178
 6817SOL     OW20902   4.020   3.921   3.109
 6817SOL    HW120903   3.983   3.952   3.192
 6817SOL    HW220904   4.002   3.827   3.109
 6818SOL     OW20905   3.784   5.051   3.148
 6818SOL    HW120906   3.803   4.982   3.212
 6818SOL    HW220907   3.813   5.132   3.189
 6819SOL     OW20908   4.444   4.352   2.914
 6819SOL    HW120909   4.521   4.340   2.859
 6819SOL    HW220910   4.415   4.442   2.896
 6820SOL     OW20911   4.033   3.785   2.486
 6820SOL    HW120912   4.009   3.876   2.507
 6820SOL    HW220913   4.040   3.742   2.572
 6821SOL     OW20914   0.031   4.137   2.214
 6821SOL    HW120915   0.043   4.055   2.261
 6821SOL    HW220916   0.039   4.205   2.282
 6822SOL     OW20917   4.751   4.482   2.817
 6822SOL    HW120918   4.745   4.499   2.911
 6822SOL    HW220919   4.725   4.390   2.808
 6823SOL     OW20920   4.075   4.641   3.672
 6823SOL    HW120921   4.155   4.660   3.719
 6823SOL    HW220922   4.101   4.578   3.604
 6824SOL     OW20923   5.030   4.551   1.899
 6824SOL    HW120924   5.067   4.463   1.903
 6824SOL    HW220925   5.058   4.585   1.814
 6825SOL     OW20926   4.778   5.090   2.669
 6825SOL    HW120927   4.786   5.001   2.637
 6825SOL    HW220928   4.866   5.127   2.661
 6826SOL     OW20929   4.032   4.532   2.808
 6826SOL    HW120930   4.126   4.552   2.801
 6826SOL    HW220931   4.029   4.442   2.839
 6827SOL     OW20932   4.050   4.255   2.875
 6827SOL    HW120933   4.015   4.167   2.862
 6827SOL    HW220934   4.128   4.258   2.818
 6828SOL     OW20935   4.857   4.097   3.547
 6828SOL    HW120936   4.808   4.151   3.609
 6828SOL    HW220937   4.943   4.138   3.542
 6829SOL     OW20938   4.885   3.921   3.334
 6829SOL    HW120939   4.873   3.983   3.405
 6829SOL    HW220940   4.925   3.973   3.264
 6830SOL     OW20941   3.729   5.035   2.055
 6830SOL    HW120942   3.638   5.054   2.033
 6830SOL    HW220943   3.727   4.946   2.091
 6831SOL     OW20944   4.696   4.511   3.084
 6831SOL    HW120945   4.756   4.493   3.156
 6831SOL    HW220946   4.614   4.470   3.111
 6832SOL     OW20947   3.761   4.274   2.979
 6832SOL    HW120948   3.841   4.266   2.928
 6832SOL    HW220949   3.790   4.274   3.070
 6833SOL     OW20950   3.916   4.246   3.594
 6833SOL    HW120951   3.968   4.201   3.527
 6833SOL    HW220952   3.880   4.322   3.548
 6834SOL     OW20953   5.122   4.654   3.527
 6834SOL    HW120954   5.125   4.749   3.515
 6834SOL    HW220955   5.126   4.618   3.439
 6835SOL     OW20956   4.542   4.294   2.228
 6835SOL    HW120957   4.546   4.220   2.168
 6835SOL    HW220958   4.467   4.345   2.197
 6836SOL     OW20959   3.925   5.273   3.609
 6836SOL    HW120960   3.895   0.020   3.687
 6836SOL    HW220961   3.939   5.183   3.639
 6837SOL     OW20962   4.437   4.168   3.114
 6837SOL    HW120963   4.379   4.097   3.089
 6837SOL    HW220964   4.428   4.232   3.043
 6838SOL     OW20965   4.183   4.216   2.043
 6838SOL    HW120966   4.243   4.286   2.067
 6838SOL    HW220967   4.098   4.258   2.033
 6839SOL     OW20968   3.865   4.863   3.335
 6839SOL    HW120969   3.867   4.815   3.418
 6839SOL    HW220970   3.882   4.796   3.268
 6840SOL     OW20971   5.045   4.765   3.089
 6840SOL    HW120972   5.068   4.702   3.020
 6840SOL    HW220973   4.977   4.820   3.049
 6841SOL     OW20974   5.038   4.587   2.179
 6841SOL    HW120975   4.957   4.551   2.216
 6841SOL    HW220976   5.027   4.577   2.084
 6842SOL     OW20977   3.824   4.986   2.886
 6842SOL    HW120978   3.802   5.008   2.977
 6842SOL    HW220979   3.743   4.949   2.850
 6843SOL     OW20980   4.470   0.017   3.583
 6843SOL    HW120981   4.380   0.050   3.576
 6843SOL    HW220982   4.518   0.065   3.515
 6844SOL     OW20983   0.067   3.891   2.402
 6844SOL    HW120984   0.136   3.866   2.341
 6844SOL    HW220985   0.060   3.817   2.462
 6845SOL     OW20986   5.020   4.645   2.530
 6845SOL    HW120987   5.099   4.591   2.521
 6845SOL    HW220988   5.040   4.725   2.482
 6846SOL     OW20989   4.532   4.991   3.264
 6846SOL    HW120990   4.499   5.024   3.347
 6846SOL    HW220991   4.458   4.999   3.204
 6847SOL     OW20992   3.981   4.036   2.576
 6847SOL    HW120993   3.895   4.072   2.554
 6847SOL    HW220994   3.980   4.032   2.672
 6848SOL     OW20995   4.550   4.724   3.233
 6848SOL    HW120996   4.597   4.712   3.151
 6848SOL    HW220997   4.550   4.819   3.247
 6849SOL     OW20998   4.641   4.637   2.154
 6849SOL    HW120999   4.703   4.670   2.089
 6849SOL    HW221000   4.689   4.567   2.199
 6850SOL     OW21001   4.085   5.029   3.361
 6850SOL    HW121002   4.077   5.101   3.299
 6850SOL    HW221003   4.010   4.973   3.344
 6851SOL     OW21004   4.787   4.836   2.581
 6851SOL    HW121005   4.714   4.786   2.616
 6851SOL    HW221006   4.847   4.771   2.544
 6852SOL     OW21007   4.738   3.964   2.831
 6852SOL    HW121008   4.737   3.917   2.747
 6852SOL    HW221009   4.733   3.894   2.897
 6853SOL     OW21010   3.983   5.046   2.152
 6853SOL    HW121011   3.891   5.046   2.124
 6853SOL    HW221012   3.982   5.097   2.233
 6854SOL     OW21013   3.837   4.756   3.587
 6854SOL    HW121014   3.761   4.728   3.638
 6854SOL    HW221015   3.912   4.713   3.629
 6855SOL     OW21016   4.400   3.919   3.362
 6855SOL    HW121017   4.485   3.897   3.322
 6855SOL    HW221018   4.422   3.952   3.449
 6856SOL     OW21019   3.805   4.052   1.894
 6856SOL    HW121020   3.718   4.034   1.857
 6856SOL    HW221021   3.835   4.130   1.846
 6857SOL     OW21022   5.168   4.582   3.263
 6857SOL    HW121023   5.114   4.641   3.210
 6857SOL    HW221024   5.256   4.590   3.226
 6858SOL     OW21025   3.786   3.878   2.164
 6858SOL    HW121026   3.773   3.957   2.111
 6858SOL    HW221027   3.871   3.844   2.136
 6859SOL     OW21028   4.904   5.059   1.984
 6859SOL    HW121029   4.810   5.041   1.986
 6859SOL    HW221030   4.930   5.055   2.076
 6860SOL     OW21031   4.344   4.555   3.298
 6860SOL    HW121032   4.402   4.629   3.281
 6860SOL    HW221033   4.403   4.480   3.304
 6861SOL     OW21034   4.442   4.282   3.562
 6861SOL    HW121035   4.487   4.341   3.623
 6861SOL    HW221036   4.460   4.195   3.595
 6862SOL     OW21037   5.182   4.922   3.495
 6862SOL    HW121038   5.167   4.936   3.588
 6862SOL    HW221039   5.277   4.928   3.485
 6863SOL     OW21040   4.936   4.045   2.314
 6863SOL    HW121041   4.996   3.971   2.304
 6863SOL    HW221042   4.967   4.090   2.393
 6864SOL     OW21043   4.311   4.457   2.535
 6864SOL    HW121044   4.351   4.543   2.522
 6864SOL    HW221045   4.246   4.450   2.465
 6865SOL     OW21046   4.584   5.092   1.885
 6865SOL    HW121047   4.560   5.095   1.977
 6865SOL    HW221048   4.573   5.182   1.854
 6866SOL     OW21049   4.595   4.696   2.716
 6866SOL    HW121050   4.643   4.622   2.754
 6866SOL    HW221051   4.554   4.739   2.791
 6867SOL     OW21052   4.812   4.712   1.957
 6867SOL    HW121053   4.782   4.758   1.879
 6867SOL    HW221054   4.883   4.656   1.926
 6868SOL     OW21055   3.942   5.017   3.712
 6868SOL    HW121056   3.882   4.948   3.682
 6868SOL    HW221057   3.925   5.025   3.806
 6869SOL     OW21058   3.815   4.951   2.530
 6869SOL    HW121059   3.816   4.901   2.613
 6869SOL    HW221060   3.878   4.905   2.475
 6870SOL     OW21061   4.402   5.090   3.470
 6870SOL    HW121062   4.321   5.066   3.516
 6870SOL    HW221063   4.434   5.167   3.516
 6871SOL     OW21064   4.152   4.157   2.387
 6871SOL    HW121065   4.183   4.086   2.331
 6871SOL    HW221066   4.102   4.112   2.456
 6872SOL     OW21067   0.127   5.234   2.908
 6872SOL    HW121068   0.042   5.208   2.872
 6872SOL    HW221069   0.109   5.253   3.000
 6873SOL     OW21070   4.060   4.284   3.155
 6873SOL    HW121071   4.113   4.227   3.210
 6873SOL    HW221072   4.076   4.255   3.065
 6874SOL     OW21073   5.141   3.944   2.978
 6874SOL    HW121074   5.188   3.881   3.033
 6874SOL    HW221075   5.093   3.999   3.040
 6875SOL     OW21076   4.727   3.739   2.999
 6875SOL    HW121077   4.674   3.673   2.955
 6875SOL    HW221078   4.814   3.701   3.004
 6876SOL     OW21079   4.532   5.044   2.148
 6876SOL    HW121080   4.482   4.966   2.173
 6876SOL    HW221081   4.588   5.061   2.223
 6877SOL     OW21082   4.347   0.001   3.162
 6877SOL    HW121083   4.347   0.054   3.242
 6877SOL    HW221084   4.439   5.284   3.144
 6878SOL     OW21085   5.053   3.767   2.027
 6878SOL    HW121086   5.067   3.728   1.941
 6878SOL    HW221087   4.968   3.732   2.055
 6879SOL     OW21088   5.024   4.183   2.538
 6879SOL    HW121089   4.972   4.263   2.542
 6879SOL    HW221090   5.012   4.142   2.624
 6880SOL     OW21091   0.002   3.953   2.750
 6880SOL    HW121092   5.237   3.940   2.820
 6880SOL    HW221093   5.269   4.028   2.701
 6881SOL     OW21094   3.766   4.788   2.172
 6881SOL    HW121095   3.860   4.781   2.155
 6881SOL    HW221096   3.739   4.698   2.193
 6882SOL     OW21097   3.947   4.348   3.853
 6882SOL    HW121098   3.858   4.343   3.888
 6882SOL    HW221099   3.938   4.325   3.761
 6883SOL     OW21100   3.948   4.008   4.717
 6883SOL    HW121101   3.976   3.973   4.801
 6883SOL    HW221102   3.859   3.976   4.706
 6884SOL     OW21103   3.723   4.108   4.363
 6884SOL    HW121104   3.642   4.135   4.405
 6884SOL    HW221105   3.699   4.030   4.312
 6885SOL     OW21106   4.295   5.015   4.913
 6885SOL    HW121107   4.211   5.013   4.867
 6885SOL    HW221108   4.308   5.108   4.933
 6886SOL     OW21109   5.273   5.229   4.409
 6886SOL    HW121110   5.278   5.217   4.504
 6886SOL    HW221111   5.179   5.230   4.391
 6887SOL     OW21112   4.864   4.423   4.419
 6887SOL    HW121113   4.914   4.503   4.409
 6887SOL    HW221114   4.814   4.435   4.500
 6888SOL     OW21115   4.470   4.862   4.767
 6888SOL    HW121116   4.407   4.897   4.830
 6888SOL    HW221117   4.504   4.940   4.722
 6889SOL     OW21118   4.600   4.486   5.549
 6889SOL    HW121119   4.581   4.557   5.611
 6889SOL    HW221120   4.620   4.531   5.467
 6890SOL     OW21121   4.409   4.720   4.369
 6890SOL    HW121122   4.475   4.714   4.438
 6890SOL    HW221123   4.341   4.776   4.405
 6891SOL     OW21124   4.434   4.871   5.545
 6891SOL    HW121125   4.484   4.949   5.567
 6891SOL    HW221126   4.354   4.903   5.503
 6892SOL     OW21127   4.062   5.137   4.781
 6892SOL    HW121128   3.982   5.091   4.756
 6892SOL    HW221129   4.092   5.178   4.699
 6893SOL     OW21130   5.113   5.242   5.064
 6893SOL    HW121131   5.136   0.006   5.131
 6893SOL    HW221132   5.095   5.161   5.112
 6894SOL     OW21133   4.176   4.118   5.202
 6894SOL    HW121134   4.251   4.060   5.211
 6894SOL    HW221135   4.100   4.062   5.222
 6895SOL     OW21136   4.870   5.043   5.429
 6895SOL    HW121137   4.882   5.063   5.521
 6895SOL    HW221138   4.806   4.971   5.428
 6896SOL     OW21139   3.933   5.164   4.249
 6896SOL    HW121140   3.967   5.237   4.300
 6896SOL    HW221141   3.886   5.110   4.313
 6897SOL     OW21142   3.991   4.811   4.616
 6897SOL    HW121143   3.988   4.723   4.653
 6897SOL    HW221144   3.934   4.863   4.673
 6898SOL     OW21145   4.302   4.707   3.864
 6898SOL    HW121146   4.350   4.753   3.796
 6898SOL    HW221147   4.340   4.739   3.946
 6899SOL     OW21148   3.842   4.379   4.285
 6899SOL    HW121149   3.812   4.291   4.306
 6899SOL    HW221150   3.834   4.428   4.367
 6900SOL     OW21151   3.714   0.009   3.817
 6900SOL    HW121152   3.725   5.221   3.852
 6900SOL    HW221153   3.731   0.067   3.891
 6901SOL     OW21154   0.111   4.655   4.291
 6901SOL    HW121155   0.204   4.634   4.286
 6901SOL    HW221156   0.109   4.750   4.302
 6902SOL     OW21157   3.849   4.468   5.308
 6902SOL    HW121158   3.940   4.499   5.311
 6902SOL    HW221159   3.797   4.549   5.312
 6903SOL     OW21160   4.349   5.101   4.468
 6903SOL    HW121161   4.295   5.022   4.461
 6903SOL    HW221162   4.332   5.149   4.387
 6904SOL     OW21163   5.026   4.979   5.141
 6904SOL    HW121164   5.049   4.906   5.084
 6904SOL    HW221165   5.069   4.959   5.224
 6905SOL     OW21166   4.544   3.729   4.239
 6905SOL    HW121167   4.584   3.812   4.214
 6905SOL    HW221168   4.450   3.748   4.243
 6906SOL     OW21169   3.911   4.683   5.001
 6906SOL    HW121170   3.998   4.644   4.986
 6906SOL    HW221171   3.854   4.636   4.941
 6907SOL     OW21172   4.066   3.972   5.553
 6907SOL    HW121173   4.106   4.057   5.572
 6907SOL    HW221174   3.973   3.985   5.573
 6908SOL     OW21175   5.181   5.156   4.672
 6908SOL    HW121176   5.112   5.167   4.737
 6908SOL    HW221177   5.167   5.068   4.637
 6909SOL     OW21178   0.035   0.167   4.283
 6909SOL    HW121179   0.081   0.132   4.206
 6909SOL    HW221180   0.026   0.092   4.342
 6910SOL     OW21181   4.319   4.441   3.995
 6910SOL    HW121182   4.321   4.524   3.949
 6910SOL    HW221183   4.253   4.453   4.064
 6911SOL     OW21184   4.993   4.062   4.639
 6911SOL    HW121185   4.904   4.033   4.661
 6911SOL    HW221186   5.047   4.027   4.710
 6912SOL     OW21187   4.513   4.341   5.170
 6912SOL    HW121188   4.488   4.315   5.259
 6912SOL    HW221189   4.479   4.271   5.114
 6913SOL     OW21190   5.113   4.209   5.407
 6913SOL    HW121191   5.117   4.242   5.496
 6913SOL    HW221192   5.196   4.162   5.395
 6914SOL     OW21193   4.671   4.607   5.310
 6914SOL    HW121194   4.726   4.539   5.272
 6914SOL    HW221195   4.623   4.644   5.236
 6915SOL     OW21196   4.716   4.133   4.956
 6915SOL    HW121197   4.627   4.149   4.985
 6915SOL    HW221198   4.707   4.091   4.871
 6916SOL     OW21199   4.778   4.423   4.148
 6916SOL    HW121200   4.797   4.417   4.242
 6916SOL    HW221201   4.694   4.378   4.137
 6917SOL     OW21202   3.811   4.545   4.502
 6917SOL    HW121203   3.892   4.538   4.553
 6917SOL    HW221204   3.767   4.623   4.537
 6918SOL     OW21205   4.623   4.073   3.919
 6918SOL    HW121206   4.661   4.137   3.858
 6918SOL    HW221207   4.632   3.989   3.875
 6919SOL     OW21208   5.100   4.877   4.277
 6919SOL    HW121209   5.192   4.883   4.251
 6919SOL    HW221210   5.053   4.933   4.214
 6920SOL     OW21211   4.274   3.899   4.621
 6920SOL    HW121212   4.277   3.931   4.712
 6920SOL    HW221213   4.274   3.979   4.568
 6921SOL     OW21214   4.738   5.160   4.202
 6921SOL    HW121215   4.667   5.224   4.205
 6921SOL    HW221216   4.756   5.139   4.293
 6922SOL     OW21217   4.931   5.268   5.299
 6922SOL    HW121218   4.913   5.181   5.335
 6922SOL    HW221219   4.895   5.265   5.211
 6923SOL     OW21220   4.038   4.681   3.978
 6923SOL    HW121221   4.121   4.701   3.934
 6923SOL    HW221222   4.009   4.598   3.938
 6924SOL     OW21223   4.188   4.987   5.467
 6924SOL    HW121224   4.161   4.991   5.375
 6924SOL    HW221225   4.106   4.988   5.516
 6925SOL     OW21226   4.789   0.166   3.933
 6925SOL    HW121227   4.801   0.115   4.013
 6925SOL    HW221228   4.863   0.141   3.877
 6926SOL     OW21229   3.927   3.996   5.228
 6926SOL    HW121230   3.847   4.048   5.231
 6926SOL    HW221231   3.903   3.913   5.269
 6927SOL     OW21232   5.113   3.829   4.147
 6927SOL    HW121233   5.096   3.810   4.055
 6927SOL    HW221234   5.207   3.848   4.151
 6928SOL     OW21235   4.121   4.418   4.197
 6928SOL    HW121236   4.138   4.325   4.211
 6928SOL    HW221237   4.027   4.428   4.213
 6929SOL     OW21238   4.369   3.842   3.826
 6929SOL    HW121239   4.429   3.769   3.843
 6929SOL    HW221240   4.315   3.811   3.753
 6930SOL     OW21241   4.486   4.004   5.480
 6930SOL    HW121242   4.567   3.953   5.477
 6930SOL    HW221243   4.440   3.972   5.559
 6931SOL     OW21244   5.056   4.318   5.156
 6931SOL    HW121245   5.086   4.289   5.242
 6931SOL    HW221246   5.101   4.401   5.142
 6932SOL     OW21247   4.542   5.111   4.666
 6932SOL    HW121248   4.621   5.104   4.612
 6932SOL    HW221249   4.471   5.121   4.603
 6933SOL     OW21250   4.652   4.232   4.624
 6933SOL    HW121251   4.628   4.224   4.531
 6933SOL    HW221252   4.681   4.145   4.649
 6934SOL     OW21253   4.277   3.788   4.220
 6934SOL    HW121254   4.197   3.787   4.273
 6934SOL    HW221255   4.268   3.865   4.164
 6935SOL     OW21256   5.126   4.906   3.767
 6935SOL    HW121257   5.123   4.823   3.813
 6935SOL    HW221258   5.040   4.945   3.782
 6936SOL     OW21259   4.013   3.772   3.910
 6936SOL    HW121260   4.070   3.836   3.867
 6936SOL    HW221261   4.073   3.711   3.952
 6937SOL     OW21262   4.665   3.974   4.179
 6937SOL    HW121263   4.639   4.011   4.094
 6937SOL    HW221264   4.759   3.988   4.184
 6938SOL     OW21265   4.801   4.409   5.181
 6938SOL    HW121266   4.737   4.337   5.182
 6938SOL    HW221267   4.885   4.365   5.173
 6939SOL     OW21268   4.990   5.264   4.484
 6939SOL    HW121269   4.940   0.046   4.477
 6939SOL    HW221270   5.043   5.275   4.563
 6940SOL     OW21271   4.192   4.874   4.446
 6940SOL    HW121272   4.127   4.853   4.512
 6940SOL    HW221273   4.147   4.860   4.362
 6941SOL     OW21274   4.747   4.259   3.750
 6941SOL    HW121275   4.702   4.342   3.731
 6941SOL    HW221276   4.808   4.281   3.821
 6942SOL     OW21277   3.808   4.277   5.117
 6942SOL    HW121278   3.900   4.277   5.090
 6942SOL    HW221279   3.803   4.347   5.182
 6943SOL     OW21280   4.281   3.951   4.895
 6943SOL    HW121281   4.323   3.879   4.940
 6943SOL    HW221282   4.190   3.947   4.923
 6944SOL     OW21283   4.591   4.182   4.361
 6944SOL    HW121284   4.547   4.238   4.298
 6944SOL    HW221285   4.613   4.103   4.312
 6945SOL     OW21286   4.740   3.779   4.471
 6945SOL    HW121287   4.681   3.773   4.396
 6945SOL    HW221288   4.716   3.703   4.526
 6946SOL     OW21289   5.150   4.903   4.572
 6946SOL    HW121290   5.098   4.824   4.589
 6946SOL    HW221291   5.160   4.905   4.477
 6947SOL     OW21292   4.193   5.153   3.866
 6947SOL    HW121293   4.139   5.098   3.922
 6947SOL    HW221294   4.216   5.096   3.792
 6948SOL     OW21295   5.131   4.280   3.810
 6948SOL    HW121296   5.053   4.272   3.866
 6948SOL    HW221297   5.202   4.248   3.865
 6949SOL     OW21298   4.250   3.986   4.035
 6949SOL    HW121299   4.300   3.942   3.966
 6949SOL    HW221300   4.223   4.069   3.995
 6950SOL     OW21301   4.784   5.072   5.050
 6950SOL    HW121302   4.705   5.048   5.098
 6950SOL    HW221303   4.856   5.038   5.104
 6951SOL     OW21304   4.852   4.925   4.831
 6951SOL    HW121305   4.804   4.968   4.902
 6951SOL    HW221306   4.801   4.943   4.753
 6952SOL     OW21307   4.641   3.818   5.117
 6952SOL    HW121308   4.663   3.800   5.025
 6952SOL    HW221309   4.721   3.856   5.153
 6953SOL     OW21310   4.704   4.828   5.458
 6953SOL    HW121311   4.612   4.849   5.478
 6953SOL    HW221312   4.699   4.754   5.398
 6954SOL     OW21313   4.431   4.786   4.095
 6954SOL    HW121314   4.417   4.766   4.188
 6954SOL    HW221315   4.507   4.734   4.071
 6955SOL     OW21316   4.146   4.543   4.976
 6955SOL    HW121317   4.213   4.552   5.043
 6955SOL    HW221318   4.111   4.454   4.989
 6956SOL     OW21319   4.985   4.097   5.006
 6956SOL    HW121320   5.020   4.177   5.045
 6956SOL    HW221321   4.895   4.119   4.982
 6957SOL     OW21322   4.056   4.840   4.210
 6957SOL    HW121323   4.055   4.913   4.149
 6957SOL    HW221324   4.059   4.762   4.155
 6958SOL     OW21325   4.271   4.256   4.584
 6958SOL    HW121326   4.285   4.314   4.509
 6958SOL    HW221327   4.338   4.280   4.646
 6959SOL     OW21328   4.984   5.084   4.111
 6959SOL    HW121329   5.035   5.162   4.133
 6959SOL    HW221330   4.895   5.103   4.141
 6960SOL     OW21331   4.974   5.185   4.845
 6960SOL    HW121332   5.024   5.210   4.923
 6960SOL    HW221333   4.941   5.098   4.866
 6961SOL     OW21334   4.074   5.235   5.033
 6961SOL    HW121335   4.063   5.198   4.945
 6961SOL    HW221336   4.168   5.255   5.039
 6962SOL     OW21337   4.142   4.469   5.328
 6962SOL    HW121338   4.205   4.513   5.270
 6962SOL    HW221339   4.180   4.383   5.344
 6963SOL     OW21340   4.718   3.859   5.480
 6963SOL    HW121341   4.777   3.931   5.458
 6963SOL    HW221342   4.764   3.780   5.452
 6964SOL     OW21343   4.221   3.760   5.475
 6964SOL    HW121344   4.174   3.707   5.410
 6964SOL    HW221345   4.165   3.836   5.490
 6965SOL     OW21346   4.309   4.597   4.756
 6965SOL    HW121347   4.342   4.687   4.757
 6965SOL    HW221348   4.253   4.591   4.833
 6966SOL     OW21349   5.086   4.578   4.757
 6966SOL    HW121350   5.010   4.549   4.707
 6966SOL    HW221351   5.149   4.507   4.747
 6967SOL     OW21352   4.920   4.254   3.982
 6967SOL    HW121353   4.927   4.175   4.036
 6967SOL    HW221354   4.879   4.318   4.041
 6968SOL     OW21355   4.019   3.920   4.971
 6968SOL    HW121356   3.984   3.952   5.054
 6968SOL    HW221357   4.001   3.826   4.972
 6969SOL     OW21358   3.784   5.051   5.010
 6969SOL    HW121359   3.803   4.982   5.074
 6969SOL    HW221360   3.813   5.132   5.051
 6970SOL     OW21361   4.444   4.352   4.777
 6970SOL    HW121362   4.521   4.340   4.721
 6970SOL    HW221363   4.415   4.442   4.759
 6971SOL     OW21364   4.033   3.785   4.349
 6971SOL    HW121365   4.009   3.876   4.369
 6971SOL    HW221366   4.041   3.743   4.434
 6972SOL     OW21367   0.031   4.138   4.076
 6972SOL    HW121368   0.043   4.055   4.123
 6972SOL    HW221369   0.039   4.205   4.144
 6973SOL     OW21370   4.750   4.482   4.679
 6973SOL    HW121371   4.745   4.499   4.773
 6973SOL    HW221372   4.725   4.390   4.670
 6974SOL     OW21373   4.075   4.640   5.534
 6974SOL    HW121374   4.155   4.660   5.581
 6974SOL    HW221375   4.102   4.578   5.466
 6975SOL     OW21376   5.030   4.551   3.761
 6975SOL    HW121377   5.067   4.463   3.765
 6975SOL    HW221378   5.058   4.584   3.676
 6976SOL     OW21379   4.778   5.090   4.532
 6976SOL    HW121380   4.786   5.001   4.499
 6976SOL    HW221381   4.866   5.127   4.523
 6977SOL     OW21382   4.032   4.532   4.670
 6977SOL    HW121383   4.126   4.552   4.663
 6977SOL    HW221384   4.029   4.442   4.701
 6978SOL     OW21385   4.050   4.255   4.737
 6978SOL    HW121386   4.015   4.167   4.724
 6978SOL    HW221387   4.128   4.258   4.680
 6979SOL     OW21388   4.857   4.097   5.409
 6979SOL    HW121389   4.808   4.151   5.471
 6979SOL    HW221390   4.943   4.138   5.404
 6980SOL     OW21391   4.885   3.921   5.196
 6980SOL    HW121392   4.873   3.983   5.268
 6980SOL    HW221393   4.925   3.972   5.126
 6981SOL     OW21394   3.729   5.035   3.917
 6981SOL    HW121395   3.638   5.054   3.895
 6981SOL    HW221396   3.727   4.946   3.953
 6982SOL     OW21397   4.696   4.511   4.946
 6982SOL    HW121398   4.756   4.493   5.018
 6982SOL    HW221399   4.614   4.470   4.973
 6983SOL     OW21400   3.761   4.273   4.841
 6983SOL    HW121401   3.841   4.266   4.790
 6983SOL    HW221402   3.790   4.274   4.932
 6984SOL     OW21403   3.916   4.247   5.455
 6984SOL    HW121404   3.971   4.203   5.390
 6984SOL    HW221405   3.880   4.323   5.410
 6985SOL     OW21406   5.121   4.654   5.389
 6985SOL    HW121407   5.125   4.749   5.377
 6985SOL    HW221408   5.126   4.618   5.301
 6986SOL     OW21409   4.542   4.294   4.090
 6986SOL    HW121410   4.546   4.220   4.030
 6986SOL    HW221411   4.467   4.345   4.059
 6987SOL     OW21412   3.925   5.273   5.471
 6987SOL    HW121413   3.895   0.020   5.549
 6987SOL    HW221414   3.939   5.183   5.501
 6988SOL     OW21415   4.436   4.168   4.976
 6988SOL    HW121416   4.378   4.097   4.950
 6988SOL    HW221417   4.428   4.233   4.906
 6989SOL     OW21418   4.183   4.216   3.905
 6989SOL    HW121419   4.243   4.286   3.930
 6989SOL    HW221420   4.098   4.259   3.895
 6990SOL     OW21421   3.864   4.863   5.197
 6990SOL    HW121422   3.867   4.815   5.280
 6990SOL    HW221423   3.882   4.796   5.130
 6991SOL     OW21424   5.045   4.765   4.951
 6991SOL    HW121425   5.068   4.702   4.882
 6991SOL    HW221426   4.977   4.820   4.911
 6992SOL     OW21427   5.038   4.587   4.041
 6992SOL    HW121428   4.957   4.552   4.079
 6992SOL    HW221429   5.027   4.577   3.946
 6993SOL     OW21430   3.824   4.986   4.748
 6993SOL    HW121431   3.802   5.008   4.839
 6993SOL    HW221432   3.743   4.950   4.712
 6994SOL     OW21433   4.470   0.017   5.445
 6994SOL    HW121434   4.380   0.050   5.438
 6994SOL    HW221435   4.518   0.065   5.378
 6995SOL     OW21436   0.067   3.891   4.264
 6995SOL    HW121437   0.135   3.866   4.202
 6995SOL    HW221438   0.061   3.817   4.324
 6996SOL     OW21439   5.020   4.645   4.392
 6996SOL    HW121440   5.099   4.591   4.383
 6996SOL    HW221441   5.040   4.725   4.344
 6997SOL     OW21442   4.532   4.990   5.126
 6997SOL    HW121443   4.499   5.024   5.210
 6997SOL    HW221444   4.458   4.999   5.066
 6998SOL     OW21445   3.981   4.036   4.438
 6998SOL    HW121446   3.895   4.071   4.415
 6998SOL    HW221447   3.980   4.033   4.534
 6999SOL     OW21448   4.550   4.724   5.095
 6999SOL    HW121449   4.597   4.712   5.013
 6999SOL    HW221450   4.550   4.819   5.109
 7000SOL     OW21451   4.641   4.637   4.016
 7000SOL    HW121452   4.703   4.670   3.951
 7000SOL    HW221453   4.689   4.568   4.061
 7001SOL     OW21454   4.085   5.029   5.223
 7001SOL    HW121455   4.077   5.101   5.161
 7001SOL    HW221456   4.009   4.973   5.206
 7002SOL     OW21457   4.787   4.836   4.443
 7002SOL    HW121458   4.714   4.786   4.478
 7002SOL    HW221459   4.846   4.771   4.406
 7003SOL     OW21460   4.738   3.964   4.693
 7003SOL    HW121461   4.737   3.917   4.609
 7003SOL    HW221462   4.733   3.894   4.759
 7004SOL     OW21463   3.983   5.046   4.015
 7004SOL    HW121464   3.892   5.046   3.986
 7004SOL    HW221465   3.982   5.097   4.095
 7005SOL     OW21466   3.837   4.755   5.449
 7005SOL    HW121467   3.761   4.727   5.500
 7005SOL    HW221468   3.912   4.713   5.491
 7006SOL     OW21469   4.400   3.918   5.224
 7006SOL    HW121470   4.485   3.897   5.184
 7006SOL    HW221471   4.423   3.952   5.311
 7007SOL     OW21472   3.804   4.052   3.756
 7007SOL    HW121473   3.718   4.033   3.718
 7007SOL    HW221474   3.835   4.130   3.708
 7008SOL     OW21475   5.168   4.582   5.125
 7008SOL    HW121476   5.114   4.641   5.072
 7008SOL    HW221477   5.256   4.590   5.088
 7009SOL     OW21478   3.786   3.879   4.025
 7009SOL    HW121479   3.773   3.957   3.972
 7009SOL    HW221480   3.871   3.845   3.998
 7010SOL     OW21481   4.904   5.059   3.846
 7010SOL    HW121482   4.810   5.041   3.847
 7010SOL    HW221483   4.930   5.055   3.938
 7011SOL     OW21484   4.344   4.555   5.160
 7011SOL    HW121485   4.402   4.630   5.143
 7011SOL    HW221486   4.403   4.480   5.166
 7012SOL     OW21487   4.441   4.283   5.424
 7012SOL    HW121488   4.486   4.341   5.485
 7012SOL    HW221489   4.459   4.195   5.457
 7013SOL     OW21490   5.182   4.922   5.357
 7013SOL    HW121491   5.167   4.936   5.450
 7013SOL    HW221492   5.277   4.928   5.346
 7014SOL     OW21493   4.936   4.045   4.176
 7014SOL    HW121494   4.996   3.971   4.166
 7014SOL    HW221495   4.967   4.090   4.255
 7015SOL     OW21496   4.311   4.458   4.398
 7015SOL    HW121497   4.351   4.543   4.384
 7015SOL    HW221498   4.246   4.449   4.327
 7016SOL     OW21499   4.584   5.092   3.747
 7016SOL    HW121500   4.560   5.095   3.839
 7016SOL    HW221501   4.573   5.182   3.716
 7017SOL     OW21502   4.595   4.696   4.578
 7017SOL    HW121503   4.642   4.622   4.616
 7017SOL    HW221504   4.554   4.739   4.653
 7018SOL     OW21505   4.812   4.712   3.819
 7018SOL    HW121506   4.782   4.759   3.741
 7018SOL    HW221507   4.883   4.656   3.788
 7019SOL     OW21508   3.942   5.017   5.574
 7019SOL    HW121509   3.882   4.948   5.545
 7019SOL    HW221510   3.926   5.025   5.668
 7020SOL     OW21511   3.815   4.951   4.392
 7020SOL    HW121512   3.816   4.901   4.474
 7020SOL    HW221513   3.878   4.905   4.336
 7021SOL     OW21514   4.402   5.090   5.332
 7021SOL    HW121515   4.321   5.066   5.378
 7021SOL    HW221516   4.434   5.167   5.378
 7022SOL     OW21517   4.152   4.157   4.250
 7022SOL    HW121518   4.183   4.086   4.192
 7022SOL    HW221519   4.102   4.112   4.318
 7023SOL     OW21520   0.127   5.234   4.770
 7023SOL    HW121521   0.042   5.208   4.734
 7023SOL    HW221522   0.108   5.253   4.863
 7024SOL     OW21523   4.059   4.284   5.017
 7024SOL    HW121524   4.114   4.227   5.071
 7024SOL    HW221525   4.076   4.255   4.927
 7025SOL     OW21526   5.141   3.943   4.840
 7025SOL    HW121527   5.188   3.881   4.895
 7025SOL    HW221528   5.093   3.999   4.902
 7026SOL     OW21529   4.726   3.739   4.860
 7026SOL    HW121530   4.674   3.673   4.815
 7026SOL    HW221531   4.814   3.701   4.866
 7027SOL     OW21532   4.532   5.044   4.010
 7027SOL    HW121533   4.482   4.966   4.035
 7027SOL    HW221534   4.588   5.061   4.085
 7028SOL     OW21535   4.347   0.001   5.024
 7028SOL    HW121536   4.347   0.054   5.104
 7028SOL    HW221537   4.439   5.285   5.006
 7029SOL     OW21538   5.053   3.766   3.889
 7029SOL    HW121539   5.067   3.728   3.802
 7029SOL    HW221540   4.968   3.732   3.917
 7030SOL     OW21541   5.024   4.183   4.400
 7030SOL    HW121542   4.972   4.263   4.404
 7030SOL    HW221543   5.012   4.142   4.486
 7031SOL     OW21544   0.002   3.953   4.612
 7031SOL    HW121545   5.237   3.941   4.682
 7031SOL    HW221546   5.270   4.028   4.563
 7032SOL     OW21547   3.766   4.788   4.034
 7032SOL    HW121548   3.860   4.781   4.017
 7032SOL    HW221549   3.739   4.698   4.055
 7033SOL     OW21550   3.947   4.348   5.715
 7033SOL    HW121551   3.858   4.343   5.750
 7033SOL    HW221552   3.938   4.325   5.623
 7034SOL     OW21553   3.948   4.008   6.579
 7034SOL    HW121554   3.976   3.973   6.663
 7034SOL    HW221555   3.859   3.976   6.568
 7035SOL     OW21556   3.723   4.109   6.225
 7035SOL    HW121557   3.642   4.135   6.268
 7035SOL    HW221558   3.699   4.031   6.174
 7036SOL     OW21559   4.295   5.015   6.775
 7036SOL    HW121560   4.211   5.013   6.729
 7036SOL    HW221561   4.309   5.108   6.795
 7037SOL     OW21562   5.273   5.229   6.271
 7037SOL    HW121563   5.278   5.217   6.366
 7037SOL    HW221564   5.179   5.230   6.253
 7038SOL     OW21565   4.863   4.423   6.281
 7038SOL    HW121566   4.914   4.503   6.271
 7038SOL    HW221567   4.814   4.435   6.362
 7039SOL     OW21568   4.471   4.862   6.629
 7039SOL    HW121569   4.407   4.897   6.692
 7039SOL    HW221570   4.504   4.940   6.584
 7040SOL     OW21571   4.598   4.487   7.406
 7040SOL    HW121572   4.573   4.559   7.464
 7040SOL    HW221573   4.621   4.529   7.323
 7041SOL     OW21574   4.409   4.720   6.231
 7041SOL    HW121575   4.475   4.714   6.300
 7041SOL    HW221576   4.341   4.776   6.267
 7042SOL     OW21577   4.435   4.872   7.405
 7042SOL    HW121578   4.485   4.950   7.428
 7042SOL    HW221579   4.355   4.905   7.364
 7043SOL     OW21580   4.062   5.137   6.643
 7043SOL    HW121581   3.982   5.091   6.618
 7043SOL    HW221582   4.092   5.178   6.562
 7044SOL     OW21583   5.114   5.241   6.925
 7044SOL    HW121584   5.136   0.005   6.993
 7044SOL    HW221585   5.095   5.161   6.974
 7045SOL     OW21586   4.175   4.117   7.065
 7045SOL    HW121587   4.251   4.060   7.074
 7045SOL    HW221588   4.100   4.061   7.084
 7046SOL     OW21589   4.870   5.041   7.289
 7046SOL    HW121590   4.883   5.063   7.381
 7046SOL    HW221591   4.807   4.969   7.290
 7047SOL     OW21592   3.934   5.164   6.111
 7047SOL    HW121593   3.967   5.237   6.162
 7047SOL    HW221594   3.886   5.110   6.175
 7048SOL     OW21595   3.991   4.811   6.478
 7048SOL    HW121596   3.988   4.723   6.515
 7048SOL    HW221597   3.934   4.863   6.535
 7049SOL     OW21598   4.302   4.707   5.726
 7049SOL    HW121599   4.350   4.753   5.658
 7049SOL    HW221600   4.340   4.739   5.808
 7050SOL     OW21601   3.842   4.379   6.147
 7050SOL    HW121602   3.812   4.291   6.169
 7050SOL    HW221603   3.834   4.428   6.229
 7051SOL     OW21604   3.714   0.009   5.679
 7051SOL    HW121605   3.725   5.221   5.714
 7051SOL    HW221606   3.731   0.067   5.753
 7052SOL     OW21607   0.112   4.655   6.154
 7052SOL    HW121608   0.205   4.634   6.148
 7052SOL    HW221609   0.109   4.750   6.164
 7053SOL     OW21610   3.849   4.468   7.171
 7053SOL    HW121611   3.939   4.499   7.173
 7053SOL    HW221612   3.796   4.547   7.173
 7054SOL     OW21613   4.349   5.101   6.330
 7054SOL    HW121614   4.295   5.022   6.323
 7054SOL    HW221615   4.332   5.149   6.249
 7055SOL     OW21616   5.026   4.979   7.002
 7055SOL    HW121617   5.049   4.905   6.945
 7055SOL    HW221618   5.069   4.959   7.085
 7056SOL     OW21619   4.543   3.729   6.100
 7056SOL    HW121620   4.584   3.812   6.075
 7056SOL    HW221621   4.450   3.748   6.105
 7057SOL     OW21622   3.911   4.683   6.863
 7057SOL    HW121623   3.998   4.644   6.848
 7057SOL    HW221624   3.853   4.636   6.803
 7058SOL     OW21625   4.065   3.970   7.416
 7058SOL    HW121626   4.105   4.055   7.431
 7058SOL    HW221627   3.972   3.983   7.435
 7059SOL     OW21628   5.181   5.156   6.534
 7059SOL    HW121629   5.112   5.167   6.599
 7059SOL    HW221630   5.167   5.068   6.499
 7060SOL     OW21631   0.035   0.167   6.145
 7060SOL    HW121632   0.081   0.132   6.068
 7060SOL    HW221633   0.026   0.092   6.203
 7061SOL     OW21634   4.319   4.441   5.857
 7061SOL    HW121635   4.321   4.524   5.811
 7061SOL    HW221636   4.253   4.453   5.926
 7062SOL     OW21637   4.993   4.062   6.501
 7062SOL    HW121638   4.904   4.033   6.523
 7062SOL    HW221639   5.047   4.027   6.572
 7063SOL     OW21640   4.512   4.341   7.033
 7063SOL    HW121641   4.488   4.315   7.121
 7063SOL    HW221642   4.479   4.272   6.977
 7064SOL     OW21643   5.114   4.210   7.269
 7064SOL    HW121644   5.118   4.242   7.360
 7064SOL    HW221645   5.196   4.162   7.258
 7065SOL     OW21646   4.673   4.608   7.170
 7065SOL    HW121647   4.727   4.539   7.132
 7065SOL    HW221648   4.624   4.645   7.096
 7066SOL     OW21649   4.717   4.133   6.818
 7066SOL    HW121650   4.627   4.149   6.847
 7066SOL    HW221651   4.707   4.090   6.733
 7067SOL     OW21652   4.778   4.423   6.010
 7067SOL    HW121653   4.797   4.417   6.104
 7067SOL    HW221654   4.694   4.378   6.000
 7068SOL     OW21655   3.812   4.546   6.364
 7068SOL    HW121656   3.892   4.539   6.415
 7068SOL    HW221657   3.767   4.623   6.399
 7069SOL     OW21658   4.623   4.073   5.780
 7069SOL    HW121659   4.661   4.137   5.720
 7069SOL    HW221660   4.635   3.989   5.737
 7070SOL     OW21661   5.100   4.877   6.139
 7070SOL    HW121662   5.192   4.883   6.112
 7070SOL    HW221663   5.053   4.933   6.076
 7071SOL     OW21664   4.275   3.900   6.484
 7071SOL    HW121665   4.277   3.931   6.574
 7071SOL    HW221666   4.275   3.980   6.431
 7072SOL     OW21667   4.738   5.160   6.064
 7072SOL    HW121668   4.667   5.224   6.067
 7072SOL    HW221669   4.756   5.139   6.156
 7073SOL     OW21670   4.934   5.267   7.162
 7073SOL    HW121671   4.915   5.180   7.196
 7073SOL    HW221672   4.895   5.267   7.074
 7074SOL     OW21673   4.038   4.681   5.840
 7074SOL    HW121674   4.121   4.701   5.796
 7074SOL    HW221675   4.010   4.599   5.800
 7075SOL     OW21676   4.186   4.987   7.331
 7075SOL    HW121677   4.158   4.992   7.239
 7075SOL    HW221678   4.105   4.987   7.381
 7076SOL     OW21679   4.789   0.166   5.795
 7076SOL    HW121680   4.801   0.115   5.875
 7076SOL    HW221681   4.863   0.141   5.739
 7077SOL     OW21682   3.926   3.994   7.090
 7077SOL    HW121683   3.845   4.045   7.092
 7077SOL    HW221684   3.903   3.910   7.130
 7078SOL     OW21685   5.113   3.829   6.009
 7078SOL    HW121686   5.096   3.811   5.917
 7078SOL    HW221687   5.207   3.848   6.013
 7079SOL     OW21688   4.121   4.418   6.059
 7079SOL    HW121689   4.137   4.325   6.073
 7079SOL    HW221690   4.027   4.428   6.075
 7080SOL     OW21691   4.369   3.841   5.688
 7080SOL    HW121692   4.430   3.770   5.705
 7080SOL    HW221693   4.315   3.811   5.615
 7081SOL     OW21694   4.485   4.003   7.344
 7081SOL    HW121695   4.566   3.952   7.340
 7081SOL    HW221696   4.443   3.975   7.425
 7082SOL     OW21697   5.056   4.318   7.018
 7082SOL    HW121698   5.086   4.289   7.104
 7082SOL    HW221699   5.101   4.401   7.004
 7083SOL     OW21700   4.542   5.111   6.528
 7083SOL    HW121701   4.621   5.104   6.474
 7083SOL    HW221702   4.471   5.121   6.465
 7084SOL     OW21703   4.652   4.233   6.486
 7084SOL    HW121704   4.628   4.223   6.393
 7084SOL    HW221705   4.681   4.145   6.512
 7085SOL     OW21706   4.276   3.787   6.082
 7085SOL    HW121707   4.196   3.787   6.135
 7085SOL    HW221708   4.268   3.865   6.026
 7086SOL     OW21709   5.127   4.906   5.629
 7086SOL    HW121710   5.123   4.823   5.675
 7086SOL    HW221711   5.040   4.946   5.644
 7087SOL     OW21712   4.013   3.772   5.772
 7087SOL    HW121713   4.070   3.836   5.730
 7087SOL    HW221714   4.073   3.710   5.814
 7088SOL     OW21715   4.664   3.974   6.040
 7088SOL    HW121716   4.639   4.011   5.956
 7088SOL    HW221717   4.759   3.988   6.046
 7089SOL     OW21718   4.801   4.408   7.043
 7089SOL    HW121719   4.737   4.337   7.045
 7089SOL    HW221720   4.885   4.364   7.035
 7090SOL     OW21721   4.990   5.264   6.346
 7090SOL    HW121722   4.940   0.045   6.339
 7090SOL    HW221723   5.042   5.275   6.425
 7091SOL     OW21724   4.192   4.874   6.308
 7091SOL    HW121725   4.127   4.853   6.374
 7091SOL    HW221726   4.147   4.860   6.224
 7092SOL     OW21727   4.747   4.259   5.612
 7092SOL    HW121728   4.702   4.342   5.593
 7092SOL    HW221729   4.808   4.281   5.683
 7093SOL     OW21730   3.809   4.277   6.979
 7093SOL    HW121731   3.900   4.277   6.952
 7093SOL    HW221732   3.803   4.347   7.044
 7094SOL     OW21733   4.281   3.951   6.757
 7094SOL    HW121734   4.324   3.879   6.803
 7094SOL    HW221735   4.190   3.947   6.785
 7095SOL     OW21736   4.591   4.182   6.223
 7095SOL    HW121737   4.547   4.238   6.160
 7095SOL    HW221738   4.613   4.103   6.174
 7096SOL     OW21739   4.740   3.779   6.333
 7096SOL    HW121740   4.682   3.773   6.258
 7096SOL    HW221741   4.717   3.703   6.388
 7097SOL     OW21742   5.150   4.903   6.434
 7097SOL    HW121743   5.098   4.824   6.451
 7097SOL    HW221744   5.160   4.905   6.339
 7098SOL     OW21745   4.193   5.153   5.728
 7098SOL    HW121746   4.139   5.098   5.785
 7098SOL    HW221747   4.216   5.096   5.654
 7099SOL     OW21748   5.130   4.280   5.672
 7099SOL    HW121749   5.053   4.272   5.728
 7099SOL    HW221750   5.202   4.248   5.727
 7100SOL     OW21751   4.249   3.986   5.897
 7100SOL    HW121752   4.299   3.942   5.829
 7100SOL    HW221753   4.223   4.069   5.858
 7101SOL     OW21754   4.784   5.072   6.911
 7101SOL    HW121755   4.704   5.048   6.960
 7101SOL    HW221756   4.855   5.038   6.965
 7102SOL     OW21757   4.852   4.925   6.693
 7102SOL    HW121758   4.804   4.968   6.764
 7102SOL    HW221759   4.801   4.943   6.614
 7103SOL     OW21760   4.641   3.818   6.979
 7103SOL    HW121761   4.663   3.800   6.887
 7103SOL    HW221762   4.721   3.856   7.015
 7104SOL     OW21763   4.705   4.825   7.326
 7104SOL    HW121764   4.614   4.849   7.341
 7104SOL    HW221765   4.701   4.753   7.263
 7105SOL     OW21766   4.431   4.786   5.957
 7105SOL    HW121767   4.417   4.766   6.050
 7105SOL    HW221768   4.507   4.734   5.933
 7106SOL     OW21769   4.146   4.543   6.838
 7106SOL    HW121770   4.213   4.552   6.905
 7106SOL    HW221771   4.112   4.454   6.851
 7107SOL     OW21772   4.985   4.098   6.868
 7107SOL    HW121773   5.020   4.178   6.907
 7107SOL    HW221774   4.895   4.120   6.844
 7108SOL     OW21775   4.056   4.840   6.072
 7108SOL    HW121776   4.054   4.913   6.011
 7108SOL    HW221777   4.059   4.762   6.017
 7109SOL     OW21778   4.271   4.255   6.445
 7109SOL    HW121779   4.285   4.314   6.371
 7109SOL    HW221780   4.338   4.280   6.508
 7110SOL     OW21781   4.984   5.084   5.973
 7110SOL    HW121782   5.035   5.162   5.995
 7110SOL    HW221783   4.895   5.104   6.003
 7111SOL     OW21784   4.974   5.185   6.707
 7111SOL    HW121785   5.024   5.210   6.785
 7111SOL    HW221786   4.941   5.098   6.728
 7112SOL     OW21787   4.074   5.235   6.895
 7112SOL    HW121788   4.063   5.198   6.808
 7112SOL    HW221789   4.168   5.255   6.901
 7113SOL     OW21790   4.141   4.470   7.189
 7113SOL    HW121791   4.205   4.513   7.132
 7113SOL    HW221792   4.178   4.383   7.205
 7114SOL     OW21793   4.718   3.859   7.340
 7114SOL    HW121794   4.778   3.931   7.318
 7114SOL    HW221795   4.764   3.780   7.313
 7115SOL     OW21796   4.222   3.759   7.337
 7115SOL    HW121797   4.175   3.707   7.272
 7115SOL    HW221798   4.166   3.835   7.352
 7116SOL     OW21799   4.309   4.597   6.618
 7116SOL    HW121800   4.342   4.687   6.619
 7116SOL    HW221801   4.253   4.591   6.695
 7117SOL     OW21802   5.086   4.578   6.619
 7117SOL    HW121803   5.010   4.549   6.569
 7117SOL    HW221804   5.150   4.507   6.609
 7118SOL     OW21805   4.920   4.254   5.844
 7118SOL    HW121806   4.927   4.175   5.898
 7118SOL    HW221807   4.879   4.318   5.902
 7119SOL     OW21808   4.020   3.920   6.833
 7119SOL    HW121809   3.984   3.952   6.916
 7119SOL    HW221810   4.002   3.826   6.833
 7120SOL     OW21811   3.785   5.050   6.871
 7120SOL    HW121812   3.804   4.982   6.936
 7120SOL    HW221813   3.812   5.132   6.914
 7121SOL     OW21814   4.444   4.352   6.639
 7121SOL    HW121815   4.521   4.340   6.583
 7121SOL    HW221816   4.415   4.442   6.620
 7122SOL     OW21817   4.032   3.785   6.210
 7122SOL    HW121818   4.009   3.875   6.231
 7122SOL    HW221819   4.040   3.742   6.296
 7123SOL     OW21820   0.031   4.137   5.938
 7123SOL    HW121821   0.043   4.055   5.985
 7123SOL    HW221822   0.039   4.205   6.006
 7124SOL     OW21823   4.750   4.482   6.541
 7124SOL    HW121824   4.745   4.499   6.635
 7124SOL    HW221825   4.725   4.390   6.532
 7125SOL     OW21826   4.075   4.639   7.396
 7125SOL    HW121827   4.157   4.660   7.440
 7125SOL    HW221828   4.101   4.576   7.328
 7126SOL     OW21829   5.030   4.551   5.623
 7126SOL    HW121830   5.067   4.463   5.627
 7126SOL    HW221831   5.058   4.585   5.538
 7127SOL     OW21832   4.778   5.090   6.394
 7127SOL    HW121833   4.786   5.001   6.361
 7127SOL    HW221834   4.866   5.127   6.385
 7128SOL     OW21835   4.032   4.532   6.532
 7128SOL    HW121836   4.126   4.552   6.525
 7128SOL    HW221837   4.029   4.442   6.563
 7129SOL     OW21838   4.050   4.255   6.599
 7129SOL    HW121839   4.015   4.167   6.586
 7129SOL    HW221840   4.128   4.258   6.542
 7130SOL     OW21841   4.858   4.098   7.269
 7130SOL    HW121842   4.809   4.152   7.331
 7130SOL    HW221843   4.944   4.139   7.265
 7131SOL     OW21844   4.885   3.921   7.057
 7131SOL    HW121845   4.873   3.983   7.129
 7131SOL    HW221846   4.925   3.973   6.987
 7132SOL     OW21847   3.729   5.035   5.779
 7132SOL    HW121848   3.638   5.054   5.757
 7132SOL    HW221849   3.727   4.946   5.815
 7133SOL     OW21850   4.696   4.511   6.808
 7133SOL    HW121851   4.756   4.493   6.880
 7133SOL    HW221852   4.613   4.470   6.835
 7134SOL     OW21853   3.761   4.273   6.703
 7134SOL    HW121854   3.841   4.266   6.652
 7134SOL    HW221855   3.790   4.274   6.794
 7135SOL     OW21856   3.916   4.245   7.317
 7135SOL    HW121857   3.968   4.200   7.250
 7135SOL    HW221858   3.880   4.322   7.272
 7136SOL     OW21859   5.121   4.654   7.253
 7136SOL    HW121860   5.124   4.749   7.239
 7136SOL    HW221861   5.124   4.617   7.165
 7137SOL     OW21862   4.542   4.294   5.952
 7137SOL    HW121863   4.546   4.220   5.892
 7137SOL    HW221864   4.467   4.345   5.921
 7138SOL     OW21865   3.922   5.271   7.332
 7138SOL    HW121866   3.870   0.009   7.403
 7138SOL    HW221867   3.941   5.182   7.361
 7139SOL     OW21868   4.437   4.169   6.838
 7139SOL    HW121869   4.379   4.097   6.813
 7139SOL    HW221870   4.428   4.233   6.768
 7140SOL     OW21871   4.183   4.216   5.767
 7140SOL    HW121872   4.243   4.286   5.791
 7140SOL    HW221873   4.098   4.258   5.757
 7141SOL     OW21874   3.865   4.862   7.059
 7141SOL    HW121875   3.867   4.815   7.142
 7141SOL    HW221876   3.882   4.795   6.993
 7142SOL     OW21877   5.045   4.765   6.813
 7142SOL    HW121878   5.068   4.702   6.745
 7142SOL    HW221879   4.977   4.820   6.773
 7143SOL     OW21880   5.038   4.587   5.903
 7143SOL    HW121881   4.957   4.552   5.941
 7143SOL    HW221882   5.027   4.577   5.808
 7144SOL     OW21883   3.824   4.986   6.610
 7144SOL    HW121884   3.802   5.008   6.700
 7144SOL    HW221885   3.743   4.950   6.574
 7145SOL     OW21886   4.468   0.014   7.313
 7145SOL    HW121887   4.380   0.050   7.302
 7145SOL    HW221888   4.523   0.066   7.254
 7146SOL     OW21889   0.067   3.891   6.126
 7146SOL    HW121890   0.136   3.866   6.065
 7146SOL    HW221891   0.060   3.817   6.187
 7147SOL     OW21892   5.020   4.645   6.254
 7147SOL    HW121893   5.099   4.591   6.245
 7147SOL    HW221894   5.040   4.725   6.206
 7148SOL     OW21895   4.532   4.991   6.989
 7148SOL    HW121896   4.498   5.024   7.072
 7148SOL    HW221897   4.459   5.000   6.928
 7149SOL     OW21898   3.981   4.036   6.300
 7149SOL    HW121899   3.895   4.072   6.277
 7149SOL    HW221900   3.980   4.032   6.396
 7150SOL     OW21901   4.550   4.724   6.957
 7150SOL    HW121902   4.597   4.712   6.874
 7150SOL    HW221903   4.549   4.819   6.971
 7151SOL     OW21904   4.641   4.637   5.878
 7151SOL    HW121905   4.703   4.670   5.813
 7151SOL    HW221906   4.689   4.568   5.923
 7152SOL     OW21907   4.084   5.030   7.087
 7152SOL    HW121908   4.077   5.101   7.024
 7152SOL    HW221909   4.009   4.973   7.068
 7153SOL     OW21910   4.787   4.836   6.305
 7153SOL    HW121911   4.714   4.786   6.340
 7153SOL    HW221912   4.847   4.771   6.268
 7154SOL     OW21913   4.738   3.964   6.555
 7154SOL    HW121914   4.737   3.917   6.471
 7154SOL    HW221915   4.733   3.894   6.621
 7155SOL     OW21916   3.983   5.046   5.877
 7155SOL    HW121917   3.892   5.046   5.848
 7155SOL    HW221918   3.982   5.097   5.957
 7156SOL     OW21919   3.838   4.758   7.313
 7156SOL    HW121920   3.762   4.729   7.362
 7156SOL    HW221921   3.912   4.713   7.354
 7157SOL     OW21922   4.400   3.918   7.086
 7157SOL    HW121923   4.484   3.897   7.047
 7157SOL    HW221924   4.422   3.951   7.174
 7158SOL     OW21925   3.805   4.052   5.617
 7158SOL    HW121926   3.718   4.034   5.580
 7158SOL    HW221927   3.835   4.130   5.570
 7159SOL     OW21928   5.168   4.583   6.988
 7159SOL    HW121929   5.114   4.641   6.935
 7159SOL    HW221930   5.256   4.589   6.949
 7160SOL     OW21931   3.786   3.878   5.888
 7160SOL    HW121932   3.773   3.957   5.835
 7160SOL    HW221933   3.871   3.844   5.860
 7161SOL     OW21934   4.904   5.059   5.708
 7161SOL    HW121935   4.810   5.041   5.710
 7161SOL    HW221936   4.930   5.055   5.800
 7162SOL     OW21937   4.344   4.555   7.022
 7162SOL    HW121938   4.402   4.629   7.005
 7162SOL    HW221939   4.403   4.480   7.028
 7163SOL     OW21940   4.441   4.281   7.286
 7163SOL    HW121941   4.486   4.340   7.347
 7163SOL    HW221942   4.459   4.193   7.319
 7164SOL     OW21943   5.181   4.921   7.218
 7164SOL    HW121944   5.166   4.938   7.311
 7164SOL    HW221945   5.276   4.928   7.207
 7165SOL     OW21946   4.936   4.045   6.038
 7165SOL    HW121947   4.996   3.971   6.028
 7165SOL    HW221948   4.967   4.090   6.117
 7166SOL     OW21949   4.311   4.457   6.259
 7166SOL    HW121950   4.351   4.543   6.246
 7166SOL    HW221951   4.246   4.450   6.189
 7167SOL     OW21952   4.584   5.092   5.609
 7167SOL    HW121953   4.560   5.095   5.701
 7167SOL    HW221954   4.573   5.182   5.578
 7168SOL     OW21955   4.595   4.696   6.440
 7168SOL    HW121956   4.643   4.622   6.478
 7168SOL    HW221957   4.554   4.739   6.515
 7169SOL     OW21958   4.812   4.712   5.681
 7169SOL    HW121959   4.782   4.759   5.603
 7169SOL    HW221960   4.883   4.656   5.650
 7170SOL     OW21961   3.938   5.014   7.437
 7170SOL    HW121962   3.886   4.942   7.400
 7170SOL    HW221963   3.901   5.028   7.524
 7171SOL     OW21964   3.815   4.951   6.254
 7171SOL    HW121965   3.816   4.901   6.337
 7171SOL    HW221966   3.878   4.905   6.199
 7172SOL     OW21967   4.400   5.090   7.194
 7172SOL    HW121968   4.319   5.067   7.239
 7172SOL    HW221969   4.432   5.167   7.240
 7173SOL     OW21970   4.152   4.157   6.111
 7173SOL    HW121971   4.183   4.086   6.055
 7173SOL    HW221972   4.102   4.112   6.180
 7174SOL     OW21973   0.127   5.234   6.632
 7174SOL    HW121974   0.042   5.208   6.596
 7174SOL    HW221975   0.109   5.252   6.724
 7175SOL     OW21976   4.060   4.284   6.879
 7175SOL    HW121977   4.114   4.227   6.934
 7175SOL    HW221978   4.077   4.255   6.790
 7176SOL     OW21979   5.141   3.943   6.702
 7176SOL    HW121980   5.188   3.881   6.757
 7176SOL    HW221981   5.093   3.999   6.764
 7177SOL     OW21982   4.727   3.739   6.722
 7177SOL    HW121983   4.674   3.673   6.678
 7177SOL    HW221984   4.814   3.701   6.728
 7178SOL     OW21985   4.532   5.044   5.872
 7178SOL    HW121986   4.482   4.966   5.897
 7178SOL    HW221987   4.588   5.061   5.947
 7179SOL     OW21988   4.347   0.002   6.887
 7179SOL    HW121989   4.347   0.054   6.967
 7179SOL    HW221990   4.440   5.285   6.869
 7180SOL     OW21991   5.053   3.767   5.751
 7180SOL    HW121992   5.067   3.728   5.665
 7180SOL    HW221993   4.968   3.732   5.779
 7181SOL     OW21994   5.024   4.183   6.262
 7181SOL    HW121995   4.972   4.263   6.266
 7181SOL    HW221996   5.012   4.142   6.348
 7182SOL     OW21997   0.002   3.953   6.474
 7182SOL    HW121998   5.237   3.940   6.544
 7182SOL    HW221999   5.269   4.028   6.425
 7183SOL     OW22000   3.766   4.788   5.896
 7183SOL    HW122001   3.860   4.781   5.879
 7183SOL    HW222002   3.739   4.698   5.917
 7184SOL     OW22003   3.947   4.345   7.577
 7184SOL    HW122004   3.858   4.351   7.609
 7184SOL    HW222005   3.938   4.322   7.484
 7185SOL     OW22006   4.004   0.121   7.958
 7185SOL    HW122007   3.979   0.207   7.993
 7185SOL    HW222008   4.009   0.134   7.864
 7186SOL     OW22009   3.937   5.158   7.996
 7186SOL    HW122010   3.957   5.252   7.999
 7186SOL    HW222011   3.883   5.143   8.074
 7187SOL     OW22012   4.304   4.708   7.584
 7187SOL    HW122013   4.350   4.755   7.514
 7187SOL    HW222014   4.343   4.740   7.665
 7188SOL     OW22015   3.730   0.006   7.530
 7188SOL    HW122016   3.728   5.219   7.570
 7188SOL    HW222017   3.727   0.066   7.605
 7189SOL     OW22018   0.113   4.653   8.008
 7189SOL    HW122019   0.207   4.648   8.025
 7189SOL    HW222020   0.094   4.747   8.005
 7190SOL     OW22021   4.525   3.722   7.939
 7190SOL    HW122022   4.575   3.801   7.917
 7190SOL    HW222023   4.435   3.752   7.945
 7191SOL     OW22024   4.314   4.447   7.709
 7191SOL    HW122025   4.312   4.531   7.664
 7191SOL    HW222026   4.256   4.458   7.784
 7192SOL     OW22027   3.779   4.588   0.083
 7192SOL    HW122028   3.841   4.519   0.104
 7192SOL    HW222029   3.791   4.654   0.151
 7193SOL     OW22030   4.619   4.075   7.644
 7193SOL    HW122031   4.653   4.133   7.575
 7193SOL    HW222032   4.643   3.987   7.616
 7194SOL     OW22033   4.043   4.680   7.699
 7194SOL    HW122034   4.123   4.696   7.649
 7194SOL    HW222035   4.004   4.603   7.659
 7195SOL     OW22036   4.796   0.179   7.646
 7195SOL    HW122037   4.785   0.150   7.736
 7195SOL    HW222038   4.878   0.139   7.617
 7196SOL     OW22039   5.131   3.854   7.846
 7196SOL    HW122040   5.094   3.828   7.762
 7196SOL    HW222041   5.226   3.855   7.831
 7197SOL     OW22042   4.119   4.426   7.917
 7197SOL    HW122043   4.110   4.331   7.930
 7197SOL    HW222044   4.030   4.459   7.918
 7198SOL     OW22045   4.363   3.840   7.557
 7198SOL    HW122046   4.428   3.771   7.574
 7198SOL    HW222047   4.314   3.809   7.481
 7199SOL     OW22048   4.257   3.803   7.961
 7199SOL    HW122049   4.172   3.809   8.004
 7199SOL    HW222050   4.255   3.873   7.895
 7200SOL     OW22051   5.127   4.912   7.491
 7200SOL    HW122052   5.126   4.827   7.536
 7200SOL    HW222053   5.040   4.949   7.509
 7201SOL     OW22054   4.014   3.773   7.634
 7201SOL    HW122055   4.070   3.834   7.586
 7201SOL    HW222056   4.075   3.712   7.675
 7202SOL     OW22057   4.666   3.951   7.902
 7202SOL    HW122058   4.628   4.011   7.838
 7202SOL    HW222059   4.757   3.979   7.910
 7203SOL     OW22060   4.155   4.865   0.099
 7203SOL    HW122061   4.088   4.920   0.140
 7203SOL    HW222062   4.129   4.860   0.007
 7204SOL     OW22063   4.748   4.259   7.470
 7204SOL    HW122064   4.700   4.341   7.454
 7204SOL    HW222065   4.800   4.277   7.548
 7205SOL     OW22066   4.181   5.157   7.595
 7205SOL    HW122067   4.130   5.102   7.654
 7205SOL    HW222068   4.208   5.099   7.524
 7206SOL     OW22069   5.131   4.278   7.537
 7206SOL    HW122070   5.051   4.270   7.589
 7206SOL    HW222071   5.200   4.244   7.594
 7207SOL     OW22072   4.249   3.989   7.766
 7207SOL    HW122073   4.297   3.943   7.698
 7207SOL    HW222074   4.222   4.071   7.725
 7208SOL     OW22075   4.439   4.789   7.810
 7208SOL    HW122076   4.407   4.769   7.898
 7208SOL    HW222077   4.517   4.734   7.801
 7209SOL     OW22078   4.087   4.837   7.920
 7209SOL    HW122079   4.060   4.915   7.871
 7209SOL    HW222080   4.075   4.765   7.859
 7210SOL     OW22081   4.953   5.099   7.838
 7210SOL    HW122082   5.036   5.122   7.878
 7210SOL    HW222083   4.903   5.056   7.908
 7211SOL     OW22084   0.041   4.383   7.929
 7211SOL    HW122085   5.279   4.366   8.000
 7211SOL    HW222086   0.042   4.478   7.920
 7212SOL     OW22087   4.917   4.252   7.707
 7212SOL    HW122088   4.921   4.170   7.756
 7212SOL    HW222089   4.886   4.317   7.771
 7213SOL     OW22090   0.019   4.149   7.791
 7213SOL    HW122091   0.020   4.080   7.858
 7213SOL    HW222092   0.028   4.230   7.840
 7214SOL     OW22093   5.042   4.556   7.494
 7214SOL    HW122094   5.071   4.464   7.493
 7214SOL    HW222095   5.065   4.589   7.407
 7215SOL     OW22096   3.737   5.041   7.640
 7215SOL    HW122097   3.646   5.055   7.614
 7215SOL    HW222098   3.738   4.952   7.676
 7216SOL     OW22099   4.577   4.348   7.742
 7216SOL    HW122100   4.575   4.253   7.730
 7216SOL    HW222101   4.485   4.374   7.749
 7217SOL     OW22102   4.180   4.217   7.639
 7217SOL    HW122103   4.241   4.289   7.655
 7217SOL    HW222104   4.096   4.259   7.622
 7218SOL     OW22105   5.028   4.578   7.779
 7218SOL    HW122106   4.936   4.604   7.788
 7218SOL    HW222107   5.042   4.569   7.685
 7219SOL     OW22108   0.200   3.862   7.991
 7219SOL    HW122109   0.160   3.857   7.905
 7219SOL    HW222110   0.142   3.812   8.048
 7220SOL     OW22111   4.653   4.624   7.762
 7220SOL    HW122112   4.704   4.648   7.685
 7220SOL    HW222113   4.637   4.530   7.753
 7221SOL     OW22114   3.985   5.049   7.759
 7221SOL    HW122115   3.896   5.053   7.723
 7221SOL    HW222116   3.979   5.092   7.844
 7222SOL     OW22117   3.803   4.051   7.480
 7222SOL    HW122118   3.718   4.033   7.440
 7222SOL    HW222119   3.835   4.129   7.435
 7223SOL     OW22120   3.787   3.879   7.750
 7223SOL    HW122121   3.772   3.954   7.691
 7223SOL    HW222122   3.872   3.843   7.721
 7224SOL     OW22123   4.900   5.059   7.572
 7224SOL    HW122124   4.805   5.045   7.564
 7224SOL    HW222125   4.915   5.068   7.666
 7225SOL     OW22126   4.934   4.046   7.899
 7225SOL    HW122127   5.007   3.984   7.887
 7225SOL    HW222128   4.950   4.085   7.984
 7226SOL     OW22129   4.362   4.465   8.044
 7226SOL    HW122130   4.360   4.539   0.024
 7226SOL    HW222131   4.273   4.459   8.010
 7227SOL     OW22132   4.590   5.091   7.470
 7227SOL    HW122133   4.565   5.095   7.563
 7227SOL    HW222134   4.573   5.180   7.438
 7228SOL     OW22135   4.805   4.694   7.547
 7228SOL    HW122136   4.777   4.749   7.474
 7228SOL    HW222137   4.882   4.648   7.515
 7229SOL     OW22138   4.107   4.157   7.988
 7229SOL    HW122139   4.160   4.105   7.927
 7229SOL    HW222140   4.158   4.159   8.068
 7230SOL     OW22141   4.531   5.054   7.733
 7230SOL    HW122142   4.493   4.971   7.760
 7230SOL    HW222143   4.531   5.108   7.812
 7231SOL     OW22144   5.055   3.767   7.603
 7231SOL    HW122145   5.070   3.721   7.521
 7231SOL    HW222146   4.972   3.731   7.635
 7232SOL     OW22147   3.778   4.796   7.750
 7232SOL    HW122148   3.873   4.792   7.740
 7232SOL    HW222149   3.751   4.705   7.763
   5.30000   5.30000   8.08000
