Built with Packmol
22143
    1LIG      O    1   2.627   2.620   0.038
    1LIG      C    2   2.692   2.670   0.126
    1LIG     C1    3   2.621   2.617   0.219
    1LIG     O1    4   2.685   2.667   0.308
    1LIG     C2    5   2.620   2.618   0.396
    1LIG     C3    6   2.691   2.673   0.487
    1LIG     O2    7   2.627   2.625   0.575
    1LIG     C4    8   2.690   2.675   0.664
    1LIG     C5    9   2.618   2.621   0.756
    1LIG     O3   10   2.681   2.670   0.844
    1LIG     C6   11   2.616   2.621   0.932
    1LIG     C7   12   2.688   2.677   1.023
    1LIG     O4   13   2.624   2.629   1.112
    1LIG     C8   14   2.688   2.679   1.200
    1LIG     C9   15   2.615   2.623   1.291
    1LIG     O5   16   2.679   2.673   1.379
    1LIG    C10   17   2.615   2.624   1.468
    1LIG    C11   18   2.687   2.680   1.559
    1LIG     O6   19   2.623   2.631   1.647
    1LIG    C12   20   2.686   2.680   1.735
    1LIG    C13   21   2.613   2.625   1.827
    1LIG     O7   22   2.677   2.674   1.915
    1LIG    C14   23   2.613   2.625   2.003
    1LIG    C15   24   2.685   2.680   2.095
    1LIG     O8   25   2.621   2.632   2.184
    1LIG    C16   26   2.685   2.681   2.272
    1LIG    C17   27   2.614   2.626   2.363
    1LIG     O9   28   2.677   2.675   2.452
    1LIG    C18   29   2.612   2.626   2.540
    1LIG    C19   30   2.684   2.681   2.631
    1LIG    O10   31   2.621   2.632   2.720
    1LIG    C20   32   2.685   2.682   2.807
    1LIG    C21   33   2.612   2.626   2.899
    1LIG    O11   34   2.676   2.675   2.987
    1LIG    C22   35   2.612   2.626   3.075
    1LIG    C23   36   2.684   2.682   3.166
    1LIG    O12   37   2.620   2.633   3.254
    1LIG    C24   38   2.684   2.682   3.343
    1LIG    C25   39   2.612   2.627   3.435
    1LIG    O13   40   2.675   2.676   3.524
    1LIG    C26   41   2.611   2.627   3.611
    1LIG    C27   42   2.683   2.682   3.703
    1LIG    O14   43   2.619   2.633   3.791
    1LIG    C28   44   2.684   2.682   3.879
    1LIG    C29   45   2.612   2.626   3.971
    1LIG    O15   46   2.676   2.676   4.059
    1LIG    C30   47   2.612   2.626   4.147
    1LIG    C31   48   2.684   2.681   4.238
    1LIG    O16   49   2.620   2.632   4.326
    1LIG    C32   50   2.684   2.681   4.415
    1LIG    C33   51   2.612   2.626   4.506
    1LIG    O17   52   2.676   2.675   4.595
    1LIG    C34   53   2.612   2.625   4.683
    1LIG    C35   54   2.684   2.680   4.774
    1LIG    O18   55   2.620   2.631   4.863
    1LIG    C36   56   2.684   2.681   4.951
    1LIG    C37   57   2.613   2.625   5.042
    1LIG    O19   58   2.677   2.674   5.131
    1LIG    C38   59   2.613   2.624   5.219
    1LIG    C39   60   2.684   2.679   5.311
    1LIG    O20   61   2.621   2.630   5.399
    1LIG    C40   62   2.685   2.679   5.487
    1LIG    C41   63   2.614   2.624   5.579
    1LIG    O21   64   2.677   2.673   5.667
    1LIG    C42   65   2.613   2.623   5.755
    1LIG    C43   66   2.685   2.678   5.846
    1LIG    O22   67   2.622   2.629   5.935
    1LIG    C44   68   2.686   2.678   6.023
    1LIG    C45   69   2.614   2.622   6.114
    1LIG    O23   70   2.678   2.671   6.202
    1LIG    C46   71   2.614   2.622   6.291
    1LIG    C47   72   2.687   2.678   6.382
    1LIG    O24   73   2.623   2.628   6.470
    1LIG    C48   74   2.686   2.677   6.558
    1LIG    C49   75   2.614   2.621   6.650
    1LIG    O25   76   2.678   2.670   6.738
    1LIG    C50   77   2.615   2.621   6.826
    1LIG    C51   78   2.687   2.677   6.917
    1LIG    O26   79   2.624   2.627   7.005
    1LIG    C52   80   2.687   2.676   7.094
    1LIG    C53   81   2.615   2.620   7.185
    1LIG    O27   82   2.679   2.669   7.273
    1LIG    C54   83   2.616   2.619   7.362
    1LIG    C55   84   2.688   2.675   7.454
    1LIG    O28   85   2.624   2.625   7.542
    1LIG    C56   86   2.688   2.674   7.630
    1LIG    C57   87   2.617   2.618   7.723
    1LIG    O29   88   2.681   2.667   7.811
    1LIG    C58   89   2.617   2.617   7.899
    1LIG    C59   90   2.688   2.672   7.991
    1LIG      H   91   2.689   2.780   0.125
    1LIG     H1   92   2.797   2.639   0.125
    1LIG     H2   93   2.624   2.508   0.219
    1LIG     H3   94   2.516   2.648   0.218
    1LIG     H4   95   2.623   2.508   0.397
    1LIG     H5   96   2.515   2.649   0.396
    1LIG     H6   97   2.689   2.783   0.486
    1LIG     H7   98   2.797   2.642   0.487
    1LIG     H8   99   2.688   2.784   0.664
    1LIG     H9  100   2.795   2.644   0.665
    1LIG    H10  101   2.621   2.511   0.755
    1LIG    H11  102   2.513   2.651   0.754
    1LIG    H12  103   2.619   2.512   0.933
    1LIG    H13  104   2.511   2.652   0.933
    1LIG    H14  105   2.685   2.787   1.022
    1LIG    H15  106   2.793   2.647   1.023
    1LIG    H16  107   2.685   2.788   1.201
    1LIG    H17  108   2.793   2.648   1.202
    1LIG    H18  109   2.618   2.514   1.290
    1LIG    H19  110   2.510   2.655   1.290
    1LIG    H20  111   2.617   2.515   1.469
    1LIG    H21  112   2.509   2.655   1.469
    1LIG    H22  113   2.684   2.789   1.558
    1LIG    H23  114   2.792   2.649   1.558
    1LIG    H24  115   2.683   2.790   1.736
    1LIG    H25  116   2.791   2.649   1.737
    1LIG    H26  117   2.616   2.515   1.826
    1LIG    H27  118   2.508   2.656   1.825
    1LIG    H28  119   2.616   2.515   2.004
    1LIG    H29  120   2.508   2.656   2.004
    1LIG    H30  121   2.682   2.790   2.094
    1LIG    H31  122   2.790   2.649   2.094
    1LIG    H32  123   2.682   2.791   2.272
    1LIG    H33  124   2.790   2.650   2.273
    1LIG    H34  125   2.616   2.517   2.362
    1LIG    H35  126   2.508   2.657   2.362
    1LIG    H36  127   2.615   2.516   2.541
    1LIG    H37  128   2.507   2.657   2.541
    1LIG    H38  129   2.681   2.791   2.630
    1LIG    H39  130   2.789   2.650   2.630
    1LIG    H40  131   2.682   2.791   2.809
    1LIG    H41  132   2.790   2.651   2.809
    1LIG    H42  133   2.615   2.517   2.897
    1LIG    H43  134   2.507   2.657   2.897
    1LIG    H44  135   2.615   2.517   3.076
    1LIG    H45  136   2.507   2.657   3.076
    1LIG    H46  137   2.681   2.792   3.165
    1LIG    H47  138   2.790   2.651   3.165
    1LIG    H48  139   2.681   2.792   3.344
    1LIG    H49  140   2.789   2.651   3.344
    1LIG    H50  141   2.615   2.517   3.434
    1LIG    H51  142   2.507   2.658   3.434
    1LIG    H52  143   2.614   2.517   3.612
    1LIG    H53  144   2.506   2.658   3.612
    1LIG    H54  145   2.680   2.792   3.702
    1LIG    H55  146   2.788   2.651   3.701
    1LIG    H56  147   2.681   2.791   3.880
    1LIG    H57  148   2.789   2.651   3.880
    1LIG    H58  149   2.615   2.517   3.970
    1LIG    H59  150   2.507   2.657   3.970
    1LIG    H60  151   2.615   2.516   4.148
    1LIG    H61  152   2.507   2.657   4.148
    1LIG    H62  153   2.681   2.791   4.237
    1LIG    H63  154   2.789   2.651   4.237
    1LIG    H64  155   2.681   2.791   4.416
    1LIG    H65  156   2.789   2.650   4.416
    1LIG    H66  157   2.615   2.516   4.505
    1LIG    H67  158   2.507   2.657   4.505
    1LIG    H68  159   2.615   2.516   4.683
    1LIG    H69  160   2.507   2.656   4.683
    1LIG    H70  161   2.681   2.790   4.773
    1LIG    H71  162   2.789   2.650   4.773
    1LIG    H72  163   2.681   2.790   4.952
    1LIG    H73  164   2.790   2.650   4.951
    1LIG    H74  165   2.616   2.516   5.041
    1LIG    H75  166   2.508   2.656   5.042
    1LIG    H76  167   2.616   2.515   5.219
    1LIG    H77  168   2.508   2.655   5.220
    1LIG    H78  169   2.681   2.789   5.310
    1LIG    H79  170   2.790   2.648   5.309
    1LIG    H80  171   2.682   2.789   5.488
    1LIG    H81  172   2.790   2.649   5.488
    1LIG    H82  173   2.617   2.514   5.577
    1LIG    H83  174   2.508   2.654   5.578
    1LIG    H84  175   2.617   2.513   5.756
    1LIG    H85  176   2.508   2.654   5.756
    1LIG    H86  177   2.682   2.788   5.845
    1LIG    H87  178   2.791   2.648   5.845
    1LIG    H88  179   2.683   2.788   6.024
    1LIG    H89  180   2.791   2.648   6.024
    1LIG    H90  181   2.617   2.513   6.113
    1LIG    H91  182   2.509   2.653   6.113
    1LIG    H92  183   2.618   2.512   6.292
    1LIG    H93  184   2.509   2.652   6.292
    1LIG    H94  185   2.683   2.787   6.381
    1LIG    H95  186   2.792   2.647   6.381
    1LIG    H96  187   2.683   2.786   6.560
    1LIG    H97  188   2.791   2.646   6.560
    1LIG    H98  189   2.618   2.511   6.648
    1LIG    H99  190   2.509   2.651   6.649
    1LIG   H100  191   2.618   2.511   6.827
    1LIG   H101  192   2.510   2.651   6.828
    1LIG   H102  193   2.684   2.786   6.916
    1LIG   H103  194   2.792   2.646   6.916
    1LIG   H104  195   2.684   2.785   7.095
    1LIG   H105  196   2.792   2.645   7.095
    1LIG   H106  197   2.619   2.510   7.184
    1LIG   H107  198   2.510   2.650   7.184
    1LIG   H108  199   2.620   2.510   7.363
    1LIG   H109  200   2.511   2.650   7.363
    1LIG   H110  201   2.684   2.784   7.453
    1LIG   H111  202   2.793   2.644   7.452
    1LIG   H112  203   2.685   2.784   7.631
    1LIG   H113  204   2.794   2.644   7.631
    1LIG   H114  205   2.621   2.509   7.721
    1LIG   H115  206   2.512   2.649   7.722
    1LIG   H116  207   2.621   2.508   7.899
    1LIG   H117  208   2.512   2.649   7.900
    1LIG   H118  209   2.793   2.642   7.991
    1LIG   H119  210   2.641   2.635   8.060
    1MOL     C1  211   3.330   2.848   3.556
    1MOL     H1  212   3.435   2.818   3.547
    1MOL     O1  213   3.297   2.907   3.432
    1MOL     C2  214   3.164   2.960   3.423
    1MOL     H2  215   3.091   2.878   3.435
    1MOL     C3  216   3.146   3.017   3.283
    1MOL     H3  217   3.039   3.039   3.268
    1MOL     H4  218   3.177   2.940   3.210
    1MOL     O2  219   3.224   3.135   3.270
    1MOL     H5  220   3.201   3.177   3.186
    1MOL     C4  221   3.311   2.948   3.671
    1MOL     H6  222   3.380   3.032   3.652
    1MOL     O3  223   3.345   2.897   3.798
    1MOL     H7  224   3.313   2.805   3.807
    1MOL     C5  225   3.169   3.003   3.669
    1MOL     H8  226   3.098   2.921   3.688
    1MOL     O4  227   3.154   3.103   3.770
    1MOL     H9  228   3.202   3.069   3.848
    1MOL     C6  229   3.139   3.065   3.533
    1MOL    H10  230   3.207   3.150   3.518
    1MOL     O5  231   3.003   3.109   3.533
    1MOL     C7  232   2.974   3.236   3.477
    1MOL    H11  233   3.064   3.278   3.430
    1MOL     O6  234   2.880   3.224   3.372
    1MOL     C8  235   2.752   3.172   3.412
    1MOL    H12  236   2.766   3.073   3.459
    1MOL     C9  237   2.666   3.154   3.286
    1MOL    H13  238   2.594   3.073   3.306
    1MOL    H14  239   2.733   3.120   3.206
    1MOL     O7  240   2.601   3.271   3.241
    1MOL    H15  241   2.513   3.274   3.284
    1MOL    C10  242   2.922   3.328   3.588
    1MOL    H16  243   2.910   3.428   3.546
    1MOL     O8  244   3.010   3.342   3.698
    1MOL    H17  245   3.043   3.253   3.725
    1MOL    C11  246   2.784   3.280   3.635
    1MOL    H18  247   2.794   3.181   3.682
    1MOL     O9  248   2.727   3.372   3.728
    1MOL    H19  249   2.800   3.395   3.789
    1MOL    C12  250   2.691   3.269   3.515
    1MOL    H20  251   2.681   3.367   3.467
    1MOL    O10  252   2.563   3.224   3.561
    1MOL    C13  253   2.451   3.306   3.534
    1MOL    H21  254   2.483   3.405   3.501
    1MOL    O11  255   2.374   3.254   3.426
    1MOL    C14  256   2.320   3.122   3.449
    1MOL    H22  257   2.403   3.053   3.472
    1MOL    C15  258   2.251   3.074   3.321
    1MOL    H23  259   2.257   2.964   3.317
    1MOL    H24  260   2.309   3.113   3.236
    1MOL    O12  261   2.117   3.118   3.305
    1MOL    H25  262   2.060   3.047   3.341
    1MOL    C16  263   2.366   3.315   3.661
    1MOL    H26  264   2.284   3.385   3.642
    1MOL    O13  265   2.438   3.365   3.773
    1MOL    H27  266   2.533   3.343   3.763
    1MOL    C17  267   2.304   3.178   3.692
    1MOL    H28  268   2.384   3.106   3.715
    1MOL    O14  269   2.215   3.188   3.803
    1MOL    H29  270   2.263   3.238   3.871
    1MOL    C18  271   2.226   3.130   3.571
    1MOL    H30  272   2.146   3.200   3.548
    1MOL    O15  273   2.171   3.001   3.602
    1MOL    C19  274   2.032   2.983   3.588
    1MOL    H31  275   1.981   3.079   3.574
    1MOL    O16  276   2.002   2.907   3.471
    1MOL    C20  277   2.059   2.774   3.471
    1MOL    H32  278   2.168   2.783   3.482
    1MOL    C21  279   2.029   2.709   3.335
    1MOL    H33  280   2.112   2.640   3.312
    1MOL    H34  281   2.031   2.788   3.259
    1MOL    O17  282   1.904   2.643   3.327
    1MOL    H35  283   1.920   2.549   3.348
    1MOL    C22  284   1.980   2.912   3.714
    1MOL    H36  285   1.871   2.905   3.706
    1MOL    O18  286   2.008   2.983   3.833
    1MOL    H37  287   2.092   3.032   3.823
    1MOL    C23  288   2.036   2.770   3.720
    1MOL    H38  289   2.145   2.774   3.731
    1MOL    O19  290   1.979   2.698   3.829
    1MOL    H39  291   1.984   2.758   3.906
    1MOL    C24  292   2.002   2.696   3.591
    1MOL    H40  293   1.894   2.690   3.579
    1MOL    O20  294   2.059   2.565   3.598
    1MOL    C25  295   1.974   2.454   3.580
    1MOL    H41  296   1.869   2.485   3.581
    1MOL    O21  297   1.994   2.395   3.453
    1MOL    C26  298   2.127   2.343   3.431
    1MOL    H42  299   2.199   2.425   3.437
    1MOL    C27  300   2.133   2.286   3.290
    1MOL    H43  301   2.238   2.266   3.266
    1MOL    H44  302   2.095   2.362   3.220
    1MOL    O22  303   2.055   2.167   3.284
    1MOL    H45  304   2.064   2.130   3.195
    1MOL    C28  305   2.002   2.354   3.692
    1MOL    H46  306   1.932   2.270   3.680
    1MOL    O23  307   1.980   2.406   3.821
    1MOL    H47  308   2.003   2.502   3.822
    1MOL    C29  309   2.144   2.300   3.678
    1MOL    H48  310   2.216   2.382   3.691
    1MOL    O24  311   2.168   2.199   3.776
    1MOL    H49  312   2.130   2.233   3.859
    1MOL    C30  313   2.163   2.239   3.539
    1MOL    H50  314   2.099   2.151   3.529
    1MOL    O25  315   2.300   2.202   3.527
    1MOL    C31  316   2.331   2.077   3.465
    1MOL    H51  317   2.243   2.038   3.414
    1MOL    O26  318   2.429   2.096   3.365
    1MOL    C32  319   2.556   2.147   3.412
    1MOL    H52  320   2.539   2.243   3.462
    1MOL    C33  321   2.645   2.172   3.290
    1MOL    H53  322   2.721   2.246   3.318
    1MOL    H54  323   2.581   2.218   3.213
    1MOL    O27  324   2.705   2.055   3.239
    1MOL    H55  325   2.801   2.066   3.246
    1MOL    C34  326   2.381   1.979   3.573
    1MOL    H56  327   2.395   1.882   3.525
    1MOL    O28  328   2.289   1.958   3.678
    1MOL    H57  329   2.261   2.045   3.715
    1MOL    C35  330   2.516   2.026   3.627
    1MOL    H58  331   2.503   2.122   3.678
    1MOL    O29  332   2.570   1.930   3.718
    1MOL    H59  333   2.495   1.902   3.773
    1MOL    C36  334   2.614   2.046   3.512
    1MOL    H60  335   2.629   1.952   3.458
    1MOL    O30  336   2.739   2.091   3.566
    1MOL    C37  337   2.846   2.000   3.563
    1MOL    H61  338   2.810   1.899   3.544
    1MOL    O31  339   2.936   2.028   3.458
    1MOL    C38  340   2.997   2.158   3.463
    1MOL    H62  341   2.919   2.235   3.466
    1MOL    C39  342   3.074   2.174   3.334
    1MOL    H63  343   3.142   2.088   3.321
    1MOL    H64  344   3.132   2.266   3.335
    1MOL    O32  345   2.976   2.176   3.229
    1MOL    H65  346   3.020   2.198   3.146
    1MOL    C40  347   2.920   2.006   3.697
    1MOL    H66  348   2.998   1.929   3.694
    1MOL    O33  349   2.839   1.982   3.810
    1MOL    H67  350   2.745   1.981   3.784
    1MOL    C41  351   2.989   2.142   3.711
    1MOL    H68  352   2.912   2.220   3.715
    1MOL    O34  353   3.068   2.145   3.830
    1MOL    H69  354   3.010   2.111   3.901
    1MOL    C42  355   3.080   2.169   3.592
    1MOL    H70  356   3.161   2.094   3.590
    1MOL    O35  357   3.135   2.300   3.608
    1MOL    C43  358   3.275   2.317   3.604
    1MOL    H71  359   3.325   2.219   3.601
    1MOL    O36  360   3.316   2.383   3.486
    1MOL    C44  361   3.265   2.516   3.469
    1MOL    H72  362   3.155   2.513   3.467
    1MOL    C45  363   3.315   2.565   3.334
    1MOL    H73  364   3.423   2.545   3.328
    1MOL    H74  365   3.298   2.674   3.327
    1MOL    O37  366   3.242   2.495   3.233
    1MOL    H75  367   3.280   2.521   3.148
    1MOL    C46  368   3.319   2.396   3.727
    1MOL    H76  369   3.428   2.401   3.727
    1MOL    O38  370   3.282   2.337   3.850
    1MOL    H77  371   3.196   2.290   3.840
    1MOL    C47  372   3.265   2.539   3.718
    1MOL    H78  373   3.155   2.536   3.719
    1MOL    O39  374   3.313   2.616   3.828
    1MOL    H79  375   3.302   2.560   3.906
    1MOL    C48  376   3.309   2.605   3.588
    1MOL    H80  377   3.418   2.615   3.588
    1MOL    O40  378   3.248   2.734   3.581
    1MOL     C1  379   1.970   2.848   4.524
    1MOL     H1  380   1.865   2.818   4.532
    1MOL     O1  381   2.003   2.907   4.648
    1MOL     C2  382   2.137   2.960   4.657
    1MOL     H2  383   2.209   2.878   4.645
    1MOL     C3  384   2.154   3.017   4.797
    1MOL     H3  385   2.261   3.039   4.812
    1MOL     H4  386   2.123   2.940   4.870
    1MOL     O2  387   2.076   3.135   4.810
    1MOL     H5  388   2.099   3.177   4.894
    1MOL     C4  389   1.989   2.948   4.409
    1MOL     H6  390   1.920   3.032   4.428
    1MOL     O3  391   1.955   2.897   4.282
    1MOL     H7  392   1.987   2.805   4.273
    1MOL     C5  393   2.132   3.003   4.411
    1MOL     H8  394   2.202   2.921   4.392
    1MOL     O4  395   2.146   3.103   4.310
    1MOL     H9  396   2.099   3.069   4.232
    1MOL     C6  397   2.161   3.065   4.546
    1MOL    H10  398   2.093   3.150   4.562
    1MOL     O5  399   2.297   3.109   4.547
    1MOL     C7  400   2.326   3.236   4.603
    1MOL    H11  401   2.236   3.278   4.650
    1MOL     O6  402   2.420   3.224   4.707
    1MOL     C8  403   2.549   3.172   4.667
    1MOL    H12  404   2.534   3.073   4.621
    1MOL     C9  405   2.634   3.154   4.794
    1MOL    H13  406   2.706   3.073   4.774
    1MOL    H14  407   2.568   3.120   4.874
    1MOL     O7  408   2.699   3.271   4.839
    1MOL    H15  409   2.787   3.274   4.796
    1MOL    C10  410   2.379   3.328   4.492
    1MOL    H16  411   2.390   3.428   4.534
    1MOL     O8  412   2.290   3.342   4.382
    1MOL    H17  413   2.257   3.253   4.355
    1MOL    C11  414   2.516   3.280   4.445
    1MOL    H18  415   2.506   3.181   4.398
    1MOL     O9  416   2.573   3.372   4.352
    1MOL    H19  417   2.500   3.395   4.291
    1MOL    C12  418   2.609   3.269   4.565
    1MOL    H20  419   2.619   3.367   4.613
    1MOL    O10  420   2.737   3.224   4.519
    1MOL    C13  421   2.849   3.306   4.546
    1MOL    H21  422   2.817   3.405   4.578
    1MOL    O11  423   2.926   3.254   4.654
    1MOL    C14  424   2.981   3.122   4.630
    1MOL    H22  425   2.898   3.053   4.608
    1MOL    C15  426   3.049   3.074   4.759
    1MOL    H23  427   3.043   2.964   4.763
    1MOL    H24  428   2.991   3.113   4.844
    1MOL    O12  429   3.183   3.118   4.774
    1MOL    H25  430   3.240   3.047   4.739
    1MOL    C16  431   2.934   3.315   4.419
    1MOL    H26  432   3.016   3.385   4.438
    1MOL    O13  433   2.862   3.365   4.307
    1MOL    H27  434   2.767   3.343   4.317
    1MOL    C17  435   2.996   3.178   4.388
    1MOL    H28  436   2.916   3.106   4.365
    1MOL    O14  437   3.085   3.188   4.277
    1MOL    H29  438   3.037   3.238   4.208
    1MOL    C18  439   3.074   3.130   4.509
    1MOL    H30  440   3.155   3.200   4.532
    1MOL    O15  441   3.129   3.001   4.477
    1MOL    C19  442   3.268   2.983   4.492
    1MOL    H31  443   3.319   3.079   4.506
    1MOL    O16  444   3.298   2.907   4.608
    1MOL    C20  445   3.241   2.774   4.609
    1MOL    H32  446   3.132   2.783   4.598
    1MOL    C21  447   3.271   2.709   4.745
    1MOL    H33  448   3.188   2.640   4.768
    1MOL    H34  449   3.269   2.788   4.821
    1MOL    O17  450   3.396   2.643   4.753
    1MOL    H35  451   3.380   2.549   4.732
    1MOL    C22  452   3.320   2.912   4.366
    1MOL    H36  453   3.429   2.905   4.374
    1MOL    O18  454   3.292   2.983   4.247
    1MOL    H37  455   3.208   3.032   4.257
    1MOL    C23  456   3.264   2.770   4.360
    1MOL    H38  457   3.155   2.774   4.349
    1MOL    O19  458   3.321   2.698   4.251
    1MOL    H39  459   3.316   2.758   4.174
    1MOL    C24  460   3.298   2.696   4.489
    1MOL    H40  461   3.407   2.690   4.501
    1MOL    O20  462   3.241   2.565   4.482
    1MOL    C25  463   3.327   2.454   4.500
    1MOL    H41  464   3.431   2.485   4.498
    1MOL    O21  465   3.306   2.395   4.627
    1MOL    C26  466   3.173   2.343   4.649
    1MOL    H42  467   3.101   2.425   4.643
    1MOL    C27  468   3.167   2.286   4.790
    1MOL    H43  469   3.062   2.266   4.814
    1MOL    H44  470   3.205   2.362   4.860
    1MOL    O22  471   3.246   2.167   4.796
    1MOL    H45  472   3.236   2.130   4.885
    1MOL    C28  473   3.298   2.354   4.388
    1MOL    H46  474   3.368   2.270   4.400
    1MOL    O23  475   3.320   2.406   4.258
    1MOL    H47  476   3.297   2.502   4.257
    1MOL    C29  477   3.156   2.300   4.402
    1MOL    H48  478   3.084   2.382   4.389
    1MOL    O24  479   3.132   2.199   4.304
    1MOL    H49  480   3.170   2.233   4.221
    1MOL    C30  481   3.137   2.239   4.541
    1MOL    H50  482   3.201   2.151   4.551
    1MOL    O25  483   3.000   2.202   4.553
    1MOL    C31  484   2.969   2.077   4.615
    1MOL    H51  485   3.057   2.038   4.666
    1MOL    O26  486   2.871   2.096   4.715
    1MOL    C32  487   2.744   2.147   4.668
    1MOL    H52  488   2.761   2.243   4.617
    1MOL    C33  489   2.655   2.172   4.790
    1MOL    H53  490   2.579   2.246   4.762
    1MOL    H54  491   2.719   2.218   4.867
    1MOL    O27  492   2.595   2.055   4.841
    1MOL    H55  493   2.499   2.066   4.834
    1MOL    C34  494   2.919   1.979   4.507
    1MOL    H56  495   2.905   1.882   4.555
    1MOL    O28  496   3.011   1.958   4.402
    1MOL    H57  497   3.039   2.045   4.365
    1MOL    C35  498   2.784   2.026   4.453
    1MOL    H58  499   2.797   2.122   4.402
    1MOL    O29  500   2.730   1.930   4.362
    1MOL    H59  501   2.805   1.902   4.307
    1MOL    C36  502   2.686   2.046   4.568
    1MOL    H60  503   2.671   1.952   4.622
    1MOL    O30  504   2.561   2.091   4.514
    1MOL    C37  505   2.454   2.000   4.517
    1MOL    H61  506   2.490   1.899   4.536
    1MOL    O31  507   2.364   2.028   4.622
    1MOL    C38  508   2.303   2.158   4.617
    1MOL    H62  509   2.382   2.235   4.614
    1MOL    C39  510   2.227   2.174   4.746
    1MOL    H63  511   2.158   2.088   4.759
    1MOL    H64  512   2.168   2.266   4.745
    1MOL    O32  513   2.324   2.176   4.851
    1MOL    H65  514   2.280   2.198   4.934
    1MOL    C40  515   2.380   2.006   4.383
    1MOL    H66  516   2.302   1.929   4.386
    1MOL    O33  517   2.461   1.982   4.270
    1MOL    H67  518   2.556   1.981   4.296
    1MOL    C41  519   2.311   2.142   4.369
    1MOL    H68  520   2.388   2.220   4.365
    1MOL    O34  521   2.232   2.145   4.250
    1MOL    H69  522   2.290   2.111   4.179
    1MOL    C42  523   2.220   2.169   4.488
    1MOL    H70  524   2.139   2.094   4.490
    1MOL    O35  525   2.165   2.300   4.472
    1MOL    C43  526   2.025   2.317   4.476
    1MOL    H71  527   1.975   2.219   4.479
    1MOL    O36  528   1.984   2.383   4.594
    1MOL    C44  529   2.035   2.516   4.611
    1MOL    H72  530   2.145   2.513   4.613
    1MOL    C45  531   1.986   2.565   4.745
    1MOL    H73  532   1.878   2.545   4.752
    1MOL    H74  533   2.002   2.674   4.753
    1MOL    O37  534   2.058   2.495   4.847
    1MOL    H75  535   2.021   2.521   4.932
    1MOL    C46  536   1.982   2.396   4.353
    1MOL    H76  537   1.872   2.401   4.353
    1MOL    O38  538   2.018   2.337   4.230
    1MOL    H77  539   2.104   2.290   4.240
    1MOL    C47  540   2.035   2.539   4.362
    1MOL    H78  541   2.145   2.536   4.360
    1MOL    O39  542   1.987   2.616   4.252
    1MOL    H79  543   1.998   2.560   4.174
    1MOL    C48  544   1.991   2.605   4.492
    1MOL    H80  545   1.882   2.615   4.492
    1MOL    O40  546   2.052   2.734   4.499
    2SOL     OW  547   0.230   0.628   0.113
    2SOL    HW1  548   0.137   0.626   0.150
    2SOL    HW2  549   0.231   0.589   0.021
    3SOL     OW  550   0.225   0.275   0.996
    3SOL    HW1  551   0.260   0.258   1.088
    3SOL    HW2  552   0.137   0.230   0.984
    4SOL     OW  553   0.019   0.368   0.647
    4SOL    HW1  554  -0.063   0.411   0.686
    4SOL    HW2  555  -0.009   0.295   0.584
    5SOL     OW  556   0.569   1.275   1.165
    5SOL    HW1  557   0.476   1.268   1.128
    5SOL    HW2  558   0.580   1.364   1.209
    6SOL     OW  559   1.555   1.511   0.703
    6SOL    HW1  560   1.498   1.495   0.784
    6SOL    HW2  561   1.496   1.521   0.623
    7SOL     OW  562   1.135   0.703   0.717
    7SOL    HW1  563   1.192   0.781   0.692
    7SOL    HW2  564   1.075   0.729   0.793
    8SOL     OW  565   1.755   0.607   0.231
    8SOL    HW1  566   1.743   0.594   0.132
    8SOL    HW2  567   1.725   0.526   0.280
    9SOL     OW  568   0.768   1.144   1.023
    9SOL    HW1  569   0.690   1.161   1.083
    9SOL    HW2  570   0.802   1.231   0.987
   10SOL     OW  571   0.850   0.798   1.823
   10SOL    HW1  572   0.846   0.874   1.888
   10SOL    HW2  573   0.872   0.834   1.732
   11SOL     OW  574   0.685   1.012   0.665
   11SOL    HW1  575   0.754   0.996   0.735
   11SOL    HW2  576   0.612   1.069   0.703
   12SOL     OW  577   0.686   1.161   1.803
   12SOL    HW1  578   0.746   1.240   1.817
   12SOL    HW2  579   0.600   1.192   1.762
   13SOL     OW  580   0.335   1.435   1.061
   13SOL    HW1  581   0.257   1.404   1.008
   13SOL    HW2  582   0.393   1.493   1.004
   14SOL     OW  583   1.460   1.505   1.339
   14SOL    HW1  584   1.484   1.599   1.365
   14SOL    HW2  585   1.444   1.451   1.421
   15SOL     OW  586   0.438   0.392   1.499
   15SOL    HW1  587   0.520   0.336   1.508
   15SOL    HW2  588   0.357   0.334   1.503
   16SOL     OW  589   1.603   0.447   0.737
   16SOL    HW1  590   1.529   0.493   0.687
   16SOL    HW2  591   1.654   0.515   0.790
   17SOL     OW  592   0.231   1.713   0.483
   17SOL    HW1  593   0.265   1.790   0.537
   17SOL    HW2  594   0.275   1.713   0.393
   18SOL     OW  595   1.127   1.341   1.690
   18SOL    HW1  596   1.174   1.341   1.778
   18SOL    HW2  597   1.079   1.254   1.679
   19SOL     OW  598   0.230   1.434   0.538
   19SOL    HW1  599   0.204   1.530   0.538
   19SOL    HW2  600   0.159   1.380   0.583
   20SOL     OW  601   0.240   1.091   0.886
   20SOL    HW1  602   0.254   1.007   0.938
   20SOL    HW2  603   0.185   1.155   0.941
   21SOL     OW  604   0.620   1.786   1.439
   21SOL    HW1  605   0.528   1.769   1.474
   21SOL    HW2  606   0.648   1.878   1.465
   22SOL     OW  607   0.606   0.964   0.123
   22SOL    HW1  608   0.613   1.048   0.069
   22SOL    HW2  609   0.652   0.977   0.211
   23SOL     OW  610   1.594   0.114   1.480
   23SOL    HW1  611   1.576   0.181   1.408
   23SOL    HW2  612   1.591   0.160   1.569
   24SOL     OW  613   0.122   0.643   0.563
   24SOL    HW1  614   0.077   0.555   0.580
   24SOL    HW2  615   0.121   0.697   0.647
   25SOL     OW  616   1.842   1.767   0.359
   25SOL    HW1  617   1.896   1.738   0.439
   25SOL    HW2  618   1.872   1.857   0.330
   26SOL     OW  619   0.027   1.596   0.117
   26SOL    HW1  620   0.008   1.500   0.138
   26SOL    HW2  621  -0.006   1.654   0.192
   27SOL     OW  622   1.689   0.922   0.612
   27SOL    HW1  623   1.784   0.893   0.620
   27SOL    HW2  624   1.681   0.987   0.537
   28SOL     OW  625   1.641   1.108   0.432
   28SOL    HW1  626   1.727   1.110   0.380
   28SOL    HW2  627   1.655   1.155   0.520
   29SOL     OW  628   0.113   0.737   1.597
   29SOL    HW1  629   0.201   0.724   1.642
   29SOL    HW2  630   0.100   0.834   1.575
   30SOL     OW  631   0.613   1.365   0.726
   30SOL    HW1  632   0.564   1.278   0.735
   30SOL    HW2  633   0.590   1.408   0.639
   31SOL     OW  634   1.293   1.228   1.423
   31SOL    HW1  635   1.330   1.155   1.365
   31SOL    HW2  636   1.345   1.233   1.508
   32SOL     OW  637   0.809   0.004   0.502
   32SOL    HW1  638   0.849   0.095   0.493
   32SOL    HW2  639   0.709   0.012   0.508
   33SOL     OW  640   0.197   0.976   1.264
   33SOL    HW1  641   0.286   0.931   1.250
   33SOL    HW2  642   0.124   0.911   1.245
   34SOL     OW  643   1.525   0.999   0.190
   34SOL    HW1  644   1.462   0.923   0.203
   34SOL    HW2  645   1.573   1.017   0.276
   35SOL     OW  646   1.187   1.792   1.616
   35SOL    HW1  647   1.211   1.852   1.540
   35SOL    HW2  648   1.194   1.697   1.586
   36SOL     OW  649   0.317   0.251   1.801
   36SOL    HW1  650   0.388   0.322   1.807
   36SOL    HW2  651   0.229   0.290   1.829
   37SOL     OW  652   1.466   1.417   0.953
   37SOL    HW1  653   1.407   1.423   1.033
   37SOL    HW2  654   1.451   1.329   0.907
   38SOL     OW  655   1.667   1.714   0.572
   38SOL    HW1  656   1.626   1.691   0.484
   38SOL    HW2  657   1.649   1.640   0.637
   39SOL     OW  658   0.598   0.729   0.270
   39SOL    HW1  659   0.622   0.798   0.202
   39SOL    HW2  660   0.520   0.762   0.324
   40SOL     OW  661   1.281   0.345   0.944
   40SOL    HW1  662   1.195   0.295   0.931
   40SOL    HW2  663   1.343   0.291   1.000
   41SOL     OW  664   1.576   1.662   0.307
   41SOL    HW1  665   1.665   1.708   0.310
   41SOL    HW2  666   1.555   1.638   0.212
   42SOL     OW  667   0.807   0.605   1.465
   42SOL    HW1  668   0.760   0.602   1.554
   42SOL    HW2  669   0.756   0.550   1.399
   43SOL     OW  670   1.394   0.469   1.674
   43SOL    HW1  671   1.374   0.512   1.762
   43SOL    HW2  672   1.472   0.407   1.683
   44SOL     OW  673   0.973   0.890   1.572
   44SOL    HW1  674   1.019   0.806   1.543
   44SOL    HW2  675   0.917   0.924   1.497
   45SOL     OW  676   0.991   0.410   1.242
   45SOL    HW1  677   0.914   0.444   1.296
   45SOL    HW2  678   0.957   0.359   1.163
   46SOL     OW  679   1.041   0.701   0.429
   46SOL    HW1  680   1.067   0.697   0.525
   46SOL    HW2  681   0.956   0.650   0.415
   47SOL     OW  682   0.076   0.811   0.789
   47SOL    HW1  683   0.175   0.799   0.798
   47SOL    HW2  684   0.052   0.906   0.810
   48SOL     OW  685   0.130   1.821   1.571
   48SOL    HW1  686   0.120   1.806   1.670
   48SOL    HW2  687   0.044   1.857   1.535
   49SOL     OW  688   0.865   0.348   0.195
   49SOL    HW1  689   0.924   0.411   0.146
   49SOL    HW2  690   0.884   0.254   0.166
   50SOL     OW  691   1.719   0.585   1.831
   50SOL    HW1  692   1.693   0.674   1.795
   50SOL    HW2  693   1.717   0.517   1.758
   51SOL     OW  694   1.362   1.144   0.545
   51SOL    HW1  695   1.445   1.115   0.497
   51SOL    HW2  696   1.313   1.211   0.489
   52SOL     OW  697   0.550   0.196   0.885
   52SOL    HW1  698   0.545   0.191   0.985
   52SOL    HW2  699   0.552   0.292   0.856
   53SOL     OW  700   1.008   1.456   0.477
   53SOL    HW1  701   0.962   1.528   0.425
   53SOL    HW2  702   1.004   1.476   0.575
   54SOL     OW  703   0.351   1.801   0.853
   54SOL    HW1  704   0.401   1.715   0.859
   54SOL    HW2  705   0.416   1.878   0.850
   55SOL     OW  706   1.795   1.066   0.873
   55SOL    HW1  707   1.733   1.051   0.797
   55SOL    HW2  708   1.743   1.077   0.958
   56SOL     OW  709   1.227   1.550   1.506
   56SOL    HW1  710   1.233   1.473   1.570
   56SOL    HW2  711   1.175   1.524   1.426
   57SOL     OW  712   0.321   0.943   0.242
   57SOL    HW1  713   0.403   0.982   0.200
   57SOL    HW2  714   0.294   0.861   0.193
   58SOL     OW  715   1.458   0.735   0.728
   58SOL    HW1  716   1.453   0.670   0.803
   58SOL    HW2  717   1.538   0.794   0.741
   59SOL     OW  718   0.461   1.266   1.727
   59SOL    HW1  719   0.411   1.267   1.641
   59SOL    HW2  720   0.398   1.248   1.803
   60SOL     OW  721   1.111   1.776   0.237
   60SOL    HW1  722   1.051   1.714   0.287
   60SOL    HW2  723   1.142   1.732   0.152
   61SOL     OW  724   0.202   0.285   1.498
   61SOL    HW1  725   0.122   0.345   1.485
   61SOL    HW2  726   0.192   0.236   1.584
   62SOL     OW  727   1.632   1.377   0.081
   62SOL    HW1  728   1.600   1.471   0.071
   62SOL    HW2  729   1.556   1.314   0.069
   63SOL     OW  730   0.464   1.743   0.323
   63SOL    HW1  731   0.497   1.782   0.409
   63SOL    HW2  732   0.540   1.736   0.258
   64SOL     OW  733   1.400   0.107   0.426
   64SOL    HW1  734   1.376   0.070   0.336
   64SOL    HW2  735   1.499   0.123   0.430
   65SOL     OW  736   0.249   1.785   1.241
   65SOL    HW1  737   0.306   1.720   1.291
   65SOL    HW2  738   0.233   1.752   1.148
   66SOL     OW  739   0.940   1.698   0.904
   66SOL    HW1  740   1.020   1.641   0.925
   66SOL    HW2  741   0.891   1.658   0.827
   67SOL     OW  742   0.382   0.700   0.480
   67SOL    HW1  743   0.427   0.610   0.477
   67SOL    HW2  744   0.288   0.689   0.513
   68SOL     OW  745   1.547   0.222   1.729
   68SOL    HW1  746   1.542   0.259   1.821
   68SOL    HW2  747   1.475   0.153   1.717
   69SOL     OW  748   0.614   0.122   0.117
   69SOL    HW1  749   0.712   0.100   0.124
   69SOL    HW2  750   0.583   0.105   0.024
   70SOL     OW  751   0.781   0.264   1.749
   70SOL    HW1  752   0.848   0.203   1.792
   70SOL    HW2  753   0.708   0.283   1.814
   71SOL     OW  754   0.888   1.514   1.195
   71SOL    HW1  755   0.865   1.489   1.101
   71SOL    HW2  756   0.949   1.445   1.234
   72SOL     OW  757   1.351   0.590   1.433
   72SOL    HW1  758   1.379   0.547   1.518
   72SOL    HW2  759   1.376   0.686   1.434
   73SOL     OW  760   0.803   1.402   0.924
   73SOL    HW1  761   0.893   1.416   0.882
   73SOL    HW2  762   0.732   1.404   0.853
   74SOL     OW  763   0.922   0.503   0.899
   74SOL    HW1  764   0.897   0.494   0.803
   74SOL    HW2  765   0.970   0.421   0.930
   75SOL     OW  766   0.539   0.064   0.512
   75SOL    HW1  767   0.458   0.065   0.570
   75SOL    HW2  768   0.542   0.147   0.457
   76SOL     OW  769   1.434   1.188   0.041
   76SOL    HW1  770   1.466   1.112   0.098
   76SOL    HW2  771   1.342   1.215   0.071
   77SOL     OW  772   0.297   0.035   0.171
   77SOL    HW1  773   0.346   0.119   0.150
   77SOL    HW2  774   0.359  -0.030   0.216
   78SOL     OW  775   0.935   0.236   0.480
   78SOL    HW1  776   0.887   0.277   0.402
   78SOL    HW2  777   1.034   0.234   0.461
   79SOL     OW  778   1.076   0.683   1.464
   79SOL    HW1  779   0.996   0.622   1.467
   79SOL    HW2  780   1.157   0.630   1.440
   80SOL     OW  781   1.227   1.570   0.793
   80SOL    HW1  782   1.248   1.644   0.728
   80SOL    HW2  783   1.295   1.570   0.866
   81SOL     OW  784   0.459   1.152   0.741
   81SOL    HW1  785   0.388   1.125   0.806
   81SOL    HW2  786   0.433   1.124   0.648
   82SOL     OW  787   1.271   1.797   0.591
   82SOL    HW1  788   1.315   1.861   0.527
   82SOL    HW2  789   1.221   1.849   0.661
   83SOL     OW  790   1.032   0.549   0.016
   83SOL    HW1  791   0.991   0.631  -0.023
   83SOL    HW2  792   1.096   0.575   0.089
   84SOL     OW  793   0.078   0.556   1.386
   84SOL    HW1  794   0.170   0.555   1.345
   84SOL    HW2  795   0.072   0.630   1.453
   85SOL     OW  796   0.561   0.222   1.147
   85SOL    HW1  797   0.599   0.138   1.184
   85SOL    HW2  798   0.473   0.241   1.191
   86SOL     OW  799   0.866   0.454   0.642
   86SOL    HW1  800   0.834   0.526   0.580
   86SOL    HW2  801   0.890   0.373   0.589
   87SOL     OW  802   1.017   0.039   0.753
   87SOL    HW1  803   0.945   0.044   0.684
   87SOL    HW2  804   0.993  -0.030   0.822
   88SOL     OW  805   1.429   1.173   0.867
   88SOL    HW1  806   1.374   1.089   0.860
   88SOL    HW2  807   1.455   1.202   0.775
   89SOL     OW  808   1.466   0.590   0.992
   89SOL    HW1  809   1.436   0.495   0.999
   89SOL    HW2  810   1.539   0.606   1.058
   90SOL     OW  811   1.857   0.833   0.377
   90SOL    HW1  812   1.899   0.769   0.441
   90SOL    HW2  813   1.819   0.782   0.299
   91SOL     OW  814   0.488   1.385   0.174
   91SOL    HW1  815   0.401   1.370   0.221
   91SOL    HW2  816   0.471   1.411   0.079
   92SOL     OW  817   1.664   1.280   0.657
   92SOL    HW1  818   1.763   1.288   0.671
   92SOL    HW2  819   1.619   1.364   0.688
   93SOL     OW  820   1.390   0.575   0.078
   93SOL    HW1  821   1.336   0.554   0.159
   93SOL    HW2  822   1.481   0.534   0.087
   94SOL     OW  823   0.527   0.256   0.328
   94SOL    HW1  824   0.554   0.197   0.253
   94SOL    HW2  825   0.527   0.351   0.297
   95SOL     OW  826   1.754   1.223   1.588
   95SOL    HW1  827   1.845   1.184   1.575
   95SOL    HW2  828   1.762   1.319   1.612
   96SOL     OW  829   1.064   1.347   1.340
   96SOL    HW1  830   0.984   1.324   1.395
   96SOL    HW2  831   1.147   1.321   1.389
   97SOL     OW  832   1.592   1.629   1.625
   97SOL    HW1  833   1.619   1.663   1.535
   97SOL    HW2  834   1.671   1.591   1.671
   98SOL     OW  835   1.111   1.195   1.100
   98SOL    HW1  836   1.071   1.239   1.181
   98SOL    HW2  837   1.070   1.232   1.017
   99SOL     OW  838   1.638   1.099   1.079
   99SOL    HW1  839   1.643   1.180   1.138
   99SOL    HW2  840   1.552   1.101   1.028
  100SOL     OW  841   0.915   0.089   1.402
  100SOL    HW1  842   0.940   0.069   1.307
  100SOL    HW2  843   0.987   0.145   1.444
  101SOL     OW  844   0.980   1.116   1.719
  101SOL    HW1  845   0.881   1.122   1.729
  101SOL    HW2  846   1.003   1.036   1.663
  102SOL     OW  847   0.705   1.050   0.368
  102SOL    HW1  848   0.691   1.057   0.467
  102SOL    HW2  849   0.789   0.999   0.350
  103SOL     OW  850   0.410   0.813   1.251
  103SOL    HW1  851   0.496   0.825   1.301
  103SOL    HW2  852   0.368   0.726   1.278
  104SOL     OW  853   1.274   0.386   1.262
  104SOL    HW1  854   1.295   0.460   1.326
  104SOL    HW2  855   1.185   0.403   1.219
  105SOL     OW  856   0.064   1.564   1.331
  105SOL    HW1  857   0.018   1.646   1.297
  105SOL    HW2  858   0.162   1.583   1.340
  106SOL     OW  859   0.367   1.100   0.501
  106SOL    HW1  860   0.360   1.183   0.445
  106SOL    HW2  861   0.371   1.020   0.441
  107SOL     OW  862   0.566   0.537   0.865
  107SOL    HW1  863   0.578   0.603   0.791
  107SOL    HW2  864   0.612   0.571   0.948
  108SOL     OW  865   1.252   1.348   0.388
  108SOL    HW1  866   1.302   1.425   0.428
  108SOL    HW2  867   1.157   1.350   0.420
  109SOL     OW  868   1.272   1.445   1.142
  109SOL    HW1  869   1.319   1.458   1.229
  109SOL    HW2  870   1.206   1.371   1.151
  110SOL     OW  871   1.582   0.639   0.472
  110SOL    HW1  872   1.551   0.700   0.545
  110SOL    HW2  873   1.632   0.691   0.403
  111SOL     OW  874   0.354   1.510   1.329
  111SOL    HW1  875   0.333   1.466   1.242
  111SOL    HW2  876   0.451   1.536   1.332
  112SOL     OW  877   0.402   0.751   1.598
  112SOL    HW1  878   0.470   0.806   1.551
  112SOL    HW2  879   0.442   0.663   1.625
  113SOL     OW  880   1.587   0.779   1.670
  113SOL    HW1  881   1.495   0.817   1.665
  113SOL    HW2  882   1.647   0.826   1.605
  114SOL     OW  883   1.013   0.105   1.770
  114SOL    HW1  884   1.019   0.190   1.718
  114SOL    HW2  885   1.045   0.029   1.713
  115SOL     OW  886   0.504   0.050   1.740
  115SOL    HW1  887   0.462  -0.007   1.670
  115SOL    HW2  888   0.438   0.119   1.772
  116SOL     OW  889   0.573   0.870   1.029
  116SOL    HW1  890   0.617   0.959   1.020
  116SOL    HW2  891   0.510   0.870   1.106
  117SOL     OW  892   1.360   0.862   1.045
  117SOL    HW1  893   1.285   0.862   0.979
  117SOL    HW2  894   1.397   0.770   1.054
  118SOL     OW  895   1.209   0.525   0.275
  118SOL    HW1  896   1.222   0.441   0.329
  118SOL    HW2  897   1.180   0.599   0.335
  119SOL     OW  898   0.307   0.213   1.231
  119SOL    HW1  899   0.284   0.250   1.321
  119SOL    HW2  900   0.277   0.118   1.225
  120SOL     OW  901   0.037   1.310   1.282
  120SOL    HW1  902   0.090   1.261   1.350
  120SOL    HW2  903   0.059   1.408   1.287
  121SOL     OW  904   0.732   0.634   1.064
  121SOL    HW1  905   0.791   0.608   0.988
  121SOL    HW2  906   0.704   0.730   1.053
  122SOL     OW  907   1.728   0.935   1.854
  122SOL    HW1  908   1.682   0.928   1.765
  122SOL    HW2  909   1.666   0.979   1.920
  123SOL     OW  910   0.307   0.063   0.618
  123SOL    HW1  911   0.296   0.157   0.651
  123SOL    HW2  912   0.302   0.000   0.695
  124SOL     OW  913   1.622   0.367   0.374
  124SOL    HW1  914   1.624   0.291   0.438
  124SOL    HW2  915   1.574   0.444   0.414
  125SOL     OW  916   1.023   0.766   0.966
  125SOL    HW1  917   1.038   0.787   1.062
  125SOL    HW2  918   0.993   0.671   0.957
  126SOL     OW  919   0.980   1.573   1.700
  126SOL    HW1  920   0.960   1.617   1.612
  126SOL    HW2  921   1.019   1.482   1.684
  127SOL     OW  922   1.859   1.518   1.605
  127SOL    HW1  923   1.873   1.545   1.510
  127SOL    HW2  924   1.942   1.540   1.658
  128SOL     OW  925   0.350   0.898   1.804
  128SOL    HW1  926   0.426   0.942   1.852
  128SOL    HW2  927   0.385   0.851   1.722
  129SOL     OW  928   1.540   0.274   0.125
  129SOL    HW1  929   1.479   0.199   0.148
  129SOL    HW2  930   1.562   0.326   0.208
  130SOL     OW  931   1.303   0.838   0.042
  130SOL    HW1  932   1.337   0.745   0.057
  130SOL    HW2  933   1.321   0.865  -0.053
  131SOL     OW  934   1.068   1.333   0.849
  131SOL    HW1  935   1.075   1.249   0.794
  131SOL    HW2  936   1.130   1.402   0.813
  132SOL     OW  937   0.319   0.810   0.949
  132SOL    HW1  938   0.412   0.846   0.954
  132SOL    HW2  939   0.313   0.725   1.001
  133SOL     OW  940   0.339   0.509   1.006
  133SOL    HW1  941   0.287   0.426   0.989
  133SOL    HW2  942   0.416   0.514   0.942
  134SOL     OW  943   1.138   0.380   1.678
  134SOL    HW1  944   1.093   0.443   1.742
  134SOL    HW2  945   1.231   0.411   1.661
  135SOL     OW  946   1.160   0.207   1.477
  135SOL    HW1  947   1.160   0.271   1.554
  135SOL    HW2  948   1.188   0.255   1.394
  136SOL     OW  949   0.008   1.326   0.200
  136SOL    HW1  950  -0.085   1.347   0.169
  136SOL    HW2  951   0.018   1.227   0.213
  137SOL     OW  952   0.088   1.801   0.927
  137SOL    HW1  953   0.046   1.715   0.900
  137SOL    HW2  954   0.182   1.804   0.893
  138SOL     OW  955   0.504   1.568   0.910
  138SOL    HW1  956   0.570   1.642   0.919
  138SOL    HW2  957   0.548   1.489   0.868
  139SOL     OW  958   1.002   0.796   1.238
  139SOL    HW1  959   1.043   0.764   1.324
  139SOL    HW2  960   0.906   0.769   1.235
  140SOL     OW  961   0.040   0.544   1.114
  140SOL    HW1  962   0.125   0.511   1.073
  140SOL    HW2  963   0.053   0.559   1.212
  141SOL     OW  964   0.189   0.520   1.722
  141SOL    HW1  965   0.248   0.480   1.652
  141SOL    HW2  966   0.131   0.591   1.681
  142SOL     OW  967   1.369   0.950   1.660
  142SOL    HW1  968   1.408   1.039   1.680
  142SOL    HW2  969   1.379   0.930   1.563
  143SOL     OW  970   0.815   0.572   0.325
  143SOL    HW1  971   0.822   0.483   0.279
  143SOL    HW2  972   0.721   0.606   0.317
  144SOL     OW  973   1.657   0.604   1.206
  144SOL    HW1  974   1.619   0.535   1.268
  144SOL    HW2  975   1.739   0.568   1.162
  145SOL     OW  976   0.252   1.564   1.744
  145SOL    HW1  977   0.222   1.621   1.820
  145SOL    HW2  978   0.245   1.467   1.770
  146SOL     OW  979   0.671   0.464   1.269
  146SOL    HW1  980   0.637   0.375   1.239
  146SOL    HW2  981   0.697   0.518   1.189
  147SOL     OW  982   0.930   1.678   1.465
  147SOL    HW1  983   0.906   1.660   1.370
  147SOL    HW2  984   0.960   1.772   1.475
  148SOL     OW  985   0.473   0.500   0.191
  148SOL    HW1  986   0.534   0.580   0.195
  148SOL    HW2  987   0.378   0.531   0.198
  149SOL     OW  988   0.159   1.137   1.466
  149SOL    HW1  989   0.181   1.076   1.542
  149SOL    HW2  990   0.169   1.088   1.380
  150SOL     OW  991   1.347   1.059   1.234
  150SOL    HW1  992   1.371   0.996   1.160
  150SOL    HW2  993   1.257   1.099   1.216
  151SOL     OW  994   1.302   0.855   0.309
  151SOL    HW1  995   1.216   0.824   0.351
  151SOL    HW2  996   1.298   0.841   0.210
  152SOL     OW  997   1.759   1.747   1.154
  152SOL    HW1  998   1.820   1.777   1.081
  152SOL    HW2  999   1.721   1.658   1.132
  153SOL     OW 1000   1.252   1.731   1.128
  153SOL    HW1 1001   1.336   1.736   1.074
  153SOL    HW2 1002   1.229   1.635   1.146
  154SOL     OW 1003   0.083   1.258   1.022
  154SOL    HW1 1004   0.078   1.257   1.122
  154SOL    HW2 1005   0.000   1.217   0.984
  155SOL     OW 1006   0.688   1.662   1.716
  155SOL    HW1 1007   0.632   1.743   1.725
  155SOL    HW2 1008   0.740   1.666   1.630
  156SOL     OW 1009   0.903   0.086   0.133
  156SOL    HW1 1010   0.954   0.087   0.047
  156SOL    HW2 1011   0.959   0.044   0.204
  157SOL     OW 1012   1.726   0.135   0.523
  157SOL    HW1 1013   1.799   0.118   0.456
  157SOL    HW2 1014   1.695   0.048   0.561
  158SOL     OW 1015   1.388   1.573   0.477
  158SOL    HW1 1016   1.455   1.585   0.403
  158SOL    HW2 1017   1.348   1.662   0.500
  159SOL     OW 1018   0.130   1.794   1.851
  159SOL    HW1 1019   0.089   1.720   1.904
  159SOL    HW2 1020   0.194   1.845   1.909
  160SOL     OW 1021   1.280   0.927   0.672
  160SOL    HW1 1022   1.340   0.846   0.674
  160SOL    HW2 1023   1.320   0.996   0.612
  161SOL     OW 1024   0.830   1.273   1.422
  161SOL    HW1 1025   0.825   1.306   1.517
  161SOL    HW2 1026   0.744   1.292   1.376
  162SOL     OW 1027   0.672   1.616   0.154
  162SOL    HW1 1028   0.681   1.626   0.055
  162SOL    HW2 1029   0.632   1.527   0.175
  163SOL     OW 1030   1.650   1.720   1.394
  163SOL    HW1 1031   1.703   1.730   1.310
  163SOL    HW2 1032   1.623   1.810   1.428
  164SOL     OW 1033   1.841   0.175   0.963
  164SOL    HW1 1034   1.880   0.090   0.927
  164SOL    HW2 1035   1.743   0.177   0.944
  165SOL     OW 1036   0.263   0.326   0.720
  165SOL    HW1 1037   0.184   0.377   0.686
  165SOL    HW2 1038   0.254   0.311   0.818
  166SOL     OW 1039   1.194   1.612   0.031
  166SOL    HW1 1040   1.200   1.519   0.068
  166SOL    HW2 1041   1.135   1.612  -0.049
  167SOL     OW 1042   0.822   1.002   1.372
  167SOL    HW1 1043   0.862   1.001   1.280
  167SOL    HW2 1044   0.832   1.094   1.412
  168SOL     OW 1045   0.916   0.910   0.291
  168SOL    HW1 1046   0.979   0.948   0.223
  168SOL    HW2 1047   0.956   0.827   0.330
  169SOL     OW 1048   1.504   1.607   0.044
  169SOL    HW1 1049   1.412   1.644   0.051
  169SOL    HW2 1050   1.542   1.627  -0.046
  170SOL     OW 1051   0.372   1.288   1.490
  170SOL    HW1 1052   0.359   1.381   1.456
  170SOL    HW2 1053   0.288   1.236   1.477
  171SOL     OW 1054   1.614   1.292   1.289
  171SOL    HW1 1055   1.674   1.295   1.369
  171SOL    HW2 1056   1.539   1.356   1.302
  172SOL     OW 1057   1.039   1.098   0.696
  172SOL    HW1 1058   0.969   1.051   0.750
  172SOL    HW2 1059   1.098   1.030   0.653
  173SOL     OW 1060   1.014   0.236   0.971
  173SOL    HW1 1061   1.006   0.200   0.878
  173SOL    HW2 1062   1.012   0.160   1.036
  174SOL     OW 1063   0.590   1.487   0.491
  174SOL    HW1 1064   0.632   1.429   0.421
  174SOL    HW2 1065   0.546   1.566   0.447
  175SOL     OW 1066   1.709   0.385   1.381
  175SOL    HW1 1067   1.782   0.454   1.385
  175SOL    HW2 1068   1.737   0.310   1.322
  176SOL     OW 1069   0.255   1.348   0.290
  176SOL    HW1 1070   0.159   1.349   0.263
  176SOL    HW2 1071   0.267   1.401   0.374
  177SOL     OW 1072   0.105   1.013   1.726
  177SOL    HW1 1073   0.028   0.980   1.780
  177SOL    HW2 1074   0.190   0.983   1.768
  178SOL     OW 1075   0.672   0.203   1.489
  178SOL    HW1 1076   0.762   0.187   1.449
  178SOL    HW2 1077   0.680   0.208   1.588
  179SOL     OW 1078   0.075   0.345   0.033
  179SOL    HW1 1079  -0.017   0.317   0.004
  179SOL    HW2 1080   0.106   0.422  -0.023
  180SOL     OW 1081   1.440   0.856   1.398
  180SOL    HW1 1082   1.383   0.908   1.335
  180SOL    HW2 1083   1.536   0.868   1.374
  181SOL     OW 1084   0.072   0.166   0.318
  181SOL    HW1 1085   0.055   0.249   0.264
  181SOL    HW2 1086   0.162   0.129   0.296
  182SOL     OW 1087   1.183   1.335   0.119
  182SOL    HW1 1088   1.084   1.324   0.121
  182SOL    HW2 1089   1.217   1.350   0.212
  183SOL     OW 1090   0.613   0.842   1.431
  183SOL    HW1 1091   0.669   0.923   1.414
  183SOL    HW2 1092   0.672   0.762   1.434
  184SOL     OW 1093   1.493   1.767   0.959
  184SOL    HW1 1094   1.526   1.831   0.890
  184SOL    HW2 1095   1.559   1.761   1.034
  185SOL     OW 1096   0.716   0.565   1.708
  185SOL    HW1 1097   0.735   0.630   1.782
  185SOL    HW2 1098   0.776   0.485   1.717
  186SOL     OW 1099   1.450   1.220   1.633
  186SOL    HW1 1100   1.441   1.210   1.732
  186SOL    HW2 1101   1.546   1.213   1.607
  187SOL     OW 1102   0.390   1.741   1.560
  187SOL    HW1 1103   0.299   1.782   1.558
  187SOL    HW2 1104   0.383   1.647   1.592
  188SOL     OW 1105   1.674   0.883   1.254
  188SOL    HW1 1106   1.647   0.794   1.217
  188SOL    HW2 1107   1.675   0.951   1.181
  189SOL     OW 1108   1.225   0.325   0.449
  189SOL    HW1 1109   1.290   0.251   0.438
  189SOL    HW2 1110   1.245   0.375   0.533
  190SOL     OW 1111   0.594   0.745   0.652
  190SOL    HW1 1112   0.644   0.830   0.633
  190SOL    HW2 1113   0.506   0.747   0.604
  191SOL     OW 1114   1.777   0.342   1.642
  191SOL    HW1 1115   1.760   0.373   1.548
  191SOL    HW2 1116   1.693   0.305   1.680
  192SOL     OW 1117   1.730   0.934   1.517
  192SOL    HW1 1118   1.768   1.025   1.532
  192SOL    HW2 1119   1.722   0.917   1.418
  193SOL     OW 1120   0.859   1.374   0.016
  193SOL    HW1 1121   0.813   1.389   0.104
  193SOL    HW2 1122   0.903   1.459  -0.014
  194SOL     OW 1123   0.661   1.790   0.953
  194SOL    HW1 1124   0.615   1.878   0.940
  194SOL    HW2 1125   0.760   1.802   0.946
  195SOL     OW 1126   0.859   0.956   0.861
  195SOL    HW1 1127   0.913   0.887   0.909
  195SOL    HW2 1128   0.827   1.025   0.927
  196SOL     OW 1129   1.083   0.984   0.087
  196SOL    HW1 1130   1.060   1.037   0.005
  196SOL    HW2 1131   1.164   0.928   0.068
  197SOL     OW 1132   1.861   1.569   0.851
  197SOL    HW1 1133   1.790   1.557   0.781
  197SOL    HW2 1134   1.862   1.490   0.911
  198SOL     OW 1135   0.221   1.314   1.844
  198SOL    HW1 1136   0.156   1.241   1.823
  198SOL    HW2 1137   0.225   1.328   1.942
  199SOL     OW 1138   0.079   1.240   0.653
  199SOL    HW1 1139   0.078   1.193   0.741
  199SOL    HW2 1140   0.161   1.212   0.602
  200SOL     OW 1141   0.672   1.391   1.624
  200SOL    HW1 1142   0.594   1.341   1.662
  200SOL    HW2 1143   0.669   1.486   1.655
  201SOL     OW 1144   1.824   0.192   1.227
  201SOL    HW1 1145   1.820   0.102   1.271
  201SOL    HW2 1146   1.827   0.181   1.128
  202SOL     OW 1147   0.428   0.424   0.520
  202SOL    HW1 1148   0.458   0.352   0.458
  202SOL    HW2 1149   0.389   0.384   0.603
  203SOL     OW 1150   1.705   1.487   1.104
  203SOL    HW1 1151   1.612   1.462   1.077
  203SOL    HW2 1152   1.731   1.437   1.186
  204SOL     OW 1153   0.317   0.547   1.280
  204SOL    HW1 1154   0.355   0.488   1.352
  204SOL    HW2 1155   0.357   0.521   1.192
  205SOL     OW 1156   0.812   1.586   0.687
  205SOL    HW1 1157   0.844   1.596   0.593
  205SOL    HW2 1158   0.733   1.524   0.689
  206SOL     OW 1159   1.424   0.214   1.112
  206SOL    HW1 1160   1.476   0.149   1.167
  206SOL    HW2 1161   1.375   0.277   1.173
  207SOL     OW 1162   1.001   0.034   1.154
  207SOL    HW1 1163   0.938  -0.038   1.123
  207SOL    HW2 1164   1.094  -0.002   1.154
  208SOL     OW 1165   0.770   1.330   0.301
  208SOL    HW1 1166   0.724   1.243   0.318
  208SOL    HW2 1167   0.861   1.327   0.342
  209SOL     OW 1168   0.618   1.567   1.284
  209SOL    HW1 1169   0.613   1.649   1.341
  209SOL    HW2 1170   0.707   1.564   1.239
  210SOL     OW 1171   1.352   0.052   0.168
  210SOL    HW1 1172   1.387   0.011   0.084
  210SOL    HW2 1173   1.262   0.014   0.188
  211SOL     OW 1174   1.300   0.453   0.691
  211SOL    HW1 1175   1.241   0.533   0.695
  211SOL    HW2 1176   1.315   0.418   0.784
  212SOL     OW 1177   1.593   0.221   0.882
  212SOL    HW1 1178   1.509   0.220   0.936
  212SOL    HW2 1179   1.595   0.304   0.826
  213SOL     OW 1180   0.039   1.077   0.300
  213SOL    HW1 1181   0.138   1.066   0.291
  213SOL    HW2 1182  -0.001   0.991   0.332
  214SOL     OW 1183   0.875   1.646   0.337
  214SOL    HW1 1184   0.798   1.611   0.283
  214SOL    HW2 1185   0.843   1.717   0.399
  215SOL     OW 1186   0.230   0.628   1.975
  215SOL    HW1 1187   0.137   0.626   2.012
  215SOL    HW2 1188   0.231   0.589   1.883
  216SOL     OW 1189   0.225   0.275   2.858
  216SOL    HW1 1190   0.260   0.258   2.950
  216SOL    HW2 1191   0.137   0.230   2.846
  217SOL     OW 1192   0.019   0.368   2.509
  217SOL    HW1 1193  -0.063   0.411   2.548
  217SOL    HW2 1194  -0.009   0.295   2.446
  218SOL     OW 1195   0.569   1.275   3.027
  218SOL    HW1 1196   0.476   1.268   2.990
  218SOL    HW2 1197   0.580   1.364   3.071
  219SOL     OW 1198   1.555   1.511   2.565
  219SOL    HW1 1199   1.498   1.495   2.646
  219SOL    HW2 1200   1.496   1.521   2.485
  220SOL     OW 1201   1.135   0.703   2.579
  220SOL    HW1 1202   1.192   0.781   2.554
  220SOL    HW2 1203   1.075   0.729   2.655
  221SOL     OW 1204   1.755   0.607   2.093
  221SOL    HW1 1205   1.743   0.594   1.994
  221SOL    HW2 1206   1.725   0.526   2.142
  222SOL     OW 1207   0.768   1.144   2.885
  222SOL    HW1 1208   0.690   1.161   2.945
  222SOL    HW2 1209   0.802   1.231   2.849
  223SOL     OW 1210   0.850   0.798   3.685
  223SOL    HW1 1211   0.846   0.874   3.750
  223SOL    HW2 1212   0.872   0.834   3.594
  224SOL     OW 1213   0.685   1.012   2.527
  224SOL    HW1 1214   0.754   0.996   2.597
  224SOL    HW2 1215   0.612   1.069   2.565
  225SOL     OW 1216   0.686   1.161   3.665
  225SOL    HW1 1217   0.746   1.240   3.679
  225SOL    HW2 1218   0.600   1.192   3.624
  226SOL     OW 1219   0.335   1.435   2.923
  226SOL    HW1 1220   0.257   1.404   2.870
  226SOL    HW2 1221   0.393   1.493   2.866
  227SOL     OW 1222   1.460   1.505   3.201
  227SOL    HW1 1223   1.484   1.599   3.227
  227SOL    HW2 1224   1.444   1.451   3.283
  228SOL     OW 1225   0.438   0.392   3.361
  228SOL    HW1 1226   0.520   0.336   3.370
  228SOL    HW2 1227   0.357   0.334   3.365
  229SOL     OW 1228   1.603   0.447   2.599
  229SOL    HW1 1229   1.529   0.493   2.549
  229SOL    HW2 1230   1.654   0.515   2.652
  230SOL     OW 1231   0.231   1.713   2.345
  230SOL    HW1 1232   0.265   1.790   2.399
  230SOL    HW2 1233   0.275   1.713   2.255
  231SOL     OW 1234   1.127   1.341   3.552
  231SOL    HW1 1235   1.174   1.341   3.640
  231SOL    HW2 1236   1.079   1.254   3.541
  232SOL     OW 1237   0.230   1.434   2.400
  232SOL    HW1 1238   0.204   1.530   2.400
  232SOL    HW2 1239   0.159   1.380   2.445
  233SOL     OW 1240   0.240   1.091   2.748
  233SOL    HW1 1241   0.254   1.007   2.800
  233SOL    HW2 1242   0.185   1.155   2.803
  234SOL     OW 1243   0.620   1.786   3.301
  234SOL    HW1 1244   0.528   1.769   3.336
  234SOL    HW2 1245   0.648   1.878   3.327
  235SOL     OW 1246   0.606   0.964   1.985
  235SOL    HW1 1247   0.613   1.048   1.931
  235SOL    HW2 1248   0.652   0.977   2.073
  236SOL     OW 1249   1.594   0.114   3.342
  236SOL    HW1 1250   1.576   0.181   3.270
  236SOL    HW2 1251   1.591   0.160   3.431
  237SOL     OW 1252   0.122   0.643   2.425
  237SOL    HW1 1253   0.077   0.555   2.442
  237SOL    HW2 1254   0.121   0.697   2.509
  238SOL     OW 1255   1.842   1.767   2.221
  238SOL    HW1 1256   1.896   1.738   2.301
  238SOL    HW2 1257   1.872   1.857   2.192
  239SOL     OW 1258   0.027   1.596   1.979
  239SOL    HW1 1259   0.008   1.500   2.000
  239SOL    HW2 1260  -0.006   1.654   2.054
  240SOL     OW 1261   1.689   0.922   2.474
  240SOL    HW1 1262   1.784   0.893   2.482
  240SOL    HW2 1263   1.681   0.987   2.399
  241SOL     OW 1264   1.641   1.108   2.294
  241SOL    HW1 1265   1.727   1.110   2.242
  241SOL    HW2 1266   1.655   1.155   2.382
  242SOL     OW 1267   0.113   0.737   3.459
  242SOL    HW1 1268   0.201   0.724   3.504
  242SOL    HW2 1269   0.100   0.834   3.437
  243SOL     OW 1270   0.613   1.365   2.588
  243SOL    HW1 1271   0.564   1.278   2.597
  243SOL    HW2 1272   0.590   1.408   2.501
  244SOL     OW 1273   1.293   1.228   3.285
  244SOL    HW1 1274   1.330   1.155   3.227
  244SOL    HW2 1275   1.345   1.233   3.370
  245SOL     OW 1276   0.809   0.004   2.364
  245SOL    HW1 1277   0.849   0.095   2.355
  245SOL    HW2 1278   0.709   0.012   2.370
  246SOL     OW 1279   0.197   0.976   3.126
  246SOL    HW1 1280   0.286   0.931   3.112
  246SOL    HW2 1281   0.124   0.911   3.107
  247SOL     OW 1282   1.525   0.999   2.052
  247SOL    HW1 1283   1.462   0.923   2.065
  247SOL    HW2 1284   1.573   1.017   2.138
  248SOL     OW 1285   1.187   1.792   3.478
  248SOL    HW1 1286   1.211   1.852   3.402
  248SOL    HW2 1287   1.194   1.697   3.448
  249SOL     OW 1288   0.317   0.251   3.663
  249SOL    HW1 1289   0.388   0.322   3.669
  249SOL    HW2 1290   0.229   0.290   3.691
  250SOL     OW 1291   1.466   1.417   2.815
  250SOL    HW1 1292   1.407   1.423   2.895
  250SOL    HW2 1293   1.451   1.329   2.769
  251SOL     OW 1294   1.667   1.714   2.434
  251SOL    HW1 1295   1.626   1.691   2.346
  251SOL    HW2 1296   1.649   1.640   2.499
  252SOL     OW 1297   0.598   0.729   2.132
  252SOL    HW1 1298   0.622   0.798   2.064
  252SOL    HW2 1299   0.520   0.762   2.186
  253SOL     OW 1300   1.281   0.345   2.806
  253SOL    HW1 1301   1.195   0.295   2.793
  253SOL    HW2 1302   1.343   0.291   2.862
  254SOL     OW 1303   1.576   1.662   2.169
  254SOL    HW1 1304   1.665   1.708   2.172
  254SOL    HW2 1305   1.555   1.638   2.074
  255SOL     OW 1306   0.807   0.605   3.327
  255SOL    HW1 1307   0.760   0.602   3.416
  255SOL    HW2 1308   0.756   0.550   3.261
  256SOL     OW 1309   1.394   0.469   3.536
  256SOL    HW1 1310   1.374   0.512   3.624
  256SOL    HW2 1311   1.472   0.407   3.545
  257SOL     OW 1312   0.973   0.890   3.434
  257SOL    HW1 1313   1.019   0.806   3.405
  257SOL    HW2 1314   0.917   0.924   3.359
  258SOL     OW 1315   0.991   0.410   3.104
  258SOL    HW1 1316   0.914   0.444   3.158
  258SOL    HW2 1317   0.957   0.359   3.025
  259SOL     OW 1318   1.041   0.701   2.291
  259SOL    HW1 1319   1.067   0.697   2.387
  259SOL    HW2 1320   0.956   0.650   2.277
  260SOL     OW 1321   0.076   0.811   2.651
  260SOL    HW1 1322   0.175   0.799   2.660
  260SOL    HW2 1323   0.052   0.906   2.672
  261SOL     OW 1324   0.130   1.821   3.433
  261SOL    HW1 1325   0.120   1.806   3.532
  261SOL    HW2 1326   0.044   1.857   3.397
  262SOL     OW 1327   0.865   0.348   2.057
  262SOL    HW1 1328   0.924   0.411   2.008
  262SOL    HW2 1329   0.884   0.254   2.028
  263SOL     OW 1330   1.719   0.585   3.693
  263SOL    HW1 1331   1.693   0.674   3.657
  263SOL    HW2 1332   1.717   0.517   3.620
  264SOL     OW 1333   1.362   1.144   2.407
  264SOL    HW1 1334   1.445   1.115   2.359
  264SOL    HW2 1335   1.313   1.211   2.351
  265SOL     OW 1336   0.550   0.196   2.747
  265SOL    HW1 1337   0.545   0.191   2.847
  265SOL    HW2 1338   0.552   0.292   2.718
  266SOL     OW 1339   1.008   1.456   2.339
  266SOL    HW1 1340   0.962   1.528   2.287
  266SOL    HW2 1341   1.004   1.476   2.437
  267SOL     OW 1342   0.351   1.801   2.715
  267SOL    HW1 1343   0.401   1.715   2.721
  267SOL    HW2 1344   0.416   1.878   2.712
  268SOL     OW 1345   1.795   1.066   2.735
  268SOL    HW1 1346   1.733   1.051   2.659
  268SOL    HW2 1347   1.743   1.077   2.820
  269SOL     OW 1348   1.227   1.550   3.368
  269SOL    HW1 1349   1.233   1.473   3.432
  269SOL    HW2 1350   1.175   1.524   3.288
  270SOL     OW 1351   0.321   0.943   2.104
  270SOL    HW1 1352   0.403   0.982   2.062
  270SOL    HW2 1353   0.294   0.861   2.055
  271SOL     OW 1354   1.458   0.735   2.590
  271SOL    HW1 1355   1.453   0.670   2.665
  271SOL    HW2 1356   1.538   0.794   2.603
  272SOL     OW 1357   0.461   1.266   3.589
  272SOL    HW1 1358   0.411   1.267   3.503
  272SOL    HW2 1359   0.398   1.248   3.665
  273SOL     OW 1360   1.111   1.776   2.099
  273SOL    HW1 1361   1.051   1.714   2.149
  273SOL    HW2 1362   1.142   1.732   2.014
  274SOL     OW 1363   0.202   0.285   3.360
  274SOL    HW1 1364   0.122   0.345   3.347
  274SOL    HW2 1365   0.192   0.236   3.446
  275SOL     OW 1366   1.632   1.377   1.943
  275SOL    HW1 1367   1.600   1.471   1.933
  275SOL    HW2 1368   1.556   1.314   1.931
  276SOL     OW 1369   0.464   1.743   2.185
  276SOL    HW1 1370   0.497   1.782   2.271
  276SOL    HW2 1371   0.540   1.736   2.120
  277SOL     OW 1372   1.400   0.107   2.288
  277SOL    HW1 1373   1.376   0.070   2.198
  277SOL    HW2 1374   1.499   0.123   2.292
  278SOL     OW 1375   0.249   1.785   3.103
  278SOL    HW1 1376   0.306   1.720   3.153
  278SOL    HW2 1377   0.233   1.752   3.010
  279SOL     OW 1378   0.940   1.698   2.766
  279SOL    HW1 1379   1.020   1.641   2.787
  279SOL    HW2 1380   0.891   1.658   2.689
  280SOL     OW 1381   0.382   0.700   2.342
  280SOL    HW1 1382   0.427   0.610   2.339
  280SOL    HW2 1383   0.288   0.689   2.375
  281SOL     OW 1384   1.547   0.222   3.591
  281SOL    HW1 1385   1.542   0.259   3.683
  281SOL    HW2 1386   1.475   0.153   3.579
  282SOL     OW 1387   0.614   0.122   1.979
  282SOL    HW1 1388   0.712   0.100   1.986
  282SOL    HW2 1389   0.583   0.105   1.886
  283SOL     OW 1390   0.781   0.264   3.611
  283SOL    HW1 1391   0.848   0.203   3.654
  283SOL    HW2 1392   0.708   0.283   3.676
  284SOL     OW 1393   0.888   1.514   3.057
  284SOL    HW1 1394   0.865   1.489   2.963
  284SOL    HW2 1395   0.949   1.445   3.096
  285SOL     OW 1396   1.351   0.590   3.295
  285SOL    HW1 1397   1.379   0.547   3.380
  285SOL    HW2 1398   1.376   0.686   3.296
  286SOL     OW 1399   0.803   1.402   2.786
  286SOL    HW1 1400   0.893   1.416   2.744
  286SOL    HW2 1401   0.732   1.404   2.715
  287SOL     OW 1402   0.922   0.503   2.761
  287SOL    HW1 1403   0.897   0.494   2.665
  287SOL    HW2 1404   0.970   0.421   2.792
  288SOL     OW 1405   0.539   0.064   2.374
  288SOL    HW1 1406   0.458   0.065   2.432
  288SOL    HW2 1407   0.542   0.147   2.319
  289SOL     OW 1408   1.434   1.188   1.903
  289SOL    HW1 1409   1.466   1.112   1.960
  289SOL    HW2 1410   1.342   1.215   1.933
  290SOL     OW 1411   0.297   0.035   2.033
  290SOL    HW1 1412   0.346   0.119   2.012
  290SOL    HW2 1413   0.359  -0.030   2.078
  291SOL     OW 1414   0.935   0.236   2.342
  291SOL    HW1 1415   0.887   0.277   2.264
  291SOL    HW2 1416   1.034   0.234   2.323
  292SOL     OW 1417   1.076   0.683   3.326
  292SOL    HW1 1418   0.996   0.622   3.329
  292SOL    HW2 1419   1.157   0.630   3.302
  293SOL     OW 1420   1.227   1.570   2.655
  293SOL    HW1 1421   1.248   1.644   2.590
  293SOL    HW2 1422   1.295   1.570   2.728
  294SOL     OW 1423   0.459   1.152   2.603
  294SOL    HW1 1424   0.388   1.125   2.668
  294SOL    HW2 1425   0.433   1.124   2.510
  295SOL     OW 1426   1.271   1.797   2.453
  295SOL    HW1 1427   1.315   1.861   2.389
  295SOL    HW2 1428   1.221   1.849   2.523
  296SOL     OW 1429   1.032   0.549   1.878
  296SOL    HW1 1430   0.991   0.631   1.839
  296SOL    HW2 1431   1.096   0.575   1.951
  297SOL     OW 1432   0.078   0.556   3.248
  297SOL    HW1 1433   0.170   0.555   3.207
  297SOL    HW2 1434   0.072   0.630   3.315
  298SOL     OW 1435   0.561   0.222   3.009
  298SOL    HW1 1436   0.599   0.138   3.046
  298SOL    HW2 1437   0.473   0.241   3.053
  299SOL     OW 1438   0.866   0.454   2.504
  299SOL    HW1 1439   0.834   0.526   2.442
  299SOL    HW2 1440   0.890   0.373   2.451
  300SOL     OW 1441   1.017   0.039   2.615
  300SOL    HW1 1442   0.945   0.044   2.546
  300SOL    HW2 1443   0.993  -0.030   2.684
  301SOL     OW 1444   1.429   1.173   2.729
  301SOL    HW1 1445   1.374   1.089   2.722
  301SOL    HW2 1446   1.455   1.202   2.637
  302SOL     OW 1447   1.466   0.590   2.854
  302SOL    HW1 1448   1.436   0.495   2.861
  302SOL    HW2 1449   1.539   0.606   2.920
  303SOL     OW 1450   1.857   0.833   2.239
  303SOL    HW1 1451   1.899   0.769   2.303
  303SOL    HW2 1452   1.819   0.782   2.161
  304SOL     OW 1453   0.488   1.385   2.036
  304SOL    HW1 1454   0.401   1.370   2.083
  304SOL    HW2 1455   0.471   1.411   1.941
  305SOL     OW 1456   1.664   1.280   2.519
  305SOL    HW1 1457   1.763   1.288   2.533
  305SOL    HW2 1458   1.619   1.364   2.550
  306SOL     OW 1459   1.390   0.575   1.940
  306SOL    HW1 1460   1.336   0.554   2.021
  306SOL    HW2 1461   1.481   0.534   1.949
  307SOL     OW 1462   0.527   0.256   2.190
  307SOL    HW1 1463   0.554   0.197   2.115
  307SOL    HW2 1464   0.527   0.351   2.159
  308SOL     OW 1465   1.754   1.223   3.450
  308SOL    HW1 1466   1.845   1.184   3.437
  308SOL    HW2 1467   1.762   1.319   3.474
  309SOL     OW 1468   1.064   1.347   3.202
  309SOL    HW1 1469   0.984   1.324   3.257
  309SOL    HW2 1470   1.147   1.321   3.251
  310SOL     OW 1471   1.592   1.629   3.487
  310SOL    HW1 1472   1.619   1.663   3.397
  310SOL    HW2 1473   1.671   1.591   3.533
  311SOL     OW 1474   1.111   1.195   2.962
  311SOL    HW1 1475   1.071   1.239   3.043
  311SOL    HW2 1476   1.070   1.232   2.879
  312SOL     OW 1477   1.638   1.099   2.941
  312SOL    HW1 1478   1.643   1.180   3.000
  312SOL    HW2 1479   1.552   1.101   2.890
  313SOL     OW 1480   0.915   0.089   3.264
  313SOL    HW1 1481   0.940   0.069   3.169
  313SOL    HW2 1482   0.987   0.145   3.306
  314SOL     OW 1483   0.980   1.116   3.581
  314SOL    HW1 1484   0.881   1.122   3.591
  314SOL    HW2 1485   1.003   1.036   3.525
  315SOL     OW 1486   0.705   1.050   2.230
  315SOL    HW1 1487   0.691   1.057   2.329
  315SOL    HW2 1488   0.789   0.999   2.212
  316SOL     OW 1489   0.410   0.813   3.113
  316SOL    HW1 1490   0.496   0.825   3.163
  316SOL    HW2 1491   0.368   0.726   3.140
  317SOL     OW 1492   1.274   0.386   3.124
  317SOL    HW1 1493   1.295   0.460   3.188
  317SOL    HW2 1494   1.185   0.403   3.081
  318SOL     OW 1495   0.064   1.564   3.193
  318SOL    HW1 1496   0.018   1.646   3.159
  318SOL    HW2 1497   0.162   1.583   3.202
  319SOL     OW 1498   0.367   1.100   2.363
  319SOL    HW1 1499   0.360   1.183   2.307
  319SOL    HW2 1500   0.371   1.020   2.303
  320SOL     OW 1501   0.566   0.537   2.727
  320SOL    HW1 1502   0.578   0.603   2.653
  320SOL    HW2 1503   0.612   0.571   2.810
  321SOL     OW 1504   1.252   1.348   2.250
  321SOL    HW1 1505   1.302   1.425   2.290
  321SOL    HW2 1506   1.157   1.350   2.282
  322SOL     OW 1507   1.272   1.445   3.004
  322SOL    HW1 1508   1.319   1.458   3.091
  322SOL    HW2 1509   1.206   1.371   3.013
  323SOL     OW 1510   1.582   0.639   2.334
  323SOL    HW1 1511   1.551   0.700   2.407
  323SOL    HW2 1512   1.632   0.691   2.265
  324SOL     OW 1513   0.354   1.510   3.191
  324SOL    HW1 1514   0.333   1.466   3.104
  324SOL    HW2 1515   0.451   1.536   3.194
  325SOL     OW 1516   0.402   0.751   3.460
  325SOL    HW1 1517   0.470   0.806   3.413
  325SOL    HW2 1518   0.442   0.663   3.487
  326SOL     OW 1519   1.587   0.779   3.532
  326SOL    HW1 1520   1.495   0.817   3.527
  326SOL    HW2 1521   1.647   0.826   3.467
  327SOL     OW 1522   1.013   0.105   3.632
  327SOL    HW1 1523   1.019   0.190   3.580
  327SOL    HW2 1524   1.045   0.029   3.575
  328SOL     OW 1525   0.504   0.050   3.602
  328SOL    HW1 1526   0.462  -0.007   3.532
  328SOL    HW2 1527   0.438   0.119   3.634
  329SOL     OW 1528   0.573   0.870   2.891
  329SOL    HW1 1529   0.617   0.959   2.882
  329SOL    HW2 1530   0.510   0.870   2.968
  330SOL     OW 1531   1.360   0.862   2.907
  330SOL    HW1 1532   1.285   0.862   2.841
  330SOL    HW2 1533   1.397   0.770   2.916
  331SOL     OW 1534   1.209   0.525   2.137
  331SOL    HW1 1535   1.222   0.441   2.191
  331SOL    HW2 1536   1.180   0.599   2.197
  332SOL     OW 1537   0.307   0.213   3.093
  332SOL    HW1 1538   0.284   0.250   3.183
  332SOL    HW2 1539   0.277   0.118   3.087
  333SOL     OW 1540   0.037   1.310   3.144
  333SOL    HW1 1541   0.090   1.261   3.212
  333SOL    HW2 1542   0.059   1.408   3.149
  334SOL     OW 1543   0.732   0.634   2.926
  334SOL    HW1 1544   0.791   0.608   2.850
  334SOL    HW2 1545   0.704   0.730   2.915
  335SOL     OW 1546   1.728   0.935   3.716
  335SOL    HW1 1547   1.682   0.928   3.627
  335SOL    HW2 1548   1.666   0.979   3.782
  336SOL     OW 1549   0.307   0.063   2.480
  336SOL    HW1 1550   0.296   0.157   2.513
  336SOL    HW2 1551   0.302   0.000   2.557
  337SOL     OW 1552   1.622   0.367   2.236
  337SOL    HW1 1553   1.624   0.291   2.300
  337SOL    HW2 1554   1.574   0.444   2.276
  338SOL     OW 1555   1.023   0.766   2.828
  338SOL    HW1 1556   1.038   0.787   2.924
  338SOL    HW2 1557   0.993   0.671   2.819
  339SOL     OW 1558   0.980   1.573   3.562
  339SOL    HW1 1559   0.960   1.617   3.474
  339SOL    HW2 1560   1.019   1.482   3.546
  340SOL     OW 1561   1.859   1.518   3.467
  340SOL    HW1 1562   1.873   1.545   3.372
  340SOL    HW2 1563   1.942   1.540   3.520
  341SOL     OW 1564   0.350   0.898   3.666
  341SOL    HW1 1565   0.426   0.942   3.714
  341SOL    HW2 1566   0.385   0.851   3.584
  342SOL     OW 1567   1.540   0.274   1.987
  342SOL    HW1 1568   1.479   0.199   2.010
  342SOL    HW2 1569   1.562   0.326   2.070
  343SOL     OW 1570   1.303   0.838   1.904
  343SOL    HW1 1571   1.337   0.745   1.919
  343SOL    HW2 1572   1.321   0.865   1.809
  344SOL     OW 1573   1.068   1.333   2.711
  344SOL    HW1 1574   1.075   1.249   2.656
  344SOL    HW2 1575   1.130   1.402   2.675
  345SOL     OW 1576   0.319   0.810   2.811
  345SOL    HW1 1577   0.412   0.846   2.816
  345SOL    HW2 1578   0.313   0.725   2.863
  346SOL     OW 1579   0.339   0.509   2.868
  346SOL    HW1 1580   0.287   0.426   2.851
  346SOL    HW2 1581   0.416   0.514   2.804
  347SOL     OW 1582   1.138   0.380   3.540
  347SOL    HW1 1583   1.093   0.443   3.604
  347SOL    HW2 1584   1.231   0.411   3.523
  348SOL     OW 1585   1.160   0.207   3.339
  348SOL    HW1 1586   1.160   0.271   3.416
  348SOL    HW2 1587   1.188   0.255   3.256
  349SOL     OW 1588   0.008   1.326   2.062
  349SOL    HW1 1589  -0.085   1.347   2.031
  349SOL    HW2 1590   0.018   1.227   2.075
  350SOL     OW 1591   0.088   1.801   2.789
  350SOL    HW1 1592   0.046   1.715   2.762
  350SOL    HW2 1593   0.182   1.804   2.755
  351SOL     OW 1594   0.504   1.568   2.772
  351SOL    HW1 1595   0.570   1.642   2.781
  351SOL    HW2 1596   0.548   1.489   2.730
  352SOL     OW 1597   1.002   0.796   3.100
  352SOL    HW1 1598   1.043   0.764   3.186
  352SOL    HW2 1599   0.906   0.769   3.097
  353SOL     OW 1600   0.040   0.544   2.976
  353SOL    HW1 1601   0.125   0.511   2.935
  353SOL    HW2 1602   0.053   0.559   3.074
  354SOL     OW 1603   0.189   0.520   3.584
  354SOL    HW1 1604   0.248   0.480   3.514
  354SOL    HW2 1605   0.131   0.591   3.543
  355SOL     OW 1606   1.369   0.950   3.522
  355SOL    HW1 1607   1.408   1.039   3.542
  355SOL    HW2 1608   1.379   0.930   3.425
  356SOL     OW 1609   0.815   0.572   2.187
  356SOL    HW1 1610   0.822   0.483   2.141
  356SOL    HW2 1611   0.721   0.606   2.179
  357SOL     OW 1612   1.657   0.604   3.068
  357SOL    HW1 1613   1.619   0.535   3.130
  357SOL    HW2 1614   1.739   0.568   3.024
  358SOL     OW 1615   0.252   1.564   3.606
  358SOL    HW1 1616   0.222   1.621   3.682
  358SOL    HW2 1617   0.245   1.467   3.632
  359SOL     OW 1618   0.671   0.464   3.131
  359SOL    HW1 1619   0.637   0.375   3.101
  359SOL    HW2 1620   0.697   0.518   3.051
  360SOL     OW 1621   0.930   1.678   3.327
  360SOL    HW1 1622   0.906   1.660   3.232
  360SOL    HW2 1623   0.960   1.772   3.337
  361SOL     OW 1624   0.473   0.500   2.053
  361SOL    HW1 1625   0.534   0.580   2.057
  361SOL    HW2 1626   0.378   0.531   2.060
  362SOL     OW 1627   0.159   1.137   3.328
  362SOL    HW1 1628   0.181   1.076   3.404
  362SOL    HW2 1629   0.169   1.088   3.242
  363SOL     OW 1630   1.347   1.059   3.096
  363SOL    HW1 1631   1.371   0.996   3.022
  363SOL    HW2 1632   1.257   1.099   3.078
  364SOL     OW 1633   1.302   0.855   2.171
  364SOL    HW1 1634   1.216   0.824   2.213
  364SOL    HW2 1635   1.298   0.841   2.072
  365SOL     OW 1636   1.759   1.747   3.016
  365SOL    HW1 1637   1.820   1.777   2.943
  365SOL    HW2 1638   1.721   1.658   2.994
  366SOL     OW 1639   1.252   1.731   2.990
  366SOL    HW1 1640   1.336   1.736   2.936
  366SOL    HW2 1641   1.229   1.635   3.008
  367SOL     OW 1642   0.083   1.258   2.884
  367SOL    HW1 1643   0.078   1.257   2.984
  367SOL    HW2 1644   0.000   1.217   2.846
  368SOL     OW 1645   0.688   1.662   3.578
  368SOL    HW1 1646   0.632   1.743   3.587
  368SOL    HW2 1647   0.740   1.666   3.492
  369SOL     OW 1648   1.726   0.135   2.385
  369SOL    HW1 1649   1.799   0.118   2.318
  369SOL    HW2 1650   1.695   0.048   2.423
  370SOL     OW 1651   1.388   1.573   2.339
  370SOL    HW1 1652   1.455   1.585   2.265
  370SOL    HW2 1653   1.348   1.662   2.362
  371SOL     OW 1654   0.130   1.794   3.713
  371SOL    HW1 1655   0.089   1.720   3.766
  371SOL    HW2 1656   0.194   1.845   3.771
  372SOL     OW 1657   1.280   0.927   2.534
  372SOL    HW1 1658   1.340   0.846   2.536
  372SOL    HW2 1659   1.320   0.996   2.474
  373SOL     OW 1660   0.830   1.273   3.284
  373SOL    HW1 1661   0.825   1.306   3.379
  373SOL    HW2 1662   0.744   1.292   3.238
  374SOL     OW 1663   0.672   1.616   2.016
  374SOL    HW1 1664   0.681   1.626   1.917
  374SOL    HW2 1665   0.632   1.527   2.037
  375SOL     OW 1666   1.650   1.720   3.256
  375SOL    HW1 1667   1.703   1.730   3.172
  375SOL    HW2 1668   1.623   1.810   3.290
  376SOL     OW 1669   1.841   0.175   2.825
  376SOL    HW1 1670   1.880   0.090   2.789
  376SOL    HW2 1671   1.743   0.177   2.806
  377SOL     OW 1672   0.263   0.326   2.582
  377SOL    HW1 1673   0.184   0.377   2.548
  377SOL    HW2 1674   0.254   0.311   2.680
  378SOL     OW 1675   1.194   1.612   1.893
  378SOL    HW1 1676   1.200   1.519   1.930
  378SOL    HW2 1677   1.135   1.612   1.813
  379SOL     OW 1678   0.822   1.002   3.234
  379SOL    HW1 1679   0.862   1.001   3.142
  379SOL    HW2 1680   0.832   1.094   3.274
  380SOL     OW 1681   0.916   0.910   2.153
  380SOL    HW1 1682   0.979   0.948   2.085
  380SOL    HW2 1683   0.956   0.827   2.192
  381SOL     OW 1684   1.504   1.607   1.906
  381SOL    HW1 1685   1.412   1.644   1.913
  381SOL    HW2 1686   1.542   1.627   1.816
  382SOL     OW 1687   0.372   1.288   3.352
  382SOL    HW1 1688   0.359   1.381   3.318
  382SOL    HW2 1689   0.288   1.236   3.339
  383SOL     OW 1690   1.614   1.292   3.151
  383SOL    HW1 1691   1.674   1.295   3.231
  383SOL    HW2 1692   1.539   1.356   3.164
  384SOL     OW 1693   1.039   1.098   2.558
  384SOL    HW1 1694   0.969   1.051   2.612
  384SOL    HW2 1695   1.098   1.030   2.515
  385SOL     OW 1696   1.014   0.236   2.833
  385SOL    HW1 1697   1.006   0.200   2.740
  385SOL    HW2 1698   1.012   0.160   2.898
  386SOL     OW 1699   0.590   1.487   2.353
  386SOL    HW1 1700   0.632   1.429   2.283
  386SOL    HW2 1701   0.546   1.566   2.309
  387SOL     OW 1702   1.709   0.385   3.243
  387SOL    HW1 1703   1.782   0.454   3.247
  387SOL    HW2 1704   1.737   0.310   3.184
  388SOL     OW 1705   0.255   1.348   2.152
  388SOL    HW1 1706   0.159   1.349   2.125
  388SOL    HW2 1707   0.267   1.401   2.236
  389SOL     OW 1708   0.105   1.013   3.588
  389SOL    HW1 1709   0.028   0.980   3.642
  389SOL    HW2 1710   0.190   0.983   3.630
  390SOL     OW 1711   0.672   0.203   3.351
  390SOL    HW1 1712   0.762   0.187   3.311
  390SOL    HW2 1713   0.680   0.208   3.450
  391SOL     OW 1714   0.075   0.345   1.895
  391SOL    HW1 1715  -0.017   0.317   1.866
  391SOL    HW2 1716   0.106   0.422   1.839
  392SOL     OW 1717   1.440   0.856   3.260
  392SOL    HW1 1718   1.383   0.908   3.197
  392SOL    HW2 1719   1.536   0.868   3.236
  393SOL     OW 1720   0.072   0.166   2.180
  393SOL    HW1 1721   0.055   0.249   2.126
  393SOL    HW2 1722   0.162   0.129   2.158
  394SOL     OW 1723   1.183   1.335   1.981
  394SOL    HW1 1724   1.084   1.324   1.983
  394SOL    HW2 1725   1.217   1.350   2.074
  395SOL     OW 1726   0.613   0.842   3.293
  395SOL    HW1 1727   0.669   0.923   3.276
  395SOL    HW2 1728   0.672   0.762   3.296
  396SOL     OW 1729   1.493   1.767   2.821
  396SOL    HW1 1730   1.526   1.831   2.752
  396SOL    HW2 1731   1.559   1.761   2.896
  397SOL     OW 1732   0.716   0.565   3.570
  397SOL    HW1 1733   0.735   0.630   3.644
  397SOL    HW2 1734   0.776   0.485   3.579
  398SOL     OW 1735   1.450   1.220   3.495
  398SOL    HW1 1736   1.441   1.210   3.594
  398SOL    HW2 1737   1.546   1.213   3.469
  399SOL     OW 1738   0.390   1.741   3.422
  399SOL    HW1 1739   0.299   1.782   3.420
  399SOL    HW2 1740   0.383   1.647   3.454
  400SOL     OW 1741   1.674   0.883   3.116
  400SOL    HW1 1742   1.647   0.794   3.079
  400SOL    HW2 1743   1.675   0.951   3.043
  401SOL     OW 1744   1.225   0.325   2.311
  401SOL    HW1 1745   1.290   0.251   2.300
  401SOL    HW2 1746   1.245   0.375   2.395
  402SOL     OW 1747   0.594   0.745   2.514
  402SOL    HW1 1748   0.644   0.830   2.495
  402SOL    HW2 1749   0.506   0.747   2.466
  403SOL     OW 1750   1.777   0.342   3.504
  403SOL    HW1 1751   1.760   0.373   3.410
  403SOL    HW2 1752   1.693   0.305   3.542
  404SOL     OW 1753   1.730   0.934   3.379
  404SOL    HW1 1754   1.768   1.025   3.394
  404SOL    HW2 1755   1.722   0.917   3.280
  405SOL     OW 1756   0.859   1.374   1.878
  405SOL    HW1 1757   0.813   1.389   1.966
  405SOL    HW2 1758   0.903   1.459   1.848
  406SOL     OW 1759   0.661   1.790   2.815
  406SOL    HW1 1760   0.615   1.878   2.802
  406SOL    HW2 1761   0.760   1.802   2.808
  407SOL     OW 1762   0.859   0.956   2.723
  407SOL    HW1 1763   0.913   0.887   2.771
  407SOL    HW2 1764   0.827   1.025   2.789
  408SOL     OW 1765   1.083   0.984   1.949
  408SOL    HW1 1766   1.060   1.037   1.867
  408SOL    HW2 1767   1.164   0.928   1.930
  409SOL     OW 1768   1.861   1.569   2.713
  409SOL    HW1 1769   1.790   1.557   2.643
  409SOL    HW2 1770   1.862   1.490   2.773
  410SOL     OW 1771   0.221   1.314   3.706
  410SOL    HW1 1772   0.156   1.241   3.685
  410SOL    HW2 1773   0.225   1.328   3.804
  411SOL     OW 1774   0.079   1.240   2.515
  411SOL    HW1 1775   0.078   1.193   2.603
  411SOL    HW2 1776   0.161   1.212   2.464
  412SOL     OW 1777   0.672   1.391   3.486
  412SOL    HW1 1778   0.594   1.341   3.524
  412SOL    HW2 1779   0.669   1.486   3.517
  413SOL     OW 1780   1.824   0.192   3.089
  413SOL    HW1 1781   1.820   0.102   3.133
  413SOL    HW2 1782   1.827   0.181   2.990
  414SOL     OW 1783   0.428   0.424   2.382
  414SOL    HW1 1784   0.458   0.352   2.320
  414SOL    HW2 1785   0.389   0.384   2.465
  415SOL     OW 1786   1.705   1.487   2.966
  415SOL    HW1 1787   1.612   1.462   2.939
  415SOL    HW2 1788   1.731   1.437   3.048
  416SOL     OW 1789   0.317   0.547   3.142
  416SOL    HW1 1790   0.355   0.488   3.214
  416SOL    HW2 1791   0.357   0.521   3.054
  417SOL     OW 1792   0.812   1.586   2.549
  417SOL    HW1 1793   0.844   1.596   2.455
  417SOL    HW2 1794   0.733   1.524   2.551
  418SOL     OW 1795   1.424   0.214   2.974
  418SOL    HW1 1796   1.476   0.149   3.029
  418SOL    HW2 1797   1.375   0.277   3.035
  419SOL     OW 1798   1.001   0.034   3.016
  419SOL    HW1 1799   0.938  -0.038   2.985
  419SOL    HW2 1800   1.094  -0.002   3.016
  420SOL     OW 1801   0.770   1.330   2.163
  420SOL    HW1 1802   0.724   1.243   2.180
  420SOL    HW2 1803   0.861   1.327   2.204
  421SOL     OW 1804   0.618   1.567   3.146
  421SOL    HW1 1805   0.613   1.649   3.203
  421SOL    HW2 1806   0.707   1.564   3.101
  422SOL     OW 1807   1.352   0.052   2.030
  422SOL    HW1 1808   1.387   0.011   1.946
  422SOL    HW2 1809   1.262   0.014   2.050
  423SOL     OW 1810   1.300   0.453   2.553
  423SOL    HW1 1811   1.241   0.533   2.557
  423SOL    HW2 1812   1.315   0.418   2.646
  424SOL     OW 1813   1.593   0.221   2.744
  424SOL    HW1 1814   1.509   0.220   2.798
  424SOL    HW2 1815   1.595   0.304   2.688
  425SOL     OW 1816   0.039   1.077   2.162
  425SOL    HW1 1817   0.138   1.066   2.153
  425SOL    HW2 1818  -0.001   0.991   2.194
  426SOL     OW 1819   0.875   1.646   2.199
  426SOL    HW1 1820   0.798   1.611   2.145
  426SOL    HW2 1821   0.843   1.717   2.261
  427SOL     OW 1822   0.230   0.628   3.837
  427SOL    HW1 1823   0.137   0.626   3.874
  427SOL    HW2 1824   0.231   0.589   3.745
  428SOL     OW 1825   0.225   0.275   4.720
  428SOL    HW1 1826   0.260   0.258   4.812
  428SOL    HW2 1827   0.137   0.230   4.708
  429SOL     OW 1828   0.019   0.368   4.371
  429SOL    HW1 1829  -0.063   0.411   4.410
  429SOL    HW2 1830  -0.009   0.295   4.308
  430SOL     OW 1831   0.569   1.275   4.889
  430SOL    HW1 1832   0.476   1.268   4.852
  430SOL    HW2 1833   0.580   1.364   4.933
  431SOL     OW 1834   1.555   1.511   4.427
  431SOL    HW1 1835   1.498   1.495   4.508
  431SOL    HW2 1836   1.496   1.521   4.347
  432SOL     OW 1837   1.135   0.703   4.441
  432SOL    HW1 1838   1.192   0.781   4.416
  432SOL    HW2 1839   1.075   0.729   4.517
  433SOL     OW 1840   1.755   0.607   3.955
  433SOL    HW1 1841   1.743   0.594   3.856
  433SOL    HW2 1842   1.725   0.526   4.004
  434SOL     OW 1843   0.768   1.144   4.747
  434SOL    HW1 1844   0.690   1.161   4.807
  434SOL    HW2 1845   0.802   1.231   4.711
  435SOL     OW 1846   0.850   0.798   5.547
  435SOL    HW1 1847   0.846   0.874   5.612
  435SOL    HW2 1848   0.872   0.834   5.456
  436SOL     OW 1849   0.685   1.012   4.389
  436SOL    HW1 1850   0.754   0.996   4.459
  436SOL    HW2 1851   0.612   1.069   4.427
  437SOL     OW 1852   0.686   1.161   5.527
  437SOL    HW1 1853   0.746   1.240   5.541
  437SOL    HW2 1854   0.600   1.192   5.486
  438SOL     OW 1855   0.335   1.435   4.785
  438SOL    HW1 1856   0.257   1.404   4.732
  438SOL    HW2 1857   0.393   1.493   4.728
  439SOL     OW 1858   1.460   1.505   5.063
  439SOL    HW1 1859   1.484   1.599   5.089
  439SOL    HW2 1860   1.444   1.451   5.145
  440SOL     OW 1861   0.438   0.392   5.223
  440SOL    HW1 1862   0.520   0.336   5.232
  440SOL    HW2 1863   0.357   0.334   5.227
  441SOL     OW 1864   1.603   0.447   4.461
  441SOL    HW1 1865   1.529   0.493   4.411
  441SOL    HW2 1866   1.654   0.515   4.514
  442SOL     OW 1867   0.231   1.713   4.207
  442SOL    HW1 1868   0.265   1.790   4.261
  442SOL    HW2 1869   0.275   1.713   4.117
  443SOL     OW 1870   1.127   1.341   5.414
  443SOL    HW1 1871   1.174   1.341   5.502
  443SOL    HW2 1872   1.079   1.254   5.403
  444SOL     OW 1873   0.230   1.434   4.262
  444SOL    HW1 1874   0.204   1.530   4.262
  444SOL    HW2 1875   0.159   1.380   4.307
  445SOL     OW 1876   0.240   1.091   4.610
  445SOL    HW1 1877   0.254   1.007   4.662
  445SOL    HW2 1878   0.185   1.155   4.665
  446SOL     OW 1879   0.620   1.786   5.163
  446SOL    HW1 1880   0.528   1.769   5.198
  446SOL    HW2 1881   0.648   1.878   5.189
  447SOL     OW 1882   0.606   0.964   3.847
  447SOL    HW1 1883   0.613   1.048   3.793
  447SOL    HW2 1884   0.652   0.977   3.935
  448SOL     OW 1885   1.594   0.114   5.204
  448SOL    HW1 1886   1.576   0.181   5.132
  448SOL    HW2 1887   1.591   0.160   5.293
  449SOL     OW 1888   0.122   0.643   4.287
  449SOL    HW1 1889   0.077   0.555   4.304
  449SOL    HW2 1890   0.121   0.697   4.371
  450SOL     OW 1891   1.842   1.767   4.083
  450SOL    HW1 1892   1.896   1.738   4.163
  450SOL    HW2 1893   1.872   1.857   4.054
  451SOL     OW 1894   0.027   1.596   3.841
  451SOL    HW1 1895   0.008   1.500   3.862
  451SOL    HW2 1896  -0.006   1.654   3.916
  452SOL     OW 1897   1.689   0.922   4.336
  452SOL    HW1 1898   1.784   0.893   4.344
  452SOL    HW2 1899   1.681   0.987   4.261
  453SOL     OW 1900   1.641   1.108   4.156
  453SOL    HW1 1901   1.727   1.110   4.104
  453SOL    HW2 1902   1.655   1.155   4.244
  454SOL     OW 1903   0.113   0.737   5.321
  454SOL    HW1 1904   0.201   0.724   5.366
  454SOL    HW2 1905   0.100   0.834   5.299
  455SOL     OW 1906   0.613   1.365   4.450
  455SOL    HW1 1907   0.564   1.278   4.459
  455SOL    HW2 1908   0.590   1.408   4.363
  456SOL     OW 1909   1.293   1.228   5.147
  456SOL    HW1 1910   1.330   1.155   5.089
  456SOL    HW2 1911   1.345   1.233   5.232
  457SOL     OW 1912   0.809   0.004   4.226
  457SOL    HW1 1913   0.849   0.095   4.217
  457SOL    HW2 1914   0.709   0.012   4.232
  458SOL     OW 1915   0.197   0.976   4.988
  458SOL    HW1 1916   0.286   0.931   4.974
  458SOL    HW2 1917   0.124   0.911   4.969
  459SOL     OW 1918   1.525   0.999   3.914
  459SOL    HW1 1919   1.462   0.923   3.927
  459SOL    HW2 1920   1.573   1.017   4.000
  460SOL     OW 1921   1.187   1.792   5.340
  460SOL    HW1 1922   1.211   1.852   5.264
  460SOL    HW2 1923   1.194   1.697   5.310
  461SOL     OW 1924   0.317   0.251   5.525
  461SOL    HW1 1925   0.388   0.322   5.531
  461SOL    HW2 1926   0.229   0.290   5.553
  462SOL     OW 1927   1.466   1.417   4.677
  462SOL    HW1 1928   1.407   1.423   4.757
  462SOL    HW2 1929   1.451   1.329   4.631
  463SOL     OW 1930   1.667   1.714   4.296
  463SOL    HW1 1931   1.626   1.691   4.208
  463SOL    HW2 1932   1.649   1.640   4.361
  464SOL     OW 1933   0.598   0.729   3.994
  464SOL    HW1 1934   0.622   0.798   3.926
  464SOL    HW2 1935   0.520   0.762   4.048
  465SOL     OW 1936   1.281   0.345   4.668
  465SOL    HW1 1937   1.195   0.295   4.655
  465SOL    HW2 1938   1.343   0.291   4.724
  466SOL     OW 1939   1.576   1.662   4.031
  466SOL    HW1 1940   1.665   1.708   4.034
  466SOL    HW2 1941   1.555   1.638   3.936
  467SOL     OW 1942   0.807   0.605   5.189
  467SOL    HW1 1943   0.760   0.602   5.278
  467SOL    HW2 1944   0.756   0.550   5.123
  468SOL     OW 1945   1.394   0.469   5.398
  468SOL    HW1 1946   1.374   0.512   5.486
  468SOL    HW2 1947   1.472   0.407   5.407
  469SOL     OW 1948   0.973   0.890   5.296
  469SOL    HW1 1949   1.019   0.806   5.267
  469SOL    HW2 1950   0.917   0.924   5.221
  470SOL     OW 1951   0.991   0.410   4.966
  470SOL    HW1 1952   0.914   0.444   5.020
  470SOL    HW2 1953   0.957   0.359   4.887
  471SOL     OW 1954   1.041   0.701   4.153
  471SOL    HW1 1955   1.067   0.697   4.249
  471SOL    HW2 1956   0.956   0.650   4.139
  472SOL     OW 1957   0.076   0.811   4.513
  472SOL    HW1 1958   0.175   0.799   4.522
  472SOL    HW2 1959   0.052   0.906   4.534
  473SOL     OW 1960   0.130   1.821   5.295
  473SOL    HW1 1961   0.120   1.806   5.394
  473SOL    HW2 1962   0.044   1.857   5.259
  474SOL     OW 1963   0.865   0.348   3.919
  474SOL    HW1 1964   0.924   0.411   3.870
  474SOL    HW2 1965   0.884   0.254   3.890
  475SOL     OW 1966   1.719   0.585   5.555
  475SOL    HW1 1967   1.693   0.674   5.519
  475SOL    HW2 1968   1.717   0.517   5.482
  476SOL     OW 1969   1.362   1.144   4.269
  476SOL    HW1 1970   1.445   1.115   4.221
  476SOL    HW2 1971   1.313   1.211   4.213
  477SOL     OW 1972   0.550   0.196   4.609
  477SOL    HW1 1973   0.545   0.191   4.709
  477SOL    HW2 1974   0.552   0.292   4.580
  478SOL     OW 1975   1.008   1.456   4.201
  478SOL    HW1 1976   0.962   1.528   4.149
  478SOL    HW2 1977   1.004   1.476   4.299
  479SOL     OW 1978   0.351   1.801   4.577
  479SOL    HW1 1979   0.401   1.715   4.583
  479SOL    HW2 1980   0.416   1.878   4.574
  480SOL     OW 1981   1.795   1.066   4.597
  480SOL    HW1 1982   1.733   1.051   4.521
  480SOL    HW2 1983   1.743   1.077   4.682
  481SOL     OW 1984   1.227   1.550   5.230
  481SOL    HW1 1985   1.233   1.473   5.294
  481SOL    HW2 1986   1.175   1.524   5.150
  482SOL     OW 1987   0.321   0.943   3.966
  482SOL    HW1 1988   0.403   0.982   3.924
  482SOL    HW2 1989   0.294   0.861   3.917
  483SOL     OW 1990   1.458   0.735   4.452
  483SOL    HW1 1991   1.453   0.670   4.527
  483SOL    HW2 1992   1.538   0.794   4.465
  484SOL     OW 1993   0.461   1.266   5.451
  484SOL    HW1 1994   0.411   1.267   5.365
  484SOL    HW2 1995   0.398   1.248   5.527
  485SOL     OW 1996   1.111   1.776   3.961
  485SOL    HW1 1997   1.051   1.714   4.011
  485SOL    HW2 1998   1.142   1.732   3.876
  486SOL     OW 1999   0.202   0.285   5.222
  486SOL    HW1 2000   0.122   0.345   5.209
  486SOL    HW2 2001   0.192   0.236   5.308
  487SOL     OW 2002   1.632   1.377   3.805
  487SOL    HW1 2003   1.600   1.471   3.795
  487SOL    HW2 2004   1.556   1.314   3.793
  488SOL     OW 2005   0.464   1.743   4.047
  488SOL    HW1 2006   0.497   1.782   4.133
  488SOL    HW2 2007   0.540   1.736   3.982
  489SOL     OW 2008   1.400   0.107   4.150
  489SOL    HW1 2009   1.376   0.070   4.060
  489SOL    HW2 2010   1.499   0.123   4.154
  490SOL     OW 2011   0.249   1.785   4.965
  490SOL    HW1 2012   0.306   1.720   5.015
  490SOL    HW2 2013   0.233   1.752   4.872
  491SOL     OW 2014   0.940   1.698   4.628
  491SOL    HW1 2015   1.020   1.641   4.649
  491SOL    HW2 2016   0.891   1.658   4.551
  492SOL     OW 2017   0.382   0.700   4.204
  492SOL    HW1 2018   0.427   0.610   4.201
  492SOL    HW2 2019   0.288   0.689   4.237
  493SOL     OW 2020   1.547   0.222   5.453
  493SOL    HW1 2021   1.542   0.259   5.545
  493SOL    HW2 2022   1.475   0.153   5.441
  494SOL     OW 2023   0.614   0.122   3.841
  494SOL    HW1 2024   0.712   0.100   3.848
  494SOL    HW2 2025   0.583   0.105   3.748
  495SOL     OW 2026   0.781   0.264   5.473
  495SOL    HW1 2027   0.848   0.203   5.516
  495SOL    HW2 2028   0.708   0.283   5.538
  496SOL     OW 2029   0.888   1.514   4.919
  496SOL    HW1 2030   0.865   1.489   4.825
  496SOL    HW2 2031   0.949   1.445   4.958
  497SOL     OW 2032   1.351   0.590   5.157
  497SOL    HW1 2033   1.379   0.547   5.242
  497SOL    HW2 2034   1.376   0.686   5.158
  498SOL     OW 2035   0.803   1.402   4.648
  498SOL    HW1 2036   0.893   1.416   4.606
  498SOL    HW2 2037   0.732   1.404   4.577
  499SOL     OW 2038   0.922   0.503   4.623
  499SOL    HW1 2039   0.897   0.494   4.527
  499SOL    HW2 2040   0.970   0.421   4.654
  500SOL     OW 2041   0.539   0.064   4.236
  500SOL    HW1 2042   0.458   0.065   4.294
  500SOL    HW2 2043   0.542   0.147   4.181
  501SOL     OW 2044   1.434   1.188   3.765
  501SOL    HW1 2045   1.466   1.112   3.822
  501SOL    HW2 2046   1.342   1.215   3.795
  502SOL     OW 2047   0.297   0.035   3.895
  502SOL    HW1 2048   0.346   0.119   3.874
  502SOL    HW2 2049   0.359  -0.030   3.940
  503SOL     OW 2050   0.935   0.236   4.204
  503SOL    HW1 2051   0.887   0.277   4.126
  503SOL    HW2 2052   1.034   0.234   4.185
  504SOL     OW 2053   1.076   0.683   5.188
  504SOL    HW1 2054   0.996   0.622   5.191
  504SOL    HW2 2055   1.157   0.630   5.164
  505SOL     OW 2056   1.227   1.570   4.517
  505SOL    HW1 2057   1.248   1.644   4.452
  505SOL    HW2 2058   1.295   1.570   4.590
  506SOL     OW 2059   0.459   1.152   4.465
  506SOL    HW1 2060   0.388   1.125   4.530
  506SOL    HW2 2061   0.433   1.124   4.372
  507SOL     OW 2062   1.271   1.797   4.315
  507SOL    HW1 2063   1.315   1.861   4.251
  507SOL    HW2 2064   1.221   1.849   4.385
  508SOL     OW 2065   1.032   0.549   3.740
  508SOL    HW1 2066   0.991   0.631   3.701
  508SOL    HW2 2067   1.096   0.575   3.813
  509SOL     OW 2068   0.078   0.556   5.110
  509SOL    HW1 2069   0.170   0.555   5.069
  509SOL    HW2 2070   0.072   0.630   5.177
  510SOL     OW 2071   0.561   0.222   4.871
  510SOL    HW1 2072   0.599   0.138   4.908
  510SOL    HW2 2073   0.473   0.241   4.915
  511SOL     OW 2074   0.866   0.454   4.366
  511SOL    HW1 2075   0.834   0.526   4.304
  511SOL    HW2 2076   0.890   0.373   4.313
  512SOL     OW 2077   1.017   0.039   4.477
  512SOL    HW1 2078   0.945   0.044   4.408
  512SOL    HW2 2079   0.993  -0.030   4.546
  513SOL     OW 2080   1.429   1.173   4.591
  513SOL    HW1 2081   1.374   1.089   4.584
  513SOL    HW2 2082   1.455   1.202   4.499
  514SOL     OW 2083   1.466   0.590   4.716
  514SOL    HW1 2084   1.436   0.495   4.723
  514SOL    HW2 2085   1.539   0.606   4.782
  515SOL     OW 2086   1.857   0.833   4.101
  515SOL    HW1 2087   1.899   0.769   4.165
  515SOL    HW2 2088   1.819   0.782   4.023
  516SOL     OW 2089   0.488   1.385   3.898
  516SOL    HW1 2090   0.401   1.370   3.945
  516SOL    HW2 2091   0.471   1.411   3.803
  517SOL     OW 2092   1.664   1.280   4.381
  517SOL    HW1 2093   1.763   1.288   4.395
  517SOL    HW2 2094   1.619   1.364   4.412
  518SOL     OW 2095   1.390   0.575   3.802
  518SOL    HW1 2096   1.336   0.554   3.883
  518SOL    HW2 2097   1.481   0.534   3.811
  519SOL     OW 2098   0.527   0.256   4.052
  519SOL    HW1 2099   0.554   0.197   3.977
  519SOL    HW2 2100   0.527   0.351   4.021
  520SOL     OW 2101   1.754   1.223   5.312
  520SOL    HW1 2102   1.845   1.184   5.299
  520SOL    HW2 2103   1.762   1.319   5.336
  521SOL     OW 2104   1.064   1.347   5.064
  521SOL    HW1 2105   0.984   1.324   5.119
  521SOL    HW2 2106   1.147   1.321   5.113
  522SOL     OW 2107   1.592   1.629   5.349
  522SOL    HW1 2108   1.619   1.663   5.259
  522SOL    HW2 2109   1.671   1.591   5.395
  523SOL     OW 2110   1.111   1.195   4.824
  523SOL    HW1 2111   1.071   1.239   4.905
  523SOL    HW2 2112   1.070   1.232   4.741
  524SOL     OW 2113   1.638   1.099   4.803
  524SOL    HW1 2114   1.643   1.180   4.862
  524SOL    HW2 2115   1.552   1.101   4.752
  525SOL     OW 2116   0.915   0.089   5.126
  525SOL    HW1 2117   0.940   0.069   5.031
  525SOL    HW2 2118   0.987   0.145   5.168
  526SOL     OW 2119   0.980   1.116   5.443
  526SOL    HW1 2120   0.881   1.122   5.453
  526SOL    HW2 2121   1.003   1.036   5.387
  527SOL     OW 2122   0.705   1.050   4.092
  527SOL    HW1 2123   0.691   1.057   4.191
  527SOL    HW2 2124   0.789   0.999   4.074
  528SOL     OW 2125   0.410   0.813   4.975
  528SOL    HW1 2126   0.496   0.825   5.025
  528SOL    HW2 2127   0.368   0.726   5.002
  529SOL     OW 2128   1.274   0.386   4.986
  529SOL    HW1 2129   1.295   0.460   5.050
  529SOL    HW2 2130   1.185   0.403   4.943
  530SOL     OW 2131   0.064   1.564   5.055
  530SOL    HW1 2132   0.018   1.646   5.021
  530SOL    HW2 2133   0.162   1.583   5.064
  531SOL     OW 2134   0.367   1.100   4.225
  531SOL    HW1 2135   0.360   1.183   4.169
  531SOL    HW2 2136   0.371   1.020   4.165
  532SOL     OW 2137   0.566   0.537   4.589
  532SOL    HW1 2138   0.578   0.603   4.515
  532SOL    HW2 2139   0.612   0.571   4.672
  533SOL     OW 2140   1.252   1.348   4.112
  533SOL    HW1 2141   1.302   1.425   4.152
  533SOL    HW2 2142   1.157   1.350   4.144
  534SOL     OW 2143   1.272   1.445   4.866
  534SOL    HW1 2144   1.319   1.458   4.953
  534SOL    HW2 2145   1.206   1.371   4.875
  535SOL     OW 2146   1.582   0.639   4.196
  535SOL    HW1 2147   1.551   0.700   4.269
  535SOL    HW2 2148   1.632   0.691   4.127
  536SOL     OW 2149   0.354   1.510   5.053
  536SOL    HW1 2150   0.333   1.466   4.966
  536SOL    HW2 2151   0.451   1.536   5.056
  537SOL     OW 2152   0.402   0.751   5.322
  537SOL    HW1 2153   0.470   0.806   5.275
  537SOL    HW2 2154   0.442   0.663   5.349
  538SOL     OW 2155   1.587   0.779   5.394
  538SOL    HW1 2156   1.495   0.817   5.389
  538SOL    HW2 2157   1.647   0.826   5.329
  539SOL     OW 2158   1.013   0.105   5.494
  539SOL    HW1 2159   1.019   0.190   5.442
  539SOL    HW2 2160   1.045   0.029   5.437
  540SOL     OW 2161   0.504   0.050   5.464
  540SOL    HW1 2162   0.462  -0.007   5.394
  540SOL    HW2 2163   0.438   0.119   5.496
  541SOL     OW 2164   0.573   0.870   4.753
  541SOL    HW1 2165   0.617   0.959   4.744
  541SOL    HW2 2166   0.510   0.870   4.830
  542SOL     OW 2167   1.360   0.862   4.769
  542SOL    HW1 2168   1.285   0.862   4.703
  542SOL    HW2 2169   1.397   0.770   4.778
  543SOL     OW 2170   1.209   0.525   3.999
  543SOL    HW1 2171   1.222   0.441   4.053
  543SOL    HW2 2172   1.180   0.599   4.059
  544SOL     OW 2173   0.307   0.213   4.955
  544SOL    HW1 2174   0.284   0.250   5.045
  544SOL    HW2 2175   0.277   0.118   4.949
  545SOL     OW 2176   0.037   1.310   5.006
  545SOL    HW1 2177   0.090   1.261   5.074
  545SOL    HW2 2178   0.059   1.408   5.011
  546SOL     OW 2179   0.732   0.634   4.788
  546SOL    HW1 2180   0.791   0.608   4.712
  546SOL    HW2 2181   0.704   0.730   4.777
  547SOL     OW 2182   1.728   0.935   5.578
  547SOL    HW1 2183   1.682   0.928   5.489
  547SOL    HW2 2184   1.666   0.979   5.644
  548SOL     OW 2185   0.307   0.063   4.342
  548SOL    HW1 2186   0.296   0.157   4.375
  548SOL    HW2 2187   0.302   0.000   4.419
  549SOL     OW 2188   1.622   0.367   4.098
  549SOL    HW1 2189   1.624   0.291   4.162
  549SOL    HW2 2190   1.574   0.444   4.138
  550SOL     OW 2191   1.023   0.766   4.690
  550SOL    HW1 2192   1.038   0.787   4.786
  550SOL    HW2 2193   0.993   0.671   4.681
  551SOL     OW 2194   0.980   1.573   5.424
  551SOL    HW1 2195   0.960   1.617   5.336
  551SOL    HW2 2196   1.019   1.482   5.408
  552SOL     OW 2197   1.859   1.518   5.329
  552SOL    HW1 2198   1.873   1.545   5.234
  552SOL    HW2 2199   1.942   1.540   5.382
  553SOL     OW 2200   0.350   0.898   5.528
  553SOL    HW1 2201   0.426   0.942   5.576
  553SOL    HW2 2202   0.385   0.851   5.446
  554SOL     OW 2203   1.540   0.274   3.849
  554SOL    HW1 2204   1.479   0.199   3.872
  554SOL    HW2 2205   1.562   0.326   3.932
  555SOL     OW 2206   1.303   0.838   3.766
  555SOL    HW1 2207   1.337   0.745   3.781
  555SOL    HW2 2208   1.321   0.865   3.671
  556SOL     OW 2209   1.068   1.333   4.573
  556SOL    HW1 2210   1.075   1.249   4.518
  556SOL    HW2 2211   1.130   1.402   4.537
  557SOL     OW 2212   0.319   0.810   4.673
  557SOL    HW1 2213   0.412   0.846   4.678
  557SOL    HW2 2214   0.313   0.725   4.725
  558SOL     OW 2215   0.339   0.509   4.730
  558SOL    HW1 2216   0.287   0.426   4.713
  558SOL    HW2 2217   0.416   0.514   4.666
  559SOL     OW 2218   1.138   0.380   5.402
  559SOL    HW1 2219   1.093   0.443   5.466
  559SOL    HW2 2220   1.231   0.411   5.385
  560SOL     OW 2221   1.160   0.207   5.201
  560SOL    HW1 2222   1.160   0.271   5.278
  560SOL    HW2 2223   1.188   0.255   5.118
  561SOL     OW 2224   0.008   1.326   3.924
  561SOL    HW1 2225  -0.085   1.347   3.893
  561SOL    HW2 2226   0.018   1.227   3.937
  562SOL     OW 2227   0.088   1.801   4.651
  562SOL    HW1 2228   0.046   1.715   4.624
  562SOL    HW2 2229   0.182   1.804   4.617
  563SOL     OW 2230   0.504   1.568   4.634
  563SOL    HW1 2231   0.570   1.642   4.643
  563SOL    HW2 2232   0.548   1.489   4.592
  564SOL     OW 2233   1.002   0.796   4.962
  564SOL    HW1 2234   1.043   0.764   5.048
  564SOL    HW2 2235   0.906   0.769   4.959
  565SOL     OW 2236   0.040   0.544   4.838
  565SOL    HW1 2237   0.125   0.511   4.797
  565SOL    HW2 2238   0.053   0.559   4.936
  566SOL     OW 2239   0.189   0.520   5.446
  566SOL    HW1 2240   0.248   0.480   5.376
  566SOL    HW2 2241   0.131   0.591   5.405
  567SOL     OW 2242   1.369   0.950   5.384
  567SOL    HW1 2243   1.408   1.039   5.404
  567SOL    HW2 2244   1.379   0.930   5.287
  568SOL     OW 2245   0.815   0.572   4.049
  568SOL    HW1 2246   0.822   0.483   4.003
  568SOL    HW2 2247   0.721   0.606   4.041
  569SOL     OW 2248   1.657   0.604   4.930
  569SOL    HW1 2249   1.619   0.535   4.992
  569SOL    HW2 2250   1.739   0.568   4.886
  570SOL     OW 2251   0.252   1.564   5.468
  570SOL    HW1 2252   0.222   1.621   5.544
  570SOL    HW2 2253   0.245   1.467   5.494
  571SOL     OW 2254   0.671   0.464   4.993
  571SOL    HW1 2255   0.637   0.375   4.963
  571SOL    HW2 2256   0.697   0.518   4.913
  572SOL     OW 2257   0.930   1.678   5.189
  572SOL    HW1 2258   0.906   1.660   5.094
  572SOL    HW2 2259   0.960   1.772   5.199
  573SOL     OW 2260   0.473   0.500   3.915
  573SOL    HW1 2261   0.534   0.580   3.919
  573SOL    HW2 2262   0.378   0.531   3.922
  574SOL     OW 2263   0.159   1.137   5.190
  574SOL    HW1 2264   0.181   1.076   5.266
  574SOL    HW2 2265   0.169   1.088   5.104
  575SOL     OW 2266   1.347   1.059   4.958
  575SOL    HW1 2267   1.371   0.996   4.884
  575SOL    HW2 2268   1.257   1.099   4.940
  576SOL     OW 2269   1.302   0.855   4.033
  576SOL    HW1 2270   1.216   0.824   4.075
  576SOL    HW2 2271   1.298   0.841   3.934
  577SOL     OW 2272   1.759   1.747   4.878
  577SOL    HW1 2273   1.820   1.777   4.805
  577SOL    HW2 2274   1.721   1.658   4.856
  578SOL     OW 2275   1.252   1.731   4.852
  578SOL    HW1 2276   1.336   1.736   4.798
  578SOL    HW2 2277   1.229   1.635   4.870
  579SOL     OW 2278   0.083   1.258   4.746
  579SOL    HW1 2279   0.078   1.257   4.846
  579SOL    HW2 2280   0.000   1.217   4.708
  580SOL     OW 2281   0.688   1.662   5.440
  580SOL    HW1 2282   0.632   1.743   5.449
  580SOL    HW2 2283   0.740   1.666   5.354
  581SOL     OW 2284   1.726   0.135   4.247
  581SOL    HW1 2285   1.799   0.118   4.180
  581SOL    HW2 2286   1.695   0.048   4.285
  582SOL     OW 2287   1.388   1.573   4.201
  582SOL    HW1 2288   1.455   1.585   4.127
  582SOL    HW2 2289   1.348   1.662   4.224
  583SOL     OW 2290   0.130   1.794   5.575
  583SOL    HW1 2291   0.089   1.720   5.628
  583SOL    HW2 2292   0.194   1.845   5.633
  584SOL     OW 2293   1.280   0.927   4.396
  584SOL    HW1 2294   1.340   0.846   4.398
  584SOL    HW2 2295   1.320   0.996   4.336
  585SOL     OW 2296   0.830   1.273   5.146
  585SOL    HW1 2297   0.825   1.306   5.241
  585SOL    HW2 2298   0.744   1.292   5.100
  586SOL     OW 2299   0.672   1.616   3.878
  586SOL    HW1 2300   0.681   1.626   3.779
  586SOL    HW2 2301   0.632   1.527   3.899
  587SOL     OW 2302   1.650   1.720   5.118
  587SOL    HW1 2303   1.703   1.730   5.034
  587SOL    HW2 2304   1.623   1.810   5.152
  588SOL     OW 2305   1.841   0.175   4.687
  588SOL    HW1 2306   1.880   0.090   4.651
  588SOL    HW2 2307   1.743   0.177   4.668
  589SOL     OW 2308   0.263   0.326   4.444
  589SOL    HW1 2309   0.184   0.377   4.410
  589SOL    HW2 2310   0.254   0.311   4.542
  590SOL     OW 2311   1.194   1.612   3.755
  590SOL    HW1 2312   1.200   1.519   3.792
  590SOL    HW2 2313   1.135   1.612   3.675
  591SOL     OW 2314   0.822   1.002   5.096
  591SOL    HW1 2315   0.862   1.001   5.004
  591SOL    HW2 2316   0.832   1.094   5.136
  592SOL     OW 2317   0.916   0.910   4.015
  592SOL    HW1 2318   0.979   0.948   3.947
  592SOL    HW2 2319   0.956   0.827   4.054
  593SOL     OW 2320   1.504   1.607   3.768
  593SOL    HW1 2321   1.412   1.644   3.775
  593SOL    HW2 2322   1.542   1.627   3.678
  594SOL     OW 2323   0.372   1.288   5.214
  594SOL    HW1 2324   0.359   1.381   5.180
  594SOL    HW2 2325   0.288   1.236   5.201
  595SOL     OW 2326   1.614   1.292   5.013
  595SOL    HW1 2327   1.674   1.295   5.093
  595SOL    HW2 2328   1.539   1.356   5.026
  596SOL     OW 2329   1.039   1.098   4.420
  596SOL    HW1 2330   0.969   1.051   4.474
  596SOL    HW2 2331   1.098   1.030   4.377
  597SOL     OW 2332   1.014   0.236   4.695
  597SOL    HW1 2333   1.006   0.200   4.602
  597SOL    HW2 2334   1.012   0.160   4.760
  598SOL     OW 2335   0.590   1.487   4.215
  598SOL    HW1 2336   0.632   1.429   4.145
  598SOL    HW2 2337   0.546   1.566   4.171
  599SOL     OW 2338   1.709   0.385   5.105
  599SOL    HW1 2339   1.782   0.454   5.109
  599SOL    HW2 2340   1.737   0.310   5.046
  600SOL     OW 2341   0.255   1.348   4.014
  600SOL    HW1 2342   0.159   1.349   3.987
  600SOL    HW2 2343   0.267   1.401   4.098
  601SOL     OW 2344   0.105   1.013   5.450
  601SOL    HW1 2345   0.028   0.980   5.504
  601SOL    HW2 2346   0.190   0.983   5.492
  602SOL     OW 2347   0.672   0.203   5.213
  602SOL    HW1 2348   0.762   0.187   5.173
  602SOL    HW2 2349   0.680   0.208   5.312
  603SOL     OW 2350   0.075   0.345   3.757
  603SOL    HW1 2351  -0.017   0.317   3.728
  603SOL    HW2 2352   0.106   0.422   3.701
  604SOL     OW 2353   1.440   0.856   5.122
  604SOL    HW1 2354   1.383   0.908   5.059
  604SOL    HW2 2355   1.536   0.868   5.098
  605SOL     OW 2356   0.072   0.166   4.042
  605SOL    HW1 2357   0.055   0.249   3.988
  605SOL    HW2 2358   0.162   0.129   4.020
  606SOL     OW 2359   1.183   1.335   3.843
  606SOL    HW1 2360   1.084   1.324   3.845
  606SOL    HW2 2361   1.217   1.350   3.936
  607SOL     OW 2362   0.613   0.842   5.155
  607SOL    HW1 2363   0.669   0.923   5.138
  607SOL    HW2 2364   0.672   0.762   5.158
  608SOL     OW 2365   1.493   1.767   4.683
  608SOL    HW1 2366   1.526   1.831   4.614
  608SOL    HW2 2367   1.559   1.761   4.758
  609SOL     OW 2368   0.716   0.565   5.432
  609SOL    HW1 2369   0.735   0.630   5.506
  609SOL    HW2 2370   0.776   0.485   5.441
  610SOL     OW 2371   1.450   1.220   5.357
  610SOL    HW1 2372   1.441   1.210   5.456
  610SOL    HW2 2373   1.546   1.213   5.331
  611SOL     OW 2374   0.390   1.741   5.284
  611SOL    HW1 2375   0.299   1.782   5.282
  611SOL    HW2 2376   0.383   1.647   5.316
  612SOL     OW 2377   1.674   0.883   4.978
  612SOL    HW1 2378   1.647   0.794   4.941
  612SOL    HW2 2379   1.675   0.951   4.905
  613SOL     OW 2380   1.225   0.325   4.173
  613SOL    HW1 2381   1.290   0.251   4.162
  613SOL    HW2 2382   1.245   0.375   4.257
  614SOL     OW 2383   0.594   0.745   4.376
  614SOL    HW1 2384   0.644   0.830   4.357
  614SOL    HW2 2385   0.506   0.747   4.328
  615SOL     OW 2386   1.777   0.342   5.366
  615SOL    HW1 2387   1.760   0.373   5.272
  615SOL    HW2 2388   1.693   0.305   5.404
  616SOL     OW 2389   1.730   0.934   5.241
  616SOL    HW1 2390   1.768   1.025   5.256
  616SOL    HW2 2391   1.722   0.917   5.142
  617SOL     OW 2392   0.859   1.374   3.740
  617SOL    HW1 2393   0.813   1.389   3.828
  617SOL    HW2 2394   0.903   1.459   3.710
  618SOL     OW 2395   0.661   1.790   4.677
  618SOL    HW1 2396   0.615   1.878   4.664
  618SOL    HW2 2397   0.760   1.802   4.670
  619SOL     OW 2398   0.859   0.956   4.585
  619SOL    HW1 2399   0.913   0.887   4.633
  619SOL    HW2 2400   0.827   1.025   4.651
  620SOL     OW 2401   1.083   0.984   3.811
  620SOL    HW1 2402   1.060   1.037   3.729
  620SOL    HW2 2403   1.164   0.928   3.792
  621SOL     OW 2404   1.861   1.569   4.575
  621SOL    HW1 2405   1.790   1.557   4.505
  621SOL    HW2 2406   1.862   1.490   4.635
  622SOL     OW 2407   0.221   1.314   5.568
  622SOL    HW1 2408   0.156   1.241   5.547
  622SOL    HW2 2409   0.225   1.328   5.666
  623SOL     OW 2410   0.079   1.240   4.377
  623SOL    HW1 2411   0.078   1.193   4.465
  623SOL    HW2 2412   0.161   1.212   4.326
  624SOL     OW 2413   0.672   1.391   5.348
  624SOL    HW1 2414   0.594   1.341   5.386
  624SOL    HW2 2415   0.669   1.486   5.379
  625SOL     OW 2416   1.824   0.192   4.951
  625SOL    HW1 2417   1.820   0.102   4.995
  625SOL    HW2 2418   1.827   0.181   4.852
  626SOL     OW 2419   0.428   0.424   4.244
  626SOL    HW1 2420   0.458   0.352   4.182
  626SOL    HW2 2421   0.389   0.384   4.327
  627SOL     OW 2422   1.705   1.487   4.828
  627SOL    HW1 2423   1.612   1.462   4.801
  627SOL    HW2 2424   1.731   1.437   4.910
  628SOL     OW 2425   0.317   0.547   5.004
  628SOL    HW1 2426   0.355   0.488   5.076
  628SOL    HW2 2427   0.357   0.521   4.916
  629SOL     OW 2428   0.812   1.586   4.411
  629SOL    HW1 2429   0.844   1.596   4.317
  629SOL    HW2 2430   0.733   1.524   4.413
  630SOL     OW 2431   1.424   0.214   4.836
  630SOL    HW1 2432   1.476   0.149   4.891
  630SOL    HW2 2433   1.375   0.277   4.897
  631SOL     OW 2434   1.001   0.034   4.878
  631SOL    HW1 2435   0.938  -0.038   4.847
  631SOL    HW2 2436   1.094  -0.002   4.878
  632SOL     OW 2437   0.770   1.330   4.025
  632SOL    HW1 2438   0.724   1.243   4.042
  632SOL    HW2 2439   0.861   1.327   4.066
  633SOL     OW 2440   0.618   1.567   5.008
  633SOL    HW1 2441   0.613   1.649   5.065
  633SOL    HW2 2442   0.707   1.564   4.963
  634SOL     OW 2443   1.352   0.052   3.892
  634SOL    HW1 2444   1.387   0.011   3.808
  634SOL    HW2 2445   1.262   0.014   3.912
  635SOL     OW 2446   1.300   0.453   4.415
  635SOL    HW1 2447   1.241   0.533   4.419
  635SOL    HW2 2448   1.315   0.418   4.508
  636SOL     OW 2449   1.593   0.221   4.606
  636SOL    HW1 2450   1.509   0.220   4.660
  636SOL    HW2 2451   1.595   0.304   4.550
  637SOL     OW 2452   0.039   1.077   4.024
  637SOL    HW1 2453   0.138   1.066   4.015
  637SOL    HW2 2454  -0.001   0.991   4.056
  638SOL     OW 2455   0.875   1.646   4.061
  638SOL    HW1 2456   0.798   1.611   4.007
  638SOL    HW2 2457   0.843   1.717   4.123
  639SOL     OW 2458   0.230   0.628   5.699
  639SOL    HW1 2459   0.137   0.626   5.736
  639SOL    HW2 2460   0.231   0.589   5.607
  640SOL     OW 2461   0.225   0.275   6.582
  640SOL    HW1 2462   0.260   0.258   6.674
  640SOL    HW2 2463   0.137   0.230   6.570
  641SOL     OW 2464   0.019   0.368   6.233
  641SOL    HW1 2465  -0.063   0.411   6.272
  641SOL    HW2 2466  -0.009   0.295   6.170
  642SOL     OW 2467   0.569   1.275   6.751
  642SOL    HW1 2468   0.476   1.268   6.714
  642SOL    HW2 2469   0.580   1.364   6.795
  643SOL     OW 2470   1.555   1.511   6.289
  643SOL    HW1 2471   1.498   1.495   6.370
  643SOL    HW2 2472   1.496   1.521   6.209
  644SOL     OW 2473   1.135   0.703   6.303
  644SOL    HW1 2474   1.192   0.781   6.278
  644SOL    HW2 2475   1.075   0.729   6.379
  645SOL     OW 2476   1.755   0.607   5.817
  645SOL    HW1 2477   1.743   0.594   5.718
  645SOL    HW2 2478   1.725   0.526   5.866
  646SOL     OW 2479   0.768   1.144   6.609
  646SOL    HW1 2480   0.690   1.161   6.669
  646SOL    HW2 2481   0.802   1.231   6.573
  647SOL     OW 2482   0.850   0.798   7.409
  647SOL    HW1 2483   0.846   0.874   7.474
  647SOL    HW2 2484   0.872   0.834   7.318
  648SOL     OW 2485   0.685   1.012   6.251
  648SOL    HW1 2486   0.754   0.996   6.321
  648SOL    HW2 2487   0.612   1.069   6.289
  649SOL     OW 2488   0.686   1.161   7.389
  649SOL    HW1 2489   0.746   1.240   7.403
  649SOL    HW2 2490   0.600   1.192   7.348
  650SOL     OW 2491   0.335   1.435   6.647
  650SOL    HW1 2492   0.257   1.404   6.594
  650SOL    HW2 2493   0.393   1.493   6.590
  651SOL     OW 2494   1.460   1.505   6.925
  651SOL    HW1 2495   1.484   1.599   6.951
  651SOL    HW2 2496   1.444   1.451   7.007
  652SOL     OW 2497   0.438   0.392   7.085
  652SOL    HW1 2498   0.520   0.336   7.094
  652SOL    HW2 2499   0.357   0.334   7.089
  653SOL     OW 2500   1.603   0.447   6.323
  653SOL    HW1 2501   1.529   0.493   6.273
  653SOL    HW2 2502   1.654   0.515   6.376
  654SOL     OW 2503   0.231   1.713   6.069
  654SOL    HW1 2504   0.265   1.790   6.123
  654SOL    HW2 2505   0.275   1.713   5.979
  655SOL     OW 2506   1.127   1.341   7.276
  655SOL    HW1 2507   1.174   1.341   7.364
  655SOL    HW2 2508   1.079   1.254   7.265
  656SOL     OW 2509   0.230   1.434   6.124
  656SOL    HW1 2510   0.204   1.530   6.124
  656SOL    HW2 2511   0.159   1.380   6.169
  657SOL     OW 2512   0.240   1.091   6.472
  657SOL    HW1 2513   0.254   1.007   6.524
  657SOL    HW2 2514   0.185   1.155   6.527
  658SOL     OW 2515   0.620   1.786   7.025
  658SOL    HW1 2516   0.528   1.769   7.060
  658SOL    HW2 2517   0.648   1.878   7.051
  659SOL     OW 2518   0.606   0.964   5.709
  659SOL    HW1 2519   0.613   1.048   5.655
  659SOL    HW2 2520   0.652   0.977   5.797
  660SOL     OW 2521   1.594   0.114   7.066
  660SOL    HW1 2522   1.576   0.181   6.994
  660SOL    HW2 2523   1.591   0.160   7.155
  661SOL     OW 2524   0.122   0.643   6.149
  661SOL    HW1 2525   0.077   0.555   6.166
  661SOL    HW2 2526   0.121   0.697   6.233
  662SOL     OW 2527   1.842   1.767   5.945
  662SOL    HW1 2528   1.896   1.738   6.025
  662SOL    HW2 2529   1.872   1.857   5.916
  663SOL     OW 2530   0.027   1.596   5.703
  663SOL    HW1 2531   0.008   1.500   5.724
  663SOL    HW2 2532  -0.006   1.654   5.778
  664SOL     OW 2533   1.689   0.922   6.198
  664SOL    HW1 2534   1.784   0.893   6.206
  664SOL    HW2 2535   1.681   0.987   6.123
  665SOL     OW 2536   1.641   1.108   6.018
  665SOL    HW1 2537   1.727   1.110   5.966
  665SOL    HW2 2538   1.655   1.155   6.106
  666SOL     OW 2539   0.113   0.737   7.183
  666SOL    HW1 2540   0.201   0.724   7.228
  666SOL    HW2 2541   0.100   0.834   7.161
  667SOL     OW 2542   0.613   1.365   6.312
  667SOL    HW1 2543   0.564   1.278   6.321
  667SOL    HW2 2544   0.590   1.408   6.225
  668SOL     OW 2545   1.293   1.228   7.009
  668SOL    HW1 2546   1.330   1.155   6.951
  668SOL    HW2 2547   1.345   1.233   7.094
  669SOL     OW 2548   0.809   0.004   6.088
  669SOL    HW1 2549   0.849   0.095   6.079
  669SOL    HW2 2550   0.709   0.012   6.094
  670SOL     OW 2551   0.197   0.976   6.850
  670SOL    HW1 2552   0.286   0.931   6.836
  670SOL    HW2 2553   0.124   0.911   6.831
  671SOL     OW 2554   1.525   0.999   5.776
  671SOL    HW1 2555   1.462   0.923   5.789
  671SOL    HW2 2556   1.573   1.017   5.862
  672SOL     OW 2557   1.187   1.792   7.202
  672SOL    HW1 2558   1.211   1.852   7.126
  672SOL    HW2 2559   1.194   1.697   7.172
  673SOL     OW 2560   0.317   0.251   7.387
  673SOL    HW1 2561   0.388   0.322   7.393
  673SOL    HW2 2562   0.229   0.290   7.415
  674SOL     OW 2563   1.466   1.417   6.539
  674SOL    HW1 2564   1.407   1.423   6.619
  674SOL    HW2 2565   1.451   1.329   6.493
  675SOL     OW 2566   1.667   1.714   6.158
  675SOL    HW1 2567   1.626   1.691   6.070
  675SOL    HW2 2568   1.649   1.640   6.223
  676SOL     OW 2569   0.598   0.729   5.856
  676SOL    HW1 2570   0.622   0.798   5.788
  676SOL    HW2 2571   0.520   0.762   5.910
  677SOL     OW 2572   1.281   0.345   6.530
  677SOL    HW1 2573   1.195   0.295   6.517
  677SOL    HW2 2574   1.343   0.291   6.586
  678SOL     OW 2575   1.576   1.662   5.893
  678SOL    HW1 2576   1.665   1.708   5.896
  678SOL    HW2 2577   1.555   1.638   5.798
  679SOL     OW 2578   0.807   0.605   7.051
  679SOL    HW1 2579   0.760   0.602   7.140
  679SOL    HW2 2580   0.756   0.550   6.985
  680SOL     OW 2581   1.394   0.469   7.260
  680SOL    HW1 2582   1.374   0.512   7.348
  680SOL    HW2 2583   1.472   0.407   7.269
  681SOL     OW 2584   0.973   0.890   7.158
  681SOL    HW1 2585   1.019   0.806   7.129
  681SOL    HW2 2586   0.917   0.924   7.083
  682SOL     OW 2587   0.991   0.410   6.828
  682SOL    HW1 2588   0.914   0.444   6.882
  682SOL    HW2 2589   0.957   0.359   6.749
  683SOL     OW 2590   1.041   0.701   6.015
  683SOL    HW1 2591   1.067   0.697   6.111
  683SOL    HW2 2592   0.956   0.650   6.001
  684SOL     OW 2593   0.076   0.811   6.375
  684SOL    HW1 2594   0.175   0.799   6.384
  684SOL    HW2 2595   0.052   0.906   6.396
  685SOL     OW 2596   0.130   1.821   7.157
  685SOL    HW1 2597   0.120   1.806   7.256
  685SOL    HW2 2598   0.044   1.857   7.121
  686SOL     OW 2599   0.865   0.348   5.781
  686SOL    HW1 2600   0.924   0.411   5.732
  686SOL    HW2 2601   0.884   0.254   5.752
  687SOL     OW 2602   1.719   0.585   7.417
  687SOL    HW1 2603   1.693   0.674   7.381
  687SOL    HW2 2604   1.717   0.517   7.344
  688SOL     OW 2605   1.362   1.144   6.131
  688SOL    HW1 2606   1.445   1.115   6.083
  688SOL    HW2 2607   1.313   1.211   6.075
  689SOL     OW 2608   0.550   0.196   6.471
  689SOL    HW1 2609   0.545   0.191   6.571
  689SOL    HW2 2610   0.552   0.292   6.442
  690SOL     OW 2611   1.008   1.456   6.063
  690SOL    HW1 2612   0.962   1.528   6.011
  690SOL    HW2 2613   1.004   1.476   6.161
  691SOL     OW 2614   0.351   1.801   6.439
  691SOL    HW1 2615   0.401   1.715   6.445
  691SOL    HW2 2616   0.416   1.878   6.436
  692SOL     OW 2617   1.795   1.066   6.459
  692SOL    HW1 2618   1.733   1.051   6.383
  692SOL    HW2 2619   1.743   1.077   6.544
  693SOL     OW 2620   1.227   1.550   7.092
  693SOL    HW1 2621   1.233   1.473   7.156
  693SOL    HW2 2622   1.175   1.524   7.012
  694SOL     OW 2623   0.321   0.943   5.828
  694SOL    HW1 2624   0.403   0.982   5.786
  694SOL    HW2 2625   0.294   0.861   5.779
  695SOL     OW 2626   1.458   0.735   6.314
  695SOL    HW1 2627   1.453   0.670   6.389
  695SOL    HW2 2628   1.538   0.794   6.327
  696SOL     OW 2629   0.461   1.266   7.313
  696SOL    HW1 2630   0.411   1.267   7.227
  696SOL    HW2 2631   0.398   1.248   7.389
  697SOL     OW 2632   1.111   1.776   5.823
  697SOL    HW1 2633   1.051   1.714   5.873
  697SOL    HW2 2634   1.142   1.732   5.738
  698SOL     OW 2635   0.202   0.285   7.084
  698SOL    HW1 2636   0.122   0.345   7.071
  698SOL    HW2 2637   0.192   0.236   7.170
  699SOL     OW 2638   1.632   1.377   5.667
  699SOL    HW1 2639   1.600   1.471   5.657
  699SOL    HW2 2640   1.556   1.314   5.655
  700SOL     OW 2641   0.464   1.743   5.909
  700SOL    HW1 2642   0.497   1.782   5.995
  700SOL    HW2 2643   0.540   1.736   5.844
  701SOL     OW 2644   1.400   0.107   6.012
  701SOL    HW1 2645   1.376   0.070   5.922
  701SOL    HW2 2646   1.499   0.123   6.016
  702SOL     OW 2647   0.249   1.785   6.827
  702SOL    HW1 2648   0.306   1.720   6.877
  702SOL    HW2 2649   0.233   1.752   6.734
  703SOL     OW 2650   0.940   1.698   6.490
  703SOL    HW1 2651   1.020   1.641   6.511
  703SOL    HW2 2652   0.891   1.658   6.413
  704SOL     OW 2653   0.382   0.700   6.066
  704SOL    HW1 2654   0.427   0.610   6.063
  704SOL    HW2 2655   0.288   0.689   6.099
  705SOL     OW 2656   1.547   0.222   7.315
  705SOL    HW1 2657   1.542   0.259   7.407
  705SOL    HW2 2658   1.475   0.153   7.303
  706SOL     OW 2659   0.614   0.122   5.703
  706SOL    HW1 2660   0.712   0.100   5.710
  706SOL    HW2 2661   0.583   0.105   5.610
  707SOL     OW 2662   0.781   0.264   7.335
  707SOL    HW1 2663   0.848   0.203   7.378
  707SOL    HW2 2664   0.708   0.283   7.400
  708SOL     OW 2665   0.888   1.514   6.781
  708SOL    HW1 2666   0.865   1.489   6.687
  708SOL    HW2 2667   0.949   1.445   6.820
  709SOL     OW 2668   1.351   0.590   7.019
  709SOL    HW1 2669   1.379   0.547   7.104
  709SOL    HW2 2670   1.376   0.686   7.020
  710SOL     OW 2671   0.803   1.402   6.510
  710SOL    HW1 2672   0.893   1.416   6.468
  710SOL    HW2 2673   0.732   1.404   6.439
  711SOL     OW 2674   0.922   0.503   6.485
  711SOL    HW1 2675   0.897   0.494   6.389
  711SOL    HW2 2676   0.970   0.421   6.516
  712SOL     OW 2677   0.539   0.064   6.098
  712SOL    HW1 2678   0.458   0.065   6.156
  712SOL    HW2 2679   0.542   0.147   6.043
  713SOL     OW 2680   1.434   1.188   5.627
  713SOL    HW1 2681   1.466   1.112   5.684
  713SOL    HW2 2682   1.342   1.215   5.657
  714SOL     OW 2683   0.297   0.035   5.757
  714SOL    HW1 2684   0.346   0.119   5.736
  714SOL    HW2 2685   0.359  -0.030   5.802
  715SOL     OW 2686   0.935   0.236   6.066
  715SOL    HW1 2687   0.887   0.277   5.988
  715SOL    HW2 2688   1.034   0.234   6.047
  716SOL     OW 2689   1.076   0.683   7.050
  716SOL    HW1 2690   0.996   0.622   7.053
  716SOL    HW2 2691   1.157   0.630   7.026
  717SOL     OW 2692   1.227   1.570   6.379
  717SOL    HW1 2693   1.248   1.644   6.314
  717SOL    HW2 2694   1.295   1.570   6.452
  718SOL     OW 2695   0.459   1.152   6.327
  718SOL    HW1 2696   0.388   1.125   6.392
  718SOL    HW2 2697   0.433   1.124   6.234
  719SOL     OW 2698   1.271   1.797   6.177
  719SOL    HW1 2699   1.315   1.861   6.113
  719SOL    HW2 2700   1.221   1.849   6.247
  720SOL     OW 2701   1.032   0.549   5.602
  720SOL    HW1 2702   0.991   0.631   5.563
  720SOL    HW2 2703   1.096   0.575   5.675
  721SOL     OW 2704   0.078   0.556   6.972
  721SOL    HW1 2705   0.170   0.555   6.931
  721SOL    HW2 2706   0.072   0.630   7.039
  722SOL     OW 2707   0.561   0.222   6.733
  722SOL    HW1 2708   0.599   0.138   6.770
  722SOL    HW2 2709   0.473   0.241   6.777
  723SOL     OW 2710   0.866   0.454   6.228
  723SOL    HW1 2711   0.834   0.526   6.166
  723SOL    HW2 2712   0.890   0.373   6.175
  724SOL     OW 2713   1.017   0.039   6.339
  724SOL    HW1 2714   0.945   0.044   6.270
  724SOL    HW2 2715   0.993  -0.030   6.408
  725SOL     OW 2716   1.429   1.173   6.453
  725SOL    HW1 2717   1.374   1.089   6.446
  725SOL    HW2 2718   1.455   1.202   6.361
  726SOL     OW 2719   1.466   0.590   6.578
  726SOL    HW1 2720   1.436   0.495   6.585
  726SOL    HW2 2721   1.539   0.606   6.644
  727SOL     OW 2722   1.857   0.833   5.963
  727SOL    HW1 2723   1.899   0.769   6.027
  727SOL    HW2 2724   1.819   0.782   5.885
  728SOL     OW 2725   0.488   1.385   5.760
  728SOL    HW1 2726   0.401   1.370   5.807
  728SOL    HW2 2727   0.471   1.411   5.665
  729SOL     OW 2728   1.664   1.280   6.243
  729SOL    HW1 2729   1.763   1.288   6.257
  729SOL    HW2 2730   1.619   1.364   6.274
  730SOL     OW 2731   1.390   0.575   5.664
  730SOL    HW1 2732   1.336   0.554   5.745
  730SOL    HW2 2733   1.481   0.534   5.673
  731SOL     OW 2734   0.527   0.256   5.914
  731SOL    HW1 2735   0.554   0.197   5.839
  731SOL    HW2 2736   0.527   0.351   5.883
  732SOL     OW 2737   1.754   1.223   7.174
  732SOL    HW1 2738   1.845   1.184   7.161
  732SOL    HW2 2739   1.762   1.319   7.198
  733SOL     OW 2740   1.064   1.347   6.926
  733SOL    HW1 2741   0.984   1.324   6.981
  733SOL    HW2 2742   1.147   1.321   6.975
  734SOL     OW 2743   1.592   1.629   7.211
  734SOL    HW1 2744   1.619   1.663   7.121
  734SOL    HW2 2745   1.671   1.591   7.257
  735SOL     OW 2746   1.111   1.195   6.686
  735SOL    HW1 2747   1.071   1.239   6.767
  735SOL    HW2 2748   1.070   1.232   6.603
  736SOL     OW 2749   1.638   1.099   6.665
  736SOL    HW1 2750   1.643   1.180   6.724
  736SOL    HW2 2751   1.552   1.101   6.614
  737SOL     OW 2752   0.915   0.089   6.988
  737SOL    HW1 2753   0.940   0.069   6.893
  737SOL    HW2 2754   0.987   0.145   7.030
  738SOL     OW 2755   0.980   1.116   7.305
  738SOL    HW1 2756   0.881   1.122   7.315
  738SOL    HW2 2757   1.003   1.036   7.249
  739SOL     OW 2758   0.705   1.050   5.954
  739SOL    HW1 2759   0.691   1.057   6.053
  739SOL    HW2 2760   0.789   0.999   5.936
  740SOL     OW 2761   0.410   0.813   6.837
  740SOL    HW1 2762   0.496   0.825   6.887
  740SOL    HW2 2763   0.368   0.726   6.864
  741SOL     OW 2764   1.274   0.386   6.848
  741SOL    HW1 2765   1.295   0.460   6.912
  741SOL    HW2 2766   1.185   0.403   6.805
  742SOL     OW 2767   0.064   1.564   6.917
  742SOL    HW1 2768   0.018   1.646   6.883
  742SOL    HW2 2769   0.162   1.583   6.926
  743SOL     OW 2770   0.367   1.100   6.087
  743SOL    HW1 2771   0.360   1.183   6.031
  743SOL    HW2 2772   0.371   1.020   6.027
  744SOL     OW 2773   0.566   0.537   6.451
  744SOL    HW1 2774   0.578   0.603   6.377
  744SOL    HW2 2775   0.612   0.571   6.534
  745SOL     OW 2776   1.252   1.348   5.974
  745SOL    HW1 2777   1.302   1.425   6.014
  745SOL    HW2 2778   1.157   1.350   6.006
  746SOL     OW 2779   1.272   1.445   6.728
  746SOL    HW1 2780   1.319   1.458   6.815
  746SOL    HW2 2781   1.206   1.371   6.737
  747SOL     OW 2782   1.582   0.639   6.058
  747SOL    HW1 2783   1.551   0.700   6.131
  747SOL    HW2 2784   1.632   0.691   5.989
  748SOL     OW 2785   0.354   1.510   6.915
  748SOL    HW1 2786   0.333   1.466   6.828
  748SOL    HW2 2787   0.451   1.536   6.918
  749SOL     OW 2788   0.402   0.751   7.184
  749SOL    HW1 2789   0.470   0.806   7.137
  749SOL    HW2 2790   0.442   0.663   7.211
  750SOL     OW 2791   1.587   0.779   7.256
  750SOL    HW1 2792   1.495   0.817   7.251
  750SOL    HW2 2793   1.647   0.826   7.191
  751SOL     OW 2794   1.013   0.105   7.356
  751SOL    HW1 2795   1.019   0.190   7.304
  751SOL    HW2 2796   1.045   0.029   7.299
  752SOL     OW 2797   0.504   0.050   7.326
  752SOL    HW1 2798   0.462  -0.007   7.256
  752SOL    HW2 2799   0.438   0.119   7.358
  753SOL     OW 2800   0.573   0.870   6.615
  753SOL    HW1 2801   0.617   0.959   6.606
  753SOL    HW2 2802   0.510   0.870   6.692
  754SOL     OW 2803   1.360   0.862   6.631
  754SOL    HW1 2804   1.285   0.862   6.565
  754SOL    HW2 2805   1.397   0.770   6.640
  755SOL     OW 2806   1.209   0.525   5.861
  755SOL    HW1 2807   1.222   0.441   5.915
  755SOL    HW2 2808   1.180   0.599   5.921
  756SOL     OW 2809   0.307   0.213   6.817
  756SOL    HW1 2810   0.284   0.250   6.907
  756SOL    HW2 2811   0.277   0.118   6.811
  757SOL     OW 2812   0.037   1.310   6.868
  757SOL    HW1 2813   0.090   1.261   6.936
  757SOL    HW2 2814   0.059   1.408   6.873
  758SOL     OW 2815   0.732   0.634   6.650
  758SOL    HW1 2816   0.791   0.608   6.574
  758SOL    HW2 2817   0.704   0.730   6.639
  759SOL     OW 2818   1.728   0.935   7.440
  759SOL    HW1 2819   1.682   0.928   7.351
  759SOL    HW2 2820   1.666   0.979   7.506
  760SOL     OW 2821   0.307   0.063   6.204
  760SOL    HW1 2822   0.296   0.157   6.237
  760SOL    HW2 2823   0.302   0.000   6.281
  761SOL     OW 2824   1.622   0.367   5.960
  761SOL    HW1 2825   1.624   0.291   6.024
  761SOL    HW2 2826   1.574   0.444   6.000
  762SOL     OW 2827   1.023   0.766   6.552
  762SOL    HW1 2828   1.038   0.787   6.648
  762SOL    HW2 2829   0.993   0.671   6.543
  763SOL     OW 2830   0.980   1.573   7.286
  763SOL    HW1 2831   0.960   1.617   7.198
  763SOL    HW2 2832   1.019   1.482   7.270
  764SOL     OW 2833   1.859   1.518   7.191
  764SOL    HW1 2834   1.873   1.545   7.096
  764SOL    HW2 2835   1.942   1.540   7.244
  765SOL     OW 2836   0.350   0.898   7.390
  765SOL    HW1 2837   0.426   0.942   7.438
  765SOL    HW2 2838   0.385   0.851   7.308
  766SOL     OW 2839   1.540   0.274   5.711
  766SOL    HW1 2840   1.479   0.199   5.734
  766SOL    HW2 2841   1.562   0.326   5.794
  767SOL     OW 2842   1.303   0.838   5.628
  767SOL    HW1 2843   1.337   0.745   5.643
  767SOL    HW2 2844   1.321   0.865   5.533
  768SOL     OW 2845   1.068   1.333   6.435
  768SOL    HW1 2846   1.075   1.249   6.380
  768SOL    HW2 2847   1.130   1.402   6.399
  769SOL     OW 2848   0.319   0.810   6.535
  769SOL    HW1 2849   0.412   0.846   6.540
  769SOL    HW2 2850   0.313   0.725   6.587
  770SOL     OW 2851   0.339   0.509   6.592
  770SOL    HW1 2852   0.287   0.426   6.575
  770SOL    HW2 2853   0.416   0.514   6.528
  771SOL     OW 2854   1.138   0.380   7.264
  771SOL    HW1 2855   1.093   0.443   7.328
  771SOL    HW2 2856   1.231   0.411   7.247
  772SOL     OW 2857   1.160   0.207   7.063
  772SOL    HW1 2858   1.160   0.271   7.140
  772SOL    HW2 2859   1.188   0.255   6.980
  773SOL     OW 2860   0.008   1.326   5.786
  773SOL    HW1 2861  -0.085   1.347   5.755
  773SOL    HW2 2862   0.018   1.227   5.799
  774SOL     OW 2863   0.088   1.801   6.513
  774SOL    HW1 2864   0.046   1.715   6.486
  774SOL    HW2 2865   0.182   1.804   6.479
  775SOL     OW 2866   0.504   1.568   6.496
  775SOL    HW1 2867   0.570   1.642   6.505
  775SOL    HW2 2868   0.548   1.489   6.454
  776SOL     OW 2869   1.002   0.796   6.824
  776SOL    HW1 2870   1.043   0.764   6.910
  776SOL    HW2 2871   0.906   0.769   6.821
  777SOL     OW 2872   0.040   0.544   6.700
  777SOL    HW1 2873   0.125   0.511   6.659
  777SOL    HW2 2874   0.053   0.559   6.798
  778SOL     OW 2875   0.189   0.520   7.308
  778SOL    HW1 2876   0.248   0.480   7.238
  778SOL    HW2 2877   0.131   0.591   7.267
  779SOL     OW 2878   1.369   0.950   7.246
  779SOL    HW1 2879   1.408   1.039   7.266
  779SOL    HW2 2880   1.379   0.930   7.149
  780SOL     OW 2881   0.815   0.572   5.911
  780SOL    HW1 2882   0.822   0.483   5.865
  780SOL    HW2 2883   0.721   0.606   5.903
  781SOL     OW 2884   1.657   0.604   6.792
  781SOL    HW1 2885   1.619   0.535   6.854
  781SOL    HW2 2886   1.739   0.568   6.748
  782SOL     OW 2887   0.252   1.564   7.330
  782SOL    HW1 2888   0.222   1.621   7.406
  782SOL    HW2 2889   0.245   1.467   7.356
  783SOL     OW 2890   0.671   0.464   6.855
  783SOL    HW1 2891   0.637   0.375   6.825
  783SOL    HW2 2892   0.697   0.518   6.775
  784SOL     OW 2893   0.930   1.678   7.051
  784SOL    HW1 2894   0.906   1.660   6.956
  784SOL    HW2 2895   0.960   1.772   7.061
  785SOL     OW 2896   0.473   0.500   5.777
  785SOL    HW1 2897   0.534   0.580   5.781
  785SOL    HW2 2898   0.378   0.531   5.784
  786SOL     OW 2899   0.159   1.137   7.052
  786SOL    HW1 2900   0.181   1.076   7.128
  786SOL    HW2 2901   0.169   1.088   6.966
  787SOL     OW 2902   1.347   1.059   6.820
  787SOL    HW1 2903   1.371   0.996   6.746
  787SOL    HW2 2904   1.257   1.099   6.802
  788SOL     OW 2905   1.302   0.855   5.895
  788SOL    HW1 2906   1.216   0.824   5.937
  788SOL    HW2 2907   1.298   0.841   5.796
  789SOL     OW 2908   1.759   1.747   6.740
  789SOL    HW1 2909   1.820   1.777   6.667
  789SOL    HW2 2910   1.721   1.658   6.718
  790SOL     OW 2911   1.252   1.731   6.714
  790SOL    HW1 2912   1.336   1.736   6.660
  790SOL    HW2 2913   1.229   1.635   6.732
  791SOL     OW 2914   0.083   1.258   6.608
  791SOL    HW1 2915   0.078   1.257   6.708
  791SOL    HW2 2916   0.000   1.217   6.570
  792SOL     OW 2917   0.688   1.662   7.302
  792SOL    HW1 2918   0.632   1.743   7.311
  792SOL    HW2 2919   0.740   1.666   7.216
  793SOL     OW 2920   1.726   0.135   6.109
  793SOL    HW1 2921   1.799   0.118   6.042
  793SOL    HW2 2922   1.695   0.048   6.147
  794SOL     OW 2923   1.388   1.573   6.063
  794SOL    HW1 2924   1.455   1.585   5.989
  794SOL    HW2 2925   1.348   1.662   6.086
  795SOL     OW 2926   0.130   1.794   7.437
  795SOL    HW1 2927   0.089   1.720   7.490
  795SOL    HW2 2928   0.194   1.845   7.495
  796SOL     OW 2929   1.280   0.927   6.258
  796SOL    HW1 2930   1.340   0.846   6.260
  796SOL    HW2 2931   1.320   0.996   6.198
  797SOL     OW 2932   0.830   1.273   7.008
  797SOL    HW1 2933   0.825   1.306   7.103
  797SOL    HW2 2934   0.744   1.292   6.962
  798SOL     OW 2935   0.672   1.616   5.740
  798SOL    HW1 2936   0.681   1.626   5.641
  798SOL    HW2 2937   0.632   1.527   5.761
  799SOL     OW 2938   1.650   1.720   6.980
  799SOL    HW1 2939   1.703   1.730   6.896
  799SOL    HW2 2940   1.623   1.810   7.014
  800SOL     OW 2941   1.841   0.175   6.549
  800SOL    HW1 2942   1.880   0.090   6.513
  800SOL    HW2 2943   1.743   0.177   6.530
  801SOL     OW 2944   0.263   0.326   6.306
  801SOL    HW1 2945   0.184   0.377   6.272
  801SOL    HW2 2946   0.254   0.311   6.404
  802SOL     OW 2947   1.194   1.612   5.617
  802SOL    HW1 2948   1.200   1.519   5.654
  802SOL    HW2 2949   1.135   1.612   5.537
  803SOL     OW 2950   0.822   1.002   6.958
  803SOL    HW1 2951   0.862   1.001   6.866
  803SOL    HW2 2952   0.832   1.094   6.998
  804SOL     OW 2953   0.916   0.910   5.877
  804SOL    HW1 2954   0.979   0.948   5.809
  804SOL    HW2 2955   0.956   0.827   5.916
  805SOL     OW 2956   1.504   1.607   5.630
  805SOL    HW1 2957   1.412   1.644   5.637
  805SOL    HW2 2958   1.542   1.627   5.540
  806SOL     OW 2959   0.372   1.288   7.076
  806SOL    HW1 2960   0.359   1.381   7.042
  806SOL    HW2 2961   0.288   1.236   7.063
  807SOL     OW 2962   1.614   1.292   6.875
  807SOL    HW1 2963   1.674   1.295   6.955
  807SOL    HW2 2964   1.539   1.356   6.888
  808SOL     OW 2965   1.039   1.098   6.282
  808SOL    HW1 2966   0.969   1.051   6.336
  808SOL    HW2 2967   1.098   1.030   6.239
  809SOL     OW 2968   1.014   0.236   6.557
  809SOL    HW1 2969   1.006   0.200   6.464
  809SOL    HW2 2970   1.012   0.160   6.622
  810SOL     OW 2971   0.590   1.487   6.077
  810SOL    HW1 2972   0.632   1.429   6.007
  810SOL    HW2 2973   0.546   1.566   6.033
  811SOL     OW 2974   1.709   0.385   6.967
  811SOL    HW1 2975   1.782   0.454   6.971
  811SOL    HW2 2976   1.737   0.310   6.908
  812SOL     OW 2977   0.255   1.348   5.876
  812SOL    HW1 2978   0.159   1.349   5.849
  812SOL    HW2 2979   0.267   1.401   5.960
  813SOL     OW 2980   0.105   1.013   7.312
  813SOL    HW1 2981   0.028   0.980   7.366
  813SOL    HW2 2982   0.190   0.983   7.354
  814SOL     OW 2983   0.672   0.203   7.075
  814SOL    HW1 2984   0.762   0.187   7.035
  814SOL    HW2 2985   0.680   0.208   7.174
  815SOL     OW 2986   0.075   0.345   5.619
  815SOL    HW1 2987  -0.017   0.317   5.590
  815SOL    HW2 2988   0.106   0.422   5.563
  816SOL     OW 2989   1.440   0.856   6.984
  816SOL    HW1 2990   1.383   0.908   6.921
  816SOL    HW2 2991   1.536   0.868   6.960
  817SOL     OW 2992   0.072   0.166   5.904
  817SOL    HW1 2993   0.055   0.249   5.850
  817SOL    HW2 2994   0.162   0.129   5.882
  818SOL     OW 2995   1.183   1.335   5.705
  818SOL    HW1 2996   1.084   1.324   5.707
  818SOL    HW2 2997   1.217   1.350   5.798
  819SOL     OW 2998   0.613   0.842   7.017
  819SOL    HW1 2999   0.669   0.923   7.000
  819SOL    HW2 3000   0.672   0.762   7.020
  820SOL     OW 3001   1.493   1.767   6.545
  820SOL    HW1 3002   1.526   1.831   6.476
  820SOL    HW2 3003   1.559   1.761   6.620
  821SOL     OW 3004   0.716   0.565   7.294
  821SOL    HW1 3005   0.735   0.630   7.368
  821SOL    HW2 3006   0.776   0.485   7.303
  822SOL     OW 3007   1.450   1.220   7.219
  822SOL    HW1 3008   1.441   1.210   7.318
  822SOL    HW2 3009   1.546   1.213   7.193
  823SOL     OW 3010   0.390   1.741   7.146
  823SOL    HW1 3011   0.299   1.782   7.144
  823SOL    HW2 3012   0.383   1.647   7.178
  824SOL     OW 3013   1.674   0.883   6.840
  824SOL    HW1 3014   1.647   0.794   6.803
  824SOL    HW2 3015   1.675   0.951   6.767
  825SOL     OW 3016   1.225   0.325   6.035
  825SOL    HW1 3017   1.290   0.251   6.024
  825SOL    HW2 3018   1.245   0.375   6.119
  826SOL     OW 3019   0.594   0.745   6.238
  826SOL    HW1 3020   0.644   0.830   6.219
  826SOL    HW2 3021   0.506   0.747   6.190
  827SOL     OW 3022   1.777   0.342   7.228
  827SOL    HW1 3023   1.760   0.373   7.134
  827SOL    HW2 3024   1.693   0.305   7.266
  828SOL     OW 3025   1.730   0.934   7.103
  828SOL    HW1 3026   1.768   1.025   7.118
  828SOL    HW2 3027   1.722   0.917   7.004
  829SOL     OW 3028   0.859   1.374   5.602
  829SOL    HW1 3029   0.813   1.389   5.690
  829SOL    HW2 3030   0.903   1.459   5.572
  830SOL     OW 3031   0.661   1.790   6.539
  830SOL    HW1 3032   0.615   1.878   6.526
  830SOL    HW2 3033   0.760   1.802   6.532
  831SOL     OW 3034   0.859   0.956   6.447
  831SOL    HW1 3035   0.913   0.887   6.495
  831SOL    HW2 3036   0.827   1.025   6.513
  832SOL     OW 3037   1.083   0.984   5.673
  832SOL    HW1 3038   1.060   1.037   5.591
  832SOL    HW2 3039   1.164   0.928   5.654
  833SOL     OW 3040   1.861   1.569   6.437
  833SOL    HW1 3041   1.790   1.557   6.367
  833SOL    HW2 3042   1.862   1.490   6.497
  834SOL     OW 3043   0.221   1.314   7.430
  834SOL    HW1 3044   0.156   1.241   7.409
  834SOL    HW2 3045   0.225   1.328   7.528
  835SOL     OW 3046   0.079   1.240   6.239
  835SOL    HW1 3047   0.078   1.193   6.327
  835SOL    HW2 3048   0.161   1.212   6.188
  836SOL     OW 3049   0.672   1.391   7.210
  836SOL    HW1 3050   0.594   1.341   7.248
  836SOL    HW2 3051   0.669   1.486   7.241
  837SOL     OW 3052   1.824   0.192   6.813
  837SOL    HW1 3053   1.820   0.102   6.857
  837SOL    HW2 3054   1.827   0.181   6.714
  838SOL     OW 3055   0.428   0.424   6.106
  838SOL    HW1 3056   0.458   0.352   6.044
  838SOL    HW2 3057   0.389   0.384   6.189
  839SOL     OW 3058   1.705   1.487   6.690
  839SOL    HW1 3059   1.612   1.462   6.663
  839SOL    HW2 3060   1.731   1.437   6.772
  840SOL     OW 3061   0.317   0.547   6.866
  840SOL    HW1 3062   0.355   0.488   6.938
  840SOL    HW2 3063   0.357   0.521   6.778
  841SOL     OW 3064   0.812   1.586   6.273
  841SOL    HW1 3065   0.844   1.596   6.179
  841SOL    HW2 3066   0.733   1.524   6.275
  842SOL     OW 3067   1.424   0.214   6.698
  842SOL    HW1 3068   1.476   0.149   6.753
  842SOL    HW2 3069   1.375   0.277   6.759
  843SOL     OW 3070   1.001   0.034   6.740
  843SOL    HW1 3071   0.938  -0.038   6.709
  843SOL    HW2 3072   1.094  -0.002   6.740
  844SOL     OW 3073   0.770   1.330   5.887
  844SOL    HW1 3074   0.724   1.243   5.904
  844SOL    HW2 3075   0.861   1.327   5.928
  845SOL     OW 3076   0.618   1.567   6.870
  845SOL    HW1 3077   0.613   1.649   6.927
  845SOL    HW2 3078   0.707   1.564   6.825
  846SOL     OW 3079   1.352   0.052   5.754
  846SOL    HW1 3080   1.387   0.011   5.670
  846SOL    HW2 3081   1.262   0.014   5.774
  847SOL     OW 3082   1.300   0.453   6.277
  847SOL    HW1 3083   1.241   0.533   6.281
  847SOL    HW2 3084   1.315   0.418   6.370
  848SOL     OW 3085   1.593   0.221   6.468
  848SOL    HW1 3086   1.509   0.220   6.522
  848SOL    HW2 3087   1.595   0.304   6.412
  849SOL     OW 3088   0.039   1.077   5.886
  849SOL    HW1 3089   0.138   1.066   5.877
  849SOL    HW2 3090  -0.001   0.991   5.918
  850SOL     OW 3091   0.875   1.646   5.923
  850SOL    HW1 3092   0.798   1.611   5.869
  850SOL    HW2 3093   0.843   1.717   5.985
  851SOL     OW 3094   0.230   0.628   7.561
  851SOL    HW1 3095   0.137   0.626   7.598
  851SOL    HW2 3096   0.231   0.589   7.469
  852SOL     OW 3097   1.755   0.607   7.679
  852SOL    HW1 3098   1.743   0.594   7.580
  852SOL    HW2 3099   1.725   0.526   7.728
  853SOL     OW 3100   0.231   1.713   7.931
  853SOL    HW1 3101   0.265   1.790   7.985
  853SOL    HW2 3102   0.275   1.713   7.841
  854SOL     OW 3103   0.230   1.434   7.986
  854SOL    HW1 3104   0.204   1.530   7.986
  854SOL    HW2 3105   0.159   1.380   8.031
  855SOL     OW 3106   0.606   0.964   7.571
  855SOL    HW1 3107   0.613   1.048   7.517
  855SOL    HW2 3108   0.652   0.977   7.659
  856SOL     OW 3109   1.842   1.767   7.807
  856SOL    HW1 3110   1.896   1.738   7.887
  856SOL    HW2 3111   1.872   1.857   7.778
  857SOL     OW 3112   0.027   1.596   7.565
  857SOL    HW1 3113   0.008   1.500   7.586
  857SOL    HW2 3114  -0.006   1.654   7.640
  858SOL     OW 3115   1.689   0.922   8.060
  858SOL    HW1 3116   1.784   0.893   8.068
  858SOL    HW2 3117   1.681   0.987   7.985
  859SOL     OW 3118   1.641   1.108   7.880
  859SOL    HW1 3119   1.727   1.110   7.828
  859SOL    HW2 3120   1.655   1.155   7.968
  860SOL     OW 3121   0.809   0.004   7.950
  860SOL    HW1 3122   0.849   0.095   7.941
  860SOL    HW2 3123   0.709   0.012   7.956
  861SOL     OW 3124   1.525   0.999   7.638
  861SOL    HW1 3125   1.462   0.923   7.651
  861SOL    HW2 3126   1.573   1.017   7.724
  862SOL     OW 3127   0.598   0.729   7.718
  862SOL    HW1 3128   0.622   0.798   7.650
  862SOL    HW2 3129   0.520   0.762   7.772
  863SOL     OW 3130   1.576   1.662   7.755
  863SOL    HW1 3131   1.665   1.708   7.758
  863SOL    HW2 3132   1.555   1.638   7.660
  864SOL     OW 3133   0.076   0.811   8.237
  864SOL    HW1 3134   0.175   0.799   8.246
  864SOL    HW2 3135   0.052   0.906   8.258
  865SOL     OW 3136   0.865   0.348   7.643
  865SOL    HW1 3137   0.924   0.411   7.594
  865SOL    HW2 3138   0.884   0.254   7.614
  866SOL     OW 3139   0.321   0.943   7.690
  866SOL    HW1 3140   0.403   0.982   7.648
  866SOL    HW2 3141   0.294   0.861   7.641
  867SOL     OW 3142   1.111   1.776   7.685
  867SOL    HW1 3143   1.051   1.714   7.735
  867SOL    HW2 3144   1.142   1.732   7.600
  868SOL     OW 3145   1.632   1.377   7.529
  868SOL    HW1 3146   1.600   1.471   7.519
  868SOL    HW2 3147   1.556   1.314   7.517
  869SOL     OW 3148   0.464   1.743   7.771
  869SOL    HW1 3149   0.497   1.782   7.857
  869SOL    HW2 3150   0.540   1.736   7.706
  870SOL     OW 3151   1.400   0.107   7.874
  870SOL    HW1 3152   1.376   0.070   7.784
  870SOL    HW2 3153   1.499   0.123   7.878
  871SOL     OW 3154   0.382   0.700   7.928
  871SOL    HW1 3155   0.427   0.610   7.925
  871SOL    HW2 3156   0.288   0.689   7.961
  872SOL     OW 3157   0.614   0.122   7.565
  872SOL    HW1 3158   0.712   0.100   7.572
  872SOL    HW2 3159   0.583   0.105   7.472
  873SOL     OW 3160   0.539   0.064   7.960
  873SOL    HW1 3161   0.458   0.065   8.018
  873SOL    HW2 3162   0.542   0.147   7.905
  874SOL     OW 3163   1.434   1.188   7.489
  874SOL    HW1 3164   1.466   1.112   7.546
  874SOL    HW2 3165   1.342   1.215   7.519
  875SOL     OW 3166   0.297   0.035   7.619
  875SOL    HW1 3167   0.346   0.119   7.598
  875SOL    HW2 3168   0.359  -0.030   7.664
  876SOL     OW 3169   0.935   0.236   7.928
  876SOL    HW1 3170   0.887   0.277   7.850
  876SOL    HW2 3171   1.034   0.234   7.909
  877SOL     OW 3172   0.459   1.152   8.189
  877SOL    HW1 3173   0.388   1.125   8.254
  877SOL    HW2 3174   0.433   1.124   8.096
  878SOL     OW 3175   1.271   1.797   8.039
  878SOL    HW1 3176   1.315   1.861   7.975
  878SOL    HW2 3177   1.221   1.849   8.109
  879SOL     OW 3178   1.032   0.549   7.464
  879SOL    HW1 3179   0.991   0.631   7.425
  879SOL    HW2 3180   1.096   0.575   7.537
  880SOL     OW 3181   1.857   0.833   7.825
  880SOL    HW1 3182   1.899   0.769   7.889
  880SOL    HW2 3183   1.819   0.782   7.747
  881SOL     OW 3184   0.488   1.385   7.622
  881SOL    HW1 3185   0.401   1.370   7.669
  881SOL    HW2 3186   0.471   1.411   7.527
  882SOL     OW 3187   1.390   0.575   7.526
  882SOL    HW1 3188   1.336   0.554   7.607
  882SOL    HW2 3189   1.481   0.534   7.535
  883SOL     OW 3190   0.527   0.256   7.776
  883SOL    HW1 3191   0.554   0.197   7.701
  883SOL    HW2 3192   0.527   0.351   7.745
  884SOL     OW 3193   0.705   1.050   7.816
  884SOL    HW1 3194   0.691   1.057   7.915
  884SOL    HW2 3195   0.789   0.999   7.798
  885SOL     OW 3196   0.367   1.100   7.949
  885SOL    HW1 3197   0.360   1.183   7.893
  885SOL    HW2 3198   0.371   1.020   7.889
  886SOL     OW 3199   1.252   1.348   7.836
  886SOL    HW1 3200   1.302   1.425   7.876
  886SOL    HW2 3201   1.157   1.350   7.868
  887SOL     OW 3202   1.582   0.639   7.920
  887SOL    HW1 3203   1.551   0.700   7.993
  887SOL    HW2 3204   1.632   0.691   7.851
  888SOL     OW 3205   1.209   0.525   7.723
  888SOL    HW1 3206   1.222   0.441   7.777
  888SOL    HW2 3207   1.180   0.599   7.783
  889SOL     OW 3208   1.622   0.367   7.822
  889SOL    HW1 3209   1.624   0.291   7.886
  889SOL    HW2 3210   1.574   0.444   7.862
  890SOL     OW 3211   1.540   0.274   7.573
  890SOL    HW1 3212   1.479   0.199   7.596
  890SOL    HW2 3213   1.562   0.326   7.656
  891SOL     OW 3214   1.303   0.838   7.490
  891SOL    HW1 3215   1.337   0.745   7.505
  891SOL    HW2 3216   1.321   0.865   7.395
  892SOL     OW 3217   0.008   1.326   7.648
  892SOL    HW1 3218  -0.085   1.347   7.617
  892SOL    HW2 3219   0.018   1.227   7.661
  893SOL     OW 3220   0.815   0.572   7.773
  893SOL    HW1 3221   0.822   0.483   7.727
  893SOL    HW2 3222   0.721   0.606   7.765
  894SOL     OW 3223   0.473   0.500   7.639
  894SOL    HW1 3224   0.534   0.580   7.643
  894SOL    HW2 3225   0.378   0.531   7.646
  895SOL     OW 3226   1.302   0.855   7.757
  895SOL    HW1 3227   1.216   0.824   7.799
  895SOL    HW2 3228   1.298   0.841   7.658
  896SOL     OW 3229   1.726   0.135   7.971
  896SOL    HW1 3230   1.799   0.118   7.904
  896SOL    HW2 3231   1.695   0.048   8.009
  897SOL     OW 3232   1.388   1.573   7.925
  897SOL    HW1 3233   1.455   1.585   7.851
  897SOL    HW2 3234   1.348   1.662   7.948
  898SOL     OW 3235   0.672   1.616   7.602
  898SOL    HW1 3236   0.681   1.626   7.503
  898SOL    HW2 3237   0.632   1.527   7.623
  899SOL     OW 3238   1.194   1.612   7.479
  899SOL    HW1 3239   1.200   1.519   7.516
  899SOL    HW2 3240   1.135   1.612   7.399
  900SOL     OW 3241   0.916   0.910   7.739
  900SOL    HW1 3242   0.979   0.948   7.671
  900SOL    HW2 3243   0.956   0.827   7.778
  901SOL     OW 3244   1.504   1.607   7.492
  901SOL    HW1 3245   1.412   1.644   7.499
  901SOL    HW2 3246   1.542   1.627   7.402
  902SOL     OW 3247   0.590   1.487   7.939
  902SOL    HW1 3248   0.632   1.429   7.869
  902SOL    HW2 3249   0.546   1.566   7.895
  903SOL     OW 3250   0.255   1.348   7.738
  903SOL    HW1 3251   0.159   1.349   7.711
  903SOL    HW2 3252   0.267   1.401   7.822
  904SOL     OW 3253   0.075   0.345   7.481
  904SOL    HW1 3254  -0.017   0.317   7.452
  904SOL    HW2 3255   0.106   0.422   7.425
  905SOL     OW 3256   0.072   0.166   7.766
  905SOL    HW1 3257   0.055   0.249   7.712
  905SOL    HW2 3258   0.162   0.129   7.744
  906SOL     OW 3259   1.183   1.335   7.567
  906SOL    HW1 3260   1.084   1.324   7.569
  906SOL    HW2 3261   1.217   1.350   7.660
  907SOL     OW 3262   1.225   0.325   7.897
  907SOL    HW1 3263   1.290   0.251   7.886
  907SOL    HW2 3264   1.245   0.375   7.981
  908SOL     OW 3265   0.594   0.745   8.100
  908SOL    HW1 3266   0.644   0.830   8.081
  908SOL    HW2 3267   0.506   0.747   8.052
  909SOL     OW 3268   0.859   1.374   7.464
  909SOL    HW1 3269   0.813   1.389   7.552
  909SOL    HW2 3270   0.903   1.459   7.434
  910SOL     OW 3271   1.083   0.984   7.535
  910SOL    HW1 3272   1.060   1.037   7.453
  910SOL    HW2 3273   1.164   0.928   7.516
  911SOL     OW 3274   0.428   0.424   7.968
  911SOL    HW1 3275   0.458   0.352   7.906
  911SOL    HW2 3276   0.389   0.384   8.051
  912SOL     OW 3277   0.770   1.330   7.749
  912SOL    HW1 3278   0.724   1.243   7.766
  912SOL    HW2 3279   0.861   1.327   7.790
  913SOL     OW 3280   1.352   0.052   7.616
  913SOL    HW1 3281   1.387   0.011   7.532
  913SOL    HW2 3282   1.262   0.014   7.636
  914SOL     OW 3283   0.039   1.077   7.748
  914SOL    HW1 3284   0.138   1.066   7.739
  914SOL    HW2 3285  -0.001   0.991   7.780
  915SOL     OW 3286   0.875   1.646   7.785
  915SOL    HW1 3287   0.798   1.611   7.731
  915SOL    HW2 3288   0.843   1.717   7.847
  916SOL     OW 3289   0.230   2.490   0.113
  916SOL    HW1 3290   0.137   2.488   0.150
  916SOL    HW2 3291   0.231   2.451   0.021
  917SOL     OW 3292   0.225   2.137   0.996
  917SOL    HW1 3293   0.260   2.120   1.088
  917SOL    HW2 3294   0.137   2.092   0.984
  918SOL     OW 3295   0.019   2.230   0.647
  918SOL    HW1 3296  -0.063   2.273   0.686
  918SOL    HW2 3297  -0.009   2.157   0.584
  919SOL     OW 3298   0.569   3.137   1.165
  919SOL    HW1 3299   0.476   3.130   1.128
  919SOL    HW2 3300   0.580   3.226   1.209
  920SOL     OW 3301   1.555   3.373   0.703
  920SOL    HW1 3302   1.498   3.357   0.784
  920SOL    HW2 3303   1.496   3.383   0.623
  921SOL     OW 3304   1.135   2.565   0.717
  921SOL    HW1 3305   1.192   2.643   0.692
  921SOL    HW2 3306   1.075   2.591   0.793
  922SOL     OW 3307   1.755   2.469   0.231
  922SOL    HW1 3308   1.743   2.456   0.132
  922SOL    HW2 3309   1.725   2.388   0.280
  923SOL     OW 3310   0.768   3.006   1.023
  923SOL    HW1 3311   0.690   3.023   1.083
  923SOL    HW2 3312   0.802   3.093   0.987
  924SOL     OW 3313   0.850   2.660   1.823
  924SOL    HW1 3314   0.846   2.736   1.888
  924SOL    HW2 3315   0.872   2.696   1.732
  925SOL     OW 3316   0.685   2.874   0.665
  925SOL    HW1 3317   0.754   2.858   0.735
  925SOL    HW2 3318   0.612   2.931   0.703
  926SOL     OW 3319   0.686   3.023   1.803
  926SOL    HW1 3320   0.746   3.102   1.817
  926SOL    HW2 3321   0.600   3.054   1.762
  927SOL     OW 3322   0.335   3.297   1.061
  927SOL    HW1 3323   0.257   3.266   1.008
  927SOL    HW2 3324   0.393   3.355   1.004
  928SOL     OW 3325   1.460   3.367   1.339
  928SOL    HW1 3326   1.484   3.461   1.365
  928SOL    HW2 3327   1.444   3.313   1.421
  929SOL     OW 3328   0.438   2.254   1.499
  929SOL    HW1 3329   0.520   2.198   1.508
  929SOL    HW2 3330   0.357   2.196   1.503
  930SOL     OW 3331   1.603   2.309   0.737
  930SOL    HW1 3332   1.529   2.355   0.687
  930SOL    HW2 3333   1.654   2.377   0.790
  931SOL     OW 3334   0.231   3.575   0.483
  931SOL    HW1 3335   0.265   3.652   0.537
  931SOL    HW2 3336   0.275   3.575   0.393
  932SOL     OW 3337   1.127   3.203   1.690
  932SOL    HW1 3338   1.174   3.203   1.778
  932SOL    HW2 3339   1.079   3.116   1.679
  933SOL     OW 3340   0.230   3.296   0.538
  933SOL    HW1 3341   0.204   3.392   0.538
  933SOL    HW2 3342   0.159   3.242   0.583
  934SOL     OW 3343   0.240   2.953   0.886
  934SOL    HW1 3344   0.254   2.869   0.938
  934SOL    HW2 3345   0.185   3.017   0.941
  935SOL     OW 3346   0.620   3.648   1.439
  935SOL    HW1 3347   0.528   3.631   1.474
  935SOL    HW2 3348   0.648   3.740   1.465
  936SOL     OW 3349   0.606   2.826   0.123
  936SOL    HW1 3350   0.613   2.910   0.069
  936SOL    HW2 3351   0.652   2.839   0.211
  937SOL     OW 3352   1.594   1.976   1.480
  937SOL    HW1 3353   1.576   2.043   1.408
  937SOL    HW2 3354   1.591   2.022   1.569
  938SOL     OW 3355   0.122   2.505   0.563
  938SOL    HW1 3356   0.077   2.417   0.580
  938SOL    HW2 3357   0.121   2.559   0.647
  939SOL     OW 3358   1.842   3.629   0.359
  939SOL    HW1 3359   1.896   3.600   0.439
  939SOL    HW2 3360   1.872   3.719   0.330
  940SOL     OW 3361   0.027   3.458   0.117
  940SOL    HW1 3362   0.008   3.362   0.138
  940SOL    HW2 3363  -0.006   3.516   0.192
  941SOL     OW 3364   1.689   2.784   0.612
  941SOL    HW1 3365   1.784   2.755   0.620
  941SOL    HW2 3366   1.681   2.849   0.537
  942SOL     OW 3367   1.641   2.970   0.432
  942SOL    HW1 3368   1.727   2.972   0.380
  942SOL    HW2 3369   1.655   3.017   0.520
  943SOL     OW 3370   0.113   2.599   1.597
  943SOL    HW1 3371   0.201   2.586   1.642
  943SOL    HW2 3372   0.100   2.696   1.575
  944SOL     OW 3373   0.613   3.227   0.726
  944SOL    HW1 3374   0.564   3.140   0.735
  944SOL    HW2 3375   0.590   3.270   0.639
  945SOL     OW 3376   1.293   3.090   1.423
  945SOL    HW1 3377   1.330   3.017   1.365
  945SOL    HW2 3378   1.345   3.095   1.508
  946SOL     OW 3379   0.809   1.866   0.502
  946SOL    HW1 3380   0.849   1.957   0.493
  946SOL    HW2 3381   0.709   1.874   0.508
  947SOL     OW 3382   0.197   2.838   1.264
  947SOL    HW1 3383   0.286   2.793   1.250
  947SOL    HW2 3384   0.124   2.773   1.245
  948SOL     OW 3385   1.525   2.861   0.190
  948SOL    HW1 3386   1.462   2.785   0.203
  948SOL    HW2 3387   1.573   2.879   0.276
  949SOL     OW 3388   1.187   3.654   1.616
  949SOL    HW1 3389   1.211   3.714   1.540
  949SOL    HW2 3390   1.194   3.559   1.586
  950SOL     OW 3391   0.317   2.113   1.801
  950SOL    HW1 3392   0.388   2.184   1.807
  950SOL    HW2 3393   0.229   2.152   1.829
  951SOL     OW 3394   1.466   3.279   0.953
  951SOL    HW1 3395   1.407   3.285   1.033
  951SOL    HW2 3396   1.451   3.191   0.907
  952SOL     OW 3397   1.667   3.576   0.572
  952SOL    HW1 3398   1.626   3.553   0.484
  952SOL    HW2 3399   1.649   3.502   0.637
  953SOL     OW 3400   0.598   2.591   0.270
  953SOL    HW1 3401   0.622   2.660   0.202
  953SOL    HW2 3402   0.520   2.624   0.324
  954SOL     OW 3403   1.281   2.207   0.944
  954SOL    HW1 3404   1.195   2.157   0.931
  954SOL    HW2 3405   1.343   2.153   1.000
  955SOL     OW 3406   1.576   3.524   0.307
  955SOL    HW1 3407   1.665   3.570   0.310
  955SOL    HW2 3408   1.555   3.500   0.212
  956SOL     OW 3409   0.807   2.467   1.465
  956SOL    HW1 3410   0.760   2.464   1.554
  956SOL    HW2 3411   0.756   2.412   1.399
  957SOL     OW 3412   1.394   2.331   1.674
  957SOL    HW1 3413   1.374   2.374   1.762
  957SOL    HW2 3414   1.472   2.269   1.683
  958SOL     OW 3415   0.973   2.752   1.572
  958SOL    HW1 3416   1.019   2.668   1.543
  958SOL    HW2 3417   0.917   2.786   1.497
  959SOL     OW 3418   0.991   2.272   1.242
  959SOL    HW1 3419   0.914   2.306   1.296
  959SOL    HW2 3420   0.957   2.221   1.163
  960SOL     OW 3421   1.041   2.563   0.429
  960SOL    HW1 3422   1.067   2.559   0.525
  960SOL    HW2 3423   0.956   2.512   0.415
  961SOL     OW 3424   0.076   2.673   0.789
  961SOL    HW1 3425   0.175   2.661   0.798
  961SOL    HW2 3426   0.052   2.768   0.810
  962SOL     OW 3427   0.130   3.683   1.571
  962SOL    HW1 3428   0.120   3.668   1.670
  962SOL    HW2 3429   0.044   3.719   1.535
  963SOL     OW 3430   0.865   2.210   0.195
  963SOL    HW1 3431   0.924   2.273   0.146
  963SOL    HW2 3432   0.884   2.116   0.166
  964SOL     OW 3433   1.719   2.447   1.831
  964SOL    HW1 3434   1.693   2.536   1.795
  964SOL    HW2 3435   1.717   2.379   1.758
  965SOL     OW 3436   1.362   3.006   0.545
  965SOL    HW1 3437   1.445   2.977   0.497
  965SOL    HW2 3438   1.313   3.073   0.489
  966SOL     OW 3439   0.550   2.058   0.885
  966SOL    HW1 3440   0.545   2.053   0.985
  966SOL    HW2 3441   0.552   2.154   0.856
  967SOL     OW 3442   1.008   3.318   0.477
  967SOL    HW1 3443   0.962   3.390   0.425
  967SOL    HW2 3444   1.004   3.338   0.575
  968SOL     OW 3445   0.351   3.663   0.853
  968SOL    HW1 3446   0.401   3.577   0.859
  968SOL    HW2 3447   0.416   3.740   0.850
  969SOL     OW 3448   1.795   2.928   0.873
  969SOL    HW1 3449   1.733   2.913   0.797
  969SOL    HW2 3450   1.743   2.939   0.958
  970SOL     OW 3451   1.227   3.412   1.506
  970SOL    HW1 3452   1.233   3.335   1.570
  970SOL    HW2 3453   1.175   3.386   1.426
  971SOL     OW 3454   0.321   2.805   0.242
  971SOL    HW1 3455   0.403   2.844   0.200
  971SOL    HW2 3456   0.294   2.723   0.193
  972SOL     OW 3457   1.458   2.597   0.728
  972SOL    HW1 3458   1.453   2.532   0.803
  972SOL    HW2 3459   1.538   2.656   0.741
  973SOL     OW 3460   0.461   3.128   1.727
  973SOL    HW1 3461   0.411   3.129   1.641
  973SOL    HW2 3462   0.398   3.110   1.803
  974SOL     OW 3463   1.111   3.638   0.237
  974SOL    HW1 3464   1.051   3.576   0.287
  974SOL    HW2 3465   1.142   3.594   0.152
  975SOL     OW 3466   0.202   2.147   1.498
  975SOL    HW1 3467   0.122   2.207   1.485
  975SOL    HW2 3468   0.192   2.098   1.584
  976SOL     OW 3469   1.632   3.239   0.081
  976SOL    HW1 3470   1.600   3.333   0.071
  976SOL    HW2 3471   1.556   3.176   0.069
  977SOL     OW 3472   0.464   3.605   0.323
  977SOL    HW1 3473   0.497   3.644   0.409
  977SOL    HW2 3474   0.540   3.598   0.258
  978SOL     OW 3475   1.400   1.969   0.426
  978SOL    HW1 3476   1.376   1.932   0.336
  978SOL    HW2 3477   1.499   1.985   0.430
  979SOL     OW 3478   0.249   3.647   1.241
  979SOL    HW1 3479   0.306   3.582   1.291
  979SOL    HW2 3480   0.233   3.614   1.148
  980SOL     OW 3481   0.940   3.560   0.904
  980SOL    HW1 3482   1.020   3.503   0.925
  980SOL    HW2 3483   0.891   3.520   0.827
  981SOL     OW 3484   0.382   2.562   0.480
  981SOL    HW1 3485   0.427   2.472   0.477
  981SOL    HW2 3486   0.288   2.551   0.513
  982SOL     OW 3487   1.547   2.084   1.729
  982SOL    HW1 3488   1.542   2.121   1.821
  982SOL    HW2 3489   1.475   2.015   1.717
  983SOL     OW 3490   0.614   1.984   0.117
  983SOL    HW1 3491   0.712   1.962   0.124
  983SOL    HW2 3492   0.583   1.967   0.024
  984SOL     OW 3493   0.781   2.126   1.749
  984SOL    HW1 3494   0.848   2.065   1.792
  984SOL    HW2 3495   0.708   2.145   1.814
  985SOL     OW 3496   0.888   3.376   1.195
  985SOL    HW1 3497   0.865   3.351   1.101
  985SOL    HW2 3498   0.949   3.307   1.234
  986SOL     OW 3499   1.351   2.452   1.433
  986SOL    HW1 3500   1.379   2.409   1.518
  986SOL    HW2 3501   1.376   2.548   1.434
  987SOL     OW 3502   0.803   3.264   0.924
  987SOL    HW1 3503   0.893   3.278   0.882
  987SOL    HW2 3504   0.732   3.266   0.853
  988SOL     OW 3505   0.922   2.365   0.899
  988SOL    HW1 3506   0.897   2.356   0.803
  988SOL    HW2 3507   0.970   2.283   0.930
  989SOL     OW 3508   0.539   1.926   0.512
  989SOL    HW1 3509   0.458   1.927   0.570
  989SOL    HW2 3510   0.542   2.009   0.457
  990SOL     OW 3511   1.434   3.050   0.041
  990SOL    HW1 3512   1.466   2.974   0.098
  990SOL    HW2 3513   1.342   3.077   0.071
  991SOL     OW 3514   0.297   1.897   0.171
  991SOL    HW1 3515   0.346   1.981   0.150
  991SOL    HW2 3516   0.359   1.832   0.216
  992SOL     OW 3517   0.935   2.098   0.480
  992SOL    HW1 3518   0.887   2.139   0.402
  992SOL    HW2 3519   1.034   2.096   0.461
  993SOL     OW 3520   1.076   2.545   1.464
  993SOL    HW1 3521   0.996   2.484   1.467
  993SOL    HW2 3522   1.157   2.492   1.440
  994SOL     OW 3523   1.227   3.432   0.793
  994SOL    HW1 3524   1.248   3.506   0.728
  994SOL    HW2 3525   1.295   3.432   0.866
  995SOL     OW 3526   0.459   3.014   0.741
  995SOL    HW1 3527   0.388   2.987   0.806
  995SOL    HW2 3528   0.433   2.986   0.648
  996SOL     OW 3529   1.271   3.659   0.591
  996SOL    HW1 3530   1.315   3.723   0.527
  996SOL    HW2 3531   1.221   3.711   0.661
  997SOL     OW 3532   1.032   2.411   0.016
  997SOL    HW1 3533   0.991   2.493  -0.023
  997SOL    HW2 3534   1.096   2.437   0.089
  998SOL     OW 3535   0.078   2.418   1.386
  998SOL    HW1 3536   0.170   2.417   1.345
  998SOL    HW2 3537   0.072   2.492   1.453
  999SOL     OW 3538   0.561   2.084   1.147
  999SOL    HW1 3539   0.599   2.000   1.184
  999SOL    HW2 3540   0.473   2.103   1.191
 1000SOL     OW 3541   0.866   2.316   0.642
 1000SOL    HW1 3542   0.834   2.388   0.580
 1000SOL    HW2 3543   0.890   2.235   0.589
 1001SOL     OW 3544   1.017   1.901   0.753
 1001SOL    HW1 3545   0.945   1.906   0.684
 1001SOL    HW2 3546   0.993   1.832   0.822
 1002SOL     OW 3547   1.429   3.035   0.867
 1002SOL    HW1 3548   1.374   2.951   0.860
 1002SOL    HW2 3549   1.455   3.064   0.775
 1003SOL     OW 3550   1.466   2.452   0.992
 1003SOL    HW1 3551   1.436   2.357   0.999
 1003SOL    HW2 3552   1.539   2.468   1.058
 1004SOL     OW 3553   1.857   2.695   0.377
 1004SOL    HW1 3554   1.899   2.631   0.441
 1004SOL    HW2 3555   1.819   2.644   0.299
 1005SOL     OW 3556   0.488   3.247   0.174
 1005SOL    HW1 3557   0.401   3.232   0.221
 1005SOL    HW2 3558   0.471   3.273   0.079
 1006SOL     OW 3559   1.664   3.142   0.657
 1006SOL    HW1 3560   1.763   3.150   0.671
 1006SOL    HW2 3561   1.619   3.226   0.688
 1007SOL     OW 3562   1.390   2.437   0.078
 1007SOL    HW1 3563   1.336   2.416   0.159
 1007SOL    HW2 3564   1.481   2.396   0.087
 1008SOL     OW 3565   0.527   2.118   0.328
 1008SOL    HW1 3566   0.554   2.059   0.253
 1008SOL    HW2 3567   0.527   2.213   0.297
 1009SOL     OW 3568   1.754   3.085   1.588
 1009SOL    HW1 3569   1.845   3.046   1.575
 1009SOL    HW2 3570   1.762   3.181   1.612
 1010SOL     OW 3571   1.064   3.209   1.340
 1010SOL    HW1 3572   0.984   3.186   1.395
 1010SOL    HW2 3573   1.147   3.183   1.389
 1011SOL     OW 3574   1.592   3.491   1.625
 1011SOL    HW1 3575   1.619   3.525   1.535
 1011SOL    HW2 3576   1.671   3.453   1.671
 1012SOL     OW 3577   1.111   3.057   1.100
 1012SOL    HW1 3578   1.071   3.101   1.181
 1012SOL    HW2 3579   1.070   3.094   1.017
 1013SOL     OW 3580   1.638   2.961   1.079
 1013SOL    HW1 3581   1.643   3.042   1.138
 1013SOL    HW2 3582   1.552   2.963   1.028
 1014SOL     OW 3583   0.915   1.951   1.402
 1014SOL    HW1 3584   0.940   1.931   1.307
 1014SOL    HW2 3585   0.987   2.007   1.444
 1015SOL     OW 3586   0.980   2.978   1.719
 1015SOL    HW1 3587   0.881   2.984   1.729
 1015SOL    HW2 3588   1.003   2.898   1.663
 1016SOL     OW 3589   0.705   2.912   0.368
 1016SOL    HW1 3590   0.691   2.919   0.467
 1016SOL    HW2 3591   0.789   2.861   0.350
 1017SOL     OW 3592   0.410   2.675   1.251
 1017SOL    HW1 3593   0.496   2.687   1.301
 1017SOL    HW2 3594   0.368   2.588   1.278
 1018SOL     OW 3595   1.274   2.248   1.262
 1018SOL    HW1 3596   1.295   2.322   1.326
 1018SOL    HW2 3597   1.185   2.265   1.219
 1019SOL     OW 3598   0.064   3.426   1.331
 1019SOL    HW1 3599   0.018   3.508   1.297
 1019SOL    HW2 3600   0.162   3.445   1.340
 1020SOL     OW 3601   0.367   2.962   0.501
 1020SOL    HW1 3602   0.360   3.045   0.445
 1020SOL    HW2 3603   0.371   2.882   0.441
 1021SOL     OW 3604   0.566   2.399   0.865
 1021SOL    HW1 3605   0.578   2.465   0.791
 1021SOL    HW2 3606   0.612   2.433   0.948
 1022SOL     OW 3607   1.252   3.210   0.388
 1022SOL    HW1 3608   1.302   3.287   0.428
 1022SOL    HW2 3609   1.157   3.212   0.420
 1023SOL     OW 3610   1.272   3.307   1.142
 1023SOL    HW1 3611   1.319   3.320   1.229
 1023SOL    HW2 3612   1.206   3.233   1.151
 1024SOL     OW 3613   1.582   2.501   0.472
 1024SOL    HW1 3614   1.551   2.562   0.545
 1024SOL    HW2 3615   1.632   2.553   0.403
 1025SOL     OW 3616   0.354   3.372   1.329
 1025SOL    HW1 3617   0.333   3.328   1.242
 1025SOL    HW2 3618   0.451   3.398   1.332
 1026SOL     OW 3619   0.402   2.613   1.598
 1026SOL    HW1 3620   0.470   2.668   1.551
 1026SOL    HW2 3621   0.442   2.525   1.625
 1027SOL     OW 3622   1.587   2.641   1.670
 1027SOL    HW1 3623   1.495   2.679   1.665
 1027SOL    HW2 3624   1.647   2.688   1.605
 1028SOL     OW 3625   1.013   1.967   1.770
 1028SOL    HW1 3626   1.019   2.052   1.718
 1028SOL    HW2 3627   1.045   1.891   1.713
 1029SOL     OW 3628   0.504   1.912   1.740
 1029SOL    HW1 3629   0.462   1.855   1.670
 1029SOL    HW2 3630   0.438   1.981   1.772
 1030SOL     OW 3631   0.573   2.732   1.029
 1030SOL    HW1 3632   0.617   2.821   1.020
 1030SOL    HW2 3633   0.510   2.732   1.106
 1031SOL     OW 3634   1.360   2.724   1.045
 1031SOL    HW1 3635   1.285   2.724   0.979
 1031SOL    HW2 3636   1.397   2.632   1.054
 1032SOL     OW 3637   1.209   2.387   0.275
 1032SOL    HW1 3638   1.222   2.303   0.329
 1032SOL    HW2 3639   1.180   2.461   0.335
 1033SOL     OW 3640   0.307   2.075   1.231
 1033SOL    HW1 3641   0.284   2.112   1.321
 1033SOL    HW2 3642   0.277   1.980   1.225
 1034SOL     OW 3643   0.037   3.172   1.282
 1034SOL    HW1 3644   0.090   3.123   1.350
 1034SOL    HW2 3645   0.059   3.270   1.287
 1035SOL     OW 3646   0.732   2.496   1.064
 1035SOL    HW1 3647   0.791   2.470   0.988
 1035SOL    HW2 3648   0.704   2.592   1.053
 1036SOL     OW 3649   1.728   2.797   1.854
 1036SOL    HW1 3650   1.682   2.790   1.765
 1036SOL    HW2 3651   1.666   2.841   1.920
 1037SOL     OW 3652   0.307   1.925   0.618
 1037SOL    HW1 3653   0.296   2.019   0.651
 1037SOL    HW2 3654   0.302   1.862   0.695
 1038SOL     OW 3655   1.622   2.229   0.374
 1038SOL    HW1 3656   1.624   2.153   0.438
 1038SOL    HW2 3657   1.574   2.306   0.414
 1039SOL     OW 3658   1.023   2.628   0.966
 1039SOL    HW1 3659   1.038   2.649   1.062
 1039SOL    HW2 3660   0.993   2.533   0.957
 1040SOL     OW 3661   0.980   3.435   1.700
 1040SOL    HW1 3662   0.960   3.479   1.612
 1040SOL    HW2 3663   1.019   3.344   1.684
 1041SOL     OW 3664   1.859   3.380   1.605
 1041SOL    HW1 3665   1.873   3.407   1.510
 1041SOL    HW2 3666   1.942   3.402   1.658
 1042SOL     OW 3667   0.350   2.760   1.804
 1042SOL    HW1 3668   0.426   2.804   1.852
 1042SOL    HW2 3669   0.385   2.713   1.722
 1043SOL     OW 3670   1.540   2.136   0.125
 1043SOL    HW1 3671   1.479   2.061   0.148
 1043SOL    HW2 3672   1.562   2.188   0.208
 1044SOL     OW 3673   1.303   2.700   0.042
 1044SOL    HW1 3674   1.337   2.607   0.057
 1044SOL    HW2 3675   1.321   2.727  -0.053
 1045SOL     OW 3676   1.068   3.195   0.849
 1045SOL    HW1 3677   1.075   3.111   0.794
 1045SOL    HW2 3678   1.130   3.264   0.813
 1046SOL     OW 3679   0.319   2.672   0.949
 1046SOL    HW1 3680   0.412   2.708   0.954
 1046SOL    HW2 3681   0.313   2.587   1.001
 1047SOL     OW 3682   0.339   2.371   1.006
 1047SOL    HW1 3683   0.287   2.288   0.989
 1047SOL    HW2 3684   0.416   2.376   0.942
 1048SOL     OW 3685   1.138   2.242   1.678
 1048SOL    HW1 3686   1.093   2.305   1.742
 1048SOL    HW2 3687   1.231   2.273   1.661
 1049SOL     OW 3688   1.160   2.069   1.477
 1049SOL    HW1 3689   1.160   2.133   1.554
 1049SOL    HW2 3690   1.188   2.117   1.394
 1050SOL     OW 3691   0.008   3.188   0.200
 1050SOL    HW1 3692  -0.085   3.209   0.169
 1050SOL    HW2 3693   0.018   3.089   0.213
 1051SOL     OW 3694   0.088   3.663   0.927
 1051SOL    HW1 3695   0.046   3.577   0.900
 1051SOL    HW2 3696   0.182   3.666   0.893
 1052SOL     OW 3697   0.504   3.430   0.910
 1052SOL    HW1 3698   0.570   3.504   0.919
 1052SOL    HW2 3699   0.548   3.351   0.868
 1053SOL     OW 3700   1.002   2.658   1.238
 1053SOL    HW1 3701   1.043   2.626   1.324
 1053SOL    HW2 3702   0.906   2.631   1.235
 1054SOL     OW 3703   0.040   2.406   1.114
 1054SOL    HW1 3704   0.125   2.373   1.073
 1054SOL    HW2 3705   0.053   2.421   1.212
 1055SOL     OW 3706   0.189   2.382   1.722
 1055SOL    HW1 3707   0.248   2.342   1.652
 1055SOL    HW2 3708   0.131   2.453   1.681
 1056SOL     OW 3709   1.369   2.812   1.660
 1056SOL    HW1 3710   1.408   2.901   1.680
 1056SOL    HW2 3711   1.379   2.792   1.563
 1057SOL     OW 3712   0.815   2.434   0.325
 1057SOL    HW1 3713   0.822   2.345   0.279
 1057SOL    HW2 3714   0.721   2.468   0.317
 1058SOL     OW 3715   1.657   2.466   1.206
 1058SOL    HW1 3716   1.619   2.397   1.268
 1058SOL    HW2 3717   1.739   2.430   1.162
 1059SOL     OW 3718   0.252   3.426   1.744
 1059SOL    HW1 3719   0.222   3.483   1.820
 1059SOL    HW2 3720   0.245   3.329   1.770
 1060SOL     OW 3721   0.671   2.326   1.269
 1060SOL    HW1 3722   0.637   2.237   1.239
 1060SOL    HW2 3723   0.697   2.380   1.189
 1061SOL     OW 3724   0.930   3.540   1.465
 1061SOL    HW1 3725   0.906   3.522   1.370
 1061SOL    HW2 3726   0.960   3.634   1.475
 1062SOL     OW 3727   0.473   2.362   0.191
 1062SOL    HW1 3728   0.534   2.442   0.195
 1062SOL    HW2 3729   0.378   2.393   0.198
 1063SOL     OW 3730   0.159   2.999   1.466
 1063SOL    HW1 3731   0.181   2.938   1.542
 1063SOL    HW2 3732   0.169   2.950   1.380
 1064SOL     OW 3733   1.347   2.921   1.234
 1064SOL    HW1 3734   1.371   2.858   1.160
 1064SOL    HW2 3735   1.257   2.961   1.216
 1065SOL     OW 3736   1.302   2.717   0.309
 1065SOL    HW1 3737   1.216   2.686   0.351
 1065SOL    HW2 3738   1.298   2.703   0.210
 1066SOL     OW 3739   1.759   3.609   1.154
 1066SOL    HW1 3740   1.820   3.639   1.081
 1066SOL    HW2 3741   1.721   3.520   1.132
 1067SOL     OW 3742   1.252   3.593   1.128
 1067SOL    HW1 3743   1.336   3.598   1.074
 1067SOL    HW2 3744   1.229   3.497   1.146
 1068SOL     OW 3745   0.083   3.120   1.022
 1068SOL    HW1 3746   0.078   3.119   1.122
 1068SOL    HW2 3747   0.000   3.079   0.984
 1069SOL     OW 3748   0.688   3.524   1.716
 1069SOL    HW1 3749   0.632   3.605   1.725
 1069SOL    HW2 3750   0.740   3.528   1.630
 1070SOL     OW 3751   0.903   1.948   0.133
 1070SOL    HW1 3752   0.954   1.949   0.047
 1070SOL    HW2 3753   0.959   1.906   0.204
 1071SOL     OW 3754   1.726   1.997   0.523
 1071SOL    HW1 3755   1.799   1.980   0.456
 1071SOL    HW2 3756   1.695   1.910   0.561
 1072SOL     OW 3757   1.388   3.435   0.477
 1072SOL    HW1 3758   1.455   3.447   0.403
 1072SOL    HW2 3759   1.348   3.524   0.500
 1073SOL     OW 3760   0.130   3.656   1.851
 1073SOL    HW1 3761   0.089   3.582   1.904
 1073SOL    HW2 3762   0.194   3.707   1.909
 1074SOL     OW 3763   1.280   2.789   0.672
 1074SOL    HW1 3764   1.340   2.708   0.674
 1074SOL    HW2 3765   1.320   2.858   0.612
 1075SOL     OW 3766   0.830   3.135   1.422
 1075SOL    HW1 3767   0.825   3.168   1.517
 1075SOL    HW2 3768   0.744   3.154   1.376
 1076SOL     OW 3769   0.672   3.478   0.154
 1076SOL    HW1 3770   0.681   3.488   0.055
 1076SOL    HW2 3771   0.632   3.389   0.175
 1077SOL     OW 3772   1.650   3.582   1.394
 1077SOL    HW1 3773   1.703   3.592   1.310
 1077SOL    HW2 3774   1.623   3.672   1.428
 1078SOL     OW 3775   1.841   2.037   0.963
 1078SOL    HW1 3776   1.880   1.952   0.927
 1078SOL    HW2 3777   1.743   2.039   0.944
 1079SOL     OW 3778   0.263   2.188   0.720
 1079SOL    HW1 3779   0.184   2.239   0.686
 1079SOL    HW2 3780   0.254   2.173   0.818
 1080SOL     OW 3781   1.194   3.474   0.031
 1080SOL    HW1 3782   1.200   3.381   0.068
 1080SOL    HW2 3783   1.135   3.474  -0.049
 1081SOL     OW 3784   0.822   2.864   1.372
 1081SOL    HW1 3785   0.862   2.863   1.280
 1081SOL    HW2 3786   0.832   2.956   1.412
 1082SOL     OW 3787   0.916   2.772   0.291
 1082SOL    HW1 3788   0.979   2.810   0.223
 1082SOL    HW2 3789   0.956   2.689   0.330
 1083SOL     OW 3790   1.504   3.469   0.044
 1083SOL    HW1 3791   1.412   3.506   0.051
 1083SOL    HW2 3792   1.542   3.489  -0.046
 1084SOL     OW 3793   0.372   3.150   1.490
 1084SOL    HW1 3794   0.359   3.243   1.456
 1084SOL    HW2 3795   0.288   3.098   1.477
 1085SOL     OW 3796   1.614   3.154   1.289
 1085SOL    HW1 3797   1.674   3.157   1.369
 1085SOL    HW2 3798   1.539   3.218   1.302
 1086SOL     OW 3799   1.039   2.960   0.696
 1086SOL    HW1 3800   0.969   2.913   0.750
 1086SOL    HW2 3801   1.098   2.892   0.653
 1087SOL     OW 3802   1.014   2.098   0.971
 1087SOL    HW1 3803   1.006   2.062   0.878
 1087SOL    HW2 3804   1.012   2.022   1.036
 1088SOL     OW 3805   0.590   3.349   0.491
 1088SOL    HW1 3806   0.632   3.291   0.421
 1088SOL    HW2 3807   0.546   3.428   0.447
 1089SOL     OW 3808   1.709   2.247   1.381
 1089SOL    HW1 3809   1.782   2.316   1.385
 1089SOL    HW2 3810   1.737   2.172   1.322
 1090SOL     OW 3811   0.255   3.210   0.290
 1090SOL    HW1 3812   0.159   3.211   0.263
 1090SOL    HW2 3813   0.267   3.263   0.374
 1091SOL     OW 3814   0.105   2.875   1.726
 1091SOL    HW1 3815   0.028   2.842   1.780
 1091SOL    HW2 3816   0.190   2.845   1.768
 1092SOL     OW 3817   0.672   2.065   1.489
 1092SOL    HW1 3818   0.762   2.049   1.449
 1092SOL    HW2 3819   0.680   2.070   1.588
 1093SOL     OW 3820   0.075   2.207   0.033
 1093SOL    HW1 3821  -0.017   2.179   0.004
 1093SOL    HW2 3822   0.106   2.284  -0.023
 1094SOL     OW 3823   1.440   2.718   1.398
 1094SOL    HW1 3824   1.383   2.770   1.335
 1094SOL    HW2 3825   1.536   2.730   1.374
 1095SOL     OW 3826   0.072   2.028   0.318
 1095SOL    HW1 3827   0.055   2.111   0.264
 1095SOL    HW2 3828   0.162   1.991   0.296
 1096SOL     OW 3829   1.183   3.197   0.119
 1096SOL    HW1 3830   1.084   3.186   0.121
 1096SOL    HW2 3831   1.217   3.212   0.212
 1097SOL     OW 3832   0.613   2.704   1.431
 1097SOL    HW1 3833   0.669   2.785   1.414
 1097SOL    HW2 3834   0.672   2.624   1.434
 1098SOL     OW 3835   1.493   3.629   0.959
 1098SOL    HW1 3836   1.526   3.693   0.890
 1098SOL    HW2 3837   1.559   3.623   1.034
 1099SOL     OW 3838   0.716   2.427   1.708
 1099SOL    HW1 3839   0.735   2.492   1.782
 1099SOL    HW2 3840   0.776   2.347   1.717
 1100SOL     OW 3841   1.450   3.082   1.633
 1100SOL    HW1 3842   1.441   3.072   1.732
 1100SOL    HW2 3843   1.546   3.075   1.607
 1101SOL     OW 3844   0.390   3.603   1.560
 1101SOL    HW1 3845   0.299   3.644   1.558
 1101SOL    HW2 3846   0.383   3.509   1.592
 1102SOL     OW 3847   1.674   2.745   1.254
 1102SOL    HW1 3848   1.647   2.656   1.217
 1102SOL    HW2 3849   1.675   2.813   1.181
 1103SOL     OW 3850   1.225   2.187   0.449
 1103SOL    HW1 3851   1.290   2.113   0.438
 1103SOL    HW2 3852   1.245   2.237   0.533
 1104SOL     OW 3853   0.594   2.607   0.652
 1104SOL    HW1 3854   0.644   2.692   0.633
 1104SOL    HW2 3855   0.506   2.609   0.604
 1105SOL     OW 3856   1.777   2.204   1.642
 1105SOL    HW1 3857   1.760   2.235   1.548
 1105SOL    HW2 3858   1.693   2.167   1.680
 1106SOL     OW 3859   1.730   2.796   1.517
 1106SOL    HW1 3860   1.768   2.887   1.532
 1106SOL    HW2 3861   1.722   2.779   1.418
 1107SOL     OW 3862   0.859   3.236   0.016
 1107SOL    HW1 3863   0.813   3.251   0.104
 1107SOL    HW2 3864   0.903   3.321  -0.014
 1108SOL     OW 3865   0.661   3.652   0.953
 1108SOL    HW1 3866   0.615   3.740   0.940
 1108SOL    HW2 3867   0.760   3.664   0.946
 1109SOL     OW 3868   0.859   2.818   0.861
 1109SOL    HW1 3869   0.913   2.749   0.909
 1109SOL    HW2 3870   0.827   2.887   0.927
 1110SOL     OW 3871   1.083   2.846   0.087
 1110SOL    HW1 3872   1.060   2.899   0.005
 1110SOL    HW2 3873   1.164   2.790   0.068
 1111SOL     OW 3874   1.861   3.431   0.851
 1111SOL    HW1 3875   1.790   3.419   0.781
 1111SOL    HW2 3876   1.862   3.352   0.911
 1112SOL     OW 3877   0.221   3.176   1.844
 1112SOL    HW1 3878   0.156   3.103   1.823
 1112SOL    HW2 3879   0.225   3.190   1.942
 1113SOL     OW 3880   0.079   3.102   0.653
 1113SOL    HW1 3881   0.078   3.055   0.741
 1113SOL    HW2 3882   0.161   3.074   0.602
 1114SOL     OW 3883   0.672   3.253   1.624
 1114SOL    HW1 3884   0.594   3.203   1.662
 1114SOL    HW2 3885   0.669   3.348   1.655
 1115SOL     OW 3886   1.824   2.054   1.227
 1115SOL    HW1 3887   1.820   1.964   1.271
 1115SOL    HW2 3888   1.827   2.043   1.128
 1116SOL     OW 3889   0.428   2.286   0.520
 1116SOL    HW1 3890   0.458   2.214   0.458
 1116SOL    HW2 3891   0.389   2.246   0.603
 1117SOL     OW 3892   1.705   3.349   1.104
 1117SOL    HW1 3893   1.612   3.324   1.077
 1117SOL    HW2 3894   1.731   3.299   1.186
 1118SOL     OW 3895   0.317   2.409   1.280
 1118SOL    HW1 3896   0.355   2.350   1.352
 1118SOL    HW2 3897   0.357   2.383   1.192
 1119SOL     OW 3898   0.812   3.448   0.687
 1119SOL    HW1 3899   0.844   3.458   0.593
 1119SOL    HW2 3900   0.733   3.386   0.689
 1120SOL     OW 3901   1.424   2.076   1.112
 1120SOL    HW1 3902   1.476   2.011   1.167
 1120SOL    HW2 3903   1.375   2.139   1.173
 1121SOL     OW 3904   1.001   1.896   1.154
 1121SOL    HW1 3905   0.938   1.824   1.123
 1121SOL    HW2 3906   1.094   1.860   1.154
 1122SOL     OW 3907   0.770   3.192   0.301
 1122SOL    HW1 3908   0.724   3.105   0.318
 1122SOL    HW2 3909   0.861   3.189   0.342
 1123SOL     OW 3910   0.618   3.429   1.284
 1123SOL    HW1 3911   0.613   3.511   1.341
 1123SOL    HW2 3912   0.707   3.426   1.239
 1124SOL     OW 3913   1.352   1.914   0.168
 1124SOL    HW1 3914   1.387   1.873   0.084
 1124SOL    HW2 3915   1.262   1.876   0.188
 1125SOL     OW 3916   1.300   2.315   0.691
 1125SOL    HW1 3917   1.241   2.395   0.695
 1125SOL    HW2 3918   1.315   2.280   0.784
 1126SOL     OW 3919   1.593   2.083   0.882
 1126SOL    HW1 3920   1.509   2.082   0.936
 1126SOL    HW2 3921   1.595   2.166   0.826
 1127SOL     OW 3922   0.039   2.939   0.300
 1127SOL    HW1 3923   0.138   2.928   0.291
 1127SOL    HW2 3924  -0.001   2.853   0.332
 1128SOL     OW 3925   0.875   3.508   0.337
 1128SOL    HW1 3926   0.798   3.473   0.283
 1128SOL    HW2 3927   0.843   3.579   0.399
 1129SOL     OW 3928   0.230   2.490   1.975
 1129SOL    HW1 3929   0.137   2.488   2.012
 1129SOL    HW2 3930   0.231   2.451   1.883
 1130SOL     OW 3931   0.225   2.137   2.858
 1130SOL    HW1 3932   0.260   2.120   2.950
 1130SOL    HW2 3933   0.137   2.092   2.846
 1131SOL     OW 3934   0.019   2.230   2.509
 1131SOL    HW1 3935  -0.063   2.273   2.548
 1131SOL    HW2 3936  -0.009   2.157   2.446
 1132SOL     OW 3937   0.569   3.137   3.027
 1132SOL    HW1 3938   0.476   3.130   2.990
 1132SOL    HW2 3939   0.580   3.226   3.071
 1133SOL     OW 3940   1.555   3.373   2.565
 1133SOL    HW1 3941   1.498   3.357   2.646
 1133SOL    HW2 3942   1.496   3.383   2.485
 1134SOL     OW 3943   1.135   2.565   2.579
 1134SOL    HW1 3944   1.192   2.643   2.554
 1134SOL    HW2 3945   1.075   2.591   2.655
 1135SOL     OW 3946   1.755   2.469   2.093
 1135SOL    HW1 3947   1.743   2.456   1.994
 1135SOL    HW2 3948   1.725   2.388   2.142
 1136SOL     OW 3949   0.768   3.006   2.885
 1136SOL    HW1 3950   0.690   3.023   2.945
 1136SOL    HW2 3951   0.802   3.093   2.849
 1137SOL     OW 3952   0.850   2.660   3.685
 1137SOL    HW1 3953   0.846   2.736   3.750
 1137SOL    HW2 3954   0.872   2.696   3.594
 1138SOL     OW 3955   0.685   2.874   2.527
 1138SOL    HW1 3956   0.754   2.858   2.597
 1138SOL    HW2 3957   0.612   2.931   2.565
 1139SOL     OW 3958   0.686   3.023   3.665
 1139SOL    HW1 3959   0.746   3.102   3.679
 1139SOL    HW2 3960   0.600   3.054   3.624
 1140SOL     OW 3961   0.335   3.297   2.923
 1140SOL    HW1 3962   0.257   3.266   2.870
 1140SOL    HW2 3963   0.393   3.355   2.866
 1141SOL     OW 3964   1.460   3.367   3.201
 1141SOL    HW1 3965   1.484   3.461   3.227
 1141SOL    HW2 3966   1.444   3.313   3.283
 1142SOL     OW 3967   0.438   2.254   3.361
 1142SOL    HW1 3968   0.520   2.198   3.370
 1142SOL    HW2 3969   0.357   2.196   3.365
 1143SOL     OW 3970   1.603   2.309   2.599
 1143SOL    HW1 3971   1.529   2.355   2.549
 1143SOL    HW2 3972   1.654   2.377   2.652
 1144SOL     OW 3973   0.231   3.575   2.345
 1144SOL    HW1 3974   0.265   3.652   2.399
 1144SOL    HW2 3975   0.275   3.575   2.255
 1145SOL     OW 3976   1.127   3.203   3.552
 1145SOL    HW1 3977   1.174   3.203   3.640
 1145SOL    HW2 3978   1.079   3.116   3.541
 1146SOL     OW 3979   0.230   3.296   2.400
 1146SOL    HW1 3980   0.204   3.392   2.400
 1146SOL    HW2 3981   0.159   3.242   2.445
 1147SOL     OW 3982   0.240   2.953   2.748
 1147SOL    HW1 3983   0.254   2.869   2.800
 1147SOL    HW2 3984   0.185   3.017   2.803
 1148SOL     OW 3985   0.620   3.648   3.301
 1148SOL    HW1 3986   0.528   3.631   3.336
 1148SOL    HW2 3987   0.648   3.740   3.327
 1149SOL     OW 3988   0.606   2.826   1.985
 1149SOL    HW1 3989   0.613   2.910   1.931
 1149SOL    HW2 3990   0.652   2.839   2.073
 1150SOL     OW 3991   1.594   1.976   3.342
 1150SOL    HW1 3992   1.576   2.043   3.270
 1150SOL    HW2 3993   1.591   2.022   3.431
 1151SOL     OW 3994   0.122   2.505   2.425
 1151SOL    HW1 3995   0.077   2.417   2.442
 1151SOL    HW2 3996   0.121   2.559   2.509
 1152SOL     OW 3997   1.842   3.629   2.221
 1152SOL    HW1 3998   1.896   3.600   2.301
 1152SOL    HW2 3999   1.872   3.719   2.192
 1153SOL     OW 4000   0.027   3.458   1.979
 1153SOL    HW1 4001   0.008   3.362   2.000
 1153SOL    HW2 4002  -0.006   3.516   2.054
 1154SOL     OW 4003   1.689   2.784   2.474
 1154SOL    HW1 4004   1.784   2.755   2.482
 1154SOL    HW2 4005   1.681   2.849   2.399
 1155SOL     OW 4006   1.641   2.970   2.294
 1155SOL    HW1 4007   1.727   2.972   2.242
 1155SOL    HW2 4008   1.655   3.017   2.382
 1156SOL     OW 4009   0.113   2.599   3.459
 1156SOL    HW1 4010   0.201   2.586   3.504
 1156SOL    HW2 4011   0.100   2.696   3.437
 1157SOL     OW 4012   0.613   3.227   2.588
 1157SOL    HW1 4013   0.564   3.140   2.597
 1157SOL    HW2 4014   0.590   3.270   2.501
 1158SOL     OW 4015   1.293   3.090   3.285
 1158SOL    HW1 4016   1.330   3.017   3.227
 1158SOL    HW2 4017   1.345   3.095   3.370
 1159SOL     OW 4018   0.809   1.866   2.364
 1159SOL    HW1 4019   0.849   1.957   2.355
 1159SOL    HW2 4020   0.709   1.874   2.370
 1160SOL     OW 4021   0.197   2.838   3.126
 1160SOL    HW1 4022   0.286   2.793   3.112
 1160SOL    HW2 4023   0.124   2.773   3.107
 1161SOL     OW 4024   1.525   2.861   2.052
 1161SOL    HW1 4025   1.462   2.785   2.065
 1161SOL    HW2 4026   1.573   2.879   2.138
 1162SOL     OW 4027   1.187   3.654   3.478
 1162SOL    HW1 4028   1.211   3.714   3.402
 1162SOL    HW2 4029   1.194   3.559   3.448
 1163SOL     OW 4030   0.317   2.113   3.663
 1163SOL    HW1 4031   0.388   2.184   3.669
 1163SOL    HW2 4032   0.229   2.152   3.691
 1164SOL     OW 4033   1.466   3.279   2.815
 1164SOL    HW1 4034   1.407   3.285   2.895
 1164SOL    HW2 4035   1.451   3.191   2.769
 1165SOL     OW 4036   1.667   3.576   2.434
 1165SOL    HW1 4037   1.626   3.553   2.346
 1165SOL    HW2 4038   1.649   3.502   2.499
 1166SOL     OW 4039   0.598   2.591   2.132
 1166SOL    HW1 4040   0.622   2.660   2.064
 1166SOL    HW2 4041   0.520   2.624   2.186
 1167SOL     OW 4042   1.281   2.207   2.806
 1167SOL    HW1 4043   1.195   2.157   2.793
 1167SOL    HW2 4044   1.343   2.153   2.862
 1168SOL     OW 4045   1.576   3.524   2.169
 1168SOL    HW1 4046   1.665   3.570   2.172
 1168SOL    HW2 4047   1.555   3.500   2.074
 1169SOL     OW 4048   0.807   2.467   3.327
 1169SOL    HW1 4049   0.760   2.464   3.416
 1169SOL    HW2 4050   0.756   2.412   3.261
 1170SOL     OW 4051   1.394   2.331   3.536
 1170SOL    HW1 4052   1.374   2.374   3.624
 1170SOL    HW2 4053   1.472   2.269   3.545
 1171SOL     OW 4054   0.973   2.752   3.434
 1171SOL    HW1 4055   1.019   2.668   3.405
 1171SOL    HW2 4056   0.917   2.786   3.359
 1172SOL     OW 4057   0.991   2.272   3.104
 1172SOL    HW1 4058   0.914   2.306   3.158
 1172SOL    HW2 4059   0.957   2.221   3.025
 1173SOL     OW 4060   1.041   2.563   2.291
 1173SOL    HW1 4061   1.067   2.559   2.387
 1173SOL    HW2 4062   0.956   2.512   2.277
 1174SOL     OW 4063   0.076   2.673   2.651
 1174SOL    HW1 4064   0.175   2.661   2.660
 1174SOL    HW2 4065   0.052   2.768   2.672
 1175SOL     OW 4066   0.130   3.683   3.433
 1175SOL    HW1 4067   0.120   3.668   3.532
 1175SOL    HW2 4068   0.044   3.719   3.397
 1176SOL     OW 4069   0.865   2.210   2.057
 1176SOL    HW1 4070   0.924   2.273   2.008
 1176SOL    HW2 4071   0.884   2.116   2.028
 1177SOL     OW 4072   1.719   2.447   3.693
 1177SOL    HW1 4073   1.693   2.536   3.657
 1177SOL    HW2 4074   1.717   2.379   3.620
 1178SOL     OW 4075   1.362   3.006   2.407
 1178SOL    HW1 4076   1.445   2.977   2.359
 1178SOL    HW2 4077   1.313   3.073   2.351
 1179SOL     OW 4078   0.550   2.058   2.747
 1179SOL    HW1 4079   0.545   2.053   2.847
 1179SOL    HW2 4080   0.552   2.154   2.718
 1180SOL     OW 4081   1.008   3.318   2.339
 1180SOL    HW1 4082   0.962   3.390   2.287
 1180SOL    HW2 4083   1.004   3.338   2.437
 1181SOL     OW 4084   0.351   3.663   2.715
 1181SOL    HW1 4085   0.401   3.577   2.721
 1181SOL    HW2 4086   0.416   3.740   2.712
 1182SOL     OW 4087   1.795   2.928   2.735
 1182SOL    HW1 4088   1.733   2.913   2.659
 1182SOL    HW2 4089   1.743   2.939   2.820
 1183SOL     OW 4090   1.227   3.412   3.368
 1183SOL    HW1 4091   1.233   3.335   3.432
 1183SOL    HW2 4092   1.175   3.386   3.288
 1184SOL     OW 4093   0.321   2.805   2.104
 1184SOL    HW1 4094   0.403   2.844   2.062
 1184SOL    HW2 4095   0.294   2.723   2.055
 1185SOL     OW 4096   1.458   2.597   2.590
 1185SOL    HW1 4097   1.453   2.532   2.665
 1185SOL    HW2 4098   1.538   2.656   2.603
 1186SOL     OW 4099   0.461   3.128   3.589
 1186SOL    HW1 4100   0.411   3.129   3.503
 1186SOL    HW2 4101   0.398   3.110   3.665
 1187SOL     OW 4102   1.111   3.638   2.099
 1187SOL    HW1 4103   1.051   3.576   2.149
 1187SOL    HW2 4104   1.142   3.594   2.014
 1188SOL     OW 4105   0.202   2.147   3.360
 1188SOL    HW1 4106   0.122   2.207   3.347
 1188SOL    HW2 4107   0.192   2.098   3.446
 1189SOL     OW 4108   1.632   3.239   1.943
 1189SOL    HW1 4109   1.600   3.333   1.933
 1189SOL    HW2 4110   1.556   3.176   1.931
 1190SOL     OW 4111   0.464   3.605   2.185
 1190SOL    HW1 4112   0.497   3.644   2.271
 1190SOL    HW2 4113   0.540   3.598   2.120
 1191SOL     OW 4114   1.400   1.969   2.288
 1191SOL    HW1 4115   1.376   1.932   2.198
 1191SOL    HW2 4116   1.499   1.985   2.292
 1192SOL     OW 4117   0.249   3.647   3.103
 1192SOL    HW1 4118   0.306   3.582   3.153
 1192SOL    HW2 4119   0.233   3.614   3.010
 1193SOL     OW 4120   0.940   3.560   2.766
 1193SOL    HW1 4121   1.020   3.503   2.787
 1193SOL    HW2 4122   0.891   3.520   2.689
 1194SOL     OW 4123   0.382   2.562   2.342
 1194SOL    HW1 4124   0.427   2.472   2.339
 1194SOL    HW2 4125   0.288   2.551   2.375
 1195SOL     OW 4126   1.547   2.084   3.591
 1195SOL    HW1 4127   1.542   2.121   3.683
 1195SOL    HW2 4128   1.475   2.015   3.579
 1196SOL     OW 4129   0.614   1.984   1.979
 1196SOL    HW1 4130   0.712   1.962   1.986
 1196SOL    HW2 4131   0.583   1.967   1.886
 1197SOL     OW 4132   0.781   2.126   3.611
 1197SOL    HW1 4133   0.848   2.065   3.654
 1197SOL    HW2 4134   0.708   2.145   3.676
 1198SOL     OW 4135   0.888   3.376   3.057
 1198SOL    HW1 4136   0.865   3.351   2.963
 1198SOL    HW2 4137   0.949   3.307   3.096
 1199SOL     OW 4138   1.351   2.452   3.295
 1199SOL    HW1 4139   1.379   2.409   3.380
 1199SOL    HW2 4140   1.376   2.548   3.296
 1200SOL     OW 4141   0.803   3.264   2.786
 1200SOL    HW1 4142   0.893   3.278   2.744
 1200SOL    HW2 4143   0.732   3.266   2.715
 1201SOL     OW 4144   0.922   2.365   2.761
 1201SOL    HW1 4145   0.897   2.356   2.665
 1201SOL    HW2 4146   0.970   2.283   2.792
 1202SOL     OW 4147   0.539   1.926   2.374
 1202SOL    HW1 4148   0.458   1.927   2.432
 1202SOL    HW2 4149   0.542   2.009   2.319
 1203SOL     OW 4150   1.434   3.050   1.903
 1203SOL    HW1 4151   1.466   2.974   1.960
 1203SOL    HW2 4152   1.342   3.077   1.933
 1204SOL     OW 4153   0.297   1.897   2.033
 1204SOL    HW1 4154   0.346   1.981   2.012
 1204SOL    HW2 4155   0.359   1.832   2.078
 1205SOL     OW 4156   0.935   2.098   2.342
 1205SOL    HW1 4157   0.887   2.139   2.264
 1205SOL    HW2 4158   1.034   2.096   2.323
 1206SOL     OW 4159   1.076   2.545   3.326
 1206SOL    HW1 4160   0.996   2.484   3.329
 1206SOL    HW2 4161   1.157   2.492   3.302
 1207SOL     OW 4162   1.227   3.432   2.655
 1207SOL    HW1 4163   1.248   3.506   2.590
 1207SOL    HW2 4164   1.295   3.432   2.728
 1208SOL     OW 4165   0.459   3.014   2.603
 1208SOL    HW1 4166   0.388   2.987   2.668
 1208SOL    HW2 4167   0.433   2.986   2.510
 1209SOL     OW 4168   1.271   3.659   2.453
 1209SOL    HW1 4169   1.315   3.723   2.389
 1209SOL    HW2 4170   1.221   3.711   2.523
 1210SOL     OW 4171   1.032   2.411   1.878
 1210SOL    HW1 4172   0.991   2.493   1.839
 1210SOL    HW2 4173   1.096   2.437   1.951
 1211SOL     OW 4174   0.078   2.418   3.248
 1211SOL    HW1 4175   0.170   2.417   3.207
 1211SOL    HW2 4176   0.072   2.492   3.315
 1212SOL     OW 4177   0.561   2.084   3.009
 1212SOL    HW1 4178   0.599   2.000   3.046
 1212SOL    HW2 4179   0.473   2.103   3.053
 1213SOL     OW 4180   0.866   2.316   2.504
 1213SOL    HW1 4181   0.834   2.388   2.442
 1213SOL    HW2 4182   0.890   2.235   2.451
 1214SOL     OW 4183   1.017   1.901   2.615
 1214SOL    HW1 4184   0.945   1.906   2.546
 1214SOL    HW2 4185   0.993   1.832   2.684
 1215SOL     OW 4186   1.429   3.035   2.729
 1215SOL    HW1 4187   1.374   2.951   2.722
 1215SOL    HW2 4188   1.455   3.064   2.637
 1216SOL     OW 4189   1.466   2.452   2.854
 1216SOL    HW1 4190   1.436   2.357   2.861
 1216SOL    HW2 4191   1.539   2.468   2.920
 1217SOL     OW 4192   1.857   2.695   2.239
 1217SOL    HW1 4193   1.899   2.631   2.303
 1217SOL    HW2 4194   1.819   2.644   2.161
 1218SOL     OW 4195   0.488   3.247   2.036
 1218SOL    HW1 4196   0.401   3.232   2.083
 1218SOL    HW2 4197   0.471   3.273   1.941
 1219SOL     OW 4198   1.664   3.142   2.519
 1219SOL    HW1 4199   1.763   3.150   2.533
 1219SOL    HW2 4200   1.619   3.226   2.550
 1220SOL     OW 4201   1.390   2.437   1.940
 1220SOL    HW1 4202   1.336   2.416   2.021
 1220SOL    HW2 4203   1.481   2.396   1.949
 1221SOL     OW 4204   0.527   2.118   2.190
 1221SOL    HW1 4205   0.554   2.059   2.115
 1221SOL    HW2 4206   0.527   2.213   2.159
 1222SOL     OW 4207   1.754   3.085   3.450
 1222SOL    HW1 4208   1.845   3.046   3.437
 1222SOL    HW2 4209   1.762   3.181   3.474
 1223SOL     OW 4210   1.064   3.209   3.202
 1223SOL    HW1 4211   0.984   3.186   3.257
 1223SOL    HW2 4212   1.147   3.183   3.251
 1224SOL     OW 4213   1.592   3.491   3.487
 1224SOL    HW1 4214   1.619   3.525   3.397
 1224SOL    HW2 4215   1.671   3.453   3.533
 1225SOL     OW 4216   1.111   3.057   2.962
 1225SOL    HW1 4217   1.071   3.101   3.043
 1225SOL    HW2 4218   1.070   3.094   2.879
 1226SOL     OW 4219   1.638   2.961   2.941
 1226SOL    HW1 4220   1.643   3.042   3.000
 1226SOL    HW2 4221   1.552   2.963   2.890
 1227SOL     OW 4222   0.915   1.951   3.264
 1227SOL    HW1 4223   0.940   1.931   3.169
 1227SOL    HW2 4224   0.987   2.007   3.306
 1228SOL     OW 4225   0.980   2.978   3.581
 1228SOL    HW1 4226   0.881   2.984   3.591
 1228SOL    HW2 4227   1.003   2.898   3.525
 1229SOL     OW 4228   0.705   2.912   2.230
 1229SOL    HW1 4229   0.691   2.919   2.329
 1229SOL    HW2 4230   0.789   2.861   2.212
 1230SOL     OW 4231   0.410   2.675   3.113
 1230SOL    HW1 4232   0.496   2.687   3.163
 1230SOL    HW2 4233   0.368   2.588   3.140
 1231SOL     OW 4234   1.274   2.248   3.124
 1231SOL    HW1 4235   1.295   2.322   3.188
 1231SOL    HW2 4236   1.185   2.265   3.081
 1232SOL     OW 4237   0.064   3.426   3.193
 1232SOL    HW1 4238   0.018   3.508   3.159
 1232SOL    HW2 4239   0.162   3.445   3.202
 1233SOL     OW 4240   0.367   2.962   2.363
 1233SOL    HW1 4241   0.360   3.045   2.307
 1233SOL    HW2 4242   0.371   2.882   2.303
 1234SOL     OW 4243   0.566   2.399   2.727
 1234SOL    HW1 4244   0.578   2.465   2.653
 1234SOL    HW2 4245   0.612   2.433   2.810
 1235SOL     OW 4246   1.252   3.210   2.250
 1235SOL    HW1 4247   1.302   3.287   2.290
 1235SOL    HW2 4248   1.157   3.212   2.282
 1236SOL     OW 4249   1.272   3.307   3.004
 1236SOL    HW1 4250   1.319   3.320   3.091
 1236SOL    HW2 4251   1.206   3.233   3.013
 1237SOL     OW 4252   1.582   2.501   2.334
 1237SOL    HW1 4253   1.551   2.562   2.407
 1237SOL    HW2 4254   1.632   2.553   2.265
 1238SOL     OW 4255   0.354   3.372   3.191
 1238SOL    HW1 4256   0.333   3.328   3.104
 1238SOL    HW2 4257   0.451   3.398   3.194
 1239SOL     OW 4258   0.402   2.613   3.460
 1239SOL    HW1 4259   0.470   2.668   3.413
 1239SOL    HW2 4260   0.442   2.525   3.487
 1240SOL     OW 4261   1.587   2.641   3.532
 1240SOL    HW1 4262   1.495   2.679   3.527
 1240SOL    HW2 4263   1.647   2.688   3.467
 1241SOL     OW 4264   1.013   1.967   3.632
 1241SOL    HW1 4265   1.019   2.052   3.580
 1241SOL    HW2 4266   1.045   1.891   3.575
 1242SOL     OW 4267   0.504   1.912   3.602
 1242SOL    HW1 4268   0.462   1.855   3.532
 1242SOL    HW2 4269   0.438   1.981   3.634
 1243SOL     OW 4270   0.573   2.732   2.891
 1243SOL    HW1 4271   0.617   2.821   2.882
 1243SOL    HW2 4272   0.510   2.732   2.968
 1244SOL     OW 4273   1.360   2.724   2.907
 1244SOL    HW1 4274   1.285   2.724   2.841
 1244SOL    HW2 4275   1.397   2.632   2.916
 1245SOL     OW 4276   1.209   2.387   2.137
 1245SOL    HW1 4277   1.222   2.303   2.191
 1245SOL    HW2 4278   1.180   2.461   2.197
 1246SOL     OW 4279   0.307   2.075   3.093
 1246SOL    HW1 4280   0.284   2.112   3.183
 1246SOL    HW2 4281   0.277   1.980   3.087
 1247SOL     OW 4282   0.037   3.172   3.144
 1247SOL    HW1 4283   0.090   3.123   3.212
 1247SOL    HW2 4284   0.059   3.270   3.149
 1248SOL     OW 4285   0.732   2.496   2.926
 1248SOL    HW1 4286   0.791   2.470   2.850
 1248SOL    HW2 4287   0.704   2.592   2.915
 1249SOL     OW 4288   1.728   2.797   3.716
 1249SOL    HW1 4289   1.682   2.790   3.627
 1249SOL    HW2 4290   1.666   2.841   3.782
 1250SOL     OW 4291   0.307   1.925   2.480
 1250SOL    HW1 4292   0.296   2.019   2.513
 1250SOL    HW2 4293   0.302   1.862   2.557
 1251SOL     OW 4294   1.622   2.229   2.236
 1251SOL    HW1 4295   1.624   2.153   2.300
 1251SOL    HW2 4296   1.574   2.306   2.276
 1252SOL     OW 4297   1.023   2.628   2.828
 1252SOL    HW1 4298   1.038   2.649   2.924
 1252SOL    HW2 4299   0.993   2.533   2.819
 1253SOL     OW 4300   0.980   3.435   3.562
 1253SOL    HW1 4301   0.960   3.479   3.474
 1253SOL    HW2 4302   1.019   3.344   3.546
 1254SOL     OW 4303   1.859   3.380   3.467
 1254SOL    HW1 4304   1.873   3.407   3.372
 1254SOL    HW2 4305   1.942   3.402   3.520
 1255SOL     OW 4306   0.350   2.760   3.666
 1255SOL    HW1 4307   0.426   2.804   3.714
 1255SOL    HW2 4308   0.385   2.713   3.584
 1256SOL     OW 4309   1.540   2.136   1.987
 1256SOL    HW1 4310   1.479   2.061   2.010
 1256SOL    HW2 4311   1.562   2.188   2.070
 1257SOL     OW 4312   1.303   2.700   1.904
 1257SOL    HW1 4313   1.337   2.607   1.919
 1257SOL    HW2 4314   1.321   2.727   1.809
 1258SOL     OW 4315   1.068   3.195   2.711
 1258SOL    HW1 4316   1.075   3.111   2.656
 1258SOL    HW2 4317   1.130   3.264   2.675
 1259SOL     OW 4318   0.319   2.672   2.811
 1259SOL    HW1 4319   0.412   2.708   2.816
 1259SOL    HW2 4320   0.313   2.587   2.863
 1260SOL     OW 4321   0.339   2.371   2.868
 1260SOL    HW1 4322   0.287   2.288   2.851
 1260SOL    HW2 4323   0.416   2.376   2.804
 1261SOL     OW 4324   1.138   2.242   3.540
 1261SOL    HW1 4325   1.093   2.305   3.604
 1261SOL    HW2 4326   1.231   2.273   3.523
 1262SOL     OW 4327   1.160   2.069   3.339
 1262SOL    HW1 4328   1.160   2.133   3.416
 1262SOL    HW2 4329   1.188   2.117   3.256
 1263SOL     OW 4330   0.008   3.188   2.062
 1263SOL    HW1 4331  -0.085   3.209   2.031
 1263SOL    HW2 4332   0.018   3.089   2.075
 1264SOL     OW 4333   0.088   3.663   2.789
 1264SOL    HW1 4334   0.046   3.577   2.762
 1264SOL    HW2 4335   0.182   3.666   2.755
 1265SOL     OW 4336   0.504   3.430   2.772
 1265SOL    HW1 4337   0.570   3.504   2.781
 1265SOL    HW2 4338   0.548   3.351   2.730
 1266SOL     OW 4339   1.002   2.658   3.100
 1266SOL    HW1 4340   1.043   2.626   3.186
 1266SOL    HW2 4341   0.906   2.631   3.097
 1267SOL     OW 4342   0.040   2.406   2.976
 1267SOL    HW1 4343   0.125   2.373   2.935
 1267SOL    HW2 4344   0.053   2.421   3.074
 1268SOL     OW 4345   0.189   2.382   3.584
 1268SOL    HW1 4346   0.248   2.342   3.514
 1268SOL    HW2 4347   0.131   2.453   3.543
 1269SOL     OW 4348   1.369   2.812   3.522
 1269SOL    HW1 4349   1.408   2.901   3.542
 1269SOL    HW2 4350   1.379   2.792   3.425
 1270SOL     OW 4351   0.815   2.434   2.187
 1270SOL    HW1 4352   0.822   2.345   2.141
 1270SOL    HW2 4353   0.721   2.468   2.179
 1271SOL     OW 4354   1.657   2.466   3.068
 1271SOL    HW1 4355   1.619   2.397   3.130
 1271SOL    HW2 4356   1.739   2.430   3.024
 1272SOL     OW 4357   0.252   3.426   3.606
 1272SOL    HW1 4358   0.222   3.483   3.682
 1272SOL    HW2 4359   0.245   3.329   3.632
 1273SOL     OW 4360   0.671   2.326   3.131
 1273SOL    HW1 4361   0.637   2.237   3.101
 1273SOL    HW2 4362   0.697   2.380   3.051
 1274SOL     OW 4363   0.930   3.540   3.327
 1274SOL    HW1 4364   0.906   3.522   3.232
 1274SOL    HW2 4365   0.960   3.634   3.337
 1275SOL     OW 4366   0.473   2.362   2.053
 1275SOL    HW1 4367   0.534   2.442   2.057
 1275SOL    HW2 4368   0.378   2.393   2.060
 1276SOL     OW 4369   0.159   2.999   3.328
 1276SOL    HW1 4370   0.181   2.938   3.404
 1276SOL    HW2 4371   0.169   2.950   3.242
 1277SOL     OW 4372   1.347   2.921   3.096
 1277SOL    HW1 4373   1.371   2.858   3.022
 1277SOL    HW2 4374   1.257   2.961   3.078
 1278SOL     OW 4375   1.302   2.717   2.171
 1278SOL    HW1 4376   1.216   2.686   2.213
 1278SOL    HW2 4377   1.298   2.703   2.072
 1279SOL     OW 4378   1.759   3.609   3.016
 1279SOL    HW1 4379   1.820   3.639   2.943
 1279SOL    HW2 4380   1.721   3.520   2.994
 1280SOL     OW 4381   1.252   3.593   2.990
 1280SOL    HW1 4382   1.336   3.598   2.936
 1280SOL    HW2 4383   1.229   3.497   3.008
 1281SOL     OW 4384   0.083   3.120   2.884
 1281SOL    HW1 4385   0.078   3.119   2.984
 1281SOL    HW2 4386   0.000   3.079   2.846
 1282SOL     OW 4387   0.688   3.524   3.578
 1282SOL    HW1 4388   0.632   3.605   3.587
 1282SOL    HW2 4389   0.740   3.528   3.492
 1283SOL     OW 4390   1.726   1.997   2.385
 1283SOL    HW1 4391   1.799   1.980   2.318
 1283SOL    HW2 4392   1.695   1.910   2.423
 1284SOL     OW 4393   1.388   3.435   2.339
 1284SOL    HW1 4394   1.455   3.447   2.265
 1284SOL    HW2 4395   1.348   3.524   2.362
 1285SOL     OW 4396   0.130   3.656   3.713
 1285SOL    HW1 4397   0.089   3.582   3.766
 1285SOL    HW2 4398   0.194   3.707   3.771
 1286SOL     OW 4399   1.280   2.789   2.534
 1286SOL    HW1 4400   1.340   2.708   2.536
 1286SOL    HW2 4401   1.320   2.858   2.474
 1287SOL     OW 4402   0.830   3.135   3.284
 1287SOL    HW1 4403   0.825   3.168   3.379
 1287SOL    HW2 4404   0.744   3.154   3.238
 1288SOL     OW 4405   0.672   3.478   2.016
 1288SOL    HW1 4406   0.681   3.488   1.917
 1288SOL    HW2 4407   0.632   3.389   2.037
 1289SOL     OW 4408   1.650   3.582   3.256
 1289SOL    HW1 4409   1.703   3.592   3.172
 1289SOL    HW2 4410   1.623   3.672   3.290
 1290SOL     OW 4411   1.841   2.037   2.825
 1290SOL    HW1 4412   1.880   1.952   2.789
 1290SOL    HW2 4413   1.743   2.039   2.806
 1291SOL     OW 4414   0.263   2.188   2.582
 1291SOL    HW1 4415   0.184   2.239   2.548
 1291SOL    HW2 4416   0.254   2.173   2.680
 1292SOL     OW 4417   1.194   3.474   1.893
 1292SOL    HW1 4418   1.200   3.381   1.930
 1292SOL    HW2 4419   1.135   3.474   1.813
 1293SOL     OW 4420   0.822   2.864   3.234
 1293SOL    HW1 4421   0.862   2.863   3.142
 1293SOL    HW2 4422   0.832   2.956   3.274
 1294SOL     OW 4423   0.916   2.772   2.153
 1294SOL    HW1 4424   0.979   2.810   2.085
 1294SOL    HW2 4425   0.956   2.689   2.192
 1295SOL     OW 4426   1.504   3.469   1.906
 1295SOL    HW1 4427   1.412   3.506   1.913
 1295SOL    HW2 4428   1.542   3.489   1.816
 1296SOL     OW 4429   0.372   3.150   3.352
 1296SOL    HW1 4430   0.359   3.243   3.318
 1296SOL    HW2 4431   0.288   3.098   3.339
 1297SOL     OW 4432   1.614   3.154   3.151
 1297SOL    HW1 4433   1.674   3.157   3.231
 1297SOL    HW2 4434   1.539   3.218   3.164
 1298SOL     OW 4435   1.039   2.960   2.558
 1298SOL    HW1 4436   0.969   2.913   2.612
 1298SOL    HW2 4437   1.098   2.892   2.515
 1299SOL     OW 4438   1.014   2.098   2.833
 1299SOL    HW1 4439   1.006   2.062   2.740
 1299SOL    HW2 4440   1.012   2.022   2.898
 1300SOL     OW 4441   0.590   3.349   2.353
 1300SOL    HW1 4442   0.632   3.291   2.283
 1300SOL    HW2 4443   0.546   3.428   2.309
 1301SOL     OW 4444   1.709   2.247   3.243
 1301SOL    HW1 4445   1.782   2.316   3.247
 1301SOL    HW2 4446   1.737   2.172   3.184
 1302SOL     OW 4447   0.255   3.210   2.152
 1302SOL    HW1 4448   0.159   3.211   2.125
 1302SOL    HW2 4449   0.267   3.263   2.236
 1303SOL     OW 4450   0.105   2.875   3.588
 1303SOL    HW1 4451   0.028   2.842   3.642
 1303SOL    HW2 4452   0.190   2.845   3.630
 1304SOL     OW 4453   0.672   2.065   3.351
 1304SOL    HW1 4454   0.762   2.049   3.311
 1304SOL    HW2 4455   0.680   2.070   3.450
 1305SOL     OW 4456   0.075   2.207   1.895
 1305SOL    HW1 4457  -0.017   2.179   1.866
 1305SOL    HW2 4458   0.106   2.284   1.839
 1306SOL     OW 4459   1.440   2.718   3.260
 1306SOL    HW1 4460   1.383   2.770   3.197
 1306SOL    HW2 4461   1.536   2.730   3.236
 1307SOL     OW 4462   0.072   2.028   2.180
 1307SOL    HW1 4463   0.055   2.111   2.126
 1307SOL    HW2 4464   0.162   1.991   2.158
 1308SOL     OW 4465   1.183   3.197   1.981
 1308SOL    HW1 4466   1.084   3.186   1.983
 1308SOL    HW2 4467   1.217   3.212   2.074
 1309SOL     OW 4468   0.613   2.704   3.293
 1309SOL    HW1 4469   0.669   2.785   3.276
 1309SOL    HW2 4470   0.672   2.624   3.296
 1310SOL     OW 4471   1.493   3.629   2.821
 1310SOL    HW1 4472   1.526   3.693   2.752
 1310SOL    HW2 4473   1.559   3.623   2.896
 1311SOL     OW 4474   0.716   2.427   3.570
 1311SOL    HW1 4475   0.735   2.492   3.644
 1311SOL    HW2 4476   0.776   2.347   3.579
 1312SOL     OW 4477   1.450   3.082   3.495
 1312SOL    HW1 4478   1.441   3.072   3.594
 1312SOL    HW2 4479   1.546   3.075   3.469
 1313SOL     OW 4480   0.390   3.603   3.422
 1313SOL    HW1 4481   0.299   3.644   3.420
 1313SOL    HW2 4482   0.383   3.509   3.454
 1314SOL     OW 4483   1.674   2.745   3.116
 1314SOL    HW1 4484   1.647   2.656   3.079
 1314SOL    HW2 4485   1.675   2.813   3.043
 1315SOL     OW 4486   1.225   2.187   2.311
 1315SOL    HW1 4487   1.290   2.113   2.300
 1315SOL    HW2 4488   1.245   2.237   2.395
 1316SOL     OW 4489   0.594   2.607   2.514
 1316SOL    HW1 4490   0.644   2.692   2.495
 1316SOL    HW2 4491   0.506   2.609   2.466
 1317SOL     OW 4492   1.777   2.204   3.504
 1317SOL    HW1 4493   1.760   2.235   3.410
 1317SOL    HW2 4494   1.693   2.167   3.542
 1318SOL     OW 4495   1.730   2.796   3.379
 1318SOL    HW1 4496   1.768   2.887   3.394
 1318SOL    HW2 4497   1.722   2.779   3.280
 1319SOL     OW 4498   0.859   3.236   1.878
 1319SOL    HW1 4499   0.813   3.251   1.966
 1319SOL    HW2 4500   0.903   3.321   1.848
 1320SOL     OW 4501   0.661   3.652   2.815
 1320SOL    HW1 4502   0.615   3.740   2.802
 1320SOL    HW2 4503   0.760   3.664   2.808
 1321SOL     OW 4504   0.859   2.818   2.723
 1321SOL    HW1 4505   0.913   2.749   2.771
 1321SOL    HW2 4506   0.827   2.887   2.789
 1322SOL     OW 4507   1.083   2.846   1.949
 1322SOL    HW1 4508   1.060   2.899   1.867
 1322SOL    HW2 4509   1.164   2.790   1.930
 1323SOL     OW 4510   1.861   3.431   2.713
 1323SOL    HW1 4511   1.790   3.419   2.643
 1323SOL    HW2 4512   1.862   3.352   2.773
 1324SOL     OW 4513   0.221   3.176   3.706
 1324SOL    HW1 4514   0.156   3.103   3.685
 1324SOL    HW2 4515   0.225   3.190   3.804
 1325SOL     OW 4516   0.079   3.102   2.515
 1325SOL    HW1 4517   0.078   3.055   2.603
 1325SOL    HW2 4518   0.161   3.074   2.464
 1326SOL     OW 4519   0.672   3.253   3.486
 1326SOL    HW1 4520   0.594   3.203   3.524
 1326SOL    HW2 4521   0.669   3.348   3.517
 1327SOL     OW 4522   1.824   2.054   3.089
 1327SOL    HW1 4523   1.820   1.964   3.133
 1327SOL    HW2 4524   1.827   2.043   2.990
 1328SOL     OW 4525   0.428   2.286   2.382
 1328SOL    HW1 4526   0.458   2.214   2.320
 1328SOL    HW2 4527   0.389   2.246   2.465
 1329SOL     OW 4528   1.705   3.349   2.966
 1329SOL    HW1 4529   1.612   3.324   2.939
 1329SOL    HW2 4530   1.731   3.299   3.048
 1330SOL     OW 4531   0.317   2.409   3.142
 1330SOL    HW1 4532   0.355   2.350   3.214
 1330SOL    HW2 4533   0.357   2.383   3.054
 1331SOL     OW 4534   0.812   3.448   2.549
 1331SOL    HW1 4535   0.844   3.458   2.455
 1331SOL    HW2 4536   0.733   3.386   2.551
 1332SOL     OW 4537   1.424   2.076   2.974
 1332SOL    HW1 4538   1.476   2.011   3.029
 1332SOL    HW2 4539   1.375   2.139   3.035
 1333SOL     OW 4540   1.001   1.896   3.016
 1333SOL    HW1 4541   0.938   1.824   2.985
 1333SOL    HW2 4542   1.094   1.860   3.016
 1334SOL     OW 4543   0.770   3.192   2.163
 1334SOL    HW1 4544   0.724   3.105   2.180
 1334SOL    HW2 4545   0.861   3.189   2.204
 1335SOL     OW 4546   0.618   3.429   3.146
 1335SOL    HW1 4547   0.613   3.511   3.203
 1335SOL    HW2 4548   0.707   3.426   3.101
 1336SOL     OW 4549   1.352   1.914   2.030
 1336SOL    HW1 4550   1.387   1.873   1.946
 1336SOL    HW2 4551   1.262   1.876   2.050
 1337SOL     OW 4552   1.300   2.315   2.553
 1337SOL    HW1 4553   1.241   2.395   2.557
 1337SOL    HW2 4554   1.315   2.280   2.646
 1338SOL     OW 4555   1.593   2.083   2.744
 1338SOL    HW1 4556   1.509   2.082   2.798
 1338SOL    HW2 4557   1.595   2.166   2.688
 1339SOL     OW 4558   0.039   2.939   2.162
 1339SOL    HW1 4559   0.138   2.928   2.153
 1339SOL    HW2 4560  -0.001   2.853   2.194
 1340SOL     OW 4561   0.875   3.508   2.199
 1340SOL    HW1 4562   0.798   3.473   2.145
 1340SOL    HW2 4563   0.843   3.579   2.261
 1341SOL     OW 4564   0.230   2.490   3.837
 1341SOL    HW1 4565   0.137   2.488   3.874
 1341SOL    HW2 4566   0.231   2.451   3.745
 1342SOL     OW 4567   0.225   2.137   4.720
 1342SOL    HW1 4568   0.260   2.120   4.812
 1342SOL    HW2 4569   0.137   2.092   4.708
 1343SOL     OW 4570   0.019   2.230   4.371
 1343SOL    HW1 4571  -0.063   2.273   4.410
 1343SOL    HW2 4572  -0.009   2.157   4.308
 1344SOL     OW 4573   0.569   3.137   4.889
 1344SOL    HW1 4574   0.476   3.130   4.852
 1344SOL    HW2 4575   0.580   3.226   4.933
 1345SOL     OW 4576   1.555   3.373   4.427
 1345SOL    HW1 4577   1.498   3.357   4.508
 1345SOL    HW2 4578   1.496   3.383   4.347
 1346SOL     OW 4579   1.135   2.565   4.441
 1346SOL    HW1 4580   1.192   2.643   4.416
 1346SOL    HW2 4581   1.075   2.591   4.517
 1347SOL     OW 4582   1.755   2.469   3.955
 1347SOL    HW1 4583   1.743   2.456   3.856
 1347SOL    HW2 4584   1.725   2.388   4.004
 1348SOL     OW 4585   0.768   3.006   4.747
 1348SOL    HW1 4586   0.690   3.023   4.807
 1348SOL    HW2 4587   0.802   3.093   4.711
 1349SOL     OW 4588   0.850   2.660   5.547
 1349SOL    HW1 4589   0.846   2.736   5.612
 1349SOL    HW2 4590   0.872   2.696   5.456
 1350SOL     OW 4591   0.685   2.874   4.389
 1350SOL    HW1 4592   0.754   2.858   4.459
 1350SOL    HW2 4593   0.612   2.931   4.427
 1351SOL     OW 4594   0.686   3.023   5.527
 1351SOL    HW1 4595   0.746   3.102   5.541
 1351SOL    HW2 4596   0.600   3.054   5.486
 1352SOL     OW 4597   0.335   3.297   4.785
 1352SOL    HW1 4598   0.257   3.266   4.732
 1352SOL    HW2 4599   0.393   3.355   4.728
 1353SOL     OW 4600   1.460   3.367   5.063
 1353SOL    HW1 4601   1.484   3.461   5.089
 1353SOL    HW2 4602   1.444   3.313   5.145
 1354SOL     OW 4603   0.438   2.254   5.223
 1354SOL    HW1 4604   0.520   2.198   5.232
 1354SOL    HW2 4605   0.357   2.196   5.227
 1355SOL     OW 4606   1.603   2.309   4.461
 1355SOL    HW1 4607   1.529   2.355   4.411
 1355SOL    HW2 4608   1.654   2.377   4.514
 1356SOL     OW 4609   0.231   3.575   4.207
 1356SOL    HW1 4610   0.265   3.652   4.261
 1356SOL    HW2 4611   0.275   3.575   4.117
 1357SOL     OW 4612   1.127   3.203   5.414
 1357SOL    HW1 4613   1.174   3.203   5.502
 1357SOL    HW2 4614   1.079   3.116   5.403
 1358SOL     OW 4615   0.230   3.296   4.262
 1358SOL    HW1 4616   0.204   3.392   4.262
 1358SOL    HW2 4617   0.159   3.242   4.307
 1359SOL     OW 4618   0.240   2.953   4.610
 1359SOL    HW1 4619   0.254   2.869   4.662
 1359SOL    HW2 4620   0.185   3.017   4.665
 1360SOL     OW 4621   0.620   3.648   5.163
 1360SOL    HW1 4622   0.528   3.631   5.198
 1360SOL    HW2 4623   0.648   3.740   5.189
 1361SOL     OW 4624   0.606   2.826   3.847
 1361SOL    HW1 4625   0.613   2.910   3.793
 1361SOL    HW2 4626   0.652   2.839   3.935
 1362SOL     OW 4627   1.594   1.976   5.204
 1362SOL    HW1 4628   1.576   2.043   5.132
 1362SOL    HW2 4629   1.591   2.022   5.293
 1363SOL     OW 4630   0.122   2.505   4.287
 1363SOL    HW1 4631   0.077   2.417   4.304
 1363SOL    HW2 4632   0.121   2.559   4.371
 1364SOL     OW 4633   1.842   3.629   4.083
 1364SOL    HW1 4634   1.896   3.600   4.163
 1364SOL    HW2 4635   1.872   3.719   4.054
 1365SOL     OW 4636   0.027   3.458   3.841
 1365SOL    HW1 4637   0.008   3.362   3.862
 1365SOL    HW2 4638  -0.006   3.516   3.916
 1366SOL     OW 4639   1.689   2.784   4.336
 1366SOL    HW1 4640   1.784   2.755   4.344
 1366SOL    HW2 4641   1.681   2.849   4.261
 1367SOL     OW 4642   1.641   2.970   4.156
 1367SOL    HW1 4643   1.727   2.972   4.104
 1367SOL    HW2 4644   1.655   3.017   4.244
 1368SOL     OW 4645   0.113   2.599   5.321
 1368SOL    HW1 4646   0.201   2.586   5.366
 1368SOL    HW2 4647   0.100   2.696   5.299
 1369SOL     OW 4648   0.613   3.227   4.450
 1369SOL    HW1 4649   0.564   3.140   4.459
 1369SOL    HW2 4650   0.590   3.270   4.363
 1370SOL     OW 4651   1.293   3.090   5.147
 1370SOL    HW1 4652   1.330   3.017   5.089
 1370SOL    HW2 4653   1.345   3.095   5.232
 1371SOL     OW 4654   0.809   1.866   4.226
 1371SOL    HW1 4655   0.849   1.957   4.217
 1371SOL    HW2 4656   0.709   1.874   4.232
 1372SOL     OW 4657   0.197   2.838   4.988
 1372SOL    HW1 4658   0.286   2.793   4.974
 1372SOL    HW2 4659   0.124   2.773   4.969
 1373SOL     OW 4660   1.525   2.861   3.914
 1373SOL    HW1 4661   1.462   2.785   3.927
 1373SOL    HW2 4662   1.573   2.879   4.000
 1374SOL     OW 4663   1.187   3.654   5.340
 1374SOL    HW1 4664   1.211   3.714   5.264
 1374SOL    HW2 4665   1.194   3.559   5.310
 1375SOL     OW 4666   0.317   2.113   5.525
 1375SOL    HW1 4667   0.388   2.184   5.531
 1375SOL    HW2 4668   0.229   2.152   5.553
 1376SOL     OW 4669   1.466   3.279   4.677
 1376SOL    HW1 4670   1.407   3.285   4.757
 1376SOL    HW2 4671   1.451   3.191   4.631
 1377SOL     OW 4672   1.667   3.576   4.296
 1377SOL    HW1 4673   1.626   3.553   4.208
 1377SOL    HW2 4674   1.649   3.502   4.361
 1378SOL     OW 4675   0.598   2.591   3.994
 1378SOL    HW1 4676   0.622   2.660   3.926
 1378SOL    HW2 4677   0.520   2.624   4.048
 1379SOL     OW 4678   1.281   2.207   4.668
 1379SOL    HW1 4679   1.195   2.157   4.655
 1379SOL    HW2 4680   1.343   2.153   4.724
 1380SOL     OW 4681   1.576   3.524   4.031
 1380SOL    HW1 4682   1.665   3.570   4.034
 1380SOL    HW2 4683   1.555   3.500   3.936
 1381SOL     OW 4684   0.807   2.467   5.189
 1381SOL    HW1 4685   0.760   2.464   5.278
 1381SOL    HW2 4686   0.756   2.412   5.123
 1382SOL     OW 4687   1.394   2.331   5.398
 1382SOL    HW1 4688   1.374   2.374   5.486
 1382SOL    HW2 4689   1.472   2.269   5.407
 1383SOL     OW 4690   0.973   2.752   5.296
 1383SOL    HW1 4691   1.019   2.668   5.267
 1383SOL    HW2 4692   0.917   2.786   5.221
 1384SOL     OW 4693   0.991   2.272   4.966
 1384SOL    HW1 4694   0.914   2.306   5.020
 1384SOL    HW2 4695   0.957   2.221   4.887
 1385SOL     OW 4696   1.041   2.563   4.153
 1385SOL    HW1 4697   1.067   2.559   4.249
 1385SOL    HW2 4698   0.956   2.512   4.139
 1386SOL     OW 4699   0.076   2.673   4.513
 1386SOL    HW1 4700   0.175   2.661   4.522
 1386SOL    HW2 4701   0.052   2.768   4.534
 1387SOL     OW 4702   0.130   3.683   5.295
 1387SOL    HW1 4703   0.120   3.668   5.394
 1387SOL    HW2 4704   0.044   3.719   5.259
 1388SOL     OW 4705   0.865   2.210   3.919
 1388SOL    HW1 4706   0.924   2.273   3.870
 1388SOL    HW2 4707   0.884   2.116   3.890
 1389SOL     OW 4708   1.719   2.447   5.555
 1389SOL    HW1 4709   1.693   2.536   5.519
 1389SOL    HW2 4710   1.717   2.379   5.482
 1390SOL     OW 4711   1.362   3.006   4.269
 1390SOL    HW1 4712   1.445   2.977   4.221
 1390SOL    HW2 4713   1.313   3.073   4.213
 1391SOL     OW 4714   0.550   2.058   4.609
 1391SOL    HW1 4715   0.545   2.053   4.709
 1391SOL    HW2 4716   0.552   2.154   4.580
 1392SOL     OW 4717   1.008   3.318   4.201
 1392SOL    HW1 4718   0.962   3.390   4.149
 1392SOL    HW2 4719   1.004   3.338   4.299
 1393SOL     OW 4720   0.351   3.663   4.577
 1393SOL    HW1 4721   0.401   3.577   4.583
 1393SOL    HW2 4722   0.416   3.740   4.574
 1394SOL     OW 4723   1.227   3.412   5.230
 1394SOL    HW1 4724   1.233   3.335   5.294
 1394SOL    HW2 4725   1.175   3.386   5.150
 1395SOL     OW 4726   0.321   2.805   3.966
 1395SOL    HW1 4727   0.403   2.844   3.924
 1395SOL    HW2 4728   0.294   2.723   3.917
 1396SOL     OW 4729   1.458   2.597   4.452
 1396SOL    HW1 4730   1.453   2.532   4.527
 1396SOL    HW2 4731   1.538   2.656   4.465
 1397SOL     OW 4732   0.461   3.128   5.451
 1397SOL    HW1 4733   0.411   3.129   5.365
 1397SOL    HW2 4734   0.398   3.110   5.527
 1398SOL     OW 4735   1.111   3.638   3.961
 1398SOL    HW1 4736   1.051   3.576   4.011
 1398SOL    HW2 4737   1.142   3.594   3.876
 1399SOL     OW 4738   0.202   2.147   5.222
 1399SOL    HW1 4739   0.122   2.207   5.209
 1399SOL    HW2 4740   0.192   2.098   5.308
 1400SOL     OW 4741   1.632   3.239   3.805
 1400SOL    HW1 4742   1.600   3.333   3.795
 1400SOL    HW2 4743   1.556   3.176   3.793
 1401SOL     OW 4744   0.464   3.605   4.047
 1401SOL    HW1 4745   0.497   3.644   4.133
 1401SOL    HW2 4746   0.540   3.598   3.982
 1402SOL     OW 4747   1.400   1.969   4.150
 1402SOL    HW1 4748   1.376   1.932   4.060
 1402SOL    HW2 4749   1.499   1.985   4.154
 1403SOL     OW 4750   0.249   3.647   4.965
 1403SOL    HW1 4751   0.306   3.582   5.015
 1403SOL    HW2 4752   0.233   3.614   4.872
 1404SOL     OW 4753   0.940   3.560   4.628
 1404SOL    HW1 4754   1.020   3.503   4.649
 1404SOL    HW2 4755   0.891   3.520   4.551
 1405SOL     OW 4756   0.382   2.562   4.204
 1405SOL    HW1 4757   0.427   2.472   4.201
 1405SOL    HW2 4758   0.288   2.551   4.237
 1406SOL     OW 4759   1.547   2.084   5.453
 1406SOL    HW1 4760   1.542   2.121   5.545
 1406SOL    HW2 4761   1.475   2.015   5.441
 1407SOL     OW 4762   0.614   1.984   3.841
 1407SOL    HW1 4763   0.712   1.962   3.848
 1407SOL    HW2 4764   0.583   1.967   3.748
 1408SOL     OW 4765   0.781   2.126   5.473
 1408SOL    HW1 4766   0.848   2.065   5.516
 1408SOL    HW2 4767   0.708   2.145   5.538
 1409SOL     OW 4768   0.888   3.376   4.919
 1409SOL    HW1 4769   0.865   3.351   4.825
 1409SOL    HW2 4770   0.949   3.307   4.958
 1410SOL     OW 4771   1.351   2.452   5.157
 1410SOL    HW1 4772   1.379   2.409   5.242
 1410SOL    HW2 4773   1.376   2.548   5.158
 1411SOL     OW 4774   0.803   3.264   4.648
 1411SOL    HW1 4775   0.893   3.278   4.606
 1411SOL    HW2 4776   0.732   3.266   4.577
 1412SOL     OW 4777   0.922   2.365   4.623
 1412SOL    HW1 4778   0.897   2.356   4.527
 1412SOL    HW2 4779   0.970   2.283   4.654
 1413SOL     OW 4780   0.539   1.926   4.236
 1413SOL    HW1 4781   0.458   1.927   4.294
 1413SOL    HW2 4782   0.542   2.009   4.181
 1414SOL     OW 4783   1.434   3.050   3.765
 1414SOL    HW1 4784   1.466   2.974   3.822
 1414SOL    HW2 4785   1.342   3.077   3.795
 1415SOL     OW 4786   0.297   1.897   3.895
 1415SOL    HW1 4787   0.346   1.981   3.874
 1415SOL    HW2 4788   0.359   1.832   3.940
 1416SOL     OW 4789   0.935   2.098   4.204
 1416SOL    HW1 4790   0.887   2.139   4.126
 1416SOL    HW2 4791   1.034   2.096   4.185
 1417SOL     OW 4792   1.076   2.545   5.188
 1417SOL    HW1 4793   0.996   2.484   5.191
 1417SOL    HW2 4794   1.157   2.492   5.164
 1418SOL     OW 4795   1.227   3.432   4.517
 1418SOL    HW1 4796   1.248   3.506   4.452
 1418SOL    HW2 4797   1.295   3.432   4.590
 1419SOL     OW 4798   0.459   3.014   4.465
 1419SOL    HW1 4799   0.388   2.987   4.530
 1419SOL    HW2 4800   0.433   2.986   4.372
 1420SOL     OW 4801   1.271   3.659   4.315
 1420SOL    HW1 4802   1.315   3.723   4.251
 1420SOL    HW2 4803   1.221   3.711   4.385
 1421SOL     OW 4804   1.032   2.411   3.740
 1421SOL    HW1 4805   0.991   2.493   3.701
 1421SOL    HW2 4806   1.096   2.437   3.813
 1422SOL     OW 4807   0.078   2.418   5.110
 1422SOL    HW1 4808   0.170   2.417   5.069
 1422SOL    HW2 4809   0.072   2.492   5.177
 1423SOL     OW 4810   0.561   2.084   4.871
 1423SOL    HW1 4811   0.599   2.000   4.908
 1423SOL    HW2 4812   0.473   2.103   4.915
 1424SOL     OW 4813   0.866   2.316   4.366
 1424SOL    HW1 4814   0.834   2.388   4.304
 1424SOL    HW2 4815   0.890   2.235   4.313
 1425SOL     OW 4816   1.017   1.901   4.477
 1425SOL    HW1 4817   0.945   1.906   4.408
 1425SOL    HW2 4818   0.993   1.832   4.546
 1426SOL     OW 4819   1.429   3.035   4.591
 1426SOL    HW1 4820   1.374   2.951   4.584
 1426SOL    HW2 4821   1.455   3.064   4.499
 1427SOL     OW 4822   1.466   2.452   4.716
 1427SOL    HW1 4823   1.436   2.357   4.723
 1427SOL    HW2 4824   1.539   2.468   4.782
 1428SOL     OW 4825   0.488   3.247   3.898
 1428SOL    HW1 4826   0.401   3.232   3.945
 1428SOL    HW2 4827   0.471   3.273   3.803
 1429SOL     OW 4828   1.664   3.142   4.381
 1429SOL    HW1 4829   1.763   3.150   4.395
 1429SOL    HW2 4830   1.619   3.226   4.412
 1430SOL     OW 4831   1.390   2.437   3.802
 1430SOL    HW1 4832   1.336   2.416   3.883
 1430SOL    HW2 4833   1.481   2.396   3.811
 1431SOL     OW 4834   0.527   2.118   4.052
 1431SOL    HW1 4835   0.554   2.059   3.977
 1431SOL    HW2 4836   0.527   2.213   4.021
 1432SOL     OW 4837   1.754   3.085   5.312
 1432SOL    HW1 4838   1.845   3.046   5.299
 1432SOL    HW2 4839   1.762   3.181   5.336
 1433SOL     OW 4840   1.064   3.209   5.064
 1433SOL    HW1 4841   0.984   3.186   5.119
 1433SOL    HW2 4842   1.147   3.183   5.113
 1434SOL     OW 4843   1.592   3.491   5.349
 1434SOL    HW1 4844   1.619   3.525   5.259
 1434SOL    HW2 4845   1.671   3.453   5.395
 1435SOL     OW 4846   1.111   3.057   4.824
 1435SOL    HW1 4847   1.071   3.101   4.905
 1435SOL    HW2 4848   1.070   3.094   4.741
 1436SOL     OW 4849   1.638   2.961   4.803
 1436SOL    HW1 4850   1.643   3.042   4.862
 1436SOL    HW2 4851   1.552   2.963   4.752
 1437SOL     OW 4852   0.915   1.951   5.126
 1437SOL    HW1 4853   0.940   1.931   5.031
 1437SOL    HW2 4854   0.987   2.007   5.168
 1438SOL     OW 4855   0.980   2.978   5.443
 1438SOL    HW1 4856   0.881   2.984   5.453
 1438SOL    HW2 4857   1.003   2.898   5.387
 1439SOL     OW 4858   0.705   2.912   4.092
 1439SOL    HW1 4859   0.691   2.919   4.191
 1439SOL    HW2 4860   0.789   2.861   4.074
 1440SOL     OW 4861   0.410   2.675   4.975
 1440SOL    HW1 4862   0.496   2.687   5.025
 1440SOL    HW2 4863   0.368   2.588   5.002
 1441SOL     OW 4864   1.274   2.248   4.986
 1441SOL    HW1 4865   1.295   2.322   5.050
 1441SOL    HW2 4866   1.185   2.265   4.943
 1442SOL     OW 4867   0.064   3.426   5.055
 1442SOL    HW1 4868   0.018   3.508   5.021
 1442SOL    HW2 4869   0.162   3.445   5.064
 1443SOL     OW 4870   0.367   2.962   4.225
 1443SOL    HW1 4871   0.360   3.045   4.169
 1443SOL    HW2 4872   0.371   2.882   4.165
 1444SOL     OW 4873   0.566   2.399   4.589
 1444SOL    HW1 4874   0.578   2.465   4.515
 1444SOL    HW2 4875   0.612   2.433   4.672
 1445SOL     OW 4876   1.252   3.210   4.112
 1445SOL    HW1 4877   1.302   3.287   4.152
 1445SOL    HW2 4878   1.157   3.212   4.144
 1446SOL     OW 4879   1.272   3.307   4.866
 1446SOL    HW1 4880   1.319   3.320   4.953
 1446SOL    HW2 4881   1.206   3.233   4.875
 1447SOL     OW 4882   1.582   2.501   4.196
 1447SOL    HW1 4883   1.551   2.562   4.269
 1447SOL    HW2 4884   1.632   2.553   4.127
 1448SOL     OW 4885   0.354   3.372   5.053
 1448SOL    HW1 4886   0.333   3.328   4.966
 1448SOL    HW2 4887   0.451   3.398   5.056
 1449SOL     OW 4888   0.402   2.613   5.322
 1449SOL    HW1 4889   0.470   2.668   5.275
 1449SOL    HW2 4890   0.442   2.525   5.349
 1450SOL     OW 4891   1.587   2.641   5.394
 1450SOL    HW1 4892   1.495   2.679   5.389
 1450SOL    HW2 4893   1.647   2.688   5.329
 1451SOL     OW 4894   1.013   1.967   5.494
 1451SOL    HW1 4895   1.019   2.052   5.442
 1451SOL    HW2 4896   1.045   1.891   5.437
 1452SOL     OW 4897   0.504   1.912   5.464
 1452SOL    HW1 4898   0.462   1.855   5.394
 1452SOL    HW2 4899   0.438   1.981   5.496
 1453SOL     OW 4900   0.573   2.732   4.753
 1453SOL    HW1 4901   0.617   2.821   4.744
 1453SOL    HW2 4902   0.510   2.732   4.830
 1454SOL     OW 4903   1.360   2.724   4.769
 1454SOL    HW1 4904   1.285   2.724   4.703
 1454SOL    HW2 4905   1.397   2.632   4.778
 1455SOL     OW 4906   1.209   2.387   3.999
 1455SOL    HW1 4907   1.222   2.303   4.053
 1455SOL    HW2 4908   1.180   2.461   4.059
 1456SOL     OW 4909   0.307   2.075   4.955
 1456SOL    HW1 4910   0.284   2.112   5.045
 1456SOL    HW2 4911   0.277   1.980   4.949
 1457SOL     OW 4912   0.037   3.172   5.006
 1457SOL    HW1 4913   0.090   3.123   5.074
 1457SOL    HW2 4914   0.059   3.270   5.011
 1458SOL     OW 4915   0.732   2.496   4.788
 1458SOL    HW1 4916   0.791   2.470   4.712
 1458SOL    HW2 4917   0.704   2.592   4.777
 1459SOL     OW 4918   1.728   2.797   5.578
 1459SOL    HW1 4919   1.682   2.790   5.489
 1459SOL    HW2 4920   1.666   2.841   5.644
 1460SOL     OW 4921   0.307   1.925   4.342
 1460SOL    HW1 4922   0.296   2.019   4.375
 1460SOL    HW2 4923   0.302   1.862   4.419
 1461SOL     OW 4924   1.622   2.229   4.098
 1461SOL    HW1 4925   1.624   2.153   4.162
 1461SOL    HW2 4926   1.574   2.306   4.138
 1462SOL     OW 4927   1.023   2.628   4.690
 1462SOL    HW1 4928   1.038   2.649   4.786
 1462SOL    HW2 4929   0.993   2.533   4.681
 1463SOL     OW 4930   0.980   3.435   5.424
 1463SOL    HW1 4931   0.960   3.479   5.336
 1463SOL    HW2 4932   1.019   3.344   5.408
 1464SOL     OW 4933   1.859   3.380   5.329
 1464SOL    HW1 4934   1.873   3.407   5.234
 1464SOL    HW2 4935   1.942   3.402   5.382
 1465SOL     OW 4936   0.350   2.760   5.528
 1465SOL    HW1 4937   0.426   2.804   5.576
 1465SOL    HW2 4938   0.385   2.713   5.446
 1466SOL     OW 4939   1.540   2.136   3.849
 1466SOL    HW1 4940   1.479   2.061   3.872
 1466SOL    HW2 4941   1.562   2.188   3.932
 1467SOL     OW 4942   1.303   2.700   3.766
 1467SOL    HW1 4943   1.337   2.607   3.781
 1467SOL    HW2 4944   1.321   2.727   3.671
 1468SOL     OW 4945   1.068   3.195   4.573
 1468SOL    HW1 4946   1.075   3.111   4.518
 1468SOL    HW2 4947   1.130   3.264   4.537
 1469SOL     OW 4948   0.319   2.672   4.673
 1469SOL    HW1 4949   0.412   2.708   4.678
 1469SOL    HW2 4950   0.313   2.587   4.725
 1470SOL     OW 4951   0.339   2.371   4.730
 1470SOL    HW1 4952   0.287   2.288   4.713
 1470SOL    HW2 4953   0.416   2.376   4.666
 1471SOL     OW 4954   1.138   2.242   5.402
 1471SOL    HW1 4955   1.093   2.305   5.466
 1471SOL    HW2 4956   1.231   2.273   5.385
 1472SOL     OW 4957   1.160   2.069   5.201
 1472SOL    HW1 4958   1.160   2.133   5.278
 1472SOL    HW2 4959   1.188   2.117   5.118
 1473SOL     OW 4960   0.008   3.188   3.924
 1473SOL    HW1 4961  -0.085   3.209   3.893
 1473SOL    HW2 4962   0.018   3.089   3.937
 1474SOL     OW 4963   0.088   3.663   4.651
 1474SOL    HW1 4964   0.046   3.577   4.624
 1474SOL    HW2 4965   0.182   3.666   4.617
 1475SOL     OW 4966   0.504   3.430   4.634
 1475SOL    HW1 4967   0.570   3.504   4.643
 1475SOL    HW2 4968   0.548   3.351   4.592
 1476SOL     OW 4969   1.002   2.658   4.962
 1476SOL    HW1 4970   1.043   2.626   5.048
 1476SOL    HW2 4971   0.906   2.631   4.959
 1477SOL     OW 4972   0.040   2.406   4.838
 1477SOL    HW1 4973   0.125   2.373   4.797
 1477SOL    HW2 4974   0.053   2.421   4.936
 1478SOL     OW 4975   0.189   2.382   5.446
 1478SOL    HW1 4976   0.248   2.342   5.376
 1478SOL    HW2 4977   0.131   2.453   5.405
 1479SOL     OW 4978   1.369   2.812   5.384
 1479SOL    HW1 4979   1.408   2.901   5.404
 1479SOL    HW2 4980   1.379   2.792   5.287
 1480SOL     OW 4981   0.815   2.434   4.049
 1480SOL    HW1 4982   0.822   2.345   4.003
 1480SOL    HW2 4983   0.721   2.468   4.041
 1481SOL     OW 4984   1.657   2.466   4.930
 1481SOL    HW1 4985   1.619   2.397   4.992
 1481SOL    HW2 4986   1.739   2.430   4.886
 1482SOL     OW 4987   0.252   3.426   5.468
 1482SOL    HW1 4988   0.222   3.483   5.544
 1482SOL    HW2 4989   0.245   3.329   5.494
 1483SOL     OW 4990   0.671   2.326   4.993
 1483SOL    HW1 4991   0.637   2.237   4.963
 1483SOL    HW2 4992   0.697   2.380   4.913
 1484SOL     OW 4993   0.930   3.540   5.189
 1484SOL    HW1 4994   0.906   3.522   5.094
 1484SOL    HW2 4995   0.960   3.634   5.199
 1485SOL     OW 4996   0.473   2.362   3.915
 1485SOL    HW1 4997   0.534   2.442   3.919
 1485SOL    HW2 4998   0.378   2.393   3.922
 1486SOL     OW 4999   0.159   2.999   5.190
 1486SOL    HW1 5000   0.181   2.938   5.266
 1486SOL    HW2 5001   0.169   2.950   5.104
 1487SOL     OW 5002   1.347   2.921   4.958
 1487SOL    HW1 5003   1.371   2.858   4.884
 1487SOL    HW2 5004   1.257   2.961   4.940
 1488SOL     OW 5005   1.302   2.717   4.033
 1488SOL    HW1 5006   1.216   2.686   4.075
 1488SOL    HW2 5007   1.298   2.703   3.934
 1489SOL     OW 5008   1.759   3.609   4.878
 1489SOL    HW1 5009   1.820   3.639   4.805
 1489SOL    HW2 5010   1.721   3.520   4.856
 1490SOL     OW 5011   1.252   3.593   4.852
 1490SOL    HW1 5012   1.336   3.598   4.798
 1490SOL    HW2 5013   1.229   3.497   4.870
 1491SOL     OW 5014   0.083   3.120   4.746
 1491SOL    HW1 5015   0.078   3.119   4.846
 1491SOL    HW2 5016   0.000   3.079   4.708
 1492SOL     OW 5017   0.688   3.524   5.440
 1492SOL    HW1 5018   0.632   3.605   5.449
 1492SOL    HW2 5019   0.740   3.528   5.354
 1493SOL     OW 5020   1.726   1.997   4.247
 1493SOL    HW1 5021   1.799   1.980   4.180
 1493SOL    HW2 5022   1.695   1.910   4.285
 1494SOL     OW 5023   1.388   3.435   4.201
 1494SOL    HW1 5024   1.455   3.447   4.127
 1494SOL    HW2 5025   1.348   3.524   4.224
 1495SOL     OW 5026   0.130   3.656   5.575
 1495SOL    HW1 5027   0.089   3.582   5.628
 1495SOL    HW2 5028   0.194   3.707   5.633
 1496SOL     OW 5029   1.280   2.789   4.396
 1496SOL    HW1 5030   1.340   2.708   4.398
 1496SOL    HW2 5031   1.320   2.858   4.336
 1497SOL     OW 5032   0.830   3.135   5.146
 1497SOL    HW1 5033   0.825   3.168   5.241
 1497SOL    HW2 5034   0.744   3.154   5.100
 1498SOL     OW 5035   0.672   3.478   3.878
 1498SOL    HW1 5036   0.681   3.488   3.779
 1498SOL    HW2 5037   0.632   3.389   3.899
 1499SOL     OW 5038   1.650   3.582   5.118
 1499SOL    HW1 5039   1.703   3.592   5.034
 1499SOL    HW2 5040   1.623   3.672   5.152
 1500SOL     OW 5041   1.841   2.037   4.687
 1500SOL    HW1 5042   1.880   1.952   4.651
 1500SOL    HW2 5043   1.743   2.039   4.668
 1501SOL     OW 5044   0.263   2.188   4.444
 1501SOL    HW1 5045   0.184   2.239   4.410
 1501SOL    HW2 5046   0.254   2.173   4.542
 1502SOL     OW 5047   1.194   3.474   3.755
 1502SOL    HW1 5048   1.200   3.381   3.792
 1502SOL    HW2 5049   1.135   3.474   3.675
 1503SOL     OW 5050   0.822   2.864   5.096
 1503SOL    HW1 5051   0.862   2.863   5.004
 1503SOL    HW2 5052   0.832   2.956   5.136
 1504SOL     OW 5053   0.916   2.772   4.015
 1504SOL    HW1 5054   0.979   2.810   3.947
 1504SOL    HW2 5055   0.956   2.689   4.054
 1505SOL     OW 5056   1.504   3.469   3.768
 1505SOL    HW1 5057   1.412   3.506   3.775
 1505SOL    HW2 5058   1.542   3.489   3.678
 1506SOL     OW 5059   0.372   3.150   5.214
 1506SOL    HW1 5060   0.359   3.243   5.180
 1506SOL    HW2 5061   0.288   3.098   5.201
 1507SOL     OW 5062   1.614   3.154   5.013
 1507SOL    HW1 5063   1.674   3.157   5.093
 1507SOL    HW2 5064   1.539   3.218   5.026
 1508SOL     OW 5065   1.039   2.960   4.420
 1508SOL    HW1 5066   0.969   2.913   4.474
 1508SOL    HW2 5067   1.098   2.892   4.377
 1509SOL     OW 5068   1.014   2.098   4.695
 1509SOL    HW1 5069   1.006   2.062   4.602
 1509SOL    HW2 5070   1.012   2.022   4.760
 1510SOL     OW 5071   0.590   3.349   4.215
 1510SOL    HW1 5072   0.632   3.291   4.145
 1510SOL    HW2 5073   0.546   3.428   4.171
 1511SOL     OW 5074   1.709   2.247   5.105
 1511SOL    HW1 5075   1.782   2.316   5.109
 1511SOL    HW2 5076   1.737   2.172   5.046
 1512SOL     OW 5077   0.255   3.210   4.014
 1512SOL    HW1 5078   0.159   3.211   3.987
 1512SOL    HW2 5079   0.267   3.263   4.098
 1513SOL     OW 5080   0.105   2.875   5.450
 1513SOL    HW1 5081   0.028   2.842   5.504
 1513SOL    HW2 5082   0.190   2.845   5.492
 1514SOL     OW 5083   0.672   2.065   5.213
 1514SOL    HW1 5084   0.762   2.049   5.173
 1514SOL    HW2 5085   0.680   2.070   5.312
 1515SOL     OW 5086   0.075   2.207   3.757
 1515SOL    HW1 5087  -0.017   2.179   3.728
 1515SOL    HW2 5088   0.106   2.284   3.701
 1516SOL     OW 5089   1.440   2.718   5.122
 1516SOL    HW1 5090   1.383   2.770   5.059
 1516SOL    HW2 5091   1.536   2.730   5.098
 1517SOL     OW 5092   0.072   2.028   4.042
 1517SOL    HW1 5093   0.055   2.111   3.988
 1517SOL    HW2 5094   0.162   1.991   4.020
 1518SOL     OW 5095   1.183   3.197   3.843
 1518SOL    HW1 5096   1.084   3.186   3.845
 1518SOL    HW2 5097   1.217   3.212   3.936
 1519SOL     OW 5098   0.613   2.704   5.155
 1519SOL    HW1 5099   0.669   2.785   5.138
 1519SOL    HW2 5100   0.672   2.624   5.158
 1520SOL     OW 5101   1.493   3.629   4.683
 1520SOL    HW1 5102   1.526   3.693   4.614
 1520SOL    HW2 5103   1.559   3.623   4.758
 1521SOL     OW 5104   0.716   2.427   5.432
 1521SOL    HW1 5105   0.735   2.492   5.506
 1521SOL    HW2 5106   0.776   2.347   5.441
 1522SOL     OW 5107   1.450   3.082   5.357
 1522SOL    HW1 5108   1.441   3.072   5.456
 1522SOL    HW2 5109   1.546   3.075   5.331
 1523SOL     OW 5110   0.390   3.603   5.284
 1523SOL    HW1 5111   0.299   3.644   5.282
 1523SOL    HW2 5112   0.383   3.509   5.316
 1524SOL     OW 5113   1.674   2.745   4.978
 1524SOL    HW1 5114   1.647   2.656   4.941
 1524SOL    HW2 5115   1.675   2.813   4.905
 1525SOL     OW 5116   1.225   2.187   4.173
 1525SOL    HW1 5117   1.290   2.113   4.162
 1525SOL    HW2 5118   1.245   2.237   4.257
 1526SOL     OW 5119   0.594   2.607   4.376
 1526SOL    HW1 5120   0.644   2.692   4.357
 1526SOL    HW2 5121   0.506   2.609   4.328
 1527SOL     OW 5122   1.777   2.204   5.366
 1527SOL    HW1 5123   1.760   2.235   5.272
 1527SOL    HW2 5124   1.693   2.167   5.404
 1528SOL     OW 5125   1.730   2.796   5.241
 1528SOL    HW1 5126   1.768   2.887   5.256
 1528SOL    HW2 5127   1.722   2.779   5.142
 1529SOL     OW 5128   0.859   3.236   3.740
 1529SOL    HW1 5129   0.813   3.251   3.828
 1529SOL    HW2 5130   0.903   3.321   3.710
 1530SOL     OW 5131   0.661   3.652   4.677
 1530SOL    HW1 5132   0.615   3.740   4.664
 1530SOL    HW2 5133   0.760   3.664   4.670
 1531SOL     OW 5134   0.859   2.818   4.585
 1531SOL    HW1 5135   0.913   2.749   4.633
 1531SOL    HW2 5136   0.827   2.887   4.651
 1532SOL     OW 5137   1.083   2.846   3.811
 1532SOL    HW1 5138   1.060   2.899   3.729
 1532SOL    HW2 5139   1.164   2.790   3.792
 1533SOL     OW 5140   1.861   3.431   4.575
 1533SOL    HW1 5141   1.790   3.419   4.505
 1533SOL    HW2 5142   1.862   3.352   4.635
 1534SOL     OW 5143   0.221   3.176   5.568
 1534SOL    HW1 5144   0.156   3.103   5.547
 1534SOL    HW2 5145   0.225   3.190   5.666
 1535SOL     OW 5146   0.079   3.102   4.377
 1535SOL    HW1 5147   0.078   3.055   4.465
 1535SOL    HW2 5148   0.161   3.074   4.326
 1536SOL     OW 5149   0.672   3.253   5.348
 1536SOL    HW1 5150   0.594   3.203   5.386
 1536SOL    HW2 5151   0.669   3.348   5.379
 1537SOL     OW 5152   1.824   2.054   4.951
 1537SOL    HW1 5153   1.820   1.964   4.995
 1537SOL    HW2 5154   1.827   2.043   4.852
 1538SOL     OW 5155   0.428   2.286   4.244
 1538SOL    HW1 5156   0.458   2.214   4.182
 1538SOL    HW2 5157   0.389   2.246   4.327
 1539SOL     OW 5158   1.705   3.349   4.828
 1539SOL    HW1 5159   1.612   3.324   4.801
 1539SOL    HW2 5160   1.731   3.299   4.910
 1540SOL     OW 5161   0.317   2.409   5.004
 1540SOL    HW1 5162   0.355   2.350   5.076
 1540SOL    HW2 5163   0.357   2.383   4.916
 1541SOL     OW 5164   0.812   3.448   4.411
 1541SOL    HW1 5165   0.844   3.458   4.317
 1541SOL    HW2 5166   0.733   3.386   4.413
 1542SOL     OW 5167   1.424   2.076   4.836
 1542SOL    HW1 5168   1.476   2.011   4.891
 1542SOL    HW2 5169   1.375   2.139   4.897
 1543SOL     OW 5170   1.001   1.896   4.878
 1543SOL    HW1 5171   0.938   1.824   4.847
 1543SOL    HW2 5172   1.094   1.860   4.878
 1544SOL     OW 5173   0.770   3.192   4.025
 1544SOL    HW1 5174   0.724   3.105   4.042
 1544SOL    HW2 5175   0.861   3.189   4.066
 1545SOL     OW 5176   0.618   3.429   5.008
 1545SOL    HW1 5177   0.613   3.511   5.065
 1545SOL    HW2 5178   0.707   3.426   4.963
 1546SOL     OW 5179   1.352   1.914   3.892
 1546SOL    HW1 5180   1.387   1.873   3.808
 1546SOL    HW2 5181   1.262   1.876   3.912
 1547SOL     OW 5182   1.300   2.315   4.415
 1547SOL    HW1 5183   1.241   2.395   4.419
 1547SOL    HW2 5184   1.315   2.280   4.508
 1548SOL     OW 5185   1.593   2.083   4.606
 1548SOL    HW1 5186   1.509   2.082   4.660
 1548SOL    HW2 5187   1.595   2.166   4.550
 1549SOL     OW 5188   0.039   2.939   4.024
 1549SOL    HW1 5189   0.138   2.928   4.015
 1549SOL    HW2 5190  -0.001   2.853   4.056
 1550SOL     OW 5191   0.875   3.508   4.061
 1550SOL    HW1 5192   0.798   3.473   4.007
 1550SOL    HW2 5193   0.843   3.579   4.123
 1551SOL     OW 5194   0.230   2.490   5.699
 1551SOL    HW1 5195   0.137   2.488   5.736
 1551SOL    HW2 5196   0.231   2.451   5.607
 1552SOL     OW 5197   0.225   2.137   6.582
 1552SOL    HW1 5198   0.260   2.120   6.674
 1552SOL    HW2 5199   0.137   2.092   6.570
 1553SOL     OW 5200   0.019   2.230   6.233
 1553SOL    HW1 5201  -0.063   2.273   6.272
 1553SOL    HW2 5202  -0.009   2.157   6.170
 1554SOL     OW 5203   0.569   3.137   6.751
 1554SOL    HW1 5204   0.476   3.130   6.714
 1554SOL    HW2 5205   0.580   3.226   6.795
 1555SOL     OW 5206   1.555   3.373   6.289
 1555SOL    HW1 5207   1.498   3.357   6.370
 1555SOL    HW2 5208   1.496   3.383   6.209
 1556SOL     OW 5209   1.135   2.565   6.303
 1556SOL    HW1 5210   1.192   2.643   6.278
 1556SOL    HW2 5211   1.075   2.591   6.379
 1557SOL     OW 5212   1.755   2.469   5.817
 1557SOL    HW1 5213   1.743   2.456   5.718
 1557SOL    HW2 5214   1.725   2.388   5.866
 1558SOL     OW 5215   0.768   3.006   6.609
 1558SOL    HW1 5216   0.690   3.023   6.669
 1558SOL    HW2 5217   0.802   3.093   6.573
 1559SOL     OW 5218   0.850   2.660   7.409
 1559SOL    HW1 5219   0.846   2.736   7.474
 1559SOL    HW2 5220   0.872   2.696   7.318
 1560SOL     OW 5221   0.685   2.874   6.251
 1560SOL    HW1 5222   0.754   2.858   6.321
 1560SOL    HW2 5223   0.612   2.931   6.289
 1561SOL     OW 5224   0.686   3.023   7.389
 1561SOL    HW1 5225   0.746   3.102   7.403
 1561SOL    HW2 5226   0.600   3.054   7.348
 1562SOL     OW 5227   0.335   3.297   6.647
 1562SOL    HW1 5228   0.257   3.266   6.594
 1562SOL    HW2 5229   0.393   3.355   6.590
 1563SOL     OW 5230   1.460   3.367   6.925
 1563SOL    HW1 5231   1.484   3.461   6.951
 1563SOL    HW2 5232   1.444   3.313   7.007
 1564SOL     OW 5233   0.438   2.254   7.085
 1564SOL    HW1 5234   0.520   2.198   7.094
 1564SOL    HW2 5235   0.357   2.196   7.089
 1565SOL     OW 5236   1.603   2.309   6.323
 1565SOL    HW1 5237   1.529   2.355   6.273
 1565SOL    HW2 5238   1.654   2.377   6.376
 1566SOL     OW 5239   0.231   3.575   6.069
 1566SOL    HW1 5240   0.265   3.652   6.123
 1566SOL    HW2 5241   0.275   3.575   5.979
 1567SOL     OW 5242   1.127   3.203   7.276
 1567SOL    HW1 5243   1.174   3.203   7.364
 1567SOL    HW2 5244   1.079   3.116   7.265
 1568SOL     OW 5245   0.230   3.296   6.124
 1568SOL    HW1 5246   0.204   3.392   6.124
 1568SOL    HW2 5247   0.159   3.242   6.169
 1569SOL     OW 5248   0.240   2.953   6.472
 1569SOL    HW1 5249   0.254   2.869   6.524
 1569SOL    HW2 5250   0.185   3.017   6.527
 1570SOL     OW 5251   0.620   3.648   7.025
 1570SOL    HW1 5252   0.528   3.631   7.060
 1570SOL    HW2 5253   0.648   3.740   7.051
 1571SOL     OW 5254   0.606   2.826   5.709
 1571SOL    HW1 5255   0.613   2.910   5.655
 1571SOL    HW2 5256   0.652   2.839   5.797
 1572SOL     OW 5257   1.594   1.976   7.066
 1572SOL    HW1 5258   1.576   2.043   6.994
 1572SOL    HW2 5259   1.591   2.022   7.155
 1573SOL     OW 5260   0.122   2.505   6.149
 1573SOL    HW1 5261   0.077   2.417   6.166
 1573SOL    HW2 5262   0.121   2.559   6.233
 1574SOL     OW 5263   1.842   3.629   5.945
 1574SOL    HW1 5264   1.896   3.600   6.025
 1574SOL    HW2 5265   1.872   3.719   5.916
 1575SOL     OW 5266   0.027   3.458   5.703
 1575SOL    HW1 5267   0.008   3.362   5.724
 1575SOL    HW2 5268  -0.006   3.516   5.778
 1576SOL     OW 5269   1.689   2.784   6.198
 1576SOL    HW1 5270   1.784   2.755   6.206
 1576SOL    HW2 5271   1.681   2.849   6.123
 1577SOL     OW 5272   1.641   2.970   6.018
 1577SOL    HW1 5273   1.727   2.972   5.966
 1577SOL    HW2 5274   1.655   3.017   6.106
 1578SOL     OW 5275   0.113   2.599   7.183
 1578SOL    HW1 5276   0.201   2.586   7.228
 1578SOL    HW2 5277   0.100   2.696   7.161
 1579SOL     OW 5278   0.613   3.227   6.312
 1579SOL    HW1 5279   0.564   3.140   6.321
 1579SOL    HW2 5280   0.590   3.270   6.225
 1580SOL     OW 5281   1.293   3.090   7.009
 1580SOL    HW1 5282   1.330   3.017   6.951
 1580SOL    HW2 5283   1.345   3.095   7.094
 1581SOL     OW 5284   0.809   1.866   6.088
 1581SOL    HW1 5285   0.849   1.957   6.079
 1581SOL    HW2 5286   0.709   1.874   6.094
 1582SOL     OW 5287   0.197   2.838   6.850
 1582SOL    HW1 5288   0.286   2.793   6.836
 1582SOL    HW2 5289   0.124   2.773   6.831
 1583SOL     OW 5290   1.525   2.861   5.776
 1583SOL    HW1 5291   1.462   2.785   5.789
 1583SOL    HW2 5292   1.573   2.879   5.862
 1584SOL     OW 5293   1.187   3.654   7.202
 1584SOL    HW1 5294   1.211   3.714   7.126
 1584SOL    HW2 5295   1.194   3.559   7.172
 1585SOL     OW 5296   0.317   2.113   7.387
 1585SOL    HW1 5297   0.388   2.184   7.393
 1585SOL    HW2 5298   0.229   2.152   7.415
 1586SOL     OW 5299   1.466   3.279   6.539
 1586SOL    HW1 5300   1.407   3.285   6.619
 1586SOL    HW2 5301   1.451   3.191   6.493
 1587SOL     OW 5302   1.667   3.576   6.158
 1587SOL    HW1 5303   1.626   3.553   6.070
 1587SOL    HW2 5304   1.649   3.502   6.223
 1588SOL     OW 5305   0.598   2.591   5.856
 1588SOL    HW1 5306   0.622   2.660   5.788
 1588SOL    HW2 5307   0.520   2.624   5.910
 1589SOL     OW 5308   1.281   2.207   6.530
 1589SOL    HW1 5309   1.195   2.157   6.517
 1589SOL    HW2 5310   1.343   2.153   6.586
 1590SOL     OW 5311   1.576   3.524   5.893
 1590SOL    HW1 5312   1.665   3.570   5.896
 1590SOL    HW2 5313   1.555   3.500   5.798
 1591SOL     OW 5314   0.807   2.467   7.051
 1591SOL    HW1 5315   0.760   2.464   7.140
 1591SOL    HW2 5316   0.756   2.412   6.985
 1592SOL     OW 5317   1.394   2.331   7.260
 1592SOL    HW1 5318   1.374   2.374   7.348
 1592SOL    HW2 5319   1.472   2.269   7.269
 1593SOL     OW 5320   0.973   2.752   7.158
 1593SOL    HW1 5321   1.019   2.668   7.129
 1593SOL    HW2 5322   0.917   2.786   7.083
 1594SOL     OW 5323   0.991   2.272   6.828
 1594SOL    HW1 5324   0.914   2.306   6.882
 1594SOL    HW2 5325   0.957   2.221   6.749
 1595SOL     OW 5326   1.041   2.563   6.015
 1595SOL    HW1 5327   1.067   2.559   6.111
 1595SOL    HW2 5328   0.956   2.512   6.001
 1596SOL     OW 5329   0.076   2.673   6.375
 1596SOL    HW1 5330   0.175   2.661   6.384
 1596SOL    HW2 5331   0.052   2.768   6.396
 1597SOL     OW 5332   0.130   3.683   7.157
 1597SOL    HW1 5333   0.120   3.668   7.256
 1597SOL    HW2 5334   0.044   3.719   7.121
 1598SOL     OW 5335   0.865   2.210   5.781
 1598SOL    HW1 5336   0.924   2.273   5.732
 1598SOL    HW2 5337   0.884   2.116   5.752
 1599SOL     OW 5338   1.719   2.447   7.417
 1599SOL    HW1 5339   1.693   2.536   7.381
 1599SOL    HW2 5340   1.717   2.379   7.344
 1600SOL     OW 5341   1.362   3.006   6.131
 1600SOL    HW1 5342   1.445   2.977   6.083
 1600SOL    HW2 5343   1.313   3.073   6.075
 1601SOL     OW 5344   0.550   2.058   6.471
 1601SOL    HW1 5345   0.545   2.053   6.571
 1601SOL    HW2 5346   0.552   2.154   6.442
 1602SOL     OW 5347   1.008   3.318   6.063
 1602SOL    HW1 5348   0.962   3.390   6.011
 1602SOL    HW2 5349   1.004   3.338   6.161
 1603SOL     OW 5350   0.351   3.663   6.439
 1603SOL    HW1 5351   0.401   3.577   6.445
 1603SOL    HW2 5352   0.416   3.740   6.436
 1604SOL     OW 5353   1.795   2.928   6.459
 1604SOL    HW1 5354   1.733   2.913   6.383
 1604SOL    HW2 5355   1.743   2.939   6.544
 1605SOL     OW 5356   1.227   3.412   7.092
 1605SOL    HW1 5357   1.233   3.335   7.156
 1605SOL    HW2 5358   1.175   3.386   7.012
 1606SOL     OW 5359   0.321   2.805   5.828
 1606SOL    HW1 5360   0.403   2.844   5.786
 1606SOL    HW2 5361   0.294   2.723   5.779
 1607SOL     OW 5362   1.458   2.597   6.314
 1607SOL    HW1 5363   1.453   2.532   6.389
 1607SOL    HW2 5364   1.538   2.656   6.327
 1608SOL     OW 5365   0.461   3.128   7.313
 1608SOL    HW1 5366   0.411   3.129   7.227
 1608SOL    HW2 5367   0.398   3.110   7.389
 1609SOL     OW 5368   1.111   3.638   5.823
 1609SOL    HW1 5369   1.051   3.576   5.873
 1609SOL    HW2 5370   1.142   3.594   5.738
 1610SOL     OW 5371   0.202   2.147   7.084
 1610SOL    HW1 5372   0.122   2.207   7.071
 1610SOL    HW2 5373   0.192   2.098   7.170
 1611SOL     OW 5374   1.632   3.239   5.667
 1611SOL    HW1 5375   1.600   3.333   5.657
 1611SOL    HW2 5376   1.556   3.176   5.655
 1612SOL     OW 5377   0.464   3.605   5.909
 1612SOL    HW1 5378   0.497   3.644   5.995
 1612SOL    HW2 5379   0.540   3.598   5.844
 1613SOL     OW 5380   1.400   1.969   6.012
 1613SOL    HW1 5381   1.376   1.932   5.922
 1613SOL    HW2 5382   1.499   1.985   6.016
 1614SOL     OW 5383   0.249   3.647   6.827
 1614SOL    HW1 5384   0.306   3.582   6.877
 1614SOL    HW2 5385   0.233   3.614   6.734
 1615SOL     OW 5386   0.940   3.560   6.490
 1615SOL    HW1 5387   1.020   3.503   6.511
 1615SOL    HW2 5388   0.891   3.520   6.413
 1616SOL     OW 5389   0.382   2.562   6.066
 1616SOL    HW1 5390   0.427   2.472   6.063
 1616SOL    HW2 5391   0.288   2.551   6.099
 1617SOL     OW 5392   1.547   2.084   7.315
 1617SOL    HW1 5393   1.542   2.121   7.407
 1617SOL    HW2 5394   1.475   2.015   7.303
 1618SOL     OW 5395   0.614   1.984   5.703
 1618SOL    HW1 5396   0.712   1.962   5.710
 1618SOL    HW2 5397   0.583   1.967   5.610
 1619SOL     OW 5398   0.781   2.126   7.335
 1619SOL    HW1 5399   0.848   2.065   7.378
 1619SOL    HW2 5400   0.708   2.145   7.400
 1620SOL     OW 5401   0.888   3.376   6.781
 1620SOL    HW1 5402   0.865   3.351   6.687
 1620SOL    HW2 5403   0.949   3.307   6.820
 1621SOL     OW 5404   1.351   2.452   7.019
 1621SOL    HW1 5405   1.379   2.409   7.104
 1621SOL    HW2 5406   1.376   2.548   7.020
 1622SOL     OW 5407   0.803   3.264   6.510
 1622SOL    HW1 5408   0.893   3.278   6.468
 1622SOL    HW2 5409   0.732   3.266   6.439
 1623SOL     OW 5410   0.922   2.365   6.485
 1623SOL    HW1 5411   0.897   2.356   6.389
 1623SOL    HW2 5412   0.970   2.283   6.516
 1624SOL     OW 5413   0.539   1.926   6.098
 1624SOL    HW1 5414   0.458   1.927   6.156
 1624SOL    HW2 5415   0.542   2.009   6.043
 1625SOL     OW 5416   1.434   3.050   5.627
 1625SOL    HW1 5417   1.466   2.974   5.684
 1625SOL    HW2 5418   1.342   3.077   5.657
 1626SOL     OW 5419   0.297   1.897   5.757
 1626SOL    HW1 5420   0.346   1.981   5.736
 1626SOL    HW2 5421   0.359   1.832   5.802
 1627SOL     OW 5422   0.935   2.098   6.066
 1627SOL    HW1 5423   0.887   2.139   5.988
 1627SOL    HW2 5424   1.034   2.096   6.047
 1628SOL     OW 5425   1.076   2.545   7.050
 1628SOL    HW1 5426   0.996   2.484   7.053
 1628SOL    HW2 5427   1.157   2.492   7.026
 1629SOL     OW 5428   1.227   3.432   6.379
 1629SOL    HW1 5429   1.248   3.506   6.314
 1629SOL    HW2 5430   1.295   3.432   6.452
 1630SOL     OW 5431   0.459   3.014   6.327
 1630SOL    HW1 5432   0.388   2.987   6.392
 1630SOL    HW2 5433   0.433   2.986   6.234
 1631SOL     OW 5434   1.271   3.659   6.177
 1631SOL    HW1 5435   1.315   3.723   6.113
 1631SOL    HW2 5436   1.221   3.711   6.247
 1632SOL     OW 5437   1.032   2.411   5.602
 1632SOL    HW1 5438   0.991   2.493   5.563
 1632SOL    HW2 5439   1.096   2.437   5.675
 1633SOL     OW 5440   0.078   2.418   6.972
 1633SOL    HW1 5441   0.170   2.417   6.931
 1633SOL    HW2 5442   0.072   2.492   7.039
 1634SOL     OW 5443   0.561   2.084   6.733
 1634SOL    HW1 5444   0.599   2.000   6.770
 1634SOL    HW2 5445   0.473   2.103   6.777
 1635SOL     OW 5446   0.866   2.316   6.228
 1635SOL    HW1 5447   0.834   2.388   6.166
 1635SOL    HW2 5448   0.890   2.235   6.175
 1636SOL     OW 5449   1.017   1.901   6.339
 1636SOL    HW1 5450   0.945   1.906   6.270
 1636SOL    HW2 5451   0.993   1.832   6.408
 1637SOL     OW 5452   1.429   3.035   6.453
 1637SOL    HW1 5453   1.374   2.951   6.446
 1637SOL    HW2 5454   1.455   3.064   6.361
 1638SOL     OW 5455   1.466   2.452   6.578
 1638SOL    HW1 5456   1.436   2.357   6.585
 1638SOL    HW2 5457   1.539   2.468   6.644
 1639SOL     OW 5458   1.857   2.695   5.963
 1639SOL    HW1 5459   1.899   2.631   6.027
 1639SOL    HW2 5460   1.819   2.644   5.885
 1640SOL     OW 5461   0.488   3.247   5.760
 1640SOL    HW1 5462   0.401   3.232   5.807
 1640SOL    HW2 5463   0.471   3.273   5.665
 1641SOL     OW 5464   1.664   3.142   6.243
 1641SOL    HW1 5465   1.763   3.150   6.257
 1641SOL    HW2 5466   1.619   3.226   6.274
 1642SOL     OW 5467   1.390   2.437   5.664
 1642SOL    HW1 5468   1.336   2.416   5.745
 1642SOL    HW2 5469   1.481   2.396   5.673
 1643SOL     OW 5470   0.527   2.118   5.914
 1643SOL    HW1 5471   0.554   2.059   5.839
 1643SOL    HW2 5472   0.527   2.213   5.883
 1644SOL     OW 5473   1.754   3.085   7.174
 1644SOL    HW1 5474   1.845   3.046   7.161
 1644SOL    HW2 5475   1.762   3.181   7.198
 1645SOL     OW 5476   1.064   3.209   6.926
 1645SOL    HW1 5477   0.984   3.186   6.981
 1645SOL    HW2 5478   1.147   3.183   6.975
 1646SOL     OW 5479   1.592   3.491   7.211
 1646SOL    HW1 5480   1.619   3.525   7.121
 1646SOL    HW2 5481   1.671   3.453   7.257
 1647SOL     OW 5482   1.111   3.057   6.686
 1647SOL    HW1 5483   1.071   3.101   6.767
 1647SOL    HW2 5484   1.070   3.094   6.603
 1648SOL     OW 5485   1.638   2.961   6.665
 1648SOL    HW1 5486   1.643   3.042   6.724
 1648SOL    HW2 5487   1.552   2.963   6.614
 1649SOL     OW 5488   0.915   1.951   6.988
 1649SOL    HW1 5489   0.940   1.931   6.893
 1649SOL    HW2 5490   0.987   2.007   7.030
 1650SOL     OW 5491   0.980   2.978   7.305
 1650SOL    HW1 5492   0.881   2.984   7.315
 1650SOL    HW2 5493   1.003   2.898   7.249
 1651SOL     OW 5494   0.705   2.912   5.954
 1651SOL    HW1 5495   0.691   2.919   6.053
 1651SOL    HW2 5496   0.789   2.861   5.936
 1652SOL     OW 5497   0.410   2.675   6.837
 1652SOL    HW1 5498   0.496   2.687   6.887
 1652SOL    HW2 5499   0.368   2.588   6.864
 1653SOL     OW 5500   1.274   2.248   6.848
 1653SOL    HW1 5501   1.295   2.322   6.912
 1653SOL    HW2 5502   1.185   2.265   6.805
 1654SOL     OW 5503   0.064   3.426   6.917
 1654SOL    HW1 5504   0.018   3.508   6.883
 1654SOL    HW2 5505   0.162   3.445   6.926
 1655SOL     OW 5506   0.367   2.962   6.087
 1655SOL    HW1 5507   0.360   3.045   6.031
 1655SOL    HW2 5508   0.371   2.882   6.027
 1656SOL     OW 5509   0.566   2.399   6.451
 1656SOL    HW1 5510   0.578   2.465   6.377
 1656SOL    HW2 5511   0.612   2.433   6.534
 1657SOL     OW 5512   1.252   3.210   5.974
 1657SOL    HW1 5513   1.302   3.287   6.014
 1657SOL    HW2 5514   1.157   3.212   6.006
 1658SOL     OW 5515   1.272   3.307   6.728
 1658SOL    HW1 5516   1.319   3.320   6.815
 1658SOL    HW2 5517   1.206   3.233   6.737
 1659SOL     OW 5518   1.582   2.501   6.058
 1659SOL    HW1 5519   1.551   2.562   6.131
 1659SOL    HW2 5520   1.632   2.553   5.989
 1660SOL     OW 5521   0.354   3.372   6.915
 1660SOL    HW1 5522   0.333   3.328   6.828
 1660SOL    HW2 5523   0.451   3.398   6.918
 1661SOL     OW 5524   0.402   2.613   7.184
 1661SOL    HW1 5525   0.470   2.668   7.137
 1661SOL    HW2 5526   0.442   2.525   7.211
 1662SOL     OW 5527   1.587   2.641   7.256
 1662SOL    HW1 5528   1.495   2.679   7.251
 1662SOL    HW2 5529   1.647   2.688   7.191
 1663SOL     OW 5530   1.013   1.967   7.356
 1663SOL    HW1 5531   1.019   2.052   7.304
 1663SOL    HW2 5532   1.045   1.891   7.299
 1664SOL     OW 5533   0.504   1.912   7.326
 1664SOL    HW1 5534   0.462   1.855   7.256
 1664SOL    HW2 5535   0.438   1.981   7.358
 1665SOL     OW 5536   0.573   2.732   6.615
 1665SOL    HW1 5537   0.617   2.821   6.606
 1665SOL    HW2 5538   0.510   2.732   6.692
 1666SOL     OW 5539   1.360   2.724   6.631
 1666SOL    HW1 5540   1.285   2.724   6.565
 1666SOL    HW2 5541   1.397   2.632   6.640
 1667SOL     OW 5542   1.209   2.387   5.861
 1667SOL    HW1 5543   1.222   2.303   5.915
 1667SOL    HW2 5544   1.180   2.461   5.921
 1668SOL     OW 5545   0.307   2.075   6.817
 1668SOL    HW1 5546   0.284   2.112   6.907
 1668SOL    HW2 5547   0.277   1.980   6.811
 1669SOL     OW 5548   0.037   3.172   6.868
 1669SOL    HW1 5549   0.090   3.123   6.936
 1669SOL    HW2 5550   0.059   3.270   6.873
 1670SOL     OW 5551   0.732   2.496   6.650
 1670SOL    HW1 5552   0.791   2.470   6.574
 1670SOL    HW2 5553   0.704   2.592   6.639
 1671SOL     OW 5554   1.728   2.797   7.440
 1671SOL    HW1 5555   1.682   2.790   7.351
 1671SOL    HW2 5556   1.666   2.841   7.506
 1672SOL     OW 5557   0.307   1.925   6.204
 1672SOL    HW1 5558   0.296   2.019   6.237
 1672SOL    HW2 5559   0.302   1.862   6.281
 1673SOL     OW 5560   1.622   2.229   5.960
 1673SOL    HW1 5561   1.624   2.153   6.024
 1673SOL    HW2 5562   1.574   2.306   6.000
 1674SOL     OW 5563   1.023   2.628   6.552
 1674SOL    HW1 5564   1.038   2.649   6.648
 1674SOL    HW2 5565   0.993   2.533   6.543
 1675SOL     OW 5566   0.980   3.435   7.286
 1675SOL    HW1 5567   0.960   3.479   7.198
 1675SOL    HW2 5568   1.019   3.344   7.270
 1676SOL     OW 5569   1.859   3.380   7.191
 1676SOL    HW1 5570   1.873   3.407   7.096
 1676SOL    HW2 5571   1.942   3.402   7.244
 1677SOL     OW 5572   0.350   2.760   7.390
 1677SOL    HW1 5573   0.426   2.804   7.438
 1677SOL    HW2 5574   0.385   2.713   7.308
 1678SOL     OW 5575   1.540   2.136   5.711
 1678SOL    HW1 5576   1.479   2.061   5.734
 1678SOL    HW2 5577   1.562   2.188   5.794
 1679SOL     OW 5578   1.303   2.700   5.628
 1679SOL    HW1 5579   1.337   2.607   5.643
 1679SOL    HW2 5580   1.321   2.727   5.533
 1680SOL     OW 5581   1.068   3.195   6.435
 1680SOL    HW1 5582   1.075   3.111   6.380
 1680SOL    HW2 5583   1.130   3.264   6.399
 1681SOL     OW 5584   0.319   2.672   6.535
 1681SOL    HW1 5585   0.412   2.708   6.540
 1681SOL    HW2 5586   0.313   2.587   6.587
 1682SOL     OW 5587   0.339   2.371   6.592
 1682SOL    HW1 5588   0.287   2.288   6.575
 1682SOL    HW2 5589   0.416   2.376   6.528
 1683SOL     OW 5590   1.138   2.242   7.264
 1683SOL    HW1 5591   1.093   2.305   7.328
 1683SOL    HW2 5592   1.231   2.273   7.247
 1684SOL     OW 5593   1.160   2.069   7.063
 1684SOL    HW1 5594   1.160   2.133   7.140
 1684SOL    HW2 5595   1.188   2.117   6.980
 1685SOL     OW 5596   0.008   3.188   5.786
 1685SOL    HW1 5597  -0.085   3.209   5.755
 1685SOL    HW2 5598   0.018   3.089   5.799
 1686SOL     OW 5599   0.088   3.663   6.513
 1686SOL    HW1 5600   0.046   3.577   6.486
 1686SOL    HW2 5601   0.182   3.666   6.479
 1687SOL     OW 5602   0.504   3.430   6.496
 1687SOL    HW1 5603   0.570   3.504   6.505
 1687SOL    HW2 5604   0.548   3.351   6.454
 1688SOL     OW 5605   1.002   2.658   6.824
 1688SOL    HW1 5606   1.043   2.626   6.910
 1688SOL    HW2 5607   0.906   2.631   6.821
 1689SOL     OW 5608   0.040   2.406   6.700
 1689SOL    HW1 5609   0.125   2.373   6.659
 1689SOL    HW2 5610   0.053   2.421   6.798
 1690SOL     OW 5611   0.189   2.382   7.308
 1690SOL    HW1 5612   0.248   2.342   7.238
 1690SOL    HW2 5613   0.131   2.453   7.267
 1691SOL     OW 5614   1.369   2.812   7.246
 1691SOL    HW1 5615   1.408   2.901   7.266
 1691SOL    HW2 5616   1.379   2.792   7.149
 1692SOL     OW 5617   0.815   2.434   5.911
 1692SOL    HW1 5618   0.822   2.345   5.865
 1692SOL    HW2 5619   0.721   2.468   5.903
 1693SOL     OW 5620   1.657   2.466   6.792
 1693SOL    HW1 5621   1.619   2.397   6.854
 1693SOL    HW2 5622   1.739   2.430   6.748
 1694SOL     OW 5623   0.252   3.426   7.330
 1694SOL    HW1 5624   0.222   3.483   7.406
 1694SOL    HW2 5625   0.245   3.329   7.356
 1695SOL     OW 5626   0.671   2.326   6.855
 1695SOL    HW1 5627   0.637   2.237   6.825
 1695SOL    HW2 5628   0.697   2.380   6.775
 1696SOL     OW 5629   0.930   3.540   7.051
 1696SOL    HW1 5630   0.906   3.522   6.956
 1696SOL    HW2 5631   0.960   3.634   7.061
 1697SOL     OW 5632   0.473   2.362   5.777
 1697SOL    HW1 5633   0.534   2.442   5.781
 1697SOL    HW2 5634   0.378   2.393   5.784
 1698SOL     OW 5635   0.159   2.999   7.052
 1698SOL    HW1 5636   0.181   2.938   7.128
 1698SOL    HW2 5637   0.169   2.950   6.966
 1699SOL     OW 5638   1.347   2.921   6.820
 1699SOL    HW1 5639   1.371   2.858   6.746
 1699SOL    HW2 5640   1.257   2.961   6.802
 1700SOL     OW 5641   1.302   2.717   5.895
 1700SOL    HW1 5642   1.216   2.686   5.937
 1700SOL    HW2 5643   1.298   2.703   5.796
 1701SOL     OW 5644   1.759   3.609   6.740
 1701SOL    HW1 5645   1.820   3.639   6.667
 1701SOL    HW2 5646   1.721   3.520   6.718
 1702SOL     OW 5647   1.252   3.593   6.714
 1702SOL    HW1 5648   1.336   3.598   6.660
 1702SOL    HW2 5649   1.229   3.497   6.732
 1703SOL     OW 5650   0.083   3.120   6.608
 1703SOL    HW1 5651   0.078   3.119   6.708
 1703SOL    HW2 5652   0.000   3.079   6.570
 1704SOL     OW 5653   0.688   3.524   7.302
 1704SOL    HW1 5654   0.632   3.605   7.311
 1704SOL    HW2 5655   0.740   3.528   7.216
 1705SOL     OW 5656   1.726   1.997   6.109
 1705SOL    HW1 5657   1.799   1.980   6.042
 1705SOL    HW2 5658   1.695   1.910   6.147
 1706SOL     OW 5659   1.388   3.435   6.063
 1706SOL    HW1 5660   1.455   3.447   5.989
 1706SOL    HW2 5661   1.348   3.524   6.086
 1707SOL     OW 5662   0.130   3.656   7.437
 1707SOL    HW1 5663   0.089   3.582   7.490
 1707SOL    HW2 5664   0.194   3.707   7.495
 1708SOL     OW 5665   1.280   2.789   6.258
 1708SOL    HW1 5666   1.340   2.708   6.260
 1708SOL    HW2 5667   1.320   2.858   6.198
 1709SOL     OW 5668   0.830   3.135   7.008
 1709SOL    HW1 5669   0.825   3.168   7.103
 1709SOL    HW2 5670   0.744   3.154   6.962
 1710SOL     OW 5671   0.672   3.478   5.740
 1710SOL    HW1 5672   0.681   3.488   5.641
 1710SOL    HW2 5673   0.632   3.389   5.761
 1711SOL     OW 5674   1.650   3.582   6.980
 1711SOL    HW1 5675   1.703   3.592   6.896
 1711SOL    HW2 5676   1.623   3.672   7.014
 1712SOL     OW 5677   1.841   2.037   6.549
 1712SOL    HW1 5678   1.880   1.952   6.513
 1712SOL    HW2 5679   1.743   2.039   6.530
 1713SOL     OW 5680   0.263   2.188   6.306
 1713SOL    HW1 5681   0.184   2.239   6.272
 1713SOL    HW2 5682   0.254   2.173   6.404
 1714SOL     OW 5683   1.194   3.474   5.617
 1714SOL    HW1 5684   1.200   3.381   5.654
 1714SOL    HW2 5685   1.135   3.474   5.537
 1715SOL     OW 5686   0.822   2.864   6.958
 1715SOL    HW1 5687   0.862   2.863   6.866
 1715SOL    HW2 5688   0.832   2.956   6.998
 1716SOL     OW 5689   0.916   2.772   5.877
 1716SOL    HW1 5690   0.979   2.810   5.809
 1716SOL    HW2 5691   0.956   2.689   5.916
 1717SOL     OW 5692   1.504   3.469   5.630
 1717SOL    HW1 5693   1.412   3.506   5.637
 1717SOL    HW2 5694   1.542   3.489   5.540
 1718SOL     OW 5695   0.372   3.150   7.076
 1718SOL    HW1 5696   0.359   3.243   7.042
 1718SOL    HW2 5697   0.288   3.098   7.063
 1719SOL     OW 5698   1.614   3.154   6.875
 1719SOL    HW1 5699   1.674   3.157   6.955
 1719SOL    HW2 5700   1.539   3.218   6.888
 1720SOL     OW 5701   1.039   2.960   6.282
 1720SOL    HW1 5702   0.969   2.913   6.336
 1720SOL    HW2 5703   1.098   2.892   6.239
 1721SOL     OW 5704   1.014   2.098   6.557
 1721SOL    HW1 5705   1.006   2.062   6.464
 1721SOL    HW2 5706   1.012   2.022   6.622
 1722SOL     OW 5707   0.590   3.349   6.077
 1722SOL    HW1 5708   0.632   3.291   6.007
 1722SOL    HW2 5709   0.546   3.428   6.033
 1723SOL     OW 5710   1.709   2.247   6.967
 1723SOL    HW1 5711   1.782   2.316   6.971
 1723SOL    HW2 5712   1.737   2.172   6.908
 1724SOL     OW 5713   0.255   3.210   5.876
 1724SOL    HW1 5714   0.159   3.211   5.849
 1724SOL    HW2 5715   0.267   3.263   5.960
 1725SOL     OW 5716   0.105   2.875   7.312
 1725SOL    HW1 5717   0.028   2.842   7.366
 1725SOL    HW2 5718   0.190   2.845   7.354
 1726SOL     OW 5719   0.672   2.065   7.075
 1726SOL    HW1 5720   0.762   2.049   7.035
 1726SOL    HW2 5721   0.680   2.070   7.174
 1727SOL     OW 5722   0.075   2.207   5.619
 1727SOL    HW1 5723  -0.017   2.179   5.590
 1727SOL    HW2 5724   0.106   2.284   5.563
 1728SOL     OW 5725   1.440   2.718   6.984
 1728SOL    HW1 5726   1.383   2.770   6.921
 1728SOL    HW2 5727   1.536   2.730   6.960
 1729SOL     OW 5728   0.072   2.028   5.904
 1729SOL    HW1 5729   0.055   2.111   5.850
 1729SOL    HW2 5730   0.162   1.991   5.882
 1730SOL     OW 5731   1.183   3.197   5.705
 1730SOL    HW1 5732   1.084   3.186   5.707
 1730SOL    HW2 5733   1.217   3.212   5.798
 1731SOL     OW 5734   0.613   2.704   7.017
 1731SOL    HW1 5735   0.669   2.785   7.000
 1731SOL    HW2 5736   0.672   2.624   7.020
 1732SOL     OW 5737   1.493   3.629   6.545
 1732SOL    HW1 5738   1.526   3.693   6.476
 1732SOL    HW2 5739   1.559   3.623   6.620
 1733SOL     OW 5740   0.716   2.427   7.294
 1733SOL    HW1 5741   0.735   2.492   7.368
 1733SOL    HW2 5742   0.776   2.347   7.303
 1734SOL     OW 5743   1.450   3.082   7.219
 1734SOL    HW1 5744   1.441   3.072   7.318
 1734SOL    HW2 5745   1.546   3.075   7.193
 1735SOL     OW 5746   0.390   3.603   7.146
 1735SOL    HW1 5747   0.299   3.644   7.144
 1735SOL    HW2 5748   0.383   3.509   7.178
 1736SOL     OW 5749   1.674   2.745   6.840
 1736SOL    HW1 5750   1.647   2.656   6.803
 1736SOL    HW2 5751   1.675   2.813   6.767
 1737SOL     OW 5752   1.225   2.187   6.035
 1737SOL    HW1 5753   1.290   2.113   6.024
 1737SOL    HW2 5754   1.245   2.237   6.119
 1738SOL     OW 5755   0.594   2.607   6.238
 1738SOL    HW1 5756   0.644   2.692   6.219
 1738SOL    HW2 5757   0.506   2.609   6.190
 1739SOL     OW 5758   1.777   2.204   7.228
 1739SOL    HW1 5759   1.760   2.235   7.134
 1739SOL    HW2 5760   1.693   2.167   7.266
 1740SOL     OW 5761   1.730   2.796   7.103
 1740SOL    HW1 5762   1.768   2.887   7.118
 1740SOL    HW2 5763   1.722   2.779   7.004
 1741SOL     OW 5764   0.859   3.236   5.602
 1741SOL    HW1 5765   0.813   3.251   5.690
 1741SOL    HW2 5766   0.903   3.321   5.572
 1742SOL     OW 5767   0.661   3.652   6.539
 1742SOL    HW1 5768   0.615   3.740   6.526
 1742SOL    HW2 5769   0.760   3.664   6.532
 1743SOL     OW 5770   0.859   2.818   6.447
 1743SOL    HW1 5771   0.913   2.749   6.495
 1743SOL    HW2 5772   0.827   2.887   6.513
 1744SOL     OW 5773   1.083   2.846   5.673
 1744SOL    HW1 5774   1.060   2.899   5.591
 1744SOL    HW2 5775   1.164   2.790   5.654
 1745SOL     OW 5776   1.861   3.431   6.437
 1745SOL    HW1 5777   1.790   3.419   6.367
 1745SOL    HW2 5778   1.862   3.352   6.497
 1746SOL     OW 5779   0.221   3.176   7.430
 1746SOL    HW1 5780   0.156   3.103   7.409
 1746SOL    HW2 5781   0.225   3.190   7.528
 1747SOL     OW 5782   0.079   3.102   6.239
 1747SOL    HW1 5783   0.078   3.055   6.327
 1747SOL    HW2 5784   0.161   3.074   6.188
 1748SOL     OW 5785   0.672   3.253   7.210
 1748SOL    HW1 5786   0.594   3.203   7.248
 1748SOL    HW2 5787   0.669   3.348   7.241
 1749SOL     OW 5788   1.824   2.054   6.813
 1749SOL    HW1 5789   1.820   1.964   6.857
 1749SOL    HW2 5790   1.827   2.043   6.714
 1750SOL     OW 5791   0.428   2.286   6.106
 1750SOL    HW1 5792   0.458   2.214   6.044
 1750SOL    HW2 5793   0.389   2.246   6.189
 1751SOL     OW 5794   1.705   3.349   6.690
 1751SOL    HW1 5795   1.612   3.324   6.663
 1751SOL    HW2 5796   1.731   3.299   6.772
 1752SOL     OW 5797   0.317   2.409   6.866
 1752SOL    HW1 5798   0.355   2.350   6.938
 1752SOL    HW2 5799   0.357   2.383   6.778
 1753SOL     OW 5800   0.812   3.448   6.273
 1753SOL    HW1 5801   0.844   3.458   6.179
 1753SOL    HW2 5802   0.733   3.386   6.275
 1754SOL     OW 5803   1.424   2.076   6.698
 1754SOL    HW1 5804   1.476   2.011   6.753
 1754SOL    HW2 5805   1.375   2.139   6.759
 1755SOL     OW 5806   1.001   1.896   6.740
 1755SOL    HW1 5807   0.938   1.824   6.709
 1755SOL    HW2 5808   1.094   1.860   6.740
 1756SOL     OW 5809   0.770   3.192   5.887
 1756SOL    HW1 5810   0.724   3.105   5.904
 1756SOL    HW2 5811   0.861   3.189   5.928
 1757SOL     OW 5812   0.618   3.429   6.870
 1757SOL    HW1 5813   0.613   3.511   6.927
 1757SOL    HW2 5814   0.707   3.426   6.825
 1758SOL     OW 5815   1.352   1.914   5.754
 1758SOL    HW1 5816   1.387   1.873   5.670
 1758SOL    HW2 5817   1.262   1.876   5.774
 1759SOL     OW 5818   1.300   2.315   6.277
 1759SOL    HW1 5819   1.241   2.395   6.281
 1759SOL    HW2 5820   1.315   2.280   6.370
 1760SOL     OW 5821   1.593   2.083   6.468
 1760SOL    HW1 5822   1.509   2.082   6.522
 1760SOL    HW2 5823   1.595   2.166   6.412
 1761SOL     OW 5824   0.039   2.939   5.886
 1761SOL    HW1 5825   0.138   2.928   5.877
 1761SOL    HW2 5826  -0.001   2.853   5.918
 1762SOL     OW 5827   0.875   3.508   5.923
 1762SOL    HW1 5828   0.798   3.473   5.869
 1762SOL    HW2 5829   0.843   3.579   5.985
 1763SOL     OW 5830   0.230   2.490   7.561
 1763SOL    HW1 5831   0.137   2.488   7.598
 1763SOL    HW2 5832   0.231   2.451   7.469
 1764SOL     OW 5833   1.755   2.469   7.679
 1764SOL    HW1 5834   1.743   2.456   7.580
 1764SOL    HW2 5835   1.725   2.388   7.728
 1765SOL     OW 5836   0.231   3.575   7.931
 1765SOL    HW1 5837   0.265   3.652   7.985
 1765SOL    HW2 5838   0.275   3.575   7.841
 1766SOL     OW 5839   0.230   3.296   7.986
 1766SOL    HW1 5840   0.204   3.392   7.986
 1766SOL    HW2 5841   0.159   3.242   8.031
 1767SOL     OW 5842   0.606   2.826   7.571
 1767SOL    HW1 5843   0.613   2.910   7.517
 1767SOL    HW2 5844   0.652   2.839   7.659
 1768SOL     OW 5845   1.842   3.629   7.807
 1768SOL    HW1 5846   1.896   3.600   7.887
 1768SOL    HW2 5847   1.872   3.719   7.778
 1769SOL     OW 5848   0.027   3.458   7.565
 1769SOL    HW1 5849   0.008   3.362   7.586
 1769SOL    HW2 5850  -0.006   3.516   7.640
 1770SOL     OW 5851   1.689   2.784   8.060
 1770SOL    HW1 5852   1.784   2.755   8.068
 1770SOL    HW2 5853   1.681   2.849   7.985
 1771SOL     OW 5854   1.641   2.970   7.880
 1771SOL    HW1 5855   1.727   2.972   7.828
 1771SOL    HW2 5856   1.655   3.017   7.968
 1772SOL     OW 5857   0.809   1.866   7.950
 1772SOL    HW1 5858   0.849   1.957   7.941
 1772SOL    HW2 5859   0.709   1.874   7.956
 1773SOL     OW 5860   1.525   2.861   7.638
 1773SOL    HW1 5861   1.462   2.785   7.651
 1773SOL    HW2 5862   1.573   2.879   7.724
 1774SOL     OW 5863   0.598   2.591   7.718
 1774SOL    HW1 5864   0.622   2.660   7.650
 1774SOL    HW2 5865   0.520   2.624   7.772
 1775SOL     OW 5866   1.576   3.524   7.755
 1775SOL    HW1 5867   1.665   3.570   7.758
 1775SOL    HW2 5868   1.555   3.500   7.660
 1776SOL     OW 5869   0.076   2.673   8.237
 1776SOL    HW1 5870   0.175   2.661   8.246
 1776SOL    HW2 5871   0.052   2.768   8.258
 1777SOL     OW 5872   0.865   2.210   7.643
 1777SOL    HW1 5873   0.924   2.273   7.594
 1777SOL    HW2 5874   0.884   2.116   7.614
 1778SOL     OW 5875   0.321   2.805   7.690
 1778SOL    HW1 5876   0.403   2.844   7.648
 1778SOL    HW2 5877   0.294   2.723   7.641
 1779SOL     OW 5878   1.111   3.638   7.685
 1779SOL    HW1 5879   1.051   3.576   7.735
 1779SOL    HW2 5880   1.142   3.594   7.600
 1780SOL     OW 5881   1.632   3.239   7.529
 1780SOL    HW1 5882   1.600   3.333   7.519
 1780SOL    HW2 5883   1.556   3.176   7.517
 1781SOL     OW 5884   0.464   3.605   7.771
 1781SOL    HW1 5885   0.497   3.644   7.857
 1781SOL    HW2 5886   0.540   3.598   7.706
 1782SOL     OW 5887   1.400   1.969   7.874
 1782SOL    HW1 5888   1.376   1.932   7.784
 1782SOL    HW2 5889   1.499   1.985   7.878
 1783SOL     OW 5890   0.382   2.562   7.928
 1783SOL    HW1 5891   0.427   2.472   7.925
 1783SOL    HW2 5892   0.288   2.551   7.961
 1784SOL     OW 5893   0.614   1.984   7.565
 1784SOL    HW1 5894   0.712   1.962   7.572
 1784SOL    HW2 5895   0.583   1.967   7.472
 1785SOL     OW 5896   0.539   1.926   7.960
 1785SOL    HW1 5897   0.458   1.927   8.018
 1785SOL    HW2 5898   0.542   2.009   7.905
 1786SOL     OW 5899   1.434   3.050   7.489
 1786SOL    HW1 5900   1.466   2.974   7.546
 1786SOL    HW2 5901   1.342   3.077   7.519
 1787SOL     OW 5902   0.297   1.897   7.619
 1787SOL    HW1 5903   0.346   1.981   7.598
 1787SOL    HW2 5904   0.359   1.832   7.664
 1788SOL     OW 5905   0.935   2.098   7.928
 1788SOL    HW1 5906   0.887   2.139   7.850
 1788SOL    HW2 5907   1.034   2.096   7.909
 1789SOL     OW 5908   0.459   3.014   8.189
 1789SOL    HW1 5909   0.388   2.987   8.254
 1789SOL    HW2 5910   0.433   2.986   8.096
 1790SOL     OW 5911   1.271   3.659   8.039
 1790SOL    HW1 5912   1.315   3.723   7.975
 1790SOL    HW2 5913   1.221   3.711   8.109
 1791SOL     OW 5914   1.032   2.411   7.464
 1791SOL    HW1 5915   0.991   2.493   7.425
 1791SOL    HW2 5916   1.096   2.437   7.537
 1792SOL     OW 5917   1.857   2.695   7.825
 1792SOL    HW1 5918   1.899   2.631   7.889
 1792SOL    HW2 5919   1.819   2.644   7.747
 1793SOL     OW 5920   0.488   3.247   7.622
 1793SOL    HW1 5921   0.401   3.232   7.669
 1793SOL    HW2 5922   0.471   3.273   7.527
 1794SOL     OW 5923   1.390   2.437   7.526
 1794SOL    HW1 5924   1.336   2.416   7.607
 1794SOL    HW2 5925   1.481   2.396   7.535
 1795SOL     OW 5926   0.527   2.118   7.776
 1795SOL    HW1 5927   0.554   2.059   7.701
 1795SOL    HW2 5928   0.527   2.213   7.745
 1796SOL     OW 5929   0.705   2.912   7.816
 1796SOL    HW1 5930   0.691   2.919   7.915
 1796SOL    HW2 5931   0.789   2.861   7.798
 1797SOL     OW 5932   0.367   2.962   7.949
 1797SOL    HW1 5933   0.360   3.045   7.893
 1797SOL    HW2 5934   0.371   2.882   7.889
 1798SOL     OW 5935   1.252   3.210   7.836
 1798SOL    HW1 5936   1.302   3.287   7.876
 1798SOL    HW2 5937   1.157   3.212   7.868
 1799SOL     OW 5938   1.582   2.501   7.920
 1799SOL    HW1 5939   1.551   2.562   7.993
 1799SOL    HW2 5940   1.632   2.553   7.851
 1800SOL     OW 5941   1.209   2.387   7.723
 1800SOL    HW1 5942   1.222   2.303   7.777
 1800SOL    HW2 5943   1.180   2.461   7.783
 1801SOL     OW 5944   1.622   2.229   7.822
 1801SOL    HW1 5945   1.624   2.153   7.886
 1801SOL    HW2 5946   1.574   2.306   7.862
 1802SOL     OW 5947   1.540   2.136   7.573
 1802SOL    HW1 5948   1.479   2.061   7.596
 1802SOL    HW2 5949   1.562   2.188   7.656
 1803SOL     OW 5950   1.303   2.700   7.490
 1803SOL    HW1 5951   1.337   2.607   7.505
 1803SOL    HW2 5952   1.321   2.727   7.395
 1804SOL     OW 5953   0.008   3.188   7.648
 1804SOL    HW1 5954  -0.085   3.209   7.617
 1804SOL    HW2 5955   0.018   3.089   7.661
 1805SOL     OW 5956   0.815   2.434   7.773
 1805SOL    HW1 5957   0.822   2.345   7.727
 1805SOL    HW2 5958   0.721   2.468   7.765
 1806SOL     OW 5959   0.473   2.362   7.639
 1806SOL    HW1 5960   0.534   2.442   7.643
 1806SOL    HW2 5961   0.378   2.393   7.646
 1807SOL     OW 5962   1.302   2.717   7.757
 1807SOL    HW1 5963   1.216   2.686   7.799
 1807SOL    HW2 5964   1.298   2.703   7.658
 1808SOL     OW 5965   1.726   1.997   7.971
 1808SOL    HW1 5966   1.799   1.980   7.904
 1808SOL    HW2 5967   1.695   1.910   8.009
 1809SOL     OW 5968   1.388   3.435   7.925
 1809SOL    HW1 5969   1.455   3.447   7.851
 1809SOL    HW2 5970   1.348   3.524   7.948
 1810SOL     OW 5971   0.672   3.478   7.602
 1810SOL    HW1 5972   0.681   3.488   7.503
 1810SOL    HW2 5973   0.632   3.389   7.623
 1811SOL     OW 5974   1.194   3.474   7.479
 1811SOL    HW1 5975   1.200   3.381   7.516
 1811SOL    HW2 5976   1.135   3.474   7.399
 1812SOL     OW 5977   0.916   2.772   7.739
 1812SOL    HW1 5978   0.979   2.810   7.671
 1812SOL    HW2 5979   0.956   2.689   7.778
 1813SOL     OW 5980   1.504   3.469   7.492
 1813SOL    HW1 5981   1.412   3.506   7.499
 1813SOL    HW2 5982   1.542   3.489   7.402
 1814SOL     OW 5983   0.590   3.349   7.939
 1814SOL    HW1 5984   0.632   3.291   7.869
 1814SOL    HW2 5985   0.546   3.428   7.895
 1815SOL     OW 5986   0.255   3.210   7.738
 1815SOL    HW1 5987   0.159   3.211   7.711
 1815SOL    HW2 5988   0.267   3.263   7.822
 1816SOL     OW 5989   0.075   2.207   7.481
 1816SOL    HW1 5990  -0.017   2.179   7.452
 1816SOL    HW2 5991   0.106   2.284   7.425
 1817SOL     OW 5992   0.072   2.028   7.766
 1817SOL    HW1 5993   0.055   2.111   7.712
 1817SOL    HW2 5994   0.162   1.991   7.744
 1818SOL     OW 5995   1.183   3.197   7.567
 1818SOL    HW1 5996   1.084   3.186   7.569
 1818SOL    HW2 5997   1.217   3.212   7.660
 1819SOL     OW 5998   1.225   2.187   7.897
 1819SOL    HW1 5999   1.290   2.113   7.886
 1819SOL    HW2 6000   1.245   2.237   7.981
 1820SOL     OW 6001   0.594   2.607   8.100
 1820SOL    HW1 6002   0.644   2.692   8.081
 1820SOL    HW2 6003   0.506   2.609   8.052
 1821SOL     OW 6004   0.859   3.236   7.464
 1821SOL    HW1 6005   0.813   3.251   7.552
 1821SOL    HW2 6006   0.903   3.321   7.434
 1822SOL     OW 6007   1.083   2.846   7.535
 1822SOL    HW1 6008   1.060   2.899   7.453
 1822SOL    HW2 6009   1.164   2.790   7.516
 1823SOL     OW 6010   0.428   2.286   7.968
 1823SOL    HW1 6011   0.458   2.214   7.906
 1823SOL    HW2 6012   0.389   2.246   8.051
 1824SOL     OW 6013   0.770   3.192   7.749
 1824SOL    HW1 6014   0.724   3.105   7.766
 1824SOL    HW2 6015   0.861   3.189   7.790
 1825SOL     OW 6016   1.352   1.914   7.616
 1825SOL    HW1 6017   1.387   1.873   7.532
 1825SOL    HW2 6018   1.262   1.876   7.636
 1826SOL     OW 6019   0.039   2.939   7.748
 1826SOL    HW1 6020   0.138   2.928   7.739
 1826SOL    HW2 6021  -0.001   2.853   7.780
 1827SOL     OW 6022   0.875   3.508   7.785
 1827SOL    HW1 6023   0.798   3.473   7.731
 1827SOL    HW2 6024   0.843   3.579   7.847
 1828SOL     OW 6025   0.230   4.352   0.113
 1828SOL    HW1 6026   0.137   4.350   0.150
 1828SOL    HW2 6027   0.231   4.313   0.021
 1829SOL     OW 6028   0.225   3.999   0.996
 1829SOL    HW1 6029   0.260   3.982   1.088
 1829SOL    HW2 6030   0.137   3.954   0.984
 1830SOL     OW 6031   0.019   4.092   0.647
 1830SOL    HW1 6032  -0.063   4.135   0.686
 1830SOL    HW2 6033  -0.009   4.019   0.584
 1831SOL     OW 6034   0.569   4.999   1.165
 1831SOL    HW1 6035   0.476   4.992   1.128
 1831SOL    HW2 6036   0.580   5.088   1.209
 1832SOL     OW 6037   1.555   5.235   0.703
 1832SOL    HW1 6038   1.498   5.219   0.784
 1832SOL    HW2 6039   1.496   5.245   0.623
 1833SOL     OW 6040   1.135   4.427   0.717
 1833SOL    HW1 6041   1.192   4.505   0.692
 1833SOL    HW2 6042   1.075   4.453   0.793
 1834SOL     OW 6043   1.755   4.331   0.231
 1834SOL    HW1 6044   1.743   4.318   0.132
 1834SOL    HW2 6045   1.725   4.250   0.280
 1835SOL     OW 6046   0.768   4.868   1.023
 1835SOL    HW1 6047   0.690   4.885   1.083
 1835SOL    HW2 6048   0.802   4.955   0.987
 1836SOL     OW 6049   0.850   4.522   1.823
 1836SOL    HW1 6050   0.846   4.598   1.888
 1836SOL    HW2 6051   0.872   4.558   1.732
 1837SOL     OW 6052   0.685   4.736   0.665
 1837SOL    HW1 6053   0.754   4.720   0.735
 1837SOL    HW2 6054   0.612   4.793   0.703
 1838SOL     OW 6055   0.686   4.885   1.803
 1838SOL    HW1 6056   0.746   4.964   1.817
 1838SOL    HW2 6057   0.600   4.916   1.762
 1839SOL     OW 6058   0.335   5.159   1.061
 1839SOL    HW1 6059   0.257   5.128   1.008
 1839SOL    HW2 6060   0.393   5.217   1.004
 1840SOL     OW 6061   1.460   5.229   1.339
 1840SOL    HW1 6062   1.484   5.323   1.365
 1840SOL    HW2 6063   1.444   5.175   1.421
 1841SOL     OW 6064   0.438   4.116   1.499
 1841SOL    HW1 6065   0.520   4.060   1.508
 1841SOL    HW2 6066   0.357   4.058   1.503
 1842SOL     OW 6067   1.603   4.171   0.737
 1842SOL    HW1 6068   1.529   4.217   0.687
 1842SOL    HW2 6069   1.654   4.239   0.790
 1843SOL     OW 6070   1.127   5.065   1.690
 1843SOL    HW1 6071   1.174   5.065   1.778
 1843SOL    HW2 6072   1.079   4.978   1.679
 1844SOL     OW 6073   0.230   5.158   0.538
 1844SOL    HW1 6074   0.204   5.254   0.538
 1844SOL    HW2 6075   0.159   5.104   0.583
 1845SOL     OW 6076   0.240   4.815   0.886
 1845SOL    HW1 6077   0.254   4.731   0.938
 1845SOL    HW2 6078   0.185   4.879   0.941
 1846SOL     OW 6079   0.606   4.688   0.123
 1846SOL    HW1 6080   0.613   4.772   0.069
 1846SOL    HW2 6081   0.652   4.701   0.211
 1847SOL     OW 6082   1.594   3.838   1.480
 1847SOL    HW1 6083   1.576   3.905   1.408
 1847SOL    HW2 6084   1.591   3.884   1.569
 1848SOL     OW 6085   0.122   4.367   0.563
 1848SOL    HW1 6086   0.077   4.279   0.580
 1848SOL    HW2 6087   0.121   4.421   0.647
 1849SOL     OW 6088   0.027   5.320   0.117
 1849SOL    HW1 6089   0.008   5.224   0.138
 1849SOL    HW2 6090  -0.006   5.378   0.192
 1850SOL     OW 6091   1.689   4.646   0.612
 1850SOL    HW1 6092   1.784   4.617   0.620
 1850SOL    HW2 6093   1.681   4.711   0.537
 1851SOL     OW 6094   1.641   4.832   0.432
 1851SOL    HW1 6095   1.727   4.834   0.380
 1851SOL    HW2 6096   1.655   4.879   0.520
 1852SOL     OW 6097   0.113   4.461   1.597
 1852SOL    HW1 6098   0.201   4.448   1.642
 1852SOL    HW2 6099   0.100   4.558   1.575
 1853SOL     OW 6100   0.613   5.089   0.726
 1853SOL    HW1 6101   0.564   5.002   0.735
 1853SOL    HW2 6102   0.590   5.132   0.639
 1854SOL     OW 6103   1.293   4.952   1.423
 1854SOL    HW1 6104   1.330   4.879   1.365
 1854SOL    HW2 6105   1.345   4.957   1.508
 1855SOL     OW 6106   0.809   3.728   0.502
 1855SOL    HW1 6107   0.849   3.819   0.493
 1855SOL    HW2 6108   0.709   3.736   0.508
 1856SOL     OW 6109   0.197   4.700   1.264
 1856SOL    HW1 6110   0.286   4.655   1.250
 1856SOL    HW2 6111   0.124   4.635   1.245
 1857SOL     OW 6112   1.525   4.723   0.190
 1857SOL    HW1 6113   1.462   4.647   0.203
 1857SOL    HW2 6114   1.573   4.741   0.276
 1858SOL     OW 6115   0.317   3.975   1.801
 1858SOL    HW1 6116   0.388   4.046   1.807
 1858SOL    HW2 6117   0.229   4.014   1.829
 1859SOL     OW 6118   1.466   5.141   0.953
 1859SOL    HW1 6119   1.407   5.147   1.033
 1859SOL    HW2 6120   1.451   5.053   0.907
 1860SOL     OW 6121   0.598   4.453   0.270
 1860SOL    HW1 6122   0.622   4.522   0.202
 1860SOL    HW2 6123   0.520   4.486   0.324
 1861SOL     OW 6124   1.281   4.069   0.944
 1861SOL    HW1 6125   1.195   4.019   0.931
 1861SOL    HW2 6126   1.343   4.015   1.000
 1862SOL     OW 6127   0.807   4.329   1.465
 1862SOL    HW1 6128   0.760   4.326   1.554
 1862SOL    HW2 6129   0.756   4.274   1.399
 1863SOL     OW 6130   1.394   4.193   1.674
 1863SOL    HW1 6131   1.374   4.236   1.762
 1863SOL    HW2 6132   1.472   4.131   1.683
 1864SOL     OW 6133   0.973   4.614   1.572
 1864SOL    HW1 6134   1.019   4.530   1.543
 1864SOL    HW2 6135   0.917   4.648   1.497
 1865SOL     OW 6136   0.991   4.134   1.242
 1865SOL    HW1 6137   0.914   4.168   1.296
 1865SOL    HW2 6138   0.957   4.083   1.163
 1866SOL     OW 6139   1.041   4.425   0.429
 1866SOL    HW1 6140   1.067   4.421   0.525
 1866SOL    HW2 6141   0.956   4.374   0.415
 1867SOL     OW 6142   0.076   4.535   0.789
 1867SOL    HW1 6143   0.175   4.523   0.798
 1867SOL    HW2 6144   0.052   4.630   0.810
 1868SOL     OW 6145   0.865   4.072   0.195
 1868SOL    HW1 6146   0.924   4.135   0.146
 1868SOL    HW2 6147   0.884   3.978   0.166
 1869SOL     OW 6148   1.719   4.309   1.831
 1869SOL    HW1 6149   1.693   4.398   1.795
 1869SOL    HW2 6150   1.717   4.241   1.758
 1870SOL     OW 6151   1.362   4.868   0.545
 1870SOL    HW1 6152   1.445   4.839   0.497
 1870SOL    HW2 6153   1.313   4.935   0.489
 1871SOL     OW 6154   0.550   3.920   0.885
 1871SOL    HW1 6155   0.545   3.915   0.985
 1871SOL    HW2 6156   0.552   4.016   0.856
 1872SOL     OW 6157   1.008   5.180   0.477
 1872SOL    HW1 6158   0.962   5.252   0.425
 1872SOL    HW2 6159   1.004   5.200   0.575
 1873SOL     OW 6160   1.795   4.790   0.873
 1873SOL    HW1 6161   1.733   4.775   0.797
 1873SOL    HW2 6162   1.743   4.801   0.958
 1874SOL     OW 6163   1.227   5.274   1.506
 1874SOL    HW1 6164   1.233   5.197   1.570
 1874SOL    HW2 6165   1.175   5.248   1.426
 1875SOL     OW 6166   0.321   4.667   0.242
 1875SOL    HW1 6167   0.403   4.706   0.200
 1875SOL    HW2 6168   0.294   4.585   0.193
 1876SOL     OW 6169   1.458   4.459   0.728
 1876SOL    HW1 6170   1.453   4.394   0.803
 1876SOL    HW2 6171   1.538   4.518   0.741
 1877SOL     OW 6172   0.461   4.990   1.727
 1877SOL    HW1 6173   0.411   4.991   1.641
 1877SOL    HW2 6174   0.398   4.972   1.803
 1878SOL     OW 6175   1.111   5.500   0.237
 1878SOL    HW1 6176   1.051   5.438   0.287
 1878SOL    HW2 6177   1.142   5.456   0.152
 1879SOL     OW 6178   0.202   4.009   1.498
 1879SOL    HW1 6179   0.122   4.069   1.485
 1879SOL    HW2 6180   0.192   3.960   1.584
 1880SOL     OW 6181   1.632   5.101   0.081
 1880SOL    HW1 6182   1.600   5.195   0.071
 1880SOL    HW2 6183   1.556   5.038   0.069
 1881SOL     OW 6184   1.400   3.831   0.426
 1881SOL    HW1 6185   1.376   3.794   0.336
 1881SOL    HW2 6186   1.499   3.847   0.430
 1882SOL     OW 6187   0.382   4.424   0.480
 1882SOL    HW1 6188   0.427   4.334   0.477
 1882SOL    HW2 6189   0.288   4.413   0.513
 1883SOL     OW 6190   1.547   3.946   1.729
 1883SOL    HW1 6191   1.542   3.983   1.821
 1883SOL    HW2 6192   1.475   3.877   1.717
 1884SOL     OW 6193   0.614   3.846   0.117
 1884SOL    HW1 6194   0.712   3.824   0.124
 1884SOL    HW2 6195   0.583   3.829   0.024
 1885SOL     OW 6196   0.781   3.988   1.749
 1885SOL    HW1 6197   0.848   3.927   1.792
 1885SOL    HW2 6198   0.708   4.007   1.814
 1886SOL     OW 6199   1.351   4.314   1.433
 1886SOL    HW1 6200   1.379   4.271   1.518
 1886SOL    HW2 6201   1.376   4.410   1.434
 1887SOL     OW 6202   0.803   5.126   0.924
 1887SOL    HW1 6203   0.893   5.140   0.882
 1887SOL    HW2 6204   0.732   5.128   0.853
 1888SOL     OW 6205   0.922   4.227   0.899
 1888SOL    HW1 6206   0.897   4.218   0.803
 1888SOL    HW2 6207   0.970   4.145   0.930
 1889SOL     OW 6208   0.539   3.788   0.512
 1889SOL    HW1 6209   0.458   3.789   0.570
 1889SOL    HW2 6210   0.542   3.871   0.457
 1890SOL     OW 6211   1.434   4.912   0.041
 1890SOL    HW1 6212   1.466   4.836   0.098
 1890SOL    HW2 6213   1.342   4.939   0.071
 1891SOL     OW 6214   0.297   3.759   0.171
 1891SOL    HW1 6215   0.346   3.843   0.150
 1891SOL    HW2 6216   0.359   3.694   0.216
 1892SOL     OW 6217   0.935   3.960   0.480
 1892SOL    HW1 6218   0.887   4.001   0.402
 1892SOL    HW2 6219   1.034   3.958   0.461
 1893SOL     OW 6220   1.076   4.407   1.464
 1893SOL    HW1 6221   0.996   4.346   1.467
 1893SOL    HW2 6222   1.157   4.354   1.440
 1894SOL     OW 6223   1.227   5.294   0.793
 1894SOL    HW1 6224   1.248   5.368   0.728
 1894SOL    HW2 6225   1.295   5.294   0.866
 1895SOL     OW 6226   0.459   4.876   0.741
 1895SOL    HW1 6227   0.388   4.849   0.806
 1895SOL    HW2 6228   0.433   4.848   0.648
 1896SOL     OW 6229   1.032   4.273   0.016
 1896SOL    HW1 6230   0.991   4.355  -0.023
 1896SOL    HW2 6231   1.096   4.299   0.089
 1897SOL     OW 6232   0.078   4.280   1.386
 1897SOL    HW1 6233   0.170   4.279   1.345
 1897SOL    HW2 6234   0.072   4.354   1.453
 1898SOL     OW 6235   0.561   3.946   1.147
 1898SOL    HW1 6236   0.599   3.862   1.184
 1898SOL    HW2 6237   0.473   3.965   1.191
 1899SOL     OW 6238   0.866   4.178   0.642
 1899SOL    HW1 6239   0.834   4.250   0.580
 1899SOL    HW2 6240   0.890   4.097   0.589
 1900SOL     OW 6241   1.017   3.763   0.753
 1900SOL    HW1 6242   0.945   3.768   0.684
 1900SOL    HW2 6243   0.993   3.694   0.822
 1901SOL     OW 6244   1.429   4.897   0.867
 1901SOL    HW1 6245   1.374   4.813   0.860
 1901SOL    HW2 6246   1.455   4.926   0.775
 1902SOL     OW 6247   1.466   4.314   0.992
 1902SOL    HW1 6248   1.436   4.219   0.999
 1902SOL    HW2 6249   1.539   4.330   1.058
 1903SOL     OW 6250   1.857   4.557   0.377
 1903SOL    HW1 6251   1.899   4.493   0.441
 1903SOL    HW2 6252   1.819   4.506   0.299
 1904SOL     OW 6253   0.488   5.109   0.174
 1904SOL    HW1 6254   0.401   5.094   0.221
 1904SOL    HW2 6255   0.471   5.135   0.079
 1905SOL     OW 6256   1.664   5.004   0.657
 1905SOL    HW1 6257   1.763   5.012   0.671
 1905SOL    HW2 6258   1.619   5.088   0.688
 1906SOL     OW 6259   1.390   4.299   0.078
 1906SOL    HW1 6260   1.336   4.278   0.159
 1906SOL    HW2 6261   1.481   4.258   0.087
 1907SOL     OW 6262   0.527   3.980   0.328
 1907SOL    HW1 6263   0.554   3.921   0.253
 1907SOL    HW2 6264   0.527   4.075   0.297
 1908SOL     OW 6265   1.754   4.947   1.588
 1908SOL    HW1 6266   1.845   4.908   1.575
 1908SOL    HW2 6267   1.762   5.043   1.612
 1909SOL     OW 6268   1.064   5.071   1.340
 1909SOL    HW1 6269   0.984   5.048   1.395
 1909SOL    HW2 6270   1.147   5.045   1.389
 1910SOL     OW 6271   1.111   4.919   1.100
 1910SOL    HW1 6272   1.071   4.963   1.181
 1910SOL    HW2 6273   1.070   4.956   1.017
 1911SOL     OW 6274   1.638   4.823   1.079
 1911SOL    HW1 6275   1.643   4.904   1.138
 1911SOL    HW2 6276   1.552   4.825   1.028
 1912SOL     OW 6277   0.915   3.813   1.402
 1912SOL    HW1 6278   0.940   3.793   1.307
 1912SOL    HW2 6279   0.987   3.869   1.444
 1913SOL     OW 6280   0.980   4.840   1.719
 1913SOL    HW1 6281   0.881   4.846   1.729
 1913SOL    HW2 6282   1.003   4.760   1.663
 1914SOL     OW 6283   0.705   4.774   0.368
 1914SOL    HW1 6284   0.691   4.781   0.467
 1914SOL    HW2 6285   0.789   4.723   0.350
 1915SOL     OW 6286   0.410   4.537   1.251
 1915SOL    HW1 6287   0.496   4.549   1.301
 1915SOL    HW2 6288   0.368   4.450   1.278
 1916SOL     OW 6289   1.274   4.110   1.262
 1916SOL    HW1 6290   1.295   4.184   1.326
 1916SOL    HW2 6291   1.185   4.127   1.219
 1917SOL     OW 6292   0.064   5.288   1.331
 1917SOL    HW1 6293   0.018   5.370   1.297
 1917SOL    HW2 6294   0.162   5.307   1.340
 1918SOL     OW 6295   0.367   4.824   0.501
 1918SOL    HW1 6296   0.360   4.907   0.445
 1918SOL    HW2 6297   0.371   4.744   0.441
 1919SOL     OW 6298   0.566   4.261   0.865
 1919SOL    HW1 6299   0.578   4.327   0.791
 1919SOL    HW2 6300   0.612   4.295   0.948
 1920SOL     OW 6301   1.252   5.072   0.388
 1920SOL    HW1 6302   1.302   5.149   0.428
 1920SOL    HW2 6303   1.157   5.074   0.420
 1921SOL     OW 6304   1.272   5.169   1.142
 1921SOL    HW1 6305   1.319   5.182   1.229
 1921SOL    HW2 6306   1.206   5.095   1.151
 1922SOL     OW 6307   1.582   4.363   0.472
 1922SOL    HW1 6308   1.551   4.424   0.545
 1922SOL    HW2 6309   1.632   4.415   0.403
 1923SOL     OW 6310   0.354   5.234   1.329
 1923SOL    HW1 6311   0.333   5.190   1.242
 1923SOL    HW2 6312   0.451   5.260   1.332
 1924SOL     OW 6313   0.402   4.475   1.598
 1924SOL    HW1 6314   0.470   4.530   1.551
 1924SOL    HW2 6315   0.442   4.387   1.625
 1925SOL     OW 6316   1.587   4.503   1.670
 1925SOL    HW1 6317   1.495   4.541   1.665
 1925SOL    HW2 6318   1.647   4.550   1.605
 1926SOL     OW 6319   1.013   3.829   1.770
 1926SOL    HW1 6320   1.019   3.914   1.718
 1926SOL    HW2 6321   1.045   3.753   1.713
 1927SOL     OW 6322   0.504   3.774   1.740
 1927SOL    HW1 6323   0.462   3.717   1.670
 1927SOL    HW2 6324   0.438   3.843   1.772
 1928SOL     OW 6325   0.573   4.594   1.029
 1928SOL    HW1 6326   0.617   4.683   1.020
 1928SOL    HW2 6327   0.510   4.594   1.106
 1929SOL     OW 6328   1.360   4.586   1.045
 1929SOL    HW1 6329   1.285   4.586   0.979
 1929SOL    HW2 6330   1.397   4.494   1.054
 1930SOL     OW 6331   1.209   4.249   0.275
 1930SOL    HW1 6332   1.222   4.165   0.329
 1930SOL    HW2 6333   1.180   4.323   0.335
 1931SOL     OW 6334   0.307   3.937   1.231
 1931SOL    HW1 6335   0.284   3.974   1.321
 1931SOL    HW2 6336   0.277   3.842   1.225
 1932SOL     OW 6337   0.037   5.034   1.282
 1932SOL    HW1 6338   0.090   4.985   1.350
 1932SOL    HW2 6339   0.059   5.132   1.287
 1933SOL     OW 6340   0.732   4.358   1.064
 1933SOL    HW1 6341   0.791   4.332   0.988
 1933SOL    HW2 6342   0.704   4.454   1.053
 1934SOL     OW 6343   1.728   4.659   1.854
 1934SOL    HW1 6344   1.682   4.652   1.765
 1934SOL    HW2 6345   1.666   4.703   1.920
 1935SOL     OW 6346   0.307   3.787   0.618
 1935SOL    HW1 6347   0.296   3.881   0.651
 1935SOL    HW2 6348   0.302   3.724   0.695
 1936SOL     OW 6349   1.622   4.091   0.374
 1936SOL    HW1 6350   1.624   4.015   0.438
 1936SOL    HW2 6351   1.574   4.168   0.414
 1937SOL     OW 6352   1.023   4.490   0.966
 1937SOL    HW1 6353   1.038   4.511   1.062
 1937SOL    HW2 6354   0.993   4.395   0.957
 1938SOL     OW 6355   1.859   5.242   1.605
 1938SOL    HW1 6356   1.873   5.269   1.510
 1938SOL    HW2 6357   1.942   5.264   1.658
 1939SOL     OW 6358   0.350   4.622   1.804
 1939SOL    HW1 6359   0.426   4.666   1.852
 1939SOL    HW2 6360   0.385   4.575   1.722
 1940SOL     OW 6361   1.540   3.998   0.125
 1940SOL    HW1 6362   1.479   3.923   0.148
 1940SOL    HW2 6363   1.562   4.050   0.208
 1941SOL     OW 6364   1.303   4.562   0.042
 1941SOL    HW1 6365   1.337   4.469   0.057
 1941SOL    HW2 6366   1.321   4.589  -0.053
 1942SOL     OW 6367   1.068   5.057   0.849
 1942SOL    HW1 6368   1.075   4.973   0.794
 1942SOL    HW2 6369   1.130   5.126   0.813
 1943SOL     OW 6370   0.319   4.534   0.949
 1943SOL    HW1 6371   0.412   4.570   0.954
 1943SOL    HW2 6372   0.313   4.449   1.001
 1944SOL     OW 6373   0.339   4.233   1.006
 1944SOL    HW1 6374   0.287   4.150   0.989
 1944SOL    HW2 6375   0.416   4.238   0.942
 1945SOL     OW 6376   1.138   4.104   1.678
 1945SOL    HW1 6377   1.093   4.167   1.742
 1945SOL    HW2 6378   1.231   4.135   1.661
 1946SOL     OW 6379   1.160   3.931   1.477
 1946SOL    HW1 6380   1.160   3.995   1.554
 1946SOL    HW2 6381   1.188   3.979   1.394
 1947SOL     OW 6382   0.008   5.050   0.200
 1947SOL    HW1 6383  -0.085   5.071   0.169
 1947SOL    HW2 6384   0.018   4.951   0.213
 1948SOL     OW 6385   1.002   4.520   1.238
 1948SOL    HW1 6386   1.043   4.488   1.324
 1948SOL    HW2 6387   0.906   4.493   1.235
 1949SOL     OW 6388   0.040   4.268   1.114
 1949SOL    HW1 6389   0.125   4.235   1.073
 1949SOL    HW2 6390   0.053   4.283   1.212
 1950SOL     OW 6391   0.189   4.244   1.722
 1950SOL    HW1 6392   0.248   4.204   1.652
 1950SOL    HW2 6393   0.131   4.315   1.681
 1951SOL     OW 6394   1.369   4.674   1.660
 1951SOL    HW1 6395   1.408   4.763   1.680
 1951SOL    HW2 6396   1.379   4.654   1.563
 1952SOL     OW 6397   0.815   4.296   0.325
 1952SOL    HW1 6398   0.822   4.207   0.279
 1952SOL    HW2 6399   0.721   4.330   0.317
 1953SOL     OW 6400   1.657   4.328   1.206
 1953SOL    HW1 6401   1.619   4.259   1.268
 1953SOL    HW2 6402   1.739   4.292   1.162
 1954SOL     OW 6403   0.252   5.288   1.744
 1954SOL    HW1 6404   0.222   5.345   1.820
 1954SOL    HW2 6405   0.245   5.191   1.770
 1955SOL     OW 6406   0.671   4.188   1.269
 1955SOL    HW1 6407   0.637   4.099   1.239
 1955SOL    HW2 6408   0.697   4.242   1.189
 1956SOL     OW 6409   0.473   4.224   0.191
 1956SOL    HW1 6410   0.534   4.304   0.195
 1956SOL    HW2 6411   0.378   4.255   0.198
 1957SOL     OW 6412   0.159   4.861   1.466
 1957SOL    HW1 6413   0.181   4.800   1.542
 1957SOL    HW2 6414   0.169   4.812   1.380
 1958SOL     OW 6415   1.347   4.783   1.234
 1958SOL    HW1 6416   1.371   4.720   1.160
 1958SOL    HW2 6417   1.257   4.823   1.216
 1959SOL     OW 6418   1.302   4.579   0.309
 1959SOL    HW1 6419   1.216   4.548   0.351
 1959SOL    HW2 6420   1.298   4.565   0.210
 1960SOL     OW 6421   0.083   4.982   1.022
 1960SOL    HW1 6422   0.078   4.981   1.122
 1960SOL    HW2 6423   0.000   4.941   0.984
 1961SOL     OW 6424   0.688   5.386   1.716
 1961SOL    HW1 6425   0.632   5.467   1.725
 1961SOL    HW2 6426   0.740   5.390   1.630
 1962SOL     OW 6427   0.903   3.810   0.133
 1962SOL    HW1 6428   0.954   3.811   0.047
 1962SOL    HW2 6429   0.959   3.768   0.204
 1963SOL     OW 6430   1.726   3.859   0.523
 1963SOL    HW1 6431   1.799   3.842   0.456
 1963SOL    HW2 6432   1.695   3.772   0.561
 1964SOL     OW 6433   1.280   4.651   0.672
 1964SOL    HW1 6434   1.340   4.570   0.674
 1964SOL    HW2 6435   1.320   4.720   0.612
 1965SOL     OW 6436   0.830   4.997   1.422
 1965SOL    HW1 6437   0.825   5.030   1.517
 1965SOL    HW2 6438   0.744   5.016   1.376
 1966SOL     OW 6439   1.841   3.899   0.963
 1966SOL    HW1 6440   1.880   3.814   0.927
 1966SOL    HW2 6441   1.743   3.901   0.944
 1967SOL     OW 6442   0.263   4.050   0.720
 1967SOL    HW1 6443   0.184   4.101   0.686
 1967SOL    HW2 6444   0.254   4.035   0.818
 1968SOL     OW 6445   1.194   5.336   0.031
 1968SOL    HW1 6446   1.200   5.243   0.068
 1968SOL    HW2 6447   1.135   5.336  -0.049
 1969SOL     OW 6448   0.822   4.726   1.372
 1969SOL    HW1 6449   0.862   4.725   1.280
 1969SOL    HW2 6450   0.832   4.818   1.412
 1970SOL     OW 6451   0.916   4.634   0.291
 1970SOL    HW1 6452   0.979   4.672   0.223
 1970SOL    HW2 6453   0.956   4.551   0.330
 1971SOL     OW 6454   0.372   5.012   1.490
 1971SOL    HW1 6455   0.359   5.105   1.456
 1971SOL    HW2 6456   0.288   4.960   1.477
 1972SOL     OW 6457   1.614   5.016   1.289
 1972SOL    HW1 6458   1.674   5.019   1.369
 1972SOL    HW2 6459   1.539   5.080   1.302
 1973SOL     OW 6460   1.039   4.822   0.696
 1973SOL    HW1 6461   0.969   4.775   0.750
 1973SOL    HW2 6462   1.098   4.754   0.653
 1974SOL     OW 6463   1.014   3.960   0.971
 1974SOL    HW1 6464   1.006   3.924   0.878
 1974SOL    HW2 6465   1.012   3.884   1.036
 1975SOL     OW 6466   1.709   4.109   1.381
 1975SOL    HW1 6467   1.782   4.178   1.385
 1975SOL    HW2 6468   1.737   4.034   1.322
 1976SOL     OW 6469   0.255   5.072   0.290
 1976SOL    HW1 6470   0.159   5.073   0.263
 1976SOL    HW2 6471   0.267   5.125   0.374
 1977SOL     OW 6472   0.105   4.737   1.726
 1977SOL    HW1 6473   0.028   4.704   1.780
 1977SOL    HW2 6474   0.190   4.707   1.768
 1978SOL     OW 6475   0.672   3.927   1.489
 1978SOL    HW1 6476   0.762   3.911   1.449
 1978SOL    HW2 6477   0.680   3.932   1.588
 1979SOL     OW 6478   0.075   4.069   0.033
 1979SOL    HW1 6479  -0.017   4.041   0.004
 1979SOL    HW2 6480   0.106   4.146  -0.023
 1980SOL     OW 6481   1.440   4.580   1.398
 1980SOL    HW1 6482   1.383   4.632   1.335
 1980SOL    HW2 6483   1.536   4.592   1.374
 1981SOL     OW 6484   0.072   3.890   0.318
 1981SOL    HW1 6485   0.055   3.973   0.264
 1981SOL    HW2 6486   0.162   3.853   0.296
 1982SOL     OW 6487   1.183   5.059   0.119
 1982SOL    HW1 6488   1.084   5.048   0.121
 1982SOL    HW2 6489   1.217   5.074   0.212
 1983SOL     OW 6490   0.613   4.566   1.431
 1983SOL    HW1 6491   0.669   4.647   1.414
 1983SOL    HW2 6492   0.672   4.486   1.434
 1984SOL     OW 6493   0.716   4.289   1.708
 1984SOL    HW1 6494   0.735   4.354   1.782
 1984SOL    HW2 6495   0.776   4.209   1.717
 1985SOL     OW 6496   1.450   4.944   1.633
 1985SOL    HW1 6497   1.441   4.934   1.732
 1985SOL    HW2 6498   1.546   4.937   1.607
 1986SOL     OW 6499   1.674   4.607   1.254
 1986SOL    HW1 6500   1.647   4.518   1.217
 1986SOL    HW2 6501   1.675   4.675   1.181
 1987SOL     OW 6502   1.225   4.049   0.449
 1987SOL    HW1 6503   1.290   3.975   0.438
 1987SOL    HW2 6504   1.245   4.099   0.533
 1988SOL     OW 6505   0.594   4.469   0.652
 1988SOL    HW1 6506   0.644   4.554   0.633
 1988SOL    HW2 6507   0.506   4.471   0.604
 1989SOL     OW 6508   1.777   4.066   1.642
 1989SOL    HW1 6509   1.760   4.097   1.548
 1989SOL    HW2 6510   1.693   4.029   1.680
 1990SOL     OW 6511   1.730   4.658   1.517
 1990SOL    HW1 6512   1.768   4.749   1.532
 1990SOL    HW2 6513   1.722   4.641   1.418
 1991SOL     OW 6514   0.859   5.098   0.016
 1991SOL    HW1 6515   0.813   5.113   0.104
 1991SOL    HW2 6516   0.903   5.183  -0.014
 1992SOL     OW 6517   0.859   4.680   0.861
 1992SOL    HW1 6518   0.913   4.611   0.909
 1992SOL    HW2 6519   0.827   4.749   0.927
 1993SOL     OW 6520   1.083   4.708   0.087
 1993SOL    HW1 6521   1.060   4.761   0.005
 1993SOL    HW2 6522   1.164   4.652   0.068
 1994SOL     OW 6523   0.221   5.038   1.844
 1994SOL    HW1 6524   0.156   4.965   1.823
 1994SOL    HW2 6525   0.225   5.052   1.942
 1995SOL     OW 6526   0.079   4.964   0.653
 1995SOL    HW1 6527   0.078   4.917   0.741
 1995SOL    HW2 6528   0.161   4.936   0.602
 1996SOL     OW 6529   0.672   5.115   1.624
 1996SOL    HW1 6530   0.594   5.065   1.662
 1996SOL    HW2 6531   0.669   5.210   1.655
 1997SOL     OW 6532   1.824   3.916   1.227
 1997SOL    HW1 6533   1.820   3.826   1.271
 1997SOL    HW2 6534   1.827   3.905   1.128
 1998SOL     OW 6535   0.428   4.148   0.520
 1998SOL    HW1 6536   0.458   4.076   0.458
 1998SOL    HW2 6537   0.389   4.108   0.603
 1999SOL     OW 6538   1.705   5.211   1.104
 1999SOL    HW1 6539   1.612   5.186   1.077
 1999SOL    HW2 6540   1.731   5.161   1.186
 2000SOL     OW 6541   0.317   4.271   1.280
 2000SOL    HW1 6542   0.355   4.212   1.352
 2000SOL    HW2 6543   0.357   4.245   1.192
 2001SOL     OW 6544   1.424   3.938   1.112
 2001SOL    HW1 6545   1.476   3.873   1.167
 2001SOL    HW2 6546   1.375   4.001   1.173
 2002SOL     OW 6547   1.001   3.758   1.154
 2002SOL    HW1 6548   0.938   3.686   1.123
 2002SOL    HW2 6549   1.094   3.722   1.154
 2003SOL     OW 6550   0.770   5.054   0.301
 2003SOL    HW1 6551   0.724   4.967   0.318
 2003SOL    HW2 6552   0.861   5.051   0.342
 2004SOL     OW 6553   0.618   5.291   1.284
 2004SOL    HW1 6554   0.613   5.373   1.341
 2004SOL    HW2 6555   0.707   5.288   1.239
 2005SOL     OW 6556   1.352   3.776   0.168
 2005SOL    HW1 6557   1.387   3.735   0.084
 2005SOL    HW2 6558   1.262   3.738   0.188
 2006SOL     OW 6559   1.300   4.177   0.691
 2006SOL    HW1 6560   1.241   4.257   0.695
 2006SOL    HW2 6561   1.315   4.142   0.784
 2007SOL     OW 6562   1.593   3.945   0.882
 2007SOL    HW1 6563   1.509   3.944   0.936
 2007SOL    HW2 6564   1.595   4.028   0.826
 2008SOL     OW 6565   0.039   4.801   0.300
 2008SOL    HW1 6566   0.138   4.790   0.291
 2008SOL    HW2 6567  -0.001   4.715   0.332
 2009SOL     OW 6568   0.230   4.352   1.975
 2009SOL    HW1 6569   0.137   4.350   2.012
 2009SOL    HW2 6570   0.231   4.313   1.883
 2010SOL     OW 6571   0.225   3.999   2.858
 2010SOL    HW1 6572   0.260   3.982   2.950
 2010SOL    HW2 6573   0.137   3.954   2.846
 2011SOL     OW 6574   0.019   4.092   2.509
 2011SOL    HW1 6575  -0.063   4.135   2.548
 2011SOL    HW2 6576  -0.009   4.019   2.446
 2012SOL     OW 6577   0.569   4.999   3.027
 2012SOL    HW1 6578   0.476   4.992   2.990
 2012SOL    HW2 6579   0.580   5.088   3.071
 2013SOL     OW 6580   1.555   5.235   2.565
 2013SOL    HW1 6581   1.498   5.219   2.646
 2013SOL    HW2 6582   1.496   5.245   2.485
 2014SOL     OW 6583   1.135   4.427   2.579
 2014SOL    HW1 6584   1.192   4.505   2.554
 2014SOL    HW2 6585   1.075   4.453   2.655
 2015SOL     OW 6586   1.755   4.331   2.093
 2015SOL    HW1 6587   1.743   4.318   1.994
 2015SOL    HW2 6588   1.725   4.250   2.142
 2016SOL     OW 6589   0.768   4.868   2.885
 2016SOL    HW1 6590   0.690   4.885   2.945
 2016SOL    HW2 6591   0.802   4.955   2.849
 2017SOL     OW 6592   0.850   4.522   3.685
 2017SOL    HW1 6593   0.846   4.598   3.750
 2017SOL    HW2 6594   0.872   4.558   3.594
 2018SOL     OW 6595   0.685   4.736   2.527
 2018SOL    HW1 6596   0.754   4.720   2.597
 2018SOL    HW2 6597   0.612   4.793   2.565
 2019SOL     OW 6598   0.686   4.885   3.665
 2019SOL    HW1 6599   0.746   4.964   3.679
 2019SOL    HW2 6600   0.600   4.916   3.624
 2020SOL     OW 6601   0.335   5.159   2.923
 2020SOL    HW1 6602   0.257   5.128   2.870
 2020SOL    HW2 6603   0.393   5.217   2.866
 2021SOL     OW 6604   1.460   5.229   3.201
 2021SOL    HW1 6605   1.484   5.323   3.227
 2021SOL    HW2 6606   1.444   5.175   3.283
 2022SOL     OW 6607   0.438   4.116   3.361
 2022SOL    HW1 6608   0.520   4.060   3.370
 2022SOL    HW2 6609   0.357   4.058   3.365
 2023SOL     OW 6610   1.603   4.171   2.599
 2023SOL    HW1 6611   1.529   4.217   2.549
 2023SOL    HW2 6612   1.654   4.239   2.652
 2024SOL     OW 6613   1.127   5.065   3.552
 2024SOL    HW1 6614   1.174   5.065   3.640
 2024SOL    HW2 6615   1.079   4.978   3.541
 2025SOL     OW 6616   0.230   5.158   2.400
 2025SOL    HW1 6617   0.204   5.254   2.400
 2025SOL    HW2 6618   0.159   5.104   2.445
 2026SOL     OW 6619   0.240   4.815   2.748
 2026SOL    HW1 6620   0.254   4.731   2.800
 2026SOL    HW2 6621   0.185   4.879   2.803
 2027SOL     OW 6622   0.606   4.688   1.985
 2027SOL    HW1 6623   0.613   4.772   1.931
 2027SOL    HW2 6624   0.652   4.701   2.073
 2028SOL     OW 6625   1.594   3.838   3.342
 2028SOL    HW1 6626   1.576   3.905   3.270
 2028SOL    HW2 6627   1.591   3.884   3.431
 2029SOL     OW 6628   0.122   4.367   2.425
 2029SOL    HW1 6629   0.077   4.279   2.442
 2029SOL    HW2 6630   0.121   4.421   2.509
 2030SOL     OW 6631   0.027   5.320   1.979
 2030SOL    HW1 6632   0.008   5.224   2.000
 2030SOL    HW2 6633  -0.006   5.378   2.054
 2031SOL     OW 6634   1.689   4.646   2.474
 2031SOL    HW1 6635   1.784   4.617   2.482
 2031SOL    HW2 6636   1.681   4.711   2.399
 2032SOL     OW 6637   1.641   4.832   2.294
 2032SOL    HW1 6638   1.727   4.834   2.242
 2032SOL    HW2 6639   1.655   4.879   2.382
 2033SOL     OW 6640   0.113   4.461   3.459
 2033SOL    HW1 6641   0.201   4.448   3.504
 2033SOL    HW2 6642   0.100   4.558   3.437
 2034SOL     OW 6643   0.613   5.089   2.588
 2034SOL    HW1 6644   0.564   5.002   2.597
 2034SOL    HW2 6645   0.590   5.132   2.501
 2035SOL     OW 6646   1.293   4.952   3.285
 2035SOL    HW1 6647   1.330   4.879   3.227
 2035SOL    HW2 6648   1.345   4.957   3.370
 2036SOL     OW 6649   0.809   3.728   2.364
 2036SOL    HW1 6650   0.849   3.819   2.355
 2036SOL    HW2 6651   0.709   3.736   2.370
 2037SOL     OW 6652   0.197   4.700   3.126
 2037SOL    HW1 6653   0.286   4.655   3.112
 2037SOL    HW2 6654   0.124   4.635   3.107
 2038SOL     OW 6655   1.525   4.723   2.052
 2038SOL    HW1 6656   1.462   4.647   2.065
 2038SOL    HW2 6657   1.573   4.741   2.138
 2039SOL     OW 6658   0.317   3.975   3.663
 2039SOL    HW1 6659   0.388   4.046   3.669
 2039SOL    HW2 6660   0.229   4.014   3.691
 2040SOL     OW 6661   1.466   5.141   2.815
 2040SOL    HW1 6662   1.407   5.147   2.895
 2040SOL    HW2 6663   1.451   5.053   2.769
 2041SOL     OW 6664   0.598   4.453   2.132
 2041SOL    HW1 6665   0.622   4.522   2.064
 2041SOL    HW2 6666   0.520   4.486   2.186
 2042SOL     OW 6667   1.281   4.069   2.806
 2042SOL    HW1 6668   1.195   4.019   2.793
 2042SOL    HW2 6669   1.343   4.015   2.862
 2043SOL     OW 6670   0.807   4.329   3.327
 2043SOL    HW1 6671   0.760   4.326   3.416
 2043SOL    HW2 6672   0.756   4.274   3.261
 2044SOL     OW 6673   1.394   4.193   3.536
 2044SOL    HW1 6674   1.374   4.236   3.624
 2044SOL    HW2 6675   1.472   4.131   3.545
 2045SOL     OW 6676   0.973   4.614   3.434
 2045SOL    HW1 6677   1.019   4.530   3.405
 2045SOL    HW2 6678   0.917   4.648   3.359
 2046SOL     OW 6679   0.991   4.134   3.104
 2046SOL    HW1 6680   0.914   4.168   3.158
 2046SOL    HW2 6681   0.957   4.083   3.025
 2047SOL     OW 6682   1.041   4.425   2.291
 2047SOL    HW1 6683   1.067   4.421   2.387
 2047SOL    HW2 6684   0.956   4.374   2.277
 2048SOL     OW 6685   0.076   4.535   2.651
 2048SOL    HW1 6686   0.175   4.523   2.660
 2048SOL    HW2 6687   0.052   4.630   2.672
 2049SOL     OW 6688   0.865   4.072   2.057
 2049SOL    HW1 6689   0.924   4.135   2.008
 2049SOL    HW2 6690   0.884   3.978   2.028
 2050SOL     OW 6691   1.719   4.309   3.693
 2050SOL    HW1 6692   1.693   4.398   3.657
 2050SOL    HW2 6693   1.717   4.241   3.620
 2051SOL     OW 6694   1.362   4.868   2.407
 2051SOL    HW1 6695   1.445   4.839   2.359
 2051SOL    HW2 6696   1.313   4.935   2.351
 2052SOL     OW 6697   0.550   3.920   2.747
 2052SOL    HW1 6698   0.545   3.915   2.847
 2052SOL    HW2 6699   0.552   4.016   2.718
 2053SOL     OW 6700   1.008   5.180   2.339
 2053SOL    HW1 6701   0.962   5.252   2.287
 2053SOL    HW2 6702   1.004   5.200   2.437
 2054SOL     OW 6703   1.795   4.790   2.735
 2054SOL    HW1 6704   1.733   4.775   2.659
 2054SOL    HW2 6705   1.743   4.801   2.820
 2055SOL     OW 6706   1.227   5.274   3.368
 2055SOL    HW1 6707   1.233   5.197   3.432
 2055SOL    HW2 6708   1.175   5.248   3.288
 2056SOL     OW 6709   0.321   4.667   2.104
 2056SOL    HW1 6710   0.403   4.706   2.062
 2056SOL    HW2 6711   0.294   4.585   2.055
 2057SOL     OW 6712   1.458   4.459   2.590
 2057SOL    HW1 6713   1.453   4.394   2.665
 2057SOL    HW2 6714   1.538   4.518   2.603
 2058SOL     OW 6715   0.461   4.990   3.589
 2058SOL    HW1 6716   0.411   4.991   3.503
 2058SOL    HW2 6717   0.398   4.972   3.665
 2059SOL     OW 6718   1.111   5.500   2.099
 2059SOL    HW1 6719   1.051   5.438   2.149
 2059SOL    HW2 6720   1.142   5.456   2.014
 2060SOL     OW 6721   0.202   4.009   3.360
 2060SOL    HW1 6722   0.122   4.069   3.347
 2060SOL    HW2 6723   0.192   3.960   3.446
 2061SOL     OW 6724   1.632   5.101   1.943
 2061SOL    HW1 6725   1.600   5.195   1.933
 2061SOL    HW2 6726   1.556   5.038   1.931
 2062SOL     OW 6727   1.400   3.831   2.288
 2062SOL    HW1 6728   1.376   3.794   2.198
 2062SOL    HW2 6729   1.499   3.847   2.292
 2063SOL     OW 6730   0.382   4.424   2.342
 2063SOL    HW1 6731   0.427   4.334   2.339
 2063SOL    HW2 6732   0.288   4.413   2.375
 2064SOL     OW 6733   1.547   3.946   3.591
 2064SOL    HW1 6734   1.542   3.983   3.683
 2064SOL    HW2 6735   1.475   3.877   3.579
 2065SOL     OW 6736   0.614   3.846   1.979
 2065SOL    HW1 6737   0.712   3.824   1.986
 2065SOL    HW2 6738   0.583   3.829   1.886
 2066SOL     OW 6739   0.781   3.988   3.611
 2066SOL    HW1 6740   0.848   3.927   3.654
 2066SOL    HW2 6741   0.708   4.007   3.676
 2067SOL     OW 6742   1.351   4.314   3.295
 2067SOL    HW1 6743   1.379   4.271   3.380
 2067SOL    HW2 6744   1.376   4.410   3.296
 2068SOL     OW 6745   0.803   5.126   2.786
 2068SOL    HW1 6746   0.893   5.140   2.744
 2068SOL    HW2 6747   0.732   5.128   2.715
 2069SOL     OW 6748   0.922   4.227   2.761
 2069SOL    HW1 6749   0.897   4.218   2.665
 2069SOL    HW2 6750   0.970   4.145   2.792
 2070SOL     OW 6751   0.539   3.788   2.374
 2070SOL    HW1 6752   0.458   3.789   2.432
 2070SOL    HW2 6753   0.542   3.871   2.319
 2071SOL     OW 6754   1.434   4.912   1.903
 2071SOL    HW1 6755   1.466   4.836   1.960
 2071SOL    HW2 6756   1.342   4.939   1.933
 2072SOL     OW 6757   0.297   3.759   2.033
 2072SOL    HW1 6758   0.346   3.843   2.012
 2072SOL    HW2 6759   0.359   3.694   2.078
 2073SOL     OW 6760   0.935   3.960   2.342
 2073SOL    HW1 6761   0.887   4.001   2.264
 2073SOL    HW2 6762   1.034   3.958   2.323
 2074SOL     OW 6763   1.076   4.407   3.326
 2074SOL    HW1 6764   0.996   4.346   3.329
 2074SOL    HW2 6765   1.157   4.354   3.302
 2075SOL     OW 6766   1.227   5.294   2.655
 2075SOL    HW1 6767   1.248   5.368   2.590
 2075SOL    HW2 6768   1.295   5.294   2.728
 2076SOL     OW 6769   0.459   4.876   2.603
 2076SOL    HW1 6770   0.388   4.849   2.668
 2076SOL    HW2 6771   0.433   4.848   2.510
 2077SOL     OW 6772   1.032   4.273   1.878
 2077SOL    HW1 6773   0.991   4.355   1.839
 2077SOL    HW2 6774   1.096   4.299   1.951
 2078SOL     OW 6775   0.078   4.280   3.248
 2078SOL    HW1 6776   0.170   4.279   3.207
 2078SOL    HW2 6777   0.072   4.354   3.315
 2079SOL     OW 6778   0.561   3.946   3.009
 2079SOL    HW1 6779   0.599   3.862   3.046
 2079SOL    HW2 6780   0.473   3.965   3.053
 2080SOL     OW 6781   0.866   4.178   2.504
 2080SOL    HW1 6782   0.834   4.250   2.442
 2080SOL    HW2 6783   0.890   4.097   2.451
 2081SOL     OW 6784   1.017   3.763   2.615
 2081SOL    HW1 6785   0.945   3.768   2.546
 2081SOL    HW2 6786   0.993   3.694   2.684
 2082SOL     OW 6787   1.429   4.897   2.729
 2082SOL    HW1 6788   1.374   4.813   2.722
 2082SOL    HW2 6789   1.455   4.926   2.637
 2083SOL     OW 6790   1.466   4.314   2.854
 2083SOL    HW1 6791   1.436   4.219   2.861
 2083SOL    HW2 6792   1.539   4.330   2.920
 2084SOL     OW 6793   1.857   4.557   2.239
 2084SOL    HW1 6794   1.899   4.493   2.303
 2084SOL    HW2 6795   1.819   4.506   2.161
 2085SOL     OW 6796   0.488   5.109   2.036
 2085SOL    HW1 6797   0.401   5.094   2.083
 2085SOL    HW2 6798   0.471   5.135   1.941
 2086SOL     OW 6799   1.664   5.004   2.519
 2086SOL    HW1 6800   1.763   5.012   2.533
 2086SOL    HW2 6801   1.619   5.088   2.550
 2087SOL     OW 6802   1.390   4.299   1.940
 2087SOL    HW1 6803   1.336   4.278   2.021
 2087SOL    HW2 6804   1.481   4.258   1.949
 2088SOL     OW 6805   0.527   3.980   2.190
 2088SOL    HW1 6806   0.554   3.921   2.115
 2088SOL    HW2 6807   0.527   4.075   2.159
 2089SOL     OW 6808   1.754   4.947   3.450
 2089SOL    HW1 6809   1.845   4.908   3.437
 2089SOL    HW2 6810   1.762   5.043   3.474
 2090SOL     OW 6811   1.064   5.071   3.202
 2090SOL    HW1 6812   0.984   5.048   3.257
 2090SOL    HW2 6813   1.147   5.045   3.251
 2091SOL     OW 6814   1.111   4.919   2.962
 2091SOL    HW1 6815   1.071   4.963   3.043
 2091SOL    HW2 6816   1.070   4.956   2.879
 2092SOL     OW 6817   1.638   4.823   2.941
 2092SOL    HW1 6818   1.643   4.904   3.000
 2092SOL    HW2 6819   1.552   4.825   2.890
 2093SOL     OW 6820   0.915   3.813   3.264
 2093SOL    HW1 6821   0.940   3.793   3.169
 2093SOL    HW2 6822   0.987   3.869   3.306
 2094SOL     OW 6823   0.980   4.840   3.581
 2094SOL    HW1 6824   0.881   4.846   3.591
 2094SOL    HW2 6825   1.003   4.760   3.525
 2095SOL     OW 6826   0.705   4.774   2.230
 2095SOL    HW1 6827   0.691   4.781   2.329
 2095SOL    HW2 6828   0.789   4.723   2.212
 2096SOL     OW 6829   0.410   4.537   3.113
 2096SOL    HW1 6830   0.496   4.549   3.163
 2096SOL    HW2 6831   0.368   4.450   3.140
 2097SOL     OW 6832   1.274   4.110   3.124
 2097SOL    HW1 6833   1.295   4.184   3.188
 2097SOL    HW2 6834   1.185   4.127   3.081
 2098SOL     OW 6835   0.064   5.288   3.193
 2098SOL    HW1 6836   0.018   5.370   3.159
 2098SOL    HW2 6837   0.162   5.307   3.202
 2099SOL     OW 6838   0.367   4.824   2.363
 2099SOL    HW1 6839   0.360   4.907   2.307
 2099SOL    HW2 6840   0.371   4.744   2.303
 2100SOL     OW 6841   0.566   4.261   2.727
 2100SOL    HW1 6842   0.578   4.327   2.653
 2100SOL    HW2 6843   0.612   4.295   2.810
 2101SOL     OW 6844   1.252   5.072   2.250
 2101SOL    HW1 6845   1.302   5.149   2.290
 2101SOL    HW2 6846   1.157   5.074   2.282
 2102SOL     OW 6847   1.272   5.169   3.004
 2102SOL    HW1 6848   1.319   5.182   3.091
 2102SOL    HW2 6849   1.206   5.095   3.013
 2103SOL     OW 6850   1.582   4.363   2.334
 2103SOL    HW1 6851   1.551   4.424   2.407
 2103SOL    HW2 6852   1.632   4.415   2.265
 2104SOL     OW 6853   0.354   5.234   3.191
 2104SOL    HW1 6854   0.333   5.190   3.104
 2104SOL    HW2 6855   0.451   5.260   3.194
 2105SOL     OW 6856   0.402   4.475   3.460
 2105SOL    HW1 6857   0.470   4.530   3.413
 2105SOL    HW2 6858   0.442   4.387   3.487
 2106SOL     OW 6859   1.587   4.503   3.532
 2106SOL    HW1 6860   1.495   4.541   3.527
 2106SOL    HW2 6861   1.647   4.550   3.467
 2107SOL     OW 6862   1.013   3.829   3.632
 2107SOL    HW1 6863   1.019   3.914   3.580
 2107SOL    HW2 6864   1.045   3.753   3.575
 2108SOL     OW 6865   0.504   3.774   3.602
 2108SOL    HW1 6866   0.462   3.717   3.532
 2108SOL    HW2 6867   0.438   3.843   3.634
 2109SOL     OW 6868   0.573   4.594   2.891
 2109SOL    HW1 6869   0.617   4.683   2.882
 2109SOL    HW2 6870   0.510   4.594   2.968
 2110SOL     OW 6871   1.360   4.586   2.907
 2110SOL    HW1 6872   1.285   4.586   2.841
 2110SOL    HW2 6873   1.397   4.494   2.916
 2111SOL     OW 6874   1.209   4.249   2.137
 2111SOL    HW1 6875   1.222   4.165   2.191
 2111SOL    HW2 6876   1.180   4.323   2.197
 2112SOL     OW 6877   0.307   3.937   3.093
 2112SOL    HW1 6878   0.284   3.974   3.183
 2112SOL    HW2 6879   0.277   3.842   3.087
 2113SOL     OW 6880   0.037   5.034   3.144
 2113SOL    HW1 6881   0.090   4.985   3.212
 2113SOL    HW2 6882   0.059   5.132   3.149
 2114SOL     OW 6883   0.732   4.358   2.926
 2114SOL    HW1 6884   0.791   4.332   2.850
 2114SOL    HW2 6885   0.704   4.454   2.915
 2115SOL     OW 6886   1.728   4.659   3.716
 2115SOL    HW1 6887   1.682   4.652   3.627
 2115SOL    HW2 6888   1.666   4.703   3.782
 2116SOL     OW 6889   0.307   3.787   2.480
 2116SOL    HW1 6890   0.296   3.881   2.513
 2116SOL    HW2 6891   0.302   3.724   2.557
 2117SOL     OW 6892   1.622   4.091   2.236
 2117SOL    HW1 6893   1.624   4.015   2.300
 2117SOL    HW2 6894   1.574   4.168   2.276
 2118SOL     OW 6895   1.023   4.490   2.828
 2118SOL    HW1 6896   1.038   4.511   2.924
 2118SOL    HW2 6897   0.993   4.395   2.819
 2119SOL     OW 6898   1.859   5.242   3.467
 2119SOL    HW1 6899   1.873   5.269   3.372
 2119SOL    HW2 6900   1.942   5.264   3.520
 2120SOL     OW 6901   0.350   4.622   3.666
 2120SOL    HW1 6902   0.426   4.666   3.714
 2120SOL    HW2 6903   0.385   4.575   3.584
 2121SOL     OW 6904   1.540   3.998   1.987
 2121SOL    HW1 6905   1.479   3.923   2.010
 2121SOL    HW2 6906   1.562   4.050   2.070
 2122SOL     OW 6907   1.303   4.562   1.904
 2122SOL    HW1 6908   1.337   4.469   1.919
 2122SOL    HW2 6909   1.321   4.589   1.809
 2123SOL     OW 6910   1.068   5.057   2.711
 2123SOL    HW1 6911   1.075   4.973   2.656
 2123SOL    HW2 6912   1.130   5.126   2.675
 2124SOL     OW 6913   0.319   4.534   2.811
 2124SOL    HW1 6914   0.412   4.570   2.816
 2124SOL    HW2 6915   0.313   4.449   2.863
 2125SOL     OW 6916   0.339   4.233   2.868
 2125SOL    HW1 6917   0.287   4.150   2.851
 2125SOL    HW2 6918   0.416   4.238   2.804
 2126SOL     OW 6919   1.138   4.104   3.540
 2126SOL    HW1 6920   1.093   4.167   3.604
 2126SOL    HW2 6921   1.231   4.135   3.523
 2127SOL     OW 6922   1.160   3.931   3.339
 2127SOL    HW1 6923   1.160   3.995   3.416
 2127SOL    HW2 6924   1.188   3.979   3.256
 2128SOL     OW 6925   0.008   5.050   2.062
 2128SOL    HW1 6926  -0.085   5.071   2.031
 2128SOL    HW2 6927   0.018   4.951   2.075
 2129SOL     OW 6928   1.002   4.520   3.100
 2129SOL    HW1 6929   1.043   4.488   3.186
 2129SOL    HW2 6930   0.906   4.493   3.097
 2130SOL     OW 6931   0.040   4.268   2.976
 2130SOL    HW1 6932   0.125   4.235   2.935
 2130SOL    HW2 6933   0.053   4.283   3.074
 2131SOL     OW 6934   0.189   4.244   3.584
 2131SOL    HW1 6935   0.248   4.204   3.514
 2131SOL    HW2 6936   0.131   4.315   3.543
 2132SOL     OW 6937   1.369   4.674   3.522
 2132SOL    HW1 6938   1.408   4.763   3.542
 2132SOL    HW2 6939   1.379   4.654   3.425
 2133SOL     OW 6940   0.815   4.296   2.187
 2133SOL    HW1 6941   0.822   4.207   2.141
 2133SOL    HW2 6942   0.721   4.330   2.179
 2134SOL     OW 6943   1.657   4.328   3.068
 2134SOL    HW1 6944   1.619   4.259   3.130
 2134SOL    HW2 6945   1.739   4.292   3.024
 2135SOL     OW 6946   0.252   5.288   3.606
 2135SOL    HW1 6947   0.222   5.345   3.682
 2135SOL    HW2 6948   0.245   5.191   3.632
 2136SOL     OW 6949   0.671   4.188   3.131
 2136SOL    HW1 6950   0.637   4.099   3.101
 2136SOL    HW2 6951   0.697   4.242   3.051
 2137SOL     OW 6952   0.473   4.224   2.053
 2137SOL    HW1 6953   0.534   4.304   2.057
 2137SOL    HW2 6954   0.378   4.255   2.060
 2138SOL     OW 6955   0.159   4.861   3.328
 2138SOL    HW1 6956   0.181   4.800   3.404
 2138SOL    HW2 6957   0.169   4.812   3.242
 2139SOL     OW 6958   1.347   4.783   3.096
 2139SOL    HW1 6959   1.371   4.720   3.022
 2139SOL    HW2 6960   1.257   4.823   3.078
 2140SOL     OW 6961   1.302   4.579   2.171
 2140SOL    HW1 6962   1.216   4.548   2.213
 2140SOL    HW2 6963   1.298   4.565   2.072
 2141SOL     OW 6964   0.083   4.982   2.884
 2141SOL    HW1 6965   0.078   4.981   2.984
 2141SOL    HW2 6966   0.000   4.941   2.846
 2142SOL     OW 6967   0.688   5.386   3.578
 2142SOL    HW1 6968   0.632   5.467   3.587
 2142SOL    HW2 6969   0.740   5.390   3.492
 2143SOL     OW 6970   1.726   3.859   2.385
 2143SOL    HW1 6971   1.799   3.842   2.318
 2143SOL    HW2 6972   1.695   3.772   2.423
 2144SOL     OW 6973   1.280   4.651   2.534
 2144SOL    HW1 6974   1.340   4.570   2.536
 2144SOL    HW2 6975   1.320   4.720   2.474
 2145SOL     OW 6976   0.830   4.997   3.284
 2145SOL    HW1 6977   0.825   5.030   3.379
 2145SOL    HW2 6978   0.744   5.016   3.238
 2146SOL     OW 6979   1.841   3.899   2.825
 2146SOL    HW1 6980   1.880   3.814   2.789
 2146SOL    HW2 6981   1.743   3.901   2.806
 2147SOL     OW 6982   0.263   4.050   2.582
 2147SOL    HW1 6983   0.184   4.101   2.548
 2147SOL    HW2 6984   0.254   4.035   2.680
 2148SOL     OW 6985   0.822   4.726   3.234
 2148SOL    HW1 6986   0.862   4.725   3.142
 2148SOL    HW2 6987   0.832   4.818   3.274
 2149SOL     OW 6988   0.916   4.634   2.153
 2149SOL    HW1 6989   0.979   4.672   2.085
 2149SOL    HW2 6990   0.956   4.551   2.192
 2150SOL     OW 6991   0.372   5.012   3.352
 2150SOL    HW1 6992   0.359   5.105   3.318
 2150SOL    HW2 6993   0.288   4.960   3.339
 2151SOL     OW 6994   1.614   5.016   3.151
 2151SOL    HW1 6995   1.674   5.019   3.231
 2151SOL    HW2 6996   1.539   5.080   3.164
 2152SOL     OW 6997   1.039   4.822   2.558
 2152SOL    HW1 6998   0.969   4.775   2.612
 2152SOL    HW2 6999   1.098   4.754   2.515
 2153SOL     OW 7000   1.014   3.960   2.833
 2153SOL    HW1 7001   1.006   3.924   2.740
 2153SOL    HW2 7002   1.012   3.884   2.898
 2154SOL     OW 7003   1.709   4.109   3.243
 2154SOL    HW1 7004   1.782   4.178   3.247
 2154SOL    HW2 7005   1.737   4.034   3.184
 2155SOL     OW 7006   0.255   5.072   2.152
 2155SOL    HW1 7007   0.159   5.073   2.125
 2155SOL    HW2 7008   0.267   5.125   2.236
 2156SOL     OW 7009   0.105   4.737   3.588
 2156SOL    HW1 7010   0.028   4.704   3.642
 2156SOL    HW2 7011   0.190   4.707   3.630
 2157SOL     OW 7012   0.672   3.927   3.351
 2157SOL    HW1 7013   0.762   3.911   3.311
 2157SOL    HW2 7014   0.680   3.932   3.450
 2158SOL     OW 7015   0.075   4.069   1.895
 2158SOL    HW1 7016  -0.017   4.041   1.866
 2158SOL    HW2 7017   0.106   4.146   1.839
 2159SOL     OW 7018   1.440   4.580   3.260
 2159SOL    HW1 7019   1.383   4.632   3.197
 2159SOL    HW2 7020   1.536   4.592   3.236
 2160SOL     OW 7021   0.072   3.890   2.180
 2160SOL    HW1 7022   0.055   3.973   2.126
 2160SOL    HW2 7023   0.162   3.853   2.158
 2161SOL     OW 7024   1.183   5.059   1.981
 2161SOL    HW1 7025   1.084   5.048   1.983
 2161SOL    HW2 7026   1.217   5.074   2.074
 2162SOL     OW 7027   0.613   4.566   3.293
 2162SOL    HW1 7028   0.669   4.647   3.276
 2162SOL    HW2 7029   0.672   4.486   3.296
 2163SOL     OW 7030   0.716   4.289   3.570
 2163SOL    HW1 7031   0.735   4.354   3.644
 2163SOL    HW2 7032   0.776   4.209   3.579
 2164SOL     OW 7033   1.450   4.944   3.495
 2164SOL    HW1 7034   1.441   4.934   3.594
 2164SOL    HW2 7035   1.546   4.937   3.469
 2165SOL     OW 7036   1.674   4.607   3.116
 2165SOL    HW1 7037   1.647   4.518   3.079
 2165SOL    HW2 7038   1.675   4.675   3.043
 2166SOL     OW 7039   1.225   4.049   2.311
 2166SOL    HW1 7040   1.290   3.975   2.300
 2166SOL    HW2 7041   1.245   4.099   2.395
 2167SOL     OW 7042   0.594   4.469   2.514
 2167SOL    HW1 7043   0.644   4.554   2.495
 2167SOL    HW2 7044   0.506   4.471   2.466
 2168SOL     OW 7045   1.777   4.066   3.504
 2168SOL    HW1 7046   1.760   4.097   3.410
 2168SOL    HW2 7047   1.693   4.029   3.542
 2169SOL     OW 7048   1.730   4.658   3.379
 2169SOL    HW1 7049   1.768   4.749   3.394
 2169SOL    HW2 7050   1.722   4.641   3.280
 2170SOL     OW 7051   0.859   5.098   1.878
 2170SOL    HW1 7052   0.813   5.113   1.966
 2170SOL    HW2 7053   0.903   5.183   1.848
 2171SOL     OW 7054   0.859   4.680   2.723
 2171SOL    HW1 7055   0.913   4.611   2.771
 2171SOL    HW2 7056   0.827   4.749   2.789
 2172SOL     OW 7057   1.083   4.708   1.949
 2172SOL    HW1 7058   1.060   4.761   1.867
 2172SOL    HW2 7059   1.164   4.652   1.930
 2173SOL     OW 7060   0.221   5.038   3.706
 2173SOL    HW1 7061   0.156   4.965   3.685
 2173SOL    HW2 7062   0.225   5.052   3.804
 2174SOL     OW 7063   0.079   4.964   2.515
 2174SOL    HW1 7064   0.078   4.917   2.603
 2174SOL    HW2 7065   0.161   4.936   2.464
 2175SOL     OW 7066   0.672   5.115   3.486
 2175SOL    HW1 7067   0.594   5.065   3.524
 2175SOL    HW2 7068   0.669   5.210   3.517
 2176SOL     OW 7069   1.824   3.916   3.089
 2176SOL    HW1 7070   1.820   3.826   3.133
 2176SOL    HW2 7071   1.827   3.905   2.990
 2177SOL     OW 7072   0.428   4.148   2.382
 2177SOL    HW1 7073   0.458   4.076   2.320
 2177SOL    HW2 7074   0.389   4.108   2.465
 2178SOL     OW 7075   1.705   5.211   2.966
 2178SOL    HW1 7076   1.612   5.186   2.939
 2178SOL    HW2 7077   1.731   5.161   3.048
 2179SOL     OW 7078   0.317   4.271   3.142
 2179SOL    HW1 7079   0.355   4.212   3.214
 2179SOL    HW2 7080   0.357   4.245   3.054
 2180SOL     OW 7081   1.424   3.938   2.974
 2180SOL    HW1 7082   1.476   3.873   3.029
 2180SOL    HW2 7083   1.375   4.001   3.035
 2181SOL     OW 7084   1.001   3.758   3.016
 2181SOL    HW1 7085   0.938   3.686   2.985
 2181SOL    HW2 7086   1.094   3.722   3.016
 2182SOL     OW 7087   0.770   5.054   2.163
 2182SOL    HW1 7088   0.724   4.967   2.180
 2182SOL    HW2 7089   0.861   5.051   2.204
 2183SOL     OW 7090   0.618   5.291   3.146
 2183SOL    HW1 7091   0.613   5.373   3.203
 2183SOL    HW2 7092   0.707   5.288   3.101
 2184SOL     OW 7093   1.352   3.776   2.030
 2184SOL    HW1 7094   1.387   3.735   1.946
 2184SOL    HW2 7095   1.262   3.738   2.050
 2185SOL     OW 7096   1.300   4.177   2.553
 2185SOL    HW1 7097   1.241   4.257   2.557
 2185SOL    HW2 7098   1.315   4.142   2.646
 2186SOL     OW 7099   1.593   3.945   2.744
 2186SOL    HW1 7100   1.509   3.944   2.798
 2186SOL    HW2 7101   1.595   4.028   2.688
 2187SOL     OW 7102   0.039   4.801   2.162
 2187SOL    HW1 7103   0.138   4.790   2.153
 2187SOL    HW2 7104  -0.001   4.715   2.194
 2188SOL     OW 7105   0.230   4.352   3.837
 2188SOL    HW1 7106   0.137   4.350   3.874
 2188SOL    HW2 7107   0.231   4.313   3.745
 2189SOL     OW 7108   0.225   3.999   4.720
 2189SOL    HW1 7109   0.260   3.982   4.812
 2189SOL    HW2 7110   0.137   3.954   4.708
 2190SOL     OW 7111   0.019   4.092   4.371
 2190SOL    HW1 7112  -0.063   4.135   4.410
 2190SOL    HW2 7113  -0.009   4.019   4.308
 2191SOL     OW 7114   0.569   4.999   4.889
 2191SOL    HW1 7115   0.476   4.992   4.852
 2191SOL    HW2 7116   0.580   5.088   4.933
 2192SOL     OW 7117   1.555   5.235   4.427
 2192SOL    HW1 7118   1.498   5.219   4.508
 2192SOL    HW2 7119   1.496   5.245   4.347
 2193SOL     OW 7120   1.135   4.427   4.441
 2193SOL    HW1 7121   1.192   4.505   4.416
 2193SOL    HW2 7122   1.075   4.453   4.517
 2194SOL     OW 7123   1.755   4.331   3.955
 2194SOL    HW1 7124   1.743   4.318   3.856
 2194SOL    HW2 7125   1.725   4.250   4.004
 2195SOL     OW 7126   0.768   4.868   4.747
 2195SOL    HW1 7127   0.690   4.885   4.807
 2195SOL    HW2 7128   0.802   4.955   4.711
 2196SOL     OW 7129   0.850   4.522   5.547
 2196SOL    HW1 7130   0.846   4.598   5.612
 2196SOL    HW2 7131   0.872   4.558   5.456
 2197SOL     OW 7132   0.685   4.736   4.389
 2197SOL    HW1 7133   0.754   4.720   4.459
 2197SOL    HW2 7134   0.612   4.793   4.427
 2198SOL     OW 7135   0.686   4.885   5.527
 2198SOL    HW1 7136   0.746   4.964   5.541
 2198SOL    HW2 7137   0.600   4.916   5.486
 2199SOL     OW 7138   0.335   5.159   4.785
 2199SOL    HW1 7139   0.257   5.128   4.732
 2199SOL    HW2 7140   0.393   5.217   4.728
 2200SOL     OW 7141   1.460   5.229   5.063
 2200SOL    HW1 7142   1.484   5.323   5.089
 2200SOL    HW2 7143   1.444   5.175   5.145
 2201SOL     OW 7144   0.438   4.116   5.223
 2201SOL    HW1 7145   0.520   4.060   5.232
 2201SOL    HW2 7146   0.357   4.058   5.227
 2202SOL     OW 7147   1.603   4.171   4.461
 2202SOL    HW1 7148   1.529   4.217   4.411
 2202SOL    HW2 7149   1.654   4.239   4.514
 2203SOL     OW 7150   1.127   5.065   5.414
 2203SOL    HW1 7151   1.174   5.065   5.502
 2203SOL    HW2 7152   1.079   4.978   5.403
 2204SOL     OW 7153   0.230   5.158   4.262
 2204SOL    HW1 7154   0.204   5.254   4.262
 2204SOL    HW2 7155   0.159   5.104   4.307
 2205SOL     OW 7156   0.240   4.815   4.610
 2205SOL    HW1 7157   0.254   4.731   4.662
 2205SOL    HW2 7158   0.185   4.879   4.665
 2206SOL     OW 7159   0.606   4.688   3.847
 2206SOL    HW1 7160   0.613   4.772   3.793
 2206SOL    HW2 7161   0.652   4.701   3.935
 2207SOL     OW 7162   1.594   3.838   5.204
 2207SOL    HW1 7163   1.576   3.905   5.132
 2207SOL    HW2 7164   1.591   3.884   5.293
 2208SOL     OW 7165   0.122   4.367   4.287
 2208SOL    HW1 7166   0.077   4.279   4.304
 2208SOL    HW2 7167   0.121   4.421   4.371
 2209SOL     OW 7168   0.027   5.320   3.841
 2209SOL    HW1 7169   0.008   5.224   3.862
 2209SOL    HW2 7170  -0.006   5.378   3.916
 2210SOL     OW 7171   1.689   4.646   4.336
 2210SOL    HW1 7172   1.784   4.617   4.344
 2210SOL    HW2 7173   1.681   4.711   4.261
 2211SOL     OW 7174   1.641   4.832   4.156
 2211SOL    HW1 7175   1.727   4.834   4.104
 2211SOL    HW2 7176   1.655   4.879   4.244
 2212SOL     OW 7177   0.113   4.461   5.321
 2212SOL    HW1 7178   0.201   4.448   5.366
 2212SOL    HW2 7179   0.100   4.558   5.299
 2213SOL     OW 7180   0.613   5.089   4.450
 2213SOL    HW1 7181   0.564   5.002   4.459
 2213SOL    HW2 7182   0.590   5.132   4.363
 2214SOL     OW 7183   1.293   4.952   5.147
 2214SOL    HW1 7184   1.330   4.879   5.089
 2214SOL    HW2 7185   1.345   4.957   5.232
 2215SOL     OW 7186   0.809   3.728   4.226
 2215SOL    HW1 7187   0.849   3.819   4.217
 2215SOL    HW2 7188   0.709   3.736   4.232
 2216SOL     OW 7189   0.197   4.700   4.988
 2216SOL    HW1 7190   0.286   4.655   4.974
 2216SOL    HW2 7191   0.124   4.635   4.969
 2217SOL     OW 7192   1.525   4.723   3.914
 2217SOL    HW1 7193   1.462   4.647   3.927
 2217SOL    HW2 7194   1.573   4.741   4.000
 2218SOL     OW 7195   0.317   3.975   5.525
 2218SOL    HW1 7196   0.388   4.046   5.531
 2218SOL    HW2 7197   0.229   4.014   5.553
 2219SOL     OW 7198   1.466   5.141   4.677
 2219SOL    HW1 7199   1.407   5.147   4.757
 2219SOL    HW2 7200   1.451   5.053   4.631
 2220SOL     OW 7201   0.598   4.453   3.994
 2220SOL    HW1 7202   0.622   4.522   3.926
 2220SOL    HW2 7203   0.520   4.486   4.048
 2221SOL     OW 7204   1.281   4.069   4.668
 2221SOL    HW1 7205   1.195   4.019   4.655
 2221SOL    HW2 7206   1.343   4.015   4.724
 2222SOL     OW 7207   0.807   4.329   5.189
 2222SOL    HW1 7208   0.760   4.326   5.278
 2222SOL    HW2 7209   0.756   4.274   5.123
 2223SOL     OW 7210   1.394   4.193   5.398
 2223SOL    HW1 7211   1.374   4.236   5.486
 2223SOL    HW2 7212   1.472   4.131   5.407
 2224SOL     OW 7213   0.973   4.614   5.296
 2224SOL    HW1 7214   1.019   4.530   5.267
 2224SOL    HW2 7215   0.917   4.648   5.221
 2225SOL     OW 7216   0.991   4.134   4.966
 2225SOL    HW1 7217   0.914   4.168   5.020
 2225SOL    HW2 7218   0.957   4.083   4.887
 2226SOL     OW 7219   1.041   4.425   4.153
 2226SOL    HW1 7220   1.067   4.421   4.249
 2226SOL    HW2 7221   0.956   4.374   4.139
 2227SOL     OW 7222   0.076   4.535   4.513
 2227SOL    HW1 7223   0.175   4.523   4.522
 2227SOL    HW2 7224   0.052   4.630   4.534
 2228SOL     OW 7225   0.865   4.072   3.919
 2228SOL    HW1 7226   0.924   4.135   3.870
 2228SOL    HW2 7227   0.884   3.978   3.890
 2229SOL     OW 7228   1.719   4.309   5.555
 2229SOL    HW1 7229   1.693   4.398   5.519
 2229SOL    HW2 7230   1.717   4.241   5.482
 2230SOL     OW 7231   1.362   4.868   4.269
 2230SOL    HW1 7232   1.445   4.839   4.221
 2230SOL    HW2 7233   1.313   4.935   4.213
 2231SOL     OW 7234   0.550   3.920   4.609
 2231SOL    HW1 7235   0.545   3.915   4.709
 2231SOL    HW2 7236   0.552   4.016   4.580
 2232SOL     OW 7237   1.008   5.180   4.201
 2232SOL    HW1 7238   0.962   5.252   4.149
 2232SOL    HW2 7239   1.004   5.200   4.299
 2233SOL     OW 7240   1.795   4.790   4.597
 2233SOL    HW1 7241   1.733   4.775   4.521
 2233SOL    HW2 7242   1.743   4.801   4.682
 2234SOL     OW 7243   1.227   5.274   5.230
 2234SOL    HW1 7244   1.233   5.197   5.294
 2234SOL    HW2 7245   1.175   5.248   5.150
 2235SOL     OW 7246   0.321   4.667   3.966
 2235SOL    HW1 7247   0.403   4.706   3.924
 2235SOL    HW2 7248   0.294   4.585   3.917
 2236SOL     OW 7249   1.458   4.459   4.452
 2236SOL    HW1 7250   1.453   4.394   4.527
 2236SOL    HW2 7251   1.538   4.518   4.465
 2237SOL     OW 7252   0.461   4.990   5.451
 2237SOL    HW1 7253   0.411   4.991   5.365
 2237SOL    HW2 7254   0.398   4.972   5.527
 2238SOL     OW 7255   1.111   5.500   3.961
 2238SOL    HW1 7256   1.051   5.438   4.011
 2238SOL    HW2 7257   1.142   5.456   3.876
 2239SOL     OW 7258   0.202   4.009   5.222
 2239SOL    HW1 7259   0.122   4.069   5.209
 2239SOL    HW2 7260   0.192   3.960   5.308
 2240SOL     OW 7261   1.632   5.101   3.805
 2240SOL    HW1 7262   1.600   5.195   3.795
 2240SOL    HW2 7263   1.556   5.038   3.793
 2241SOL     OW 7264   1.400   3.831   4.150
 2241SOL    HW1 7265   1.376   3.794   4.060
 2241SOL    HW2 7266   1.499   3.847   4.154
 2242SOL     OW 7267   0.382   4.424   4.204
 2242SOL    HW1 7268   0.427   4.334   4.201
 2242SOL    HW2 7269   0.288   4.413   4.237
 2243SOL     OW 7270   1.547   3.946   5.453
 2243SOL    HW1 7271   1.542   3.983   5.545
 2243SOL    HW2 7272   1.475   3.877   5.441
 2244SOL     OW 7273   0.614   3.846   3.841
 2244SOL    HW1 7274   0.712   3.824   3.848
 2244SOL    HW2 7275   0.583   3.829   3.748
 2245SOL     OW 7276   0.781   3.988   5.473
 2245SOL    HW1 7277   0.848   3.927   5.516
 2245SOL    HW2 7278   0.708   4.007   5.538
 2246SOL     OW 7279   1.351   4.314   5.157
 2246SOL    HW1 7280   1.379   4.271   5.242
 2246SOL    HW2 7281   1.376   4.410   5.158
 2247SOL     OW 7282   0.803   5.126   4.648
 2247SOL    HW1 7283   0.893   5.140   4.606
 2247SOL    HW2 7284   0.732   5.128   4.577
 2248SOL     OW 7285   0.922   4.227   4.623
 2248SOL    HW1 7286   0.897   4.218   4.527
 2248SOL    HW2 7287   0.970   4.145   4.654
 2249SOL     OW 7288   0.539   3.788   4.236
 2249SOL    HW1 7289   0.458   3.789   4.294
 2249SOL    HW2 7290   0.542   3.871   4.181
 2250SOL     OW 7291   1.434   4.912   3.765
 2250SOL    HW1 7292   1.466   4.836   3.822
 2250SOL    HW2 7293   1.342   4.939   3.795
 2251SOL     OW 7294   0.297   3.759   3.895
 2251SOL    HW1 7295   0.346   3.843   3.874
 2251SOL    HW2 7296   0.359   3.694   3.940
 2252SOL     OW 7297   0.935   3.960   4.204
 2252SOL    HW1 7298   0.887   4.001   4.126
 2252SOL    HW2 7299   1.034   3.958   4.185
 2253SOL     OW 7300   1.076   4.407   5.188
 2253SOL    HW1 7301   0.996   4.346   5.191
 2253SOL    HW2 7302   1.157   4.354   5.164
 2254SOL     OW 7303   1.227   5.294   4.517
 2254SOL    HW1 7304   1.248   5.368   4.452
 2254SOL    HW2 7305   1.295   5.294   4.590
 2255SOL     OW 7306   0.459   4.876   4.465
 2255SOL    HW1 7307   0.388   4.849   4.530
 2255SOL    HW2 7308   0.433   4.848   4.372
 2256SOL     OW 7309   1.032   4.273   3.740
 2256SOL    HW1 7310   0.991   4.355   3.701
 2256SOL    HW2 7311   1.096   4.299   3.813
 2257SOL     OW 7312   0.078   4.280   5.110
 2257SOL    HW1 7313   0.170   4.279   5.069
 2257SOL    HW2 7314   0.072   4.354   5.177
 2258SOL     OW 7315   0.561   3.946   4.871
 2258SOL    HW1 7316   0.599   3.862   4.908
 2258SOL    HW2 7317   0.473   3.965   4.915
 2259SOL     OW 7318   0.866   4.178   4.366
 2259SOL    HW1 7319   0.834   4.250   4.304
 2259SOL    HW2 7320   0.890   4.097   4.313
 2260SOL     OW 7321   1.017   3.763   4.477
 2260SOL    HW1 7322   0.945   3.768   4.408
 2260SOL    HW2 7323   0.993   3.694   4.546
 2261SOL     OW 7324   1.429   4.897   4.591
 2261SOL    HW1 7325   1.374   4.813   4.584
 2261SOL    HW2 7326   1.455   4.926   4.499
 2262SOL     OW 7327   1.466   4.314   4.716
 2262SOL    HW1 7328   1.436   4.219   4.723
 2262SOL    HW2 7329   1.539   4.330   4.782
 2263SOL     OW 7330   1.857   4.557   4.101
 2263SOL    HW1 7331   1.899   4.493   4.165
 2263SOL    HW2 7332   1.819   4.506   4.023
 2264SOL     OW 7333   0.488   5.109   3.898
 2264SOL    HW1 7334   0.401   5.094   3.945
 2264SOL    HW2 7335   0.471   5.135   3.803
 2265SOL     OW 7336   1.664   5.004   4.381
 2265SOL    HW1 7337   1.763   5.012   4.395
 2265SOL    HW2 7338   1.619   5.088   4.412
 2266SOL     OW 7339   1.390   4.299   3.802
 2266SOL    HW1 7340   1.336   4.278   3.883
 2266SOL    HW2 7341   1.481   4.258   3.811
 2267SOL     OW 7342   0.527   3.980   4.052
 2267SOL    HW1 7343   0.554   3.921   3.977
 2267SOL    HW2 7344   0.527   4.075   4.021
 2268SOL     OW 7345   1.754   4.947   5.312
 2268SOL    HW1 7346   1.845   4.908   5.299
 2268SOL    HW2 7347   1.762   5.043   5.336
 2269SOL     OW 7348   1.064   5.071   5.064
 2269SOL    HW1 7349   0.984   5.048   5.119
 2269SOL    HW2 7350   1.147   5.045   5.113
 2270SOL     OW 7351   1.111   4.919   4.824
 2270SOL    HW1 7352   1.071   4.963   4.905
 2270SOL    HW2 7353   1.070   4.956   4.741
 2271SOL     OW 7354   1.638   4.823   4.803
 2271SOL    HW1 7355   1.643   4.904   4.862
 2271SOL    HW2 7356   1.552   4.825   4.752
 2272SOL     OW 7357   0.915   3.813   5.126
 2272SOL    HW1 7358   0.940   3.793   5.031
 2272SOL    HW2 7359   0.987   3.869   5.168
 2273SOL     OW 7360   0.980   4.840   5.443
 2273SOL    HW1 7361   0.881   4.846   5.453
 2273SOL    HW2 7362   1.003   4.760   5.387
 2274SOL     OW 7363   0.705   4.774   4.092
 2274SOL    HW1 7364   0.691   4.781   4.191
 2274SOL    HW2 7365   0.789   4.723   4.074
 2275SOL     OW 7366   0.410   4.537   4.975
 2275SOL    HW1 7367   0.496   4.549   5.025
 2275SOL    HW2 7368   0.368   4.450   5.002
 2276SOL     OW 7369   1.274   4.110   4.986
 2276SOL    HW1 7370   1.295   4.184   5.050
 2276SOL    HW2 7371   1.185   4.127   4.943
 2277SOL     OW 7372   0.064   5.288   5.055
 2277SOL    HW1 7373   0.018   5.370   5.021
 2277SOL    HW2 7374   0.162   5.307   5.064
 2278SOL     OW 7375   0.367   4.824   4.225
 2278SOL    HW1 7376   0.360   4.907   4.169
 2278SOL    HW2 7377   0.371   4.744   4.165
 2279SOL     OW 7378   0.566   4.261   4.589
 2279SOL    HW1 7379   0.578   4.327   4.515
 2279SOL    HW2 7380   0.612   4.295   4.672
 2280SOL     OW 7381   1.252   5.072   4.112
 2280SOL    HW1 7382   1.302   5.149   4.152
 2280SOL    HW2 7383   1.157   5.074   4.144
 2281SOL     OW 7384   1.272   5.169   4.866
 2281SOL    HW1 7385   1.319   5.182   4.953
 2281SOL    HW2 7386   1.206   5.095   4.875
 2282SOL     OW 7387   1.582   4.363   4.196
 2282SOL    HW1 7388   1.551   4.424   4.269
 2282SOL    HW2 7389   1.632   4.415   4.127
 2283SOL     OW 7390   0.354   5.234   5.053
 2283SOL    HW1 7391   0.333   5.190   4.966
 2283SOL    HW2 7392   0.451   5.260   5.056
 2284SOL     OW 7393   0.402   4.475   5.322
 2284SOL    HW1 7394   0.470   4.530   5.275
 2284SOL    HW2 7395   0.442   4.387   5.349
 2285SOL     OW 7396   1.587   4.503   5.394
 2285SOL    HW1 7397   1.495   4.541   5.389
 2285SOL    HW2 7398   1.647   4.550   5.329
 2286SOL     OW 7399   1.013   3.829   5.494
 2286SOL    HW1 7400   1.019   3.914   5.442
 2286SOL    HW2 7401   1.045   3.753   5.437
 2287SOL     OW 7402   0.504   3.774   5.464
 2287SOL    HW1 7403   0.462   3.717   5.394
 2287SOL    HW2 7404   0.438   3.843   5.496
 2288SOL     OW 7405   0.573   4.594   4.753
 2288SOL    HW1 7406   0.617   4.683   4.744
 2288SOL    HW2 7407   0.510   4.594   4.830
 2289SOL     OW 7408   1.360   4.586   4.769
 2289SOL    HW1 7409   1.285   4.586   4.703
 2289SOL    HW2 7410   1.397   4.494   4.778
 2290SOL     OW 7411   1.209   4.249   3.999
 2290SOL    HW1 7412   1.222   4.165   4.053
 2290SOL    HW2 7413   1.180   4.323   4.059
 2291SOL     OW 7414   0.307   3.937   4.955
 2291SOL    HW1 7415   0.284   3.974   5.045
 2291SOL    HW2 7416   0.277   3.842   4.949
 2292SOL     OW 7417   0.037   5.034   5.006
 2292SOL    HW1 7418   0.090   4.985   5.074
 2292SOL    HW2 7419   0.059   5.132   5.011
 2293SOL     OW 7420   0.732   4.358   4.788
 2293SOL    HW1 7421   0.791   4.332   4.712
 2293SOL    HW2 7422   0.704   4.454   4.777
 2294SOL     OW 7423   1.728   4.659   5.578
 2294SOL    HW1 7424   1.682   4.652   5.489
 2294SOL    HW2 7425   1.666   4.703   5.644
 2295SOL     OW 7426   0.307   3.787   4.342
 2295SOL    HW1 7427   0.296   3.881   4.375
 2295SOL    HW2 7428   0.302   3.724   4.419
 2296SOL     OW 7429   1.622   4.091   4.098
 2296SOL    HW1 7430   1.624   4.015   4.162
 2296SOL    HW2 7431   1.574   4.168   4.138
 2297SOL     OW 7432   1.023   4.490   4.690
 2297SOL    HW1 7433   1.038   4.511   4.786
 2297SOL    HW2 7434   0.993   4.395   4.681
 2298SOL     OW 7435   1.859   5.242   5.329
 2298SOL    HW1 7436   1.873   5.269   5.234
 2298SOL    HW2 7437   1.942   5.264   5.382
 2299SOL     OW 7438   0.350   4.622   5.528
 2299SOL    HW1 7439   0.426   4.666   5.576
 2299SOL    HW2 7440   0.385   4.575   5.446
 2300SOL     OW 7441   1.540   3.998   3.849
 2300SOL    HW1 7442   1.479   3.923   3.872
 2300SOL    HW2 7443   1.562   4.050   3.932
 2301SOL     OW 7444   1.303   4.562   3.766
 2301SOL    HW1 7445   1.337   4.469   3.781
 2301SOL    HW2 7446   1.321   4.589   3.671
 2302SOL     OW 7447   1.068   5.057   4.573
 2302SOL    HW1 7448   1.075   4.973   4.518
 2302SOL    HW2 7449   1.130   5.126   4.537
 2303SOL     OW 7450   0.319   4.534   4.673
 2303SOL    HW1 7451   0.412   4.570   4.678
 2303SOL    HW2 7452   0.313   4.449   4.725
 2304SOL     OW 7453   0.339   4.233   4.730
 2304SOL    HW1 7454   0.287   4.150   4.713
 2304SOL    HW2 7455   0.416   4.238   4.666
 2305SOL     OW 7456   1.138   4.104   5.402
 2305SOL    HW1 7457   1.093   4.167   5.466
 2305SOL    HW2 7458   1.231   4.135   5.385
 2306SOL     OW 7459   1.160   3.931   5.201
 2306SOL    HW1 7460   1.160   3.995   5.278
 2306SOL    HW2 7461   1.188   3.979   5.118
 2307SOL     OW 7462   0.008   5.050   3.924
 2307SOL    HW1 7463  -0.085   5.071   3.893
 2307SOL    HW2 7464   0.018   4.951   3.937
 2308SOL     OW 7465   1.002   4.520   4.962
 2308SOL    HW1 7466   1.043   4.488   5.048
 2308SOL    HW2 7467   0.906   4.493   4.959
 2309SOL     OW 7468   0.040   4.268   4.838
 2309SOL    HW1 7469   0.125   4.235   4.797
 2309SOL    HW2 7470   0.053   4.283   4.936
 2310SOL     OW 7471   0.189   4.244   5.446
 2310SOL    HW1 7472   0.248   4.204   5.376
 2310SOL    HW2 7473   0.131   4.315   5.405
 2311SOL     OW 7474   1.369   4.674   5.384
 2311SOL    HW1 7475   1.408   4.763   5.404
 2311SOL    HW2 7476   1.379   4.654   5.287
 2312SOL     OW 7477   0.815   4.296   4.049
 2312SOL    HW1 7478   0.822   4.207   4.003
 2312SOL    HW2 7479   0.721   4.330   4.041
 2313SOL     OW 7480   1.657   4.328   4.930
 2313SOL    HW1 7481   1.619   4.259   4.992
 2313SOL    HW2 7482   1.739   4.292   4.886
 2314SOL     OW 7483   0.252   5.288   5.468
 2314SOL    HW1 7484   0.222   5.345   5.544
 2314SOL    HW2 7485   0.245   5.191   5.494
 2315SOL     OW 7486   0.671   4.188   4.993
 2315SOL    HW1 7487   0.637   4.099   4.963
 2315SOL    HW2 7488   0.697   4.242   4.913
 2316SOL     OW 7489   0.473   4.224   3.915
 2316SOL    HW1 7490   0.534   4.304   3.919
 2316SOL    HW2 7491   0.378   4.255   3.922
 2317SOL     OW 7492   0.159   4.861   5.190
 2317SOL    HW1 7493   0.181   4.800   5.266
 2317SOL    HW2 7494   0.169   4.812   5.104
 2318SOL     OW 7495   1.347   4.783   4.958
 2318SOL    HW1 7496   1.371   4.720   4.884
 2318SOL    HW2 7497   1.257   4.823   4.940
 2319SOL     OW 7498   1.302   4.579   4.033
 2319SOL    HW1 7499   1.216   4.548   4.075
 2319SOL    HW2 7500   1.298   4.565   3.934
 2320SOL     OW 7501   0.083   4.982   4.746
 2320SOL    HW1 7502   0.078   4.981   4.846
 2320SOL    HW2 7503   0.000   4.941   4.708
 2321SOL     OW 7504   0.688   5.386   5.440
 2321SOL    HW1 7505   0.632   5.467   5.449
 2321SOL    HW2 7506   0.740   5.390   5.354
 2322SOL     OW 7507   1.726   3.859   4.247
 2322SOL    HW1 7508   1.799   3.842   4.180
 2322SOL    HW2 7509   1.695   3.772   4.285
 2323SOL     OW 7510   1.280   4.651   4.396
 2323SOL    HW1 7511   1.340   4.570   4.398
 2323SOL    HW2 7512   1.320   4.720   4.336
 2324SOL     OW 7513   0.830   4.997   5.146
 2324SOL    HW1 7514   0.825   5.030   5.241
 2324SOL    HW2 7515   0.744   5.016   5.100
 2325SOL     OW 7516   1.841   3.899   4.687
 2325SOL    HW1 7517   1.880   3.814   4.651
 2325SOL    HW2 7518   1.743   3.901   4.668
 2326SOL     OW 7519   0.263   4.050   4.444
 2326SOL    HW1 7520   0.184   4.101   4.410
 2326SOL    HW2 7521   0.254   4.035   4.542
 2327SOL     OW 7522   0.822   4.726   5.096
 2327SOL    HW1 7523   0.862   4.725   5.004
 2327SOL    HW2 7524   0.832   4.818   5.136
 2328SOL     OW 7525   0.916   4.634   4.015
 2328SOL    HW1 7526   0.979   4.672   3.947
 2328SOL    HW2 7527   0.956   4.551   4.054
 2329SOL     OW 7528   0.372   5.012   5.214
 2329SOL    HW1 7529   0.359   5.105   5.180
 2329SOL    HW2 7530   0.288   4.960   5.201
 2330SOL     OW 7531   1.614   5.016   5.013
 2330SOL    HW1 7532   1.674   5.019   5.093
 2330SOL    HW2 7533   1.539   5.080   5.026
 2331SOL     OW 7534   1.039   4.822   4.420
 2331SOL    HW1 7535   0.969   4.775   4.474
 2331SOL    HW2 7536   1.098   4.754   4.377
 2332SOL     OW 7537   1.014   3.960   4.695
 2332SOL    HW1 7538   1.006   3.924   4.602
 2332SOL    HW2 7539   1.012   3.884   4.760
 2333SOL     OW 7540   1.709   4.109   5.105
 2333SOL    HW1 7541   1.782   4.178   5.109
 2333SOL    HW2 7542   1.737   4.034   5.046
 2334SOL     OW 7543   0.255   5.072   4.014
 2334SOL    HW1 7544   0.159   5.073   3.987
 2334SOL    HW2 7545   0.267   5.125   4.098
 2335SOL     OW 7546   0.105   4.737   5.450
 2335SOL    HW1 7547   0.028   4.704   5.504
 2335SOL    HW2 7548   0.190   4.707   5.492
 2336SOL     OW 7549   0.672   3.927   5.213
 2336SOL    HW1 7550   0.762   3.911   5.173
 2336SOL    HW2 7551   0.680   3.932   5.312
 2337SOL     OW 7552   0.075   4.069   3.757
 2337SOL    HW1 7553  -0.017   4.041   3.728
 2337SOL    HW2 7554   0.106   4.146   3.701
 2338SOL     OW 7555   1.440   4.580   5.122
 2338SOL    HW1 7556   1.383   4.632   5.059
 2338SOL    HW2 7557   1.536   4.592   5.098
 2339SOL     OW 7558   0.072   3.890   4.042
 2339SOL    HW1 7559   0.055   3.973   3.988
 2339SOL    HW2 7560   0.162   3.853   4.020
 2340SOL     OW 7561   1.183   5.059   3.843
 2340SOL    HW1 7562   1.084   5.048   3.845
 2340SOL    HW2 7563   1.217   5.074   3.936
 2341SOL     OW 7564   0.613   4.566   5.155
 2341SOL    HW1 7565   0.669   4.647   5.138
 2341SOL    HW2 7566   0.672   4.486   5.158
 2342SOL     OW 7567   0.716   4.289   5.432
 2342SOL    HW1 7568   0.735   4.354   5.506
 2342SOL    HW2 7569   0.776   4.209   5.441
 2343SOL     OW 7570   1.450   4.944   5.357
 2343SOL    HW1 7571   1.441   4.934   5.456
 2343SOL    HW2 7572   1.546   4.937   5.331
 2344SOL     OW 7573   1.674   4.607   4.978
 2344SOL    HW1 7574   1.647   4.518   4.941
 2344SOL    HW2 7575   1.675   4.675   4.905
 2345SOL     OW 7576   1.225   4.049   4.173
 2345SOL    HW1 7577   1.290   3.975   4.162
 2345SOL    HW2 7578   1.245   4.099   4.257
 2346SOL     OW 7579   0.594   4.469   4.376
 2346SOL    HW1 7580   0.644   4.554   4.357
 2346SOL    HW2 7581   0.506   4.471   4.328
 2347SOL     OW 7582   1.777   4.066   5.366
 2347SOL    HW1 7583   1.760   4.097   5.272
 2347SOL    HW2 7584   1.693   4.029   5.404
 2348SOL     OW 7585   1.730   4.658   5.241
 2348SOL    HW1 7586   1.768   4.749   5.256
 2348SOL    HW2 7587   1.722   4.641   5.142
 2349SOL     OW 7588   0.859   5.098   3.740
 2349SOL    HW1 7589   0.813   5.113   3.828
 2349SOL    HW2 7590   0.903   5.183   3.710
 2350SOL     OW 7591   0.859   4.680   4.585
 2350SOL    HW1 7592   0.913   4.611   4.633
 2350SOL    HW2 7593   0.827   4.749   4.651
 2351SOL     OW 7594   1.083   4.708   3.811
 2351SOL    HW1 7595   1.060   4.761   3.729
 2351SOL    HW2 7596   1.164   4.652   3.792
 2352SOL     OW 7597   0.221   5.038   5.568
 2352SOL    HW1 7598   0.156   4.965   5.547
 2352SOL    HW2 7599   0.225   5.052   5.666
 2353SOL     OW 7600   0.079   4.964   4.377
 2353SOL    HW1 7601   0.078   4.917   4.465
 2353SOL    HW2 7602   0.161   4.936   4.326
 2354SOL     OW 7603   0.672   5.115   5.348
 2354SOL    HW1 7604   0.594   5.065   5.386
 2354SOL    HW2 7605   0.669   5.210   5.379
 2355SOL     OW 7606   1.824   3.916   4.951
 2355SOL    HW1 7607   1.820   3.826   4.995
 2355SOL    HW2 7608   1.827   3.905   4.852
 2356SOL     OW 7609   0.428   4.148   4.244
 2356SOL    HW1 7610   0.458   4.076   4.182
 2356SOL    HW2 7611   0.389   4.108   4.327
 2357SOL     OW 7612   1.705   5.211   4.828
 2357SOL    HW1 7613   1.612   5.186   4.801
 2357SOL    HW2 7614   1.731   5.161   4.910
 2358SOL     OW 7615   0.317   4.271   5.004
 2358SOL    HW1 7616   0.355   4.212   5.076
 2358SOL    HW2 7617   0.357   4.245   4.916
 2359SOL     OW 7618   1.424   3.938   4.836
 2359SOL    HW1 7619   1.476   3.873   4.891
 2359SOL    HW2 7620   1.375   4.001   4.897
 2360SOL     OW 7621   1.001   3.758   4.878
 2360SOL    HW1 7622   0.938   3.686   4.847
 2360SOL    HW2 7623   1.094   3.722   4.878
 2361SOL     OW 7624   0.770   5.054   4.025
 2361SOL    HW1 7625   0.724   4.967   4.042
 2361SOL    HW2 7626   0.861   5.051   4.066
 2362SOL     OW 7627   0.618   5.291   5.008
 2362SOL    HW1 7628   0.613   5.373   5.065
 2362SOL    HW2 7629   0.707   5.288   4.963
 2363SOL     OW 7630   1.352   3.776   3.892
 2363SOL    HW1 7631   1.387   3.735   3.808
 2363SOL    HW2 7632   1.262   3.738   3.912
 2364SOL     OW 7633   1.300   4.177   4.415
 2364SOL    HW1 7634   1.241   4.257   4.419
 2364SOL    HW2 7635   1.315   4.142   4.508
 2365SOL     OW 7636   1.593   3.945   4.606
 2365SOL    HW1 7637   1.509   3.944   4.660
 2365SOL    HW2 7638   1.595   4.028   4.550
 2366SOL     OW 7639   0.039   4.801   4.024
 2366SOL    HW1 7640   0.138   4.790   4.015
 2366SOL    HW2 7641  -0.001   4.715   4.056
 2367SOL     OW 7642   0.230   4.352   5.699
 2367SOL    HW1 7643   0.137   4.350   5.736
 2367SOL    HW2 7644   0.231   4.313   5.607
 2368SOL     OW 7645   0.225   3.999   6.582
 2368SOL    HW1 7646   0.260   3.982   6.674
 2368SOL    HW2 7647   0.137   3.954   6.570
 2369SOL     OW 7648   0.019   4.092   6.233
 2369SOL    HW1 7649  -0.063   4.135   6.272
 2369SOL    HW2 7650  -0.009   4.019   6.170
 2370SOL     OW 7651   0.569   4.999   6.751
 2370SOL    HW1 7652   0.476   4.992   6.714
 2370SOL    HW2 7653   0.580   5.088   6.795
 2371SOL     OW 7654   1.555   5.235   6.289
 2371SOL    HW1 7655   1.498   5.219   6.370
 2371SOL    HW2 7656   1.496   5.245   6.209
 2372SOL     OW 7657   1.135   4.427   6.303
 2372SOL    HW1 7658   1.192   4.505   6.278
 2372SOL    HW2 7659   1.075   4.453   6.379
 2373SOL     OW 7660   1.755   4.331   5.817
 2373SOL    HW1 7661   1.743   4.318   5.718
 2373SOL    HW2 7662   1.725   4.250   5.866
 2374SOL     OW 7663   0.768   4.868   6.609
 2374SOL    HW1 7664   0.690   4.885   6.669
 2374SOL    HW2 7665   0.802   4.955   6.573
 2375SOL     OW 7666   0.850   4.522   7.409
 2375SOL    HW1 7667   0.846   4.598   7.474
 2375SOL    HW2 7668   0.872   4.558   7.318
 2376SOL     OW 7669   0.685   4.736   6.251
 2376SOL    HW1 7670   0.754   4.720   6.321
 2376SOL    HW2 7671   0.612   4.793   6.289
 2377SOL     OW 7672   0.686   4.885   7.389
 2377SOL    HW1 7673   0.746   4.964   7.403
 2377SOL    HW2 7674   0.600   4.916   7.348
 2378SOL     OW 7675   0.335   5.159   6.647
 2378SOL    HW1 7676   0.257   5.128   6.594
 2378SOL    HW2 7677   0.393   5.217   6.590
 2379SOL     OW 7678   1.460   5.229   6.925
 2379SOL    HW1 7679   1.484   5.323   6.951
 2379SOL    HW2 7680   1.444   5.175   7.007
 2380SOL     OW 7681   0.438   4.116   7.085
 2380SOL    HW1 7682   0.520   4.060   7.094
 2380SOL    HW2 7683   0.357   4.058   7.089
 2381SOL     OW 7684   1.603   4.171   6.323
 2381SOL    HW1 7685   1.529   4.217   6.273
 2381SOL    HW2 7686   1.654   4.239   6.376
 2382SOL     OW 7687   1.127   5.065   7.276
 2382SOL    HW1 7688   1.174   5.065   7.364
 2382SOL    HW2 7689   1.079   4.978   7.265
 2383SOL     OW 7690   0.230   5.158   6.124
 2383SOL    HW1 7691   0.204   5.254   6.124
 2383SOL    HW2 7692   0.159   5.104   6.169
 2384SOL     OW 7693   0.240   4.815   6.472
 2384SOL    HW1 7694   0.254   4.731   6.524
 2384SOL    HW2 7695   0.185   4.879   6.527
 2385SOL     OW 7696   0.606   4.688   5.709
 2385SOL    HW1 7697   0.613   4.772   5.655
 2385SOL    HW2 7698   0.652   4.701   5.797
 2386SOL     OW 7699   1.594   3.838   7.066
 2386SOL    HW1 7700   1.576   3.905   6.994
 2386SOL    HW2 7701   1.591   3.884   7.155
 2387SOL     OW 7702   0.122   4.367   6.149
 2387SOL    HW1 7703   0.077   4.279   6.166
 2387SOL    HW2 7704   0.121   4.421   6.233
 2388SOL     OW 7705   0.027   5.320   5.703
 2388SOL    HW1 7706   0.008   5.224   5.724
 2388SOL    HW2 7707  -0.006   5.378   5.778
 2389SOL     OW 7708   1.689   4.646   6.198
 2389SOL    HW1 7709   1.784   4.617   6.206
 2389SOL    HW2 7710   1.681   4.711   6.123
 2390SOL     OW 7711   1.641   4.832   6.018
 2390SOL    HW1 7712   1.727   4.834   5.966
 2390SOL    HW2 7713   1.655   4.879   6.106
 2391SOL     OW 7714   0.113   4.461   7.183
 2391SOL    HW1 7715   0.201   4.448   7.228
 2391SOL    HW2 7716   0.100   4.558   7.161
 2392SOL     OW 7717   0.613   5.089   6.312
 2392SOL    HW1 7718   0.564   5.002   6.321
 2392SOL    HW2 7719   0.590   5.132   6.225
 2393SOL     OW 7720   1.293   4.952   7.009
 2393SOL    HW1 7721   1.330   4.879   6.951
 2393SOL    HW2 7722   1.345   4.957   7.094
 2394SOL     OW 7723   0.809   3.728   6.088
 2394SOL    HW1 7724   0.849   3.819   6.079
 2394SOL    HW2 7725   0.709   3.736   6.094
 2395SOL     OW 7726   0.197   4.700   6.850
 2395SOL    HW1 7727   0.286   4.655   6.836
 2395SOL    HW2 7728   0.124   4.635   6.831
 2396SOL     OW 7729   1.525   4.723   5.776
 2396SOL    HW1 7730   1.462   4.647   5.789
 2396SOL    HW2 7731   1.573   4.741   5.862
 2397SOL     OW 7732   0.317   3.975   7.387
 2397SOL    HW1 7733   0.388   4.046   7.393
 2397SOL    HW2 7734   0.229   4.014   7.415
 2398SOL     OW 7735   1.466   5.141   6.539
 2398SOL    HW1 7736   1.407   5.147   6.619
 2398SOL    HW2 7737   1.451   5.053   6.493
 2399SOL     OW 7738   0.598   4.453   5.856
 2399SOL    HW1 7739   0.622   4.522   5.788
 2399SOL    HW2 7740   0.520   4.486   5.910
 2400SOL     OW 7741   1.281   4.069   6.530
 2400SOL    HW1 7742   1.195   4.019   6.517
 2400SOL    HW2 7743   1.343   4.015   6.586
 2401SOL     OW 7744   0.807   4.329   7.051
 2401SOL    HW1 7745   0.760   4.326   7.140
 2401SOL    HW2 7746   0.756   4.274   6.985
 2402SOL     OW 7747   1.394   4.193   7.260
 2402SOL    HW1 7748   1.374   4.236   7.348
 2402SOL    HW2 7749   1.472   4.131   7.269
 2403SOL     OW 7750   0.973   4.614   7.158
 2403SOL    HW1 7751   1.019   4.530   7.129
 2403SOL    HW2 7752   0.917   4.648   7.083
 2404SOL     OW 7753   0.991   4.134   6.828
 2404SOL    HW1 7754   0.914   4.168   6.882
 2404SOL    HW2 7755   0.957   4.083   6.749
 2405SOL     OW 7756   1.041   4.425   6.015
 2405SOL    HW1 7757   1.067   4.421   6.111
 2405SOL    HW2 7758   0.956   4.374   6.001
 2406SOL     OW 7759   0.076   4.535   6.375
 2406SOL    HW1 7760   0.175   4.523   6.384
 2406SOL    HW2 7761   0.052   4.630   6.396
 2407SOL     OW 7762   0.865   4.072   5.781
 2407SOL    HW1 7763   0.924   4.135   5.732
 2407SOL    HW2 7764   0.884   3.978   5.752
 2408SOL     OW 7765   1.719   4.309   7.417
 2408SOL    HW1 7766   1.693   4.398   7.381
 2408SOL    HW2 7767   1.717   4.241   7.344
 2409SOL     OW 7768   1.362   4.868   6.131
 2409SOL    HW1 7769   1.445   4.839   6.083
 2409SOL    HW2 7770   1.313   4.935   6.075
 2410SOL     OW 7771   0.550   3.920   6.471
 2410SOL    HW1 7772   0.545   3.915   6.571
 2410SOL    HW2 7773   0.552   4.016   6.442
 2411SOL     OW 7774   1.008   5.180   6.063
 2411SOL    HW1 7775   0.962   5.252   6.011
 2411SOL    HW2 7776   1.004   5.200   6.161
 2412SOL     OW 7777   1.795   4.790   6.459
 2412SOL    HW1 7778   1.733   4.775   6.383
 2412SOL    HW2 7779   1.743   4.801   6.544
 2413SOL     OW 7780   1.227   5.274   7.092
 2413SOL    HW1 7781   1.233   5.197   7.156
 2413SOL    HW2 7782   1.175   5.248   7.012
 2414SOL     OW 7783   0.321   4.667   5.828
 2414SOL    HW1 7784   0.403   4.706   5.786
 2414SOL    HW2 7785   0.294   4.585   5.779
 2415SOL     OW 7786   1.458   4.459   6.314
 2415SOL    HW1 7787   1.453   4.394   6.389
 2415SOL    HW2 7788   1.538   4.518   6.327
 2416SOL     OW 7789   0.461   4.990   7.313
 2416SOL    HW1 7790   0.411   4.991   7.227
 2416SOL    HW2 7791   0.398   4.972   7.389
 2417SOL     OW 7792   1.111   5.500   5.823
 2417SOL    HW1 7793   1.051   5.438   5.873
 2417SOL    HW2 7794   1.142   5.456   5.738
 2418SOL     OW 7795   0.202   4.009   7.084
 2418SOL    HW1 7796   0.122   4.069   7.071
 2418SOL    HW2 7797   0.192   3.960   7.170
 2419SOL     OW 7798   1.632   5.101   5.667
 2419SOL    HW1 7799   1.600   5.195   5.657
 2419SOL    HW2 7800   1.556   5.038   5.655
 2420SOL     OW 7801   1.400   3.831   6.012
 2420SOL    HW1 7802   1.376   3.794   5.922
 2420SOL    HW2 7803   1.499   3.847   6.016
 2421SOL     OW 7804   0.382   4.424   6.066
 2421SOL    HW1 7805   0.427   4.334   6.063
 2421SOL    HW2 7806   0.288   4.413   6.099
 2422SOL     OW 7807   1.547   3.946   7.315
 2422SOL    HW1 7808   1.542   3.983   7.407
 2422SOL    HW2 7809   1.475   3.877   7.303
 2423SOL     OW 7810   0.614   3.846   5.703
 2423SOL    HW1 7811   0.712   3.824   5.710
 2423SOL    HW2 7812   0.583   3.829   5.610
 2424SOL     OW 7813   0.781   3.988   7.335
 2424SOL    HW1 7814   0.848   3.927   7.378
 2424SOL    HW2 7815   0.708   4.007   7.400
 2425SOL     OW 7816   1.351   4.314   7.019
 2425SOL    HW1 7817   1.379   4.271   7.104
 2425SOL    HW2 7818   1.376   4.410   7.020
 2426SOL     OW 7819   0.803   5.126   6.510
 2426SOL    HW1 7820   0.893   5.140   6.468
 2426SOL    HW2 7821   0.732   5.128   6.439
 2427SOL     OW 7822   0.922   4.227   6.485
 2427SOL    HW1 7823   0.897   4.218   6.389
 2427SOL    HW2 7824   0.970   4.145   6.516
 2428SOL     OW 7825   0.539   3.788   6.098
 2428SOL    HW1 7826   0.458   3.789   6.156
 2428SOL    HW2 7827   0.542   3.871   6.043
 2429SOL     OW 7828   1.434   4.912   5.627
 2429SOL    HW1 7829   1.466   4.836   5.684
 2429SOL    HW2 7830   1.342   4.939   5.657
 2430SOL     OW 7831   0.297   3.759   5.757
 2430SOL    HW1 7832   0.346   3.843   5.736
 2430SOL    HW2 7833   0.359   3.694   5.802
 2431SOL     OW 7834   0.935   3.960   6.066
 2431SOL    HW1 7835   0.887   4.001   5.988
 2431SOL    HW2 7836   1.034   3.958   6.047
 2432SOL     OW 7837   1.076   4.407   7.050
 2432SOL    HW1 7838   0.996   4.346   7.053
 2432SOL    HW2 7839   1.157   4.354   7.026
 2433SOL     OW 7840   1.227   5.294   6.379
 2433SOL    HW1 7841   1.248   5.368   6.314
 2433SOL    HW2 7842   1.295   5.294   6.452
 2434SOL     OW 7843   0.459   4.876   6.327
 2434SOL    HW1 7844   0.388   4.849   6.392
 2434SOL    HW2 7845   0.433   4.848   6.234
 2435SOL     OW 7846   1.032   4.273   5.602
 2435SOL    HW1 7847   0.991   4.355   5.563
 2435SOL    HW2 7848   1.096   4.299   5.675
 2436SOL     OW 7849   0.078   4.280   6.972
 2436SOL    HW1 7850   0.170   4.279   6.931
 2436SOL    HW2 7851   0.072   4.354   7.039
 2437SOL     OW 7852   0.561   3.946   6.733
 2437SOL    HW1 7853   0.599   3.862   6.770
 2437SOL    HW2 7854   0.473   3.965   6.777
 2438SOL     OW 7855   0.866   4.178   6.228
 2438SOL    HW1 7856   0.834   4.250   6.166
 2438SOL    HW2 7857   0.890   4.097   6.175
 2439SOL     OW 7858   1.017   3.763   6.339
 2439SOL    HW1 7859   0.945   3.768   6.270
 2439SOL    HW2 7860   0.993   3.694   6.408
 2440SOL     OW 7861   1.429   4.897   6.453
 2440SOL    HW1 7862   1.374   4.813   6.446
 2440SOL    HW2 7863   1.455   4.926   6.361
 2441SOL     OW 7864   1.466   4.314   6.578
 2441SOL    HW1 7865   1.436   4.219   6.585
 2441SOL    HW2 7866   1.539   4.330   6.644
 2442SOL     OW 7867   1.857   4.557   5.963
 2442SOL    HW1 7868   1.899   4.493   6.027
 2442SOL    HW2 7869   1.819   4.506   5.885
 2443SOL     OW 7870   0.488   5.109   5.760
 2443SOL    HW1 7871   0.401   5.094   5.807
 2443SOL    HW2 7872   0.471   5.135   5.665
 2444SOL     OW 7873   1.664   5.004   6.243
 2444SOL    HW1 7874   1.763   5.012   6.257
 2444SOL    HW2 7875   1.619   5.088   6.274
 2445SOL     OW 7876   1.390   4.299   5.664
 2445SOL    HW1 7877   1.336   4.278   5.745
 2445SOL    HW2 7878   1.481   4.258   5.673
 2446SOL     OW 7879   0.527   3.980   5.914
 2446SOL    HW1 7880   0.554   3.921   5.839
 2446SOL    HW2 7881   0.527   4.075   5.883
 2447SOL     OW 7882   1.754   4.947   7.174
 2447SOL    HW1 7883   1.845   4.908   7.161
 2447SOL    HW2 7884   1.762   5.043   7.198
 2448SOL     OW 7885   1.064   5.071   6.926
 2448SOL    HW1 7886   0.984   5.048   6.981
 2448SOL    HW2 7887   1.147   5.045   6.975
 2449SOL     OW 7888   1.111   4.919   6.686
 2449SOL    HW1 7889   1.071   4.963   6.767
 2449SOL    HW2 7890   1.070   4.956   6.603
 2450SOL     OW 7891   1.638   4.823   6.665
 2450SOL    HW1 7892   1.643   4.904   6.724
 2450SOL    HW2 7893   1.552   4.825   6.614
 2451SOL     OW 7894   0.915   3.813   6.988
 2451SOL    HW1 7895   0.940   3.793   6.893
 2451SOL    HW2 7896   0.987   3.869   7.030
 2452SOL     OW 7897   0.980   4.840   7.305
 2452SOL    HW1 7898   0.881   4.846   7.315
 2452SOL    HW2 7899   1.003   4.760   7.249
 2453SOL     OW 7900   0.705   4.774   5.954
 2453SOL    HW1 7901   0.691   4.781   6.053
 2453SOL    HW2 7902   0.789   4.723   5.936
 2454SOL     OW 7903   0.410   4.537   6.837
 2454SOL    HW1 7904   0.496   4.549   6.887
 2454SOL    HW2 7905   0.368   4.450   6.864
 2455SOL     OW 7906   1.274   4.110   6.848
 2455SOL    HW1 7907   1.295   4.184   6.912
 2455SOL    HW2 7908   1.185   4.127   6.805
 2456SOL     OW 7909   0.064   5.288   6.917
 2456SOL    HW1 7910   0.018   5.370   6.883
 2456SOL    HW2 7911   0.162   5.307   6.926
 2457SOL     OW 7912   0.367   4.824   6.087
 2457SOL    HW1 7913   0.360   4.907   6.031
 2457SOL    HW2 7914   0.371   4.744   6.027
 2458SOL     OW 7915   0.566   4.261   6.451
 2458SOL    HW1 7916   0.578   4.327   6.377
 2458SOL    HW2 7917   0.612   4.295   6.534
 2459SOL     OW 7918   1.252   5.072   5.974
 2459SOL    HW1 7919   1.302   5.149   6.014
 2459SOL    HW2 7920   1.157   5.074   6.006
 2460SOL     OW 7921   1.272   5.169   6.728
 2460SOL    HW1 7922   1.319   5.182   6.815
 2460SOL    HW2 7923   1.206   5.095   6.737
 2461SOL     OW 7924   1.582   4.363   6.058
 2461SOL    HW1 7925   1.551   4.424   6.131
 2461SOL    HW2 7926   1.632   4.415   5.989
 2462SOL     OW 7927   0.354   5.234   6.915
 2462SOL    HW1 7928   0.333   5.190   6.828
 2462SOL    HW2 7929   0.451   5.260   6.918
 2463SOL     OW 7930   0.402   4.475   7.184
 2463SOL    HW1 7931   0.470   4.530   7.137
 2463SOL    HW2 7932   0.442   4.387   7.211
 2464SOL     OW 7933   1.587   4.503   7.256
 2464SOL    HW1 7934   1.495   4.541   7.251
 2464SOL    HW2 7935   1.647   4.550   7.191
 2465SOL     OW 7936   1.013   3.829   7.356
 2465SOL    HW1 7937   1.019   3.914   7.304
 2465SOL    HW2 7938   1.045   3.753   7.299
 2466SOL     OW 7939   0.504   3.774   7.326
 2466SOL    HW1 7940   0.462   3.717   7.256
 2466SOL    HW2 7941   0.438   3.843   7.358
 2467SOL     OW 7942   0.573   4.594   6.615
 2467SOL    HW1 7943   0.617   4.683   6.606
 2467SOL    HW2 7944   0.510   4.594   6.692
 2468SOL     OW 7945   1.360   4.586   6.631
 2468SOL    HW1 7946   1.285   4.586   6.565
 2468SOL    HW2 7947   1.397   4.494   6.640
 2469SOL     OW 7948   1.209   4.249   5.861
 2469SOL    HW1 7949   1.222   4.165   5.915
 2469SOL    HW2 7950   1.180   4.323   5.921
 2470SOL     OW 7951   0.307   3.937   6.817
 2470SOL    HW1 7952   0.284   3.974   6.907
 2470SOL    HW2 7953   0.277   3.842   6.811
 2471SOL     OW 7954   0.037   5.034   6.868
 2471SOL    HW1 7955   0.090   4.985   6.936
 2471SOL    HW2 7956   0.059   5.132   6.873
 2472SOL     OW 7957   0.732   4.358   6.650
 2472SOL    HW1 7958   0.791   4.332   6.574
 2472SOL    HW2 7959   0.704   4.454   6.639
 2473SOL     OW 7960   1.728   4.659   7.440
 2473SOL    HW1 7961   1.682   4.652   7.351
 2473SOL    HW2 7962   1.666   4.703   7.506
 2474SOL     OW 7963   0.307   3.787   6.204
 2474SOL    HW1 7964   0.296   3.881   6.237
 2474SOL    HW2 7965   0.302   3.724   6.281
 2475SOL     OW 7966   1.622   4.091   5.960
 2475SOL    HW1 7967   1.624   4.015   6.024
 2475SOL    HW2 7968   1.574   4.168   6.000
 2476SOL     OW 7969   1.023   4.490   6.552
 2476SOL    HW1 7970   1.038   4.511   6.648
 2476SOL    HW2 7971   0.993   4.395   6.543
 2477SOL     OW 7972   1.859   5.242   7.191
 2477SOL    HW1 7973   1.873   5.269   7.096
 2477SOL    HW2 7974   1.942   5.264   7.244
 2478SOL     OW 7975   0.350   4.622   7.390
 2478SOL    HW1 7976   0.426   4.666   7.438
 2478SOL    HW2 7977   0.385   4.575   7.308
 2479SOL     OW 7978   1.540   3.998   5.711
 2479SOL    HW1 7979   1.479   3.923   5.734
 2479SOL    HW2 7980   1.562   4.050   5.794
 2480SOL     OW 7981   1.303   4.562   5.628
 2480SOL    HW1 7982   1.337   4.469   5.643
 2480SOL    HW2 7983   1.321   4.589   5.533
 2481SOL     OW 7984   1.068   5.057   6.435
 2481SOL    HW1 7985   1.075   4.973   6.380
 2481SOL    HW2 7986   1.130   5.126   6.399
 2482SOL     OW 7987   0.319   4.534   6.535
 2482SOL    HW1 7988   0.412   4.570   6.540
 2482SOL    HW2 7989   0.313   4.449   6.587
 2483SOL     OW 7990   0.339   4.233   6.592
 2483SOL    HW1 7991   0.287   4.150   6.575
 2483SOL    HW2 7992   0.416   4.238   6.528
 2484SOL     OW 7993   1.138   4.104   7.264
 2484SOL    HW1 7994   1.093   4.167   7.328
 2484SOL    HW2 7995   1.231   4.135   7.247
 2485SOL     OW 7996   1.160   3.931   7.063
 2485SOL    HW1 7997   1.160   3.995   7.140
 2485SOL    HW2 7998   1.188   3.979   6.980
 2486SOL     OW 7999   0.008   5.050   5.786
 2486SOL    HW1 8000  -0.085   5.071   5.755
 2486SOL    HW2 8001   0.018   4.951   5.799
 2487SOL     OW 8002   1.002   4.520   6.824
 2487SOL    HW1 8003   1.043   4.488   6.910
 2487SOL    HW2 8004   0.906   4.493   6.821
 2488SOL     OW 8005   0.040   4.268   6.700
 2488SOL    HW1 8006   0.125   4.235   6.659
 2488SOL    HW2 8007   0.053   4.283   6.798
 2489SOL     OW 8008   0.189   4.244   7.308
 2489SOL    HW1 8009   0.248   4.204   7.238
 2489SOL    HW2 8010   0.131   4.315   7.267
 2490SOL     OW 8011   1.369   4.674   7.246
 2490SOL    HW1 8012   1.408   4.763   7.266
 2490SOL    HW2 8013   1.379   4.654   7.149
 2491SOL     OW 8014   0.815   4.296   5.911
 2491SOL    HW1 8015   0.822   4.207   5.865
 2491SOL    HW2 8016   0.721   4.330   5.903
 2492SOL     OW 8017   1.657   4.328   6.792
 2492SOL    HW1 8018   1.619   4.259   6.854
 2492SOL    HW2 8019   1.739   4.292   6.748
 2493SOL     OW 8020   0.252   5.288   7.330
 2493SOL    HW1 8021   0.222   5.345   7.406
 2493SOL    HW2 8022   0.245   5.191   7.356
 2494SOL     OW 8023   0.671   4.188   6.855
 2494SOL    HW1 8024   0.637   4.099   6.825
 2494SOL    HW2 8025   0.697   4.242   6.775
 2495SOL     OW 8026   0.473   4.224   5.777
 2495SOL    HW1 8027   0.534   4.304   5.781
 2495SOL    HW2 8028   0.378   4.255   5.784
 2496SOL     OW 8029   0.159   4.861   7.052
 2496SOL    HW1 8030   0.181   4.800   7.128
 2496SOL    HW2 8031   0.169   4.812   6.966
 2497SOL     OW 8032   1.347   4.783   6.820
 2497SOL    HW1 8033   1.371   4.720   6.746
 2497SOL    HW2 8034   1.257   4.823   6.802
 2498SOL     OW 8035   1.302   4.579   5.895
 2498SOL    HW1 8036   1.216   4.548   5.937
 2498SOL    HW2 8037   1.298   4.565   5.796
 2499SOL     OW 8038   0.083   4.982   6.608
 2499SOL    HW1 8039   0.078   4.981   6.708
 2499SOL    HW2 8040   0.000   4.941   6.570
 2500SOL     OW 8041   0.688   5.386   7.302
 2500SOL    HW1 8042   0.632   5.467   7.311
 2500SOL    HW2 8043   0.740   5.390   7.216
 2501SOL     OW 8044   1.726   3.859   6.109
 2501SOL    HW1 8045   1.799   3.842   6.042
 2501SOL    HW2 8046   1.695   3.772   6.147
 2502SOL     OW 8047   1.280   4.651   6.258
 2502SOL    HW1 8048   1.340   4.570   6.260
 2502SOL    HW2 8049   1.320   4.720   6.198
 2503SOL     OW 8050   0.830   4.997   7.008
 2503SOL    HW1 8051   0.825   5.030   7.103
 2503SOL    HW2 8052   0.744   5.016   6.962
 2504SOL     OW 8053   1.841   3.899   6.549
 2504SOL    HW1 8054   1.880   3.814   6.513
 2504SOL    HW2 8055   1.743   3.901   6.530
 2505SOL     OW 8056   0.263   4.050   6.306
 2505SOL    HW1 8057   0.184   4.101   6.272
 2505SOL    HW2 8058   0.254   4.035   6.404
 2506SOL     OW 8059   0.822   4.726   6.958
 2506SOL    HW1 8060   0.862   4.725   6.866
 2506SOL    HW2 8061   0.832   4.818   6.998
 2507SOL     OW 8062   0.916   4.634   5.877
 2507SOL    HW1 8063   0.979   4.672   5.809
 2507SOL    HW2 8064   0.956   4.551   5.916
 2508SOL     OW 8065   0.372   5.012   7.076
 2508SOL    HW1 8066   0.359   5.105   7.042
 2508SOL    HW2 8067   0.288   4.960   7.063
 2509SOL     OW 8068   1.614   5.016   6.875
 2509SOL    HW1 8069   1.674   5.019   6.955
 2509SOL    HW2 8070   1.539   5.080   6.888
 2510SOL     OW 8071   1.039   4.822   6.282
 2510SOL    HW1 8072   0.969   4.775   6.336
 2510SOL    HW2 8073   1.098   4.754   6.239
 2511SOL     OW 8074   1.014   3.960   6.557
 2511SOL    HW1 8075   1.006   3.924   6.464
 2511SOL    HW2 8076   1.012   3.884   6.622
 2512SOL     OW 8077   1.709   4.109   6.967
 2512SOL    HW1 8078   1.782   4.178   6.971
 2512SOL    HW2 8079   1.737   4.034   6.908
 2513SOL     OW 8080   0.255   5.072   5.876
 2513SOL    HW1 8081   0.159   5.073   5.849
 2513SOL    HW2 8082   0.267   5.125   5.960
 2514SOL     OW 8083   0.105   4.737   7.312
 2514SOL    HW1 8084   0.028   4.704   7.366
 2514SOL    HW2 8085   0.190   4.707   7.354
 2515SOL     OW 8086   0.672   3.927   7.075
 2515SOL    HW1 8087   0.762   3.911   7.035
 2515SOL    HW2 8088   0.680   3.932   7.174
 2516SOL     OW 8089   0.075   4.069   5.619
 2516SOL    HW1 8090  -0.017   4.041   5.590
 2516SOL    HW2 8091   0.106   4.146   5.563
 2517SOL     OW 8092   1.440   4.580   6.984
 2517SOL    HW1 8093   1.383   4.632   6.921
 2517SOL    HW2 8094   1.536   4.592   6.960
 2518SOL     OW 8095   0.072   3.890   5.904
 2518SOL    HW1 8096   0.055   3.973   5.850
 2518SOL    HW2 8097   0.162   3.853   5.882
 2519SOL     OW 8098   1.183   5.059   5.705
 2519SOL    HW1 8099   1.084   5.048   5.707
 2519SOL    HW2 8100   1.217   5.074   5.798
 2520SOL     OW 8101   0.613   4.566   7.017
 2520SOL    HW1 8102   0.669   4.647   7.000
 2520SOL    HW2 8103   0.672   4.486   7.020
 2521SOL     OW 8104   0.716   4.289   7.294
 2521SOL    HW1 8105   0.735   4.354   7.368
 2521SOL    HW2 8106   0.776   4.209   7.303
 2522SOL     OW 8107   1.450   4.944   7.219
 2522SOL    HW1 8108   1.441   4.934   7.318
 2522SOL    HW2 8109   1.546   4.937   7.193
 2523SOL     OW 8110   1.674   4.607   6.840
 2523SOL    HW1 8111   1.647   4.518   6.803
 2523SOL    HW2 8112   1.675   4.675   6.767
 2524SOL     OW 8113   1.225   4.049   6.035
 2524SOL    HW1 8114   1.290   3.975   6.024
 2524SOL    HW2 8115   1.245   4.099   6.119
 2525SOL     OW 8116   0.594   4.469   6.238
 2525SOL    HW1 8117   0.644   4.554   6.219
 2525SOL    HW2 8118   0.506   4.471   6.190
 2526SOL     OW 8119   1.777   4.066   7.228
 2526SOL    HW1 8120   1.760   4.097   7.134
 2526SOL    HW2 8121   1.693   4.029   7.266
 2527SOL     OW 8122   1.730   4.658   7.103
 2527SOL    HW1 8123   1.768   4.749   7.118
 2527SOL    HW2 8124   1.722   4.641   7.004
 2528SOL     OW 8125   0.859   5.098   5.602
 2528SOL    HW1 8126   0.813   5.113   5.690
 2528SOL    HW2 8127   0.903   5.183   5.572
 2529SOL     OW 8128   0.859   4.680   6.447
 2529SOL    HW1 8129   0.913   4.611   6.495
 2529SOL    HW2 8130   0.827   4.749   6.513
 2530SOL     OW 8131   1.083   4.708   5.673
 2530SOL    HW1 8132   1.060   4.761   5.591
 2530SOL    HW2 8133   1.164   4.652   5.654
 2531SOL     OW 8134   0.221   5.038   7.430
 2531SOL    HW1 8135   0.156   4.965   7.409
 2531SOL    HW2 8136   0.225   5.052   7.528
 2532SOL     OW 8137   0.079   4.964   6.239
 2532SOL    HW1 8138   0.078   4.917   6.327
 2532SOL    HW2 8139   0.161   4.936   6.188
 2533SOL     OW 8140   0.672   5.115   7.210
 2533SOL    HW1 8141   0.594   5.065   7.248
 2533SOL    HW2 8142   0.669   5.210   7.241
 2534SOL     OW 8143   1.824   3.916   6.813
 2534SOL    HW1 8144   1.820   3.826   6.857
 2534SOL    HW2 8145   1.827   3.905   6.714
 2535SOL     OW 8146   0.428   4.148   6.106
 2535SOL    HW1 8147   0.458   4.076   6.044
 2535SOL    HW2 8148   0.389   4.108   6.189
 2536SOL     OW 8149   1.705   5.211   6.690
 2536SOL    HW1 8150   1.612   5.186   6.663
 2536SOL    HW2 8151   1.731   5.161   6.772
 2537SOL     OW 8152   0.317   4.271   6.866
 2537SOL    HW1 8153   0.355   4.212   6.938
 2537SOL    HW2 8154   0.357   4.245   6.778
 2538SOL     OW 8155   1.424   3.938   6.698
 2538SOL    HW1 8156   1.476   3.873   6.753
 2538SOL    HW2 8157   1.375   4.001   6.759
 2539SOL     OW 8158   1.001   3.758   6.740
 2539SOL    HW1 8159   0.938   3.686   6.709
 2539SOL    HW2 8160   1.094   3.722   6.740
 2540SOL     OW 8161   0.770   5.054   5.887
 2540SOL    HW1 8162   0.724   4.967   5.904
 2540SOL    HW2 8163   0.861   5.051   5.928
 2541SOL     OW 8164   0.618   5.291   6.870
 2541SOL    HW1 8165   0.613   5.373   6.927
 2541SOL    HW2 8166   0.707   5.288   6.825
 2542SOL     OW 8167   1.352   3.776   5.754
 2542SOL    HW1 8168   1.387   3.735   5.670
 2542SOL    HW2 8169   1.262   3.738   5.774
 2543SOL     OW 8170   1.300   4.177   6.277
 2543SOL    HW1 8171   1.241   4.257   6.281
 2543SOL    HW2 8172   1.315   4.142   6.370
 2544SOL     OW 8173   1.593   3.945   6.468
 2544SOL    HW1 8174   1.509   3.944   6.522
 2544SOL    HW2 8175   1.595   4.028   6.412
 2545SOL     OW 8176   0.039   4.801   5.886
 2545SOL    HW1 8177   0.138   4.790   5.877
 2545SOL    HW2 8178  -0.001   4.715   5.918
 2546SOL     OW 8179   0.230   4.352   7.561
 2546SOL    HW1 8180   0.137   4.350   7.598
 2546SOL    HW2 8181   0.231   4.313   7.469
 2547SOL     OW 8182   1.755   4.331   7.679
 2547SOL    HW1 8183   1.743   4.318   7.580
 2547SOL    HW2 8184   1.725   4.250   7.728
 2548SOL     OW 8185   0.231   5.437   7.931
 2548SOL    HW1 8186   0.265   5.514   7.985
 2548SOL    HW2 8187   0.275   5.437   7.841
 2549SOL     OW 8188   0.230   5.158   7.986
 2549SOL    HW1 8189   0.204   5.254   7.986
 2549SOL    HW2 8190   0.159   5.104   8.031
 2550SOL     OW 8191   0.606   4.688   7.571
 2550SOL    HW1 8192   0.613   4.772   7.517
 2550SOL    HW2 8193   0.652   4.701   7.659
 2551SOL     OW 8194   0.027   5.320   7.565
 2551SOL    HW1 8195   0.008   5.224   7.586
 2551SOL    HW2 8196  -0.006   5.378   7.640
 2552SOL     OW 8197   1.689   4.646   8.060
 2552SOL    HW1 8198   1.784   4.617   8.068
 2552SOL    HW2 8199   1.681   4.711   7.985
 2553SOL     OW 8200   1.641   4.832   7.880
 2553SOL    HW1 8201   1.727   4.834   7.828
 2553SOL    HW2 8202   1.655   4.879   7.968
 2554SOL     OW 8203   0.809   3.728   7.950
 2554SOL    HW1 8204   0.849   3.819   7.941
 2554SOL    HW2 8205   0.709   3.736   7.956
 2555SOL     OW 8206   1.525   4.723   7.638
 2555SOL    HW1 8207   1.462   4.647   7.651
 2555SOL    HW2 8208   1.573   4.741   7.724
 2556SOL     OW 8209   0.598   4.453   7.718
 2556SOL    HW1 8210   0.622   4.522   7.650
 2556SOL    HW2 8211   0.520   4.486   7.772
 2557SOL     OW 8212   0.076   4.535   8.237
 2557SOL    HW1 8213   0.175   4.523   8.246
 2557SOL    HW2 8214   0.052   4.630   8.258
 2558SOL     OW 8215   0.865   4.072   7.643
 2558SOL    HW1 8216   0.924   4.135   7.594
 2558SOL    HW2 8217   0.884   3.978   7.614
 2559SOL     OW 8218   0.321   4.667   7.690
 2559SOL    HW1 8219   0.403   4.706   7.648
 2559SOL    HW2 8220   0.294   4.585   7.641
 2560SOL     OW 8221   1.111   5.500   7.685
 2560SOL    HW1 8222   1.051   5.438   7.735
 2560SOL    HW2 8223   1.142   5.456   7.600
 2561SOL     OW 8224   1.632   5.101   7.529
 2561SOL    HW1 8225   1.600   5.195   7.519
 2561SOL    HW2 8226   1.556   5.038   7.517
 2562SOL     OW 8227   1.400   3.831   7.874
 2562SOL    HW1 8228   1.376   3.794   7.784
 2562SOL    HW2 8229   1.499   3.847   7.878
 2563SOL     OW 8230   0.382   4.424   7.928
 2563SOL    HW1 8231   0.427   4.334   7.925
 2563SOL    HW2 8232   0.288   4.413   7.961
 2564SOL     OW 8233   0.614   3.846   7.565
 2564SOL    HW1 8234   0.712   3.824   7.572
 2564SOL    HW2 8235   0.583   3.829   7.472
 2565SOL     OW 8236   0.539   3.788   7.960
 2565SOL    HW1 8237   0.458   3.789   8.018
 2565SOL    HW2 8238   0.542   3.871   7.905
 2566SOL     OW 8239   1.434   4.912   7.489
 2566SOL    HW1 8240   1.466   4.836   7.546
 2566SOL    HW2 8241   1.342   4.939   7.519
 2567SOL     OW 8242   0.297   3.759   7.619
 2567SOL    HW1 8243   0.346   3.843   7.598
 2567SOL    HW2 8244   0.359   3.694   7.664
 2568SOL     OW 8245   0.935   3.960   7.928
 2568SOL    HW1 8246   0.887   4.001   7.850
 2568SOL    HW2 8247   1.034   3.958   7.909
 2569SOL     OW 8248   0.459   4.876   8.189
 2569SOL    HW1 8249   0.388   4.849   8.254
 2569SOL    HW2 8250   0.433   4.848   8.096
 2570SOL     OW 8251   1.032   4.273   7.464
 2570SOL    HW1 8252   0.991   4.355   7.425
 2570SOL    HW2 8253   1.096   4.299   7.537
 2571SOL     OW 8254   1.857   4.557   7.825
 2571SOL    HW1 8255   1.899   4.493   7.889
 2571SOL    HW2 8256   1.819   4.506   7.747
 2572SOL     OW 8257   0.488   5.109   7.622
 2572SOL    HW1 8258   0.401   5.094   7.669
 2572SOL    HW2 8259   0.471   5.135   7.527
 2573SOL     OW 8260   1.390   4.299   7.526
 2573SOL    HW1 8261   1.336   4.278   7.607
 2573SOL    HW2 8262   1.481   4.258   7.535
 2574SOL     OW 8263   0.527   3.980   7.776
 2574SOL    HW1 8264   0.554   3.921   7.701
 2574SOL    HW2 8265   0.527   4.075   7.745
 2575SOL     OW 8266   0.705   4.774   7.816
 2575SOL    HW1 8267   0.691   4.781   7.915
 2575SOL    HW2 8268   0.789   4.723   7.798
 2576SOL     OW 8269   0.367   4.824   7.949
 2576SOL    HW1 8270   0.360   4.907   7.893
 2576SOL    HW2 8271   0.371   4.744   7.889
 2577SOL     OW 8272   1.252   5.072   7.836
 2577SOL    HW1 8273   1.302   5.149   7.876
 2577SOL    HW2 8274   1.157   5.074   7.868
 2578SOL     OW 8275   1.582   4.363   7.920
 2578SOL    HW1 8276   1.551   4.424   7.993
 2578SOL    HW2 8277   1.632   4.415   7.851
 2579SOL     OW 8278   1.209   4.249   7.723
 2579SOL    HW1 8279   1.222   4.165   7.777
 2579SOL    HW2 8280   1.180   4.323   7.783
 2580SOL     OW 8281   1.622   4.091   7.822
 2580SOL    HW1 8282   1.624   4.015   7.886
 2580SOL    HW2 8283   1.574   4.168   7.862
 2581SOL     OW 8284   1.540   3.998   7.573
 2581SOL    HW1 8285   1.479   3.923   7.596
 2581SOL    HW2 8286   1.562   4.050   7.656
 2582SOL     OW 8287   1.303   4.562   7.490
 2582SOL    HW1 8288   1.337   4.469   7.505
 2582SOL    HW2 8289   1.321   4.589   7.395
 2583SOL     OW 8290   0.008   5.050   7.648
 2583SOL    HW1 8291  -0.085   5.071   7.617
 2583SOL    HW2 8292   0.018   4.951   7.661
 2584SOL     OW 8293   0.815   4.296   7.773
 2584SOL    HW1 8294   0.822   4.207   7.727
 2584SOL    HW2 8295   0.721   4.330   7.765
 2585SOL     OW 8296   0.473   4.224   7.639
 2585SOL    HW1 8297   0.534   4.304   7.643
 2585SOL    HW2 8298   0.378   4.255   7.646
 2586SOL     OW 8299   1.302   4.579   7.757
 2586SOL    HW1 8300   1.216   4.548   7.799
 2586SOL    HW2 8301   1.298   4.565   7.658
 2587SOL     OW 8302   1.726   3.859   7.971
 2587SOL    HW1 8303   1.799   3.842   7.904
 2587SOL    HW2 8304   1.695   3.772   8.009
 2588SOL     OW 8305   0.916   4.634   7.739
 2588SOL    HW1 8306   0.979   4.672   7.671
 2588SOL    HW2 8307   0.956   4.551   7.778
 2589SOL     OW 8308   0.255   5.072   7.738
 2589SOL    HW1 8309   0.159   5.073   7.711
 2589SOL    HW2 8310   0.267   5.125   7.822
 2590SOL     OW 8311   0.075   4.069   7.481
 2590SOL    HW1 8312  -0.017   4.041   7.452
 2590SOL    HW2 8313   0.106   4.146   7.425
 2591SOL     OW 8314   0.072   3.890   7.766
 2591SOL    HW1 8315   0.055   3.973   7.712
 2591SOL    HW2 8316   0.162   3.853   7.744
 2592SOL     OW 8317   1.183   5.059   7.567
 2592SOL    HW1 8318   1.084   5.048   7.569
 2592SOL    HW2 8319   1.217   5.074   7.660
 2593SOL     OW 8320   1.225   4.049   7.897
 2593SOL    HW1 8321   1.290   3.975   7.886
 2593SOL    HW2 8322   1.245   4.099   7.981
 2594SOL     OW 8323   0.594   4.469   8.100
 2594SOL    HW1 8324   0.644   4.554   8.081
 2594SOL    HW2 8325   0.506   4.471   8.052
 2595SOL     OW 8326   0.859   5.098   7.464
 2595SOL    HW1 8327   0.813   5.113   7.552
 2595SOL    HW2 8328   0.903   5.183   7.434
 2596SOL     OW 8329   1.083   4.708   7.535
 2596SOL    HW1 8330   1.060   4.761   7.453
 2596SOL    HW2 8331   1.164   4.652   7.516
 2597SOL     OW 8332   0.428   4.148   7.968
 2597SOL    HW1 8333   0.458   4.076   7.906
 2597SOL    HW2 8334   0.389   4.108   8.051
 2598SOL     OW 8335   0.770   5.054   7.749
 2598SOL    HW1 8336   0.724   4.967   7.766
 2598SOL    HW2 8337   0.861   5.051   7.790
 2599SOL     OW 8338   1.352   3.776   7.616
 2599SOL    HW1 8339   1.387   3.735   7.532
 2599SOL    HW2 8340   1.262   3.738   7.636
 2600SOL     OW 8341   0.039   4.801   7.748
 2600SOL    HW1 8342   0.138   4.790   7.739
 2600SOL    HW2 8343  -0.001   4.715   7.780
 2601SOL     OW 8344   2.092   0.628   0.113
 2601SOL    HW1 8345   1.999   0.626   0.150
 2601SOL    HW2 8346   2.093   0.589   0.021
 2602SOL     OW 8347   2.087   0.275   0.996
 2602SOL    HW1 8348   2.122   0.258   1.088
 2602SOL    HW2 8349   1.999   0.230   0.984
 2603SOL     OW 8350   1.881   0.368   0.647
 2603SOL    HW1 8351   1.799   0.411   0.686
 2603SOL    HW2 8352   1.853   0.295   0.584
 2604SOL     OW 8353   2.431   1.275   1.165
 2604SOL    HW1 8354   2.338   1.268   1.128
 2604SOL    HW2 8355   2.442   1.364   1.209
 2605SOL     OW 8356   3.417   1.511   0.703
 2605SOL    HW1 8357   3.360   1.495   0.784
 2605SOL    HW2 8358   3.358   1.521   0.623
 2606SOL     OW 8359   2.997   0.703   0.717
 2606SOL    HW1 8360   3.054   0.781   0.692
 2606SOL    HW2 8361   2.937   0.729   0.793
 2607SOL     OW 8362   3.617   0.607   0.231
 2607SOL    HW1 8363   3.605   0.594   0.132
 2607SOL    HW2 8364   3.587   0.526   0.280
 2608SOL     OW 8365   2.630   1.144   1.023
 2608SOL    HW1 8366   2.552   1.161   1.083
 2608SOL    HW2 8367   2.664   1.231   0.987
 2609SOL     OW 8368   2.712   0.798   1.823
 2609SOL    HW1 8369   2.708   0.874   1.888
 2609SOL    HW2 8370   2.734   0.834   1.732
 2610SOL     OW 8371   2.547   1.012   0.665
 2610SOL    HW1 8372   2.616   0.996   0.735
 2610SOL    HW2 8373   2.474   1.069   0.703
 2611SOL     OW 8374   2.548   1.161   1.803
 2611SOL    HW1 8375   2.608   1.240   1.817
 2611SOL    HW2 8376   2.462   1.192   1.762
 2612SOL     OW 8377   2.197   1.435   1.061
 2612SOL    HW1 8378   2.119   1.404   1.008
 2612SOL    HW2 8379   2.255   1.493   1.004
 2613SOL     OW 8380   3.322   1.505   1.339
 2613SOL    HW1 8381   3.346   1.599   1.365
 2613SOL    HW2 8382   3.306   1.451   1.421
 2614SOL     OW 8383   2.300   0.392   1.499
 2614SOL    HW1 8384   2.382   0.336   1.508
 2614SOL    HW2 8385   2.219   0.334   1.503
 2615SOL     OW 8386   3.465   0.447   0.737
 2615SOL    HW1 8387   3.391   0.493   0.687
 2615SOL    HW2 8388   3.516   0.515   0.790
 2616SOL     OW 8389   2.093   1.713   0.483
 2616SOL    HW1 8390   2.127   1.790   0.537
 2616SOL    HW2 8391   2.137   1.713   0.393
 2617SOL     OW 8392   2.989   1.341   1.690
 2617SOL    HW1 8393   3.036   1.341   1.778
 2617SOL    HW2 8394   2.941   1.254   1.679
 2618SOL     OW 8395   2.092   1.434   0.538
 2618SOL    HW1 8396   2.066   1.530   0.538
 2618SOL    HW2 8397   2.021   1.380   0.583
 2619SOL     OW 8398   2.102   1.091   0.886
 2619SOL    HW1 8399   2.116   1.007   0.938
 2619SOL    HW2 8400   2.047   1.155   0.941
 2620SOL     OW 8401   2.482   1.786   1.439
 2620SOL    HW1 8402   2.390   1.769   1.474
 2620SOL    HW2 8403   2.510   1.878   1.465
 2621SOL     OW 8404   2.468   0.964   0.123
 2621SOL    HW1 8405   2.475   1.048   0.069
 2621SOL    HW2 8406   2.514   0.977   0.211
 2622SOL     OW 8407   3.456   0.114   1.480
 2622SOL    HW1 8408   3.438   0.181   1.408
 2622SOL    HW2 8409   3.453   0.160   1.569
 2623SOL     OW 8410   1.984   0.643   0.563
 2623SOL    HW1 8411   1.939   0.555   0.580
 2623SOL    HW2 8412   1.983   0.697   0.647
 2624SOL     OW 8413   3.704   1.767   0.359
 2624SOL    HW1 8414   3.758   1.738   0.439
 2624SOL    HW2 8415   3.734   1.857   0.330
 2625SOL     OW 8416   1.889   1.596   0.117
 2625SOL    HW1 8417   1.870   1.500   0.138
 2625SOL    HW2 8418   1.856   1.654   0.192
 2626SOL     OW 8419   3.551   0.922   0.612
 2626SOL    HW1 8420   3.646   0.893   0.620
 2626SOL    HW2 8421   3.543   0.987   0.537
 2627SOL     OW 8422   3.503   1.108   0.432
 2627SOL    HW1 8423   3.589   1.110   0.380
 2627SOL    HW2 8424   3.517   1.155   0.520
 2628SOL     OW 8425   1.975   0.737   1.597
 2628SOL    HW1 8426   2.063   0.724   1.642
 2628SOL    HW2 8427   1.962   0.834   1.575
 2629SOL     OW 8428   2.475   1.365   0.726
 2629SOL    HW1 8429   2.426   1.278   0.735
 2629SOL    HW2 8430   2.452   1.408   0.639
 2630SOL     OW 8431   3.155   1.228   1.423
 2630SOL    HW1 8432   3.192   1.155   1.365
 2630SOL    HW2 8433   3.207   1.233   1.508
 2631SOL     OW 8434   2.671   0.004   0.502
 2631SOL    HW1 8435   2.711   0.095   0.493
 2631SOL    HW2 8436   2.571   0.012   0.508
 2632SOL     OW 8437   2.059   0.976   1.264
 2632SOL    HW1 8438   2.148   0.931   1.250
 2632SOL    HW2 8439   1.986   0.911   1.245
 2633SOL     OW 8440   3.387   0.999   0.190
 2633SOL    HW1 8441   3.324   0.923   0.203
 2633SOL    HW2 8442   3.435   1.017   0.276
 2634SOL     OW 8443   3.049   1.792   1.616
 2634SOL    HW1 8444   3.073   1.852   1.540
 2634SOL    HW2 8445   3.056   1.697   1.586
 2635SOL     OW 8446   2.179   0.251   1.801
 2635SOL    HW1 8447   2.250   0.322   1.807
 2635SOL    HW2 8448   2.091   0.290   1.829
 2636SOL     OW 8449   3.328   1.417   0.953
 2636SOL    HW1 8450   3.269   1.423   1.033
 2636SOL    HW2 8451   3.313   1.329   0.907
 2637SOL     OW 8452   3.529   1.714   0.572
 2637SOL    HW1 8453   3.488   1.691   0.484
 2637SOL    HW2 8454   3.511   1.640   0.637
 2638SOL     OW 8455   2.460   0.729   0.270
 2638SOL    HW1 8456   2.484   0.798   0.202
 2638SOL    HW2 8457   2.382   0.762   0.324
 2639SOL     OW 8458   3.143   0.345   0.944
 2639SOL    HW1 8459   3.057   0.295   0.931
 2639SOL    HW2 8460   3.205   0.291   1.000
 2640SOL     OW 8461   3.438   1.662   0.307
 2640SOL    HW1 8462   3.527   1.708   0.310
 2640SOL    HW2 8463   3.417   1.638   0.212
 2641SOL     OW 8464   2.669   0.605   1.465
 2641SOL    HW1 8465   2.622   0.602   1.554
 2641SOL    HW2 8466   2.618   0.550   1.399
 2642SOL     OW 8467   3.256   0.469   1.674
 2642SOL    HW1 8468   3.236   0.512   1.762
 2642SOL    HW2 8469   3.334   0.407   1.683
 2643SOL     OW 8470   2.835   0.890   1.572
 2643SOL    HW1 8471   2.881   0.806   1.543
 2643SOL    HW2 8472   2.779   0.924   1.497
 2644SOL     OW 8473   2.853   0.410   1.242
 2644SOL    HW1 8474   2.776   0.444   1.296
 2644SOL    HW2 8475   2.819   0.359   1.163
 2645SOL     OW 8476   2.903   0.701   0.429
 2645SOL    HW1 8477   2.929   0.697   0.525
 2645SOL    HW2 8478   2.818   0.650   0.415
 2646SOL     OW 8479   1.938   0.811   0.789
 2646SOL    HW1 8480   2.037   0.799   0.798
 2646SOL    HW2 8481   1.914   0.906   0.810
 2647SOL     OW 8482   1.992   1.821   1.571
 2647SOL    HW1 8483   1.982   1.806   1.670
 2647SOL    HW2 8484   1.906   1.857   1.535
 2648SOL     OW 8485   2.727   0.348   0.195
 2648SOL    HW1 8486   2.786   0.411   0.146
 2648SOL    HW2 8487   2.746   0.254   0.166
 2649SOL     OW 8488   3.581   0.585   1.831
 2649SOL    HW1 8489   3.555   0.674   1.795
 2649SOL    HW2 8490   3.579   0.517   1.758
 2650SOL     OW 8491   3.224   1.144   0.545
 2650SOL    HW1 8492   3.307   1.115   0.497
 2650SOL    HW2 8493   3.175   1.211   0.489
 2651SOL     OW 8494   2.412   0.196   0.885
 2651SOL    HW1 8495   2.407   0.191   0.985
 2651SOL    HW2 8496   2.414   0.292   0.856
 2652SOL     OW 8497   2.870   1.456   0.477
 2652SOL    HW1 8498   2.824   1.528   0.425
 2652SOL    HW2 8499   2.866   1.476   0.575
 2653SOL     OW 8500   2.213   1.801   0.853
 2653SOL    HW1 8501   2.263   1.715   0.859
 2653SOL    HW2 8502   2.278   1.878   0.850
 2654SOL     OW 8503   3.657   1.066   0.873
 2654SOL    HW1 8504   3.595   1.051   0.797
 2654SOL    HW2 8505   3.605   1.077   0.958
 2655SOL     OW 8506   3.089   1.550   1.506
 2655SOL    HW1 8507   3.095   1.473   1.570
 2655SOL    HW2 8508   3.037   1.524   1.426
 2656SOL     OW 8509   2.183   0.943   0.242
 2656SOL    HW1 8510   2.265   0.982   0.200
 2656SOL    HW2 8511   2.156   0.861   0.193
 2657SOL     OW 8512   3.320   0.735   0.728
 2657SOL    HW1 8513   3.315   0.670   0.803
 2657SOL    HW2 8514   3.400   0.794   0.741
 2658SOL     OW 8515   2.323   1.266   1.727
 2658SOL    HW1 8516   2.273   1.267   1.641
 2658SOL    HW2 8517   2.260   1.248   1.803
 2659SOL     OW 8518   2.973   1.776   0.237
 2659SOL    HW1 8519   2.913   1.714   0.287
 2659SOL    HW2 8520   3.004   1.732   0.152
 2660SOL     OW 8521   2.064   0.285   1.498
 2660SOL    HW1 8522   1.984   0.345   1.485
 2660SOL    HW2 8523   2.054   0.236   1.584
 2661SOL     OW 8524   3.494   1.377   0.081
 2661SOL    HW1 8525   3.462   1.471   0.071
 2661SOL    HW2 8526   3.418   1.314   0.069
 2662SOL     OW 8527   2.326   1.743   0.323
 2662SOL    HW1 8528   2.359   1.782   0.409
 2662SOL    HW2 8529   2.402   1.736   0.258
 2663SOL     OW 8530   3.262   0.107   0.426
 2663SOL    HW1 8531   3.238   0.070   0.336
 2663SOL    HW2 8532   3.361   0.123   0.430
 2664SOL     OW 8533   2.111   1.785   1.241
 2664SOL    HW1 8534   2.168   1.720   1.291
 2664SOL    HW2 8535   2.095   1.752   1.148
 2665SOL     OW 8536   2.802   1.698   0.904
 2665SOL    HW1 8537   2.882   1.641   0.925
 2665SOL    HW2 8538   2.753   1.658   0.827
 2666SOL     OW 8539   2.244   0.700   0.480
 2666SOL    HW1 8540   2.289   0.610   0.477
 2666SOL    HW2 8541   2.150   0.689   0.513
 2667SOL     OW 8542   3.409   0.222   1.729
 2667SOL    HW1 8543   3.404   0.259   1.821
 2667SOL    HW2 8544   3.337   0.153   1.717
 2668SOL     OW 8545   2.476   0.122   0.117
 2668SOL    HW1 8546   2.574   0.100   0.124
 2668SOL    HW2 8547   2.445   0.105   0.024
 2669SOL     OW 8548   2.643   0.264   1.749
 2669SOL    HW1 8549   2.710   0.203   1.792
 2669SOL    HW2 8550   2.570   0.283   1.814
 2670SOL     OW 8551   2.750   1.514   1.195
 2670SOL    HW1 8552   2.727   1.489   1.101
 2670SOL    HW2 8553   2.811   1.445   1.234
 2671SOL     OW 8554   3.213   0.590   1.433
 2671SOL    HW1 8555   3.241   0.547   1.518
 2671SOL    HW2 8556   3.238   0.686   1.434
 2672SOL     OW 8557   2.665   1.402   0.924
 2672SOL    HW1 8558   2.755   1.416   0.882
 2672SOL    HW2 8559   2.594   1.404   0.853
 2673SOL     OW 8560   2.784   0.503   0.899
 2673SOL    HW1 8561   2.759   0.494   0.803
 2673SOL    HW2 8562   2.832   0.421   0.930
 2674SOL     OW 8563   2.401   0.064   0.512
 2674SOL    HW1 8564   2.320   0.065   0.570
 2674SOL    HW2 8565   2.404   0.147   0.457
 2675SOL     OW 8566   3.296   1.188   0.041
 2675SOL    HW1 8567   3.328   1.112   0.098
 2675SOL    HW2 8568   3.204   1.215   0.071
 2676SOL     OW 8569   2.159   0.035   0.171
 2676SOL    HW1 8570   2.208   0.119   0.150
 2676SOL    HW2 8571   2.221  -0.030   0.216
 2677SOL     OW 8572   2.797   0.236   0.480
 2677SOL    HW1 8573   2.749   0.277   0.402
 2677SOL    HW2 8574   2.896   0.234   0.461
 2678SOL     OW 8575   2.938   0.683   1.464
 2678SOL    HW1 8576   2.858   0.622   1.467
 2678SOL    HW2 8577   3.019   0.630   1.440
 2679SOL     OW 8578   3.089   1.570   0.793
 2679SOL    HW1 8579   3.110   1.644   0.728
 2679SOL    HW2 8580   3.157   1.570   0.866
 2680SOL     OW 8581   2.321   1.152   0.741
 2680SOL    HW1 8582   2.250   1.125   0.806
 2680SOL    HW2 8583   2.295   1.124   0.648
 2681SOL     OW 8584   3.133   1.797   0.591
 2681SOL    HW1 8585   3.177   1.861   0.527
 2681SOL    HW2 8586   3.083   1.849   0.661
 2682SOL     OW 8587   2.894   0.549   0.016
 2682SOL    HW1 8588   2.853   0.631  -0.023
 2682SOL    HW2 8589   2.958   0.575   0.089
 2683SOL     OW 8590   1.940   0.556   1.386
 2683SOL    HW1 8591   2.032   0.555   1.345
 2683SOL    HW2 8592   1.934   0.630   1.453
 2684SOL     OW 8593   2.423   0.222   1.147
 2684SOL    HW1 8594   2.461   0.138   1.184
 2684SOL    HW2 8595   2.335   0.241   1.191
 2685SOL     OW 8596   2.728   0.454   0.642
 2685SOL    HW1 8597   2.696   0.526   0.580
 2685SOL    HW2 8598   2.752   0.373   0.589
 2686SOL     OW 8599   2.879   0.039   0.753
 2686SOL    HW1 8600   2.807   0.044   0.684
 2686SOL    HW2 8601   2.855  -0.030   0.822
 2687SOL     OW 8602   3.291   1.173   0.867
 2687SOL    HW1 8603   3.236   1.089   0.860
 2687SOL    HW2 8604   3.317   1.202   0.775
 2688SOL     OW 8605   3.328   0.590   0.992
 2688SOL    HW1 8606   3.298   0.495   0.999
 2688SOL    HW2 8607   3.401   0.606   1.058
 2689SOL     OW 8608   3.719   0.833   0.377
 2689SOL    HW1 8609   3.761   0.769   0.441
 2689SOL    HW2 8610   3.681   0.782   0.299
 2690SOL     OW 8611   2.350   1.385   0.174
 2690SOL    HW1 8612   2.263   1.370   0.221
 2690SOL    HW2 8613   2.333   1.411   0.079
 2691SOL     OW 8614   3.526   1.280   0.657
 2691SOL    HW1 8615   3.625   1.288   0.671
 2691SOL    HW2 8616   3.481   1.364   0.688
 2692SOL     OW 8617   3.252   0.575   0.078
 2692SOL    HW1 8618   3.198   0.554   0.159
 2692SOL    HW2 8619   3.343   0.534   0.087
 2693SOL     OW 8620   2.389   0.256   0.328
 2693SOL    HW1 8621   2.416   0.197   0.253
 2693SOL    HW2 8622   2.389   0.351   0.297
 2694SOL     OW 8623   3.616   1.223   1.588
 2694SOL    HW1 8624   3.707   1.184   1.575
 2694SOL    HW2 8625   3.624   1.319   1.612
 2695SOL     OW 8626   2.926   1.347   1.340
 2695SOL    HW1 8627   2.846   1.324   1.395
 2695SOL    HW2 8628   3.009   1.321   1.389
 2696SOL     OW 8629   3.454   1.629   1.625
 2696SOL    HW1 8630   3.481   1.663   1.535
 2696SOL    HW2 8631   3.533   1.591   1.671
 2697SOL     OW 8632   2.973   1.195   1.100
 2697SOL    HW1 8633   2.933   1.239   1.181
 2697SOL    HW2 8634   2.932   1.232   1.017
 2698SOL     OW 8635   3.500   1.099   1.079
 2698SOL    HW1 8636   3.505   1.180   1.138
 2698SOL    HW2 8637   3.414   1.101   1.028
 2699SOL     OW 8638   2.777   0.089   1.402
 2699SOL    HW1 8639   2.802   0.069   1.307
 2699SOL    HW2 8640   2.849   0.145   1.444
 2700SOL     OW 8641   2.842   1.116   1.719
 2700SOL    HW1 8642   2.743   1.122   1.729
 2700SOL    HW2 8643   2.865   1.036   1.663
 2701SOL     OW 8644   2.567   1.050   0.368
 2701SOL    HW1 8645   2.553   1.057   0.467
 2701SOL    HW2 8646   2.651   0.999   0.350
 2702SOL     OW 8647   2.272   0.813   1.251
 2702SOL    HW1 8648   2.358   0.825   1.301
 2702SOL    HW2 8649   2.230   0.726   1.278
 2703SOL     OW 8650   3.136   0.386   1.262
 2703SOL    HW1 8651   3.157   0.460   1.326
 2703SOL    HW2 8652   3.047   0.403   1.219
 2704SOL     OW 8653   1.926   1.564   1.331
 2704SOL    HW1 8654   1.880   1.646   1.297
 2704SOL    HW2 8655   2.024   1.583   1.340
 2705SOL     OW 8656   2.229   1.100   0.501
 2705SOL    HW1 8657   2.222   1.183   0.445
 2705SOL    HW2 8658   2.233   1.020   0.441
 2706SOL     OW 8659   2.428   0.537   0.865
 2706SOL    HW1 8660   2.440   0.603   0.791
 2706SOL    HW2 8661   2.474   0.571   0.948
 2707SOL     OW 8662   3.114   1.348   0.388
 2707SOL    HW1 8663   3.164   1.425   0.428
 2707SOL    HW2 8664   3.019   1.350   0.420
 2708SOL     OW 8665   3.134   1.445   1.142
 2708SOL    HW1 8666   3.181   1.458   1.229
 2708SOL    HW2 8667   3.068   1.371   1.151
 2709SOL     OW 8668   3.444   0.639   0.472
 2709SOL    HW1 8669   3.413   0.700   0.545
 2709SOL    HW2 8670   3.494   0.691   0.403
 2710SOL     OW 8671   2.216   1.510   1.329
 2710SOL    HW1 8672   2.195   1.466   1.242
 2710SOL    HW2 8673   2.313   1.536   1.332
 2711SOL     OW 8674   2.264   0.751   1.598
 2711SOL    HW1 8675   2.332   0.806   1.551
 2711SOL    HW2 8676   2.304   0.663   1.625
 2712SOL     OW 8677   3.449   0.779   1.670
 2712SOL    HW1 8678   3.357   0.817   1.665
 2712SOL    HW2 8679   3.509   0.826   1.605
 2713SOL     OW 8680   2.875   0.105   1.770
 2713SOL    HW1 8681   2.881   0.190   1.718
 2713SOL    HW2 8682   2.907   0.029   1.713
 2714SOL     OW 8683   2.366   0.050   1.740
 2714SOL    HW1 8684   2.324  -0.007   1.670
 2714SOL    HW2 8685   2.300   0.119   1.772
 2715SOL     OW 8686   2.435   0.870   1.029
 2715SOL    HW1 8687   2.479   0.959   1.020
 2715SOL    HW2 8688   2.372   0.870   1.106
 2716SOL     OW 8689   3.222   0.862   1.045
 2716SOL    HW1 8690   3.147   0.862   0.979
 2716SOL    HW2 8691   3.259   0.770   1.054
 2717SOL     OW 8692   3.071   0.525   0.275
 2717SOL    HW1 8693   3.084   0.441   0.329
 2717SOL    HW2 8694   3.042   0.599   0.335
 2718SOL     OW 8695   2.169   0.213   1.231
 2718SOL    HW1 8696   2.146   0.250   1.321
 2718SOL    HW2 8697   2.139   0.118   1.225
 2719SOL     OW 8698   1.899   1.310   1.282
 2719SOL    HW1 8699   1.952   1.261   1.350
 2719SOL    HW2 8700   1.921   1.408   1.287
 2720SOL     OW 8701   2.594   0.634   1.064
 2720SOL    HW1 8702   2.653   0.608   0.988
 2720SOL    HW2 8703   2.566   0.730   1.053
 2721SOL     OW 8704   3.590   0.935   1.854
 2721SOL    HW1 8705   3.544   0.928   1.765
 2721SOL    HW2 8706   3.528   0.979   1.920
 2722SOL     OW 8707   2.169   0.063   0.618
 2722SOL    HW1 8708   2.158   0.157   0.651
 2722SOL    HW2 8709   2.164   0.000   0.695
 2723SOL     OW 8710   3.484   0.367   0.374
 2723SOL    HW1 8711   3.486   0.291   0.438
 2723SOL    HW2 8712   3.436   0.444   0.414
 2724SOL     OW 8713   2.885   0.766   0.966
 2724SOL    HW1 8714   2.900   0.787   1.062
 2724SOL    HW2 8715   2.855   0.671   0.957
 2725SOL     OW 8716   2.842   1.573   1.700
 2725SOL    HW1 8717   2.822   1.617   1.612
 2725SOL    HW2 8718   2.881   1.482   1.684
 2726SOL     OW 8719   3.721   1.518   1.605
 2726SOL    HW1 8720   3.735   1.545   1.510
 2726SOL    HW2 8721   3.804   1.540   1.658
 2727SOL     OW 8722   2.212   0.898   1.804
 2727SOL    HW1 8723   2.288   0.942   1.852
 2727SOL    HW2 8724   2.247   0.851   1.722
 2728SOL     OW 8725   3.402   0.274   0.125
 2728SOL    HW1 8726   3.341   0.199   0.148
 2728SOL    HW2 8727   3.424   0.326   0.208
 2729SOL     OW 8728   3.165   0.838   0.042
 2729SOL    HW1 8729   3.199   0.745   0.057
 2729SOL    HW2 8730   3.183   0.865  -0.053
 2730SOL     OW 8731   2.930   1.333   0.849
 2730SOL    HW1 8732   2.937   1.249   0.794
 2730SOL    HW2 8733   2.992   1.402   0.813
 2731SOL     OW 8734   2.181   0.810   0.949
 2731SOL    HW1 8735   2.274   0.846   0.954
 2731SOL    HW2 8736   2.175   0.725   1.001
 2732SOL     OW 8737   2.201   0.509   1.006
 2732SOL    HW1 8738   2.149   0.426   0.989
 2732SOL    HW2 8739   2.278   0.514   0.942
 2733SOL     OW 8740   3.000   0.380   1.678
 2733SOL    HW1 8741   2.955   0.443   1.742
 2733SOL    HW2 8742   3.093   0.411   1.661
 2734SOL     OW 8743   3.022   0.207   1.477
 2734SOL    HW1 8744   3.022   0.271   1.554
 2734SOL    HW2 8745   3.050   0.255   1.394
 2735SOL     OW 8746   1.870   1.326   0.200
 2735SOL    HW1 8747   1.777   1.347   0.169
 2735SOL    HW2 8748   1.880   1.227   0.213
 2736SOL     OW 8749   1.950   1.801   0.927
 2736SOL    HW1 8750   1.908   1.715   0.900
 2736SOL    HW2 8751   2.044   1.804   0.893
 2737SOL     OW 8752   2.366   1.568   0.910
 2737SOL    HW1 8753   2.432   1.642   0.919
 2737SOL    HW2 8754   2.410   1.489   0.868
 2738SOL     OW 8755   2.864   0.796   1.238
 2738SOL    HW1 8756   2.905   0.764   1.324
 2738SOL    HW2 8757   2.768   0.769   1.235
 2739SOL     OW 8758   1.902   0.544   1.114
 2739SOL    HW1 8759   1.987   0.511   1.073
 2739SOL    HW2 8760   1.915   0.559   1.212
 2740SOL     OW 8761   2.051   0.520   1.722
 2740SOL    HW1 8762   2.110   0.480   1.652
 2740SOL    HW2 8763   1.993   0.591   1.681
 2741SOL     OW 8764   3.231   0.950   1.660
 2741SOL    HW1 8765   3.270   1.039   1.680
 2741SOL    HW2 8766   3.241   0.930   1.563
 2742SOL     OW 8767   2.677   0.572   0.325
 2742SOL    HW1 8768   2.684   0.483   0.279
 2742SOL    HW2 8769   2.583   0.606   0.317
 2743SOL     OW 8770   3.519   0.604   1.206
 2743SOL    HW1 8771   3.481   0.535   1.268
 2743SOL    HW2 8772   3.601   0.568   1.162
 2744SOL     OW 8773   2.114   1.564   1.744
 2744SOL    HW1 8774   2.084   1.621   1.820
 2744SOL    HW2 8775   2.107   1.467   1.770
 2745SOL     OW 8776   2.533   0.464   1.269
 2745SOL    HW1 8777   2.499   0.375   1.239
 2745SOL    HW2 8778   2.559   0.518   1.189
 2746SOL     OW 8779   2.792   1.678   1.465
 2746SOL    HW1 8780   2.768   1.660   1.370
 2746SOL    HW2 8781   2.822   1.772   1.475
 2747SOL     OW 8782   2.335   0.500   0.191
 2747SOL    HW1 8783   2.396   0.580   0.195
 2747SOL    HW2 8784   2.240   0.531   0.198
 2748SOL     OW 8785   2.021   1.137   1.466
 2748SOL    HW1 8786   2.043   1.076   1.542
 2748SOL    HW2 8787   2.031   1.088   1.380
 2749SOL     OW 8788   3.209   1.059   1.234
 2749SOL    HW1 8789   3.233   0.996   1.160
 2749SOL    HW2 8790   3.119   1.099   1.216
 2750SOL     OW 8791   3.164   0.855   0.309
 2750SOL    HW1 8792   3.078   0.824   0.351
 2750SOL    HW2 8793   3.160   0.841   0.210
 2751SOL     OW 8794   3.621   1.747   1.154
 2751SOL    HW1 8795   3.682   1.777   1.081
 2751SOL    HW2 8796   3.583   1.658   1.132
 2752SOL     OW 8797   3.114   1.731   1.128
 2752SOL    HW1 8798   3.198   1.736   1.074
 2752SOL    HW2 8799   3.091   1.635   1.146
 2753SOL     OW 8800   1.945   1.258   1.022
 2753SOL    HW1 8801   1.940   1.257   1.122
 2753SOL    HW2 8802   1.862   1.217   0.984
 2754SOL     OW 8803   2.550   1.662   1.716
 2754SOL    HW1 8804   2.494   1.743   1.725
 2754SOL    HW2 8805   2.602   1.666   1.630
 2755SOL     OW 8806   2.765   0.086   0.133
 2755SOL    HW1 8807   2.816   0.087   0.047
 2755SOL    HW2 8808   2.821   0.044   0.204
 2756SOL     OW 8809   3.588   0.135   0.523
 2756SOL    HW1 8810   3.661   0.118   0.456
 2756SOL    HW2 8811   3.557   0.048   0.561
 2757SOL     OW 8812   3.250   1.573   0.477
 2757SOL    HW1 8813   3.317   1.585   0.403
 2757SOL    HW2 8814   3.210   1.662   0.500
 2758SOL     OW 8815   1.992   1.794   1.851
 2758SOL    HW1 8816   1.951   1.720   1.904
 2758SOL    HW2 8817   2.056   1.845   1.909
 2759SOL     OW 8818   3.142   0.927   0.672
 2759SOL    HW1 8819   3.202   0.846   0.674
 2759SOL    HW2 8820   3.182   0.996   0.612
 2760SOL     OW 8821   2.692   1.273   1.422
 2760SOL    HW1 8822   2.687   1.306   1.517
 2760SOL    HW2 8823   2.606   1.292   1.376
 2761SOL     OW 8824   2.534   1.616   0.154
 2761SOL    HW1 8825   2.543   1.626   0.055
 2761SOL    HW2 8826   2.494   1.527   0.175
 2762SOL     OW 8827   3.512   1.720   1.394
 2762SOL    HW1 8828   3.565   1.730   1.310
 2762SOL    HW2 8829   3.485   1.810   1.428
 2763SOL     OW 8830   3.703   0.175   0.963
 2763SOL    HW1 8831   3.742   0.090   0.927
 2763SOL    HW2 8832   3.605   0.177   0.944
 2764SOL     OW 8833   2.125   0.326   0.720
 2764SOL    HW1 8834   2.046   0.377   0.686
 2764SOL    HW2 8835   2.116   0.311   0.818
 2765SOL     OW 8836   3.056   1.612   0.031
 2765SOL    HW1 8837   3.062   1.519   0.068
 2765SOL    HW2 8838   2.997   1.612  -0.049
 2766SOL     OW 8839   2.684   1.002   1.372
 2766SOL    HW1 8840   2.724   1.001   1.280
 2766SOL    HW2 8841   2.694   1.094   1.412
 2767SOL     OW 8842   2.778   0.910   0.291
 2767SOL    HW1 8843   2.841   0.948   0.223
 2767SOL    HW2 8844   2.818   0.827   0.330
 2768SOL     OW 8845   3.366   1.607   0.044
 2768SOL    HW1 8846   3.274   1.644   0.051
 2768SOL    HW2 8847   3.404   1.627  -0.046
 2769SOL     OW 8848   2.234   1.288   1.490
 2769SOL    HW1 8849   2.221   1.381   1.456
 2769SOL    HW2 8850   2.150   1.236   1.477
 2770SOL     OW 8851   3.476   1.292   1.289
 2770SOL    HW1 8852   3.536   1.295   1.369
 2770SOL    HW2 8853   3.401   1.356   1.302
 2771SOL     OW 8854   2.901   1.098   0.696
 2771SOL    HW1 8855   2.831   1.051   0.750
 2771SOL    HW2 8856   2.960   1.030   0.653
 2772SOL     OW 8857   2.876   0.236   0.971
 2772SOL    HW1 8858   2.868   0.200   0.878
 2772SOL    HW2 8859   2.874   0.160   1.036
 2773SOL     OW 8860   2.452   1.487   0.491
 2773SOL    HW1 8861   2.494   1.429   0.421
 2773SOL    HW2 8862   2.408   1.566   0.447
 2774SOL     OW 8863   3.571   0.385   1.381
 2774SOL    HW1 8864   3.644   0.454   1.385
 2774SOL    HW2 8865   3.599   0.310   1.322
 2775SOL     OW 8866   2.117   1.348   0.290
 2775SOL    HW1 8867   2.021   1.349   0.263
 2775SOL    HW2 8868   2.129   1.401   0.374
 2776SOL     OW 8869   1.967   1.013   1.726
 2776SOL    HW1 8870   1.890   0.980   1.780
 2776SOL    HW2 8871   2.052   0.983   1.768
 2777SOL     OW 8872   2.534   0.203   1.489
 2777SOL    HW1 8873   2.624   0.187   1.449
 2777SOL    HW2 8874   2.542   0.208   1.588
 2778SOL     OW 8875   1.937   0.345   0.033
 2778SOL    HW1 8876   1.845   0.317   0.004
 2778SOL    HW2 8877   1.968   0.422  -0.023
 2779SOL     OW 8878   3.302   0.856   1.398
 2779SOL    HW1 8879   3.245   0.908   1.335
 2779SOL    HW2 8880   3.398   0.868   1.374
 2780SOL     OW 8881   1.934   0.166   0.318
 2780SOL    HW1 8882   1.917   0.249   0.264
 2780SOL    HW2 8883   2.024   0.129   0.296
 2781SOL     OW 8884   3.045   1.335   0.119
 2781SOL    HW1 8885   2.946   1.324   0.121
 2781SOL    HW2 8886   3.079   1.350   0.212
 2782SOL     OW 8887   2.475   0.842   1.431
 2782SOL    HW1 8888   2.531   0.923   1.414
 2782SOL    HW2 8889   2.534   0.762   1.434
 2783SOL     OW 8890   3.355   1.767   0.959
 2783SOL    HW1 8891   3.388   1.831   0.890
 2783SOL    HW2 8892   3.421   1.761   1.034
 2784SOL     OW 8893   2.578   0.565   1.708
 2784SOL    HW1 8894   2.597   0.630   1.782
 2784SOL    HW2 8895   2.638   0.485   1.717
 2785SOL     OW 8896   3.312   1.220   1.633
 2785SOL    HW1 8897   3.303   1.210   1.732
 2785SOL    HW2 8898   3.408   1.213   1.607
 2786SOL     OW 8899   2.252   1.741   1.560
 2786SOL    HW1 8900   2.161   1.782   1.558
 2786SOL    HW2 8901   2.245   1.647   1.592
 2787SOL     OW 8902   3.536   0.883   1.254
 2787SOL    HW1 8903   3.509   0.794   1.217
 2787SOL    HW2 8904   3.537   0.951   1.181
 2788SOL     OW 8905   3.087   0.325   0.449
 2788SOL    HW1 8906   3.152   0.251   0.438
 2788SOL    HW2 8907   3.107   0.375   0.533
 2789SOL     OW 8908   2.456   0.745   0.652
 2789SOL    HW1 8909   2.506   0.830   0.633
 2789SOL    HW2 8910   2.368   0.747   0.604
 2790SOL     OW 8911   3.639   0.342   1.642
 2790SOL    HW1 8912   3.622   0.373   1.548
 2790SOL    HW2 8913   3.555   0.305   1.680
 2791SOL     OW 8914   3.592   0.934   1.517
 2791SOL    HW1 8915   3.630   1.025   1.532
 2791SOL    HW2 8916   3.584   0.917   1.418
 2792SOL     OW 8917   2.721   1.374   0.016
 2792SOL    HW1 8918   2.675   1.389   0.104
 2792SOL    HW2 8919   2.765   1.459  -0.014
 2793SOL     OW 8920   2.523   1.790   0.953
 2793SOL    HW1 8921   2.477   1.878   0.940
 2793SOL    HW2 8922   2.622   1.802   0.946
 2794SOL     OW 8923   2.721   0.956   0.861
 2794SOL    HW1 8924   2.775   0.887   0.909
 2794SOL    HW2 8925   2.689   1.025   0.927
 2795SOL     OW 8926   2.945   0.984   0.087
 2795SOL    HW1 8927   2.922   1.037   0.005
 2795SOL    HW2 8928   3.026   0.928   0.068
 2796SOL     OW 8929   3.723   1.569   0.851
 2796SOL    HW1 8930   3.652   1.557   0.781
 2796SOL    HW2 8931   3.724   1.490   0.911
 2797SOL     OW 8932   2.083   1.314   1.844
 2797SOL    HW1 8933   2.018   1.241   1.823
 2797SOL    HW2 8934   2.087   1.328   1.942
 2798SOL     OW 8935   1.941   1.240   0.653
 2798SOL    HW1 8936   1.940   1.193   0.741
 2798SOL    HW2 8937   2.023   1.212   0.602
 2799SOL     OW 8938   2.534   1.391   1.624
 2799SOL    HW1 8939   2.456   1.341   1.662
 2799SOL    HW2 8940   2.531   1.486   1.655
 2800SOL     OW 8941   3.686   0.192   1.227
 2800SOL    HW1 8942   3.682   0.102   1.271
 2800SOL    HW2 8943   3.689   0.181   1.128
 2801SOL     OW 8944   2.290   0.424   0.520
 2801SOL    HW1 8945   2.320   0.352   0.458
 2801SOL    HW2 8946   2.251   0.384   0.603
 2802SOL     OW 8947   3.567   1.487   1.104
 2802SOL    HW1 8948   3.474   1.462   1.077
 2802SOL    HW2 8949   3.593   1.437   1.186
 2803SOL     OW 8950   2.179   0.547   1.280
 2803SOL    HW1 8951   2.217   0.488   1.352
 2803SOL    HW2 8952   2.219   0.521   1.192
 2804SOL     OW 8953   2.674   1.586   0.687
 2804SOL    HW1 8954   2.706   1.596   0.593
 2804SOL    HW2 8955   2.595   1.524   0.689
 2805SOL     OW 8956   3.286   0.214   1.112
 2805SOL    HW1 8957   3.338   0.149   1.167
 2805SOL    HW2 8958   3.237   0.277   1.173
 2806SOL     OW 8959   2.863   0.034   1.154
 2806SOL    HW1 8960   2.800  -0.038   1.123
 2806SOL    HW2 8961   2.956  -0.002   1.154
 2807SOL     OW 8962   2.632   1.330   0.301
 2807SOL    HW1 8963   2.586   1.243   0.318
 2807SOL    HW2 8964   2.723   1.327   0.342
 2808SOL     OW 8965   2.480   1.567   1.284
 2808SOL    HW1 8966   2.475   1.649   1.341
 2808SOL    HW2 8967   2.569   1.564   1.239
 2809SOL     OW 8968   3.214   0.052   0.168
 2809SOL    HW1 8969   3.249   0.011   0.084
 2809SOL    HW2 8970   3.124   0.014   0.188
 2810SOL     OW 8971   3.162   0.453   0.691
 2810SOL    HW1 8972   3.103   0.533   0.695
 2810SOL    HW2 8973   3.177   0.418   0.784
 2811SOL     OW 8974   3.455   0.221   0.882
 2811SOL    HW1 8975   3.371   0.220   0.936
 2811SOL    HW2 8976   3.457   0.304   0.826
 2812SOL     OW 8977   1.901   1.077   0.300
 2812SOL    HW1 8978   2.000   1.066   0.291
 2812SOL    HW2 8979   1.861   0.991   0.332
 2813SOL     OW 8980   2.737   1.646   0.337
 2813SOL    HW1 8981   2.660   1.611   0.283
 2813SOL    HW2 8982   2.705   1.717   0.399
 2814SOL     OW 8983   2.092   0.628   1.975
 2814SOL    HW1 8984   1.999   0.626   2.012
 2814SOL    HW2 8985   2.093   0.589   1.883
 2815SOL     OW 8986   2.087   0.275   2.858
 2815SOL    HW1 8987   2.122   0.258   2.950
 2815SOL    HW2 8988   1.999   0.230   2.846
 2816SOL     OW 8989   1.881   0.368   2.509
 2816SOL    HW1 8990   1.799   0.411   2.548
 2816SOL    HW2 8991   1.853   0.295   2.446
 2817SOL     OW 8992   2.431   1.275   3.027
 2817SOL    HW1 8993   2.338   1.268   2.990
 2817SOL    HW2 8994   2.442   1.364   3.071
 2818SOL     OW 8995   3.417   1.511   2.565
 2818SOL    HW1 8996   3.360   1.495   2.646
 2818SOL    HW2 8997   3.358   1.521   2.485
 2819SOL     OW 8998   2.997   0.703   2.579
 2819SOL    HW1 8999   3.054   0.781   2.554
 2819SOL    HW2 9000   2.937   0.729   2.655
 2820SOL     OW 9001   3.617   0.607   2.093
 2820SOL    HW1 9002   3.605   0.594   1.994
 2820SOL    HW2 9003   3.587   0.526   2.142
 2821SOL     OW 9004   2.630   1.144   2.885
 2821SOL    HW1 9005   2.552   1.161   2.945
 2821SOL    HW2 9006   2.664   1.231   2.849
 2822SOL     OW 9007   2.712   0.798   3.685
 2822SOL    HW1 9008   2.708   0.874   3.750
 2822SOL    HW2 9009   2.734   0.834   3.594
 2823SOL     OW 9010   2.547   1.012   2.527
 2823SOL    HW1 9011   2.616   0.996   2.597
 2823SOL    HW2 9012   2.474   1.069   2.565
 2824SOL     OW 9013   2.548   1.161   3.665
 2824SOL    HW1 9014   2.608   1.240   3.679
 2824SOL    HW2 9015   2.462   1.192   3.624
 2825SOL     OW 9016   2.197   1.435   2.923
 2825SOL    HW1 9017   2.119   1.404   2.870
 2825SOL    HW2 9018   2.255   1.493   2.866
 2826SOL     OW 9019   3.322   1.505   3.201
 2826SOL    HW1 9020   3.346   1.599   3.227
 2826SOL    HW2 9021   3.306   1.451   3.283
 2827SOL     OW 9022   2.300   0.392   3.361
 2827SOL    HW1 9023   2.382   0.336   3.370
 2827SOL    HW2 9024   2.219   0.334   3.365
 2828SOL     OW 9025   3.465   0.447   2.599
 2828SOL    HW1 9026   3.391   0.493   2.549
 2828SOL    HW2 9027   3.516   0.515   2.652
 2829SOL     OW 9028   2.093   1.713   2.345
 2829SOL    HW1 9029   2.127   1.790   2.399
 2829SOL    HW2 9030   2.137   1.713   2.255
 2830SOL     OW 9031   2.989   1.341   3.552
 2830SOL    HW1 9032   3.036   1.341   3.640
 2830SOL    HW2 9033   2.941   1.254   3.541
 2831SOL     OW 9034   2.092   1.434   2.400
 2831SOL    HW1 9035   2.066   1.530   2.400
 2831SOL    HW2 9036   2.021   1.380   2.445
 2832SOL     OW 9037   2.102   1.091   2.748
 2832SOL    HW1 9038   2.116   1.007   2.800
 2832SOL    HW2 9039   2.047   1.155   2.803
 2833SOL     OW 9040   2.482   1.786   3.301
 2833SOL    HW1 9041   2.390   1.769   3.336
 2833SOL    HW2 9042   2.510   1.878   3.327
 2834SOL     OW 9043   2.468   0.964   1.985
 2834SOL    HW1 9044   2.475   1.048   1.931
 2834SOL    HW2 9045   2.514   0.977   2.073
 2835SOL     OW 9046   3.456   0.114   3.342
 2835SOL    HW1 9047   3.438   0.181   3.270
 2835SOL    HW2 9048   3.453   0.160   3.431
 2836SOL     OW 9049   1.984   0.643   2.425
 2836SOL    HW1 9050   1.939   0.555   2.442
 2836SOL    HW2 9051   1.983   0.697   2.509
 2837SOL     OW 9052   3.704   1.767   2.221
 2837SOL    HW1 9053   3.758   1.738   2.301
 2837SOL    HW2 9054   3.734   1.857   2.192
 2838SOL     OW 9055   1.889   1.596   1.979
 2838SOL    HW1 9056   1.870   1.500   2.000
 2838SOL    HW2 9057   1.856   1.654   2.054
 2839SOL     OW 9058   3.551   0.922   2.474
 2839SOL    HW1 9059   3.646   0.893   2.482
 2839SOL    HW2 9060   3.543   0.987   2.399
 2840SOL     OW 9061   3.503   1.108   2.294
 2840SOL    HW1 9062   3.589   1.110   2.242
 2840SOL    HW2 9063   3.517   1.155   2.382
 2841SOL     OW 9064   1.975   0.737   3.459
 2841SOL    HW1 9065   2.063   0.724   3.504
 2841SOL    HW2 9066   1.962   0.834   3.437
 2842SOL     OW 9067   2.475   1.365   2.588
 2842SOL    HW1 9068   2.426   1.278   2.597
 2842SOL    HW2 9069   2.452   1.408   2.501
 2843SOL     OW 9070   3.155   1.228   3.285
 2843SOL    HW1 9071   3.192   1.155   3.227
 2843SOL    HW2 9072   3.207   1.233   3.370
 2844SOL     OW 9073   2.671   0.004   2.364
 2844SOL    HW1 9074   2.711   0.095   2.355
 2844SOL    HW2 9075   2.571   0.012   2.370
 2845SOL     OW 9076   2.059   0.976   3.126
 2845SOL    HW1 9077   2.148   0.931   3.112
 2845SOL    HW2 9078   1.986   0.911   3.107
 2846SOL     OW 9079   3.387   0.999   2.052
 2846SOL    HW1 9080   3.324   0.923   2.065
 2846SOL    HW2 9081   3.435   1.017   2.138
 2847SOL     OW 9082   3.049   1.792   3.478
 2847SOL    HW1 9083   3.073   1.852   3.402
 2847SOL    HW2 9084   3.056   1.697   3.448
 2848SOL     OW 9085   2.179   0.251   3.663
 2848SOL    HW1 9086   2.250   0.322   3.669
 2848SOL    HW2 9087   2.091   0.290   3.691
 2849SOL     OW 9088   3.328   1.417   2.815
 2849SOL    HW1 9089   3.269   1.423   2.895
 2849SOL    HW2 9090   3.313   1.329   2.769
 2850SOL     OW 9091   3.529   1.714   2.434
 2850SOL    HW1 9092   3.488   1.691   2.346
 2850SOL    HW2 9093   3.511   1.640   2.499
 2851SOL     OW 9094   2.460   0.729   2.132
 2851SOL    HW1 9095   2.484   0.798   2.064
 2851SOL    HW2 9096   2.382   0.762   2.186
 2852SOL     OW 9097   3.143   0.345   2.806
 2852SOL    HW1 9098   3.057   0.295   2.793
 2852SOL    HW2 9099   3.205   0.291   2.862
 2853SOL     OW 9100   3.438   1.662   2.169
 2853SOL    HW1 9101   3.527   1.708   2.172
 2853SOL    HW2 9102   3.417   1.638   2.074
 2854SOL     OW 9103   2.669   0.605   3.327
 2854SOL    HW1 9104   2.622   0.602   3.416
 2854SOL    HW2 9105   2.618   0.550   3.261
 2855SOL     OW 9106   3.256   0.469   3.536
 2855SOL    HW1 9107   3.236   0.512   3.624
 2855SOL    HW2 9108   3.334   0.407   3.545
 2856SOL     OW 9109   2.835   0.890   3.434
 2856SOL    HW1 9110   2.881   0.806   3.405
 2856SOL    HW2 9111   2.779   0.924   3.359
 2857SOL     OW 9112   2.853   0.410   3.104
 2857SOL    HW1 9113   2.776   0.444   3.158
 2857SOL    HW2 9114   2.819   0.359   3.025
 2858SOL     OW 9115   2.903   0.701   2.291
 2858SOL    HW1 9116   2.929   0.697   2.387
 2858SOL    HW2 9117   2.818   0.650   2.277
 2859SOL     OW 9118   1.938   0.811   2.651
 2859SOL    HW1 9119   2.037   0.799   2.660
 2859SOL    HW2 9120   1.914   0.906   2.672
 2860SOL     OW 9121   1.992   1.821   3.433
 2860SOL    HW1 9122   1.982   1.806   3.532
 2860SOL    HW2 9123   1.906   1.857   3.397
 2861SOL     OW 9124   2.727   0.348   2.057
 2861SOL    HW1 9125   2.786   0.411   2.008
 2861SOL    HW2 9126   2.746   0.254   2.028
 2862SOL     OW 9127   3.581   0.585   3.693
 2862SOL    HW1 9128   3.555   0.674   3.657
 2862SOL    HW2 9129   3.579   0.517   3.620
 2863SOL     OW 9130   3.224   1.144   2.407
 2863SOL    HW1 9131   3.307   1.115   2.359
 2863SOL    HW2 9132   3.175   1.211   2.351
 2864SOL     OW 9133   2.412   0.196   2.747
 2864SOL    HW1 9134   2.407   0.191   2.847
 2864SOL    HW2 9135   2.414   0.292   2.718
 2865SOL     OW 9136   2.870   1.456   2.339
 2865SOL    HW1 9137   2.824   1.528   2.287
 2865SOL    HW2 9138   2.866   1.476   2.437
 2866SOL     OW 9139   2.213   1.801   2.715
 2866SOL    HW1 9140   2.263   1.715   2.721
 2866SOL    HW2 9141   2.278   1.878   2.712
 2867SOL     OW 9142   3.657   1.066   2.735
 2867SOL    HW1 9143   3.595   1.051   2.659
 2867SOL    HW2 9144   3.605   1.077   2.820
 2868SOL     OW 9145   3.089   1.550   3.368
 2868SOL    HW1 9146   3.095   1.473   3.432
 2868SOL    HW2 9147   3.037   1.524   3.288
 2869SOL     OW 9148   2.183   0.943   2.104
 2869SOL    HW1 9149   2.265   0.982   2.062
 2869SOL    HW2 9150   2.156   0.861   2.055
 2870SOL     OW 9151   3.320   0.735   2.590
 2870SOL    HW1 9152   3.315   0.670   2.665
 2870SOL    HW2 9153   3.400   0.794   2.603
 2871SOL     OW 9154   2.323   1.266   3.589
 2871SOL    HW1 9155   2.273   1.267   3.503
 2871SOL    HW2 9156   2.260   1.248   3.665
 2872SOL     OW 9157   2.973   1.776   2.099
 2872SOL    HW1 9158   2.913   1.714   2.149
 2872SOL    HW2 9159   3.004   1.732   2.014
 2873SOL     OW 9160   2.064   0.285   3.360
 2873SOL    HW1 9161   1.984   0.345   3.347
 2873SOL    HW2 9162   2.054   0.236   3.446
 2874SOL     OW 9163   3.494   1.377   1.943
 2874SOL    HW1 9164   3.462   1.471   1.933
 2874SOL    HW2 9165   3.418   1.314   1.931
 2875SOL     OW 9166   2.326   1.743   2.185
 2875SOL    HW1 9167   2.359   1.782   2.271
 2875SOL    HW2 9168   2.402   1.736   2.120
 2876SOL     OW 9169   3.262   0.107   2.288
 2876SOL    HW1 9170   3.238   0.070   2.198
 2876SOL    HW2 9171   3.361   0.123   2.292
 2877SOL     OW 9172   2.111   1.785   3.103
 2877SOL    HW1 9173   2.168   1.720   3.153
 2877SOL    HW2 9174   2.095   1.752   3.010
 2878SOL     OW 9175   2.802   1.698   2.766
 2878SOL    HW1 9176   2.882   1.641   2.787
 2878SOL    HW2 9177   2.753   1.658   2.689
 2879SOL     OW 9178   2.244   0.700   2.342
 2879SOL    HW1 9179   2.289   0.610   2.339
 2879SOL    HW2 9180   2.150   0.689   2.375
 2880SOL     OW 9181   3.409   0.222   3.591
 2880SOL    HW1 9182   3.404   0.259   3.683
 2880SOL    HW2 9183   3.337   0.153   3.579
 2881SOL     OW 9184   2.476   0.122   1.979
 2881SOL    HW1 9185   2.574   0.100   1.986
 2881SOL    HW2 9186   2.445   0.105   1.886
 2882SOL     OW 9187   2.643   0.264   3.611
 2882SOL    HW1 9188   2.710   0.203   3.654
 2882SOL    HW2 9189   2.570   0.283   3.676
 2883SOL     OW 9190   2.750   1.514   3.057
 2883SOL    HW1 9191   2.727   1.489   2.963
 2883SOL    HW2 9192   2.811   1.445   3.096
 2884SOL     OW 9193   3.213   0.590   3.295
 2884SOL    HW1 9194   3.241   0.547   3.380
 2884SOL    HW2 9195   3.238   0.686   3.296
 2885SOL     OW 9196   2.665   1.402   2.786
 2885SOL    HW1 9197   2.755   1.416   2.744
 2885SOL    HW2 9198   2.594   1.404   2.715
 2886SOL     OW 9199   2.784   0.503   2.761
 2886SOL    HW1 9200   2.759   0.494   2.665
 2886SOL    HW2 9201   2.832   0.421   2.792
 2887SOL     OW 9202   2.401   0.064   2.374
 2887SOL    HW1 9203   2.320   0.065   2.432
 2887SOL    HW2 9204   2.404   0.147   2.319
 2888SOL     OW 9205   3.296   1.188   1.903
 2888SOL    HW1 9206   3.328   1.112   1.960
 2888SOL    HW2 9207   3.204   1.215   1.933
 2889SOL     OW 9208   2.159   0.035   2.033
 2889SOL    HW1 9209   2.208   0.119   2.012
 2889SOL    HW2 9210   2.221  -0.030   2.078
 2890SOL     OW 9211   2.797   0.236   2.342
 2890SOL    HW1 9212   2.749   0.277   2.264
 2890SOL    HW2 9213   2.896   0.234   2.323
 2891SOL     OW 9214   2.938   0.683   3.326
 2891SOL    HW1 9215   2.858   0.622   3.329
 2891SOL    HW2 9216   3.019   0.630   3.302
 2892SOL     OW 9217   3.089   1.570   2.655
 2892SOL    HW1 9218   3.110   1.644   2.590
 2892SOL    HW2 9219   3.157   1.570   2.728
 2893SOL     OW 9220   2.321   1.152   2.603
 2893SOL    HW1 9221   2.250   1.125   2.668
 2893SOL    HW2 9222   2.295   1.124   2.510
 2894SOL     OW 9223   3.133   1.797   2.453
 2894SOL    HW1 9224   3.177   1.861   2.389
 2894SOL    HW2 9225   3.083   1.849   2.523
 2895SOL     OW 9226   2.894   0.549   1.878
 2895SOL    HW1 9227   2.853   0.631   1.839
 2895SOL    HW2 9228   2.958   0.575   1.951
 2896SOL     OW 9229   1.940   0.556   3.248
 2896SOL    HW1 9230   2.032   0.555   3.207
 2896SOL    HW2 9231   1.934   0.630   3.315
 2897SOL     OW 9232   2.423   0.222   3.009
 2897SOL    HW1 9233   2.461   0.138   3.046
 2897SOL    HW2 9234   2.335   0.241   3.053
 2898SOL     OW 9235   2.728   0.454   2.504
 2898SOL    HW1 9236   2.696   0.526   2.442
 2898SOL    HW2 9237   2.752   0.373   2.451
 2899SOL     OW 9238   2.879   0.039   2.615
 2899SOL    HW1 9239   2.807   0.044   2.546
 2899SOL    HW2 9240   2.855  -0.030   2.684
 2900SOL     OW 9241   3.291   1.173   2.729
 2900SOL    HW1 9242   3.236   1.089   2.722
 2900SOL    HW2 9243   3.317   1.202   2.637
 2901SOL     OW 9244   3.328   0.590   2.854
 2901SOL    HW1 9245   3.298   0.495   2.861
 2901SOL    HW2 9246   3.401   0.606   2.920
 2902SOL     OW 9247   3.719   0.833   2.239
 2902SOL    HW1 9248   3.761   0.769   2.303
 2902SOL    HW2 9249   3.681   0.782   2.161
 2903SOL     OW 9250   2.350   1.385   2.036
 2903SOL    HW1 9251   2.263   1.370   2.083
 2903SOL    HW2 9252   2.333   1.411   1.941
 2904SOL     OW 9253   3.526   1.280   2.519
 2904SOL    HW1 9254   3.625   1.288   2.533
 2904SOL    HW2 9255   3.481   1.364   2.550
 2905SOL     OW 9256   3.252   0.575   1.940
 2905SOL    HW1 9257   3.198   0.554   2.021
 2905SOL    HW2 9258   3.343   0.534   1.949
 2906SOL     OW 9259   2.389   0.256   2.190
 2906SOL    HW1 9260   2.416   0.197   2.115
 2906SOL    HW2 9261   2.389   0.351   2.159
 2907SOL     OW 9262   3.616   1.223   3.450
 2907SOL    HW1 9263   3.707   1.184   3.437
 2907SOL    HW2 9264   3.624   1.319   3.474
 2908SOL     OW 9265   2.926   1.347   3.202
 2908SOL    HW1 9266   2.846   1.324   3.257
 2908SOL    HW2 9267   3.009   1.321   3.251
 2909SOL     OW 9268   3.454   1.629   3.487
 2909SOL    HW1 9269   3.481   1.663   3.397
 2909SOL    HW2 9270   3.533   1.591   3.533
 2910SOL     OW 9271   2.973   1.195   2.962
 2910SOL    HW1 9272   2.933   1.239   3.043
 2910SOL    HW2 9273   2.932   1.232   2.879
 2911SOL     OW 9274   3.500   1.099   2.941
 2911SOL    HW1 9275   3.505   1.180   3.000
 2911SOL    HW2 9276   3.414   1.101   2.890
 2912SOL     OW 9277   2.777   0.089   3.264
 2912SOL    HW1 9278   2.802   0.069   3.169
 2912SOL    HW2 9279   2.849   0.145   3.306
 2913SOL     OW 9280   2.842   1.116   3.581
 2913SOL    HW1 9281   2.743   1.122   3.591
 2913SOL    HW2 9282   2.865   1.036   3.525
 2914SOL     OW 9283   2.567   1.050   2.230
 2914SOL    HW1 9284   2.553   1.057   2.329
 2914SOL    HW2 9285   2.651   0.999   2.212
 2915SOL     OW 9286   2.272   0.813   3.113
 2915SOL    HW1 9287   2.358   0.825   3.163
 2915SOL    HW2 9288   2.230   0.726   3.140
 2916SOL     OW 9289   3.136   0.386   3.124
 2916SOL    HW1 9290   3.157   0.460   3.188
 2916SOL    HW2 9291   3.047   0.403   3.081
 2917SOL     OW 9292   1.926   1.564   3.193
 2917SOL    HW1 9293   1.880   1.646   3.159
 2917SOL    HW2 9294   2.024   1.583   3.202
 2918SOL     OW 9295   2.229   1.100   2.363
 2918SOL    HW1 9296   2.222   1.183   2.307
 2918SOL    HW2 9297   2.233   1.020   2.303
 2919SOL     OW 9298   2.428   0.537   2.727
 2919SOL    HW1 9299   2.440   0.603   2.653
 2919SOL    HW2 9300   2.474   0.571   2.810
 2920SOL     OW 9301   3.114   1.348   2.250
 2920SOL    HW1 9302   3.164   1.425   2.290
 2920SOL    HW2 9303   3.019   1.350   2.282
 2921SOL     OW 9304   3.134   1.445   3.004
 2921SOL    HW1 9305   3.181   1.458   3.091
 2921SOL    HW2 9306   3.068   1.371   3.013
 2922SOL     OW 9307   3.444   0.639   2.334
 2922SOL    HW1 9308   3.413   0.700   2.407
 2922SOL    HW2 9309   3.494   0.691   2.265
 2923SOL     OW 9310   2.216   1.510   3.191
 2923SOL    HW1 9311   2.195   1.466   3.104
 2923SOL    HW2 9312   2.313   1.536   3.194
 2924SOL     OW 9313   2.264   0.751   3.460
 2924SOL    HW1 9314   2.332   0.806   3.413
 2924SOL    HW2 9315   2.304   0.663   3.487
 2925SOL     OW 9316   3.449   0.779   3.532
 2925SOL    HW1 9317   3.357   0.817   3.527
 2925SOL    HW2 9318   3.509   0.826   3.467
 2926SOL     OW 9319   2.875   0.105   3.632
 2926SOL    HW1 9320   2.881   0.190   3.580
 2926SOL    HW2 9321   2.907   0.029   3.575
 2927SOL     OW 9322   2.366   0.050   3.602
 2927SOL    HW1 9323   2.324  -0.007   3.532
 2927SOL    HW2 9324   2.300   0.119   3.634
 2928SOL     OW 9325   2.435   0.870   2.891
 2928SOL    HW1 9326   2.479   0.959   2.882
 2928SOL    HW2 9327   2.372   0.870   2.968
 2929SOL     OW 9328   3.222   0.862   2.907
 2929SOL    HW1 9329   3.147   0.862   2.841
 2929SOL    HW2 9330   3.259   0.770   2.916
 2930SOL     OW 9331   3.071   0.525   2.137
 2930SOL    HW1 9332   3.084   0.441   2.191
 2930SOL    HW2 9333   3.042   0.599   2.197
 2931SOL     OW 9334   2.169   0.213   3.093
 2931SOL    HW1 9335   2.146   0.250   3.183
 2931SOL    HW2 9336   2.139   0.118   3.087
 2932SOL     OW 9337   1.899   1.310   3.144
 2932SOL    HW1 9338   1.952   1.261   3.212
 2932SOL    HW2 9339   1.921   1.408   3.149
 2933SOL     OW 9340   2.594   0.634   2.926
 2933SOL    HW1 9341   2.653   0.608   2.850
 2933SOL    HW2 9342   2.566   0.730   2.915
 2934SOL     OW 9343   3.590   0.935   3.716
 2934SOL    HW1 9344   3.544   0.928   3.627
 2934SOL    HW2 9345   3.528   0.979   3.782
 2935SOL     OW 9346   2.169   0.063   2.480
 2935SOL    HW1 9347   2.158   0.157   2.513
 2935SOL    HW2 9348   2.164   0.000   2.557
 2936SOL     OW 9349   3.484   0.367   2.236
 2936SOL    HW1 9350   3.486   0.291   2.300
 2936SOL    HW2 9351   3.436   0.444   2.276
 2937SOL     OW 9352   2.885   0.766   2.828
 2937SOL    HW1 9353   2.900   0.787   2.924
 2937SOL    HW2 9354   2.855   0.671   2.819
 2938SOL     OW 9355   2.842   1.573   3.562
 2938SOL    HW1 9356   2.822   1.617   3.474
 2938SOL    HW2 9357   2.881   1.482   3.546
 2939SOL     OW 9358   3.721   1.518   3.467
 2939SOL    HW1 9359   3.735   1.545   3.372
 2939SOL    HW2 9360   3.804   1.540   3.520
 2940SOL     OW 9361   2.212   0.898   3.666
 2940SOL    HW1 9362   2.288   0.942   3.714
 2940SOL    HW2 9363   2.247   0.851   3.584
 2941SOL     OW 9364   3.402   0.274   1.987
 2941SOL    HW1 9365   3.341   0.199   2.010
 2941SOL    HW2 9366   3.424   0.326   2.070
 2942SOL     OW 9367   3.165   0.838   1.904
 2942SOL    HW1 9368   3.199   0.745   1.919
 2942SOL    HW2 9369   3.183   0.865   1.809
 2943SOL     OW 9370   2.930   1.333   2.711
 2943SOL    HW1 9371   2.937   1.249   2.656
 2943SOL    HW2 9372   2.992   1.402   2.675
 2944SOL     OW 9373   2.181   0.810   2.811
 2944SOL    HW1 9374   2.274   0.846   2.816
 2944SOL    HW2 9375   2.175   0.725   2.863
 2945SOL     OW 9376   2.201   0.509   2.868
 2945SOL    HW1 9377   2.149   0.426   2.851
 2945SOL    HW2 9378   2.278   0.514   2.804
 2946SOL     OW 9379   3.000   0.380   3.540
 2946SOL    HW1 9380   2.955   0.443   3.604
 2946SOL    HW2 9381   3.093   0.411   3.523
 2947SOL     OW 9382   3.022   0.207   3.339
 2947SOL    HW1 9383   3.022   0.271   3.416
 2947SOL    HW2 9384   3.050   0.255   3.256
 2948SOL     OW 9385   1.870   1.326   2.062
 2948SOL    HW1 9386   1.777   1.347   2.031
 2948SOL    HW2 9387   1.880   1.227   2.075
 2949SOL     OW 9388   1.950   1.801   2.789
 2949SOL    HW1 9389   1.908   1.715   2.762
 2949SOL    HW2 9390   2.044   1.804   2.755
 2950SOL     OW 9391   2.366   1.568   2.772
 2950SOL    HW1 9392   2.432   1.642   2.781
 2950SOL    HW2 9393   2.410   1.489   2.730
 2951SOL     OW 9394   2.864   0.796   3.100
 2951SOL    HW1 9395   2.905   0.764   3.186
 2951SOL    HW2 9396   2.768   0.769   3.097
 2952SOL     OW 9397   1.902   0.544   2.976
 2952SOL    HW1 9398   1.987   0.511   2.935
 2952SOL    HW2 9399   1.915   0.559   3.074
 2953SOL     OW 9400   2.051   0.520   3.584
 2953SOL    HW1 9401   2.110   0.480   3.514
 2953SOL    HW2 9402   1.993   0.591   3.543
 2954SOL     OW 9403   3.231   0.950   3.522
 2954SOL    HW1 9404   3.270   1.039   3.542
 2954SOL    HW2 9405   3.241   0.930   3.425
 2955SOL     OW 9406   2.677   0.572   2.187
 2955SOL    HW1 9407   2.684   0.483   2.141
 2955SOL    HW2 9408   2.583   0.606   2.179
 2956SOL     OW 9409   3.519   0.604   3.068
 2956SOL    HW1 9410   3.481   0.535   3.130
 2956SOL    HW2 9411   3.601   0.568   3.024
 2957SOL     OW 9412   2.114   1.564   3.606
 2957SOL    HW1 9413   2.084   1.621   3.682
 2957SOL    HW2 9414   2.107   1.467   3.632
 2958SOL     OW 9415   2.533   0.464   3.131
 2958SOL    HW1 9416   2.499   0.375   3.101
 2958SOL    HW2 9417   2.559   0.518   3.051
 2959SOL     OW 9418   2.792   1.678   3.327
 2959SOL    HW1 9419   2.768   1.660   3.232
 2959SOL    HW2 9420   2.822   1.772   3.337
 2960SOL     OW 9421   2.335   0.500   2.053
 2960SOL    HW1 9422   2.396   0.580   2.057
 2960SOL    HW2 9423   2.240   0.531   2.060
 2961SOL     OW 9424   2.021   1.137   3.328
 2961SOL    HW1 9425   2.043   1.076   3.404
 2961SOL    HW2 9426   2.031   1.088   3.242
 2962SOL     OW 9427   3.209   1.059   3.096
 2962SOL    HW1 9428   3.233   0.996   3.022
 2962SOL    HW2 9429   3.119   1.099   3.078
 2963SOL     OW 9430   3.164   0.855   2.171
 2963SOL    HW1 9431   3.078   0.824   2.213
 2963SOL    HW2 9432   3.160   0.841   2.072
 2964SOL     OW 9433   3.621   1.747   3.016
 2964SOL    HW1 9434   3.682   1.777   2.943
 2964SOL    HW2 9435   3.583   1.658   2.994
 2965SOL     OW 9436   3.114   1.731   2.990
 2965SOL    HW1 9437   3.198   1.736   2.936
 2965SOL    HW2 9438   3.091   1.635   3.008
 2966SOL     OW 9439   1.945   1.258   2.884
 2966SOL    HW1 9440   1.940   1.257   2.984
 2966SOL    HW2 9441   1.862   1.217   2.846
 2967SOL     OW 9442   2.550   1.662   3.578
 2967SOL    HW1 9443   2.494   1.743   3.587
 2967SOL    HW2 9444   2.602   1.666   3.492
 2968SOL     OW 9445   3.588   0.135   2.385
 2968SOL    HW1 9446   3.661   0.118   2.318
 2968SOL    HW2 9447   3.557   0.048   2.423
 2969SOL     OW 9448   3.250   1.573   2.339
 2969SOL    HW1 9449   3.317   1.585   2.265
 2969SOL    HW2 9450   3.210   1.662   2.362
 2970SOL     OW 9451   1.992   1.794   3.713
 2970SOL    HW1 9452   1.951   1.720   3.766
 2970SOL    HW2 9453   2.056   1.845   3.771
 2971SOL     OW 9454   3.142   0.927   2.534
 2971SOL    HW1 9455   3.202   0.846   2.536
 2971SOL    HW2 9456   3.182   0.996   2.474
 2972SOL     OW 9457   2.692   1.273   3.284
 2972SOL    HW1 9458   2.687   1.306   3.379
 2972SOL    HW2 9459   2.606   1.292   3.238
 2973SOL     OW 9460   2.534   1.616   2.016
 2973SOL    HW1 9461   2.543   1.626   1.917
 2973SOL    HW2 9462   2.494   1.527   2.037
 2974SOL     OW 9463   3.512   1.720   3.256
 2974SOL    HW1 9464   3.565   1.730   3.172
 2974SOL    HW2 9465   3.485   1.810   3.290
 2975SOL     OW 9466   3.703   0.175   2.825
 2975SOL    HW1 9467   3.742   0.090   2.789
 2975SOL    HW2 9468   3.605   0.177   2.806
 2976SOL     OW 9469   2.125   0.326   2.582
 2976SOL    HW1 9470   2.046   0.377   2.548
 2976SOL    HW2 9471   2.116   0.311   2.680
 2977SOL     OW 9472   3.056   1.612   1.893
 2977SOL    HW1 9473   3.062   1.519   1.930
 2977SOL    HW2 9474   2.997   1.612   1.813
 2978SOL     OW 9475   2.684   1.002   3.234
 2978SOL    HW1 9476   2.724   1.001   3.142
 2978SOL    HW2 9477   2.694   1.094   3.274
 2979SOL     OW 9478   2.778   0.910   2.153
 2979SOL    HW1 9479   2.841   0.948   2.085
 2979SOL    HW2 9480   2.818   0.827   2.192
 2980SOL     OW 9481   3.366   1.607   1.906
 2980SOL    HW1 9482   3.274   1.644   1.913
 2980SOL    HW2 9483   3.404   1.627   1.816
 2981SOL     OW 9484   2.234   1.288   3.352
 2981SOL    HW1 9485   2.221   1.381   3.318
 2981SOL    HW2 9486   2.150   1.236   3.339
 2982SOL     OW 9487   3.476   1.292   3.151
 2982SOL    HW1 9488   3.536   1.295   3.231
 2982SOL    HW2 9489   3.401   1.356   3.164
 2983SOL     OW 9490   2.901   1.098   2.558
 2983SOL    HW1 9491   2.831   1.051   2.612
 2983SOL    HW2 9492   2.960   1.030   2.515
 2984SOL     OW 9493   2.876   0.236   2.833
 2984SOL    HW1 9494   2.868   0.200   2.740
 2984SOL    HW2 9495   2.874   0.160   2.898
 2985SOL     OW 9496   2.452   1.487   2.353
 2985SOL    HW1 9497   2.494   1.429   2.283
 2985SOL    HW2 9498   2.408   1.566   2.309
 2986SOL     OW 9499   3.571   0.385   3.243
 2986SOL    HW1 9500   3.644   0.454   3.247
 2986SOL    HW2 9501   3.599   0.310   3.184
 2987SOL     OW 9502   2.117   1.348   2.152
 2987SOL    HW1 9503   2.021   1.349   2.125
 2987SOL    HW2 9504   2.129   1.401   2.236
 2988SOL     OW 9505   1.967   1.013   3.588
 2988SOL    HW1 9506   1.890   0.980   3.642
 2988SOL    HW2 9507   2.052   0.983   3.630
 2989SOL     OW 9508   2.534   0.203   3.351
 2989SOL    HW1 9509   2.624   0.187   3.311
 2989SOL    HW2 9510   2.542   0.208   3.450
 2990SOL     OW 9511   1.937   0.345   1.895
 2990SOL    HW1 9512   1.845   0.317   1.866
 2990SOL    HW2 9513   1.968   0.422   1.839
 2991SOL     OW 9514   3.302   0.856   3.260
 2991SOL    HW1 9515   3.245   0.908   3.197
 2991SOL    HW2 9516   3.398   0.868   3.236
 2992SOL     OW 9517   1.934   0.166   2.180
 2992SOL    HW1 9518   1.917   0.249   2.126
 2992SOL    HW2 9519   2.024   0.129   2.158
 2993SOL     OW 9520   3.045   1.335   1.981
 2993SOL    HW1 9521   2.946   1.324   1.983
 2993SOL    HW2 9522   3.079   1.350   2.074
 2994SOL     OW 9523   2.475   0.842   3.293
 2994SOL    HW1 9524   2.531   0.923   3.276
 2994SOL    HW2 9525   2.534   0.762   3.296
 2995SOL     OW 9526   3.355   1.767   2.821
 2995SOL    HW1 9527   3.388   1.831   2.752
 2995SOL    HW2 9528   3.421   1.761   2.896
 2996SOL     OW 9529   2.578   0.565   3.570
 2996SOL    HW1 9530   2.597   0.630   3.644
 2996SOL    HW2 9531   2.638   0.485   3.579
 2997SOL     OW 9532   3.312   1.220   3.495
 2997SOL    HW1 9533   3.303   1.210   3.594
 2997SOL    HW2 9534   3.408   1.213   3.469
 2998SOL     OW 9535   2.252   1.741   3.422
 2998SOL    HW1 9536   2.161   1.782   3.420
 2998SOL    HW2 9537   2.245   1.647   3.454
 2999SOL     OW 9538   3.536   0.883   3.116
 2999SOL    HW1 9539   3.509   0.794   3.079
 2999SOL    HW2 9540   3.537   0.951   3.043
 3000SOL     OW 9541   3.087   0.325   2.311
 3000SOL    HW1 9542   3.152   0.251   2.300
 3000SOL    HW2 9543   3.107   0.375   2.395
 3001SOL     OW 9544   2.456   0.745   2.514
 3001SOL    HW1 9545   2.506   0.830   2.495
 3001SOL    HW2 9546   2.368   0.747   2.466
 3002SOL     OW 9547   3.639   0.342   3.504
 3002SOL    HW1 9548   3.622   0.373   3.410
 3002SOL    HW2 9549   3.555   0.305   3.542
 3003SOL     OW 9550   3.592   0.934   3.379
 3003SOL    HW1 9551   3.630   1.025   3.394
 3003SOL    HW2 9552   3.584   0.917   3.280
 3004SOL     OW 9553   2.721   1.374   1.878
 3004SOL    HW1 9554   2.675   1.389   1.966
 3004SOL    HW2 9555   2.765   1.459   1.848
 3005SOL     OW 9556   2.523   1.790   2.815
 3005SOL    HW1 9557   2.477   1.878   2.802
 3005SOL    HW2 9558   2.622   1.802   2.808
 3006SOL     OW 9559   2.721   0.956   2.723
 3006SOL    HW1 9560   2.775   0.887   2.771
 3006SOL    HW2 9561   2.689   1.025   2.789
 3007SOL     OW 9562   2.945   0.984   1.949
 3007SOL    HW1 9563   2.922   1.037   1.867
 3007SOL    HW2 9564   3.026   0.928   1.930
 3008SOL     OW 9565   3.723   1.569   2.713
 3008SOL    HW1 9566   3.652   1.557   2.643
 3008SOL    HW2 9567   3.724   1.490   2.773
 3009SOL     OW 9568   2.083   1.314   3.706
 3009SOL    HW1 9569   2.018   1.241   3.685
 3009SOL    HW2 9570   2.087   1.328   3.804
 3010SOL     OW 9571   1.941   1.240   2.515
 3010SOL    HW1 9572   1.940   1.193   2.603
 3010SOL    HW2 9573   2.023   1.212   2.464
 3011SOL     OW 9574   2.534   1.391   3.486
 3011SOL    HW1 9575   2.456   1.341   3.524
 3011SOL    HW2 9576   2.531   1.486   3.517
 3012SOL     OW 9577   3.686   0.192   3.089
 3012SOL    HW1 9578   3.682   0.102   3.133
 3012SOL    HW2 9579   3.689   0.181   2.990
 3013SOL     OW 9580   2.290   0.424   2.382
 3013SOL    HW1 9581   2.320   0.352   2.320
 3013SOL    HW2 9582   2.251   0.384   2.465
 3014SOL     OW 9583   3.567   1.487   2.966
 3014SOL    HW1 9584   3.474   1.462   2.939
 3014SOL    HW2 9585   3.593   1.437   3.048
 3015SOL     OW 9586   2.179   0.547   3.142
 3015SOL    HW1 9587   2.217   0.488   3.214
 3015SOL    HW2 9588   2.219   0.521   3.054
 3016SOL     OW 9589   2.674   1.586   2.549
 3016SOL    HW1 9590   2.706   1.596   2.455
 3016SOL    HW2 9591   2.595   1.524   2.551
 3017SOL     OW 9592   3.286   0.214   2.974
 3017SOL    HW1 9593   3.338   0.149   3.029
 3017SOL    HW2 9594   3.237   0.277   3.035
 3018SOL     OW 9595   2.863   0.034   3.016
 3018SOL    HW1 9596   2.800  -0.038   2.985
 3018SOL    HW2 9597   2.956  -0.002   3.016
 3019SOL     OW 9598   2.632   1.330   2.163
 3019SOL    HW1 9599   2.586   1.243   2.180
 3019SOL    HW2 9600   2.723   1.327   2.204
 3020SOL     OW 9601   2.480   1.567   3.146
 3020SOL    HW1 9602   2.475   1.649   3.203
 3020SOL    HW2 9603   2.569   1.564   3.101
 3021SOL     OW 9604   3.214   0.052   2.030
 3021SOL    HW1 9605   3.249   0.011   1.946
 3021SOL    HW2 9606   3.124   0.014   2.050
 3022SOL     OW 9607   3.162   0.453   2.553
 3022SOL    HW1 9608   3.103   0.533   2.557
 3022SOL    HW2 9609   3.177   0.418   2.646
 3023SOL     OW 9610   3.455   0.221   2.744
 3023SOL    HW1 9611   3.371   0.220   2.798
 3023SOL    HW2 9612   3.457   0.304   2.688
 3024SOL     OW 9613   1.901   1.077   2.162
 3024SOL    HW1 9614   2.000   1.066   2.153
 3024SOL    HW2 9615   1.861   0.991   2.194
 3025SOL     OW 9616   2.737   1.646   2.199
 3025SOL    HW1 9617   2.660   1.611   2.145
 3025SOL    HW2 9618   2.705   1.717   2.261
 3026SOL     OW 9619   2.092   0.628   3.837
 3026SOL    HW1 9620   1.999   0.626   3.874
 3026SOL    HW2 9621   2.093   0.589   3.745
 3027SOL     OW 9622   2.087   0.275   4.720
 3027SOL    HW1 9623   2.122   0.258   4.812
 3027SOL    HW2 9624   1.999   0.230   4.708
 3028SOL     OW 9625   1.881   0.368   4.371
 3028SOL    HW1 9626   1.799   0.411   4.410
 3028SOL    HW2 9627   1.853   0.295   4.308
 3029SOL     OW 9628   2.431   1.275   4.889
 3029SOL    HW1 9629   2.338   1.268   4.852
 3029SOL    HW2 9630   2.442   1.364   4.933
 3030SOL     OW 9631   3.417   1.511   4.427
 3030SOL    HW1 9632   3.360   1.495   4.508
 3030SOL    HW2 9633   3.358   1.521   4.347
 3031SOL     OW 9634   2.997   0.703   4.441
 3031SOL    HW1 9635   3.054   0.781   4.416
 3031SOL    HW2 9636   2.937   0.729   4.517
 3032SOL     OW 9637   3.617   0.607   3.955
 3032SOL    HW1 9638   3.605   0.594   3.856
 3032SOL    HW2 9639   3.587   0.526   4.004
 3033SOL     OW 9640   2.630   1.144   4.747
 3033SOL    HW1 9641   2.552   1.161   4.807
 3033SOL    HW2 9642   2.664   1.231   4.711
 3034SOL     OW 9643   2.712   0.798   5.547
 3034SOL    HW1 9644   2.708   0.874   5.612
 3034SOL    HW2 9645   2.734   0.834   5.456
 3035SOL     OW 9646   2.547   1.012   4.389
 3035SOL    HW1 9647   2.616   0.996   4.459
 3035SOL    HW2 9648   2.474   1.069   4.427
 3036SOL     OW 9649   2.548   1.161   5.527
 3036SOL    HW1 9650   2.608   1.240   5.541
 3036SOL    HW2 9651   2.462   1.192   5.486
 3037SOL     OW 9652   2.197   1.435   4.785
 3037SOL    HW1 9653   2.119   1.404   4.732
 3037SOL    HW2 9654   2.255   1.493   4.728
 3038SOL     OW 9655   3.322   1.505   5.063
 3038SOL    HW1 9656   3.346   1.599   5.089
 3038SOL    HW2 9657   3.306   1.451   5.145
 3039SOL     OW 9658   2.300   0.392   5.223
 3039SOL    HW1 9659   2.382   0.336   5.232
 3039SOL    HW2 9660   2.219   0.334   5.227
 3040SOL     OW 9661   3.465   0.447   4.461
 3040SOL    HW1 9662   3.391   0.493   4.411
 3040SOL    HW2 9663   3.516   0.515   4.514
 3041SOL     OW 9664   2.093   1.713   4.207
 3041SOL    HW1 9665   2.127   1.790   4.261
 3041SOL    HW2 9666   2.137   1.713   4.117
 3042SOL     OW 9667   2.989   1.341   5.414
 3042SOL    HW1 9668   3.036   1.341   5.502
 3042SOL    HW2 9669   2.941   1.254   5.403
 3043SOL     OW 9670   2.092   1.434   4.262
 3043SOL    HW1 9671   2.066   1.530   4.262
 3043SOL    HW2 9672   2.021   1.380   4.307
 3044SOL     OW 9673   2.102   1.091   4.610
 3044SOL    HW1 9674   2.116   1.007   4.662
 3044SOL    HW2 9675   2.047   1.155   4.665
 3045SOL     OW 9676   2.482   1.786   5.163
 3045SOL    HW1 9677   2.390   1.769   5.198
 3045SOL    HW2 9678   2.510   1.878   5.189
 3046SOL     OW 9679   2.468   0.964   3.847
 3046SOL    HW1 9680   2.475   1.048   3.793
 3046SOL    HW2 9681   2.514   0.977   3.935
 3047SOL     OW 9682   3.456   0.114   5.204
 3047SOL    HW1 9683   3.438   0.181   5.132
 3047SOL    HW2 9684   3.453   0.160   5.293
 3048SOL     OW 9685   1.984   0.643   4.287
 3048SOL    HW1 9686   1.939   0.555   4.304
 3048SOL    HW2 9687   1.983   0.697   4.371
 3049SOL     OW 9688   3.704   1.767   4.083
 3049SOL    HW1 9689   3.758   1.738   4.163
 3049SOL    HW2 9690   3.734   1.857   4.054
 3050SOL     OW 9691   1.889   1.596   3.841
 3050SOL    HW1 9692   1.870   1.500   3.862
 3050SOL    HW2 9693   1.856   1.654   3.916
 3051SOL     OW 9694   3.551   0.922   4.336
 3051SOL    HW1 9695   3.646   0.893   4.344
 3051SOL    HW2 9696   3.543   0.987   4.261
 3052SOL     OW 9697   3.503   1.108   4.156
 3052SOL    HW1 9698   3.589   1.110   4.104
 3052SOL    HW2 9699   3.517   1.155   4.244
 3053SOL     OW 9700   1.975   0.737   5.321
 3053SOL    HW1 9701   2.063   0.724   5.366
 3053SOL    HW2 9702   1.962   0.834   5.299
 3054SOL     OW 9703   2.475   1.365   4.450
 3054SOL    HW1 9704   2.426   1.278   4.459
 3054SOL    HW2 9705   2.452   1.408   4.363
 3055SOL     OW 9706   3.155   1.228   5.147
 3055SOL    HW1 9707   3.192   1.155   5.089
 3055SOL    HW2 9708   3.207   1.233   5.232
 3056SOL     OW 9709   2.671   0.004   4.226
 3056SOL    HW1 9710   2.711   0.095   4.217
 3056SOL    HW2 9711   2.571   0.012   4.232
 3057SOL     OW 9712   2.059   0.976   4.988
 3057SOL    HW1 9713   2.148   0.931   4.974
 3057SOL    HW2 9714   1.986   0.911   4.969
 3058SOL     OW 9715   3.387   0.999   3.914
 3058SOL    HW1 9716   3.324   0.923   3.927
 3058SOL    HW2 9717   3.435   1.017   4.000
 3059SOL     OW 9718   3.049   1.792   5.340
 3059SOL    HW1 9719   3.073   1.852   5.264
 3059SOL    HW2 9720   3.056   1.697   5.310
 3060SOL     OW 9721   2.179   0.251   5.525
 3060SOL    HW1 9722   2.250   0.322   5.531
 3060SOL    HW2 9723   2.091   0.290   5.553
 3061SOL     OW 9724   3.328   1.417   4.677
 3061SOL    HW1 9725   3.269   1.423   4.757
 3061SOL    HW2 9726   3.313   1.329   4.631
 3062SOL     OW 9727   3.529   1.714   4.296
 3062SOL    HW1 9728   3.488   1.691   4.208
 3062SOL    HW2 9729   3.511   1.640   4.361
 3063SOL     OW 9730   2.460   0.729   3.994
 3063SOL    HW1 9731   2.484   0.798   3.926
 3063SOL    HW2 9732   2.382   0.762   4.048
 3064SOL     OW 9733   3.143   0.345   4.668
 3064SOL    HW1 9734   3.057   0.295   4.655
 3064SOL    HW2 9735   3.205   0.291   4.724
 3065SOL     OW 9736   3.438   1.662   4.031
 3065SOL    HW1 9737   3.527   1.708   4.034
 3065SOL    HW2 9738   3.417   1.638   3.936
 3066SOL     OW 9739   2.669   0.605   5.189
 3066SOL    HW1 9740   2.622   0.602   5.278
 3066SOL    HW2 9741   2.618   0.550   5.123
 3067SOL     OW 9742   3.256   0.469   5.398
 3067SOL    HW1 9743   3.236   0.512   5.486
 3067SOL    HW2 9744   3.334   0.407   5.407
 3068SOL     OW 9745   2.835   0.890   5.296
 3068SOL    HW1 9746   2.881   0.806   5.267
 3068SOL    HW2 9747   2.779   0.924   5.221
 3069SOL     OW 9748   2.853   0.410   4.966
 3069SOL    HW1 9749   2.776   0.444   5.020
 3069SOL    HW2 9750   2.819   0.359   4.887
 3070SOL     OW 9751   2.903   0.701   4.153
 3070SOL    HW1 9752   2.929   0.697   4.249
 3070SOL    HW2 9753   2.818   0.650   4.139
 3071SOL     OW 9754   1.938   0.811   4.513
 3071SOL    HW1 9755   2.037   0.799   4.522
 3071SOL    HW2 9756   1.914   0.906   4.534
 3072SOL     OW 9757   1.992   1.821   5.295
 3072SOL    HW1 9758   1.982   1.806   5.394
 3072SOL    HW2 9759   1.906   1.857   5.259
 3073SOL     OW 9760   2.727   0.348   3.919
 3073SOL    HW1 9761   2.786   0.411   3.870
 3073SOL    HW2 9762   2.746   0.254   3.890
 3074SOL     OW 9763   3.581   0.585   5.555
 3074SOL    HW1 9764   3.555   0.674   5.519
 3074SOL    HW2 9765   3.579   0.517   5.482
 3075SOL     OW 9766   3.224   1.144   4.269
 3075SOL    HW1 9767   3.307   1.115   4.221
 3075SOL    HW2 9768   3.175   1.211   4.213
 3076SOL     OW 9769   2.412   0.196   4.609
 3076SOL    HW1 9770   2.407   0.191   4.709
 3076SOL    HW2 9771   2.414   0.292   4.580
 3077SOL     OW 9772   2.870   1.456   4.201
 3077SOL    HW1 9773   2.824   1.528   4.149
 3077SOL    HW2 9774   2.866   1.476   4.299
 3078SOL     OW 9775   2.213   1.801   4.577
 3078SOL    HW1 9776   2.263   1.715   4.583
 3078SOL    HW2 9777   2.278   1.878   4.574
 3079SOL     OW 9778   3.657   1.066   4.597
 3079SOL    HW1 9779   3.595   1.051   4.521
 3079SOL    HW2 9780   3.605   1.077   4.682
 3080SOL     OW 9781   3.089   1.550   5.230
 3080SOL    HW1 9782   3.095   1.473   5.294
 3080SOL    HW2 9783   3.037   1.524   5.150
 3081SOL     OW 9784   2.183   0.943   3.966
 3081SOL    HW1 9785   2.265   0.982   3.924
 3081SOL    HW2 9786   2.156   0.861   3.917
 3082SOL     OW 9787   3.320   0.735   4.452
 3082SOL    HW1 9788   3.315   0.670   4.527
 3082SOL    HW2 9789   3.400   0.794   4.465
 3083SOL     OW 9790   2.323   1.266   5.451
 3083SOL    HW1 9791   2.273   1.267   5.365
 3083SOL    HW2 9792   2.260   1.248   5.527
 3084SOL     OW 9793   2.973   1.776   3.961
 3084SOL    HW1 9794   2.913   1.714   4.011
 3084SOL    HW2 9795   3.004   1.732   3.876
 3085SOL     OW 9796   2.064   0.285   5.222
 3085SOL    HW1 9797   1.984   0.345   5.209
 3085SOL    HW2 9798   2.054   0.236   5.308
 3086SOL     OW 9799   3.494   1.377   3.805
 3086SOL    HW1 9800   3.462   1.471   3.795
 3086SOL    HW2 9801   3.418   1.314   3.793
 3087SOL     OW 9802   2.326   1.743   4.047
 3087SOL    HW1 9803   2.359   1.782   4.133
 3087SOL    HW2 9804   2.402   1.736   3.982
 3088SOL     OW 9805   3.262   0.107   4.150
 3088SOL    HW1 9806   3.238   0.070   4.060
 3088SOL    HW2 9807   3.361   0.123   4.154
 3089SOL     OW 9808   2.111   1.785   4.965
 3089SOL    HW1 9809   2.168   1.720   5.015
 3089SOL    HW2 9810   2.095   1.752   4.872
 3090SOL     OW 9811   2.802   1.698   4.628
 3090SOL    HW1 9812   2.882   1.641   4.649
 3090SOL    HW2 9813   2.753   1.658   4.551
 3091SOL     OW 9814   2.244   0.700   4.204
 3091SOL    HW1 9815   2.289   0.610   4.201
 3091SOL    HW2 9816   2.150   0.689   4.237
 3092SOL     OW 9817   3.409   0.222   5.453
 3092SOL    HW1 9818   3.404   0.259   5.545
 3092SOL    HW2 9819   3.337   0.153   5.441
 3093SOL     OW 9820   2.476   0.122   3.841
 3093SOL    HW1 9821   2.574   0.100   3.848
 3093SOL    HW2 9822   2.445   0.105   3.748
 3094SOL     OW 9823   2.643   0.264   5.473
 3094SOL    HW1 9824   2.710   0.203   5.516
 3094SOL    HW2 9825   2.570   0.283   5.538
 3095SOL     OW 9826   2.750   1.514   4.919
 3095SOL    HW1 9827   2.727   1.489   4.825
 3095SOL    HW2 9828   2.811   1.445   4.958
 3096SOL     OW 9829   3.213   0.590   5.157
 3096SOL    HW1 9830   3.241   0.547   5.242
 3096SOL    HW2 9831   3.238   0.686   5.158
 3097SOL     OW 9832   2.665   1.402   4.648
 3097SOL    HW1 9833   2.755   1.416   4.606
 3097SOL    HW2 9834   2.594   1.404   4.577
 3098SOL     OW 9835   2.784   0.503   4.623
 3098SOL    HW1 9836   2.759   0.494   4.527
 3098SOL    HW2 9837   2.832   0.421   4.654
 3099SOL     OW 9838   2.401   0.064   4.236
 3099SOL    HW1 9839   2.320   0.065   4.294
 3099SOL    HW2 9840   2.404   0.147   4.181
 3100SOL     OW 9841   3.296   1.188   3.765
 3100SOL    HW1 9842   3.328   1.112   3.822
 3100SOL    HW2 9843   3.204   1.215   3.795
 3101SOL     OW 9844   2.159   0.035   3.895
 3101SOL    HW1 9845   2.208   0.119   3.874
 3101SOL    HW2 9846   2.221  -0.030   3.940
 3102SOL     OW 9847   2.797   0.236   4.204
 3102SOL    HW1 9848   2.749   0.277   4.126
 3102SOL    HW2 9849   2.896   0.234   4.185
 3103SOL     OW 9850   2.938   0.683   5.188
 3103SOL    HW1 9851   2.858   0.622   5.191
 3103SOL    HW2 9852   3.019   0.630   5.164
 3104SOL     OW 9853   3.089   1.570   4.517
 3104SOL    HW1 9854   3.110   1.644   4.452
 3104SOL    HW2 9855   3.157   1.570   4.590
 3105SOL     OW 9856   2.321   1.152   4.465
 3105SOL    HW1 9857   2.250   1.125   4.530
 3105SOL    HW2 9858   2.295   1.124   4.372
 3106SOL     OW 9859   2.894   0.549   3.740
 3106SOL    HW1 9860   2.853   0.631   3.701
 3106SOL    HW2 9861   2.958   0.575   3.813
 3107SOL     OW 9862   1.940   0.556   5.110
 3107SOL    HW1 9863   2.032   0.555   5.069
 3107SOL    HW2 9864   1.934   0.630   5.177
 3108SOL     OW 9865   2.423   0.222   4.871
 3108SOL    HW1 9866   2.461   0.138   4.908
 3108SOL    HW2 9867   2.335   0.241   4.915
 3109SOL     OW 9868   2.728   0.454   4.366
 3109SOL    HW1 9869   2.696   0.526   4.304
 3109SOL    HW2 9870   2.752   0.373   4.313
 3110SOL     OW 9871   2.879   0.039   4.477
 3110SOL    HW1 9872   2.807   0.044   4.408
 3110SOL    HW2 9873   2.855  -0.030   4.546
 3111SOL     OW 9874   3.291   1.173   4.591
 3111SOL    HW1 9875   3.236   1.089   4.584
 3111SOL    HW2 9876   3.317   1.202   4.499
 3112SOL     OW 9877   3.328   0.590   4.716
 3112SOL    HW1 9878   3.298   0.495   4.723
 3112SOL    HW2 9879   3.401   0.606   4.782
 3113SOL     OW 9880   3.719   0.833   4.101
 3113SOL    HW1 9881   3.761   0.769   4.165
 3113SOL    HW2 9882   3.681   0.782   4.023
 3114SOL     OW 9883   2.350   1.385   3.898
 3114SOL    HW1 9884   2.263   1.370   3.945
 3114SOL    HW2 9885   2.333   1.411   3.803
 3115SOL     OW 9886   3.526   1.280   4.381
 3115SOL    HW1 9887   3.625   1.288   4.395
 3115SOL    HW2 9888   3.481   1.364   4.412
 3116SOL     OW 9889   3.252   0.575   3.802
 3116SOL    HW1 9890   3.198   0.554   3.883
 3116SOL    HW2 9891   3.343   0.534   3.811
 3117SOL     OW 9892   2.389   0.256   4.052
 3117SOL    HW1 9893   2.416   0.197   3.977
 3117SOL    HW2 9894   2.389   0.351   4.021
 3118SOL     OW 9895   3.616   1.223   5.312
 3118SOL    HW1 9896   3.707   1.184   5.299
 3118SOL    HW2 9897   3.624   1.319   5.336
 3119SOL     OW 9898   2.926   1.347   5.064
 3119SOL    HW1 9899   2.846   1.324   5.119
 3119SOL    HW2 9900   3.009   1.321   5.113
 3120SOL     OW 9901   3.454   1.629   5.349
 3120SOL    HW1 9902   3.481   1.663   5.259
 3120SOL    HW2 9903   3.533   1.591   5.395
 3121SOL     OW 9904   2.973   1.195   4.824
 3121SOL    HW1 9905   2.933   1.239   4.905
 3121SOL    HW2 9906   2.932   1.232   4.741
 3122SOL     OW 9907   3.500   1.099   4.803
 3122SOL    HW1 9908   3.505   1.180   4.862
 3122SOL    HW2 9909   3.414   1.101   4.752
 3123SOL     OW 9910   2.777   0.089   5.126
 3123SOL    HW1 9911   2.802   0.069   5.031
 3123SOL    HW2 9912   2.849   0.145   5.168
 3124SOL     OW 9913   2.842   1.116   5.443
 3124SOL    HW1 9914   2.743   1.122   5.453
 3124SOL    HW2 9915   2.865   1.036   5.387
 3125SOL     OW 9916   2.567   1.050   4.092
 3125SOL    HW1 9917   2.553   1.057   4.191
 3125SOL    HW2 9918   2.651   0.999   4.074
 3126SOL     OW 9919   2.272   0.813   4.975
 3126SOL    HW1 9920   2.358   0.825   5.025
 3126SOL    HW2 9921   2.230   0.726   5.002
 3127SOL     OW 9922   3.136   0.386   4.986
 3127SOL    HW1 9923   3.157   0.460   5.050
 3127SOL    HW2 9924   3.047   0.403   4.943
 3128SOL     OW 9925   1.926   1.564   5.055
 3128SOL    HW1 9926   1.880   1.646   5.021
 3128SOL    HW2 9927   2.024   1.583   5.064
 3129SOL     OW 9928   2.229   1.100   4.225
 3129SOL    HW1 9929   2.222   1.183   4.169
 3129SOL    HW2 9930   2.233   1.020   4.165
 3130SOL     OW 9931   2.428   0.537   4.589
 3130SOL    HW1 9932   2.440   0.603   4.515
 3130SOL    HW2 9933   2.474   0.571   4.672
 3131SOL     OW 9934   3.114   1.348   4.112
 3131SOL    HW1 9935   3.164   1.425   4.152
 3131SOL    HW2 9936   3.019   1.350   4.144
 3132SOL     OW 9937   3.134   1.445   4.866
 3132SOL    HW1 9938   3.181   1.458   4.953
 3132SOL    HW2 9939   3.068   1.371   4.875
 3133SOL     OW 9940   3.444   0.639   4.196
 3133SOL    HW1 9941   3.413   0.700   4.269
 3133SOL    HW2 9942   3.494   0.691   4.127
 3134SOL     OW 9943   2.216   1.510   5.053
 3134SOL    HW1 9944   2.195   1.466   4.966
 3134SOL    HW2 9945   2.313   1.536   5.056
 3135SOL     OW 9946   2.264   0.751   5.322
 3135SOL    HW1 9947   2.332   0.806   5.275
 3135SOL    HW2 9948   2.304   0.663   5.349
 3136SOL     OW 9949   3.449   0.779   5.394
 3136SOL    HW1 9950   3.357   0.817   5.389
 3136SOL    HW2 9951   3.509   0.826   5.329
 3137SOL     OW 9952   2.875   0.105   5.494
 3137SOL    HW1 9953   2.881   0.190   5.442
 3137SOL    HW2 9954   2.907   0.029   5.437
 3138SOL     OW 9955   2.366   0.050   5.464
 3138SOL    HW1 9956   2.324  -0.007   5.394
 3138SOL    HW2 9957   2.300   0.119   5.496
 3139SOL     OW 9958   2.435   0.870   4.753
 3139SOL    HW1 9959   2.479   0.959   4.744
 3139SOL    HW2 9960   2.372   0.870   4.830
 3140SOL     OW 9961   3.222   0.862   4.769
 3140SOL    HW1 9962   3.147   0.862   4.703
 3140SOL    HW2 9963   3.259   0.770   4.778
 3141SOL     OW 9964   3.071   0.525   3.999
 3141SOL    HW1 9965   3.084   0.441   4.053
 3141SOL    HW2 9966   3.042   0.599   4.059
 3142SOL     OW 9967   2.169   0.213   4.955
 3142SOL    HW1 9968   2.146   0.250   5.045
 3142SOL    HW2 9969   2.139   0.118   4.949
 3143SOL     OW 9970   1.899   1.310   5.006
 3143SOL    HW1 9971   1.952   1.261   5.074
 3143SOL    HW2 9972   1.921   1.408   5.011
 3144SOL     OW 9973   2.594   0.634   4.788
 3144SOL    HW1 9974   2.653   0.608   4.712
 3144SOL    HW2 9975   2.566   0.730   4.777
 3145SOL     OW 9976   3.590   0.935   5.578
 3145SOL    HW1 9977   3.544   0.928   5.489
 3145SOL    HW2 9978   3.528   0.979   5.644
 3146SOL     OW 9979   2.169   0.063   4.342
 3146SOL    HW1 9980   2.158   0.157   4.375
 3146SOL    HW2 9981   2.164   0.000   4.419
 3147SOL     OW 9982   3.484   0.367   4.098
 3147SOL    HW1 9983   3.486   0.291   4.162
 3147SOL    HW2 9984   3.436   0.444   4.138
 3148SOL     OW 9985   2.885   0.766   4.690
 3148SOL    HW1 9986   2.900   0.787   4.786
 3148SOL    HW2 9987   2.855   0.671   4.681
 3149SOL     OW 9988   2.842   1.573   5.424
 3149SOL    HW1 9989   2.822   1.617   5.336
 3149SOL    HW2 9990   2.881   1.482   5.408
 3150SOL     OW 9991   3.721   1.518   5.329
 3150SOL    HW1 9992   3.735   1.545   5.234
 3150SOL    HW2 9993   3.804   1.540   5.382
 3151SOL     OW 9994   2.212   0.898   5.528
 3151SOL    HW1 9995   2.288   0.942   5.576
 3151SOL    HW2 9996   2.247   0.851   5.446
 3152SOL     OW 9997   3.402   0.274   3.849
 3152SOL    HW1 9998   3.341   0.199   3.872
 3152SOL    HW2 9999   3.424   0.326   3.932
 3153SOL     OW10000   3.165   0.838   3.766
 3153SOL    HW110001   3.199   0.745   3.781
 3153SOL    HW210002   3.183   0.865   3.671
 3154SOL     OW10003   2.930   1.333   4.573
 3154SOL    HW110004   2.937   1.249   4.518
 3154SOL    HW210005   2.992   1.402   4.537
 3155SOL     OW10006   2.181   0.810   4.673
 3155SOL    HW110007   2.274   0.846   4.678
 3155SOL    HW210008   2.175   0.725   4.725
 3156SOL     OW10009   2.201   0.509   4.730
 3156SOL    HW110010   2.149   0.426   4.713
 3156SOL    HW210011   2.278   0.514   4.666
 3157SOL     OW10012   3.000   0.380   5.402
 3157SOL    HW110013   2.955   0.443   5.466
 3157SOL    HW210014   3.093   0.411   5.385
 3158SOL     OW10015   3.022   0.207   5.201
 3158SOL    HW110016   3.022   0.271   5.278
 3158SOL    HW210017   3.050   0.255   5.118
 3159SOL     OW10018   1.870   1.326   3.924
 3159SOL    HW110019   1.777   1.347   3.893
 3159SOL    HW210020   1.880   1.227   3.937
 3160SOL     OW10021   1.950   1.801   4.651
 3160SOL    HW110022   1.908   1.715   4.624
 3160SOL    HW210023   2.044   1.804   4.617
 3161SOL     OW10024   2.366   1.568   4.634
 3161SOL    HW110025   2.432   1.642   4.643
 3161SOL    HW210026   2.410   1.489   4.592
 3162SOL     OW10027   2.864   0.796   4.962
 3162SOL    HW110028   2.905   0.764   5.048
 3162SOL    HW210029   2.768   0.769   4.959
 3163SOL     OW10030   1.902   0.544   4.838
 3163SOL    HW110031   1.987   0.511   4.797
 3163SOL    HW210032   1.915   0.559   4.936
 3164SOL     OW10033   2.051   0.520   5.446
 3164SOL    HW110034   2.110   0.480   5.376
 3164SOL    HW210035   1.993   0.591   5.405
 3165SOL     OW10036   3.231   0.950   5.384
 3165SOL    HW110037   3.270   1.039   5.404
 3165SOL    HW210038   3.241   0.930   5.287
 3166SOL     OW10039   2.677   0.572   4.049
 3166SOL    HW110040   2.684   0.483   4.003
 3166SOL    HW210041   2.583   0.606   4.041
 3167SOL     OW10042   3.519   0.604   4.930
 3167SOL    HW110043   3.481   0.535   4.992
 3167SOL    HW210044   3.601   0.568   4.886
 3168SOL     OW10045   2.114   1.564   5.468
 3168SOL    HW110046   2.084   1.621   5.544
 3168SOL    HW210047   2.107   1.467   5.494
 3169SOL     OW10048   2.533   0.464   4.993
 3169SOL    HW110049   2.499   0.375   4.963
 3169SOL    HW210050   2.559   0.518   4.913
 3170SOL     OW10051   2.792   1.678   5.189
 3170SOL    HW110052   2.768   1.660   5.094
 3170SOL    HW210053   2.822   1.772   5.199
 3171SOL     OW10054   2.335   0.500   3.915
 3171SOL    HW110055   2.396   0.580   3.919
 3171SOL    HW210056   2.240   0.531   3.922
 3172SOL     OW10057   2.021   1.137   5.190
 3172SOL    HW110058   2.043   1.076   5.266
 3172SOL    HW210059   2.031   1.088   5.104
 3173SOL     OW10060   3.209   1.059   4.958
 3173SOL    HW110061   3.233   0.996   4.884
 3173SOL    HW210062   3.119   1.099   4.940
 3174SOL     OW10063   3.164   0.855   4.033
 3174SOL    HW110064   3.078   0.824   4.075
 3174SOL    HW210065   3.160   0.841   3.934
 3175SOL     OW10066   3.621   1.747   4.878
 3175SOL    HW110067   3.682   1.777   4.805
 3175SOL    HW210068   3.583   1.658   4.856
 3176SOL     OW10069   3.114   1.731   4.852
 3176SOL    HW110070   3.198   1.736   4.798
 3176SOL    HW210071   3.091   1.635   4.870
 3177SOL     OW10072   1.945   1.258   4.746
 3177SOL    HW110073   1.940   1.257   4.846
 3177SOL    HW210074   1.862   1.217   4.708
 3178SOL     OW10075   2.550   1.662   5.440
 3178SOL    HW110076   2.494   1.743   5.449
 3178SOL    HW210077   2.602   1.666   5.354
 3179SOL     OW10078   3.588   0.135   4.247
 3179SOL    HW110079   3.661   0.118   4.180
 3179SOL    HW210080   3.557   0.048   4.285
 3180SOL     OW10081   3.250   1.573   4.201
 3180SOL    HW110082   3.317   1.585   4.127
 3180SOL    HW210083   3.210   1.662   4.224
 3181SOL     OW10084   1.992   1.794   5.575
 3181SOL    HW110085   1.951   1.720   5.628
 3181SOL    HW210086   2.056   1.845   5.633
 3182SOL     OW10087   3.142   0.927   4.396
 3182SOL    HW110088   3.202   0.846   4.398
 3182SOL    HW210089   3.182   0.996   4.336
 3183SOL     OW10090   2.692   1.273   5.146
 3183SOL    HW110091   2.687   1.306   5.241
 3183SOL    HW210092   2.606   1.292   5.100
 3184SOL     OW10093   2.534   1.616   3.878
 3184SOL    HW110094   2.543   1.626   3.779
 3184SOL    HW210095   2.494   1.527   3.899
 3185SOL     OW10096   3.512   1.720   5.118
 3185SOL    HW110097   3.565   1.730   5.034
 3185SOL    HW210098   3.485   1.810   5.152
 3186SOL     OW10099   3.703   0.175   4.687
 3186SOL    HW110100   3.742   0.090   4.651
 3186SOL    HW210101   3.605   0.177   4.668
 3187SOL     OW10102   2.125   0.326   4.444
 3187SOL    HW110103   2.046   0.377   4.410
 3187SOL    HW210104   2.116   0.311   4.542
 3188SOL     OW10105   3.056   1.612   3.755
 3188SOL    HW110106   3.062   1.519   3.792
 3188SOL    HW210107   2.997   1.612   3.675
 3189SOL     OW10108   2.684   1.002   5.096
 3189SOL    HW110109   2.724   1.001   5.004
 3189SOL    HW210110   2.694   1.094   5.136
 3190SOL     OW10111   2.778   0.910   4.015
 3190SOL    HW110112   2.841   0.948   3.947
 3190SOL    HW210113   2.818   0.827   4.054
 3191SOL     OW10114   3.366   1.607   3.768
 3191SOL    HW110115   3.274   1.644   3.775
 3191SOL    HW210116   3.404   1.627   3.678
 3192SOL     OW10117   2.234   1.288   5.214
 3192SOL    HW110118   2.221   1.381   5.180
 3192SOL    HW210119   2.150   1.236   5.201
 3193SOL     OW10120   3.476   1.292   5.013
 3193SOL    HW110121   3.536   1.295   5.093
 3193SOL    HW210122   3.401   1.356   5.026
 3194SOL     OW10123   2.901   1.098   4.420
 3194SOL    HW110124   2.831   1.051   4.474
 3194SOL    HW210125   2.960   1.030   4.377
 3195SOL     OW10126   2.876   0.236   4.695
 3195SOL    HW110127   2.868   0.200   4.602
 3195SOL    HW210128   2.874   0.160   4.760
 3196SOL     OW10129   2.452   1.487   4.215
 3196SOL    HW110130   2.494   1.429   4.145
 3196SOL    HW210131   2.408   1.566   4.171
 3197SOL     OW10132   3.571   0.385   5.105
 3197SOL    HW110133   3.644   0.454   5.109
 3197SOL    HW210134   3.599   0.310   5.046
 3198SOL     OW10135   2.117   1.348   4.014
 3198SOL    HW110136   2.021   1.349   3.987
 3198SOL    HW210137   2.129   1.401   4.098
 3199SOL     OW10138   1.967   1.013   5.450
 3199SOL    HW110139   1.890   0.980   5.504
 3199SOL    HW210140   2.052   0.983   5.492
 3200SOL     OW10141   2.534   0.203   5.213
 3200SOL    HW110142   2.624   0.187   5.173
 3200SOL    HW210143   2.542   0.208   5.312
 3201SOL     OW10144   1.937   0.345   3.757
 3201SOL    HW110145   1.845   0.317   3.728
 3201SOL    HW210146   1.968   0.422   3.701
 3202SOL     OW10147   3.302   0.856   5.122
 3202SOL    HW110148   3.245   0.908   5.059
 3202SOL    HW210149   3.398   0.868   5.098
 3203SOL     OW10150   1.934   0.166   4.042
 3203SOL    HW110151   1.917   0.249   3.988
 3203SOL    HW210152   2.024   0.129   4.020
 3204SOL     OW10153   3.045   1.335   3.843
 3204SOL    HW110154   2.946   1.324   3.845
 3204SOL    HW210155   3.079   1.350   3.936
 3205SOL     OW10156   2.475   0.842   5.155
 3205SOL    HW110157   2.531   0.923   5.138
 3205SOL    HW210158   2.534   0.762   5.158
 3206SOL     OW10159   3.355   1.767   4.683
 3206SOL    HW110160   3.388   1.831   4.614
 3206SOL    HW210161   3.421   1.761   4.758
 3207SOL     OW10162   2.578   0.565   5.432
 3207SOL    HW110163   2.597   0.630   5.506
 3207SOL    HW210164   2.638   0.485   5.441
 3208SOL     OW10165   3.312   1.220   5.357
 3208SOL    HW110166   3.303   1.210   5.456
 3208SOL    HW210167   3.408   1.213   5.331
 3209SOL     OW10168   2.252   1.741   5.284
 3209SOL    HW110169   2.161   1.782   5.282
 3209SOL    HW210170   2.245   1.647   5.316
 3210SOL     OW10171   3.536   0.883   4.978
 3210SOL    HW110172   3.509   0.794   4.941
 3210SOL    HW210173   3.537   0.951   4.905
 3211SOL     OW10174   3.087   0.325   4.173
 3211SOL    HW110175   3.152   0.251   4.162
 3211SOL    HW210176   3.107   0.375   4.257
 3212SOL     OW10177   2.456   0.745   4.376
 3212SOL    HW110178   2.506   0.830   4.357
 3212SOL    HW210179   2.368   0.747   4.328
 3213SOL     OW10180   3.639   0.342   5.366
 3213SOL    HW110181   3.622   0.373   5.272
 3213SOL    HW210182   3.555   0.305   5.404
 3214SOL     OW10183   3.592   0.934   5.241
 3214SOL    HW110184   3.630   1.025   5.256
 3214SOL    HW210185   3.584   0.917   5.142
 3215SOL     OW10186   2.721   1.374   3.740
 3215SOL    HW110187   2.675   1.389   3.828
 3215SOL    HW210188   2.765   1.459   3.710
 3216SOL     OW10189   2.721   0.956   4.585
 3216SOL    HW110190   2.775   0.887   4.633
 3216SOL    HW210191   2.689   1.025   4.651
 3217SOL     OW10192   2.945   0.984   3.811
 3217SOL    HW110193   2.922   1.037   3.729
 3217SOL    HW210194   3.026   0.928   3.792
 3218SOL     OW10195   3.723   1.569   4.575
 3218SOL    HW110196   3.652   1.557   4.505
 3218SOL    HW210197   3.724   1.490   4.635
 3219SOL     OW10198   2.083   1.314   5.568
 3219SOL    HW110199   2.018   1.241   5.547
 3219SOL    HW210200   2.087   1.328   5.666
 3220SOL     OW10201   1.941   1.240   4.377
 3220SOL    HW110202   1.940   1.193   4.465
 3220SOL    HW210203   2.023   1.212   4.326
 3221SOL     OW10204   2.534   1.391   5.348
 3221SOL    HW110205   2.456   1.341   5.386
 3221SOL    HW210206   2.531   1.486   5.379
 3222SOL     OW10207   3.686   0.192   4.951
 3222SOL    HW110208   3.682   0.102   4.995
 3222SOL    HW210209   3.689   0.181   4.852
 3223SOL     OW10210   2.290   0.424   4.244
 3223SOL    HW110211   2.320   0.352   4.182
 3223SOL    HW210212   2.251   0.384   4.327
 3224SOL     OW10213   3.567   1.487   4.828
 3224SOL    HW110214   3.474   1.462   4.801
 3224SOL    HW210215   3.593   1.437   4.910
 3225SOL     OW10216   2.179   0.547   5.004
 3225SOL    HW110217   2.217   0.488   5.076
 3225SOL    HW210218   2.219   0.521   4.916
 3226SOL     OW10219   2.674   1.586   4.411
 3226SOL    HW110220   2.706   1.596   4.317
 3226SOL    HW210221   2.595   1.524   4.413
 3227SOL     OW10222   3.286   0.214   4.836
 3227SOL    HW110223   3.338   0.149   4.891
 3227SOL    HW210224   3.237   0.277   4.897
 3228SOL     OW10225   2.863   0.034   4.878
 3228SOL    HW110226   2.800  -0.038   4.847
 3228SOL    HW210227   2.956  -0.002   4.878
 3229SOL     OW10228   2.632   1.330   4.025
 3229SOL    HW110229   2.586   1.243   4.042
 3229SOL    HW210230   2.723   1.327   4.066
 3230SOL     OW10231   2.480   1.567   5.008
 3230SOL    HW110232   2.475   1.649   5.065
 3230SOL    HW210233   2.569   1.564   4.963
 3231SOL     OW10234   3.214   0.052   3.892
 3231SOL    HW110235   3.249   0.011   3.808
 3231SOL    HW210236   3.124   0.014   3.912
 3232SOL     OW10237   3.162   0.453   4.415
 3232SOL    HW110238   3.103   0.533   4.419
 3232SOL    HW210239   3.177   0.418   4.508
 3233SOL     OW10240   3.455   0.221   4.606
 3233SOL    HW110241   3.371   0.220   4.660
 3233SOL    HW210242   3.457   0.304   4.550
 3234SOL     OW10243   1.901   1.077   4.024
 3234SOL    HW110244   2.000   1.066   4.015
 3234SOL    HW210245   1.861   0.991   4.056
 3235SOL     OW10246   2.737   1.646   4.061
 3235SOL    HW110247   2.660   1.611   4.007
 3235SOL    HW210248   2.705   1.717   4.123
 3236SOL     OW10249   2.092   0.628   5.699
 3236SOL    HW110250   1.999   0.626   5.736
 3236SOL    HW210251   2.093   0.589   5.607
 3237SOL     OW10252   2.087   0.275   6.582
 3237SOL    HW110253   2.122   0.258   6.674
 3237SOL    HW210254   1.999   0.230   6.570
 3238SOL     OW10255   1.881   0.368   6.233
 3238SOL    HW110256   1.799   0.411   6.272
 3238SOL    HW210257   1.853   0.295   6.170
 3239SOL     OW10258   2.431   1.275   6.751
 3239SOL    HW110259   2.338   1.268   6.714
 3239SOL    HW210260   2.442   1.364   6.795
 3240SOL     OW10261   3.417   1.511   6.289
 3240SOL    HW110262   3.360   1.495   6.370
 3240SOL    HW210263   3.358   1.521   6.209
 3241SOL     OW10264   2.997   0.703   6.303
 3241SOL    HW110265   3.054   0.781   6.278
 3241SOL    HW210266   2.937   0.729   6.379
 3242SOL     OW10267   3.617   0.607   5.817
 3242SOL    HW110268   3.605   0.594   5.718
 3242SOL    HW210269   3.587   0.526   5.866
 3243SOL     OW10270   2.630   1.144   6.609
 3243SOL    HW110271   2.552   1.161   6.669
 3243SOL    HW210272   2.664   1.231   6.573
 3244SOL     OW10273   2.712   0.798   7.409
 3244SOL    HW110274   2.708   0.874   7.474
 3244SOL    HW210275   2.734   0.834   7.318
 3245SOL     OW10276   2.547   1.012   6.251
 3245SOL    HW110277   2.616   0.996   6.321
 3245SOL    HW210278   2.474   1.069   6.289
 3246SOL     OW10279   2.548   1.161   7.389
 3246SOL    HW110280   2.608   1.240   7.403
 3246SOL    HW210281   2.462   1.192   7.348
 3247SOL     OW10282   2.197   1.435   6.647
 3247SOL    HW110283   2.119   1.404   6.594
 3247SOL    HW210284   2.255   1.493   6.590
 3248SOL     OW10285   3.322   1.505   6.925
 3248SOL    HW110286   3.346   1.599   6.951
 3248SOL    HW210287   3.306   1.451   7.007
 3249SOL     OW10288   2.300   0.392   7.085
 3249SOL    HW110289   2.382   0.336   7.094
 3249SOL    HW210290   2.219   0.334   7.089
 3250SOL     OW10291   3.465   0.447   6.323
 3250SOL    HW110292   3.391   0.493   6.273
 3250SOL    HW210293   3.516   0.515   6.376
 3251SOL     OW10294   2.093   1.713   6.069
 3251SOL    HW110295   2.127   1.790   6.123
 3251SOL    HW210296   2.137   1.713   5.979
 3252SOL     OW10297   2.989   1.341   7.276
 3252SOL    HW110298   3.036   1.341   7.364
 3252SOL    HW210299   2.941   1.254   7.265
 3253SOL     OW10300   2.092   1.434   6.124
 3253SOL    HW110301   2.066   1.530   6.124
 3253SOL    HW210302   2.021   1.380   6.169
 3254SOL     OW10303   2.102   1.091   6.472
 3254SOL    HW110304   2.116   1.007   6.524
 3254SOL    HW210305   2.047   1.155   6.527
 3255SOL     OW10306   2.482   1.786   7.025
 3255SOL    HW110307   2.390   1.769   7.060
 3255SOL    HW210308   2.510   1.878   7.051
 3256SOL     OW10309   2.468   0.964   5.709
 3256SOL    HW110310   2.475   1.048   5.655
 3256SOL    HW210311   2.514   0.977   5.797
 3257SOL     OW10312   3.456   0.114   7.066
 3257SOL    HW110313   3.438   0.181   6.994
 3257SOL    HW210314   3.453   0.160   7.155
 3258SOL     OW10315   1.984   0.643   6.149
 3258SOL    HW110316   1.939   0.555   6.166
 3258SOL    HW210317   1.983   0.697   6.233
 3259SOL     OW10318   3.704   1.767   5.945
 3259SOL    HW110319   3.758   1.738   6.025
 3259SOL    HW210320   3.734   1.857   5.916
 3260SOL     OW10321   1.889   1.596   5.703
 3260SOL    HW110322   1.870   1.500   5.724
 3260SOL    HW210323   1.856   1.654   5.778
 3261SOL     OW10324   3.551   0.922   6.198
 3261SOL    HW110325   3.646   0.893   6.206
 3261SOL    HW210326   3.543   0.987   6.123
 3262SOL     OW10327   3.503   1.108   6.018
 3262SOL    HW110328   3.589   1.110   5.966
 3262SOL    HW210329   3.517   1.155   6.106
 3263SOL     OW10330   1.975   0.737   7.183
 3263SOL    HW110331   2.063   0.724   7.228
 3263SOL    HW210332   1.962   0.834   7.161
 3264SOL     OW10333   2.475   1.365   6.312
 3264SOL    HW110334   2.426   1.278   6.321
 3264SOL    HW210335   2.452   1.408   6.225
 3265SOL     OW10336   3.155   1.228   7.009
 3265SOL    HW110337   3.192   1.155   6.951
 3265SOL    HW210338   3.207   1.233   7.094
 3266SOL     OW10339   2.671   0.004   6.088
 3266SOL    HW110340   2.711   0.095   6.079
 3266SOL    HW210341   2.571   0.012   6.094
 3267SOL     OW10342   2.059   0.976   6.850
 3267SOL    HW110343   2.148   0.931   6.836
 3267SOL    HW210344   1.986   0.911   6.831
 3268SOL     OW10345   3.387   0.999   5.776
 3268SOL    HW110346   3.324   0.923   5.789
 3268SOL    HW210347   3.435   1.017   5.862
 3269SOL     OW10348   3.049   1.792   7.202
 3269SOL    HW110349   3.073   1.852   7.126
 3269SOL    HW210350   3.056   1.697   7.172
 3270SOL     OW10351   2.179   0.251   7.387
 3270SOL    HW110352   2.250   0.322   7.393
 3270SOL    HW210353   2.091   0.290   7.415
 3271SOL     OW10354   3.328   1.417   6.539
 3271SOL    HW110355   3.269   1.423   6.619
 3271SOL    HW210356   3.313   1.329   6.493
 3272SOL     OW10357   3.529   1.714   6.158
 3272SOL    HW110358   3.488   1.691   6.070
 3272SOL    HW210359   3.511   1.640   6.223
 3273SOL     OW10360   2.460   0.729   5.856
 3273SOL    HW110361   2.484   0.798   5.788
 3273SOL    HW210362   2.382   0.762   5.910
 3274SOL     OW10363   3.143   0.345   6.530
 3274SOL    HW110364   3.057   0.295   6.517
 3274SOL    HW210365   3.205   0.291   6.586
 3275SOL     OW10366   3.438   1.662   5.893
 3275SOL    HW110367   3.527   1.708   5.896
 3275SOL    HW210368   3.417   1.638   5.798
 3276SOL     OW10369   2.669   0.605   7.051
 3276SOL    HW110370   2.622   0.602   7.140
 3276SOL    HW210371   2.618   0.550   6.985
 3277SOL     OW10372   3.256   0.469   7.260
 3277SOL    HW110373   3.236   0.512   7.348
 3277SOL    HW210374   3.334   0.407   7.269
 3278SOL     OW10375   2.835   0.890   7.158
 3278SOL    HW110376   2.881   0.806   7.129
 3278SOL    HW210377   2.779   0.924   7.083
 3279SOL     OW10378   2.853   0.410   6.828
 3279SOL    HW110379   2.776   0.444   6.882
 3279SOL    HW210380   2.819   0.359   6.749
 3280SOL     OW10381   2.903   0.701   6.015
 3280SOL    HW110382   2.929   0.697   6.111
 3280SOL    HW210383   2.818   0.650   6.001
 3281SOL     OW10384   1.938   0.811   6.375
 3281SOL    HW110385   2.037   0.799   6.384
 3281SOL    HW210386   1.914   0.906   6.396
 3282SOL     OW10387   1.992   1.821   7.157
 3282SOL    HW110388   1.982   1.806   7.256
 3282SOL    HW210389   1.906   1.857   7.121
 3283SOL     OW10390   2.727   0.348   5.781
 3283SOL    HW110391   2.786   0.411   5.732
 3283SOL    HW210392   2.746   0.254   5.752
 3284SOL     OW10393   3.581   0.585   7.417
 3284SOL    HW110394   3.555   0.674   7.381
 3284SOL    HW210395   3.579   0.517   7.344
 3285SOL     OW10396   3.224   1.144   6.131
 3285SOL    HW110397   3.307   1.115   6.083
 3285SOL    HW210398   3.175   1.211   6.075
 3286SOL     OW10399   2.412   0.196   6.471
 3286SOL    HW110400   2.407   0.191   6.571
 3286SOL    HW210401   2.414   0.292   6.442
 3287SOL     OW10402   2.870   1.456   6.063
 3287SOL    HW110403   2.824   1.528   6.011
 3287SOL    HW210404   2.866   1.476   6.161
 3288SOL     OW10405   2.213   1.801   6.439
 3288SOL    HW110406   2.263   1.715   6.445
 3288SOL    HW210407   2.278   1.878   6.436
 3289SOL     OW10408   3.657   1.066   6.459
 3289SOL    HW110409   3.595   1.051   6.383
 3289SOL    HW210410   3.605   1.077   6.544
 3290SOL     OW10411   3.089   1.550   7.092
 3290SOL    HW110412   3.095   1.473   7.156
 3290SOL    HW210413   3.037   1.524   7.012
 3291SOL     OW10414   2.183   0.943   5.828
 3291SOL    HW110415   2.265   0.982   5.786
 3291SOL    HW210416   2.156   0.861   5.779
 3292SOL     OW10417   3.320   0.735   6.314
 3292SOL    HW110418   3.315   0.670   6.389
 3292SOL    HW210419   3.400   0.794   6.327
 3293SOL     OW10420   2.323   1.266   7.313
 3293SOL    HW110421   2.273   1.267   7.227
 3293SOL    HW210422   2.260   1.248   7.389
 3294SOL     OW10423   2.973   1.776   5.823
 3294SOL    HW110424   2.913   1.714   5.873
 3294SOL    HW210425   3.004   1.732   5.738
 3295SOL     OW10426   2.064   0.285   7.084
 3295SOL    HW110427   1.984   0.345   7.071
 3295SOL    HW210428   2.054   0.236   7.170
 3296SOL     OW10429   3.494   1.377   5.667
 3296SOL    HW110430   3.462   1.471   5.657
 3296SOL    HW210431   3.418   1.314   5.655
 3297SOL     OW10432   2.326   1.743   5.909
 3297SOL    HW110433   2.359   1.782   5.995
 3297SOL    HW210434   2.402   1.736   5.844
 3298SOL     OW10435   3.262   0.107   6.012
 3298SOL    HW110436   3.238   0.070   5.922
 3298SOL    HW210437   3.361   0.123   6.016
 3299SOL     OW10438   2.111   1.785   6.827
 3299SOL    HW110439   2.168   1.720   6.877
 3299SOL    HW210440   2.095   1.752   6.734
 3300SOL     OW10441   2.802   1.698   6.490
 3300SOL    HW110442   2.882   1.641   6.511
 3300SOL    HW210443   2.753   1.658   6.413
 3301SOL     OW10444   2.244   0.700   6.066
 3301SOL    HW110445   2.289   0.610   6.063
 3301SOL    HW210446   2.150   0.689   6.099
 3302SOL     OW10447   3.409   0.222   7.315
 3302SOL    HW110448   3.404   0.259   7.407
 3302SOL    HW210449   3.337   0.153   7.303
 3303SOL     OW10450   2.476   0.122   5.703
 3303SOL    HW110451   2.574   0.100   5.710
 3303SOL    HW210452   2.445   0.105   5.610
 3304SOL     OW10453   2.643   0.264   7.335
 3304SOL    HW110454   2.710   0.203   7.378
 3304SOL    HW210455   2.570   0.283   7.400
 3305SOL     OW10456   2.750   1.514   6.781
 3305SOL    HW110457   2.727   1.489   6.687
 3305SOL    HW210458   2.811   1.445   6.820
 3306SOL     OW10459   3.213   0.590   7.019
 3306SOL    HW110460   3.241   0.547   7.104
 3306SOL    HW210461   3.238   0.686   7.020
 3307SOL     OW10462   2.665   1.402   6.510
 3307SOL    HW110463   2.755   1.416   6.468
 3307SOL    HW210464   2.594   1.404   6.439
 3308SOL     OW10465   2.784   0.503   6.485
 3308SOL    HW110466   2.759   0.494   6.389
 3308SOL    HW210467   2.832   0.421   6.516
 3309SOL     OW10468   2.401   0.064   6.098
 3309SOL    HW110469   2.320   0.065   6.156
 3309SOL    HW210470   2.404   0.147   6.043
 3310SOL     OW10471   3.296   1.188   5.627
 3310SOL    HW110472   3.328   1.112   5.684
 3310SOL    HW210473   3.204   1.215   5.657
 3311SOL     OW10474   2.159   0.035   5.757
 3311SOL    HW110475   2.208   0.119   5.736
 3311SOL    HW210476   2.221  -0.030   5.802
 3312SOL     OW10477   2.797   0.236   6.066
 3312SOL    HW110478   2.749   0.277   5.988
 3312SOL    HW210479   2.896   0.234   6.047
 3313SOL     OW10480   2.938   0.683   7.050
 3313SOL    HW110481   2.858   0.622   7.053
 3313SOL    HW210482   3.019   0.630   7.026
 3314SOL     OW10483   3.089   1.570   6.379
 3314SOL    HW110484   3.110   1.644   6.314
 3314SOL    HW210485   3.157   1.570   6.452
 3315SOL     OW10486   2.321   1.152   6.327
 3315SOL    HW110487   2.250   1.125   6.392
 3315SOL    HW210488   2.295   1.124   6.234
 3316SOL     OW10489   3.133   1.797   6.177
 3316SOL    HW110490   3.177   1.861   6.113
 3316SOL    HW210491   3.083   1.849   6.247
 3317SOL     OW10492   2.894   0.549   5.602
 3317SOL    HW110493   2.853   0.631   5.563
 3317SOL    HW210494   2.958   0.575   5.675
 3318SOL     OW10495   1.940   0.556   6.972
 3318SOL    HW110496   2.032   0.555   6.931
 3318SOL    HW210497   1.934   0.630   7.039
 3319SOL     OW10498   2.423   0.222   6.733
 3319SOL    HW110499   2.461   0.138   6.770
 3319SOL    HW210500   2.335   0.241   6.777
 3320SOL     OW10501   2.728   0.454   6.228
 3320SOL    HW110502   2.696   0.526   6.166
 3320SOL    HW210503   2.752   0.373   6.175
 3321SOL     OW10504   2.879   0.039   6.339
 3321SOL    HW110505   2.807   0.044   6.270
 3321SOL    HW210506   2.855  -0.030   6.408
 3322SOL     OW10507   3.291   1.173   6.453
 3322SOL    HW110508   3.236   1.089   6.446
 3322SOL    HW210509   3.317   1.202   6.361
 3323SOL     OW10510   3.328   0.590   6.578
 3323SOL    HW110511   3.298   0.495   6.585
 3323SOL    HW210512   3.401   0.606   6.644
 3324SOL     OW10513   3.719   0.833   5.963
 3324SOL    HW110514   3.761   0.769   6.027
 3324SOL    HW210515   3.681   0.782   5.885
 3325SOL     OW10516   2.350   1.385   5.760
 3325SOL    HW110517   2.263   1.370   5.807
 3325SOL    HW210518   2.333   1.411   5.665
 3326SOL     OW10519   3.526   1.280   6.243
 3326SOL    HW110520   3.625   1.288   6.257
 3326SOL    HW210521   3.481   1.364   6.274
 3327SOL     OW10522   3.252   0.575   5.664
 3327SOL    HW110523   3.198   0.554   5.745
 3327SOL    HW210524   3.343   0.534   5.673
 3328SOL     OW10525   2.389   0.256   5.914
 3328SOL    HW110526   2.416   0.197   5.839
 3328SOL    HW210527   2.389   0.351   5.883
 3329SOL     OW10528   3.616   1.223   7.174
 3329SOL    HW110529   3.707   1.184   7.161
 3329SOL    HW210530   3.624   1.319   7.198
 3330SOL     OW10531   2.926   1.347   6.926
 3330SOL    HW110532   2.846   1.324   6.981
 3330SOL    HW210533   3.009   1.321   6.975
 3331SOL     OW10534   3.454   1.629   7.211
 3331SOL    HW110535   3.481   1.663   7.121
 3331SOL    HW210536   3.533   1.591   7.257
 3332SOL     OW10537   2.973   1.195   6.686
 3332SOL    HW110538   2.933   1.239   6.767
 3332SOL    HW210539   2.932   1.232   6.603
 3333SOL     OW10540   3.500   1.099   6.665
 3333SOL    HW110541   3.505   1.180   6.724
 3333SOL    HW210542   3.414   1.101   6.614
 3334SOL     OW10543   2.777   0.089   6.988
 3334SOL    HW110544   2.802   0.069   6.893
 3334SOL    HW210545   2.849   0.145   7.030
 3335SOL     OW10546   2.842   1.116   7.305
 3335SOL    HW110547   2.743   1.122   7.315
 3335SOL    HW210548   2.865   1.036   7.249
 3336SOL     OW10549   2.567   1.050   5.954
 3336SOL    HW110550   2.553   1.057   6.053
 3336SOL    HW210551   2.651   0.999   5.936
 3337SOL     OW10552   2.272   0.813   6.837
 3337SOL    HW110553   2.358   0.825   6.887
 3337SOL    HW210554   2.230   0.726   6.864
 3338SOL     OW10555   3.136   0.386   6.848
 3338SOL    HW110556   3.157   0.460   6.912
 3338SOL    HW210557   3.047   0.403   6.805
 3339SOL     OW10558   1.926   1.564   6.917
 3339SOL    HW110559   1.880   1.646   6.883
 3339SOL    HW210560   2.024   1.583   6.926
 3340SOL     OW10561   2.229   1.100   6.087
 3340SOL    HW110562   2.222   1.183   6.031
 3340SOL    HW210563   2.233   1.020   6.027
 3341SOL     OW10564   2.428   0.537   6.451
 3341SOL    HW110565   2.440   0.603   6.377
 3341SOL    HW210566   2.474   0.571   6.534
 3342SOL     OW10567   3.114   1.348   5.974
 3342SOL    HW110568   3.164   1.425   6.014
 3342SOL    HW210569   3.019   1.350   6.006
 3343SOL     OW10570   3.134   1.445   6.728
 3343SOL    HW110571   3.181   1.458   6.815
 3343SOL    HW210572   3.068   1.371   6.737
 3344SOL     OW10573   3.444   0.639   6.058
 3344SOL    HW110574   3.413   0.700   6.131
 3344SOL    HW210575   3.494   0.691   5.989
 3345SOL     OW10576   2.216   1.510   6.915
 3345SOL    HW110577   2.195   1.466   6.828
 3345SOL    HW210578   2.313   1.536   6.918
 3346SOL     OW10579   2.264   0.751   7.184
 3346SOL    HW110580   2.332   0.806   7.137
 3346SOL    HW210581   2.304   0.663   7.211
 3347SOL     OW10582   3.449   0.779   7.256
 3347SOL    HW110583   3.357   0.817   7.251
 3347SOL    HW210584   3.509   0.826   7.191
 3348SOL     OW10585   2.875   0.105   7.356
 3348SOL    HW110586   2.881   0.190   7.304
 3348SOL    HW210587   2.907   0.029   7.299
 3349SOL     OW10588   2.366   0.050   7.326
 3349SOL    HW110589   2.324  -0.007   7.256
 3349SOL    HW210590   2.300   0.119   7.358
 3350SOL     OW10591   2.435   0.870   6.615
 3350SOL    HW110592   2.479   0.959   6.606
 3350SOL    HW210593   2.372   0.870   6.692
 3351SOL     OW10594   3.222   0.862   6.631
 3351SOL    HW110595   3.147   0.862   6.565
 3351SOL    HW210596   3.259   0.770   6.640
 3352SOL     OW10597   3.071   0.525   5.861
 3352SOL    HW110598   3.084   0.441   5.915
 3352SOL    HW210599   3.042   0.599   5.921
 3353SOL     OW10600   2.169   0.213   6.817
 3353SOL    HW110601   2.146   0.250   6.907
 3353SOL    HW210602   2.139   0.118   6.811
 3354SOL     OW10603   1.899   1.310   6.868
 3354SOL    HW110604   1.952   1.261   6.936
 3354SOL    HW210605   1.921   1.408   6.873
 3355SOL     OW10606   2.594   0.634   6.650
 3355SOL    HW110607   2.653   0.608   6.574
 3355SOL    HW210608   2.566   0.730   6.639
 3356SOL     OW10609   3.590   0.935   7.440
 3356SOL    HW110610   3.544   0.928   7.351
 3356SOL    HW210611   3.528   0.979   7.506
 3357SOL     OW10612   2.169   0.063   6.204
 3357SOL    HW110613   2.158   0.157   6.237
 3357SOL    HW210614   2.164   0.000   6.281
 3358SOL     OW10615   3.484   0.367   5.960
 3358SOL    HW110616   3.486   0.291   6.024
 3358SOL    HW210617   3.436   0.444   6.000
 3359SOL     OW10618   2.885   0.766   6.552
 3359SOL    HW110619   2.900   0.787   6.648
 3359SOL    HW210620   2.855   0.671   6.543
 3360SOL     OW10621   2.842   1.573   7.286
 3360SOL    HW110622   2.822   1.617   7.198
 3360SOL    HW210623   2.881   1.482   7.270
 3361SOL     OW10624   3.721   1.518   7.191
 3361SOL    HW110625   3.735   1.545   7.096
 3361SOL    HW210626   3.804   1.540   7.244
 3362SOL     OW10627   2.212   0.898   7.390
 3362SOL    HW110628   2.288   0.942   7.438
 3362SOL    HW210629   2.247   0.851   7.308
 3363SOL     OW10630   3.402   0.274   5.711
 3363SOL    HW110631   3.341   0.199   5.734
 3363SOL    HW210632   3.424   0.326   5.794
 3364SOL     OW10633   3.165   0.838   5.628
 3364SOL    HW110634   3.199   0.745   5.643
 3364SOL    HW210635   3.183   0.865   5.533
 3365SOL     OW10636   2.930   1.333   6.435
 3365SOL    HW110637   2.937   1.249   6.380
 3365SOL    HW210638   2.992   1.402   6.399
 3366SOL     OW10639   2.181   0.810   6.535
 3366SOL    HW110640   2.274   0.846   6.540
 3366SOL    HW210641   2.175   0.725   6.587
 3367SOL     OW10642   2.201   0.509   6.592
 3367SOL    HW110643   2.149   0.426   6.575
 3367SOL    HW210644   2.278   0.514   6.528
 3368SOL     OW10645   3.000   0.380   7.264
 3368SOL    HW110646   2.955   0.443   7.328
 3368SOL    HW210647   3.093   0.411   7.247
 3369SOL     OW10648   3.022   0.207   7.063
 3369SOL    HW110649   3.022   0.271   7.140
 3369SOL    HW210650   3.050   0.255   6.980
 3370SOL     OW10651   1.870   1.326   5.786
 3370SOL    HW110652   1.777   1.347   5.755
 3370SOL    HW210653   1.880   1.227   5.799
 3371SOL     OW10654   1.950   1.801   6.513
 3371SOL    HW110655   1.908   1.715   6.486
 3371SOL    HW210656   2.044   1.804   6.479
 3372SOL     OW10657   2.366   1.568   6.496
 3372SOL    HW110658   2.432   1.642   6.505
 3372SOL    HW210659   2.410   1.489   6.454
 3373SOL     OW10660   2.864   0.796   6.824
 3373SOL    HW110661   2.905   0.764   6.910
 3373SOL    HW210662   2.768   0.769   6.821
 3374SOL     OW10663   1.902   0.544   6.700
 3374SOL    HW110664   1.987   0.511   6.659
 3374SOL    HW210665   1.915   0.559   6.798
 3375SOL     OW10666   2.051   0.520   7.308
 3375SOL    HW110667   2.110   0.480   7.238
 3375SOL    HW210668   1.993   0.591   7.267
 3376SOL     OW10669   3.231   0.950   7.246
 3376SOL    HW110670   3.270   1.039   7.266
 3376SOL    HW210671   3.241   0.930   7.149
 3377SOL     OW10672   2.677   0.572   5.911
 3377SOL    HW110673   2.684   0.483   5.865
 3377SOL    HW210674   2.583   0.606   5.903
 3378SOL     OW10675   3.519   0.604   6.792
 3378SOL    HW110676   3.481   0.535   6.854
 3378SOL    HW210677   3.601   0.568   6.748
 3379SOL     OW10678   2.114   1.564   7.330
 3379SOL    HW110679   2.084   1.621   7.406
 3379SOL    HW210680   2.107   1.467   7.356
 3380SOL     OW10681   2.533   0.464   6.855
 3380SOL    HW110682   2.499   0.375   6.825
 3380SOL    HW210683   2.559   0.518   6.775
 3381SOL     OW10684   2.792   1.678   7.051
 3381SOL    HW110685   2.768   1.660   6.956
 3381SOL    HW210686   2.822   1.772   7.061
 3382SOL     OW10687   2.335   0.500   5.777
 3382SOL    HW110688   2.396   0.580   5.781
 3382SOL    HW210689   2.240   0.531   5.784
 3383SOL     OW10690   2.021   1.137   7.052
 3383SOL    HW110691   2.043   1.076   7.128
 3383SOL    HW210692   2.031   1.088   6.966
 3384SOL     OW10693   3.209   1.059   6.820
 3384SOL    HW110694   3.233   0.996   6.746
 3384SOL    HW210695   3.119   1.099   6.802
 3385SOL     OW10696   3.164   0.855   5.895
 3385SOL    HW110697   3.078   0.824   5.937
 3385SOL    HW210698   3.160   0.841   5.796
 3386SOL     OW10699   3.621   1.747   6.740
 3386SOL    HW110700   3.682   1.777   6.667
 3386SOL    HW210701   3.583   1.658   6.718
 3387SOL     OW10702   3.114   1.731   6.714
 3387SOL    HW110703   3.198   1.736   6.660
 3387SOL    HW210704   3.091   1.635   6.732
 3388SOL     OW10705   1.945   1.258   6.608
 3388SOL    HW110706   1.940   1.257   6.708
 3388SOL    HW210707   1.862   1.217   6.570
 3389SOL     OW10708   2.550   1.662   7.302
 3389SOL    HW110709   2.494   1.743   7.311
 3389SOL    HW210710   2.602   1.666   7.216
 3390SOL     OW10711   3.588   0.135   6.109
 3390SOL    HW110712   3.661   0.118   6.042
 3390SOL    HW210713   3.557   0.048   6.147
 3391SOL     OW10714   3.250   1.573   6.063
 3391SOL    HW110715   3.317   1.585   5.989
 3391SOL    HW210716   3.210   1.662   6.086
 3392SOL     OW10717   1.992   1.794   7.437
 3392SOL    HW110718   1.951   1.720   7.490
 3392SOL    HW210719   2.056   1.845   7.495
 3393SOL     OW10720   3.142   0.927   6.258
 3393SOL    HW110721   3.202   0.846   6.260
 3393SOL    HW210722   3.182   0.996   6.198
 3394SOL     OW10723   2.692   1.273   7.008
 3394SOL    HW110724   2.687   1.306   7.103
 3394SOL    HW210725   2.606   1.292   6.962
 3395SOL     OW10726   2.534   1.616   5.740
 3395SOL    HW110727   2.543   1.626   5.641
 3395SOL    HW210728   2.494   1.527   5.761
 3396SOL     OW10729   3.512   1.720   6.980
 3396SOL    HW110730   3.565   1.730   6.896
 3396SOL    HW210731   3.485   1.810   7.014
 3397SOL     OW10732   3.703   0.175   6.549
 3397SOL    HW110733   3.742   0.090   6.513
 3397SOL    HW210734   3.605   0.177   6.530
 3398SOL     OW10735   2.125   0.326   6.306
 3398SOL    HW110736   2.046   0.377   6.272
 3398SOL    HW210737   2.116   0.311   6.404
 3399SOL     OW10738   3.056   1.612   5.617
 3399SOL    HW110739   3.062   1.519   5.654
 3399SOL    HW210740   2.997   1.612   5.537
 3400SOL     OW10741   2.684   1.002   6.958
 3400SOL    HW110742   2.724   1.001   6.866
 3400SOL    HW210743   2.694   1.094   6.998
 3401SOL     OW10744   2.778   0.910   5.877
 3401SOL    HW110745   2.841   0.948   5.809
 3401SOL    HW210746   2.818   0.827   5.916
 3402SOL     OW10747   3.366   1.607   5.630
 3402SOL    HW110748   3.274   1.644   5.637
 3402SOL    HW210749   3.404   1.627   5.540
 3403SOL     OW10750   2.234   1.288   7.076
 3403SOL    HW110751   2.221   1.381   7.042
 3403SOL    HW210752   2.150   1.236   7.063
 3404SOL     OW10753   3.476   1.292   6.875
 3404SOL    HW110754   3.536   1.295   6.955
 3404SOL    HW210755   3.401   1.356   6.888
 3405SOL     OW10756   2.901   1.098   6.282
 3405SOL    HW110757   2.831   1.051   6.336
 3405SOL    HW210758   2.960   1.030   6.239
 3406SOL     OW10759   2.876   0.236   6.557
 3406SOL    HW110760   2.868   0.200   6.464
 3406SOL    HW210761   2.874   0.160   6.622
 3407SOL     OW10762   2.452   1.487   6.077
 3407SOL    HW110763   2.494   1.429   6.007
 3407SOL    HW210764   2.408   1.566   6.033
 3408SOL     OW10765   3.571   0.385   6.967
 3408SOL    HW110766   3.644   0.454   6.971
 3408SOL    HW210767   3.599   0.310   6.908
 3409SOL     OW10768   2.117   1.348   5.876
 3409SOL    HW110769   2.021   1.349   5.849
 3409SOL    HW210770   2.129   1.401   5.960
 3410SOL     OW10771   1.967   1.013   7.312
 3410SOL    HW110772   1.890   0.980   7.366
 3410SOL    HW210773   2.052   0.983   7.354
 3411SOL     OW10774   2.534   0.203   7.075
 3411SOL    HW110775   2.624   0.187   7.035
 3411SOL    HW210776   2.542   0.208   7.174
 3412SOL     OW10777   1.937   0.345   5.619
 3412SOL    HW110778   1.845   0.317   5.590
 3412SOL    HW210779   1.968   0.422   5.563
 3413SOL     OW10780   3.302   0.856   6.984
 3413SOL    HW110781   3.245   0.908   6.921
 3413SOL    HW210782   3.398   0.868   6.960
 3414SOL     OW10783   1.934   0.166   5.904
 3414SOL    HW110784   1.917   0.249   5.850
 3414SOL    HW210785   2.024   0.129   5.882
 3415SOL     OW10786   3.045   1.335   5.705
 3415SOL    HW110787   2.946   1.324   5.707
 3415SOL    HW210788   3.079   1.350   5.798
 3416SOL     OW10789   2.475   0.842   7.017
 3416SOL    HW110790   2.531   0.923   7.000
 3416SOL    HW210791   2.534   0.762   7.020
 3417SOL     OW10792   3.355   1.767   6.545
 3417SOL    HW110793   3.388   1.831   6.476
 3417SOL    HW210794   3.421   1.761   6.620
 3418SOL     OW10795   2.578   0.565   7.294
 3418SOL    HW110796   2.597   0.630   7.368
 3418SOL    HW210797   2.638   0.485   7.303
 3419SOL     OW10798   3.312   1.220   7.219
 3419SOL    HW110799   3.303   1.210   7.318
 3419SOL    HW210800   3.408   1.213   7.193
 3420SOL     OW10801   2.252   1.741   7.146
 3420SOL    HW110802   2.161   1.782   7.144
 3420SOL    HW210803   2.245   1.647   7.178
 3421SOL     OW10804   3.536   0.883   6.840
 3421SOL    HW110805   3.509   0.794   6.803
 3421SOL    HW210806   3.537   0.951   6.767
 3422SOL     OW10807   3.087   0.325   6.035
 3422SOL    HW110808   3.152   0.251   6.024
 3422SOL    HW210809   3.107   0.375   6.119
 3423SOL     OW10810   2.456   0.745   6.238
 3423SOL    HW110811   2.506   0.830   6.219
 3423SOL    HW210812   2.368   0.747   6.190
 3424SOL     OW10813   3.639   0.342   7.228
 3424SOL    HW110814   3.622   0.373   7.134
 3424SOL    HW210815   3.555   0.305   7.266
 3425SOL     OW10816   3.592   0.934   7.103
 3425SOL    HW110817   3.630   1.025   7.118
 3425SOL    HW210818   3.584   0.917   7.004
 3426SOL     OW10819   2.721   1.374   5.602
 3426SOL    HW110820   2.675   1.389   5.690
 3426SOL    HW210821   2.765   1.459   5.572
 3427SOL     OW10822   2.523   1.790   6.539
 3427SOL    HW110823   2.477   1.878   6.526
 3427SOL    HW210824   2.622   1.802   6.532
 3428SOL     OW10825   2.721   0.956   6.447
 3428SOL    HW110826   2.775   0.887   6.495
 3428SOL    HW210827   2.689   1.025   6.513
 3429SOL     OW10828   2.945   0.984   5.673
 3429SOL    HW110829   2.922   1.037   5.591
 3429SOL    HW210830   3.026   0.928   5.654
 3430SOL     OW10831   3.723   1.569   6.437
 3430SOL    HW110832   3.652   1.557   6.367
 3430SOL    HW210833   3.724   1.490   6.497
 3431SOL     OW10834   2.083   1.314   7.430
 3431SOL    HW110835   2.018   1.241   7.409
 3431SOL    HW210836   2.087   1.328   7.528
 3432SOL     OW10837   1.941   1.240   6.239
 3432SOL    HW110838   1.940   1.193   6.327
 3432SOL    HW210839   2.023   1.212   6.188
 3433SOL     OW10840   2.534   1.391   7.210
 3433SOL    HW110841   2.456   1.341   7.248
 3433SOL    HW210842   2.531   1.486   7.241
 3434SOL     OW10843   3.686   0.192   6.813
 3434SOL    HW110844   3.682   0.102   6.857
 3434SOL    HW210845   3.689   0.181   6.714
 3435SOL     OW10846   2.290   0.424   6.106
 3435SOL    HW110847   2.320   0.352   6.044
 3435SOL    HW210848   2.251   0.384   6.189
 3436SOL     OW10849   3.567   1.487   6.690
 3436SOL    HW110850   3.474   1.462   6.663
 3436SOL    HW210851   3.593   1.437   6.772
 3437SOL     OW10852   2.179   0.547   6.866
 3437SOL    HW110853   2.217   0.488   6.938
 3437SOL    HW210854   2.219   0.521   6.778
 3438SOL     OW10855   2.674   1.586   6.273
 3438SOL    HW110856   2.706   1.596   6.179
 3438SOL    HW210857   2.595   1.524   6.275
 3439SOL     OW10858   3.286   0.214   6.698
 3439SOL    HW110859   3.338   0.149   6.753
 3439SOL    HW210860   3.237   0.277   6.759
 3440SOL     OW10861   2.863   0.034   6.740
 3440SOL    HW110862   2.800  -0.038   6.709
 3440SOL    HW210863   2.956  -0.002   6.740
 3441SOL     OW10864   2.632   1.330   5.887
 3441SOL    HW110865   2.586   1.243   5.904
 3441SOL    HW210866   2.723   1.327   5.928
 3442SOL     OW10867   2.480   1.567   6.870
 3442SOL    HW110868   2.475   1.649   6.927
 3442SOL    HW210869   2.569   1.564   6.825
 3443SOL     OW10870   3.214   0.052   5.754
 3443SOL    HW110871   3.249   0.011   5.670
 3443SOL    HW210872   3.124   0.014   5.774
 3444SOL     OW10873   3.162   0.453   6.277
 3444SOL    HW110874   3.103   0.533   6.281
 3444SOL    HW210875   3.177   0.418   6.370
 3445SOL     OW10876   3.455   0.221   6.468
 3445SOL    HW110877   3.371   0.220   6.522
 3445SOL    HW210878   3.457   0.304   6.412
 3446SOL     OW10879   1.901   1.077   5.886
 3446SOL    HW110880   2.000   1.066   5.877
 3446SOL    HW210881   1.861   0.991   5.918
 3447SOL     OW10882   2.737   1.646   5.923
 3447SOL    HW110883   2.660   1.611   5.869
 3447SOL    HW210884   2.705   1.717   5.985
 3448SOL     OW10885   2.092   0.628   7.561
 3448SOL    HW110886   1.999   0.626   7.598
 3448SOL    HW210887   2.093   0.589   7.469
 3449SOL     OW10888   3.617   0.607   7.679
 3449SOL    HW110889   3.605   0.594   7.580
 3449SOL    HW210890   3.587   0.526   7.728
 3450SOL     OW10891   2.093   1.713   7.931
 3450SOL    HW110892   2.127   1.790   7.985
 3450SOL    HW210893   2.137   1.713   7.841
 3451SOL     OW10894   2.092   1.434   7.986
 3451SOL    HW110895   2.066   1.530   7.986
 3451SOL    HW210896   2.021   1.380   8.031
 3452SOL     OW10897   2.468   0.964   7.571
 3452SOL    HW110898   2.475   1.048   7.517
 3452SOL    HW210899   2.514   0.977   7.659
 3453SOL     OW10900   3.704   1.767   7.807
 3453SOL    HW110901   3.758   1.738   7.887
 3453SOL    HW210902   3.734   1.857   7.778
 3454SOL     OW10903   1.889   1.596   7.565
 3454SOL    HW110904   1.870   1.500   7.586
 3454SOL    HW210905   1.856   1.654   7.640
 3455SOL     OW10906   3.551   0.922   8.060
 3455SOL    HW110907   3.646   0.893   8.068
 3455SOL    HW210908   3.543   0.987   7.985
 3456SOL     OW10909   3.503   1.108   7.880
 3456SOL    HW110910   3.589   1.110   7.828
 3456SOL    HW210911   3.517   1.155   7.968
 3457SOL     OW10912   2.671   0.004   7.950
 3457SOL    HW110913   2.711   0.095   7.941
 3457SOL    HW210914   2.571   0.012   7.956
 3458SOL     OW10915   3.387   0.999   7.638
 3458SOL    HW110916   3.324   0.923   7.651
 3458SOL    HW210917   3.435   1.017   7.724
 3459SOL     OW10918   2.460   0.729   7.718
 3459SOL    HW110919   2.484   0.798   7.650
 3459SOL    HW210920   2.382   0.762   7.772
 3460SOL     OW10921   3.438   1.662   7.755
 3460SOL    HW110922   3.527   1.708   7.758
 3460SOL    HW210923   3.417   1.638   7.660
 3461SOL     OW10924   1.938   0.811   8.237
 3461SOL    HW110925   2.037   0.799   8.246
 3461SOL    HW210926   1.914   0.906   8.258
 3462SOL     OW10927   2.727   0.348   7.643
 3462SOL    HW110928   2.786   0.411   7.594
 3462SOL    HW210929   2.746   0.254   7.614
 3463SOL     OW10930   2.183   0.943   7.690
 3463SOL    HW110931   2.265   0.982   7.648
 3463SOL    HW210932   2.156   0.861   7.641
 3464SOL     OW10933   2.973   1.776   7.685
 3464SOL    HW110934   2.913   1.714   7.735
 3464SOL    HW210935   3.004   1.732   7.600
 3465SOL     OW10936   3.494   1.377   7.529
 3465SOL    HW110937   3.462   1.471   7.519
 3465SOL    HW210938   3.418   1.314   7.517
 3466SOL     OW10939   2.326   1.743   7.771
 3466SOL    HW110940   2.359   1.782   7.857
 3466SOL    HW210941   2.402   1.736   7.706
 3467SOL     OW10942   3.262   0.107   7.874
 3467SOL    HW110943   3.238   0.070   7.784
 3467SOL    HW210944   3.361   0.123   7.878
 3468SOL     OW10945   2.244   0.700   7.928
 3468SOL    HW110946   2.289   0.610   7.925
 3468SOL    HW210947   2.150   0.689   7.961
 3469SOL     OW10948   2.476   0.122   7.565
 3469SOL    HW110949   2.574   0.100   7.572
 3469SOL    HW210950   2.445   0.105   7.472
 3470SOL     OW10951   2.401   0.064   7.960
 3470SOL    HW110952   2.320   0.065   8.018
 3470SOL    HW210953   2.404   0.147   7.905
 3471SOL     OW10954   3.296   1.188   7.489
 3471SOL    HW110955   3.328   1.112   7.546
 3471SOL    HW210956   3.204   1.215   7.519
 3472SOL     OW10957   2.159   0.035   7.619
 3472SOL    HW110958   2.208   0.119   7.598
 3472SOL    HW210959   2.221  -0.030   7.664
 3473SOL     OW10960   2.797   0.236   7.928
 3473SOL    HW110961   2.749   0.277   7.850
 3473SOL    HW210962   2.896   0.234   7.909
 3474SOL     OW10963   2.321   1.152   8.189
 3474SOL    HW110964   2.250   1.125   8.254
 3474SOL    HW210965   2.295   1.124   8.096
 3475SOL     OW10966   3.133   1.797   8.039
 3475SOL    HW110967   3.177   1.861   7.975
 3475SOL    HW210968   3.083   1.849   8.109
 3476SOL     OW10969   2.894   0.549   7.464
 3476SOL    HW110970   2.853   0.631   7.425
 3476SOL    HW210971   2.958   0.575   7.537
 3477SOL     OW10972   3.719   0.833   7.825
 3477SOL    HW110973   3.761   0.769   7.889
 3477SOL    HW210974   3.681   0.782   7.747
 3478SOL     OW10975   2.350   1.385   7.622
 3478SOL    HW110976   2.263   1.370   7.669
 3478SOL    HW210977   2.333   1.411   7.527
 3479SOL     OW10978   3.252   0.575   7.526
 3479SOL    HW110979   3.198   0.554   7.607
 3479SOL    HW210980   3.343   0.534   7.535
 3480SOL     OW10981   2.389   0.256   7.776
 3480SOL    HW110982   2.416   0.197   7.701
 3480SOL    HW210983   2.389   0.351   7.745
 3481SOL     OW10984   2.567   1.050   7.816
 3481SOL    HW110985   2.553   1.057   7.915
 3481SOL    HW210986   2.651   0.999   7.798
 3482SOL     OW10987   2.229   1.100   7.949
 3482SOL    HW110988   2.222   1.183   7.893
 3482SOL    HW210989   2.233   1.020   7.889
 3483SOL     OW10990   3.114   1.348   7.836
 3483SOL    HW110991   3.164   1.425   7.876
 3483SOL    HW210992   3.019   1.350   7.868
 3484SOL     OW10993   3.444   0.639   7.920
 3484SOL    HW110994   3.413   0.700   7.993
 3484SOL    HW210995   3.494   0.691   7.851
 3485SOL     OW10996   3.071   0.525   7.723
 3485SOL    HW110997   3.084   0.441   7.777
 3485SOL    HW210998   3.042   0.599   7.783
 3486SOL     OW10999   3.484   0.367   7.822
 3486SOL    HW111000   3.486   0.291   7.886
 3486SOL    HW211001   3.436   0.444   7.862
 3487SOL     OW11002   3.402   0.274   7.573
 3487SOL    HW111003   3.341   0.199   7.596
 3487SOL    HW211004   3.424   0.326   7.656
 3488SOL     OW11005   3.165   0.838   7.490
 3488SOL    HW111006   3.199   0.745   7.505
 3488SOL    HW211007   3.183   0.865   7.395
 3489SOL     OW11008   1.870   1.326   7.648
 3489SOL    HW111009   1.777   1.347   7.617
 3489SOL    HW211010   1.880   1.227   7.661
 3490SOL     OW11011   2.677   0.572   7.773
 3490SOL    HW111012   2.684   0.483   7.727
 3490SOL    HW211013   2.583   0.606   7.765
 3491SOL     OW11014   2.335   0.500   7.639
 3491SOL    HW111015   2.396   0.580   7.643
 3491SOL    HW211016   2.240   0.531   7.646
 3492SOL     OW11017   3.164   0.855   7.757
 3492SOL    HW111018   3.078   0.824   7.799
 3492SOL    HW211019   3.160   0.841   7.658
 3493SOL     OW11020   3.588   0.135   7.971
 3493SOL    HW111021   3.661   0.118   7.904
 3493SOL    HW211022   3.557   0.048   8.009
 3494SOL     OW11023   3.250   1.573   7.925
 3494SOL    HW111024   3.317   1.585   7.851
 3494SOL    HW211025   3.210   1.662   7.948
 3495SOL     OW11026   2.534   1.616   7.602
 3495SOL    HW111027   2.543   1.626   7.503
 3495SOL    HW211028   2.494   1.527   7.623
 3496SOL     OW11029   3.056   1.612   7.479
 3496SOL    HW111030   3.062   1.519   7.516
 3496SOL    HW211031   2.997   1.612   7.399
 3497SOL     OW11032   2.778   0.910   7.739
 3497SOL    HW111033   2.841   0.948   7.671
 3497SOL    HW211034   2.818   0.827   7.778
 3498SOL     OW11035   3.366   1.607   7.492
 3498SOL    HW111036   3.274   1.644   7.499
 3498SOL    HW211037   3.404   1.627   7.402
 3499SOL     OW11038   2.452   1.487   7.939
 3499SOL    HW111039   2.494   1.429   7.869
 3499SOL    HW211040   2.408   1.566   7.895
 3500SOL     OW11041   2.117   1.348   7.738
 3500SOL    HW111042   2.021   1.349   7.711
 3500SOL    HW211043   2.129   1.401   7.822
 3501SOL     OW11044   1.937   0.345   7.481
 3501SOL    HW111045   1.845   0.317   7.452
 3501SOL    HW211046   1.968   0.422   7.425
 3502SOL     OW11047   1.934   0.166   7.766
 3502SOL    HW111048   1.917   0.249   7.712
 3502SOL    HW211049   2.024   0.129   7.744
 3503SOL     OW11050   3.045   1.335   7.567
 3503SOL    HW111051   2.946   1.324   7.569
 3503SOL    HW211052   3.079   1.350   7.660
 3504SOL     OW11053   3.087   0.325   7.897
 3504SOL    HW111054   3.152   0.251   7.886
 3504SOL    HW211055   3.107   0.375   7.981
 3505SOL     OW11056   2.456   0.745   8.100
 3505SOL    HW111057   2.506   0.830   8.081
 3505SOL    HW211058   2.368   0.747   8.052
 3506SOL     OW11059   2.721   1.374   7.464
 3506SOL    HW111060   2.675   1.389   7.552
 3506SOL    HW211061   2.765   1.459   7.434
 3507SOL     OW11062   2.945   0.984   7.535
 3507SOL    HW111063   2.922   1.037   7.453
 3507SOL    HW211064   3.026   0.928   7.516
 3508SOL     OW11065   2.290   0.424   7.968
 3508SOL    HW111066   2.320   0.352   7.906
 3508SOL    HW211067   2.251   0.384   8.051
 3509SOL     OW11068   2.632   1.330   7.749
 3509SOL    HW111069   2.586   1.243   7.766
 3509SOL    HW211070   2.723   1.327   7.790
 3510SOL     OW11071   3.214   0.052   7.616
 3510SOL    HW111072   3.249   0.011   7.532
 3510SOL    HW211073   3.124   0.014   7.636
 3511SOL     OW11074   1.901   1.077   7.748
 3511SOL    HW111075   2.000   1.066   7.739
 3511SOL    HW211076   1.861   0.991   7.780
 3512SOL     OW11077   2.737   1.646   7.785
 3512SOL    HW111078   2.660   1.611   7.731
 3512SOL    HW211079   2.705   1.717   7.847
 3513SOL     OW11080   2.092   2.490   0.113
 3513SOL    HW111081   1.999   2.488   0.150
 3513SOL    HW211082   2.093   2.451   0.021
 3514SOL     OW11083   2.087   2.137   0.996
 3514SOL    HW111084   2.122   2.120   1.088
 3514SOL    HW211085   1.999   2.092   0.984
 3515SOL     OW11086   1.881   2.230   0.647
 3515SOL    HW111087   1.799   2.273   0.686
 3515SOL    HW211088   1.853   2.157   0.584
 3516SOL     OW11089   2.431   3.137   1.165
 3516SOL    HW111090   2.338   3.130   1.128
 3516SOL    HW211091   2.442   3.226   1.209
 3517SOL     OW11092   3.417   3.373   0.703
 3517SOL    HW111093   3.360   3.357   0.784
 3517SOL    HW211094   3.358   3.383   0.623
 3518SOL     OW11095   2.997   2.565   0.717
 3518SOL    HW111096   3.054   2.643   0.692
 3518SOL    HW211097   2.937   2.591   0.793
 3519SOL     OW11098   3.617   2.469   0.231
 3519SOL    HW111099   3.605   2.456   0.132
 3519SOL    HW211100   3.587   2.388   0.280
 3520SOL     OW11101   2.630   3.006   1.023
 3520SOL    HW111102   2.552   3.023   1.083
 3520SOL    HW211103   2.664   3.093   0.987
 3521SOL     OW11104   2.548   3.023   1.803
 3521SOL    HW111105   2.608   3.102   1.817
 3521SOL    HW211106   2.462   3.054   1.762
 3522SOL     OW11107   2.197   3.297   1.061
 3522SOL    HW111108   2.119   3.266   1.008
 3522SOL    HW211109   2.255   3.355   1.004
 3523SOL     OW11110   3.322   3.367   1.339
 3523SOL    HW111111   3.346   3.461   1.365
 3523SOL    HW211112   3.306   3.313   1.421
 3524SOL     OW11113   2.300   2.254   1.499
 3524SOL    HW111114   2.382   2.198   1.508
 3524SOL    HW211115   2.219   2.196   1.503
 3525SOL     OW11116   3.465   2.309   0.737
 3525SOL    HW111117   3.391   2.355   0.687
 3525SOL    HW211118   3.516   2.377   0.790
 3526SOL     OW11119   2.093   3.575   0.483
 3526SOL    HW111120   2.127   3.652   0.537
 3526SOL    HW211121   2.137   3.575   0.393
 3527SOL     OW11122   2.989   3.203   1.690
 3527SOL    HW111123   3.036   3.203   1.778
 3527SOL    HW211124   2.941   3.116   1.679
 3528SOL     OW11125   2.092   3.296   0.538
 3528SOL    HW111126   2.066   3.392   0.538
 3528SOL    HW211127   2.021   3.242   0.583
 3529SOL     OW11128   2.102   2.953   0.886
 3529SOL    HW111129   2.116   2.869   0.938
 3529SOL    HW211130   2.047   3.017   0.941
 3530SOL     OW11131   2.482   3.648   1.439
 3530SOL    HW111132   2.390   3.631   1.474
 3530SOL    HW211133   2.510   3.740   1.465
 3531SOL     OW11134   2.468   2.826   0.123
 3531SOL    HW111135   2.475   2.910   0.069
 3531SOL    HW211136   2.514   2.839   0.211
 3532SOL     OW11137   3.456   1.976   1.480
 3532SOL    HW111138   3.438   2.043   1.408
 3532SOL    HW211139   3.453   2.022   1.569
 3533SOL     OW11140   1.984   2.505   0.563
 3533SOL    HW111141   1.939   2.417   0.580
 3533SOL    HW211142   1.983   2.559   0.647
 3534SOL     OW11143   3.704   3.629   0.359
 3534SOL    HW111144   3.758   3.600   0.439
 3534SOL    HW211145   3.734   3.719   0.330
 3535SOL     OW11146   1.889   3.458   0.117
 3535SOL    HW111147   1.870   3.362   0.138
 3535SOL    HW211148   1.856   3.516   0.192
 3536SOL     OW11149   3.551   2.784   0.612
 3536SOL    HW111150   3.646   2.755   0.620
 3536SOL    HW211151   3.543   2.849   0.537
 3537SOL     OW11152   3.503   2.970   0.432
 3537SOL    HW111153   3.589   2.972   0.380
 3537SOL    HW211154   3.517   3.017   0.520
 3538SOL     OW11155   1.975   2.599   1.597
 3538SOL    HW111156   2.063   2.586   1.642
 3538SOL    HW211157   1.962   2.696   1.575
 3539SOL     OW11158   2.475   3.227   0.726
 3539SOL    HW111159   2.426   3.140   0.735
 3539SOL    HW211160   2.452   3.270   0.639
 3540SOL     OW11161   3.155   3.090   1.423
 3540SOL    HW111162   3.192   3.017   1.365
 3540SOL    HW211163   3.207   3.095   1.508
 3541SOL     OW11164   2.671   1.866   0.502
 3541SOL    HW111165   2.711   1.957   0.493
 3541SOL    HW211166   2.571   1.874   0.508
 3542SOL     OW11167   2.059   2.838   1.264
 3542SOL    HW111168   2.148   2.793   1.250
 3542SOL    HW211169   1.986   2.773   1.245
 3543SOL     OW11170   3.387   2.861   0.190
 3543SOL    HW111171   3.324   2.785   0.203
 3543SOL    HW211172   3.435   2.879   0.276
 3544SOL     OW11173   3.049   3.654   1.616
 3544SOL    HW111174   3.073   3.714   1.540
 3544SOL    HW211175   3.056   3.559   1.586
 3545SOL     OW11176   2.179   2.113   1.801
 3545SOL    HW111177   2.250   2.184   1.807
 3545SOL    HW211178   2.091   2.152   1.829
 3546SOL     OW11179   3.328   3.279   0.953
 3546SOL    HW111180   3.269   3.285   1.033
 3546SOL    HW211181   3.313   3.191   0.907
 3547SOL     OW11182   3.529   3.576   0.572
 3547SOL    HW111183   3.488   3.553   0.484
 3547SOL    HW211184   3.511   3.502   0.637
 3548SOL     OW11185   3.143   2.207   0.944
 3548SOL    HW111186   3.057   2.157   0.931
 3548SOL    HW211187   3.205   2.153   1.000
 3549SOL     OW11188   3.438   3.524   0.307
 3549SOL    HW111189   3.527   3.570   0.310
 3549SOL    HW211190   3.417   3.500   0.212
 3550SOL     OW11191   3.256   2.331   1.674
 3550SOL    HW111192   3.236   2.374   1.762
 3550SOL    HW211193   3.334   2.269   1.683
 3551SOL     OW11194   2.853   2.272   1.242
 3551SOL    HW111195   2.776   2.306   1.296
 3551SOL    HW211196   2.819   2.221   1.163
 3552SOL     OW11197   1.938   2.673   0.789
 3552SOL    HW111198   2.037   2.661   0.798
 3552SOL    HW211199   1.914   2.768   0.810
 3553SOL     OW11200   1.992   3.683   1.571
 3553SOL    HW111201   1.982   3.668   1.670
 3553SOL    HW211202   1.906   3.719   1.535
 3554SOL     OW11203   2.727   2.210   0.195
 3554SOL    HW111204   2.786   2.273   0.146
 3554SOL    HW211205   2.746   2.116   0.166
 3555SOL     OW11206   3.581   2.447   1.831
 3555SOL    HW111207   3.555   2.536   1.795
 3555SOL    HW211208   3.579   2.379   1.758
 3556SOL     OW11209   3.224   3.006   0.545
 3556SOL    HW111210   3.307   2.977   0.497
 3556SOL    HW211211   3.175   3.073   0.489
 3557SOL     OW11212   2.412   2.058   0.885
 3557SOL    HW111213   2.407   2.053   0.985
 3557SOL    HW211214   2.414   2.154   0.856
 3558SOL     OW11215   2.870   3.318   0.477
 3558SOL    HW111216   2.824   3.390   0.425
 3558SOL    HW211217   2.866   3.338   0.575
 3559SOL     OW11218   2.213   3.663   0.853
 3559SOL    HW111219   2.263   3.577   0.859
 3559SOL    HW211220   2.278   3.740   0.850
 3560SOL     OW11221   3.657   2.928   0.873
 3560SOL    HW111222   3.595   2.913   0.797
 3560SOL    HW211223   3.605   2.939   0.958
 3561SOL     OW11224   3.089   3.412   1.506
 3561SOL    HW111225   3.095   3.335   1.570
 3561SOL    HW211226   3.037   3.386   1.426
 3562SOL     OW11227   2.183   2.805   0.242
 3562SOL    HW111228   2.265   2.844   0.200
 3562SOL    HW211229   2.156   2.723   0.193
 3563SOL     OW11230   3.320   2.597   0.728
 3563SOL    HW111231   3.315   2.532   0.803
 3563SOL    HW211232   3.400   2.656   0.741
 3564SOL     OW11233   2.323   3.128   1.727
 3564SOL    HW111234   2.273   3.129   1.641
 3564SOL    HW211235   2.260   3.110   1.803
 3565SOL     OW11236   2.973   3.638   0.237
 3565SOL    HW111237   2.913   3.576   0.287
 3565SOL    HW211238   3.004   3.594   0.152
 3566SOL     OW11239   2.064   2.147   1.498
 3566SOL    HW111240   1.984   2.207   1.485
 3566SOL    HW211241   2.054   2.098   1.584
 3567SOL     OW11242   3.494   3.239   0.081
 3567SOL    HW111243   3.462   3.333   0.071
 3567SOL    HW211244   3.418   3.176   0.069
 3568SOL     OW11245   2.326   3.605   0.323
 3568SOL    HW111246   2.359   3.644   0.409
 3568SOL    HW211247   2.402   3.598   0.258
 3569SOL     OW11248   3.262   1.969   0.426
 3569SOL    HW111249   3.238   1.932   0.336
 3569SOL    HW211250   3.361   1.985   0.430
 3570SOL     OW11251   2.111   3.647   1.241
 3570SOL    HW111252   2.168   3.582   1.291
 3570SOL    HW211253   2.095   3.614   1.148
 3571SOL     OW11254   2.802   3.560   0.904
 3571SOL    HW111255   2.882   3.503   0.925
 3571SOL    HW211256   2.753   3.520   0.827
 3572SOL     OW11257   2.244   2.562   0.480
 3572SOL    HW111258   2.289   2.472   0.477
 3572SOL    HW211259   2.150   2.551   0.513
 3573SOL     OW11260   3.409   2.084   1.729
 3573SOL    HW111261   3.404   2.121   1.821
 3573SOL    HW211262   3.337   2.015   1.717
 3574SOL     OW11263   2.476   1.984   0.117
 3574SOL    HW111264   2.574   1.962   0.124
 3574SOL    HW211265   2.445   1.967   0.024
 3575SOL     OW11266   2.643   2.126   1.749
 3575SOL    HW111267   2.710   2.065   1.792
 3575SOL    HW211268   2.570   2.145   1.814
 3576SOL     OW11269   2.750   3.376   1.195
 3576SOL    HW111270   2.727   3.351   1.101
 3576SOL    HW211271   2.811   3.307   1.234
 3577SOL     OW11272   3.213   2.452   1.433
 3577SOL    HW111273   3.241   2.409   1.518
 3577SOL    HW211274   3.238   2.548   1.434
 3578SOL     OW11275   2.665   3.264   0.924
 3578SOL    HW111276   2.755   3.278   0.882
 3578SOL    HW211277   2.594   3.266   0.853
 3579SOL     OW11278   2.784   2.365   0.899
 3579SOL    HW111279   2.759   2.356   0.803
 3579SOL    HW211280   2.832   2.283   0.930
 3580SOL     OW11281   2.401   1.926   0.512
 3580SOL    HW111282   2.320   1.927   0.570
 3580SOL    HW211283   2.404   2.009   0.457
 3581SOL     OW11284   3.296   3.050   0.041
 3581SOL    HW111285   3.328   2.974   0.098
 3581SOL    HW211286   3.204   3.077   0.071
 3582SOL     OW11287   2.159   1.897   0.171
 3582SOL    HW111288   2.208   1.981   0.150
 3582SOL    HW211289   2.221   1.832   0.216
 3583SOL     OW11290   2.797   2.098   0.480
 3583SOL    HW111291   2.749   2.139   0.402
 3583SOL    HW211292   2.896   2.096   0.461
 3584SOL     OW11293   2.938   2.545   1.464
 3584SOL    HW111294   2.858   2.484   1.467
 3584SOL    HW211295   3.019   2.492   1.440
 3585SOL     OW11296   3.089   3.432   0.793
 3585SOL    HW111297   3.110   3.506   0.728
 3585SOL    HW211298   3.157   3.432   0.866
 3586SOL     OW11299   2.321   3.014   0.741
 3586SOL    HW111300   2.250   2.987   0.806
 3586SOL    HW211301   2.295   2.986   0.648
 3587SOL     OW11302   3.133   3.659   0.591
 3587SOL    HW111303   3.177   3.723   0.527
 3587SOL    HW211304   3.083   3.711   0.661
 3588SOL     OW11305   2.894   2.411   0.016
 3588SOL    HW111306   2.853   2.493  -0.023
 3588SOL    HW211307   2.958   2.437   0.089
 3589SOL     OW11308   1.940   2.418   1.386
 3589SOL    HW111309   2.032   2.417   1.345
 3589SOL    HW211310   1.934   2.492   1.453
 3590SOL     OW11311   2.423   2.084   1.147
 3590SOL    HW111312   2.461   2.000   1.184
 3590SOL    HW211313   2.335   2.103   1.191
 3591SOL     OW11314   2.728   2.316   0.642
 3591SOL    HW111315   2.696   2.388   0.580
 3591SOL    HW211316   2.752   2.235   0.589
 3592SOL     OW11317   2.879   1.901   0.753
 3592SOL    HW111318   2.807   1.906   0.684
 3592SOL    HW211319   2.855   1.832   0.822
 3593SOL     OW11320   3.291   3.035   0.867
 3593SOL    HW111321   3.236   2.951   0.860
 3593SOL    HW211322   3.317   3.064   0.775
 3594SOL     OW11323   3.328   2.452   0.992
 3594SOL    HW111324   3.298   2.357   0.999
 3594SOL    HW211325   3.401   2.468   1.058
 3595SOL     OW11326   3.719   2.695   0.377
 3595SOL    HW111327   3.761   2.631   0.441
 3595SOL    HW211328   3.681   2.644   0.299
 3596SOL     OW11329   2.350   3.247   0.174
 3596SOL    HW111330   2.263   3.232   0.221
 3596SOL    HW211331   2.333   3.273   0.079
 3597SOL     OW11332   3.526   3.142   0.657
 3597SOL    HW111333   3.625   3.150   0.671
 3597SOL    HW211334   3.481   3.226   0.688
 3598SOL     OW11335   3.252   2.437   0.078
 3598SOL    HW111336   3.198   2.416   0.159
 3598SOL    HW211337   3.343   2.396   0.087
 3599SOL     OW11338   2.389   2.118   0.328
 3599SOL    HW111339   2.416   2.059   0.253
 3599SOL    HW211340   2.389   2.213   0.297
 3600SOL     OW11341   3.616   3.085   1.588
 3600SOL    HW111342   3.707   3.046   1.575
 3600SOL    HW211343   3.624   3.181   1.612
 3601SOL     OW11344   2.926   3.209   1.340
 3601SOL    HW111345   2.846   3.186   1.395
 3601SOL    HW211346   3.009   3.183   1.389
 3602SOL     OW11347   3.454   3.491   1.625
 3602SOL    HW111348   3.481   3.525   1.535
 3602SOL    HW211349   3.533   3.453   1.671
 3603SOL     OW11350   2.973   3.057   1.100
 3603SOL    HW111351   2.933   3.101   1.181
 3603SOL    HW211352   2.932   3.094   1.017
 3604SOL     OW11353   3.500   2.961   1.079
 3604SOL    HW111354   3.505   3.042   1.138
 3604SOL    HW211355   3.414   2.963   1.028
 3605SOL     OW11356   2.777   1.951   1.402
 3605SOL    HW111357   2.802   1.931   1.307
 3605SOL    HW211358   2.849   2.007   1.444
 3606SOL     OW11359   2.842   2.978   1.719
 3606SOL    HW111360   2.743   2.984   1.729
 3606SOL    HW211361   2.865   2.898   1.663
 3607SOL     OW11362   2.567   2.912   0.368
 3607SOL    HW111363   2.553   2.919   0.467
 3607SOL    HW211364   2.651   2.861   0.350
 3608SOL     OW11365   2.272   2.675   1.251
 3608SOL    HW111366   2.358   2.687   1.301
 3608SOL    HW211367   2.230   2.588   1.278
 3609SOL     OW11368   3.136   2.248   1.262
 3609SOL    HW111369   3.157   2.322   1.326
 3609SOL    HW211370   3.047   2.265   1.219
 3610SOL     OW11371   1.926   3.426   1.331
 3610SOL    HW111372   1.880   3.508   1.297
 3610SOL    HW211373   2.024   3.445   1.340
 3611SOL     OW11374   2.229   2.962   0.501
 3611SOL    HW111375   2.222   3.045   0.445
 3611SOL    HW211376   2.233   2.882   0.441
 3612SOL     OW11377   2.428   2.399   0.865
 3612SOL    HW111378   2.440   2.465   0.791
 3612SOL    HW211379   2.474   2.433   0.948
 3613SOL     OW11380   3.114   3.210   0.388
 3613SOL    HW111381   3.164   3.287   0.428
 3613SOL    HW211382   3.019   3.212   0.420
 3614SOL     OW11383   3.134   3.307   1.142
 3614SOL    HW111384   3.181   3.320   1.229
 3614SOL    HW211385   3.068   3.233   1.151
 3615SOL     OW11386   3.444   2.501   0.472
 3615SOL    HW111387   3.413   2.562   0.545
 3615SOL    HW211388   3.494   2.553   0.403
 3616SOL     OW11389   2.216   3.372   1.329
 3616SOL    HW111390   2.195   3.328   1.242
 3616SOL    HW211391   2.313   3.398   1.332
 3617SOL     OW11392   2.264   2.613   1.598
 3617SOL    HW111393   2.332   2.668   1.551
 3617SOL    HW211394   2.304   2.525   1.625
 3618SOL     OW11395   3.449   2.641   1.670
 3618SOL    HW111396   3.357   2.679   1.665
 3618SOL    HW211397   3.509   2.688   1.605
 3619SOL     OW11398   2.875   1.967   1.770
 3619SOL    HW111399   2.881   2.052   1.718
 3619SOL    HW211400   2.907   1.891   1.713
 3620SOL     OW11401   2.366   1.912   1.740
 3620SOL    HW111402   2.324   1.855   1.670
 3620SOL    HW211403   2.300   1.981   1.772
 3621SOL     OW11404   3.222   2.724   1.045
 3621SOL    HW111405   3.147   2.724   0.979
 3621SOL    HW211406   3.259   2.632   1.054
 3622SOL     OW11407   3.071   2.387   0.275
 3622SOL    HW111408   3.084   2.303   0.329
 3622SOL    HW211409   3.042   2.461   0.335
 3623SOL     OW11410   2.169   2.075   1.231
 3623SOL    HW111411   2.146   2.112   1.321
 3623SOL    HW211412   2.139   1.980   1.225
 3624SOL     OW11413   1.899   3.172   1.282
 3624SOL    HW111414   1.952   3.123   1.350
 3624SOL    HW211415   1.921   3.270   1.287
 3625SOL     OW11416   3.590   2.797   1.854
 3625SOL    HW111417   3.544   2.790   1.765
 3625SOL    HW211418   3.528   2.841   1.920
 3626SOL     OW11419   2.169   1.925   0.618
 3626SOL    HW111420   2.158   2.019   0.651
 3626SOL    HW211421   2.164   1.862   0.695
 3627SOL     OW11422   3.484   2.229   0.374
 3627SOL    HW111423   3.486   2.153   0.438
 3627SOL    HW211424   3.436   2.306   0.414
 3628SOL     OW11425   2.842   3.435   1.700
 3628SOL    HW111426   2.822   3.479   1.612
 3628SOL    HW211427   2.881   3.344   1.684
 3629SOL     OW11428   3.721   3.380   1.605
 3629SOL    HW111429   3.735   3.407   1.510
 3629SOL    HW211430   3.804   3.402   1.658
 3630SOL     OW11431   2.212   2.760   1.804
 3630SOL    HW111432   2.288   2.804   1.852
 3630SOL    HW211433   2.247   2.713   1.722
 3631SOL     OW11434   3.402   2.136   0.125
 3631SOL    HW111435   3.341   2.061   0.148
 3631SOL    HW211436   3.424   2.188   0.208
 3632SOL     OW11437   3.165   2.700   0.042
 3632SOL    HW111438   3.199   2.607   0.057
 3632SOL    HW211439   3.183   2.727  -0.053
 3633SOL     OW11440   2.930   3.195   0.849
 3633SOL    HW111441   2.937   3.111   0.794
 3633SOL    HW211442   2.992   3.264   0.813
 3634SOL     OW11443   2.181   2.672   0.949
 3634SOL    HW111444   2.274   2.708   0.954
 3634SOL    HW211445   2.175   2.587   1.001
 3635SOL     OW11446   2.201   2.371   1.006
 3635SOL    HW111447   2.149   2.288   0.989
 3635SOL    HW211448   2.278   2.376   0.942
 3636SOL     OW11449   3.000   2.242   1.678
 3636SOL    HW111450   2.955   2.305   1.742
 3636SOL    HW211451   3.093   2.273   1.661
 3637SOL     OW11452   3.022   2.069   1.477
 3637SOL    HW111453   3.022   2.133   1.554
 3637SOL    HW211454   3.050   2.117   1.394
 3638SOL     OW11455   1.870   3.188   0.200
 3638SOL    HW111456   1.777   3.209   0.169
 3638SOL    HW211457   1.880   3.089   0.213
 3639SOL     OW11458   1.950   3.663   0.927
 3639SOL    HW111459   1.908   3.577   0.900
 3639SOL    HW211460   2.044   3.666   0.893
 3640SOL     OW11461   2.366   3.430   0.910
 3640SOL    HW111462   2.432   3.504   0.919
 3640SOL    HW211463   2.410   3.351   0.868
 3641SOL     OW11464   1.902   2.406   1.114
 3641SOL    HW111465   1.987   2.373   1.073
 3641SOL    HW211466   1.915   2.421   1.212
 3642SOL     OW11467   2.051   2.382   1.722
 3642SOL    HW111468   2.110   2.342   1.652
 3642SOL    HW211469   1.993   2.453   1.681
 3643SOL     OW11470   3.231   2.812   1.660
 3643SOL    HW111471   3.270   2.901   1.680
 3643SOL    HW211472   3.241   2.792   1.563
 3644SOL     OW11473   3.519   2.466   1.206
 3644SOL    HW111474   3.481   2.397   1.268
 3644SOL    HW211475   3.601   2.430   1.162
 3645SOL     OW11476   2.114   3.426   1.744
 3645SOL    HW111477   2.084   3.483   1.820
 3645SOL    HW211478   2.107   3.329   1.770
 3646SOL     OW11479   2.533   2.326   1.269
 3646SOL    HW111480   2.499   2.237   1.239
 3646SOL    HW211481   2.559   2.380   1.189
 3647SOL     OW11482   2.792   3.540   1.465
 3647SOL    HW111483   2.768   3.522   1.370
 3647SOL    HW211484   2.822   3.634   1.475
 3648SOL     OW11485   2.335   2.362   0.191
 3648SOL    HW111486   2.396   2.442   0.195
 3648SOL    HW211487   2.240   2.393   0.198
 3649SOL     OW11488   2.021   2.999   1.466
 3649SOL    HW111489   2.043   2.938   1.542
 3649SOL    HW211490   2.031   2.950   1.380
 3650SOL     OW11491   3.209   2.921   1.234
 3650SOL    HW111492   3.233   2.858   1.160
 3650SOL    HW211493   3.119   2.961   1.216
 3651SOL     OW11494   3.164   2.717   0.309
 3651SOL    HW111495   3.078   2.686   0.351
 3651SOL    HW211496   3.160   2.703   0.210
 3652SOL     OW11497   3.621   3.609   1.154
 3652SOL    HW111498   3.682   3.639   1.081
 3652SOL    HW211499   3.583   3.520   1.132
 3653SOL     OW11500   3.114   3.593   1.128
 3653SOL    HW111501   3.198   3.598   1.074
 3653SOL    HW211502   3.091   3.497   1.146
 3654SOL     OW11503   1.945   3.120   1.022
 3654SOL    HW111504   1.940   3.119   1.122
 3654SOL    HW211505   1.862   3.079   0.984
 3655SOL     OW11506   2.550   3.524   1.716
 3655SOL    HW111507   2.494   3.605   1.725
 3655SOL    HW211508   2.602   3.528   1.630
 3656SOL     OW11509   2.765   1.948   0.133
 3656SOL    HW111510   2.816   1.949   0.047
 3656SOL    HW211511   2.821   1.906   0.204
 3657SOL     OW11512   3.588   1.997   0.523
 3657SOL    HW111513   3.661   1.980   0.456
 3657SOL    HW211514   3.557   1.910   0.561
 3658SOL     OW11515   3.250   3.435   0.477
 3658SOL    HW111516   3.317   3.447   0.403
 3658SOL    HW211517   3.210   3.524   0.500
 3659SOL     OW11518   1.992   3.656   1.851
 3659SOL    HW111519   1.951   3.582   1.904
 3659SOL    HW211520   2.056   3.707   1.909
 3660SOL     OW11521   3.142   2.789   0.672
 3660SOL    HW111522   3.202   2.708   0.674
 3660SOL    HW211523   3.182   2.858   0.612
 3661SOL     OW11524   2.692   3.135   1.422
 3661SOL    HW111525   2.687   3.168   1.517
 3661SOL    HW211526   2.606   3.154   1.376
 3662SOL     OW11527   2.534   3.478   0.154
 3662SOL    HW111528   2.543   3.488   0.055
 3662SOL    HW211529   2.494   3.389   0.175
 3663SOL     OW11530   3.512   3.582   1.394
 3663SOL    HW111531   3.565   3.592   1.310
 3663SOL    HW211532   3.485   3.672   1.428
 3664SOL     OW11533   3.703   2.037   0.963
 3664SOL    HW111534   3.742   1.952   0.927
 3664SOL    HW211535   3.605   2.039   0.944
 3665SOL     OW11536   2.125   2.188   0.720
 3665SOL    HW111537   2.046   2.239   0.686
 3665SOL    HW211538   2.116   2.173   0.818
 3666SOL     OW11539   3.056   3.474   0.031
 3666SOL    HW111540   3.062   3.381   0.068
 3666SOL    HW211541   2.997   3.474  -0.049
 3667SOL     OW11542   3.366   3.469   0.044
 3667SOL    HW111543   3.274   3.506   0.051
 3667SOL    HW211544   3.404   3.489  -0.046
 3668SOL     OW11545   2.234   3.150   1.490
 3668SOL    HW111546   2.221   3.243   1.456
 3668SOL    HW211547   2.150   3.098   1.477
 3669SOL     OW11548   3.476   3.154   1.289
 3669SOL    HW111549   3.536   3.157   1.369
 3669SOL    HW211550   3.401   3.218   1.302
 3670SOL     OW11551   2.901   2.960   0.696
 3670SOL    HW111552   2.831   2.913   0.750
 3670SOL    HW211553   2.960   2.892   0.653
 3671SOL     OW11554   2.876   2.098   0.971
 3671SOL    HW111555   2.868   2.062   0.878
 3671SOL    HW211556   2.874   2.022   1.036
 3672SOL     OW11557   2.452   3.349   0.491
 3672SOL    HW111558   2.494   3.291   0.421
 3672SOL    HW211559   2.408   3.428   0.447
 3673SOL     OW11560   3.571   2.247   1.381
 3673SOL    HW111561   3.644   2.316   1.385
 3673SOL    HW211562   3.599   2.172   1.322
 3674SOL     OW11563   2.117   3.210   0.290
 3674SOL    HW111564   2.021   3.211   0.263
 3674SOL    HW211565   2.129   3.263   0.374
 3675SOL     OW11566   1.967   2.875   1.726
 3675SOL    HW111567   1.890   2.842   1.780
 3675SOL    HW211568   2.052   2.845   1.768
 3676SOL     OW11569   2.534   2.065   1.489
 3676SOL    HW111570   2.624   2.049   1.449
 3676SOL    HW211571   2.542   2.070   1.588
 3677SOL     OW11572   1.937   2.207   0.033
 3677SOL    HW111573   1.845   2.179   0.004
 3677SOL    HW211574   1.968   2.284  -0.023
 3678SOL     OW11575   3.302   2.718   1.398
 3678SOL    HW111576   3.245   2.770   1.335
 3678SOL    HW211577   3.398   2.730   1.374
 3679SOL     OW11578   1.934   2.028   0.318
 3679SOL    HW111579   1.917   2.111   0.264
 3679SOL    HW211580   2.024   1.991   0.296
 3680SOL     OW11581   3.045   3.197   0.119
 3680SOL    HW111582   2.946   3.186   0.121
 3680SOL    HW211583   3.079   3.212   0.212
 3681SOL     OW11584   3.355   3.629   0.959
 3681SOL    HW111585   3.388   3.693   0.890
 3681SOL    HW211586   3.421   3.623   1.034
 3682SOL     OW11587   3.312   3.082   1.633
 3682SOL    HW111588   3.303   3.072   1.732
 3682SOL    HW211589   3.408   3.075   1.607
 3683SOL     OW11590   2.252   3.603   1.560
 3683SOL    HW111591   2.161   3.644   1.558
 3683SOL    HW211592   2.245   3.509   1.592
 3684SOL     OW11593   3.536   2.745   1.254
 3684SOL    HW111594   3.509   2.656   1.217
 3684SOL    HW211595   3.537   2.813   1.181
 3685SOL     OW11596   3.087   2.187   0.449
 3685SOL    HW111597   3.152   2.113   0.438
 3685SOL    HW211598   3.107   2.237   0.533
 3686SOL     OW11599   3.639   2.204   1.642
 3686SOL    HW111600   3.622   2.235   1.548
 3686SOL    HW211601   3.555   2.167   1.680
 3687SOL     OW11602   3.592   2.796   1.517
 3687SOL    HW111603   3.630   2.887   1.532
 3687SOL    HW211604   3.584   2.779   1.418
 3688SOL     OW11605   2.721   3.236   0.016
 3688SOL    HW111606   2.675   3.251   0.104
 3688SOL    HW211607   2.765   3.321  -0.014
 3689SOL     OW11608   2.523   3.652   0.953
 3689SOL    HW111609   2.477   3.740   0.940
 3689SOL    HW211610   2.622   3.664   0.946
 3690SOL     OW11611   2.945   2.846   0.087
 3690SOL    HW111612   2.922   2.899   0.005
 3690SOL    HW211613   3.026   2.790   0.068
 3691SOL     OW11614   3.723   3.431   0.851
 3691SOL    HW111615   3.652   3.419   0.781
 3691SOL    HW211616   3.724   3.352   0.911
 3692SOL     OW11617   2.083   3.176   1.844
 3692SOL    HW111618   2.018   3.103   1.823
 3692SOL    HW211619   2.087   3.190   1.942
 3693SOL     OW11620   1.941   3.102   0.653
 3693SOL    HW111621   1.940   3.055   0.741
 3693SOL    HW211622   2.023   3.074   0.602
 3694SOL     OW11623   2.534   3.253   1.624
 3694SOL    HW111624   2.456   3.203   1.662
 3694SOL    HW211625   2.531   3.348   1.655
 3695SOL     OW11626   3.686   2.054   1.227
 3695SOL    HW111627   3.682   1.964   1.271
 3695SOL    HW211628   3.689   2.043   1.128
 3696SOL     OW11629   2.290   2.286   0.520
 3696SOL    HW111630   2.320   2.214   0.458
 3696SOL    HW211631   2.251   2.246   0.603
 3697SOL     OW11632   3.567   3.349   1.104
 3697SOL    HW111633   3.474   3.324   1.077
 3697SOL    HW211634   3.593   3.299   1.186
 3698SOL     OW11635   2.179   2.409   1.280
 3698SOL    HW111636   2.217   2.350   1.352
 3698SOL    HW211637   2.219   2.383   1.192
 3699SOL     OW11638   2.674   3.448   0.687
 3699SOL    HW111639   2.706   3.458   0.593
 3699SOL    HW211640   2.595   3.386   0.689
 3700SOL     OW11641   3.286   2.076   1.112
 3700SOL    HW111642   3.338   2.011   1.167
 3700SOL    HW211643   3.237   2.139   1.173
 3701SOL     OW11644   2.863   1.896   1.154
 3701SOL    HW111645   2.800   1.824   1.123
 3701SOL    HW211646   2.956   1.860   1.154
 3702SOL     OW11647   2.632   3.192   0.301
 3702SOL    HW111648   2.586   3.105   0.318
 3702SOL    HW211649   2.723   3.189   0.342
 3703SOL     OW11650   2.480   3.429   1.284
 3703SOL    HW111651   2.475   3.511   1.341
 3703SOL    HW211652   2.569   3.426   1.239
 3704SOL     OW11653   3.214   1.914   0.168
 3704SOL    HW111654   3.249   1.873   0.084
 3704SOL    HW211655   3.124   1.876   0.188
 3705SOL     OW11656   3.162   2.315   0.691
 3705SOL    HW111657   3.103   2.395   0.695
 3705SOL    HW211658   3.177   2.280   0.784
 3706SOL     OW11659   3.455   2.083   0.882
 3706SOL    HW111660   3.371   2.082   0.936
 3706SOL    HW211661   3.457   2.166   0.826
 3707SOL     OW11662   1.901   2.939   0.300
 3707SOL    HW111663   2.000   2.928   0.291
 3707SOL    HW211664   1.861   2.853   0.332
 3708SOL     OW11665   2.737   3.508   0.337
 3708SOL    HW111666   2.660   3.473   0.283
 3708SOL    HW211667   2.705   3.579   0.399
 3709SOL     OW11668   2.092   2.490   1.975
 3709SOL    HW111669   1.999   2.488   2.012
 3709SOL    HW211670   2.093   2.451   1.883
 3710SOL     OW11671   2.087   2.137   2.858
 3710SOL    HW111672   2.122   2.120   2.950
 3710SOL    HW211673   1.999   2.092   2.846
 3711SOL     OW11674   1.881   2.230   2.509
 3711SOL    HW111675   1.799   2.273   2.548
 3711SOL    HW211676   1.853   2.157   2.446
 3712SOL     OW11677   2.431   3.137   3.027
 3712SOL    HW111678   2.338   3.130   2.990
 3712SOL    HW211679   2.442   3.226   3.071
 3713SOL     OW11680   3.417   3.373   2.565
 3713SOL    HW111681   3.360   3.357   2.646
 3713SOL    HW211682   3.358   3.383   2.485
 3714SOL     OW11683   2.997   2.565   2.579
 3714SOL    HW111684   3.054   2.643   2.554
 3714SOL    HW211685   2.937   2.591   2.655
 3715SOL     OW11686   3.617   2.469   2.093
 3715SOL    HW111687   3.605   2.456   1.994
 3715SOL    HW211688   3.587   2.388   2.142
 3716SOL     OW11689   2.630   3.006   2.885
 3716SOL    HW111690   2.552   3.023   2.945
 3716SOL    HW211691   2.664   3.093   2.849
 3717SOL     OW11692   2.197   3.297   2.923
 3717SOL    HW111693   2.119   3.266   2.870
 3717SOL    HW211694   2.255   3.355   2.866
 3718SOL     OW11695   3.322   3.367   3.201
 3718SOL    HW111696   3.346   3.461   3.227
 3718SOL    HW211697   3.306   3.313   3.283
 3719SOL     OW11698   3.465   2.309   2.599
 3719SOL    HW111699   3.391   2.355   2.549
 3719SOL    HW211700   3.516   2.377   2.652
 3720SOL     OW11701   2.093   3.575   2.345
 3720SOL    HW111702   2.127   3.652   2.399
 3720SOL    HW211703   2.137   3.575   2.255
 3721SOL     OW11704   2.092   3.296   2.400
 3721SOL    HW111705   2.066   3.392   2.400
 3721SOL    HW211706   2.021   3.242   2.445
 3722SOL     OW11707   2.102   2.953   2.748
 3722SOL    HW111708   2.116   2.869   2.800
 3722SOL    HW211709   2.047   3.017   2.803
 3723SOL     OW11710   2.482   3.648   3.301
 3723SOL    HW111711   2.390   3.631   3.336
 3723SOL    HW211712   2.510   3.740   3.327
 3724SOL     OW11713   2.468   2.826   1.985
 3724SOL    HW111714   2.475   2.910   1.931
 3724SOL    HW211715   2.514   2.839   2.073
 3725SOL     OW11716   3.456   1.976   3.342
 3725SOL    HW111717   3.438   2.043   3.270
 3725SOL    HW211718   3.453   2.022   3.431
 3726SOL     OW11719   1.984   2.505   2.425
 3726SOL    HW111720   1.939   2.417   2.442
 3726SOL    HW211721   1.983   2.559   2.509
 3727SOL     OW11722   3.704   3.629   2.221
 3727SOL    HW111723   3.758   3.600   2.301
 3727SOL    HW211724   3.734   3.719   2.192
 3728SOL     OW11725   1.889   3.458   1.979
 3728SOL    HW111726   1.870   3.362   2.000
 3728SOL    HW211727   1.856   3.516   2.054
 3729SOL     OW11728   3.551   2.784   2.474
 3729SOL    HW111729   3.646   2.755   2.482
 3729SOL    HW211730   3.543   2.849   2.399
 3730SOL     OW11731   3.503   2.970   2.294
 3730SOL    HW111732   3.589   2.972   2.242
 3730SOL    HW211733   3.517   3.017   2.382
 3731SOL     OW11734   2.475   3.227   2.588
 3731SOL    HW111735   2.426   3.140   2.597
 3731SOL    HW211736   2.452   3.270   2.501
 3732SOL     OW11737   2.671   1.866   2.364
 3732SOL    HW111738   2.711   1.957   2.355
 3732SOL    HW211739   2.571   1.874   2.370
 3733SOL     OW11740   3.387   2.861   2.052
 3733SOL    HW111741   3.324   2.785   2.065
 3733SOL    HW211742   3.435   2.879   2.138
 3734SOL     OW11743   3.049   3.654   3.478
 3734SOL    HW111744   3.073   3.714   3.402
 3734SOL    HW211745   3.056   3.559   3.448
 3735SOL     OW11746   3.328   3.279   2.815
 3735SOL    HW111747   3.269   3.285   2.895
 3735SOL    HW211748   3.313   3.191   2.769
 3736SOL     OW11749   3.529   3.576   2.434
 3736SOL    HW111750   3.488   3.553   2.346
 3736SOL    HW211751   3.511   3.502   2.499
 3737SOL     OW11752   3.143   2.207   2.806
 3737SOL    HW111753   3.057   2.157   2.793
 3737SOL    HW211754   3.205   2.153   2.862
 3738SOL     OW11755   3.438   3.524   2.169
 3738SOL    HW111756   3.527   3.570   2.172
 3738SOL    HW211757   3.417   3.500   2.074
 3739SOL     OW11758   2.853   2.272   3.104
 3739SOL    HW111759   2.776   2.306   3.158
 3739SOL    HW211760   2.819   2.221   3.025
 3740SOL     OW11761   1.938   2.673   2.651
 3740SOL    HW111762   2.037   2.661   2.660
 3740SOL    HW211763   1.914   2.768   2.672
 3741SOL     OW11764   1.992   3.683   3.433
 3741SOL    HW111765   1.982   3.668   3.532
 3741SOL    HW211766   1.906   3.719   3.397
 3742SOL     OW11767   2.727   2.210   2.057
 3742SOL    HW111768   2.786   2.273   2.008
 3742SOL    HW211769   2.746   2.116   2.028
 3743SOL     OW11770   3.581   2.447   3.693
 3743SOL    HW111771   3.555   2.536   3.657
 3743SOL    HW211772   3.579   2.379   3.620
 3744SOL     OW11773   3.224   3.006   2.407
 3744SOL    HW111774   3.307   2.977   2.359
 3744SOL    HW211775   3.175   3.073   2.351
 3745SOL     OW11776   2.412   2.058   2.747
 3745SOL    HW111777   2.407   2.053   2.847
 3745SOL    HW211778   2.414   2.154   2.718
 3746SOL     OW11779   2.870   3.318   2.339
 3746SOL    HW111780   2.824   3.390   2.287
 3746SOL    HW211781   2.866   3.338   2.437
 3747SOL     OW11782   2.213   3.663   2.715
 3747SOL    HW111783   2.263   3.577   2.721
 3747SOL    HW211784   2.278   3.740   2.712
 3748SOL     OW11785   3.657   2.928   2.735
 3748SOL    HW111786   3.595   2.913   2.659
 3748SOL    HW211787   3.605   2.939   2.820
 3749SOL     OW11788   2.183   2.805   2.104
 3749SOL    HW111789   2.265   2.844   2.062
 3749SOL    HW211790   2.156   2.723   2.055
 3750SOL     OW11791   3.320   2.597   2.590
 3750SOL    HW111792   3.315   2.532   2.665
 3750SOL    HW211793   3.400   2.656   2.603
 3751SOL     OW11794   2.973   3.638   2.099
 3751SOL    HW111795   2.913   3.576   2.149
 3751SOL    HW211796   3.004   3.594   2.014
 3752SOL     OW11797   3.494   3.239   1.943
 3752SOL    HW111798   3.462   3.333   1.933
 3752SOL    HW211799   3.418   3.176   1.931
 3753SOL     OW11800   2.326   3.605   2.185
 3753SOL    HW111801   2.359   3.644   2.271
 3753SOL    HW211802   2.402   3.598   2.120
 3754SOL     OW11803   3.262   1.969   2.288
 3754SOL    HW111804   3.238   1.932   2.198
 3754SOL    HW211805   3.361   1.985   2.292
 3755SOL     OW11806   2.111   3.647   3.103
 3755SOL    HW111807   2.168   3.582   3.153
 3755SOL    HW211808   2.095   3.614   3.010
 3756SOL     OW11809   2.802   3.560   2.766
 3756SOL    HW111810   2.882   3.503   2.787
 3756SOL    HW211811   2.753   3.520   2.689
 3757SOL     OW11812   2.244   2.562   2.342
 3757SOL    HW111813   2.289   2.472   2.339
 3757SOL    HW211814   2.150   2.551   2.375
 3758SOL     OW11815   3.409   2.084   3.591
 3758SOL    HW111816   3.404   2.121   3.683
 3758SOL    HW211817   3.337   2.015   3.579
 3759SOL     OW11818   2.476   1.984   1.979
 3759SOL    HW111819   2.574   1.962   1.986
 3759SOL    HW211820   2.445   1.967   1.886
 3760SOL     OW11821   2.750   3.376   3.057
 3760SOL    HW111822   2.727   3.351   2.963
 3760SOL    HW211823   2.811   3.307   3.096
 3761SOL     OW11824   2.665   3.264   2.786
 3761SOL    HW111825   2.755   3.278   2.744
 3761SOL    HW211826   2.594   3.266   2.715
 3762SOL     OW11827   2.784   2.365   2.761
 3762SOL    HW111828   2.759   2.356   2.665
 3762SOL    HW211829   2.832   2.283   2.792
 3763SOL     OW11830   2.401   1.926   2.374
 3763SOL    HW111831   2.320   1.927   2.432
 3763SOL    HW211832   2.404   2.009   2.319
 3764SOL     OW11833   3.296   3.050   1.903
 3764SOL    HW111834   3.328   2.974   1.960
 3764SOL    HW211835   3.204   3.077   1.933
 3765SOL     OW11836   2.159   1.897   2.033
 3765SOL    HW111837   2.208   1.981   2.012
 3765SOL    HW211838   2.221   1.832   2.078
 3766SOL     OW11839   2.797   2.098   2.342
 3766SOL    HW111840   2.749   2.139   2.264
 3766SOL    HW211841   2.896   2.096   2.323
 3767SOL     OW11842   2.938   2.545   3.326
 3767SOL    HW111843   2.858   2.484   3.329
 3767SOL    HW211844   3.019   2.492   3.302
 3768SOL     OW11845   3.089   3.432   2.655
 3768SOL    HW111846   3.110   3.506   2.590
 3768SOL    HW211847   3.157   3.432   2.728
 3769SOL     OW11848   2.321   3.014   2.603
 3769SOL    HW111849   2.250   2.987   2.668
 3769SOL    HW211850   2.295   2.986   2.510
 3770SOL     OW11851   3.133   3.659   2.453
 3770SOL    HW111852   3.177   3.723   2.389
 3770SOL    HW211853   3.083   3.711   2.523
 3771SOL     OW11854   2.894   2.411   1.878
 3771SOL    HW111855   2.853   2.493   1.839
 3771SOL    HW211856   2.958   2.437   1.951
 3772SOL     OW11857   2.423   2.084   3.009
 3772SOL    HW111858   2.461   2.000   3.046
 3772SOL    HW211859   2.335   2.103   3.053
 3773SOL     OW11860   2.728   2.316   2.504
 3773SOL    HW111861   2.696   2.388   2.442
 3773SOL    HW211862   2.752   2.235   2.451
 3774SOL     OW11863   2.879   1.901   2.615
 3774SOL    HW111864   2.807   1.906   2.546
 3774SOL    HW211865   2.855   1.832   2.684
 3775SOL     OW11866   3.291   3.035   2.729
 3775SOL    HW111867   3.236   2.951   2.722
 3775SOL    HW211868   3.317   3.064   2.637
 3776SOL     OW11869   3.328   2.452   2.854
 3776SOL    HW111870   3.298   2.357   2.861
 3776SOL    HW211871   3.401   2.468   2.920
 3777SOL     OW11872   3.719   2.695   2.239
 3777SOL    HW111873   3.761   2.631   2.303
 3777SOL    HW211874   3.681   2.644   2.161
 3778SOL     OW11875   2.350   3.247   2.036
 3778SOL    HW111876   2.263   3.232   2.083
 3778SOL    HW211877   2.333   3.273   1.941
 3779SOL     OW11878   3.526   3.142   2.519
 3779SOL    HW111879   3.625   3.150   2.533
 3779SOL    HW211880   3.481   3.226   2.550
 3780SOL     OW11881   3.252   2.437   1.940
 3780SOL    HW111882   3.198   2.416   2.021
 3780SOL    HW211883   3.343   2.396   1.949
 3781SOL     OW11884   2.389   2.118   2.190
 3781SOL    HW111885   2.416   2.059   2.115
 3781SOL    HW211886   2.389   2.213   2.159
 3782SOL     OW11887   3.616   3.085   3.450
 3782SOL    HW111888   3.707   3.046   3.437
 3782SOL    HW211889   3.624   3.181   3.474
 3783SOL     OW11890   3.454   3.491   3.487
 3783SOL    HW111891   3.481   3.525   3.397
 3783SOL    HW211892   3.533   3.453   3.533
 3784SOL     OW11893   2.973   3.057   2.962
 3784SOL    HW111894   2.933   3.101   3.043
 3784SOL    HW211895   2.932   3.094   2.879
 3785SOL     OW11896   3.500   2.961   2.941
 3785SOL    HW111897   3.505   3.042   3.000
 3785SOL    HW211898   3.414   2.963   2.890
 3786SOL     OW11899   2.842   2.978   3.581
 3786SOL    HW111900   2.743   2.984   3.591
 3786SOL    HW211901   2.865   2.898   3.525
 3787SOL     OW11902   2.272   2.675   3.113
 3787SOL    HW111903   2.358   2.687   3.163
 3787SOL    HW211904   2.230   2.588   3.140
 3788SOL     OW11905   1.926   3.426   3.193
 3788SOL    HW111906   1.880   3.508   3.159
 3788SOL    HW211907   2.024   3.445   3.202
 3789SOL     OW11908   2.229   2.962   2.363
 3789SOL    HW111909   2.222   3.045   2.307
 3789SOL    HW211910   2.233   2.882   2.303
 3790SOL     OW11911   2.428   2.399   2.727
 3790SOL    HW111912   2.440   2.465   2.653
 3790SOL    HW211913   2.474   2.433   2.810
 3791SOL     OW11914   3.114   3.210   2.250
 3791SOL    HW111915   3.164   3.287   2.290
 3791SOL    HW211916   3.019   3.212   2.282
 3792SOL     OW11917   3.134   3.307   3.004
 3792SOL    HW111918   3.181   3.320   3.091
 3792SOL    HW211919   3.068   3.233   3.013
 3793SOL     OW11920   3.444   2.501   2.334
 3793SOL    HW111921   3.413   2.562   2.407
 3793SOL    HW211922   3.494   2.553   2.265
 3794SOL     OW11923   2.216   3.372   3.191
 3794SOL    HW111924   2.195   3.328   3.104
 3794SOL    HW211925   2.313   3.398   3.194
 3795SOL     OW11926   2.264   2.613   3.460
 3795SOL    HW111927   2.332   2.668   3.413
 3795SOL    HW211928   2.304   2.525   3.487
 3796SOL     OW11929   3.222   2.724   2.907
 3796SOL    HW111930   3.147   2.724   2.841
 3796SOL    HW211931   3.259   2.632   2.916
 3797SOL     OW11932   3.071   2.387   2.137
 3797SOL    HW111933   3.084   2.303   2.191
 3797SOL    HW211934   3.042   2.461   2.197
 3798SOL     OW11935   1.899   3.172   3.144
 3798SOL    HW111936   1.952   3.123   3.212
 3798SOL    HW211937   1.921   3.270   3.149
 3799SOL     OW11938   3.590   2.797   3.716
 3799SOL    HW111939   3.544   2.790   3.627
 3799SOL    HW211940   3.528   2.841   3.782
 3800SOL     OW11941   2.169   1.925   2.480
 3800SOL    HW111942   2.158   2.019   2.513
 3800SOL    HW211943   2.164   1.862   2.557
 3801SOL     OW11944   3.484   2.229   2.236
 3801SOL    HW111945   3.486   2.153   2.300
 3801SOL    HW211946   3.436   2.306   2.276
 3802SOL     OW11947   3.721   3.380   3.467
 3802SOL    HW111948   3.735   3.407   3.372
 3802SOL    HW211949   3.804   3.402   3.520
 3803SOL     OW11950   3.402   2.136   1.987
 3803SOL    HW111951   3.341   2.061   2.010
 3803SOL    HW211952   3.424   2.188   2.070
 3804SOL     OW11953   3.165   2.700   1.904
 3804SOL    HW111954   3.199   2.607   1.919
 3804SOL    HW211955   3.183   2.727   1.809
 3805SOL     OW11956   2.930   3.195   2.711
 3805SOL    HW111957   2.937   3.111   2.656
 3805SOL    HW211958   2.992   3.264   2.675
 3806SOL     OW11959   2.181   2.672   2.811
 3806SOL    HW111960   2.274   2.708   2.816
 3806SOL    HW211961   2.175   2.587   2.863
 3807SOL     OW11962   2.201   2.371   2.868
 3807SOL    HW111963   2.149   2.288   2.851
 3807SOL    HW211964   2.278   2.376   2.804
 3808SOL     OW11965   1.870   3.188   2.062
 3808SOL    HW111966   1.777   3.209   2.031
 3808SOL    HW211967   1.880   3.089   2.075
 3809SOL     OW11968   1.950   3.663   2.789
 3809SOL    HW111969   1.908   3.577   2.762
 3809SOL    HW211970   2.044   3.666   2.755
 3810SOL     OW11971   2.366   3.430   2.772
 3810SOL    HW111972   2.432   3.504   2.781
 3810SOL    HW211973   2.410   3.351   2.730
 3811SOL     OW11974   1.902   2.406   2.976
 3811SOL    HW111975   1.987   2.373   2.935
 3811SOL    HW211976   1.915   2.421   3.074
 3812SOL     OW11977   2.677   2.434   2.187
 3812SOL    HW111978   2.684   2.345   2.141
 3812SOL    HW211979   2.583   2.468   2.179
 3813SOL     OW11980   3.519   2.466   3.068
 3813SOL    HW111981   3.481   2.397   3.130
 3813SOL    HW211982   3.601   2.430   3.024
 3814SOL     OW11983   2.114   3.426   3.606
 3814SOL    HW111984   2.084   3.483   3.682
 3814SOL    HW211985   2.107   3.329   3.632
 3815SOL     OW11986   2.792   3.540   3.327
 3815SOL    HW111987   2.768   3.522   3.232
 3815SOL    HW211988   2.822   3.634   3.337
 3816SOL     OW11989   2.335   2.362   2.053
 3816SOL    HW111990   2.396   2.442   2.057
 3816SOL    HW211991   2.240   2.393   2.060
 3817SOL     OW11992   3.164   2.717   2.171
 3817SOL    HW111993   3.078   2.686   2.213
 3817SOL    HW211994   3.160   2.703   2.072
 3818SOL     OW11995   3.621   3.609   3.016
 3818SOL    HW111996   3.682   3.639   2.943
 3818SOL    HW211997   3.583   3.520   2.994
 3819SOL     OW11998   3.114   3.593   2.990
 3819SOL    HW111999   3.198   3.598   2.936
 3819SOL    HW212000   3.091   3.497   3.008
 3820SOL     OW12001   1.945   3.120   2.884
 3820SOL    HW112002   1.940   3.119   2.984
 3820SOL    HW212003   1.862   3.079   2.846
 3821SOL     OW12004   2.550   3.524   3.578
 3821SOL    HW112005   2.494   3.605   3.587
 3821SOL    HW212006   2.602   3.528   3.492
 3822SOL     OW12007   3.588   1.997   2.385
 3822SOL    HW112008   3.661   1.980   2.318
 3822SOL    HW212009   3.557   1.910   2.423
 3823SOL     OW12010   3.250   3.435   2.339
 3823SOL    HW112011   3.317   3.447   2.265
 3823SOL    HW212012   3.210   3.524   2.362
 3824SOL     OW12013   1.992   3.656   3.713
 3824SOL    HW112014   1.951   3.582   3.766
 3824SOL    HW212015   2.056   3.707   3.771
 3825SOL     OW12016   3.142   2.789   2.534
 3825SOL    HW112017   3.202   2.708   2.536
 3825SOL    HW212018   3.182   2.858   2.474
 3826SOL     OW12019   2.534   3.478   2.016
 3826SOL    HW112020   2.543   3.488   1.917
 3826SOL    HW212021   2.494   3.389   2.037
 3827SOL     OW12022   3.512   3.582   3.256
 3827SOL    HW112023   3.565   3.592   3.172
 3827SOL    HW212024   3.485   3.672   3.290
 3828SOL     OW12025   3.703   2.037   2.825
 3828SOL    HW112026   3.742   1.952   2.789
 3828SOL    HW212027   3.605   2.039   2.806
 3829SOL     OW12028   2.125   2.188   2.582
 3829SOL    HW112029   2.046   2.239   2.548
 3829SOL    HW212030   2.116   2.173   2.680
 3830SOL     OW12031   3.056   3.474   1.893
 3830SOL    HW112032   3.062   3.381   1.930
 3830SOL    HW212033   2.997   3.474   1.813
 3831SOL     OW12034   3.366   3.469   1.906
 3831SOL    HW112035   3.274   3.506   1.913
 3831SOL    HW212036   3.404   3.489   1.816
 3832SOL     OW12037   3.476   3.154   3.151
 3832SOL    HW112038   3.536   3.157   3.231
 3832SOL    HW212039   3.401   3.218   3.164
 3833SOL     OW12040   2.901   2.960   2.558
 3833SOL    HW112041   2.831   2.913   2.612
 3833SOL    HW212042   2.960   2.892   2.515
 3834SOL     OW12043   2.876   2.098   2.833
 3834SOL    HW112044   2.868   2.062   2.740
 3834SOL    HW212045   2.874   2.022   2.898
 3835SOL     OW12046   2.452   3.349   2.353
 3835SOL    HW112047   2.494   3.291   2.283
 3835SOL    HW212048   2.408   3.428   2.309
 3836SOL     OW12049   3.571   2.247   3.243
 3836SOL    HW112050   3.644   2.316   3.247
 3836SOL    HW212051   3.599   2.172   3.184
 3837SOL     OW12052   2.117   3.210   2.152
 3837SOL    HW112053   2.021   3.211   2.125
 3837SOL    HW212054   2.129   3.263   2.236
 3838SOL     OW12055   1.937   2.207   1.895
 3838SOL    HW112056   1.845   2.179   1.866
 3838SOL    HW212057   1.968   2.284   1.839
 3839SOL     OW12058   1.934   2.028   2.180
 3839SOL    HW112059   1.917   2.111   2.126
 3839SOL    HW212060   2.024   1.991   2.158
 3840SOL     OW12061   3.045   3.197   1.981
 3840SOL    HW112062   2.946   3.186   1.983
 3840SOL    HW212063   3.079   3.212   2.074
 3841SOL     OW12064   3.355   3.629   2.821
 3841SOL    HW112065   3.388   3.693   2.752
 3841SOL    HW212066   3.421   3.623   2.896
 3842SOL     OW12067   2.252   3.603   3.422
 3842SOL    HW112068   2.161   3.644   3.420
 3842SOL    HW212069   2.245   3.509   3.454
 3843SOL     OW12070   3.536   2.745   3.116
 3843SOL    HW112071   3.509   2.656   3.079
 3843SOL    HW212072   3.537   2.813   3.043
 3844SOL     OW12073   3.087   2.187   2.311
 3844SOL    HW112074   3.152   2.113   2.300
 3844SOL    HW212075   3.107   2.237   2.395
 3845SOL     OW12076   3.639   2.204   3.504
 3845SOL    HW112077   3.622   2.235   3.410
 3845SOL    HW212078   3.555   2.167   3.542
 3846SOL     OW12079   3.592   2.796   3.379
 3846SOL    HW112080   3.630   2.887   3.394
 3846SOL    HW212081   3.584   2.779   3.280
 3847SOL     OW12082   2.721   3.236   1.878
 3847SOL    HW112083   2.675   3.251   1.966
 3847SOL    HW212084   2.765   3.321   1.848
 3848SOL     OW12085   2.523   3.652   2.815
 3848SOL    HW112086   2.477   3.740   2.802
 3848SOL    HW212087   2.622   3.664   2.808
 3849SOL     OW12088   2.945   2.846   1.949
 3849SOL    HW112089   2.922   2.899   1.867
 3849SOL    HW212090   3.026   2.790   1.930
 3850SOL     OW12091   3.723   3.431   2.713
 3850SOL    HW112092   3.652   3.419   2.643
 3850SOL    HW212093   3.724   3.352   2.773
 3851SOL     OW12094   1.941   3.102   2.515
 3851SOL    HW112095   1.940   3.055   2.603
 3851SOL    HW212096   2.023   3.074   2.464
 3852SOL     OW12097   3.686   2.054   3.089
 3852SOL    HW112098   3.682   1.964   3.133
 3852SOL    HW212099   3.689   2.043   2.990
 3853SOL     OW12100   2.290   2.286   2.382
 3853SOL    HW112101   2.320   2.214   2.320
 3853SOL    HW212102   2.251   2.246   2.465
 3854SOL     OW12103   3.567   3.349   2.966
 3854SOL    HW112104   3.474   3.324   2.939
 3854SOL    HW212105   3.593   3.299   3.048
 3855SOL     OW12106   2.674   3.448   2.549
 3855SOL    HW112107   2.706   3.458   2.455
 3855SOL    HW212108   2.595   3.386   2.551
 3856SOL     OW12109   3.286   2.076   2.974
 3856SOL    HW112110   3.338   2.011   3.029
 3856SOL    HW212111   3.237   2.139   3.035
 3857SOL     OW12112   2.863   1.896   3.016
 3857SOL    HW112113   2.800   1.824   2.985
 3857SOL    HW212114   2.956   1.860   3.016
 3858SOL     OW12115   2.632   3.192   2.163
 3858SOL    HW112116   2.586   3.105   2.180
 3858SOL    HW212117   2.723   3.189   2.204
 3859SOL     OW12118   2.480   3.429   3.146
 3859SOL    HW112119   2.475   3.511   3.203
 3859SOL    HW212120   2.569   3.426   3.101
 3860SOL     OW12121   3.214   1.914   2.030
 3860SOL    HW112122   3.249   1.873   1.946
 3860SOL    HW212123   3.124   1.876   2.050
 3861SOL     OW12124   3.162   2.315   2.553
 3861SOL    HW112125   3.103   2.395   2.557
 3861SOL    HW212126   3.177   2.280   2.646
 3862SOL     OW12127   3.455   2.083   2.744
 3862SOL    HW112128   3.371   2.082   2.798
 3862SOL    HW212129   3.457   2.166   2.688
 3863SOL     OW12130   1.901   2.939   2.162
 3863SOL    HW112131   2.000   2.928   2.153
 3863SOL    HW212132   1.861   2.853   2.194
 3864SOL     OW12133   2.737   3.508   2.199
 3864SOL    HW112134   2.660   3.473   2.145
 3864SOL    HW212135   2.705   3.579   2.261
 3865SOL     OW12136   3.417   3.373   4.427
 3865SOL    HW112137   3.360   3.357   4.508
 3865SOL    HW212138   3.358   3.383   4.347
 3866SOL     OW12139   2.997   2.565   4.441
 3866SOL    HW112140   3.054   2.643   4.416
 3866SOL    HW212141   2.937   2.591   4.517
 3867SOL     OW12142   3.617   2.469   3.955
 3867SOL    HW112143   3.605   2.456   3.856
 3867SOL    HW212144   3.587   2.388   4.004
 3868SOL     OW12145   2.548   3.023   5.527
 3868SOL    HW112146   2.608   3.102   5.541
 3868SOL    HW212147   2.462   3.054   5.486
 3869SOL     OW12148   3.322   3.367   5.063
 3869SOL    HW112149   3.346   3.461   5.089
 3869SOL    HW212150   3.306   3.313   5.145
 3870SOL     OW12151   2.300   2.254   5.223
 3870SOL    HW112152   2.382   2.198   5.232
 3870SOL    HW212153   2.219   2.196   5.227
 3871SOL     OW12154   2.093   3.575   4.207
 3871SOL    HW112155   2.127   3.652   4.261
 3871SOL    HW212156   2.137   3.575   4.117
 3872SOL     OW12157   2.989   3.203   5.414
 3872SOL    HW112158   3.036   3.203   5.502
 3872SOL    HW212159   2.941   3.116   5.403
 3873SOL     OW12160   2.092   3.296   4.262
 3873SOL    HW112161   2.066   3.392   4.262
 3873SOL    HW212162   2.021   3.242   4.307
 3874SOL     OW12163   2.482   3.648   5.163
 3874SOL    HW112164   2.390   3.631   5.198
 3874SOL    HW212165   2.510   3.740   5.189
 3875SOL     OW12166   2.468   2.826   3.847
 3875SOL    HW112167   2.475   2.910   3.793
 3875SOL    HW212168   2.514   2.839   3.935
 3876SOL     OW12169   3.456   1.976   5.204
 3876SOL    HW112170   3.438   2.043   5.132
 3876SOL    HW212171   3.453   2.022   5.293
 3877SOL     OW12172   3.704   3.629   4.083
 3877SOL    HW112173   3.758   3.600   4.163
 3877SOL    HW212174   3.734   3.719   4.054
 3878SOL     OW12175   1.889   3.458   3.841
 3878SOL    HW112176   1.870   3.362   3.862
 3878SOL    HW212177   1.856   3.516   3.916
 3879SOL     OW12178   3.551   2.784   4.336
 3879SOL    HW112179   3.646   2.755   4.344
 3879SOL    HW212180   3.543   2.849   4.261
 3880SOL     OW12181   3.503   2.970   4.156
 3880SOL    HW112182   3.589   2.972   4.104
 3880SOL    HW212183   3.517   3.017   4.244
 3881SOL     OW12184   1.975   2.599   5.321
 3881SOL    HW112185   2.063   2.586   5.366
 3881SOL    HW212186   1.962   2.696   5.299
 3882SOL     OW12187   3.155   3.090   5.147
 3882SOL    HW112188   3.192   3.017   5.089
 3882SOL    HW212189   3.207   3.095   5.232
 3883SOL     OW12190   2.059   2.838   4.988
 3883SOL    HW112191   2.148   2.793   4.974
 3883SOL    HW212192   1.986   2.773   4.969
 3884SOL     OW12193   3.049   3.654   5.340
 3884SOL    HW112194   3.073   3.714   5.264
 3884SOL    HW212195   3.056   3.559   5.310
 3885SOL     OW12196   2.179   2.113   5.525
 3885SOL    HW112197   2.250   2.184   5.531
 3885SOL    HW212198   2.091   2.152   5.553
 3886SOL     OW12199   3.328   3.279   4.677
 3886SOL    HW112200   3.269   3.285   4.757
 3886SOL    HW212201   3.313   3.191   4.631
 3887SOL     OW12202   3.529   3.576   4.296
 3887SOL    HW112203   3.488   3.553   4.208
 3887SOL    HW212204   3.511   3.502   4.361
 3888SOL     OW12205   3.438   3.524   4.031
 3888SOL    HW112206   3.527   3.570   4.034
 3888SOL    HW212207   3.417   3.500   3.936
 3889SOL     OW12208   3.256   2.331   5.398
 3889SOL    HW112209   3.236   2.374   5.486
 3889SOL    HW212210   3.334   2.269   5.407
 3890SOL     OW12211   2.903   2.563   4.153
 3890SOL    HW112212   2.929   2.559   4.249
 3890SOL    HW212213   2.818   2.512   4.139
 3891SOL     OW12214   1.992   3.683   5.295
 3891SOL    HW112215   1.982   3.668   5.394
 3891SOL    HW212216   1.906   3.719   5.259
 3892SOL     OW12217   2.727   2.210   3.919
 3892SOL    HW112218   2.786   2.273   3.870
 3892SOL    HW212219   2.746   2.116   3.890
 3893SOL     OW12220   3.581   2.447   5.555
 3893SOL    HW112221   3.555   2.536   5.519
 3893SOL    HW212222   3.579   2.379   5.482
 3894SOL     OW12223   2.213   3.663   4.577
 3894SOL    HW112224   2.263   3.577   4.583
 3894SOL    HW212225   2.278   3.740   4.574
 3895SOL     OW12226   3.657   2.928   4.597
 3895SOL    HW112227   3.595   2.913   4.521
 3895SOL    HW212228   3.605   2.939   4.682
 3896SOL     OW12229   3.089   3.412   5.230
 3896SOL    HW112230   3.095   3.335   5.294
 3896SOL    HW212231   3.037   3.386   5.150
 3897SOL     OW12232   2.183   2.805   3.966
 3897SOL    HW112233   2.265   2.844   3.924
 3897SOL    HW212234   2.156   2.723   3.917
 3898SOL     OW12235   2.323   3.128   5.451
 3898SOL    HW112236   2.273   3.129   5.365
 3898SOL    HW212237   2.260   3.110   5.527
 3899SOL     OW12238   2.973   3.638   3.961
 3899SOL    HW112239   2.913   3.576   4.011
 3899SOL    HW212240   3.004   3.594   3.876
 3900SOL     OW12241   2.064   2.147   5.222
 3900SOL    HW112242   1.984   2.207   5.209
 3900SOL    HW212243   2.054   2.098   5.308
 3901SOL     OW12244   3.494   3.239   3.805
 3901SOL    HW112245   3.462   3.333   3.795
 3901SOL    HW212246   3.418   3.176   3.793
 3902SOL     OW12247   2.326   3.605   4.047
 3902SOL    HW112248   2.359   3.644   4.133
 3902SOL    HW212249   2.402   3.598   3.982
 3903SOL     OW12250   3.262   1.969   4.150
 3903SOL    HW112251   3.238   1.932   4.060
 3903SOL    HW212252   3.361   1.985   4.154
 3904SOL     OW12253   2.111   3.647   4.965
 3904SOL    HW112254   2.168   3.582   5.015
 3904SOL    HW212255   2.095   3.614   4.872
 3905SOL     OW12256   3.409   2.084   5.453
 3905SOL    HW112257   3.404   2.121   5.545
 3905SOL    HW212258   3.337   2.015   5.441
 3906SOL     OW12259   2.643   2.126   5.473
 3906SOL    HW112260   2.710   2.065   5.516
 3906SOL    HW212261   2.570   2.145   5.538
 3907SOL     OW12262   3.213   2.452   5.157
 3907SOL    HW112263   3.241   2.409   5.242
 3907SOL    HW212264   3.238   2.548   5.158
 3908SOL     OW12265   2.159   1.897   3.895
 3908SOL    HW112266   2.208   1.981   3.874
 3908SOL    HW212267   2.221   1.832   3.940
 3909SOL     OW12268   2.797   2.098   4.204
 3909SOL    HW112269   2.749   2.139   4.126
 3909SOL    HW212270   2.896   2.096   4.185
 3910SOL     OW12271   2.938   2.545   5.188
 3910SOL    HW112272   2.858   2.484   5.191
 3910SOL    HW212273   3.019   2.492   5.164
 3911SOL     OW12274   3.133   3.659   4.315
 3911SOL    HW112275   3.177   3.723   4.251
 3911SOL    HW212276   3.083   3.711   4.385
 3912SOL     OW12277   2.894   2.411   3.740
 3912SOL    HW112278   2.853   2.493   3.701
 3912SOL    HW212279   2.958   2.437   3.813
 3913SOL     OW12280   1.940   2.418   5.110
 3913SOL    HW112281   2.032   2.417   5.069
 3913SOL    HW212282   1.934   2.492   5.177
 3914SOL     OW12283   2.728   2.316   4.366
 3914SOL    HW112284   2.696   2.388   4.304
 3914SOL    HW212285   2.752   2.235   4.313
 3915SOL     OW12286   3.719   2.695   4.101
 3915SOL    HW112287   3.761   2.631   4.165
 3915SOL    HW212288   3.681   2.644   4.023
 3916SOL     OW12289   3.526   3.142   4.381
 3916SOL    HW112290   3.625   3.150   4.395
 3916SOL    HW212291   3.481   3.226   4.412
 3917SOL     OW12292   2.389   2.118   4.052
 3917SOL    HW112293   2.416   2.059   3.977
 3917SOL    HW212294   2.389   2.213   4.021
 3918SOL     OW12295   3.616   3.085   5.312
 3918SOL    HW112296   3.707   3.046   5.299
 3918SOL    HW212297   3.624   3.181   5.336
 3919SOL     OW12298   2.926   3.209   5.064
 3919SOL    HW112299   2.846   3.186   5.119
 3919SOL    HW212300   3.009   3.183   5.113
 3920SOL     OW12301   3.454   3.491   5.349
 3920SOL    HW112302   3.481   3.525   5.259
 3920SOL    HW212303   3.533   3.453   5.395
 3921SOL     OW12304   3.500   2.961   4.803
 3921SOL    HW112305   3.505   3.042   4.862
 3921SOL    HW212306   3.414   2.963   4.752
 3922SOL     OW12307   2.777   1.951   5.126
 3922SOL    HW112308   2.802   1.931   5.031
 3922SOL    HW212309   2.849   2.007   5.168
 3923SOL     OW12310   2.842   2.978   5.443
 3923SOL    HW112311   2.743   2.984   5.453
 3923SOL    HW212312   2.865   2.898   5.387
 3924SOL     OW12313   2.567   2.912   4.092
 3924SOL    HW112314   2.553   2.919   4.191
 3924SOL    HW212315   2.651   2.861   4.074
 3925SOL     OW12316   2.272   2.675   4.975
 3925SOL    HW112317   2.358   2.687   5.025
 3925SOL    HW212318   2.230   2.588   5.002
 3926SOL     OW12319   1.926   3.426   5.055
 3926SOL    HW112320   1.880   3.508   5.021
 3926SOL    HW212321   2.024   3.445   5.064
 3927SOL     OW12322   2.229   2.962   4.225
 3927SOL    HW112323   2.222   3.045   4.169
 3927SOL    HW212324   2.233   2.882   4.165
 3928SOL     OW12325   2.428   2.399   4.589
 3928SOL    HW112326   2.440   2.465   4.515
 3928SOL    HW212327   2.474   2.433   4.672
 3929SOL     OW12328   3.134   3.307   4.866
 3929SOL    HW112329   3.181   3.320   4.953
 3929SOL    HW212330   3.068   3.233   4.875
 3930SOL     OW12331   2.216   3.372   5.053
 3930SOL    HW112332   2.195   3.328   4.966
 3930SOL    HW212333   2.313   3.398   5.056
 3931SOL     OW12334   2.264   2.613   5.322
 3931SOL    HW112335   2.332   2.668   5.275
 3931SOL    HW212336   2.304   2.525   5.349
 3932SOL     OW12337   3.449   2.641   5.394
 3932SOL    HW112338   3.357   2.679   5.389
 3932SOL    HW212339   3.509   2.688   5.329
 3933SOL     OW12340   2.875   1.967   5.494
 3933SOL    HW112341   2.881   2.052   5.442
 3933SOL    HW212342   2.907   1.891   5.437
 3934SOL     OW12343   2.366   1.912   5.464
 3934SOL    HW112344   2.324   1.855   5.394
 3934SOL    HW212345   2.300   1.981   5.496
 3935SOL     OW12346   3.071   2.387   3.999
 3935SOL    HW112347   3.084   2.303   4.053
 3935SOL    HW212348   3.042   2.461   4.059
 3936SOL     OW12349   2.169   2.075   4.955
 3936SOL    HW112350   2.146   2.112   5.045
 3936SOL    HW212351   2.139   1.980   4.949
 3937SOL     OW12352   1.899   3.172   5.006
 3937SOL    HW112353   1.952   3.123   5.074
 3937SOL    HW212354   1.921   3.270   5.011
 3938SOL     OW12355   3.590   2.797   5.578
 3938SOL    HW112356   3.544   2.790   5.489
 3938SOL    HW212357   3.528   2.841   5.644
 3939SOL     OW12358   3.484   2.229   4.098
 3939SOL    HW112359   3.486   2.153   4.162
 3939SOL    HW212360   3.436   2.306   4.138
 3940SOL     OW12361   2.842   3.435   5.424
 3940SOL    HW112362   2.822   3.479   5.336
 3940SOL    HW212363   2.881   3.344   5.408
 3941SOL     OW12364   3.721   3.380   5.329
 3941SOL    HW112365   3.735   3.407   5.234
 3941SOL    HW212366   3.804   3.402   5.382
 3942SOL     OW12367   2.212   2.760   5.528
 3942SOL    HW112368   2.288   2.804   5.576
 3942SOL    HW212369   2.247   2.713   5.446
 3943SOL     OW12370   3.402   2.136   3.849
 3943SOL    HW112371   3.341   2.061   3.872
 3943SOL    HW212372   3.424   2.188   3.932
 3944SOL     OW12373   2.181   2.672   4.673
 3944SOL    HW112374   2.274   2.708   4.678
 3944SOL    HW212375   2.175   2.587   4.725
 3945SOL     OW12376   3.000   2.242   5.402
 3945SOL    HW112377   2.955   2.305   5.466
 3945SOL    HW212378   3.093   2.273   5.385
 3946SOL     OW12379   3.022   2.069   5.201
 3946SOL    HW112380   3.022   2.133   5.278
 3946SOL    HW212381   3.050   2.117   5.118
 3947SOL     OW12382   1.870   3.188   3.924
 3947SOL    HW112383   1.777   3.209   3.893
 3947SOL    HW212384   1.880   3.089   3.937
 3948SOL     OW12385   1.950   3.663   4.651
 3948SOL    HW112386   1.908   3.577   4.624
 3948SOL    HW212387   2.044   3.666   4.617
 3949SOL     OW12388   2.051   2.382   5.446
 3949SOL    HW112389   2.110   2.342   5.376
 3949SOL    HW212390   1.993   2.453   5.405
 3950SOL     OW12391   3.231   2.812   5.384
 3950SOL    HW112392   3.270   2.901   5.404
 3950SOL    HW212393   3.241   2.792   5.287
 3951SOL     OW12394   3.519   2.466   4.930
 3951SOL    HW112395   3.481   2.397   4.992
 3951SOL    HW212396   3.601   2.430   4.886
 3952SOL     OW12397   2.114   3.426   5.468
 3952SOL    HW112398   2.084   3.483   5.544
 3952SOL    HW212399   2.107   3.329   5.494
 3953SOL     OW12400   2.533   2.326   4.993
 3953SOL    HW112401   2.499   2.237   4.963
 3953SOL    HW212402   2.559   2.380   4.913
 3954SOL     OW12403   2.792   3.540   5.189
 3954SOL    HW112404   2.768   3.522   5.094
 3954SOL    HW212405   2.822   3.634   5.199
 3955SOL     OW12406   2.335   2.362   3.915
 3955SOL    HW112407   2.396   2.442   3.919
 3955SOL    HW212408   2.240   2.393   3.922
 3956SOL     OW12409   2.021   2.999   5.190
 3956SOL    HW112410   2.043   2.938   5.266
 3956SOL    HW212411   2.031   2.950   5.104
 3957SOL     OW12412   3.164   2.717   4.033
 3957SOL    HW112413   3.078   2.686   4.075
 3957SOL    HW212414   3.160   2.703   3.934
 3958SOL     OW12415   3.621   3.609   4.878
 3958SOL    HW112416   3.682   3.639   4.805
 3958SOL    HW212417   3.583   3.520   4.856
 3959SOL     OW12418   3.114   3.593   4.852
 3959SOL    HW112419   3.198   3.598   4.798
 3959SOL    HW212420   3.091   3.497   4.870
 3960SOL     OW12421   2.550   3.524   5.440
 3960SOL    HW112422   2.494   3.605   5.449
 3960SOL    HW212423   2.602   3.528   5.354
 3961SOL     OW12424   3.588   1.997   4.247
 3961SOL    HW112425   3.661   1.980   4.180
 3961SOL    HW212426   3.557   1.910   4.285
 3962SOL     OW12427   3.250   3.435   4.201
 3962SOL    HW112428   3.317   3.447   4.127
 3962SOL    HW212429   3.210   3.524   4.224
 3963SOL     OW12430   1.992   3.656   5.575
 3963SOL    HW112431   1.951   3.582   5.628
 3963SOL    HW212432   2.056   3.707   5.633
 3964SOL     OW12433   2.692   3.135   5.146
 3964SOL    HW112434   2.687   3.168   5.241
 3964SOL    HW212435   2.606   3.154   5.100
 3965SOL     OW12436   3.512   3.582   5.118
 3965SOL    HW112437   3.565   3.592   5.034
 3965SOL    HW212438   3.485   3.672   5.152
 3966SOL     OW12439   3.703   2.037   4.687
 3966SOL    HW112440   3.742   1.952   4.651
 3966SOL    HW212441   3.605   2.039   4.668
 3967SOL     OW12442   3.366   3.469   3.768
 3967SOL    HW112443   3.274   3.506   3.775
 3967SOL    HW212444   3.404   3.489   3.678
 3968SOL     OW12445   2.234   3.150   5.214
 3968SOL    HW112446   2.221   3.243   5.180
 3968SOL    HW212447   2.150   3.098   5.201
 3969SOL     OW12448   3.476   3.154   5.013
 3969SOL    HW112449   3.536   3.157   5.093
 3969SOL    HW212450   3.401   3.218   5.026
 3970SOL     OW12451   2.901   2.960   4.420
 3970SOL    HW112452   2.831   2.913   4.474
 3970SOL    HW212453   2.960   2.892   4.377
 3971SOL     OW12454   3.571   2.247   5.105
 3971SOL    HW112455   3.644   2.316   5.109
 3971SOL    HW212456   3.599   2.172   5.046
 3972SOL     OW12457   2.117   3.210   4.014
 3972SOL    HW112458   2.021   3.211   3.987
 3972SOL    HW212459   2.129   3.263   4.098
 3973SOL     OW12460   1.967   2.875   5.450
 3973SOL    HW112461   1.890   2.842   5.504
 3973SOL    HW212462   2.052   2.845   5.492
 3974SOL     OW12463   2.534   2.065   5.213
 3974SOL    HW112464   2.624   2.049   5.173
 3974SOL    HW212465   2.542   2.070   5.312
 3975SOL     OW12466   3.302   2.718   5.122
 3975SOL    HW112467   3.245   2.770   5.059
 3975SOL    HW212468   3.398   2.730   5.098
 3976SOL     OW12469   1.934   2.028   4.042
 3976SOL    HW112470   1.917   2.111   3.988
 3976SOL    HW212471   2.024   1.991   4.020
 3977SOL     OW12472   3.355   3.629   4.683
 3977SOL    HW112473   3.388   3.693   4.614
 3977SOL    HW212474   3.421   3.623   4.758
 3978SOL     OW12475   3.312   3.082   5.357
 3978SOL    HW112476   3.303   3.072   5.456
 3978SOL    HW212477   3.408   3.075   5.331
 3979SOL     OW12478   2.252   3.603   5.284
 3979SOL    HW112479   2.161   3.644   5.282
 3979SOL    HW212480   2.245   3.509   5.316
 3980SOL     OW12481   3.536   2.745   4.978
 3980SOL    HW112482   3.509   2.656   4.941
 3980SOL    HW212483   3.537   2.813   4.905
 3981SOL     OW12484   3.639   2.204   5.366
 3981SOL    HW112485   3.622   2.235   5.272
 3981SOL    HW212486   3.555   2.167   5.404
 3982SOL     OW12487   3.592   2.796   5.241
 3982SOL    HW112488   3.630   2.887   5.256
 3982SOL    HW212489   3.584   2.779   5.142
 3983SOL     OW12490   2.523   3.652   4.677
 3983SOL    HW112491   2.477   3.740   4.664
 3983SOL    HW212492   2.622   3.664   4.670
 3984SOL     OW12493   2.945   2.846   3.811
 3984SOL    HW112494   2.922   2.899   3.729
 3984SOL    HW212495   3.026   2.790   3.792
 3985SOL     OW12496   3.723   3.431   4.575
 3985SOL    HW112497   3.652   3.419   4.505
 3985SOL    HW212498   3.724   3.352   4.635
 3986SOL     OW12499   2.083   3.176   5.568
 3986SOL    HW112500   2.018   3.103   5.547
 3986SOL    HW212501   2.087   3.190   5.666
 3987SOL     OW12502   2.534   3.253   5.348
 3987SOL    HW112503   2.456   3.203   5.386
 3987SOL    HW212504   2.531   3.348   5.379
 3988SOL     OW12505   3.686   2.054   4.951
 3988SOL    HW112506   3.682   1.964   4.995
 3988SOL    HW212507   3.689   2.043   4.852
 3989SOL     OW12508   3.567   3.349   4.828
 3989SOL    HW112509   3.474   3.324   4.801
 3989SOL    HW212510   3.593   3.299   4.910
 3990SOL     OW12511   2.179   2.409   5.004
 3990SOL    HW112512   2.217   2.350   5.076
 3990SOL    HW212513   2.219   2.383   4.916
 3991SOL     OW12514   2.863   1.896   4.878
 3991SOL    HW112515   2.800   1.824   4.847
 3991SOL    HW212516   2.956   1.860   4.878
 3992SOL     OW12517   2.632   3.192   4.025
 3992SOL    HW112518   2.586   3.105   4.042
 3992SOL    HW212519   2.723   3.189   4.066
 3993SOL     OW12520   2.480   3.429   5.008
 3993SOL    HW112521   2.475   3.511   5.065
 3993SOL    HW212522   2.569   3.426   4.963
 3994SOL     OW12523   3.214   1.914   3.892
 3994SOL    HW112524   3.249   1.873   3.808
 3994SOL    HW212525   3.124   1.876   3.912
 3995SOL     OW12526   3.455   2.083   4.606
 3995SOL    HW112527   3.371   2.082   4.660
 3995SOL    HW212528   3.457   2.166   4.550
 3996SOL     OW12529   1.901   2.939   4.024
 3996SOL    HW112530   2.000   2.928   4.015
 3996SOL    HW212531   1.861   2.853   4.056
 3997SOL     OW12532   2.737   3.508   4.061
 3997SOL    HW112533   2.660   3.473   4.007
 3997SOL    HW212534   2.705   3.579   4.123
 3998SOL     OW12535   2.092   2.490   5.699
 3998SOL    HW112536   1.999   2.488   5.736
 3998SOL    HW212537   2.093   2.451   5.607
 3999SOL     OW12538   2.087   2.137   6.582
 3999SOL    HW112539   2.122   2.120   6.674
 3999SOL    HW212540   1.999   2.092   6.570
 4000SOL     OW12541   1.881   2.230   6.233
 4000SOL    HW112542   1.799   2.273   6.272
 4000SOL    HW212543   1.853   2.157   6.170
 4001SOL     OW12544   2.431   3.137   6.751
 4001SOL    HW112545   2.338   3.130   6.714
 4001SOL    HW212546   2.442   3.226   6.795
 4002SOL     OW12547   3.417   3.373   6.289
 4002SOL    HW112548   3.360   3.357   6.370
 4002SOL    HW212549   3.358   3.383   6.209
 4003SOL     OW12550   2.997   2.565   6.303
 4003SOL    HW112551   3.054   2.643   6.278
 4003SOL    HW212552   2.937   2.591   6.379
 4004SOL     OW12553   3.617   2.469   5.817
 4004SOL    HW112554   3.605   2.456   5.718
 4004SOL    HW212555   3.587   2.388   5.866
 4005SOL     OW12556   2.630   3.006   6.609
 4005SOL    HW112557   2.552   3.023   6.669
 4005SOL    HW212558   2.664   3.093   6.573
 4006SOL     OW12559   2.548   3.023   7.389
 4006SOL    HW112560   2.608   3.102   7.403
 4006SOL    HW212561   2.462   3.054   7.348
 4007SOL     OW12562   2.197   3.297   6.647
 4007SOL    HW112563   2.119   3.266   6.594
 4007SOL    HW212564   2.255   3.355   6.590
 4008SOL     OW12565   3.322   3.367   6.925
 4008SOL    HW112566   3.346   3.461   6.951
 4008SOL    HW212567   3.306   3.313   7.007
 4009SOL     OW12568   2.300   2.254   7.085
 4009SOL    HW112569   2.382   2.198   7.094
 4009SOL    HW212570   2.219   2.196   7.089
 4010SOL     OW12571   3.465   2.309   6.323
 4010SOL    HW112572   3.391   2.355   6.273
 4010SOL    HW212573   3.516   2.377   6.376
 4011SOL     OW12574   2.093   3.575   6.069
 4011SOL    HW112575   2.127   3.652   6.123
 4011SOL    HW212576   2.137   3.575   5.979
 4012SOL     OW12577   2.989   3.203   7.276
 4012SOL    HW112578   3.036   3.203   7.364
 4012SOL    HW212579   2.941   3.116   7.265
 4013SOL     OW12580   2.092   3.296   6.124
 4013SOL    HW112581   2.066   3.392   6.124
 4013SOL    HW212582   2.021   3.242   6.169
 4014SOL     OW12583   2.102   2.953   6.472
 4014SOL    HW112584   2.116   2.869   6.524
 4014SOL    HW212585   2.047   3.017   6.527
 4015SOL     OW12586   2.482   3.648   7.025
 4015SOL    HW112587   2.390   3.631   7.060
 4015SOL    HW212588   2.510   3.740   7.051
 4016SOL     OW12589   2.468   2.826   5.709
 4016SOL    HW112590   2.475   2.910   5.655
 4016SOL    HW212591   2.514   2.839   5.797
 4017SOL     OW12592   3.456   1.976   7.066
 4017SOL    HW112593   3.438   2.043   6.994
 4017SOL    HW212594   3.453   2.022   7.155
 4018SOL     OW12595   1.984   2.505   6.149
 4018SOL    HW112596   1.939   2.417   6.166
 4018SOL    HW212597   1.983   2.559   6.233
 4019SOL     OW12598   3.704   3.629   5.945
 4019SOL    HW112599   3.758   3.600   6.025
 4019SOL    HW212600   3.734   3.719   5.916
 4020SOL     OW12601   1.889   3.458   5.703
 4020SOL    HW112602   1.870   3.362   5.724
 4020SOL    HW212603   1.856   3.516   5.778
 4021SOL     OW12604   3.551   2.784   6.198
 4021SOL    HW112605   3.646   2.755   6.206
 4021SOL    HW212606   3.543   2.849   6.123
 4022SOL     OW12607   3.503   2.970   6.018
 4022SOL    HW112608   3.589   2.972   5.966
 4022SOL    HW212609   3.517   3.017   6.106
 4023SOL     OW12610   1.975   2.599   7.183
 4023SOL    HW112611   2.063   2.586   7.228
 4023SOL    HW212612   1.962   2.696   7.161
 4024SOL     OW12613   2.475   3.227   6.312
 4024SOL    HW112614   2.426   3.140   6.321
 4024SOL    HW212615   2.452   3.270   6.225
 4025SOL     OW12616   3.155   3.090   7.009
 4025SOL    HW112617   3.192   3.017   6.951
 4025SOL    HW212618   3.207   3.095   7.094
 4026SOL     OW12619   2.671   1.866   6.088
 4026SOL    HW112620   2.711   1.957   6.079
 4026SOL    HW212621   2.571   1.874   6.094
 4027SOL     OW12622   2.059   2.838   6.850
 4027SOL    HW112623   2.148   2.793   6.836
 4027SOL    HW212624   1.986   2.773   6.831
 4028SOL     OW12625   3.387   2.861   5.776
 4028SOL    HW112626   3.324   2.785   5.789
 4028SOL    HW212627   3.435   2.879   5.862
 4029SOL     OW12628   3.049   3.654   7.202
 4029SOL    HW112629   3.073   3.714   7.126
 4029SOL    HW212630   3.056   3.559   7.172
 4030SOL     OW12631   2.179   2.113   7.387
 4030SOL    HW112632   2.250   2.184   7.393
 4030SOL    HW212633   2.091   2.152   7.415
 4031SOL     OW12634   3.328   3.279   6.539
 4031SOL    HW112635   3.269   3.285   6.619
 4031SOL    HW212636   3.313   3.191   6.493
 4032SOL     OW12637   3.529   3.576   6.158
 4032SOL    HW112638   3.488   3.553   6.070
 4032SOL    HW212639   3.511   3.502   6.223
 4033SOL     OW12640   3.143   2.207   6.530
 4033SOL    HW112641   3.057   2.157   6.517
 4033SOL    HW212642   3.205   2.153   6.586
 4034SOL     OW12643   3.438   3.524   5.893
 4034SOL    HW112644   3.527   3.570   5.896
 4034SOL    HW212645   3.417   3.500   5.798
 4035SOL     OW12646   3.256   2.331   7.260
 4035SOL    HW112647   3.236   2.374   7.348
 4035SOL    HW212648   3.334   2.269   7.269
 4036SOL     OW12649   2.853   2.272   6.828
 4036SOL    HW112650   2.776   2.306   6.882
 4036SOL    HW212651   2.819   2.221   6.749
 4037SOL     OW12652   1.938   2.673   6.375
 4037SOL    HW112653   2.037   2.661   6.384
 4037SOL    HW212654   1.914   2.768   6.396
 4038SOL     OW12655   1.992   3.683   7.157
 4038SOL    HW112656   1.982   3.668   7.256
 4038SOL    HW212657   1.906   3.719   7.121
 4039SOL     OW12658   2.727   2.210   5.781
 4039SOL    HW112659   2.786   2.273   5.732
 4039SOL    HW212660   2.746   2.116   5.752
 4040SOL     OW12661   3.581   2.447   7.417
 4040SOL    HW112662   3.555   2.536   7.381
 4040SOL    HW212663   3.579   2.379   7.344
 4041SOL     OW12664   3.224   3.006   6.131
 4041SOL    HW112665   3.307   2.977   6.083
 4041SOL    HW212666   3.175   3.073   6.075
 4042SOL     OW12667   2.412   2.058   6.471
 4042SOL    HW112668   2.407   2.053   6.571
 4042SOL    HW212669   2.414   2.154   6.442
 4043SOL     OW12670   2.870   3.318   6.063
 4043SOL    HW112671   2.824   3.390   6.011
 4043SOL    HW212672   2.866   3.338   6.161
 4044SOL     OW12673   2.213   3.663   6.439
 4044SOL    HW112674   2.263   3.577   6.445
 4044SOL    HW212675   2.278   3.740   6.436
 4045SOL     OW12676   3.657   2.928   6.459
 4045SOL    HW112677   3.595   2.913   6.383
 4045SOL    HW212678   3.605   2.939   6.544
 4046SOL     OW12679   3.089   3.412   7.092
 4046SOL    HW112680   3.095   3.335   7.156
 4046SOL    HW212681   3.037   3.386   7.012
 4047SOL     OW12682   2.183   2.805   5.828
 4047SOL    HW112683   2.265   2.844   5.786
 4047SOL    HW212684   2.156   2.723   5.779
 4048SOL     OW12685   3.320   2.597   6.314
 4048SOL    HW112686   3.315   2.532   6.389
 4048SOL    HW212687   3.400   2.656   6.327
 4049SOL     OW12688   2.323   3.128   7.313
 4049SOL    HW112689   2.273   3.129   7.227
 4049SOL    HW212690   2.260   3.110   7.389
 4050SOL     OW12691   2.973   3.638   5.823
 4050SOL    HW112692   2.913   3.576   5.873
 4050SOL    HW212693   3.004   3.594   5.738
 4051SOL     OW12694   2.064   2.147   7.084
 4051SOL    HW112695   1.984   2.207   7.071
 4051SOL    HW212696   2.054   2.098   7.170
 4052SOL     OW12697   3.494   3.239   5.667
 4052SOL    HW112698   3.462   3.333   5.657
 4052SOL    HW212699   3.418   3.176   5.655
 4053SOL     OW12700   2.326   3.605   5.909
 4053SOL    HW112701   2.359   3.644   5.995
 4053SOL    HW212702   2.402   3.598   5.844
 4054SOL     OW12703   3.262   1.969   6.012
 4054SOL    HW112704   3.238   1.932   5.922
 4054SOL    HW212705   3.361   1.985   6.016
 4055SOL     OW12706   2.111   3.647   6.827
 4055SOL    HW112707   2.168   3.582   6.877
 4055SOL    HW212708   2.095   3.614   6.734
 4056SOL     OW12709   2.802   3.560   6.490
 4056SOL    HW112710   2.882   3.503   6.511
 4056SOL    HW212711   2.753   3.520   6.413
 4057SOL     OW12712   2.244   2.562   6.066
 4057SOL    HW112713   2.289   2.472   6.063
 4057SOL    HW212714   2.150   2.551   6.099
 4058SOL     OW12715   3.409   2.084   7.315
 4058SOL    HW112716   3.404   2.121   7.407
 4058SOL    HW212717   3.337   2.015   7.303
 4059SOL     OW12718   2.476   1.984   5.703
 4059SOL    HW112719   2.574   1.962   5.710
 4059SOL    HW212720   2.445   1.967   5.610
 4060SOL     OW12721   2.643   2.126   7.335
 4060SOL    HW112722   2.710   2.065   7.378
 4060SOL    HW212723   2.570   2.145   7.400
 4061SOL     OW12724   2.750   3.376   6.781
 4061SOL    HW112725   2.727   3.351   6.687
 4061SOL    HW212726   2.811   3.307   6.820
 4062SOL     OW12727   3.213   2.452   7.019
 4062SOL    HW112728   3.241   2.409   7.104
 4062SOL    HW212729   3.238   2.548   7.020
 4063SOL     OW12730   2.665   3.264   6.510
 4063SOL    HW112731   2.755   3.278   6.468
 4063SOL    HW212732   2.594   3.266   6.439
 4064SOL     OW12733   2.784   2.365   6.485
 4064SOL    HW112734   2.759   2.356   6.389
 4064SOL    HW212735   2.832   2.283   6.516
 4065SOL     OW12736   2.401   1.926   6.098
 4065SOL    HW112737   2.320   1.927   6.156
 4065SOL    HW212738   2.404   2.009   6.043
 4066SOL     OW12739   3.296   3.050   5.627
 4066SOL    HW112740   3.328   2.974   5.684
 4066SOL    HW212741   3.204   3.077   5.657
 4067SOL     OW12742   2.159   1.897   5.757
 4067SOL    HW112743   2.208   1.981   5.736
 4067SOL    HW212744   2.221   1.832   5.802
 4068SOL     OW12745   2.797   2.098   6.066
 4068SOL    HW112746   2.749   2.139   5.988
 4068SOL    HW212747   2.896   2.096   6.047
 4069SOL     OW12748   2.938   2.545   7.050
 4069SOL    HW112749   2.858   2.484   7.053
 4069SOL    HW212750   3.019   2.492   7.026
 4070SOL     OW12751   3.089   3.432   6.379
 4070SOL    HW112752   3.110   3.506   6.314
 4070SOL    HW212753   3.157   3.432   6.452
 4071SOL     OW12754   2.321   3.014   6.327
 4071SOL    HW112755   2.250   2.987   6.392
 4071SOL    HW212756   2.295   2.986   6.234
 4072SOL     OW12757   3.133   3.659   6.177
 4072SOL    HW112758   3.177   3.723   6.113
 4072SOL    HW212759   3.083   3.711   6.247
 4073SOL     OW12760   2.894   2.411   5.602
 4073SOL    HW112761   2.853   2.493   5.563
 4073SOL    HW212762   2.958   2.437   5.675
 4074SOL     OW12763   1.940   2.418   6.972
 4074SOL    HW112764   2.032   2.417   6.931
 4074SOL    HW212765   1.934   2.492   7.039
 4075SOL     OW12766   2.423   2.084   6.733
 4075SOL    HW112767   2.461   2.000   6.770
 4075SOL    HW212768   2.335   2.103   6.777
 4076SOL     OW12769   2.728   2.316   6.228
 4076SOL    HW112770   2.696   2.388   6.166
 4076SOL    HW212771   2.752   2.235   6.175
 4077SOL     OW12772   2.879   1.901   6.339
 4077SOL    HW112773   2.807   1.906   6.270
 4077SOL    HW212774   2.855   1.832   6.408
 4078SOL     OW12775   3.291   3.035   6.453
 4078SOL    HW112776   3.236   2.951   6.446
 4078SOL    HW212777   3.317   3.064   6.361
 4079SOL     OW12778   3.328   2.452   6.578
 4079SOL    HW112779   3.298   2.357   6.585
 4079SOL    HW212780   3.401   2.468   6.644
 4080SOL     OW12781   3.719   2.695   5.963
 4080SOL    HW112782   3.761   2.631   6.027
 4080SOL    HW212783   3.681   2.644   5.885
 4081SOL     OW12784   2.350   3.247   5.760
 4081SOL    HW112785   2.263   3.232   5.807
 4081SOL    HW212786   2.333   3.273   5.665
 4082SOL     OW12787   3.526   3.142   6.243
 4082SOL    HW112788   3.625   3.150   6.257
 4082SOL    HW212789   3.481   3.226   6.274
 4083SOL     OW12790   3.252   2.437   5.664
 4083SOL    HW112791   3.198   2.416   5.745
 4083SOL    HW212792   3.343   2.396   5.673
 4084SOL     OW12793   2.389   2.118   5.914
 4084SOL    HW112794   2.416   2.059   5.839
 4084SOL    HW212795   2.389   2.213   5.883
 4085SOL     OW12796   3.616   3.085   7.174
 4085SOL    HW112797   3.707   3.046   7.161
 4085SOL    HW212798   3.624   3.181   7.198
 4086SOL     OW12799   2.926   3.209   6.926
 4086SOL    HW112800   2.846   3.186   6.981
 4086SOL    HW212801   3.009   3.183   6.975
 4087SOL     OW12802   3.454   3.491   7.211
 4087SOL    HW112803   3.481   3.525   7.121
 4087SOL    HW212804   3.533   3.453   7.257
 4088SOL     OW12805   2.973   3.057   6.686
 4088SOL    HW112806   2.933   3.101   6.767
 4088SOL    HW212807   2.932   3.094   6.603
 4089SOL     OW12808   3.500   2.961   6.665
 4089SOL    HW112809   3.505   3.042   6.724
 4089SOL    HW212810   3.414   2.963   6.614
 4090SOL     OW12811   2.777   1.951   6.988
 4090SOL    HW112812   2.802   1.931   6.893
 4090SOL    HW212813   2.849   2.007   7.030
 4091SOL     OW12814   2.842   2.978   7.305
 4091SOL    HW112815   2.743   2.984   7.315
 4091SOL    HW212816   2.865   2.898   7.249
 4092SOL     OW12817   2.272   2.675   6.837
 4092SOL    HW112818   2.358   2.687   6.887
 4092SOL    HW212819   2.230   2.588   6.864
 4093SOL     OW12820   3.136   2.248   6.848
 4093SOL    HW112821   3.157   2.322   6.912
 4093SOL    HW212822   3.047   2.265   6.805
 4094SOL     OW12823   1.926   3.426   6.917
 4094SOL    HW112824   1.880   3.508   6.883
 4094SOL    HW212825   2.024   3.445   6.926
 4095SOL     OW12826   2.229   2.962   6.087
 4095SOL    HW112827   2.222   3.045   6.031
 4095SOL    HW212828   2.233   2.882   6.027
 4096SOL     OW12829   2.428   2.399   6.451
 4096SOL    HW112830   2.440   2.465   6.377
 4096SOL    HW212831   2.474   2.433   6.534
 4097SOL     OW12832   3.114   3.210   5.974
 4097SOL    HW112833   3.164   3.287   6.014
 4097SOL    HW212834   3.019   3.212   6.006
 4098SOL     OW12835   3.134   3.307   6.728
 4098SOL    HW112836   3.181   3.320   6.815
 4098SOL    HW212837   3.068   3.233   6.737
 4099SOL     OW12838   3.444   2.501   6.058
 4099SOL    HW112839   3.413   2.562   6.131
 4099SOL    HW212840   3.494   2.553   5.989
 4100SOL     OW12841   2.216   3.372   6.915
 4100SOL    HW112842   2.195   3.328   6.828
 4100SOL    HW212843   2.313   3.398   6.918
 4101SOL     OW12844   2.264   2.613   7.184
 4101SOL    HW112845   2.332   2.668   7.137
 4101SOL    HW212846   2.304   2.525   7.211
 4102SOL     OW12847   3.449   2.641   7.256
 4102SOL    HW112848   3.357   2.679   7.251
 4102SOL    HW212849   3.509   2.688   7.191
 4103SOL     OW12850   2.875   1.967   7.356
 4103SOL    HW112851   2.881   2.052   7.304
 4103SOL    HW212852   2.907   1.891   7.299
 4104SOL     OW12853   2.366   1.912   7.326
 4104SOL    HW112854   2.324   1.855   7.256
 4104SOL    HW212855   2.300   1.981   7.358
 4105SOL     OW12856   3.222   2.724   6.631
 4105SOL    HW112857   3.147   2.724   6.565
 4105SOL    HW212858   3.259   2.632   6.640
 4106SOL     OW12859   3.071   2.387   5.861
 4106SOL    HW112860   3.084   2.303   5.915
 4106SOL    HW212861   3.042   2.461   5.921
 4107SOL     OW12862   2.169   2.075   6.817
 4107SOL    HW112863   2.146   2.112   6.907
 4107SOL    HW212864   2.139   1.980   6.811
 4108SOL     OW12865   1.899   3.172   6.868
 4108SOL    HW112866   1.952   3.123   6.936
 4108SOL    HW212867   1.921   3.270   6.873
 4109SOL     OW12868   3.590   2.797   7.440
 4109SOL    HW112869   3.544   2.790   7.351
 4109SOL    HW212870   3.528   2.841   7.506
 4110SOL     OW12871   2.169   1.925   6.204
 4110SOL    HW112872   2.158   2.019   6.237
 4110SOL    HW212873   2.164   1.862   6.281
 4111SOL     OW12874   3.484   2.229   5.960
 4111SOL    HW112875   3.486   2.153   6.024
 4111SOL    HW212876   3.436   2.306   6.000
 4112SOL     OW12877   2.842   3.435   7.286
 4112SOL    HW112878   2.822   3.479   7.198
 4112SOL    HW212879   2.881   3.344   7.270
 4113SOL     OW12880   3.721   3.380   7.191
 4113SOL    HW112881   3.735   3.407   7.096
 4113SOL    HW212882   3.804   3.402   7.244
 4114SOL     OW12883   2.212   2.760   7.390
 4114SOL    HW112884   2.288   2.804   7.438
 4114SOL    HW212885   2.247   2.713   7.308
 4115SOL     OW12886   3.402   2.136   5.711
 4115SOL    HW112887   3.341   2.061   5.734
 4115SOL    HW212888   3.424   2.188   5.794
 4116SOL     OW12889   3.165   2.700   5.628
 4116SOL    HW112890   3.199   2.607   5.643
 4116SOL    HW212891   3.183   2.727   5.533
 4117SOL     OW12892   2.930   3.195   6.435
 4117SOL    HW112893   2.937   3.111   6.380
 4117SOL    HW212894   2.992   3.264   6.399
 4118SOL     OW12895   2.181   2.672   6.535
 4118SOL    HW112896   2.274   2.708   6.540
 4118SOL    HW212897   2.175   2.587   6.587
 4119SOL     OW12898   2.201   2.371   6.592
 4119SOL    HW112899   2.149   2.288   6.575
 4119SOL    HW212900   2.278   2.376   6.528
 4120SOL     OW12901   3.000   2.242   7.264
 4120SOL    HW112902   2.955   2.305   7.328
 4120SOL    HW212903   3.093   2.273   7.247
 4121SOL     OW12904   3.022   2.069   7.063
 4121SOL    HW112905   3.022   2.133   7.140
 4121SOL    HW212906   3.050   2.117   6.980
 4122SOL     OW12907   1.870   3.188   5.786
 4122SOL    HW112908   1.777   3.209   5.755
 4122SOL    HW212909   1.880   3.089   5.799
 4123SOL     OW12910   1.950   3.663   6.513
 4123SOL    HW112911   1.908   3.577   6.486
 4123SOL    HW212912   2.044   3.666   6.479
 4124SOL     OW12913   2.366   3.430   6.496
 4124SOL    HW112914   2.432   3.504   6.505
 4124SOL    HW212915   2.410   3.351   6.454
 4125SOL     OW12916   1.902   2.406   6.700
 4125SOL    HW112917   1.987   2.373   6.659
 4125SOL    HW212918   1.915   2.421   6.798
 4126SOL     OW12919   2.051   2.382   7.308
 4126SOL    HW112920   2.110   2.342   7.238
 4126SOL    HW212921   1.993   2.453   7.267
 4127SOL     OW12922   3.231   2.812   7.246
 4127SOL    HW112923   3.270   2.901   7.266
 4127SOL    HW212924   3.241   2.792   7.149
 4128SOL     OW12925   2.677   2.434   5.911
 4128SOL    HW112926   2.684   2.345   5.865
 4128SOL    HW212927   2.583   2.468   5.903
 4129SOL     OW12928   3.519   2.466   6.792
 4129SOL    HW112929   3.481   2.397   6.854
 4129SOL    HW212930   3.601   2.430   6.748
 4130SOL     OW12931   2.114   3.426   7.330
 4130SOL    HW112932   2.084   3.483   7.406
 4130SOL    HW212933   2.107   3.329   7.356
 4131SOL     OW12934   2.533   2.326   6.855
 4131SOL    HW112935   2.499   2.237   6.825
 4131SOL    HW212936   2.559   2.380   6.775
 4132SOL     OW12937   2.792   3.540   7.051
 4132SOL    HW112938   2.768   3.522   6.956
 4132SOL    HW212939   2.822   3.634   7.061
 4133SOL     OW12940   2.335   2.362   5.777
 4133SOL    HW112941   2.396   2.442   5.781
 4133SOL    HW212942   2.240   2.393   5.784
 4134SOL     OW12943   2.021   2.999   7.052
 4134SOL    HW112944   2.043   2.938   7.128
 4134SOL    HW212945   2.031   2.950   6.966
 4135SOL     OW12946   3.209   2.921   6.820
 4135SOL    HW112947   3.233   2.858   6.746
 4135SOL    HW212948   3.119   2.961   6.802
 4136SOL     OW12949   3.164   2.717   5.895
 4136SOL    HW112950   3.078   2.686   5.937
 4136SOL    HW212951   3.160   2.703   5.796
 4137SOL     OW12952   3.621   3.609   6.740
 4137SOL    HW112953   3.682   3.639   6.667
 4137SOL    HW212954   3.583   3.520   6.718
 4138SOL     OW12955   3.114   3.593   6.714
 4138SOL    HW112956   3.198   3.598   6.660
 4138SOL    HW212957   3.091   3.497   6.732
 4139SOL     OW12958   1.945   3.120   6.608
 4139SOL    HW112959   1.940   3.119   6.708
 4139SOL    HW212960   1.862   3.079   6.570
 4140SOL     OW12961   2.550   3.524   7.302
 4140SOL    HW112962   2.494   3.605   7.311
 4140SOL    HW212963   2.602   3.528   7.216
 4141SOL     OW12964   3.588   1.997   6.109
 4141SOL    HW112965   3.661   1.980   6.042
 4141SOL    HW212966   3.557   1.910   6.147
 4142SOL     OW12967   3.250   3.435   6.063
 4142SOL    HW112968   3.317   3.447   5.989
 4142SOL    HW212969   3.210   3.524   6.086
 4143SOL     OW12970   1.992   3.656   7.437
 4143SOL    HW112971   1.951   3.582   7.490
 4143SOL    HW212972   2.056   3.707   7.495
 4144SOL     OW12973   3.142   2.789   6.258
 4144SOL    HW112974   3.202   2.708   6.260
 4144SOL    HW212975   3.182   2.858   6.198
 4145SOL     OW12976   2.692   3.135   7.008
 4145SOL    HW112977   2.687   3.168   7.103
 4145SOL    HW212978   2.606   3.154   6.962
 4146SOL     OW12979   2.534   3.478   5.740
 4146SOL    HW112980   2.543   3.488   5.641
 4146SOL    HW212981   2.494   3.389   5.761
 4147SOL     OW12982   3.512   3.582   6.980
 4147SOL    HW112983   3.565   3.592   6.896
 4147SOL    HW212984   3.485   3.672   7.014
 4148SOL     OW12985   3.703   2.037   6.549
 4148SOL    HW112986   3.742   1.952   6.513
 4148SOL    HW212987   3.605   2.039   6.530
 4149SOL     OW12988   2.125   2.188   6.306
 4149SOL    HW112989   2.046   2.239   6.272
 4149SOL    HW212990   2.116   2.173   6.404
 4150SOL     OW12991   3.056   3.474   5.617
 4150SOL    HW112992   3.062   3.381   5.654
 4150SOL    HW212993   2.997   3.474   5.537
 4151SOL     OW12994   3.366   3.469   5.630
 4151SOL    HW112995   3.274   3.506   5.637
 4151SOL    HW212996   3.404   3.489   5.540
 4152SOL     OW12997   2.234   3.150   7.076
 4152SOL    HW112998   2.221   3.243   7.042
 4152SOL    HW212999   2.150   3.098   7.063
 4153SOL     OW13000   3.476   3.154   6.875
 4153SOL    HW113001   3.536   3.157   6.955
 4153SOL    HW213002   3.401   3.218   6.888
 4154SOL     OW13003   2.901   2.960   6.282
 4154SOL    HW113004   2.831   2.913   6.336
 4154SOL    HW213005   2.960   2.892   6.239
 4155SOL     OW13006   2.876   2.098   6.557
 4155SOL    HW113007   2.868   2.062   6.464
 4155SOL    HW213008   2.874   2.022   6.622
 4156SOL     OW13009   2.452   3.349   6.077
 4156SOL    HW113010   2.494   3.291   6.007
 4156SOL    HW213011   2.408   3.428   6.033
 4157SOL     OW13012   3.571   2.247   6.967
 4157SOL    HW113013   3.644   2.316   6.971
 4157SOL    HW213014   3.599   2.172   6.908
 4158SOL     OW13015   2.117   3.210   5.876
 4158SOL    HW113016   2.021   3.211   5.849
 4158SOL    HW213017   2.129   3.263   5.960
 4159SOL     OW13018   1.967   2.875   7.312
 4159SOL    HW113019   1.890   2.842   7.366
 4159SOL    HW213020   2.052   2.845   7.354
 4160SOL     OW13021   2.534   2.065   7.075
 4160SOL    HW113022   2.624   2.049   7.035
 4160SOL    HW213023   2.542   2.070   7.174
 4161SOL     OW13024   1.937   2.207   5.619
 4161SOL    HW113025   1.845   2.179   5.590
 4161SOL    HW213026   1.968   2.284   5.563
 4162SOL     OW13027   3.302   2.718   6.984
 4162SOL    HW113028   3.245   2.770   6.921
 4162SOL    HW213029   3.398   2.730   6.960
 4163SOL     OW13030   1.934   2.028   5.904
 4163SOL    HW113031   1.917   2.111   5.850
 4163SOL    HW213032   2.024   1.991   5.882
 4164SOL     OW13033   3.045   3.197   5.705
 4164SOL    HW113034   2.946   3.186   5.707
 4164SOL    HW213035   3.079   3.212   5.798
 4165SOL     OW13036   3.355   3.629   6.545
 4165SOL    HW113037   3.388   3.693   6.476
 4165SOL    HW213038   3.421   3.623   6.620
 4166SOL     OW13039   3.312   3.082   7.219
 4166SOL    HW113040   3.303   3.072   7.318
 4166SOL    HW213041   3.408   3.075   7.193
 4167SOL     OW13042   2.252   3.603   7.146
 4167SOL    HW113043   2.161   3.644   7.144
 4167SOL    HW213044   2.245   3.509   7.178
 4168SOL     OW13045   3.536   2.745   6.840
 4168SOL    HW113046   3.509   2.656   6.803
 4168SOL    HW213047   3.537   2.813   6.767
 4169SOL     OW13048   3.087   2.187   6.035
 4169SOL    HW113049   3.152   2.113   6.024
 4169SOL    HW213050   3.107   2.237   6.119
 4170SOL     OW13051   3.639   2.204   7.228
 4170SOL    HW113052   3.622   2.235   7.134
 4170SOL    HW213053   3.555   2.167   7.266
 4171SOL     OW13054   3.592   2.796   7.103
 4171SOL    HW113055   3.630   2.887   7.118
 4171SOL    HW213056   3.584   2.779   7.004
 4172SOL     OW13057   2.721   3.236   5.602
 4172SOL    HW113058   2.675   3.251   5.690
 4172SOL    HW213059   2.765   3.321   5.572
 4173SOL     OW13060   2.523   3.652   6.539
 4173SOL    HW113061   2.477   3.740   6.526
 4173SOL    HW213062   2.622   3.664   6.532
 4174SOL     OW13063   2.945   2.846   5.673
 4174SOL    HW113064   2.922   2.899   5.591
 4174SOL    HW213065   3.026   2.790   5.654
 4175SOL     OW13066   3.723   3.431   6.437
 4175SOL    HW113067   3.652   3.419   6.367
 4175SOL    HW213068   3.724   3.352   6.497
 4176SOL     OW13069   2.083   3.176   7.430
 4176SOL    HW113070   2.018   3.103   7.409
 4176SOL    HW213071   2.087   3.190   7.528
 4177SOL     OW13072   1.941   3.102   6.239
 4177SOL    HW113073   1.940   3.055   6.327
 4177SOL    HW213074   2.023   3.074   6.188
 4178SOL     OW13075   2.534   3.253   7.210
 4178SOL    HW113076   2.456   3.203   7.248
 4178SOL    HW213077   2.531   3.348   7.241
 4179SOL     OW13078   3.686   2.054   6.813
 4179SOL    HW113079   3.682   1.964   6.857
 4179SOL    HW213080   3.689   2.043   6.714
 4180SOL     OW13081   2.290   2.286   6.106
 4180SOL    HW113082   2.320   2.214   6.044
 4180SOL    HW213083   2.251   2.246   6.189
 4181SOL     OW13084   3.567   3.349   6.690
 4181SOL    HW113085   3.474   3.324   6.663
 4181SOL    HW213086   3.593   3.299   6.772
 4182SOL     OW13087   2.179   2.409   6.866
 4182SOL    HW113088   2.217   2.350   6.938
 4182SOL    HW213089   2.219   2.383   6.778
 4183SOL     OW13090   2.674   3.448   6.273
 4183SOL    HW113091   2.706   3.458   6.179
 4183SOL    HW213092   2.595   3.386   6.275
 4184SOL     OW13093   3.286   2.076   6.698
 4184SOL    HW113094   3.338   2.011   6.753
 4184SOL    HW213095   3.237   2.139   6.759
 4185SOL     OW13096   2.863   1.896   6.740
 4185SOL    HW113097   2.800   1.824   6.709
 4185SOL    HW213098   2.956   1.860   6.740
 4186SOL     OW13099   2.632   3.192   5.887
 4186SOL    HW113100   2.586   3.105   5.904
 4186SOL    HW213101   2.723   3.189   5.928
 4187SOL     OW13102   2.480   3.429   6.870
 4187SOL    HW113103   2.475   3.511   6.927
 4187SOL    HW213104   2.569   3.426   6.825
 4188SOL     OW13105   3.214   1.914   5.754
 4188SOL    HW113106   3.249   1.873   5.670
 4188SOL    HW213107   3.124   1.876   5.774
 4189SOL     OW13108   3.162   2.315   6.277
 4189SOL    HW113109   3.103   2.395   6.281
 4189SOL    HW213110   3.177   2.280   6.370
 4190SOL     OW13111   3.455   2.083   6.468
 4190SOL    HW113112   3.371   2.082   6.522
 4190SOL    HW213113   3.457   2.166   6.412
 4191SOL     OW13114   1.901   2.939   5.886
 4191SOL    HW113115   2.000   2.928   5.877
 4191SOL    HW213116   1.861   2.853   5.918
 4192SOL     OW13117   2.737   3.508   5.923
 4192SOL    HW113118   2.660   3.473   5.869
 4192SOL    HW213119   2.705   3.579   5.985
 4193SOL     OW13120   2.092   2.490   7.561
 4193SOL    HW113121   1.999   2.488   7.598
 4193SOL    HW213122   2.093   2.451   7.469
 4194SOL     OW13123   3.617   2.469   7.679
 4194SOL    HW113124   3.605   2.456   7.580
 4194SOL    HW213125   3.587   2.388   7.728
 4195SOL     OW13126   2.093   3.575   7.931
 4195SOL    HW113127   2.127   3.652   7.985
 4195SOL    HW213128   2.137   3.575   7.841
 4196SOL     OW13129   2.092   3.296   7.986
 4196SOL    HW113130   2.066   3.392   7.986
 4196SOL    HW213131   2.021   3.242   8.031
 4197SOL     OW13132   2.468   2.826   7.571
 4197SOL    HW113133   2.475   2.910   7.517
 4197SOL    HW213134   2.514   2.839   7.659
 4198SOL     OW13135   3.704   3.629   7.807
 4198SOL    HW113136   3.758   3.600   7.887
 4198SOL    HW213137   3.734   3.719   7.778
 4199SOL     OW13138   1.889   3.458   7.565
 4199SOL    HW113139   1.870   3.362   7.586
 4199SOL    HW213140   1.856   3.516   7.640
 4200SOL     OW13141   3.551   2.784   8.060
 4200SOL    HW113142   3.646   2.755   8.068
 4200SOL    HW213143   3.543   2.849   7.985
 4201SOL     OW13144   3.503   2.970   7.880
 4201SOL    HW113145   3.589   2.972   7.828
 4201SOL    HW213146   3.517   3.017   7.968
 4202SOL     OW13147   2.671   1.866   7.950
 4202SOL    HW113148   2.711   1.957   7.941
 4202SOL    HW213149   2.571   1.874   7.956
 4203SOL     OW13150   3.387   2.861   7.638
 4203SOL    HW113151   3.324   2.785   7.651
 4203SOL    HW213152   3.435   2.879   7.724
 4204SOL     OW13153   3.438   3.524   7.755
 4204SOL    HW113154   3.527   3.570   7.758
 4204SOL    HW213155   3.417   3.500   7.660
 4205SOL     OW13156   1.938   2.673   8.237
 4205SOL    HW113157   2.037   2.661   8.246
 4205SOL    HW213158   1.914   2.768   8.258
 4206SOL     OW13159   2.727   2.210   7.643
 4206SOL    HW113160   2.786   2.273   7.594
 4206SOL    HW213161   2.746   2.116   7.614
 4207SOL     OW13162   2.183   2.805   7.690
 4207SOL    HW113163   2.265   2.844   7.648
 4207SOL    HW213164   2.156   2.723   7.641
 4208SOL     OW13165   2.973   3.638   7.685
 4208SOL    HW113166   2.913   3.576   7.735
 4208SOL    HW213167   3.004   3.594   7.600
 4209SOL     OW13168   3.494   3.239   7.529
 4209SOL    HW113169   3.462   3.333   7.519
 4209SOL    HW213170   3.418   3.176   7.517
 4210SOL     OW13171   2.326   3.605   7.771
 4210SOL    HW113172   2.359   3.644   7.857
 4210SOL    HW213173   2.402   3.598   7.706
 4211SOL     OW13174   3.262   1.969   7.874
 4211SOL    HW113175   3.238   1.932   7.784
 4211SOL    HW213176   3.361   1.985   7.878
 4212SOL     OW13177   2.244   2.562   7.928
 4212SOL    HW113178   2.289   2.472   7.925
 4212SOL    HW213179   2.150   2.551   7.961
 4213SOL     OW13180   2.476   1.984   7.565
 4213SOL    HW113181   2.574   1.962   7.572
 4213SOL    HW213182   2.445   1.967   7.472
 4214SOL     OW13183   2.401   1.926   7.960
 4214SOL    HW113184   2.320   1.927   8.018
 4214SOL    HW213185   2.404   2.009   7.905
 4215SOL     OW13186   3.296   3.050   7.489
 4215SOL    HW113187   3.328   2.974   7.546
 4215SOL    HW213188   3.204   3.077   7.519
 4216SOL     OW13189   2.159   1.897   7.619
 4216SOL    HW113190   2.208   1.981   7.598
 4216SOL    HW213191   2.221   1.832   7.664
 4217SOL     OW13192   2.797   2.098   7.928
 4217SOL    HW113193   2.749   2.139   7.850
 4217SOL    HW213194   2.896   2.096   7.909
 4218SOL     OW13195   2.321   3.014   8.189
 4218SOL    HW113196   2.250   2.987   8.254
 4218SOL    HW213197   2.295   2.986   8.096
 4219SOL     OW13198   3.133   3.659   8.039
 4219SOL    HW113199   3.177   3.723   7.975
 4219SOL    HW213200   3.083   3.711   8.109
 4220SOL     OW13201   2.894   2.411   7.464
 4220SOL    HW113202   2.853   2.493   7.425
 4220SOL    HW213203   2.958   2.437   7.537
 4221SOL     OW13204   3.719   2.695   7.825
 4221SOL    HW113205   3.761   2.631   7.889
 4221SOL    HW213206   3.681   2.644   7.747
 4222SOL     OW13207   2.350   3.247   7.622
 4222SOL    HW113208   2.263   3.232   7.669
 4222SOL    HW213209   2.333   3.273   7.527
 4223SOL     OW13210   3.252   2.437   7.526
 4223SOL    HW113211   3.198   2.416   7.607
 4223SOL    HW213212   3.343   2.396   7.535
 4224SOL     OW13213   2.389   2.118   7.776
 4224SOL    HW113214   2.416   2.059   7.701
 4224SOL    HW213215   2.389   2.213   7.745
 4225SOL     OW13216   2.567   2.912   7.816
 4225SOL    HW113217   2.553   2.919   7.915
 4225SOL    HW213218   2.651   2.861   7.798
 4226SOL     OW13219   2.229   2.962   7.949
 4226SOL    HW113220   2.222   3.045   7.893
 4226SOL    HW213221   2.233   2.882   7.889
 4227SOL     OW13222   3.114   3.210   7.836
 4227SOL    HW113223   3.164   3.287   7.876
 4227SOL    HW213224   3.019   3.212   7.868
 4228SOL     OW13225   3.444   2.501   7.920
 4228SOL    HW113226   3.413   2.562   7.993
 4228SOL    HW213227   3.494   2.553   7.851
 4229SOL     OW13228   3.071   2.387   7.723
 4229SOL    HW113229   3.084   2.303   7.777
 4229SOL    HW213230   3.042   2.461   7.783
 4230SOL     OW13231   3.484   2.229   7.822
 4230SOL    HW113232   3.486   2.153   7.886
 4230SOL    HW213233   3.436   2.306   7.862
 4231SOL     OW13234   3.402   2.136   7.573
 4231SOL    HW113235   3.341   2.061   7.596
 4231SOL    HW213236   3.424   2.188   7.656
 4232SOL     OW13237   3.165   2.700   7.490
 4232SOL    HW113238   3.199   2.607   7.505
 4232SOL    HW213239   3.183   2.727   7.395
 4233SOL     OW13240   1.870   3.188   7.648
 4233SOL    HW113241   1.777   3.209   7.617
 4233SOL    HW213242   1.880   3.089   7.661
 4234SOL     OW13243   2.335   2.362   7.639
 4234SOL    HW113244   2.396   2.442   7.643
 4234SOL    HW213245   2.240   2.393   7.646
 4235SOL     OW13246   3.164   2.717   7.757
 4235SOL    HW113247   3.078   2.686   7.799
 4235SOL    HW213248   3.160   2.703   7.658
 4236SOL     OW13249   3.588   1.997   7.971
 4236SOL    HW113250   3.661   1.980   7.904
 4236SOL    HW213251   3.557   1.910   8.009
 4237SOL     OW13252   3.250   3.435   7.925
 4237SOL    HW113253   3.317   3.447   7.851
 4237SOL    HW213254   3.210   3.524   7.948
 4238SOL     OW13255   2.534   3.478   7.602
 4238SOL    HW113256   2.543   3.488   7.503
 4238SOL    HW213257   2.494   3.389   7.623
 4239SOL     OW13258   3.056   3.474   7.479
 4239SOL    HW113259   3.062   3.381   7.516
 4239SOL    HW213260   2.997   3.474   7.399
 4240SOL     OW13261   3.366   3.469   7.492
 4240SOL    HW113262   3.274   3.506   7.499
 4240SOL    HW213263   3.404   3.489   7.402
 4241SOL     OW13264   2.452   3.349   7.939
 4241SOL    HW113265   2.494   3.291   7.869
 4241SOL    HW213266   2.408   3.428   7.895
 4242SOL     OW13267   2.117   3.210   7.738
 4242SOL    HW113268   2.021   3.211   7.711
 4242SOL    HW213269   2.129   3.263   7.822
 4243SOL     OW13270   1.937   2.207   7.481
 4243SOL    HW113271   1.845   2.179   7.452
 4243SOL    HW213272   1.968   2.284   7.425
 4244SOL     OW13273   1.934   2.028   7.766
 4244SOL    HW113274   1.917   2.111   7.712
 4244SOL    HW213275   2.024   1.991   7.744
 4245SOL     OW13276   3.045   3.197   7.567
 4245SOL    HW113277   2.946   3.186   7.569
 4245SOL    HW213278   3.079   3.212   7.660
 4246SOL     OW13279   3.087   2.187   7.897
 4246SOL    HW113280   3.152   2.113   7.886
 4246SOL    HW213281   3.107   2.237   7.981
 4247SOL     OW13282   2.721   3.236   7.464
 4247SOL    HW113283   2.675   3.251   7.552
 4247SOL    HW213284   2.765   3.321   7.434
 4248SOL     OW13285   2.945   2.846   7.535
 4248SOL    HW113286   2.922   2.899   7.453
 4248SOL    HW213287   3.026   2.790   7.516
 4249SOL     OW13288   2.290   2.286   7.968
 4249SOL    HW113289   2.320   2.214   7.906
 4249SOL    HW213290   2.251   2.246   8.051
 4250SOL     OW13291   2.632   3.192   7.749
 4250SOL    HW113292   2.586   3.105   7.766
 4250SOL    HW213293   2.723   3.189   7.790
 4251SOL     OW13294   3.214   1.914   7.616
 4251SOL    HW113295   3.249   1.873   7.532
 4251SOL    HW213296   3.124   1.876   7.636
 4252SOL     OW13297   1.901   2.939   7.748
 4252SOL    HW113298   2.000   2.928   7.739
 4252SOL    HW213299   1.861   2.853   7.780
 4253SOL     OW13300   2.737   3.508   7.785
 4253SOL    HW113301   2.660   3.473   7.731
 4253SOL    HW213302   2.705   3.579   7.847
 4254SOL     OW13303   2.092   4.352   0.113
 4254SOL    HW113304   1.999   4.350   0.150
 4254SOL    HW213305   2.093   4.313   0.021
 4255SOL     OW13306   2.087   3.999   0.996
 4255SOL    HW113307   2.122   3.982   1.088
 4255SOL    HW213308   1.999   3.954   0.984
 4256SOL     OW13309   1.881   4.092   0.647
 4256SOL    HW113310   1.799   4.135   0.686
 4256SOL    HW213311   1.853   4.019   0.584
 4257SOL     OW13312   2.431   4.999   1.165
 4257SOL    HW113313   2.338   4.992   1.128
 4257SOL    HW213314   2.442   5.088   1.209
 4258SOL     OW13315   3.417   5.235   0.703
 4258SOL    HW113316   3.360   5.219   0.784
 4258SOL    HW213317   3.358   5.245   0.623
 4259SOL     OW13318   2.997   4.427   0.717
 4259SOL    HW113319   3.054   4.505   0.692
 4259SOL    HW213320   2.937   4.453   0.793
 4260SOL     OW13321   3.617   4.331   0.231
 4260SOL    HW113322   3.605   4.318   0.132
 4260SOL    HW213323   3.587   4.250   0.280
 4261SOL     OW13324   2.630   4.868   1.023
 4261SOL    HW113325   2.552   4.885   1.083
 4261SOL    HW213326   2.664   4.955   0.987
 4262SOL     OW13327   2.712   4.522   1.823
 4262SOL    HW113328   2.708   4.598   1.888
 4262SOL    HW213329   2.734   4.558   1.732
 4263SOL     OW13330   2.547   4.736   0.665
 4263SOL    HW113331   2.616   4.720   0.735
 4263SOL    HW213332   2.474   4.793   0.703
 4264SOL     OW13333   2.548   4.885   1.803
 4264SOL    HW113334   2.608   4.964   1.817
 4264SOL    HW213335   2.462   4.916   1.762
 4265SOL     OW13336   2.197   5.159   1.061
 4265SOL    HW113337   2.119   5.128   1.008
 4265SOL    HW213338   2.255   5.217   1.004
 4266SOL     OW13339   3.322   5.229   1.339
 4266SOL    HW113340   3.346   5.323   1.365
 4266SOL    HW213341   3.306   5.175   1.421
 4267SOL     OW13342   2.300   4.116   1.499
 4267SOL    HW113343   2.382   4.060   1.508
 4267SOL    HW213344   2.219   4.058   1.503
 4268SOL     OW13345   3.465   4.171   0.737
 4268SOL    HW113346   3.391   4.217   0.687
 4268SOL    HW213347   3.516   4.239   0.790
 4269SOL     OW13348   2.989   5.065   1.690
 4269SOL    HW113349   3.036   5.065   1.778
 4269SOL    HW213350   2.941   4.978   1.679
 4270SOL     OW13351   2.092   5.158   0.538
 4270SOL    HW113352   2.066   5.254   0.538
 4270SOL    HW213353   2.021   5.104   0.583
 4271SOL     OW13354   2.102   4.815   0.886
 4271SOL    HW113355   2.116   4.731   0.938
 4271SOL    HW213356   2.047   4.879   0.941
 4272SOL     OW13357   2.468   4.688   0.123
 4272SOL    HW113358   2.475   4.772   0.069
 4272SOL    HW213359   2.514   4.701   0.211
 4273SOL     OW13360   3.456   3.838   1.480
 4273SOL    HW113361   3.438   3.905   1.408
 4273SOL    HW213362   3.453   3.884   1.569
 4274SOL     OW13363   1.984   4.367   0.563
 4274SOL    HW113364   1.939   4.279   0.580
 4274SOL    HW213365   1.983   4.421   0.647
 4275SOL     OW13366   1.889   5.320   0.117
 4275SOL    HW113367   1.870   5.224   0.138
 4275SOL    HW213368   1.856   5.378   0.192
 4276SOL     OW13369   3.551   4.646   0.612
 4276SOL    HW113370   3.646   4.617   0.620
 4276SOL    HW213371   3.543   4.711   0.537
 4277SOL     OW13372   3.503   4.832   0.432
 4277SOL    HW113373   3.589   4.834   0.380
 4277SOL    HW213374   3.517   4.879   0.520
 4278SOL     OW13375   1.975   4.461   1.597
 4278SOL    HW113376   2.063   4.448   1.642
 4278SOL    HW213377   1.962   4.558   1.575
 4279SOL     OW13378   2.475   5.089   0.726
 4279SOL    HW113379   2.426   5.002   0.735
 4279SOL    HW213380   2.452   5.132   0.639
 4280SOL     OW13381   3.155   4.952   1.423
 4280SOL    HW113382   3.192   4.879   1.365
 4280SOL    HW213383   3.207   4.957   1.508
 4281SOL     OW13384   2.671   3.728   0.502
 4281SOL    HW113385   2.711   3.819   0.493
 4281SOL    HW213386   2.571   3.736   0.508
 4282SOL     OW13387   2.059   4.700   1.264
 4282SOL    HW113388   2.148   4.655   1.250
 4282SOL    HW213389   1.986   4.635   1.245
 4283SOL     OW13390   3.387   4.723   0.190
 4283SOL    HW113391   3.324   4.647   0.203
 4283SOL    HW213392   3.435   4.741   0.276
 4284SOL     OW13393   2.179   3.975   1.801
 4284SOL    HW113394   2.250   4.046   1.807
 4284SOL    HW213395   2.091   4.014   1.829
 4285SOL     OW13396   3.328   5.141   0.953
 4285SOL    HW113397   3.269   5.147   1.033
 4285SOL    HW213398   3.313   5.053   0.907
 4286SOL     OW13399   2.460   4.453   0.270
 4286SOL    HW113400   2.484   4.522   0.202
 4286SOL    HW213401   2.382   4.486   0.324
 4287SOL     OW13402   3.143   4.069   0.944
 4287SOL    HW113403   3.057   4.019   0.931
 4287SOL    HW213404   3.205   4.015   1.000
 4288SOL     OW13405   2.669   4.329   1.465
 4288SOL    HW113406   2.622   4.326   1.554
 4288SOL    HW213407   2.618   4.274   1.399
 4289SOL     OW13408   3.256   4.193   1.674
 4289SOL    HW113409   3.236   4.236   1.762
 4289SOL    HW213410   3.334   4.131   1.683
 4290SOL     OW13411   2.835   4.614   1.572
 4290SOL    HW113412   2.881   4.530   1.543
 4290SOL    HW213413   2.779   4.648   1.497
 4291SOL     OW13414   2.853   4.134   1.242
 4291SOL    HW113415   2.776   4.168   1.296
 4291SOL    HW213416   2.819   4.083   1.163
 4292SOL     OW13417   2.903   4.425   0.429
 4292SOL    HW113418   2.929   4.421   0.525
 4292SOL    HW213419   2.818   4.374   0.415
 4293SOL     OW13420   1.938   4.535   0.789
 4293SOL    HW113421   2.037   4.523   0.798
 4293SOL    HW213422   1.914   4.630   0.810
 4294SOL     OW13423   2.727   4.072   0.195
 4294SOL    HW113424   2.786   4.135   0.146
 4294SOL    HW213425   2.746   3.978   0.166
 4295SOL     OW13426   3.581   4.309   1.831
 4295SOL    HW113427   3.555   4.398   1.795
 4295SOL    HW213428   3.579   4.241   1.758
 4296SOL     OW13429   3.224   4.868   0.545
 4296SOL    HW113430   3.307   4.839   0.497
 4296SOL    HW213431   3.175   4.935   0.489
 4297SOL     OW13432   2.412   3.920   0.885
 4297SOL    HW113433   2.407   3.915   0.985
 4297SOL    HW213434   2.414   4.016   0.856
 4298SOL     OW13435   2.870   5.180   0.477
 4298SOL    HW113436   2.824   5.252   0.425
 4298SOL    HW213437   2.866   5.200   0.575
 4299SOL     OW13438   3.657   4.790   0.873
 4299SOL    HW113439   3.595   4.775   0.797
 4299SOL    HW213440   3.605   4.801   0.958
 4300SOL     OW13441   3.089   5.274   1.506
 4300SOL    HW113442   3.095   5.197   1.570
 4300SOL    HW213443   3.037   5.248   1.426
 4301SOL     OW13444   2.183   4.667   0.242
 4301SOL    HW113445   2.265   4.706   0.200
 4301SOL    HW213446   2.156   4.585   0.193
 4302SOL     OW13447   3.320   4.459   0.728
 4302SOL    HW113448   3.315   4.394   0.803
 4302SOL    HW213449   3.400   4.518   0.741
 4303SOL     OW13450   2.323   4.990   1.727
 4303SOL    HW113451   2.273   4.991   1.641
 4303SOL    HW213452   2.260   4.972   1.803
 4304SOL     OW13453   2.973   5.500   0.237
 4304SOL    HW113454   2.913   5.438   0.287
 4304SOL    HW213455   3.004   5.456   0.152
 4305SOL     OW13456   2.064   4.009   1.498
 4305SOL    HW113457   1.984   4.069   1.485
 4305SOL    HW213458   2.054   3.960   1.584
 4306SOL     OW13459   3.494   5.101   0.081
 4306SOL    HW113460   3.462   5.195   0.071
 4306SOL    HW213461   3.418   5.038   0.069
 4307SOL     OW13462   3.262   3.831   0.426
 4307SOL    HW113463   3.238   3.794   0.336
 4307SOL    HW213464   3.361   3.847   0.430
 4308SOL     OW13465   2.244   4.424   0.480
 4308SOL    HW113466   2.289   4.334   0.477
 4308SOL    HW213467   2.150   4.413   0.513
 4309SOL     OW13468   3.409   3.946   1.729
 4309SOL    HW113469   3.404   3.983   1.821
 4309SOL    HW213470   3.337   3.877   1.717
 4310SOL     OW13471   2.476   3.846   0.117
 4310SOL    HW113472   2.574   3.824   0.124
 4310SOL    HW213473   2.445   3.829   0.024
 4311SOL     OW13474   2.643   3.988   1.749
 4311SOL    HW113475   2.710   3.927   1.792
 4311SOL    HW213476   2.570   4.007   1.814
 4312SOL     OW13477   3.213   4.314   1.433
 4312SOL    HW113478   3.241   4.271   1.518
 4312SOL    HW213479   3.238   4.410   1.434
 4313SOL     OW13480   2.665   5.126   0.924
 4313SOL    HW113481   2.755   5.140   0.882
 4313SOL    HW213482   2.594   5.128   0.853
 4314SOL     OW13483   2.784   4.227   0.899
 4314SOL    HW113484   2.759   4.218   0.803
 4314SOL    HW213485   2.832   4.145   0.930
 4315SOL     OW13486   2.401   3.788   0.512
 4315SOL    HW113487   2.320   3.789   0.570
 4315SOL    HW213488   2.404   3.871   0.457
 4316SOL     OW13489   3.296   4.912   0.041
 4316SOL    HW113490   3.328   4.836   0.098
 4316SOL    HW213491   3.204   4.939   0.071
 4317SOL     OW13492   2.159   3.759   0.171
 4317SOL    HW113493   2.208   3.843   0.150
 4317SOL    HW213494   2.221   3.694   0.216
 4318SOL     OW13495   2.797   3.960   0.480
 4318SOL    HW113496   2.749   4.001   0.402
 4318SOL    HW213497   2.896   3.958   0.461
 4319SOL     OW13498   2.938   4.407   1.464
 4319SOL    HW113499   2.858   4.346   1.467
 4319SOL    HW213500   3.019   4.354   1.440
 4320SOL     OW13501   3.089   5.294   0.793
 4320SOL    HW113502   3.110   5.368   0.728
 4320SOL    HW213503   3.157   5.294   0.866
 4321SOL     OW13504   2.321   4.876   0.741
 4321SOL    HW113505   2.250   4.849   0.806
 4321SOL    HW213506   2.295   4.848   0.648
 4322SOL     OW13507   2.894   4.273   0.016
 4322SOL    HW113508   2.853   4.355  -0.023
 4322SOL    HW213509   2.958   4.299   0.089
 4323SOL     OW13510   1.940   4.280   1.386
 4323SOL    HW113511   2.032   4.279   1.345
 4323SOL    HW213512   1.934   4.354   1.453
 4324SOL     OW13513   2.423   3.946   1.147
 4324SOL    HW113514   2.461   3.862   1.184
 4324SOL    HW213515   2.335   3.965   1.191
 4325SOL     OW13516   2.728   4.178   0.642
 4325SOL    HW113517   2.696   4.250   0.580
 4325SOL    HW213518   2.752   4.097   0.589
 4326SOL     OW13519   2.879   3.763   0.753
 4326SOL    HW113520   2.807   3.768   0.684
 4326SOL    HW213521   2.855   3.694   0.822
 4327SOL     OW13522   3.291   4.897   0.867
 4327SOL    HW113523   3.236   4.813   0.860
 4327SOL    HW213524   3.317   4.926   0.775
 4328SOL     OW13525   3.328   4.314   0.992
 4328SOL    HW113526   3.298   4.219   0.999
 4328SOL    HW213527   3.401   4.330   1.058
 4329SOL     OW13528   3.719   4.557   0.377
 4329SOL    HW113529   3.761   4.493   0.441
 4329SOL    HW213530   3.681   4.506   0.299
 4330SOL     OW13531   2.350   5.109   0.174
 4330SOL    HW113532   2.263   5.094   0.221
 4330SOL    HW213533   2.333   5.135   0.079
 4331SOL     OW13534   3.526   5.004   0.657
 4331SOL    HW113535   3.625   5.012   0.671
 4331SOL    HW213536   3.481   5.088   0.688
 4332SOL     OW13537   3.252   4.299   0.078
 4332SOL    HW113538   3.198   4.278   0.159
 4332SOL    HW213539   3.343   4.258   0.087
 4333SOL     OW13540   2.389   3.980   0.328
 4333SOL    HW113541   2.416   3.921   0.253
 4333SOL    HW213542   2.389   4.075   0.297
 4334SOL     OW13543   3.616   4.947   1.588
 4334SOL    HW113544   3.707   4.908   1.575
 4334SOL    HW213545   3.624   5.043   1.612
 4335SOL     OW13546   2.926   5.071   1.340
 4335SOL    HW113547   2.846   5.048   1.395
 4335SOL    HW213548   3.009   5.045   1.389
 4336SOL     OW13549   2.973   4.919   1.100
 4336SOL    HW113550   2.933   4.963   1.181
 4336SOL    HW213551   2.932   4.956   1.017
 4337SOL     OW13552   3.500   4.823   1.079
 4337SOL    HW113553   3.505   4.904   1.138
 4337SOL    HW213554   3.414   4.825   1.028
 4338SOL     OW13555   2.777   3.813   1.402
 4338SOL    HW113556   2.802   3.793   1.307
 4338SOL    HW213557   2.849   3.869   1.444
 4339SOL     OW13558   2.842   4.840   1.719
 4339SOL    HW113559   2.743   4.846   1.729
 4339SOL    HW213560   2.865   4.760   1.663
 4340SOL     OW13561   2.567   4.774   0.368
 4340SOL    HW113562   2.553   4.781   0.467
 4340SOL    HW213563   2.651   4.723   0.350
 4341SOL     OW13564   2.272   4.537   1.251
 4341SOL    HW113565   2.358   4.549   1.301
 4341SOL    HW213566   2.230   4.450   1.278
 4342SOL     OW13567   3.136   4.110   1.262
 4342SOL    HW113568   3.157   4.184   1.326
 4342SOL    HW213569   3.047   4.127   1.219
 4343SOL     OW13570   2.229   4.824   0.501
 4343SOL    HW113571   2.222   4.907   0.445
 4343SOL    HW213572   2.233   4.744   0.441
 4344SOL     OW13573   2.428   4.261   0.865
 4344SOL    HW113574   2.440   4.327   0.791
 4344SOL    HW213575   2.474   4.295   0.948
 4345SOL     OW13576   3.114   5.072   0.388
 4345SOL    HW113577   3.164   5.149   0.428
 4345SOL    HW213578   3.019   5.074   0.420
 4346SOL     OW13579   3.134   5.169   1.142
 4346SOL    HW113580   3.181   5.182   1.229
 4346SOL    HW213581   3.068   5.095   1.151
 4347SOL     OW13582   3.444   4.363   0.472
 4347SOL    HW113583   3.413   4.424   0.545
 4347SOL    HW213584   3.494   4.415   0.403
 4348SOL     OW13585   2.216   5.234   1.329
 4348SOL    HW113586   2.195   5.190   1.242
 4348SOL    HW213587   2.313   5.260   1.332
 4349SOL     OW13588   2.264   4.475   1.598
 4349SOL    HW113589   2.332   4.530   1.551
 4349SOL    HW213590   2.304   4.387   1.625
 4350SOL     OW13591   3.449   4.503   1.670
 4350SOL    HW113592   3.357   4.541   1.665
 4350SOL    HW213593   3.509   4.550   1.605
 4351SOL     OW13594   2.875   3.829   1.770
 4351SOL    HW113595   2.881   3.914   1.718
 4351SOL    HW213596   2.907   3.753   1.713
 4352SOL     OW13597   2.366   3.774   1.740
 4352SOL    HW113598   2.324   3.717   1.670
 4352SOL    HW213599   2.300   3.843   1.772
 4353SOL     OW13600   2.435   4.594   1.029
 4353SOL    HW113601   2.479   4.683   1.020
 4353SOL    HW213602   2.372   4.594   1.106
 4354SOL     OW13603   3.222   4.586   1.045
 4354SOL    HW113604   3.147   4.586   0.979
 4354SOL    HW213605   3.259   4.494   1.054
 4355SOL     OW13606   3.071   4.249   0.275
 4355SOL    HW113607   3.084   4.165   0.329
 4355SOL    HW213608   3.042   4.323   0.335
 4356SOL     OW13609   2.169   3.937   1.231
 4356SOL    HW113610   2.146   3.974   1.321
 4356SOL    HW213611   2.139   3.842   1.225
 4357SOL     OW13612   1.899   5.034   1.282
 4357SOL    HW113613   1.952   4.985   1.350
 4357SOL    HW213614   1.921   5.132   1.287
 4358SOL     OW13615   2.594   4.358   1.064
 4358SOL    HW113616   2.653   4.332   0.988
 4358SOL    HW213617   2.566   4.454   1.053
 4359SOL     OW13618   3.590   4.659   1.854
 4359SOL    HW113619   3.544   4.652   1.765
 4359SOL    HW213620   3.528   4.703   1.920
 4360SOL     OW13621   2.169   3.787   0.618
 4360SOL    HW113622   2.158   3.881   0.651
 4360SOL    HW213623   2.164   3.724   0.695
 4361SOL     OW13624   3.484   4.091   0.374
 4361SOL    HW113625   3.486   4.015   0.438
 4361SOL    HW213626   3.436   4.168   0.414
 4362SOL     OW13627   2.885   4.490   0.966
 4362SOL    HW113628   2.900   4.511   1.062
 4362SOL    HW213629   2.855   4.395   0.957
 4363SOL     OW13630   3.721   5.242   1.605
 4363SOL    HW113631   3.735   5.269   1.510
 4363SOL    HW213632   3.804   5.264   1.658
 4364SOL     OW13633   2.212   4.622   1.804
 4364SOL    HW113634   2.288   4.666   1.852
 4364SOL    HW213635   2.247   4.575   1.722
 4365SOL     OW13636   3.402   3.998   0.125
 4365SOL    HW113637   3.341   3.923   0.148
 4365SOL    HW213638   3.424   4.050   0.208
 4366SOL     OW13639   3.165   4.562   0.042
 4366SOL    HW113640   3.199   4.469   0.057
 4366SOL    HW213641   3.183   4.589  -0.053
 4367SOL     OW13642   2.930   5.057   0.849
 4367SOL    HW113643   2.937   4.973   0.794
 4367SOL    HW213644   2.992   5.126   0.813
 4368SOL     OW13645   2.181   4.534   0.949
 4368SOL    HW113646   2.274   4.570   0.954
 4368SOL    HW213647   2.175   4.449   1.001
 4369SOL     OW13648   2.201   4.233   1.006
 4369SOL    HW113649   2.149   4.150   0.989
 4369SOL    HW213650   2.278   4.238   0.942
 4370SOL     OW13651   3.000   4.104   1.678
 4370SOL    HW113652   2.955   4.167   1.742
 4370SOL    HW213653   3.093   4.135   1.661
 4371SOL     OW13654   3.022   3.931   1.477
 4371SOL    HW113655   3.022   3.995   1.554
 4371SOL    HW213656   3.050   3.979   1.394
 4372SOL     OW13657   1.870   5.050   0.200
 4372SOL    HW113658   1.777   5.071   0.169
 4372SOL    HW213659   1.880   4.951   0.213
 4373SOL     OW13660   2.864   4.520   1.238
 4373SOL    HW113661   2.905   4.488   1.324
 4373SOL    HW213662   2.768   4.493   1.235
 4374SOL     OW13663   1.902   4.268   1.114
 4374SOL    HW113664   1.987   4.235   1.073
 4374SOL    HW213665   1.915   4.283   1.212
 4375SOL     OW13666   2.051   4.244   1.722
 4375SOL    HW113667   2.110   4.204   1.652
 4375SOL    HW213668   1.993   4.315   1.681
 4376SOL     OW13669   3.231   4.674   1.660
 4376SOL    HW113670   3.270   4.763   1.680
 4376SOL    HW213671   3.241   4.654   1.563
 4377SOL     OW13672   2.677   4.296   0.325
 4377SOL    HW113673   2.684   4.207   0.279
 4377SOL    HW213674   2.583   4.330   0.317
 4378SOL     OW13675   3.519   4.328   1.206
 4378SOL    HW113676   3.481   4.259   1.268
 4378SOL    HW213677   3.601   4.292   1.162
 4379SOL     OW13678   2.114   5.288   1.744
 4379SOL    HW113679   2.084   5.345   1.820
 4379SOL    HW213680   2.107   5.191   1.770
 4380SOL     OW13681   2.533   4.188   1.269
 4380SOL    HW113682   2.499   4.099   1.239
 4380SOL    HW213683   2.559   4.242   1.189
 4381SOL     OW13684   2.335   4.224   0.191
 4381SOL    HW113685   2.396   4.304   0.195
 4381SOL    HW213686   2.240   4.255   0.198
 4382SOL     OW13687   2.021   4.861   1.466
 4382SOL    HW113688   2.043   4.800   1.542
 4382SOL    HW213689   2.031   4.812   1.380
 4383SOL     OW13690   3.209   4.783   1.234
 4383SOL    HW113691   3.233   4.720   1.160
 4383SOL    HW213692   3.119   4.823   1.216
 4384SOL     OW13693   3.164   4.579   0.309
 4384SOL    HW113694   3.078   4.548   0.351
 4384SOL    HW213695   3.160   4.565   0.210
 4385SOL     OW13696   1.945   4.982   1.022
 4385SOL    HW113697   1.940   4.981   1.122
 4385SOL    HW213698   1.862   4.941   0.984
 4386SOL     OW13699   2.550   5.386   1.716
 4386SOL    HW113700   2.494   5.467   1.725
 4386SOL    HW213701   2.602   5.390   1.630
 4387SOL     OW13702   2.765   3.810   0.133
 4387SOL    HW113703   2.816   3.811   0.047
 4387SOL    HW213704   2.821   3.768   0.204
 4388SOL     OW13705   3.588   3.859   0.523
 4388SOL    HW113706   3.661   3.842   0.456
 4388SOL    HW213707   3.557   3.772   0.561
 4389SOL     OW13708   3.142   4.651   0.672
 4389SOL    HW113709   3.202   4.570   0.674
 4389SOL    HW213710   3.182   4.720   0.612
 4390SOL     OW13711   2.692   4.997   1.422
 4390SOL    HW113712   2.687   5.030   1.517
 4390SOL    HW213713   2.606   5.016   1.376
 4391SOL     OW13714   3.703   3.899   0.963
 4391SOL    HW113715   3.742   3.814   0.927
 4391SOL    HW213716   3.605   3.901   0.944
 4392SOL     OW13717   2.125   4.050   0.720
 4392SOL    HW113718   2.046   4.101   0.686
 4392SOL    HW213719   2.116   4.035   0.818
 4393SOL     OW13720   3.056   5.336   0.031
 4393SOL    HW113721   3.062   5.243   0.068
 4393SOL    HW213722   2.997   5.336  -0.049
 4394SOL     OW13723   2.684   4.726   1.372
 4394SOL    HW113724   2.724   4.725   1.280
 4394SOL    HW213725   2.694   4.818   1.412
 4395SOL     OW13726   2.778   4.634   0.291
 4395SOL    HW113727   2.841   4.672   0.223
 4395SOL    HW213728   2.818   4.551   0.330
 4396SOL     OW13729   2.234   5.012   1.490
 4396SOL    HW113730   2.221   5.105   1.456
 4396SOL    HW213731   2.150   4.960   1.477
 4397SOL     OW13732   3.476   5.016   1.289
 4397SOL    HW113733   3.536   5.019   1.369
 4397SOL    HW213734   3.401   5.080   1.302
 4398SOL     OW13735   2.901   4.822   0.696
 4398SOL    HW113736   2.831   4.775   0.750
 4398SOL    HW213737   2.960   4.754   0.653
 4399SOL     OW13738   2.876   3.960   0.971
 4399SOL    HW113739   2.868   3.924   0.878
 4399SOL    HW213740   2.874   3.884   1.036
 4400SOL     OW13741   3.571   4.109   1.381
 4400SOL    HW113742   3.644   4.178   1.385
 4400SOL    HW213743   3.599   4.034   1.322
 4401SOL     OW13744   2.117   5.072   0.290
 4401SOL    HW113745   2.021   5.073   0.263
 4401SOL    HW213746   2.129   5.125   0.374
 4402SOL     OW13747   1.967   4.737   1.726
 4402SOL    HW113748   1.890   4.704   1.780
 4402SOL    HW213749   2.052   4.707   1.768
 4403SOL     OW13750   2.534   3.927   1.489
 4403SOL    HW113751   2.624   3.911   1.449
 4403SOL    HW213752   2.542   3.932   1.588
 4404SOL     OW13753   1.937   4.069   0.033
 4404SOL    HW113754   1.845   4.041   0.004
 4404SOL    HW213755   1.968   4.146  -0.023
 4405SOL     OW13756   3.302   4.580   1.398
 4405SOL    HW113757   3.245   4.632   1.335
 4405SOL    HW213758   3.398   4.592   1.374
 4406SOL     OW13759   1.934   3.890   0.318
 4406SOL    HW113760   1.917   3.973   0.264
 4406SOL    HW213761   2.024   3.853   0.296
 4407SOL     OW13762   3.045   5.059   0.119
 4407SOL    HW113763   2.946   5.048   0.121
 4407SOL    HW213764   3.079   5.074   0.212
 4408SOL     OW13765   2.475   4.566   1.431
 4408SOL    HW113766   2.531   4.647   1.414
 4408SOL    HW213767   2.534   4.486   1.434
 4409SOL     OW13768   2.578   4.289   1.708
 4409SOL    HW113769   2.597   4.354   1.782
 4409SOL    HW213770   2.638   4.209   1.717
 4410SOL     OW13771   3.312   4.944   1.633
 4410SOL    HW113772   3.303   4.934   1.732
 4410SOL    HW213773   3.408   4.937   1.607
 4411SOL     OW13774   3.536   4.607   1.254
 4411SOL    HW113775   3.509   4.518   1.217
 4411SOL    HW213776   3.537   4.675   1.181
 4412SOL     OW13777   3.087   4.049   0.449
 4412SOL    HW113778   3.152   3.975   0.438
 4412SOL    HW213779   3.107   4.099   0.533
 4413SOL     OW13780   2.456   4.469   0.652
 4413SOL    HW113781   2.506   4.554   0.633
 4413SOL    HW213782   2.368   4.471   0.604
 4414SOL     OW13783   3.639   4.066   1.642
 4414SOL    HW113784   3.622   4.097   1.548
 4414SOL    HW213785   3.555   4.029   1.680
 4415SOL     OW13786   3.592   4.658   1.517
 4415SOL    HW113787   3.630   4.749   1.532
 4415SOL    HW213788   3.584   4.641   1.418
 4416SOL     OW13789   2.721   5.098   0.016
 4416SOL    HW113790   2.675   5.113   0.104
 4416SOL    HW213791   2.765   5.183  -0.014
 4417SOL     OW13792   2.721   4.680   0.861
 4417SOL    HW113793   2.775   4.611   0.909
 4417SOL    HW213794   2.689   4.749   0.927
 4418SOL     OW13795   2.945   4.708   0.087
 4418SOL    HW113796   2.922   4.761   0.005
 4418SOL    HW213797   3.026   4.652   0.068
 4419SOL     OW13798   2.083   5.038   1.844
 4419SOL    HW113799   2.018   4.965   1.823
 4419SOL    HW213800   2.087   5.052   1.942
 4420SOL     OW13801   1.941   4.964   0.653
 4420SOL    HW113802   1.940   4.917   0.741
 4420SOL    HW213803   2.023   4.936   0.602
 4421SOL     OW13804   2.534   5.115   1.624
 4421SOL    HW113805   2.456   5.065   1.662
 4421SOL    HW213806   2.531   5.210   1.655
 4422SOL     OW13807   3.686   3.916   1.227
 4422SOL    HW113808   3.682   3.826   1.271
 4422SOL    HW213809   3.689   3.905   1.128
 4423SOL     OW13810   2.290   4.148   0.520
 4423SOL    HW113811   2.320   4.076   0.458
 4423SOL    HW213812   2.251   4.108   0.603
 4424SOL     OW13813   3.567   5.211   1.104
 4424SOL    HW113814   3.474   5.186   1.077
 4424SOL    HW213815   3.593   5.161   1.186
 4425SOL     OW13816   2.179   4.271   1.280
 4425SOL    HW113817   2.217   4.212   1.352
 4425SOL    HW213818   2.219   4.245   1.192
 4426SOL     OW13819   3.286   3.938   1.112
 4426SOL    HW113820   3.338   3.873   1.167
 4426SOL    HW213821   3.237   4.001   1.173
 4427SOL     OW13822   2.863   3.758   1.154
 4427SOL    HW113823   2.800   3.686   1.123
 4427SOL    HW213824   2.956   3.722   1.154
 4428SOL     OW13825   2.632   5.054   0.301
 4428SOL    HW113826   2.586   4.967   0.318
 4428SOL    HW213827   2.723   5.051   0.342
 4429SOL     OW13828   2.480   5.291   1.284
 4429SOL    HW113829   2.475   5.373   1.341
 4429SOL    HW213830   2.569   5.288   1.239
 4430SOL     OW13831   3.214   3.776   0.168
 4430SOL    HW113832   3.249   3.735   0.084
 4430SOL    HW213833   3.124   3.738   0.188
 4431SOL     OW13834   3.162   4.177   0.691
 4431SOL    HW113835   3.103   4.257   0.695
 4431SOL    HW213836   3.177   4.142   0.784
 4432SOL     OW13837   3.455   3.945   0.882
 4432SOL    HW113838   3.371   3.944   0.936
 4432SOL    HW213839   3.457   4.028   0.826
 4433SOL     OW13840   1.901   4.801   0.300
 4433SOL    HW113841   2.000   4.790   0.291
 4433SOL    HW213842   1.861   4.715   0.332
 4434SOL     OW13843   2.092   4.352   1.975
 4434SOL    HW113844   1.999   4.350   2.012
 4434SOL    HW213845   2.093   4.313   1.883
 4435SOL     OW13846   2.087   3.999   2.858
 4435SOL    HW113847   2.122   3.982   2.950
 4435SOL    HW213848   1.999   3.954   2.846
 4436SOL     OW13849   1.881   4.092   2.509
 4436SOL    HW113850   1.799   4.135   2.548
 4436SOL    HW213851   1.853   4.019   2.446
 4437SOL     OW13852   2.431   4.999   3.027
 4437SOL    HW113853   2.338   4.992   2.990
 4437SOL    HW213854   2.442   5.088   3.071
 4438SOL     OW13855   3.417   5.235   2.565
 4438SOL    HW113856   3.360   5.219   2.646
 4438SOL    HW213857   3.358   5.245   2.485
 4439SOL     OW13858   2.997   4.427   2.579
 4439SOL    HW113859   3.054   4.505   2.554
 4439SOL    HW213860   2.937   4.453   2.655
 4440SOL     OW13861   3.617   4.331   2.093
 4440SOL    HW113862   3.605   4.318   1.994
 4440SOL    HW213863   3.587   4.250   2.142
 4441SOL     OW13864   2.630   4.868   2.885
 4441SOL    HW113865   2.552   4.885   2.945
 4441SOL    HW213866   2.664   4.955   2.849
 4442SOL     OW13867   2.712   4.522   3.685
 4442SOL    HW113868   2.708   4.598   3.750
 4442SOL    HW213869   2.734   4.558   3.594
 4443SOL     OW13870   2.547   4.736   2.527
 4443SOL    HW113871   2.616   4.720   2.597
 4443SOL    HW213872   2.474   4.793   2.565
 4444SOL     OW13873   2.548   4.885   3.665
 4444SOL    HW113874   2.608   4.964   3.679
 4444SOL    HW213875   2.462   4.916   3.624
 4445SOL     OW13876   2.197   5.159   2.923
 4445SOL    HW113877   2.119   5.128   2.870
 4445SOL    HW213878   2.255   5.217   2.866
 4446SOL     OW13879   3.322   5.229   3.201
 4446SOL    HW113880   3.346   5.323   3.227
 4446SOL    HW213881   3.306   5.175   3.283
 4447SOL     OW13882   2.300   4.116   3.361
 4447SOL    HW113883   2.382   4.060   3.370
 4447SOL    HW213884   2.219   4.058   3.365
 4448SOL     OW13885   3.465   4.171   2.599
 4448SOL    HW113886   3.391   4.217   2.549
 4448SOL    HW213887   3.516   4.239   2.652
 4449SOL     OW13888   2.989   5.065   3.552
 4449SOL    HW113889   3.036   5.065   3.640
 4449SOL    HW213890   2.941   4.978   3.541
 4450SOL     OW13891   2.092   5.158   2.400
 4450SOL    HW113892   2.066   5.254   2.400
 4450SOL    HW213893   2.021   5.104   2.445
 4451SOL     OW13894   2.102   4.815   2.748
 4451SOL    HW113895   2.116   4.731   2.800
 4451SOL    HW213896   2.047   4.879   2.803
 4452SOL     OW13897   2.468   4.688   1.985
 4452SOL    HW113898   2.475   4.772   1.931
 4452SOL    HW213899   2.514   4.701   2.073
 4453SOL     OW13900   3.456   3.838   3.342
 4453SOL    HW113901   3.438   3.905   3.270
 4453SOL    HW213902   3.453   3.884   3.431
 4454SOL     OW13903   1.984   4.367   2.425
 4454SOL    HW113904   1.939   4.279   2.442
 4454SOL    HW213905   1.983   4.421   2.509
 4455SOL     OW13906   1.889   5.320   1.979
 4455SOL    HW113907   1.870   5.224   2.000
 4455SOL    HW213908   1.856   5.378   2.054
 4456SOL     OW13909   3.551   4.646   2.474
 4456SOL    HW113910   3.646   4.617   2.482
 4456SOL    HW213911   3.543   4.711   2.399
 4457SOL     OW13912   3.503   4.832   2.294
 4457SOL    HW113913   3.589   4.834   2.242
 4457SOL    HW213914   3.517   4.879   2.382
 4458SOL     OW13915   1.975   4.461   3.459
 4458SOL    HW113916   2.063   4.448   3.504
 4458SOL    HW213917   1.962   4.558   3.437
 4459SOL     OW13918   2.475   5.089   2.588
 4459SOL    HW113919   2.426   5.002   2.597
 4459SOL    HW213920   2.452   5.132   2.501
 4460SOL     OW13921   3.155   4.952   3.285
 4460SOL    HW113922   3.192   4.879   3.227
 4460SOL    HW213923   3.207   4.957   3.370
 4461SOL     OW13924   2.671   3.728   2.364
 4461SOL    HW113925   2.711   3.819   2.355
 4461SOL    HW213926   2.571   3.736   2.370
 4462SOL     OW13927   2.059   4.700   3.126
 4462SOL    HW113928   2.148   4.655   3.112
 4462SOL    HW213929   1.986   4.635   3.107
 4463SOL     OW13930   3.387   4.723   2.052
 4463SOL    HW113931   3.324   4.647   2.065
 4463SOL    HW213932   3.435   4.741   2.138
 4464SOL     OW13933   2.179   3.975   3.663
 4464SOL    HW113934   2.250   4.046   3.669
 4464SOL    HW213935   2.091   4.014   3.691
 4465SOL     OW13936   3.328   5.141   2.815
 4465SOL    HW113937   3.269   5.147   2.895
 4465SOL    HW213938   3.313   5.053   2.769
 4466SOL     OW13939   2.460   4.453   2.132
 4466SOL    HW113940   2.484   4.522   2.064
 4466SOL    HW213941   2.382   4.486   2.186
 4467SOL     OW13942   3.143   4.069   2.806
 4467SOL    HW113943   3.057   4.019   2.793
 4467SOL    HW213944   3.205   4.015   2.862
 4468SOL     OW13945   2.669   4.329   3.327
 4468SOL    HW113946   2.622   4.326   3.416
 4468SOL    HW213947   2.618   4.274   3.261
 4469SOL     OW13948   3.256   4.193   3.536
 4469SOL    HW113949   3.236   4.236   3.624
 4469SOL    HW213950   3.334   4.131   3.545
 4470SOL     OW13951   2.835   4.614   3.434
 4470SOL    HW113952   2.881   4.530   3.405
 4470SOL    HW213953   2.779   4.648   3.359
 4471SOL     OW13954   2.853   4.134   3.104
 4471SOL    HW113955   2.776   4.168   3.158
 4471SOL    HW213956   2.819   4.083   3.025
 4472SOL     OW13957   2.903   4.425   2.291
 4472SOL    HW113958   2.929   4.421   2.387
 4472SOL    HW213959   2.818   4.374   2.277
 4473SOL     OW13960   1.938   4.535   2.651
 4473SOL    HW113961   2.037   4.523   2.660
 4473SOL    HW213962   1.914   4.630   2.672
 4474SOL     OW13963   2.727   4.072   2.057
 4474SOL    HW113964   2.786   4.135   2.008
 4474SOL    HW213965   2.746   3.978   2.028
 4475SOL     OW13966   3.581   4.309   3.693
 4475SOL    HW113967   3.555   4.398   3.657
 4475SOL    HW213968   3.579   4.241   3.620
 4476SOL     OW13969   3.224   4.868   2.407
 4476SOL    HW113970   3.307   4.839   2.359
 4476SOL    HW213971   3.175   4.935   2.351
 4477SOL     OW13972   2.412   3.920   2.747
 4477SOL    HW113973   2.407   3.915   2.847
 4477SOL    HW213974   2.414   4.016   2.718
 4478SOL     OW13975   2.870   5.180   2.339
 4478SOL    HW113976   2.824   5.252   2.287
 4478SOL    HW213977   2.866   5.200   2.437
 4479SOL     OW13978   3.657   4.790   2.735
 4479SOL    HW113979   3.595   4.775   2.659
 4479SOL    HW213980   3.605   4.801   2.820
 4480SOL     OW13981   3.089   5.274   3.368
 4480SOL    HW113982   3.095   5.197   3.432
 4480SOL    HW213983   3.037   5.248   3.288
 4481SOL     OW13984   2.183   4.667   2.104
 4481SOL    HW113985   2.265   4.706   2.062
 4481SOL    HW213986   2.156   4.585   2.055
 4482SOL     OW13987   3.320   4.459   2.590
 4482SOL    HW113988   3.315   4.394   2.665
 4482SOL    HW213989   3.400   4.518   2.603
 4483SOL     OW13990   2.323   4.990   3.589
 4483SOL    HW113991   2.273   4.991   3.503
 4483SOL    HW213992   2.260   4.972   3.665
 4484SOL     OW13993   2.973   5.500   2.099
 4484SOL    HW113994   2.913   5.438   2.149
 4484SOL    HW213995   3.004   5.456   2.014
 4485SOL     OW13996   2.064   4.009   3.360
 4485SOL    HW113997   1.984   4.069   3.347
 4485SOL    HW213998   2.054   3.960   3.446
 4486SOL     OW13999   3.494   5.101   1.943
 4486SOL    HW114000   3.462   5.195   1.933
 4486SOL    HW214001   3.418   5.038   1.931
 4487SOL     OW14002   3.262   3.831   2.288
 4487SOL    HW114003   3.238   3.794   2.198
 4487SOL    HW214004   3.361   3.847   2.292
 4488SOL     OW14005   2.244   4.424   2.342
 4488SOL    HW114006   2.289   4.334   2.339
 4488SOL    HW214007   2.150   4.413   2.375
 4489SOL     OW14008   3.409   3.946   3.591
 4489SOL    HW114009   3.404   3.983   3.683
 4489SOL    HW214010   3.337   3.877   3.579
 4490SOL     OW14011   2.476   3.846   1.979
 4490SOL    HW114012   2.574   3.824   1.986
 4490SOL    HW214013   2.445   3.829   1.886
 4491SOL     OW14014   2.643   3.988   3.611
 4491SOL    HW114015   2.710   3.927   3.654
 4491SOL    HW214016   2.570   4.007   3.676
 4492SOL     OW14017   3.213   4.314   3.295
 4492SOL    HW114018   3.241   4.271   3.380
 4492SOL    HW214019   3.238   4.410   3.296
 4493SOL     OW14020   2.665   5.126   2.786
 4493SOL    HW114021   2.755   5.140   2.744
 4493SOL    HW214022   2.594   5.128   2.715
 4494SOL     OW14023   2.784   4.227   2.761
 4494SOL    HW114024   2.759   4.218   2.665
 4494SOL    HW214025   2.832   4.145   2.792
 4495SOL     OW14026   2.401   3.788   2.374
 4495SOL    HW114027   2.320   3.789   2.432
 4495SOL    HW214028   2.404   3.871   2.319
 4496SOL     OW14029   3.296   4.912   1.903
 4496SOL    HW114030   3.328   4.836   1.960
 4496SOL    HW214031   3.204   4.939   1.933
 4497SOL     OW14032   2.159   3.759   2.033
 4497SOL    HW114033   2.208   3.843   2.012
 4497SOL    HW214034   2.221   3.694   2.078
 4498SOL     OW14035   2.797   3.960   2.342
 4498SOL    HW114036   2.749   4.001   2.264
 4498SOL    HW214037   2.896   3.958   2.323
 4499SOL     OW14038   2.938   4.407   3.326
 4499SOL    HW114039   2.858   4.346   3.329
 4499SOL    HW214040   3.019   4.354   3.302
 4500SOL     OW14041   3.089   5.294   2.655
 4500SOL    HW114042   3.110   5.368   2.590
 4500SOL    HW214043   3.157   5.294   2.728
 4501SOL     OW14044   2.321   4.876   2.603
 4501SOL    HW114045   2.250   4.849   2.668
 4501SOL    HW214046   2.295   4.848   2.510
 4502SOL     OW14047   2.894   4.273   1.878
 4502SOL    HW114048   2.853   4.355   1.839
 4502SOL    HW214049   2.958   4.299   1.951
 4503SOL     OW14050   1.940   4.280   3.248
 4503SOL    HW114051   2.032   4.279   3.207
 4503SOL    HW214052   1.934   4.354   3.315
 4504SOL     OW14053   2.423   3.946   3.009
 4504SOL    HW114054   2.461   3.862   3.046
 4504SOL    HW214055   2.335   3.965   3.053
 4505SOL     OW14056   2.728   4.178   2.504
 4505SOL    HW114057   2.696   4.250   2.442
 4505SOL    HW214058   2.752   4.097   2.451
 4506SOL     OW14059   2.879   3.763   2.615
 4506SOL    HW114060   2.807   3.768   2.546
 4506SOL    HW214061   2.855   3.694   2.684
 4507SOL     OW14062   3.291   4.897   2.729
 4507SOL    HW114063   3.236   4.813   2.722
 4507SOL    HW214064   3.317   4.926   2.637
 4508SOL     OW14065   3.328   4.314   2.854
 4508SOL    HW114066   3.298   4.219   2.861
 4508SOL    HW214067   3.401   4.330   2.920
 4509SOL     OW14068   3.719   4.557   2.239
 4509SOL    HW114069   3.761   4.493   2.303
 4509SOL    HW214070   3.681   4.506   2.161
 4510SOL     OW14071   2.350   5.109   2.036
 4510SOL    HW114072   2.263   5.094   2.083
 4510SOL    HW214073   2.333   5.135   1.941
 4511SOL     OW14074   3.526   5.004   2.519
 4511SOL    HW114075   3.625   5.012   2.533
 4511SOL    HW214076   3.481   5.088   2.550
 4512SOL     OW14077   3.252   4.299   1.940
 4512SOL    HW114078   3.198   4.278   2.021
 4512SOL    HW214079   3.343   4.258   1.949
 4513SOL     OW14080   2.389   3.980   2.190
 4513SOL    HW114081   2.416   3.921   2.115
 4513SOL    HW214082   2.389   4.075   2.159
 4514SOL     OW14083   3.616   4.947   3.450
 4514SOL    HW114084   3.707   4.908   3.437
 4514SOL    HW214085   3.624   5.043   3.474
 4515SOL     OW14086   2.926   5.071   3.202
 4515SOL    HW114087   2.846   5.048   3.257
 4515SOL    HW214088   3.009   5.045   3.251
 4516SOL     OW14089   2.973   4.919   2.962
 4516SOL    HW114090   2.933   4.963   3.043
 4516SOL    HW214091   2.932   4.956   2.879
 4517SOL     OW14092   3.500   4.823   2.941
 4517SOL    HW114093   3.505   4.904   3.000
 4517SOL    HW214094   3.414   4.825   2.890
 4518SOL     OW14095   2.777   3.813   3.264
 4518SOL    HW114096   2.802   3.793   3.169
 4518SOL    HW214097   2.849   3.869   3.306
 4519SOL     OW14098   2.842   4.840   3.581
 4519SOL    HW114099   2.743   4.846   3.591
 4519SOL    HW214100   2.865   4.760   3.525
 4520SOL     OW14101   2.567   4.774   2.230
 4520SOL    HW114102   2.553   4.781   2.329
 4520SOL    HW214103   2.651   4.723   2.212
 4521SOL     OW14104   2.272   4.537   3.113
 4521SOL    HW114105   2.358   4.549   3.163
 4521SOL    HW214106   2.230   4.450   3.140
 4522SOL     OW14107   3.136   4.110   3.124
 4522SOL    HW114108   3.157   4.184   3.188
 4522SOL    HW214109   3.047   4.127   3.081
 4523SOL     OW14110   2.229   4.824   2.363
 4523SOL    HW114111   2.222   4.907   2.307
 4523SOL    HW214112   2.233   4.744   2.303
 4524SOL     OW14113   2.428   4.261   2.727
 4524SOL    HW114114   2.440   4.327   2.653
 4524SOL    HW214115   2.474   4.295   2.810
 4525SOL     OW14116   3.114   5.072   2.250
 4525SOL    HW114117   3.164   5.149   2.290
 4525SOL    HW214118   3.019   5.074   2.282
 4526SOL     OW14119   3.134   5.169   3.004
 4526SOL    HW114120   3.181   5.182   3.091
 4526SOL    HW214121   3.068   5.095   3.013
 4527SOL     OW14122   3.444   4.363   2.334
 4527SOL    HW114123   3.413   4.424   2.407
 4527SOL    HW214124   3.494   4.415   2.265
 4528SOL     OW14125   2.216   5.234   3.191
 4528SOL    HW114126   2.195   5.190   3.104
 4528SOL    HW214127   2.313   5.260   3.194
 4529SOL     OW14128   2.264   4.475   3.460
 4529SOL    HW114129   2.332   4.530   3.413
 4529SOL    HW214130   2.304   4.387   3.487
 4530SOL     OW14131   3.449   4.503   3.532
 4530SOL    HW114132   3.357   4.541   3.527
 4530SOL    HW214133   3.509   4.550   3.467
 4531SOL     OW14134   2.875   3.829   3.632
 4531SOL    HW114135   2.881   3.914   3.580
 4531SOL    HW214136   2.907   3.753   3.575
 4532SOL     OW14137   2.366   3.774   3.602
 4532SOL    HW114138   2.324   3.717   3.532
 4532SOL    HW214139   2.300   3.843   3.634
 4533SOL     OW14140   2.435   4.594   2.891
 4533SOL    HW114141   2.479   4.683   2.882
 4533SOL    HW214142   2.372   4.594   2.968
 4534SOL     OW14143   3.222   4.586   2.907
 4534SOL    HW114144   3.147   4.586   2.841
 4534SOL    HW214145   3.259   4.494   2.916
 4535SOL     OW14146   3.071   4.249   2.137
 4535SOL    HW114147   3.084   4.165   2.191
 4535SOL    HW214148   3.042   4.323   2.197
 4536SOL     OW14149   2.169   3.937   3.093
 4536SOL    HW114150   2.146   3.974   3.183
 4536SOL    HW214151   2.139   3.842   3.087
 4537SOL     OW14152   1.899   5.034   3.144
 4537SOL    HW114153   1.952   4.985   3.212
 4537SOL    HW214154   1.921   5.132   3.149
 4538SOL     OW14155   2.594   4.358   2.926
 4538SOL    HW114156   2.653   4.332   2.850
 4538SOL    HW214157   2.566   4.454   2.915
 4539SOL     OW14158   3.590   4.659   3.716
 4539SOL    HW114159   3.544   4.652   3.627
 4539SOL    HW214160   3.528   4.703   3.782
 4540SOL     OW14161   2.169   3.787   2.480
 4540SOL    HW114162   2.158   3.881   2.513
 4540SOL    HW214163   2.164   3.724   2.557
 4541SOL     OW14164   3.484   4.091   2.236
 4541SOL    HW114165   3.486   4.015   2.300
 4541SOL    HW214166   3.436   4.168   2.276
 4542SOL     OW14167   2.885   4.490   2.828
 4542SOL    HW114168   2.900   4.511   2.924
 4542SOL    HW214169   2.855   4.395   2.819
 4543SOL     OW14170   3.721   5.242   3.467
 4543SOL    HW114171   3.735   5.269   3.372
 4543SOL    HW214172   3.804   5.264   3.520
 4544SOL     OW14173   2.212   4.622   3.666
 4544SOL    HW114174   2.288   4.666   3.714
 4544SOL    HW214175   2.247   4.575   3.584
 4545SOL     OW14176   3.402   3.998   1.987
 4545SOL    HW114177   3.341   3.923   2.010
 4545SOL    HW214178   3.424   4.050   2.070
 4546SOL     OW14179   3.165   4.562   1.904
 4546SOL    HW114180   3.199   4.469   1.919
 4546SOL    HW214181   3.183   4.589   1.809
 4547SOL     OW14182   2.930   5.057   2.711
 4547SOL    HW114183   2.937   4.973   2.656
 4547SOL    HW214184   2.992   5.126   2.675
 4548SOL     OW14185   2.181   4.534   2.811
 4548SOL    HW114186   2.274   4.570   2.816
 4548SOL    HW214187   2.175   4.449   2.863
 4549SOL     OW14188   2.201   4.233   2.868
 4549SOL    HW114189   2.149   4.150   2.851
 4549SOL    HW214190   2.278   4.238   2.804
 4550SOL     OW14191   3.000   4.104   3.540
 4550SOL    HW114192   2.955   4.167   3.604
 4550SOL    HW214193   3.093   4.135   3.523
 4551SOL     OW14194   3.022   3.931   3.339
 4551SOL    HW114195   3.022   3.995   3.416
 4551SOL    HW214196   3.050   3.979   3.256
 4552SOL     OW14197   1.870   5.050   2.062
 4552SOL    HW114198   1.777   5.071   2.031
 4552SOL    HW214199   1.880   4.951   2.075
 4553SOL     OW14200   2.864   4.520   3.100
 4553SOL    HW114201   2.905   4.488   3.186
 4553SOL    HW214202   2.768   4.493   3.097
 4554SOL     OW14203   1.902   4.268   2.976
 4554SOL    HW114204   1.987   4.235   2.935
 4554SOL    HW214205   1.915   4.283   3.074
 4555SOL     OW14206   2.051   4.244   3.584
 4555SOL    HW114207   2.110   4.204   3.514
 4555SOL    HW214208   1.993   4.315   3.543
 4556SOL     OW14209   3.231   4.674   3.522
 4556SOL    HW114210   3.270   4.763   3.542
 4556SOL    HW214211   3.241   4.654   3.425
 4557SOL     OW14212   2.677   4.296   2.187
 4557SOL    HW114213   2.684   4.207   2.141
 4557SOL    HW214214   2.583   4.330   2.179
 4558SOL     OW14215   3.519   4.328   3.068
 4558SOL    HW114216   3.481   4.259   3.130
 4558SOL    HW214217   3.601   4.292   3.024
 4559SOL     OW14218   2.114   5.288   3.606
 4559SOL    HW114219   2.084   5.345   3.682
 4559SOL    HW214220   2.107   5.191   3.632
 4560SOL     OW14221   2.533   4.188   3.131
 4560SOL    HW114222   2.499   4.099   3.101
 4560SOL    HW214223   2.559   4.242   3.051
 4561SOL     OW14224   2.335   4.224   2.053
 4561SOL    HW114225   2.396   4.304   2.057
 4561SOL    HW214226   2.240   4.255   2.060
 4562SOL     OW14227   2.021   4.861   3.328
 4562SOL    HW114228   2.043   4.800   3.404
 4562SOL    HW214229   2.031   4.812   3.242
 4563SOL     OW14230   3.209   4.783   3.096
 4563SOL    HW114231   3.233   4.720   3.022
 4563SOL    HW214232   3.119   4.823   3.078
 4564SOL     OW14233   3.164   4.579   2.171
 4564SOL    HW114234   3.078   4.548   2.213
 4564SOL    HW214235   3.160   4.565   2.072
 4565SOL     OW14236   1.945   4.982   2.884
 4565SOL    HW114237   1.940   4.981   2.984
 4565SOL    HW214238   1.862   4.941   2.846
 4566SOL     OW14239   2.550   5.386   3.578
 4566SOL    HW114240   2.494   5.467   3.587
 4566SOL    HW214241   2.602   5.390   3.492
 4567SOL     OW14242   3.588   3.859   2.385
 4567SOL    HW114243   3.661   3.842   2.318
 4567SOL    HW214244   3.557   3.772   2.423
 4568SOL     OW14245   3.142   4.651   2.534
 4568SOL    HW114246   3.202   4.570   2.536
 4568SOL    HW214247   3.182   4.720   2.474
 4569SOL     OW14248   2.692   4.997   3.284
 4569SOL    HW114249   2.687   5.030   3.379
 4569SOL    HW214250   2.606   5.016   3.238
 4570SOL     OW14251   3.703   3.899   2.825
 4570SOL    HW114252   3.742   3.814   2.789
 4570SOL    HW214253   3.605   3.901   2.806
 4571SOL     OW14254   2.125   4.050   2.582
 4571SOL    HW114255   2.046   4.101   2.548
 4571SOL    HW214256   2.116   4.035   2.680
 4572SOL     OW14257   2.684   4.726   3.234
 4572SOL    HW114258   2.724   4.725   3.142
 4572SOL    HW214259   2.694   4.818   3.274
 4573SOL     OW14260   2.778   4.634   2.153
 4573SOL    HW114261   2.841   4.672   2.085
 4573SOL    HW214262   2.818   4.551   2.192
 4574SOL     OW14263   2.234   5.012   3.352
 4574SOL    HW114264   2.221   5.105   3.318
 4574SOL    HW214265   2.150   4.960   3.339
 4575SOL     OW14266   3.476   5.016   3.151
 4575SOL    HW114267   3.536   5.019   3.231
 4575SOL    HW214268   3.401   5.080   3.164
 4576SOL     OW14269   2.901   4.822   2.558
 4576SOL    HW114270   2.831   4.775   2.612
 4576SOL    HW214271   2.960   4.754   2.515
 4577SOL     OW14272   2.876   3.960   2.833
 4577SOL    HW114273   2.868   3.924   2.740
 4577SOL    HW214274   2.874   3.884   2.898
 4578SOL     OW14275   3.571   4.109   3.243
 4578SOL    HW114276   3.644   4.178   3.247
 4578SOL    HW214277   3.599   4.034   3.184
 4579SOL     OW14278   2.117   5.072   2.152
 4579SOL    HW114279   2.021   5.073   2.125
 4579SOL    HW214280   2.129   5.125   2.236
 4580SOL     OW14281   1.967   4.737   3.588
 4580SOL    HW114282   1.890   4.704   3.642
 4580SOL    HW214283   2.052   4.707   3.630
 4581SOL     OW14284   2.534   3.927   3.351
 4581SOL    HW114285   2.624   3.911   3.311
 4581SOL    HW214286   2.542   3.932   3.450
 4582SOL     OW14287   1.937   4.069   1.895
 4582SOL    HW114288   1.845   4.041   1.866
 4582SOL    HW214289   1.968   4.146   1.839
 4583SOL     OW14290   3.302   4.580   3.260
 4583SOL    HW114291   3.245   4.632   3.197
 4583SOL    HW214292   3.398   4.592   3.236
 4584SOL     OW14293   1.934   3.890   2.180
 4584SOL    HW114294   1.917   3.973   2.126
 4584SOL    HW214295   2.024   3.853   2.158
 4585SOL     OW14296   3.045   5.059   1.981
 4585SOL    HW114297   2.946   5.048   1.983
 4585SOL    HW214298   3.079   5.074   2.074
 4586SOL     OW14299   2.475   4.566   3.293
 4586SOL    HW114300   2.531   4.647   3.276
 4586SOL    HW214301   2.534   4.486   3.296
 4587SOL     OW14302   2.578   4.289   3.570
 4587SOL    HW114303   2.597   4.354   3.644
 4587SOL    HW214304   2.638   4.209   3.579
 4588SOL     OW14305   3.312   4.944   3.495
 4588SOL    HW114306   3.303   4.934   3.594
 4588SOL    HW214307   3.408   4.937   3.469
 4589SOL     OW14308   3.536   4.607   3.116
 4589SOL    HW114309   3.509   4.518   3.079
 4589SOL    HW214310   3.537   4.675   3.043
 4590SOL     OW14311   3.087   4.049   2.311
 4590SOL    HW114312   3.152   3.975   2.300
 4590SOL    HW214313   3.107   4.099   2.395
 4591SOL     OW14314   2.456   4.469   2.514
 4591SOL    HW114315   2.506   4.554   2.495
 4591SOL    HW214316   2.368   4.471   2.466
 4592SOL     OW14317   3.639   4.066   3.504
 4592SOL    HW114318   3.622   4.097   3.410
 4592SOL    HW214319   3.555   4.029   3.542
 4593SOL     OW14320   3.592   4.658   3.379
 4593SOL    HW114321   3.630   4.749   3.394
 4593SOL    HW214322   3.584   4.641   3.280
 4594SOL     OW14323   2.721   5.098   1.878
 4594SOL    HW114324   2.675   5.113   1.966
 4594SOL    HW214325   2.765   5.183   1.848
 4595SOL     OW14326   2.721   4.680   2.723
 4595SOL    HW114327   2.775   4.611   2.771
 4595SOL    HW214328   2.689   4.749   2.789
 4596SOL     OW14329   2.945   4.708   1.949
 4596SOL    HW114330   2.922   4.761   1.867
 4596SOL    HW214331   3.026   4.652   1.930
 4597SOL     OW14332   2.083   5.038   3.706
 4597SOL    HW114333   2.018   4.965   3.685
 4597SOL    HW214334   2.087   5.052   3.804
 4598SOL     OW14335   1.941   4.964   2.515
 4598SOL    HW114336   1.940   4.917   2.603
 4598SOL    HW214337   2.023   4.936   2.464
 4599SOL     OW14338   2.534   5.115   3.486
 4599SOL    HW114339   2.456   5.065   3.524
 4599SOL    HW214340   2.531   5.210   3.517
 4600SOL     OW14341   3.686   3.916   3.089
 4600SOL    HW114342   3.682   3.826   3.133
 4600SOL    HW214343   3.689   3.905   2.990
 4601SOL     OW14344   2.290   4.148   2.382
 4601SOL    HW114345   2.320   4.076   2.320
 4601SOL    HW214346   2.251   4.108   2.465
 4602SOL     OW14347   3.567   5.211   2.966
 4602SOL    HW114348   3.474   5.186   2.939
 4602SOL    HW214349   3.593   5.161   3.048
 4603SOL     OW14350   2.179   4.271   3.142
 4603SOL    HW114351   2.217   4.212   3.214
 4603SOL    HW214352   2.219   4.245   3.054
 4604SOL     OW14353   3.286   3.938   2.974
 4604SOL    HW114354   3.338   3.873   3.029
 4604SOL    HW214355   3.237   4.001   3.035
 4605SOL     OW14356   2.863   3.758   3.016
 4605SOL    HW114357   2.800   3.686   2.985
 4605SOL    HW214358   2.956   3.722   3.016
 4606SOL     OW14359   2.632   5.054   2.163
 4606SOL    HW114360   2.586   4.967   2.180
 4606SOL    HW214361   2.723   5.051   2.204
 4607SOL     OW14362   2.480   5.291   3.146
 4607SOL    HW114363   2.475   5.373   3.203
 4607SOL    HW214364   2.569   5.288   3.101
 4608SOL     OW14365   3.214   3.776   2.030
 4608SOL    HW114366   3.249   3.735   1.946
 4608SOL    HW214367   3.124   3.738   2.050
 4609SOL     OW14368   3.162   4.177   2.553
 4609SOL    HW114369   3.103   4.257   2.557
 4609SOL    HW214370   3.177   4.142   2.646
 4610SOL     OW14371   3.455   3.945   2.744
 4610SOL    HW114372   3.371   3.944   2.798
 4610SOL    HW214373   3.457   4.028   2.688
 4611SOL     OW14374   1.901   4.801   2.162
 4611SOL    HW114375   2.000   4.790   2.153
 4611SOL    HW214376   1.861   4.715   2.194
 4612SOL     OW14377   2.092   4.352   3.837
 4612SOL    HW114378   1.999   4.350   3.874
 4612SOL    HW214379   2.093   4.313   3.745
 4613SOL     OW14380   2.087   3.999   4.720
 4613SOL    HW114381   2.122   3.982   4.812
 4613SOL    HW214382   1.999   3.954   4.708
 4614SOL     OW14383   1.881   4.092   4.371
 4614SOL    HW114384   1.799   4.135   4.410
 4614SOL    HW214385   1.853   4.019   4.308
 4615SOL     OW14386   2.431   4.999   4.889
 4615SOL    HW114387   2.338   4.992   4.852
 4615SOL    HW214388   2.442   5.088   4.933
 4616SOL     OW14389   3.417   5.235   4.427
 4616SOL    HW114390   3.360   5.219   4.508
 4616SOL    HW214391   3.358   5.245   4.347
 4617SOL     OW14392   2.997   4.427   4.441
 4617SOL    HW114393   3.054   4.505   4.416
 4617SOL    HW214394   2.937   4.453   4.517
 4618SOL     OW14395   3.617   4.331   3.955
 4618SOL    HW114396   3.605   4.318   3.856
 4618SOL    HW214397   3.587   4.250   4.004
 4619SOL     OW14398   2.630   4.868   4.747
 4619SOL    HW114399   2.552   4.885   4.807
 4619SOL    HW214400   2.664   4.955   4.711
 4620SOL     OW14401   2.712   4.522   5.547
 4620SOL    HW114402   2.708   4.598   5.612
 4620SOL    HW214403   2.734   4.558   5.456
 4621SOL     OW14404   2.547   4.736   4.389
 4621SOL    HW114405   2.616   4.720   4.459
 4621SOL    HW214406   2.474   4.793   4.427
 4622SOL     OW14407   2.548   4.885   5.527
 4622SOL    HW114408   2.608   4.964   5.541
 4622SOL    HW214409   2.462   4.916   5.486
 4623SOL     OW14410   2.197   5.159   4.785
 4623SOL    HW114411   2.119   5.128   4.732
 4623SOL    HW214412   2.255   5.217   4.728
 4624SOL     OW14413   3.322   5.229   5.063
 4624SOL    HW114414   3.346   5.323   5.089
 4624SOL    HW214415   3.306   5.175   5.145
 4625SOL     OW14416   2.300   4.116   5.223
 4625SOL    HW114417   2.382   4.060   5.232
 4625SOL    HW214418   2.219   4.058   5.227
 4626SOL     OW14419   3.465   4.171   4.461
 4626SOL    HW114420   3.391   4.217   4.411
 4626SOL    HW214421   3.516   4.239   4.514
 4627SOL     OW14422   2.989   5.065   5.414
 4627SOL    HW114423   3.036   5.065   5.502
 4627SOL    HW214424   2.941   4.978   5.403
 4628SOL     OW14425   2.092   5.158   4.262
 4628SOL    HW114426   2.066   5.254   4.262
 4628SOL    HW214427   2.021   5.104   4.307
 4629SOL     OW14428   2.102   4.815   4.610
 4629SOL    HW114429   2.116   4.731   4.662
 4629SOL    HW214430   2.047   4.879   4.665
 4630SOL     OW14431   2.468   4.688   3.847
 4630SOL    HW114432   2.475   4.772   3.793
 4630SOL    HW214433   2.514   4.701   3.935
 4631SOL     OW14434   3.456   3.838   5.204
 4631SOL    HW114435   3.438   3.905   5.132
 4631SOL    HW214436   3.453   3.884   5.293
 4632SOL     OW14437   1.984   4.367   4.287
 4632SOL    HW114438   1.939   4.279   4.304
 4632SOL    HW214439   1.983   4.421   4.371
 4633SOL     OW14440   1.889   5.320   3.841
 4633SOL    HW114441   1.870   5.224   3.862
 4633SOL    HW214442   1.856   5.378   3.916
 4634SOL     OW14443   3.551   4.646   4.336
 4634SOL    HW114444   3.646   4.617   4.344
 4634SOL    HW214445   3.543   4.711   4.261
 4635SOL     OW14446   3.503   4.832   4.156
 4635SOL    HW114447   3.589   4.834   4.104
 4635SOL    HW214448   3.517   4.879   4.244
 4636SOL     OW14449   1.975   4.461   5.321
 4636SOL    HW114450   2.063   4.448   5.366
 4636SOL    HW214451   1.962   4.558   5.299
 4637SOL     OW14452   2.475   5.089   4.450
 4637SOL    HW114453   2.426   5.002   4.459
 4637SOL    HW214454   2.452   5.132   4.363
 4638SOL     OW14455   3.155   4.952   5.147
 4638SOL    HW114456   3.192   4.879   5.089
 4638SOL    HW214457   3.207   4.957   5.232
 4639SOL     OW14458   2.671   3.728   4.226
 4639SOL    HW114459   2.711   3.819   4.217
 4639SOL    HW214460   2.571   3.736   4.232
 4640SOL     OW14461   2.059   4.700   4.988
 4640SOL    HW114462   2.148   4.655   4.974
 4640SOL    HW214463   1.986   4.635   4.969
 4641SOL     OW14464   3.387   4.723   3.914
 4641SOL    HW114465   3.324   4.647   3.927
 4641SOL    HW214466   3.435   4.741   4.000
 4642SOL     OW14467   2.179   3.975   5.525
 4642SOL    HW114468   2.250   4.046   5.531
 4642SOL    HW214469   2.091   4.014   5.553
 4643SOL     OW14470   3.328   5.141   4.677
 4643SOL    HW114471   3.269   5.147   4.757
 4643SOL    HW214472   3.313   5.053   4.631
 4644SOL     OW14473   2.460   4.453   3.994
 4644SOL    HW114474   2.484   4.522   3.926
 4644SOL    HW214475   2.382   4.486   4.048
 4645SOL     OW14476   3.143   4.069   4.668
 4645SOL    HW114477   3.057   4.019   4.655
 4645SOL    HW214478   3.205   4.015   4.724
 4646SOL     OW14479   2.669   4.329   5.189
 4646SOL    HW114480   2.622   4.326   5.278
 4646SOL    HW214481   2.618   4.274   5.123
 4647SOL     OW14482   3.256   4.193   5.398
 4647SOL    HW114483   3.236   4.236   5.486
 4647SOL    HW214484   3.334   4.131   5.407
 4648SOL     OW14485   2.835   4.614   5.296
 4648SOL    HW114486   2.881   4.530   5.267
 4648SOL    HW214487   2.779   4.648   5.221
 4649SOL     OW14488   2.853   4.134   4.966
 4649SOL    HW114489   2.776   4.168   5.020
 4649SOL    HW214490   2.819   4.083   4.887
 4650SOL     OW14491   2.903   4.425   4.153
 4650SOL    HW114492   2.929   4.421   4.249
 4650SOL    HW214493   2.818   4.374   4.139
 4651SOL     OW14494   1.938   4.535   4.513
 4651SOL    HW114495   2.037   4.523   4.522
 4651SOL    HW214496   1.914   4.630   4.534
 4652SOL     OW14497   2.727   4.072   3.919
 4652SOL    HW114498   2.786   4.135   3.870
 4652SOL    HW214499   2.746   3.978   3.890
 4653SOL     OW14500   3.581   4.309   5.555
 4653SOL    HW114501   3.555   4.398   5.519
 4653SOL    HW214502   3.579   4.241   5.482
 4654SOL     OW14503   3.224   4.868   4.269
 4654SOL    HW114504   3.307   4.839   4.221
 4654SOL    HW214505   3.175   4.935   4.213
 4655SOL     OW14506   2.412   3.920   4.609
 4655SOL    HW114507   2.407   3.915   4.709
 4655SOL    HW214508   2.414   4.016   4.580
 4656SOL     OW14509   2.870   5.180   4.201
 4656SOL    HW114510   2.824   5.252   4.149
 4656SOL    HW214511   2.866   5.200   4.299
 4657SOL     OW14512   3.657   4.790   4.597
 4657SOL    HW114513   3.595   4.775   4.521
 4657SOL    HW214514   3.605   4.801   4.682
 4658SOL     OW14515   3.089   5.274   5.230
 4658SOL    HW114516   3.095   5.197   5.294
 4658SOL    HW214517   3.037   5.248   5.150
 4659SOL     OW14518   2.183   4.667   3.966
 4659SOL    HW114519   2.265   4.706   3.924
 4659SOL    HW214520   2.156   4.585   3.917
 4660SOL     OW14521   3.320   4.459   4.452
 4660SOL    HW114522   3.315   4.394   4.527
 4660SOL    HW214523   3.400   4.518   4.465
 4661SOL     OW14524   2.323   4.990   5.451
 4661SOL    HW114525   2.273   4.991   5.365
 4661SOL    HW214526   2.260   4.972   5.527
 4662SOL     OW14527   2.973   5.500   3.961
 4662SOL    HW114528   2.913   5.438   4.011
 4662SOL    HW214529   3.004   5.456   3.876
 4663SOL     OW14530   2.064   4.009   5.222
 4663SOL    HW114531   1.984   4.069   5.209
 4663SOL    HW214532   2.054   3.960   5.308
 4664SOL     OW14533   3.494   5.101   3.805
 4664SOL    HW114534   3.462   5.195   3.795
 4664SOL    HW214535   3.418   5.038   3.793
 4665SOL     OW14536   3.262   3.831   4.150
 4665SOL    HW114537   3.238   3.794   4.060
 4665SOL    HW214538   3.361   3.847   4.154
 4666SOL     OW14539   2.244   4.424   4.204
 4666SOL    HW114540   2.289   4.334   4.201
 4666SOL    HW214541   2.150   4.413   4.237
 4667SOL     OW14542   3.409   3.946   5.453
 4667SOL    HW114543   3.404   3.983   5.545
 4667SOL    HW214544   3.337   3.877   5.441
 4668SOL     OW14545   2.476   3.846   3.841
 4668SOL    HW114546   2.574   3.824   3.848
 4668SOL    HW214547   2.445   3.829   3.748
 4669SOL     OW14548   2.643   3.988   5.473
 4669SOL    HW114549   2.710   3.927   5.516
 4669SOL    HW214550   2.570   4.007   5.538
 4670SOL     OW14551   3.213   4.314   5.157
 4670SOL    HW114552   3.241   4.271   5.242
 4670SOL    HW214553   3.238   4.410   5.158
 4671SOL     OW14554   2.665   5.126   4.648
 4671SOL    HW114555   2.755   5.140   4.606
 4671SOL    HW214556   2.594   5.128   4.577
 4672SOL     OW14557   2.784   4.227   4.623
 4672SOL    HW114558   2.759   4.218   4.527
 4672SOL    HW214559   2.832   4.145   4.654
 4673SOL     OW14560   2.401   3.788   4.236
 4673SOL    HW114561   2.320   3.789   4.294
 4673SOL    HW214562   2.404   3.871   4.181
 4674SOL     OW14563   3.296   4.912   3.765
 4674SOL    HW114564   3.328   4.836   3.822
 4674SOL    HW214565   3.204   4.939   3.795
 4675SOL     OW14566   2.159   3.759   3.895
 4675SOL    HW114567   2.208   3.843   3.874
 4675SOL    HW214568   2.221   3.694   3.940
 4676SOL     OW14569   2.797   3.960   4.204
 4676SOL    HW114570   2.749   4.001   4.126
 4676SOL    HW214571   2.896   3.958   4.185
 4677SOL     OW14572   2.938   4.407   5.188
 4677SOL    HW114573   2.858   4.346   5.191
 4677SOL    HW214574   3.019   4.354   5.164
 4678SOL     OW14575   3.089   5.294   4.517
 4678SOL    HW114576   3.110   5.368   4.452
 4678SOL    HW214577   3.157   5.294   4.590
 4679SOL     OW14578   2.321   4.876   4.465
 4679SOL    HW114579   2.250   4.849   4.530
 4679SOL    HW214580   2.295   4.848   4.372
 4680SOL     OW14581   2.894   4.273   3.740
 4680SOL    HW114582   2.853   4.355   3.701
 4680SOL    HW214583   2.958   4.299   3.813
 4681SOL     OW14584   1.940   4.280   5.110
 4681SOL    HW114585   2.032   4.279   5.069
 4681SOL    HW214586   1.934   4.354   5.177
 4682SOL     OW14587   2.423   3.946   4.871
 4682SOL    HW114588   2.461   3.862   4.908
 4682SOL    HW214589   2.335   3.965   4.915
 4683SOL     OW14590   2.728   4.178   4.366
 4683SOL    HW114591   2.696   4.250   4.304
 4683SOL    HW214592   2.752   4.097   4.313
 4684SOL     OW14593   2.879   3.763   4.477
 4684SOL    HW114594   2.807   3.768   4.408
 4684SOL    HW214595   2.855   3.694   4.546
 4685SOL     OW14596   3.291   4.897   4.591
 4685SOL    HW114597   3.236   4.813   4.584
 4685SOL    HW214598   3.317   4.926   4.499
 4686SOL     OW14599   3.328   4.314   4.716
 4686SOL    HW114600   3.298   4.219   4.723
 4686SOL    HW214601   3.401   4.330   4.782
 4687SOL     OW14602   3.719   4.557   4.101
 4687SOL    HW114603   3.761   4.493   4.165
 4687SOL    HW214604   3.681   4.506   4.023
 4688SOL     OW14605   2.350   5.109   3.898
 4688SOL    HW114606   2.263   5.094   3.945
 4688SOL    HW214607   2.333   5.135   3.803
 4689SOL     OW14608   3.526   5.004   4.381
 4689SOL    HW114609   3.625   5.012   4.395
 4689SOL    HW214610   3.481   5.088   4.412
 4690SOL     OW14611   3.252   4.299   3.802
 4690SOL    HW114612   3.198   4.278   3.883
 4690SOL    HW214613   3.343   4.258   3.811
 4691SOL     OW14614   2.389   3.980   4.052
 4691SOL    HW114615   2.416   3.921   3.977
 4691SOL    HW214616   2.389   4.075   4.021
 4692SOL     OW14617   3.616   4.947   5.312
 4692SOL    HW114618   3.707   4.908   5.299
 4692SOL    HW214619   3.624   5.043   5.336
 4693SOL     OW14620   2.926   5.071   5.064
 4693SOL    HW114621   2.846   5.048   5.119
 4693SOL    HW214622   3.009   5.045   5.113
 4694SOL     OW14623   2.973   4.919   4.824
 4694SOL    HW114624   2.933   4.963   4.905
 4694SOL    HW214625   2.932   4.956   4.741
 4695SOL     OW14626   3.500   4.823   4.803
 4695SOL    HW114627   3.505   4.904   4.862
 4695SOL    HW214628   3.414   4.825   4.752
 4696SOL     OW14629   2.777   3.813   5.126
 4696SOL    HW114630   2.802   3.793   5.031
 4696SOL    HW214631   2.849   3.869   5.168
 4697SOL     OW14632   2.842   4.840   5.443
 4697SOL    HW114633   2.743   4.846   5.453
 4697SOL    HW214634   2.865   4.760   5.387
 4698SOL     OW14635   2.567   4.774   4.092
 4698SOL    HW114636   2.553   4.781   4.191
 4698SOL    HW214637   2.651   4.723   4.074
 4699SOL     OW14638   2.272   4.537   4.975
 4699SOL    HW114639   2.358   4.549   5.025
 4699SOL    HW214640   2.230   4.450   5.002
 4700SOL     OW14641   3.136   4.110   4.986
 4700SOL    HW114642   3.157   4.184   5.050
 4700SOL    HW214643   3.047   4.127   4.943
 4701SOL     OW14644   2.229   4.824   4.225
 4701SOL    HW114645   2.222   4.907   4.169
 4701SOL    HW214646   2.233   4.744   4.165
 4702SOL     OW14647   2.428   4.261   4.589
 4702SOL    HW114648   2.440   4.327   4.515
 4702SOL    HW214649   2.474   4.295   4.672
 4703SOL     OW14650   3.114   5.072   4.112
 4703SOL    HW114651   3.164   5.149   4.152
 4703SOL    HW214652   3.019   5.074   4.144
 4704SOL     OW14653   3.134   5.169   4.866
 4704SOL    HW114654   3.181   5.182   4.953
 4704SOL    HW214655   3.068   5.095   4.875
 4705SOL     OW14656   3.444   4.363   4.196
 4705SOL    HW114657   3.413   4.424   4.269
 4705SOL    HW214658   3.494   4.415   4.127
 4706SOL     OW14659   2.216   5.234   5.053
 4706SOL    HW114660   2.195   5.190   4.966
 4706SOL    HW214661   2.313   5.260   5.056
 4707SOL     OW14662   2.264   4.475   5.322
 4707SOL    HW114663   2.332   4.530   5.275
 4707SOL    HW214664   2.304   4.387   5.349
 4708SOL     OW14665   3.449   4.503   5.394
 4708SOL    HW114666   3.357   4.541   5.389
 4708SOL    HW214667   3.509   4.550   5.329
 4709SOL     OW14668   2.875   3.829   5.494
 4709SOL    HW114669   2.881   3.914   5.442
 4709SOL    HW214670   2.907   3.753   5.437
 4710SOL     OW14671   2.366   3.774   5.464
 4710SOL    HW114672   2.324   3.717   5.394
 4710SOL    HW214673   2.300   3.843   5.496
 4711SOL     OW14674   2.435   4.594   4.753
 4711SOL    HW114675   2.479   4.683   4.744
 4711SOL    HW214676   2.372   4.594   4.830
 4712SOL     OW14677   3.222   4.586   4.769
 4712SOL    HW114678   3.147   4.586   4.703
 4712SOL    HW214679   3.259   4.494   4.778
 4713SOL     OW14680   3.071   4.249   3.999
 4713SOL    HW114681   3.084   4.165   4.053
 4713SOL    HW214682   3.042   4.323   4.059
 4714SOL     OW14683   2.169   3.937   4.955
 4714SOL    HW114684   2.146   3.974   5.045
 4714SOL    HW214685   2.139   3.842   4.949
 4715SOL     OW14686   1.899   5.034   5.006
 4715SOL    HW114687   1.952   4.985   5.074
 4715SOL    HW214688   1.921   5.132   5.011
 4716SOL     OW14689   2.594   4.358   4.788
 4716SOL    HW114690   2.653   4.332   4.712
 4716SOL    HW214691   2.566   4.454   4.777
 4717SOL     OW14692   3.590   4.659   5.578
 4717SOL    HW114693   3.544   4.652   5.489
 4717SOL    HW214694   3.528   4.703   5.644
 4718SOL     OW14695   2.169   3.787   4.342
 4718SOL    HW114696   2.158   3.881   4.375
 4718SOL    HW214697   2.164   3.724   4.419
 4719SOL     OW14698   3.484   4.091   4.098
 4719SOL    HW114699   3.486   4.015   4.162
 4719SOL    HW214700   3.436   4.168   4.138
 4720SOL     OW14701   2.885   4.490   4.690
 4720SOL    HW114702   2.900   4.511   4.786
 4720SOL    HW214703   2.855   4.395   4.681
 4721SOL     OW14704   3.721   5.242   5.329
 4721SOL    HW114705   3.735   5.269   5.234
 4721SOL    HW214706   3.804   5.264   5.382
 4722SOL     OW14707   2.212   4.622   5.528
 4722SOL    HW114708   2.288   4.666   5.576
 4722SOL    HW214709   2.247   4.575   5.446
 4723SOL     OW14710   3.402   3.998   3.849
 4723SOL    HW114711   3.341   3.923   3.872
 4723SOL    HW214712   3.424   4.050   3.932
 4724SOL     OW14713   3.165   4.562   3.766
 4724SOL    HW114714   3.199   4.469   3.781
 4724SOL    HW214715   3.183   4.589   3.671
 4725SOL     OW14716   2.930   5.057   4.573
 4725SOL    HW114717   2.937   4.973   4.518
 4725SOL    HW214718   2.992   5.126   4.537
 4726SOL     OW14719   2.181   4.534   4.673
 4726SOL    HW114720   2.274   4.570   4.678
 4726SOL    HW214721   2.175   4.449   4.725
 4727SOL     OW14722   2.201   4.233   4.730
 4727SOL    HW114723   2.149   4.150   4.713
 4727SOL    HW214724   2.278   4.238   4.666
 4728SOL     OW14725   3.000   4.104   5.402
 4728SOL    HW114726   2.955   4.167   5.466
 4728SOL    HW214727   3.093   4.135   5.385
 4729SOL     OW14728   3.022   3.931   5.201
 4729SOL    HW114729   3.022   3.995   5.278
 4729SOL    HW214730   3.050   3.979   5.118
 4730SOL     OW14731   1.870   5.050   3.924
 4730SOL    HW114732   1.777   5.071   3.893
 4730SOL    HW214733   1.880   4.951   3.937
 4731SOL     OW14734   2.864   4.520   4.962
 4731SOL    HW114735   2.905   4.488   5.048
 4731SOL    HW214736   2.768   4.493   4.959
 4732SOL     OW14737   1.902   4.268   4.838
 4732SOL    HW114738   1.987   4.235   4.797
 4732SOL    HW214739   1.915   4.283   4.936
 4733SOL     OW14740   2.051   4.244   5.446
 4733SOL    HW114741   2.110   4.204   5.376
 4733SOL    HW214742   1.993   4.315   5.405
 4734SOL     OW14743   3.231   4.674   5.384
 4734SOL    HW114744   3.270   4.763   5.404
 4734SOL    HW214745   3.241   4.654   5.287
 4735SOL     OW14746   2.677   4.296   4.049
 4735SOL    HW114747   2.684   4.207   4.003
 4735SOL    HW214748   2.583   4.330   4.041
 4736SOL     OW14749   3.519   4.328   4.930
 4736SOL    HW114750   3.481   4.259   4.992
 4736SOL    HW214751   3.601   4.292   4.886
 4737SOL     OW14752   2.114   5.288   5.468
 4737SOL    HW114753   2.084   5.345   5.544
 4737SOL    HW214754   2.107   5.191   5.494
 4738SOL     OW14755   2.533   4.188   4.993
 4738SOL    HW114756   2.499   4.099   4.963
 4738SOL    HW214757   2.559   4.242   4.913
 4739SOL     OW14758   2.335   4.224   3.915
 4739SOL    HW114759   2.396   4.304   3.919
 4739SOL    HW214760   2.240   4.255   3.922
 4740SOL     OW14761   2.021   4.861   5.190
 4740SOL    HW114762   2.043   4.800   5.266
 4740SOL    HW214763   2.031   4.812   5.104
 4741SOL     OW14764   3.209   4.783   4.958
 4741SOL    HW114765   3.233   4.720   4.884
 4741SOL    HW214766   3.119   4.823   4.940
 4742SOL     OW14767   3.164   4.579   4.033
 4742SOL    HW114768   3.078   4.548   4.075
 4742SOL    HW214769   3.160   4.565   3.934
 4743SOL     OW14770   1.945   4.982   4.746
 4743SOL    HW114771   1.940   4.981   4.846
 4743SOL    HW214772   1.862   4.941   4.708
 4744SOL     OW14773   2.550   5.386   5.440
 4744SOL    HW114774   2.494   5.467   5.449
 4744SOL    HW214775   2.602   5.390   5.354
 4745SOL     OW14776   3.588   3.859   4.247
 4745SOL    HW114777   3.661   3.842   4.180
 4745SOL    HW214778   3.557   3.772   4.285
 4746SOL     OW14779   3.142   4.651   4.396
 4746SOL    HW114780   3.202   4.570   4.398
 4746SOL    HW214781   3.182   4.720   4.336
 4747SOL     OW14782   2.692   4.997   5.146
 4747SOL    HW114783   2.687   5.030   5.241
 4747SOL    HW214784   2.606   5.016   5.100
 4748SOL     OW14785   3.703   3.899   4.687
 4748SOL    HW114786   3.742   3.814   4.651
 4748SOL    HW214787   3.605   3.901   4.668
 4749SOL     OW14788   2.125   4.050   4.444
 4749SOL    HW114789   2.046   4.101   4.410
 4749SOL    HW214790   2.116   4.035   4.542
 4750SOL     OW14791   2.684   4.726   5.096
 4750SOL    HW114792   2.724   4.725   5.004
 4750SOL    HW214793   2.694   4.818   5.136
 4751SOL     OW14794   2.778   4.634   4.015
 4751SOL    HW114795   2.841   4.672   3.947
 4751SOL    HW214796   2.818   4.551   4.054
 4752SOL     OW14797   2.234   5.012   5.214
 4752SOL    HW114798   2.221   5.105   5.180
 4752SOL    HW214799   2.150   4.960   5.201
 4753SOL     OW14800   3.476   5.016   5.013
 4753SOL    HW114801   3.536   5.019   5.093
 4753SOL    HW214802   3.401   5.080   5.026
 4754SOL     OW14803   2.901   4.822   4.420
 4754SOL    HW114804   2.831   4.775   4.474
 4754SOL    HW214805   2.960   4.754   4.377
 4755SOL     OW14806   2.876   3.960   4.695
 4755SOL    HW114807   2.868   3.924   4.602
 4755SOL    HW214808   2.874   3.884   4.760
 4756SOL     OW14809   3.571   4.109   5.105
 4756SOL    HW114810   3.644   4.178   5.109
 4756SOL    HW214811   3.599   4.034   5.046
 4757SOL     OW14812   2.117   5.072   4.014
 4757SOL    HW114813   2.021   5.073   3.987
 4757SOL    HW214814   2.129   5.125   4.098
 4758SOL     OW14815   1.967   4.737   5.450
 4758SOL    HW114816   1.890   4.704   5.504
 4758SOL    HW214817   2.052   4.707   5.492
 4759SOL     OW14818   2.534   3.927   5.213
 4759SOL    HW114819   2.624   3.911   5.173
 4759SOL    HW214820   2.542   3.932   5.312
 4760SOL     OW14821   1.937   4.069   3.757
 4760SOL    HW114822   1.845   4.041   3.728
 4760SOL    HW214823   1.968   4.146   3.701
 4761SOL     OW14824   3.302   4.580   5.122
 4761SOL    HW114825   3.245   4.632   5.059
 4761SOL    HW214826   3.398   4.592   5.098
 4762SOL     OW14827   1.934   3.890   4.042
 4762SOL    HW114828   1.917   3.973   3.988
 4762SOL    HW214829   2.024   3.853   4.020
 4763SOL     OW14830   3.045   5.059   3.843
 4763SOL    HW114831   2.946   5.048   3.845
 4763SOL    HW214832   3.079   5.074   3.936
 4764SOL     OW14833   2.475   4.566   5.155
 4764SOL    HW114834   2.531   4.647   5.138
 4764SOL    HW214835   2.534   4.486   5.158
 4765SOL     OW14836   2.578   4.289   5.432
 4765SOL    HW114837   2.597   4.354   5.506
 4765SOL    HW214838   2.638   4.209   5.441
 4766SOL     OW14839   3.312   4.944   5.357
 4766SOL    HW114840   3.303   4.934   5.456
 4766SOL    HW214841   3.408   4.937   5.331
 4767SOL     OW14842   3.536   4.607   4.978
 4767SOL    HW114843   3.509   4.518   4.941
 4767SOL    HW214844   3.537   4.675   4.905
 4768SOL     OW14845   3.087   4.049   4.173
 4768SOL    HW114846   3.152   3.975   4.162
 4768SOL    HW214847   3.107   4.099   4.257
 4769SOL     OW14848   2.456   4.469   4.376
 4769SOL    HW114849   2.506   4.554   4.357
 4769SOL    HW214850   2.368   4.471   4.328
 4770SOL     OW14851   3.639   4.066   5.366
 4770SOL    HW114852   3.622   4.097   5.272
 4770SOL    HW214853   3.555   4.029   5.404
 4771SOL     OW14854   3.592   4.658   5.241
 4771SOL    HW114855   3.630   4.749   5.256
 4771SOL    HW214856   3.584   4.641   5.142
 4772SOL     OW14857   2.721   5.098   3.740
 4772SOL    HW114858   2.675   5.113   3.828
 4772SOL    HW214859   2.765   5.183   3.710
 4773SOL     OW14860   2.721   4.680   4.585
 4773SOL    HW114861   2.775   4.611   4.633
 4773SOL    HW214862   2.689   4.749   4.651
 4774SOL     OW14863   2.945   4.708   3.811
 4774SOL    HW114864   2.922   4.761   3.729
 4774SOL    HW214865   3.026   4.652   3.792
 4775SOL     OW14866   2.083   5.038   5.568
 4775SOL    HW114867   2.018   4.965   5.547
 4775SOL    HW214868   2.087   5.052   5.666
 4776SOL     OW14869   1.941   4.964   4.377
 4776SOL    HW114870   1.940   4.917   4.465
 4776SOL    HW214871   2.023   4.936   4.326
 4777SOL     OW14872   2.534   5.115   5.348
 4777SOL    HW114873   2.456   5.065   5.386
 4777SOL    HW214874   2.531   5.210   5.379
 4778SOL     OW14875   3.686   3.916   4.951
 4778SOL    HW114876   3.682   3.826   4.995
 4778SOL    HW214877   3.689   3.905   4.852
 4779SOL     OW14878   2.290   4.148   4.244
 4779SOL    HW114879   2.320   4.076   4.182
 4779SOL    HW214880   2.251   4.108   4.327
 4780SOL     OW14881   3.567   5.211   4.828
 4780SOL    HW114882   3.474   5.186   4.801
 4780SOL    HW214883   3.593   5.161   4.910
 4781SOL     OW14884   2.179   4.271   5.004
 4781SOL    HW114885   2.217   4.212   5.076
 4781SOL    HW214886   2.219   4.245   4.916
 4782SOL     OW14887   3.286   3.938   4.836
 4782SOL    HW114888   3.338   3.873   4.891
 4782SOL    HW214889   3.237   4.001   4.897
 4783SOL     OW14890   2.863   3.758   4.878
 4783SOL    HW114891   2.800   3.686   4.847
 4783SOL    HW214892   2.956   3.722   4.878
 4784SOL     OW14893   2.632   5.054   4.025
 4784SOL    HW114894   2.586   4.967   4.042
 4784SOL    HW214895   2.723   5.051   4.066
 4785SOL     OW14896   2.480   5.291   5.008
 4785SOL    HW114897   2.475   5.373   5.065
 4785SOL    HW214898   2.569   5.288   4.963
 4786SOL     OW14899   3.214   3.776   3.892
 4786SOL    HW114900   3.249   3.735   3.808
 4786SOL    HW214901   3.124   3.738   3.912
 4787SOL     OW14902   3.162   4.177   4.415
 4787SOL    HW114903   3.103   4.257   4.419
 4787SOL    HW214904   3.177   4.142   4.508
 4788SOL     OW14905   3.455   3.945   4.606
 4788SOL    HW114906   3.371   3.944   4.660
 4788SOL    HW214907   3.457   4.028   4.550
 4789SOL     OW14908   1.901   4.801   4.024
 4789SOL    HW114909   2.000   4.790   4.015
 4789SOL    HW214910   1.861   4.715   4.056
 4790SOL     OW14911   2.092   4.352   5.699
 4790SOL    HW114912   1.999   4.350   5.736
 4790SOL    HW214913   2.093   4.313   5.607
 4791SOL     OW14914   2.087   3.999   6.582
 4791SOL    HW114915   2.122   3.982   6.674
 4791SOL    HW214916   1.999   3.954   6.570
 4792SOL     OW14917   1.881   4.092   6.233
 4792SOL    HW114918   1.799   4.135   6.272
 4792SOL    HW214919   1.853   4.019   6.170
 4793SOL     OW14920   2.431   4.999   6.751
 4793SOL    HW114921   2.338   4.992   6.714
 4793SOL    HW214922   2.442   5.088   6.795
 4794SOL     OW14923   3.417   5.235   6.289
 4794SOL    HW114924   3.360   5.219   6.370
 4794SOL    HW214925   3.358   5.245   6.209
 4795SOL     OW14926   2.997   4.427   6.303
 4795SOL    HW114927   3.054   4.505   6.278
 4795SOL    HW214928   2.937   4.453   6.379
 4796SOL     OW14929   3.617   4.331   5.817
 4796SOL    HW114930   3.605   4.318   5.718
 4796SOL    HW214931   3.587   4.250   5.866
 4797SOL     OW14932   2.630   4.868   6.609
 4797SOL    HW114933   2.552   4.885   6.669
 4797SOL    HW214934   2.664   4.955   6.573
 4798SOL     OW14935   2.712   4.522   7.409
 4798SOL    HW114936   2.708   4.598   7.474
 4798SOL    HW214937   2.734   4.558   7.318
 4799SOL     OW14938   2.547   4.736   6.251
 4799SOL    HW114939   2.616   4.720   6.321
 4799SOL    HW214940   2.474   4.793   6.289
 4800SOL     OW14941   2.548   4.885   7.389
 4800SOL    HW114942   2.608   4.964   7.403
 4800SOL    HW214943   2.462   4.916   7.348
 4801SOL     OW14944   2.197   5.159   6.647
 4801SOL    HW114945   2.119   5.128   6.594
 4801SOL    HW214946   2.255   5.217   6.590
 4802SOL     OW14947   3.322   5.229   6.925
 4802SOL    HW114948   3.346   5.323   6.951
 4802SOL    HW214949   3.306   5.175   7.007
 4803SOL     OW14950   2.300   4.116   7.085
 4803SOL    HW114951   2.382   4.060   7.094
 4803SOL    HW214952   2.219   4.058   7.089
 4804SOL     OW14953   3.465   4.171   6.323
 4804SOL    HW114954   3.391   4.217   6.273
 4804SOL    HW214955   3.516   4.239   6.376
 4805SOL     OW14956   2.989   5.065   7.276
 4805SOL    HW114957   3.036   5.065   7.364
 4805SOL    HW214958   2.941   4.978   7.265
 4806SOL     OW14959   2.092   5.158   6.124
 4806SOL    HW114960   2.066   5.254   6.124
 4806SOL    HW214961   2.021   5.104   6.169
 4807SOL     OW14962   2.102   4.815   6.472
 4807SOL    HW114963   2.116   4.731   6.524
 4807SOL    HW214964   2.047   4.879   6.527
 4808SOL     OW14965   2.468   4.688   5.709
 4808SOL    HW114966   2.475   4.772   5.655
 4808SOL    HW214967   2.514   4.701   5.797
 4809SOL     OW14968   3.456   3.838   7.066
 4809SOL    HW114969   3.438   3.905   6.994
 4809SOL    HW214970   3.453   3.884   7.155
 4810SOL     OW14971   1.984   4.367   6.149
 4810SOL    HW114972   1.939   4.279   6.166
 4810SOL    HW214973   1.983   4.421   6.233
 4811SOL     OW14974   1.889   5.320   5.703
 4811SOL    HW114975   1.870   5.224   5.724
 4811SOL    HW214976   1.856   5.378   5.778
 4812SOL     OW14977   3.551   4.646   6.198
 4812SOL    HW114978   3.646   4.617   6.206
 4812SOL    HW214979   3.543   4.711   6.123
 4813SOL     OW14980   3.503   4.832   6.018
 4813SOL    HW114981   3.589   4.834   5.966
 4813SOL    HW214982   3.517   4.879   6.106
 4814SOL     OW14983   1.975   4.461   7.183
 4814SOL    HW114984   2.063   4.448   7.228
 4814SOL    HW214985   1.962   4.558   7.161
 4815SOL     OW14986   2.475   5.089   6.312
 4815SOL    HW114987   2.426   5.002   6.321
 4815SOL    HW214988   2.452   5.132   6.225
 4816SOL     OW14989   3.155   4.952   7.009
 4816SOL    HW114990   3.192   4.879   6.951
 4816SOL    HW214991   3.207   4.957   7.094
 4817SOL     OW14992   2.671   3.728   6.088
 4817SOL    HW114993   2.711   3.819   6.079
 4817SOL    HW214994   2.571   3.736   6.094
 4818SOL     OW14995   2.059   4.700   6.850
 4818SOL    HW114996   2.148   4.655   6.836
 4818SOL    HW214997   1.986   4.635   6.831
 4819SOL     OW14998   3.387   4.723   5.776
 4819SOL    HW114999   3.324   4.647   5.789
 4819SOL    HW215000   3.435   4.741   5.862
 4820SOL     OW15001   2.179   3.975   7.387
 4820SOL    HW115002   2.250   4.046   7.393
 4820SOL    HW215003   2.091   4.014   7.415
 4821SOL     OW15004   3.328   5.141   6.539
 4821SOL    HW115005   3.269   5.147   6.619
 4821SOL    HW215006   3.313   5.053   6.493
 4822SOL     OW15007   2.460   4.453   5.856
 4822SOL    HW115008   2.484   4.522   5.788
 4822SOL    HW215009   2.382   4.486   5.910
 4823SOL     OW15010   3.143   4.069   6.530
 4823SOL    HW115011   3.057   4.019   6.517
 4823SOL    HW215012   3.205   4.015   6.586
 4824SOL     OW15013   2.669   4.329   7.051
 4824SOL    HW115014   2.622   4.326   7.140
 4824SOL    HW215015   2.618   4.274   6.985
 4825SOL     OW15016   3.256   4.193   7.260
 4825SOL    HW115017   3.236   4.236   7.348
 4825SOL    HW215018   3.334   4.131   7.269
 4826SOL     OW15019   2.835   4.614   7.158
 4826SOL    HW115020   2.881   4.530   7.129
 4826SOL    HW215021   2.779   4.648   7.083
 4827SOL     OW15022   2.853   4.134   6.828
 4827SOL    HW115023   2.776   4.168   6.882
 4827SOL    HW215024   2.819   4.083   6.749
 4828SOL     OW15025   2.903   4.425   6.015
 4828SOL    HW115026   2.929   4.421   6.111
 4828SOL    HW215027   2.818   4.374   6.001
 4829SOL     OW15028   1.938   4.535   6.375
 4829SOL    HW115029   2.037   4.523   6.384
 4829SOL    HW215030   1.914   4.630   6.396
 4830SOL     OW15031   2.727   4.072   5.781
 4830SOL    HW115032   2.786   4.135   5.732
 4830SOL    HW215033   2.746   3.978   5.752
 4831SOL     OW15034   3.581   4.309   7.417
 4831SOL    HW115035   3.555   4.398   7.381
 4831SOL    HW215036   3.579   4.241   7.344
 4832SOL     OW15037   3.224   4.868   6.131
 4832SOL    HW115038   3.307   4.839   6.083
 4832SOL    HW215039   3.175   4.935   6.075
 4833SOL     OW15040   2.412   3.920   6.471
 4833SOL    HW115041   2.407   3.915   6.571
 4833SOL    HW215042   2.414   4.016   6.442
 4834SOL     OW15043   2.870   5.180   6.063
 4834SOL    HW115044   2.824   5.252   6.011
 4834SOL    HW215045   2.866   5.200   6.161
 4835SOL     OW15046   3.657   4.790   6.459
 4835SOL    HW115047   3.595   4.775   6.383
 4835SOL    HW215048   3.605   4.801   6.544
 4836SOL     OW15049   3.089   5.274   7.092
 4836SOL    HW115050   3.095   5.197   7.156
 4836SOL    HW215051   3.037   5.248   7.012
 4837SOL     OW15052   2.183   4.667   5.828
 4837SOL    HW115053   2.265   4.706   5.786
 4837SOL    HW215054   2.156   4.585   5.779
 4838SOL     OW15055   3.320   4.459   6.314
 4838SOL    HW115056   3.315   4.394   6.389
 4838SOL    HW215057   3.400   4.518   6.327
 4839SOL     OW15058   2.323   4.990   7.313
 4839SOL    HW115059   2.273   4.991   7.227
 4839SOL    HW215060   2.260   4.972   7.389
 4840SOL     OW15061   2.973   5.500   5.823
 4840SOL    HW115062   2.913   5.438   5.873
 4840SOL    HW215063   3.004   5.456   5.738
 4841SOL     OW15064   2.064   4.009   7.084
 4841SOL    HW115065   1.984   4.069   7.071
 4841SOL    HW215066   2.054   3.960   7.170
 4842SOL     OW15067   3.494   5.101   5.667
 4842SOL    HW115068   3.462   5.195   5.657
 4842SOL    HW215069   3.418   5.038   5.655
 4843SOL     OW15070   3.262   3.831   6.012
 4843SOL    HW115071   3.238   3.794   5.922
 4843SOL    HW215072   3.361   3.847   6.016
 4844SOL     OW15073   2.244   4.424   6.066
 4844SOL    HW115074   2.289   4.334   6.063
 4844SOL    HW215075   2.150   4.413   6.099
 4845SOL     OW15076   3.409   3.946   7.315
 4845SOL    HW115077   3.404   3.983   7.407
 4845SOL    HW215078   3.337   3.877   7.303
 4846SOL     OW15079   2.476   3.846   5.703
 4846SOL    HW115080   2.574   3.824   5.710
 4846SOL    HW215081   2.445   3.829   5.610
 4847SOL     OW15082   2.643   3.988   7.335
 4847SOL    HW115083   2.710   3.927   7.378
 4847SOL    HW215084   2.570   4.007   7.400
 4848SOL     OW15085   3.213   4.314   7.019
 4848SOL    HW115086   3.241   4.271   7.104
 4848SOL    HW215087   3.238   4.410   7.020
 4849SOL     OW15088   2.665   5.126   6.510
 4849SOL    HW115089   2.755   5.140   6.468
 4849SOL    HW215090   2.594   5.128   6.439
 4850SOL     OW15091   2.784   4.227   6.485
 4850SOL    HW115092   2.759   4.218   6.389
 4850SOL    HW215093   2.832   4.145   6.516
 4851SOL     OW15094   2.401   3.788   6.098
 4851SOL    HW115095   2.320   3.789   6.156
 4851SOL    HW215096   2.404   3.871   6.043
 4852SOL     OW15097   3.296   4.912   5.627
 4852SOL    HW115098   3.328   4.836   5.684
 4852SOL    HW215099   3.204   4.939   5.657
 4853SOL     OW15100   2.159   3.759   5.757
 4853SOL    HW115101   2.208   3.843   5.736
 4853SOL    HW215102   2.221   3.694   5.802
 4854SOL     OW15103   2.797   3.960   6.066
 4854SOL    HW115104   2.749   4.001   5.988
 4854SOL    HW215105   2.896   3.958   6.047
 4855SOL     OW15106   2.938   4.407   7.050
 4855SOL    HW115107   2.858   4.346   7.053
 4855SOL    HW215108   3.019   4.354   7.026
 4856SOL     OW15109   3.089   5.294   6.379
 4856SOL    HW115110   3.110   5.368   6.314
 4856SOL    HW215111   3.157   5.294   6.452
 4857SOL     OW15112   2.321   4.876   6.327
 4857SOL    HW115113   2.250   4.849   6.392
 4857SOL    HW215114   2.295   4.848   6.234
 4858SOL     OW15115   2.894   4.273   5.602
 4858SOL    HW115116   2.853   4.355   5.563
 4858SOL    HW215117   2.958   4.299   5.675
 4859SOL     OW15118   1.940   4.280   6.972
 4859SOL    HW115119   2.032   4.279   6.931
 4859SOL    HW215120   1.934   4.354   7.039
 4860SOL     OW15121   2.423   3.946   6.733
 4860SOL    HW115122   2.461   3.862   6.770
 4860SOL    HW215123   2.335   3.965   6.777
 4861SOL     OW15124   2.728   4.178   6.228
 4861SOL    HW115125   2.696   4.250   6.166
 4861SOL    HW215126   2.752   4.097   6.175
 4862SOL     OW15127   2.879   3.763   6.339
 4862SOL    HW115128   2.807   3.768   6.270
 4862SOL    HW215129   2.855   3.694   6.408
 4863SOL     OW15130   3.291   4.897   6.453
 4863SOL    HW115131   3.236   4.813   6.446
 4863SOL    HW215132   3.317   4.926   6.361
 4864SOL     OW15133   3.328   4.314   6.578
 4864SOL    HW115134   3.298   4.219   6.585
 4864SOL    HW215135   3.401   4.330   6.644
 4865SOL     OW15136   3.719   4.557   5.963
 4865SOL    HW115137   3.761   4.493   6.027
 4865SOL    HW215138   3.681   4.506   5.885
 4866SOL     OW15139   2.350   5.109   5.760
 4866SOL    HW115140   2.263   5.094   5.807
 4866SOL    HW215141   2.333   5.135   5.665
 4867SOL     OW15142   3.526   5.004   6.243
 4867SOL    HW115143   3.625   5.012   6.257
 4867SOL    HW215144   3.481   5.088   6.274
 4868SOL     OW15145   3.252   4.299   5.664
 4868SOL    HW115146   3.198   4.278   5.745
 4868SOL    HW215147   3.343   4.258   5.673
 4869SOL     OW15148   2.389   3.980   5.914
 4869SOL    HW115149   2.416   3.921   5.839
 4869SOL    HW215150   2.389   4.075   5.883
 4870SOL     OW15151   3.616   4.947   7.174
 4870SOL    HW115152   3.707   4.908   7.161
 4870SOL    HW215153   3.624   5.043   7.198
 4871SOL     OW15154   2.926   5.071   6.926
 4871SOL    HW115155   2.846   5.048   6.981
 4871SOL    HW215156   3.009   5.045   6.975
 4872SOL     OW15157   2.973   4.919   6.686
 4872SOL    HW115158   2.933   4.963   6.767
 4872SOL    HW215159   2.932   4.956   6.603
 4873SOL     OW15160   3.500   4.823   6.665
 4873SOL    HW115161   3.505   4.904   6.724
 4873SOL    HW215162   3.414   4.825   6.614
 4874SOL     OW15163   2.777   3.813   6.988
 4874SOL    HW115164   2.802   3.793   6.893
 4874SOL    HW215165   2.849   3.869   7.030
 4875SOL     OW15166   2.842   4.840   7.305
 4875SOL    HW115167   2.743   4.846   7.315
 4875SOL    HW215168   2.865   4.760   7.249
 4876SOL     OW15169   2.567   4.774   5.954
 4876SOL    HW115170   2.553   4.781   6.053
 4876SOL    HW215171   2.651   4.723   5.936
 4877SOL     OW15172   2.272   4.537   6.837
 4877SOL    HW115173   2.358   4.549   6.887
 4877SOL    HW215174   2.230   4.450   6.864
 4878SOL     OW15175   3.136   4.110   6.848
 4878SOL    HW115176   3.157   4.184   6.912
 4878SOL    HW215177   3.047   4.127   6.805
 4879SOL     OW15178   2.229   4.824   6.087
 4879SOL    HW115179   2.222   4.907   6.031
 4879SOL    HW215180   2.233   4.744   6.027
 4880SOL     OW15181   2.428   4.261   6.451
 4880SOL    HW115182   2.440   4.327   6.377
 4880SOL    HW215183   2.474   4.295   6.534
 4881SOL     OW15184   3.114   5.072   5.974
 4881SOL    HW115185   3.164   5.149   6.014
 4881SOL    HW215186   3.019   5.074   6.006
 4882SOL     OW15187   3.134   5.169   6.728
 4882SOL    HW115188   3.181   5.182   6.815
 4882SOL    HW215189   3.068   5.095   6.737
 4883SOL     OW15190   3.444   4.363   6.058
 4883SOL    HW115191   3.413   4.424   6.131
 4883SOL    HW215192   3.494   4.415   5.989
 4884SOL     OW15193   2.216   5.234   6.915
 4884SOL    HW115194   2.195   5.190   6.828
 4884SOL    HW215195   2.313   5.260   6.918
 4885SOL     OW15196   2.264   4.475   7.184
 4885SOL    HW115197   2.332   4.530   7.137
 4885SOL    HW215198   2.304   4.387   7.211
 4886SOL     OW15199   3.449   4.503   7.256
 4886SOL    HW115200   3.357   4.541   7.251
 4886SOL    HW215201   3.509   4.550   7.191
 4887SOL     OW15202   2.875   3.829   7.356
 4887SOL    HW115203   2.881   3.914   7.304
 4887SOL    HW215204   2.907   3.753   7.299
 4888SOL     OW15205   2.366   3.774   7.326
 4888SOL    HW115206   2.324   3.717   7.256
 4888SOL    HW215207   2.300   3.843   7.358
 4889SOL     OW15208   2.435   4.594   6.615
 4889SOL    HW115209   2.479   4.683   6.606
 4889SOL    HW215210   2.372   4.594   6.692
 4890SOL     OW15211   3.222   4.586   6.631
 4890SOL    HW115212   3.147   4.586   6.565
 4890SOL    HW215213   3.259   4.494   6.640
 4891SOL     OW15214   3.071   4.249   5.861
 4891SOL    HW115215   3.084   4.165   5.915
 4891SOL    HW215216   3.042   4.323   5.921
 4892SOL     OW15217   2.169   3.937   6.817
 4892SOL    HW115218   2.146   3.974   6.907
 4892SOL    HW215219   2.139   3.842   6.811
 4893SOL     OW15220   1.899   5.034   6.868
 4893SOL    HW115221   1.952   4.985   6.936
 4893SOL    HW215222   1.921   5.132   6.873
 4894SOL     OW15223   2.594   4.358   6.650
 4894SOL    HW115224   2.653   4.332   6.574
 4894SOL    HW215225   2.566   4.454   6.639
 4895SOL     OW15226   3.590   4.659   7.440
 4895SOL    HW115227   3.544   4.652   7.351
 4895SOL    HW215228   3.528   4.703   7.506
 4896SOL     OW15229   2.169   3.787   6.204
 4896SOL    HW115230   2.158   3.881   6.237
 4896SOL    HW215231   2.164   3.724   6.281
 4897SOL     OW15232   3.484   4.091   5.960
 4897SOL    HW115233   3.486   4.015   6.024
 4897SOL    HW215234   3.436   4.168   6.000
 4898SOL     OW15235   2.885   4.490   6.552
 4898SOL    HW115236   2.900   4.511   6.648
 4898SOL    HW215237   2.855   4.395   6.543
 4899SOL     OW15238   3.721   5.242   7.191
 4899SOL    HW115239   3.735   5.269   7.096
 4899SOL    HW215240   3.804   5.264   7.244
 4900SOL     OW15241   2.212   4.622   7.390
 4900SOL    HW115242   2.288   4.666   7.438
 4900SOL    HW215243   2.247   4.575   7.308
 4901SOL     OW15244   3.402   3.998   5.711
 4901SOL    HW115245   3.341   3.923   5.734
 4901SOL    HW215246   3.424   4.050   5.794
 4902SOL     OW15247   3.165   4.562   5.628
 4902SOL    HW115248   3.199   4.469   5.643
 4902SOL    HW215249   3.183   4.589   5.533
 4903SOL     OW15250   2.930   5.057   6.435
 4903SOL    HW115251   2.937   4.973   6.380
 4903SOL    HW215252   2.992   5.126   6.399
 4904SOL     OW15253   2.181   4.534   6.535
 4904SOL    HW115254   2.274   4.570   6.540
 4904SOL    HW215255   2.175   4.449   6.587
 4905SOL     OW15256   2.201   4.233   6.592
 4905SOL    HW115257   2.149   4.150   6.575
 4905SOL    HW215258   2.278   4.238   6.528
 4906SOL     OW15259   3.000   4.104   7.264
 4906SOL    HW115260   2.955   4.167   7.328
 4906SOL    HW215261   3.093   4.135   7.247
 4907SOL     OW15262   3.022   3.931   7.063
 4907SOL    HW115263   3.022   3.995   7.140
 4907SOL    HW215264   3.050   3.979   6.980
 4908SOL     OW15265   1.870   5.050   5.786
 4908SOL    HW115266   1.777   5.071   5.755
 4908SOL    HW215267   1.880   4.951   5.799
 4909SOL     OW15268   2.864   4.520   6.824
 4909SOL    HW115269   2.905   4.488   6.910
 4909SOL    HW215270   2.768   4.493   6.821
 4910SOL     OW15271   1.902   4.268   6.700
 4910SOL    HW115272   1.987   4.235   6.659
 4910SOL    HW215273   1.915   4.283   6.798
 4911SOL     OW15274   2.051   4.244   7.308
 4911SOL    HW115275   2.110   4.204   7.238
 4911SOL    HW215276   1.993   4.315   7.267
 4912SOL     OW15277   3.231   4.674   7.246
 4912SOL    HW115278   3.270   4.763   7.266
 4912SOL    HW215279   3.241   4.654   7.149
 4913SOL     OW15280   2.677   4.296   5.911
 4913SOL    HW115281   2.684   4.207   5.865
 4913SOL    HW215282   2.583   4.330   5.903
 4914SOL     OW15283   3.519   4.328   6.792
 4914SOL    HW115284   3.481   4.259   6.854
 4914SOL    HW215285   3.601   4.292   6.748
 4915SOL     OW15286   2.114   5.288   7.330
 4915SOL    HW115287   2.084   5.345   7.406
 4915SOL    HW215288   2.107   5.191   7.356
 4916SOL     OW15289   2.533   4.188   6.855
 4916SOL    HW115290   2.499   4.099   6.825
 4916SOL    HW215291   2.559   4.242   6.775
 4917SOL     OW15292   2.335   4.224   5.777
 4917SOL    HW115293   2.396   4.304   5.781
 4917SOL    HW215294   2.240   4.255   5.784
 4918SOL     OW15295   2.021   4.861   7.052
 4918SOL    HW115296   2.043   4.800   7.128
 4918SOL    HW215297   2.031   4.812   6.966
 4919SOL     OW15298   3.209   4.783   6.820
 4919SOL    HW115299   3.233   4.720   6.746
 4919SOL    HW215300   3.119   4.823   6.802
 4920SOL     OW15301   3.164   4.579   5.895
 4920SOL    HW115302   3.078   4.548   5.937
 4920SOL    HW215303   3.160   4.565   5.796
 4921SOL     OW15304   1.945   4.982   6.608
 4921SOL    HW115305   1.940   4.981   6.708
 4921SOL    HW215306   1.862   4.941   6.570
 4922SOL     OW15307   2.550   5.386   7.302
 4922SOL    HW115308   2.494   5.467   7.311
 4922SOL    HW215309   2.602   5.390   7.216
 4923SOL     OW15310   3.588   3.859   6.109
 4923SOL    HW115311   3.661   3.842   6.042
 4923SOL    HW215312   3.557   3.772   6.147
 4924SOL     OW15313   3.142   4.651   6.258
 4924SOL    HW115314   3.202   4.570   6.260
 4924SOL    HW215315   3.182   4.720   6.198
 4925SOL     OW15316   2.692   4.997   7.008
 4925SOL    HW115317   2.687   5.030   7.103
 4925SOL    HW215318   2.606   5.016   6.962
 4926SOL     OW15319   3.703   3.899   6.549
 4926SOL    HW115320   3.742   3.814   6.513
 4926SOL    HW215321   3.605   3.901   6.530
 4927SOL     OW15322   2.125   4.050   6.306
 4927SOL    HW115323   2.046   4.101   6.272
 4927SOL    HW215324   2.116   4.035   6.404
 4928SOL     OW15325   2.684   4.726   6.958
 4928SOL    HW115326   2.724   4.725   6.866
 4928SOL    HW215327   2.694   4.818   6.998
 4929SOL     OW15328   2.778   4.634   5.877
 4929SOL    HW115329   2.841   4.672   5.809
 4929SOL    HW215330   2.818   4.551   5.916
 4930SOL     OW15331   2.234   5.012   7.076
 4930SOL    HW115332   2.221   5.105   7.042
 4930SOL    HW215333   2.150   4.960   7.063
 4931SOL     OW15334   3.476   5.016   6.875
 4931SOL    HW115335   3.536   5.019   6.955
 4931SOL    HW215336   3.401   5.080   6.888
 4932SOL     OW15337   2.901   4.822   6.282
 4932SOL    HW115338   2.831   4.775   6.336
 4932SOL    HW215339   2.960   4.754   6.239
 4933SOL     OW15340   2.876   3.960   6.557
 4933SOL    HW115341   2.868   3.924   6.464
 4933SOL    HW215342   2.874   3.884   6.622
 4934SOL     OW15343   3.571   4.109   6.967
 4934SOL    HW115344   3.644   4.178   6.971
 4934SOL    HW215345   3.599   4.034   6.908
 4935SOL     OW15346   2.117   5.072   5.876
 4935SOL    HW115347   2.021   5.073   5.849
 4935SOL    HW215348   2.129   5.125   5.960
 4936SOL     OW15349   1.967   4.737   7.312
 4936SOL    HW115350   1.890   4.704   7.366
 4936SOL    HW215351   2.052   4.707   7.354
 4937SOL     OW15352   2.534   3.927   7.075
 4937SOL    HW115353   2.624   3.911   7.035
 4937SOL    HW215354   2.542   3.932   7.174
 4938SOL     OW15355   1.937   4.069   5.619
 4938SOL    HW115356   1.845   4.041   5.590
 4938SOL    HW215357   1.968   4.146   5.563
 4939SOL     OW15358   3.302   4.580   6.984
 4939SOL    HW115359   3.245   4.632   6.921
 4939SOL    HW215360   3.398   4.592   6.960
 4940SOL     OW15361   1.934   3.890   5.904
 4940SOL    HW115362   1.917   3.973   5.850
 4940SOL    HW215363   2.024   3.853   5.882
 4941SOL     OW15364   3.045   5.059   5.705
 4941SOL    HW115365   2.946   5.048   5.707
 4941SOL    HW215366   3.079   5.074   5.798
 4942SOL     OW15367   2.475   4.566   7.017
 4942SOL    HW115368   2.531   4.647   7.000
 4942SOL    HW215369   2.534   4.486   7.020
 4943SOL     OW15370   2.578   4.289   7.294
 4943SOL    HW115371   2.597   4.354   7.368
 4943SOL    HW215372   2.638   4.209   7.303
 4944SOL     OW15373   3.312   4.944   7.219
 4944SOL    HW115374   3.303   4.934   7.318
 4944SOL    HW215375   3.408   4.937   7.193
 4945SOL     OW15376   3.536   4.607   6.840
 4945SOL    HW115377   3.509   4.518   6.803
 4945SOL    HW215378   3.537   4.675   6.767
 4946SOL     OW15379   3.087   4.049   6.035
 4946SOL    HW115380   3.152   3.975   6.024
 4946SOL    HW215381   3.107   4.099   6.119
 4947SOL     OW15382   2.456   4.469   6.238
 4947SOL    HW115383   2.506   4.554   6.219
 4947SOL    HW215384   2.368   4.471   6.190
 4948SOL     OW15385   3.639   4.066   7.228
 4948SOL    HW115386   3.622   4.097   7.134
 4948SOL    HW215387   3.555   4.029   7.266
 4949SOL     OW15388   3.592   4.658   7.103
 4949SOL    HW115389   3.630   4.749   7.118
 4949SOL    HW215390   3.584   4.641   7.004
 4950SOL     OW15391   2.721   5.098   5.602
 4950SOL    HW115392   2.675   5.113   5.690
 4950SOL    HW215393   2.765   5.183   5.572
 4951SOL     OW15394   2.721   4.680   6.447
 4951SOL    HW115395   2.775   4.611   6.495
 4951SOL    HW215396   2.689   4.749   6.513
 4952SOL     OW15397   2.945   4.708   5.673
 4952SOL    HW115398   2.922   4.761   5.591
 4952SOL    HW215399   3.026   4.652   5.654
 4953SOL     OW15400   2.083   5.038   7.430
 4953SOL    HW115401   2.018   4.965   7.409
 4953SOL    HW215402   2.087   5.052   7.528
 4954SOL     OW15403   1.941   4.964   6.239
 4954SOL    HW115404   1.940   4.917   6.327
 4954SOL    HW215405   2.023   4.936   6.188
 4955SOL     OW15406   2.534   5.115   7.210
 4955SOL    HW115407   2.456   5.065   7.248
 4955SOL    HW215408   2.531   5.210   7.241
 4956SOL     OW15409   3.686   3.916   6.813
 4956SOL    HW115410   3.682   3.826   6.857
 4956SOL    HW215411   3.689   3.905   6.714
 4957SOL     OW15412   2.290   4.148   6.106
 4957SOL    HW115413   2.320   4.076   6.044
 4957SOL    HW215414   2.251   4.108   6.189
 4958SOL     OW15415   3.567   5.211   6.690
 4958SOL    HW115416   3.474   5.186   6.663
 4958SOL    HW215417   3.593   5.161   6.772
 4959SOL     OW15418   2.179   4.271   6.866
 4959SOL    HW115419   2.217   4.212   6.938
 4959SOL    HW215420   2.219   4.245   6.778
 4960SOL     OW15421   3.286   3.938   6.698
 4960SOL    HW115422   3.338   3.873   6.753
 4960SOL    HW215423   3.237   4.001   6.759
 4961SOL     OW15424   2.863   3.758   6.740
 4961SOL    HW115425   2.800   3.686   6.709
 4961SOL    HW215426   2.956   3.722   6.740
 4962SOL     OW15427   2.632   5.054   5.887
 4962SOL    HW115428   2.586   4.967   5.904
 4962SOL    HW215429   2.723   5.051   5.928
 4963SOL     OW15430   2.480   5.291   6.870
 4963SOL    HW115431   2.475   5.373   6.927
 4963SOL    HW215432   2.569   5.288   6.825
 4964SOL     OW15433   3.214   3.776   5.754
 4964SOL    HW115434   3.249   3.735   5.670
 4964SOL    HW215435   3.124   3.738   5.774
 4965SOL     OW15436   3.162   4.177   6.277
 4965SOL    HW115437   3.103   4.257   6.281
 4965SOL    HW215438   3.177   4.142   6.370
 4966SOL     OW15439   3.455   3.945   6.468
 4966SOL    HW115440   3.371   3.944   6.522
 4966SOL    HW215441   3.457   4.028   6.412
 4967SOL     OW15442   1.901   4.801   5.886
 4967SOL    HW115443   2.000   4.790   5.877
 4967SOL    HW215444   1.861   4.715   5.918
 4968SOL     OW15445   2.092   4.352   7.561
 4968SOL    HW115446   1.999   4.350   7.598
 4968SOL    HW215447   2.093   4.313   7.469
 4969SOL     OW15448   3.617   4.331   7.679
 4969SOL    HW115449   3.605   4.318   7.580
 4969SOL    HW215450   3.587   4.250   7.728
 4970SOL     OW15451   2.093   5.437   7.931
 4970SOL    HW115452   2.127   5.514   7.985
 4970SOL    HW215453   2.137   5.437   7.841
 4971SOL     OW15454   2.092   5.158   7.986
 4971SOL    HW115455   2.066   5.254   7.986
 4971SOL    HW215456   2.021   5.104   8.031
 4972SOL     OW15457   2.468   4.688   7.571
 4972SOL    HW115458   2.475   4.772   7.517
 4972SOL    HW215459   2.514   4.701   7.659
 4973SOL     OW15460   1.889   5.320   7.565
 4973SOL    HW115461   1.870   5.224   7.586
 4973SOL    HW215462   1.856   5.378   7.640
 4974SOL     OW15463   3.551   4.646   8.060
 4974SOL    HW115464   3.646   4.617   8.068
 4974SOL    HW215465   3.543   4.711   7.985
 4975SOL     OW15466   3.503   4.832   7.880
 4975SOL    HW115467   3.589   4.834   7.828
 4975SOL    HW215468   3.517   4.879   7.968
 4976SOL     OW15469   2.671   3.728   7.950
 4976SOL    HW115470   2.711   3.819   7.941
 4976SOL    HW215471   2.571   3.736   7.956
 4977SOL     OW15472   3.387   4.723   7.638
 4977SOL    HW115473   3.324   4.647   7.651
 4977SOL    HW215474   3.435   4.741   7.724
 4978SOL     OW15475   2.460   4.453   7.718
 4978SOL    HW115476   2.484   4.522   7.650
 4978SOL    HW215477   2.382   4.486   7.772
 4979SOL     OW15478   1.938   4.535   8.237
 4979SOL    HW115479   2.037   4.523   8.246
 4979SOL    HW215480   1.914   4.630   8.258
 4980SOL     OW15481   2.727   4.072   7.643
 4980SOL    HW115482   2.786   4.135   7.594
 4980SOL    HW215483   2.746   3.978   7.614
 4981SOL     OW15484   2.183   4.667   7.690
 4981SOL    HW115485   2.265   4.706   7.648
 4981SOL    HW215486   2.156   4.585   7.641
 4982SOL     OW15487   2.973   5.500   7.685
 4982SOL    HW115488   2.913   5.438   7.735
 4982SOL    HW215489   3.004   5.456   7.600
 4983SOL     OW15490   3.494   5.101   7.529
 4983SOL    HW115491   3.462   5.195   7.519
 4983SOL    HW215492   3.418   5.038   7.517
 4984SOL     OW15493   3.262   3.831   7.874
 4984SOL    HW115494   3.238   3.794   7.784
 4984SOL    HW215495   3.361   3.847   7.878
 4985SOL     OW15496   2.244   4.424   7.928
 4985SOL    HW115497   2.289   4.334   7.925
 4985SOL    HW215498   2.150   4.413   7.961
 4986SOL     OW15499   2.476   3.846   7.565
 4986SOL    HW115500   2.574   3.824   7.572
 4986SOL    HW215501   2.445   3.829   7.472
 4987SOL     OW15502   2.401   3.788   7.960
 4987SOL    HW115503   2.320   3.789   8.018
 4987SOL    HW215504   2.404   3.871   7.905
 4988SOL     OW15505   3.296   4.912   7.489
 4988SOL    HW115506   3.328   4.836   7.546
 4988SOL    HW215507   3.204   4.939   7.519
 4989SOL     OW15508   2.159   3.759   7.619
 4989SOL    HW115509   2.208   3.843   7.598
 4989SOL    HW215510   2.221   3.694   7.664
 4990SOL     OW15511   2.797   3.960   7.928
 4990SOL    HW115512   2.749   4.001   7.850
 4990SOL    HW215513   2.896   3.958   7.909
 4991SOL     OW15514   2.321   4.876   8.189
 4991SOL    HW115515   2.250   4.849   8.254
 4991SOL    HW215516   2.295   4.848   8.096
 4992SOL     OW15517   2.894   4.273   7.464
 4992SOL    HW115518   2.853   4.355   7.425
 4992SOL    HW215519   2.958   4.299   7.537
 4993SOL     OW15520   3.719   4.557   7.825
 4993SOL    HW115521   3.761   4.493   7.889
 4993SOL    HW215522   3.681   4.506   7.747
 4994SOL     OW15523   2.350   5.109   7.622
 4994SOL    HW115524   2.263   5.094   7.669
 4994SOL    HW215525   2.333   5.135   7.527
 4995SOL     OW15526   3.252   4.299   7.526
 4995SOL    HW115527   3.198   4.278   7.607
 4995SOL    HW215528   3.343   4.258   7.535
 4996SOL     OW15529   2.389   3.980   7.776
 4996SOL    HW115530   2.416   3.921   7.701
 4996SOL    HW215531   2.389   4.075   7.745
 4997SOL     OW15532   2.567   4.774   7.816
 4997SOL    HW115533   2.553   4.781   7.915
 4997SOL    HW215534   2.651   4.723   7.798
 4998SOL     OW15535   2.229   4.824   7.949
 4998SOL    HW115536   2.222   4.907   7.893
 4998SOL    HW215537   2.233   4.744   7.889
 4999SOL     OW15538   3.114   5.072   7.836
 4999SOL    HW115539   3.164   5.149   7.876
 4999SOL    HW215540   3.019   5.074   7.868
 5000SOL     OW15541   3.444   4.363   7.920
 5000SOL    HW115542   3.413   4.424   7.993
 5000SOL    HW215543   3.494   4.415   7.851
 5001SOL     OW15544   3.071   4.249   7.723
 5001SOL    HW115545   3.084   4.165   7.777
 5001SOL    HW215546   3.042   4.323   7.783
 5002SOL     OW15547   3.484   4.091   7.822
 5002SOL    HW115548   3.486   4.015   7.886
 5002SOL    HW215549   3.436   4.168   7.862
 5003SOL     OW15550   3.402   3.998   7.573
 5003SOL    HW115551   3.341   3.923   7.596
 5003SOL    HW215552   3.424   4.050   7.656
 5004SOL     OW15553   3.165   4.562   7.490
 5004SOL    HW115554   3.199   4.469   7.505
 5004SOL    HW215555   3.183   4.589   7.395
 5005SOL     OW15556   1.870   5.050   7.648
 5005SOL    HW115557   1.777   5.071   7.617
 5005SOL    HW215558   1.880   4.951   7.661
 5006SOL     OW15559   2.677   4.296   7.773
 5006SOL    HW115560   2.684   4.207   7.727
 5006SOL    HW215561   2.583   4.330   7.765
 5007SOL     OW15562   2.335   4.224   7.639
 5007SOL    HW115563   2.396   4.304   7.643
 5007SOL    HW215564   2.240   4.255   7.646
 5008SOL     OW15565   3.164   4.579   7.757
 5008SOL    HW115566   3.078   4.548   7.799
 5008SOL    HW215567   3.160   4.565   7.658
 5009SOL     OW15568   3.588   3.859   7.971
 5009SOL    HW115569   3.661   3.842   7.904
 5009SOL    HW215570   3.557   3.772   8.009
 5010SOL     OW15571   2.778   4.634   7.739
 5010SOL    HW115572   2.841   4.672   7.671
 5010SOL    HW215573   2.818   4.551   7.778
 5011SOL     OW15574   2.117   5.072   7.738
 5011SOL    HW115575   2.021   5.073   7.711
 5011SOL    HW215576   2.129   5.125   7.822
 5012SOL     OW15577   1.937   4.069   7.481
 5012SOL    HW115578   1.845   4.041   7.452
 5012SOL    HW215579   1.968   4.146   7.425
 5013SOL     OW15580   1.934   3.890   7.766
 5013SOL    HW115581   1.917   3.973   7.712
 5013SOL    HW215582   2.024   3.853   7.744
 5014SOL     OW15583   3.045   5.059   7.567
 5014SOL    HW115584   2.946   5.048   7.569
 5014SOL    HW215585   3.079   5.074   7.660
 5015SOL     OW15586   3.087   4.049   7.897
 5015SOL    HW115587   3.152   3.975   7.886
 5015SOL    HW215588   3.107   4.099   7.981
 5016SOL     OW15589   2.456   4.469   8.100
 5016SOL    HW115590   2.506   4.554   8.081
 5016SOL    HW215591   2.368   4.471   8.052
 5017SOL     OW15592   2.721   5.098   7.464
 5017SOL    HW115593   2.675   5.113   7.552
 5017SOL    HW215594   2.765   5.183   7.434
 5018SOL     OW15595   2.945   4.708   7.535
 5018SOL    HW115596   2.922   4.761   7.453
 5018SOL    HW215597   3.026   4.652   7.516
 5019SOL     OW15598   2.290   4.148   7.968
 5019SOL    HW115599   2.320   4.076   7.906
 5019SOL    HW215600   2.251   4.108   8.051
 5020SOL     OW15601   2.632   5.054   7.749
 5020SOL    HW115602   2.586   4.967   7.766
 5020SOL    HW215603   2.723   5.051   7.790
 5021SOL     OW15604   3.214   3.776   7.616
 5021SOL    HW115605   3.249   3.735   7.532
 5021SOL    HW215606   3.124   3.738   7.636
 5022SOL     OW15607   1.901   4.801   7.748
 5022SOL    HW115608   2.000   4.790   7.739
 5022SOL    HW215609   1.861   4.715   7.780
 5023SOL     OW15610   3.954   0.628   0.113
 5023SOL    HW115611   3.861   0.626   0.150
 5023SOL    HW215612   3.955   0.589   0.021
 5024SOL     OW15613   3.949   0.275   0.996
 5024SOL    HW115614   3.984   0.258   1.088
 5024SOL    HW215615   3.861   0.230   0.984
 5025SOL     OW15616   3.743   0.368   0.647
 5025SOL    HW115617   3.661   0.411   0.686
 5025SOL    HW215618   3.715   0.295   0.584
 5026SOL     OW15619   4.293   1.275   1.165
 5026SOL    HW115620   4.200   1.268   1.128
 5026SOL    HW215621   4.304   1.364   1.209
 5027SOL     OW15622   5.279   1.511   0.703
 5027SOL    HW115623   5.222   1.495   0.784
 5027SOL    HW215624   5.220   1.521   0.623
 5028SOL     OW15625   4.859   0.703   0.717
 5028SOL    HW115626   4.916   0.781   0.692
 5028SOL    HW215627   4.799   0.729   0.793
 5029SOL     OW15628   4.492   1.144   1.023
 5029SOL    HW115629   4.414   1.161   1.083
 5029SOL    HW215630   4.526   1.231   0.987
 5030SOL     OW15631   4.574   0.798   1.823
 5030SOL    HW115632   4.570   0.874   1.888
 5030SOL    HW215633   4.596   0.834   1.732
 5031SOL     OW15634   4.409   1.012   0.665
 5031SOL    HW115635   4.478   0.996   0.735
 5031SOL    HW215636   4.336   1.069   0.703
 5032SOL     OW15637   4.410   1.161   1.803
 5032SOL    HW115638   4.470   1.240   1.817
 5032SOL    HW215639   4.324   1.192   1.762
 5033SOL     OW15640   4.059   1.435   1.061
 5033SOL    HW115641   3.981   1.404   1.008
 5033SOL    HW215642   4.117   1.493   1.004
 5034SOL     OW15643   5.184   1.505   1.339
 5034SOL    HW115644   5.208   1.599   1.365
 5034SOL    HW215645   5.168   1.451   1.421
 5035SOL     OW15646   4.162   0.392   1.499
 5035SOL    HW115647   4.244   0.336   1.508
 5035SOL    HW215648   4.081   0.334   1.503
 5036SOL     OW15649   3.955   1.713   0.483
 5036SOL    HW115650   3.989   1.790   0.537
 5036SOL    HW215651   3.999   1.713   0.393
 5037SOL     OW15652   4.851   1.341   1.690
 5037SOL    HW115653   4.898   1.341   1.778
 5037SOL    HW215654   4.803   1.254   1.679
 5038SOL     OW15655   3.954   1.434   0.538
 5038SOL    HW115656   3.928   1.530   0.538
 5038SOL    HW215657   3.883   1.380   0.583
 5039SOL     OW15658   3.964   1.091   0.886
 5039SOL    HW115659   3.978   1.007   0.938
 5039SOL    HW215660   3.909   1.155   0.941
 5040SOL     OW15661   4.344   1.786   1.439
 5040SOL    HW115662   4.252   1.769   1.474
 5040SOL    HW215663   4.372   1.878   1.465
 5041SOL     OW15664   4.330   0.964   0.123
 5041SOL    HW115665   4.337   1.048   0.069
 5041SOL    HW215666   4.376   0.977   0.211
 5042SOL     OW15667   5.318   0.114   1.480
 5042SOL    HW115668   5.300   0.181   1.408
 5042SOL    HW215669   5.315   0.160   1.569
 5043SOL     OW15670   3.846   0.643   0.563
 5043SOL    HW115671   3.801   0.555   0.580
 5043SOL    HW215672   3.845   0.697   0.647
 5044SOL     OW15673   3.751   1.596   0.117
 5044SOL    HW115674   3.732   1.500   0.138
 5044SOL    HW215675   3.718   1.654   0.192
 5045SOL     OW15676   5.413   0.922   0.612
 5045SOL    HW115677   5.508   0.893   0.620
 5045SOL    HW215678   5.405   0.987   0.537
 5046SOL     OW15679   3.837   0.737   1.597
 5046SOL    HW115680   3.925   0.724   1.642
 5046SOL    HW215681   3.824   0.834   1.575
 5047SOL     OW15682   4.337   1.365   0.726
 5047SOL    HW115683   4.288   1.278   0.735
 5047SOL    HW215684   4.314   1.408   0.639
 5048SOL     OW15685   5.017   1.228   1.423
 5048SOL    HW115686   5.054   1.155   1.365
 5048SOL    HW215687   5.069   1.233   1.508
 5049SOL     OW15688   4.533   0.004   0.502
 5049SOL    HW115689   4.573   0.095   0.493
 5049SOL    HW215690   4.433   0.012   0.508
 5050SOL     OW15691   3.921   0.976   1.264
 5050SOL    HW115692   4.010   0.931   1.250
 5050SOL    HW215693   3.848   0.911   1.245
 5051SOL     OW15694   4.911   1.792   1.616
 5051SOL    HW115695   4.935   1.852   1.540
 5051SOL    HW215696   4.918   1.697   1.586
 5052SOL     OW15697   4.041   0.251   1.801
 5052SOL    HW115698   4.112   0.322   1.807
 5052SOL    HW215699   3.953   0.290   1.829
 5053SOL     OW15700   5.190   1.417   0.953
 5053SOL    HW115701   5.131   1.423   1.033
 5053SOL    HW215702   5.175   1.329   0.907
 5054SOL     OW15703   4.322   0.729   0.270
 5054SOL    HW115704   4.346   0.798   0.202
 5054SOL    HW215705   4.244   0.762   0.324
 5055SOL     OW15706   5.005   0.345   0.944
 5055SOL    HW115707   4.919   0.295   0.931
 5055SOL    HW215708   5.067   0.291   1.000
 5056SOL     OW15709   4.531   0.605   1.465
 5056SOL    HW115710   4.484   0.602   1.554
 5056SOL    HW215711   4.480   0.550   1.399
 5057SOL     OW15712   5.118   0.469   1.674
 5057SOL    HW115713   5.098   0.512   1.762
 5057SOL    HW215714   5.196   0.407   1.683
 5058SOL     OW15715   4.697   0.890   1.572
 5058SOL    HW115716   4.743   0.806   1.543
 5058SOL    HW215717   4.641   0.924   1.497
 5059SOL     OW15718   4.715   0.410   1.242
 5059SOL    HW115719   4.638   0.444   1.296
 5059SOL    HW215720   4.681   0.359   1.163
 5060SOL     OW15721   4.765   0.701   0.429
 5060SOL    HW115722   4.791   0.697   0.525
 5060SOL    HW215723   4.680   0.650   0.415
 5061SOL     OW15724   3.800   0.811   0.789
 5061SOL    HW115725   3.899   0.799   0.798
 5061SOL    HW215726   3.776   0.906   0.810
 5062SOL     OW15727   3.854   1.821   1.571
 5062SOL    HW115728   3.844   1.806   1.670
 5062SOL    HW215729   3.768   1.857   1.535
 5063SOL     OW15730   4.589   0.348   0.195
 5063SOL    HW115731   4.648   0.411   0.146
 5063SOL    HW215732   4.608   0.254   0.166
 5064SOL     OW15733   5.086   1.144   0.545
 5064SOL    HW115734   5.169   1.115   0.497
 5064SOL    HW215735   5.037   1.211   0.489
 5065SOL     OW15736   4.274   0.196   0.885
 5065SOL    HW115737   4.269   0.191   0.985
 5065SOL    HW215738   4.276   0.292   0.856
 5066SOL     OW15739   4.732   1.456   0.477
 5066SOL    HW115740   4.686   1.528   0.425
 5066SOL    HW215741   4.728   1.476   0.575
 5067SOL     OW15742   4.075   1.801   0.853
 5067SOL    HW115743   4.125   1.715   0.859
 5067SOL    HW215744   4.140   1.878   0.850
 5068SOL     OW15745   4.951   1.550   1.506
 5068SOL    HW115746   4.957   1.473   1.570
 5068SOL    HW215747   4.899   1.524   1.426
 5069SOL     OW15748   4.045   0.943   0.242
 5069SOL    HW115749   4.127   0.982   0.200
 5069SOL    HW215750   4.018   0.861   0.193
 5070SOL     OW15751   4.185   1.266   1.727
 5070SOL    HW115752   4.135   1.267   1.641
 5070SOL    HW215753   4.122   1.248   1.803
 5071SOL     OW15754   4.835   1.776   0.237
 5071SOL    HW115755   4.775   1.714   0.287
 5071SOL    HW215756   4.866   1.732   0.152
 5072SOL     OW15757   3.926   0.285   1.498
 5072SOL    HW115758   3.846   0.345   1.485
 5072SOL    HW215759   3.916   0.236   1.584
 5073SOL     OW15760   4.188   1.743   0.323
 5073SOL    HW115761   4.221   1.782   0.409
 5073SOL    HW215762   4.264   1.736   0.258
 5074SOL     OW15763   5.124   0.107   0.426
 5074SOL    HW115764   5.100   0.070   0.336
 5074SOL    HW215765   5.223   0.123   0.430
 5075SOL     OW15766   3.973   1.785   1.241
 5075SOL    HW115767   4.030   1.720   1.291
 5075SOL    HW215768   3.957   1.752   1.148
 5076SOL     OW15769   4.664   1.698   0.904
 5076SOL    HW115770   4.744   1.641   0.925
 5076SOL    HW215771   4.615   1.658   0.827
 5077SOL     OW15772   4.106   0.700   0.480
 5077SOL    HW115773   4.151   0.610   0.477
 5077SOL    HW215774   4.012   0.689   0.513
 5078SOL     OW15775   4.338   0.122   0.117
 5078SOL    HW115776   4.436   0.100   0.124
 5078SOL    HW215777   4.307   0.105   0.024
 5079SOL     OW15778   4.505   0.264   1.749
 5079SOL    HW115779   4.572   0.203   1.792
 5079SOL    HW215780   4.432   0.283   1.814
 5080SOL     OW15781   4.612   1.514   1.195
 5080SOL    HW115782   4.589   1.489   1.101
 5080SOL    HW215783   4.673   1.445   1.234
 5081SOL     OW15784   5.075   0.590   1.433
 5081SOL    HW115785   5.103   0.547   1.518
 5081SOL    HW215786   5.100   0.686   1.434
 5082SOL     OW15787   4.527   1.402   0.924
 5082SOL    HW115788   4.617   1.416   0.882
 5082SOL    HW215789   4.456   1.404   0.853
 5083SOL     OW15790   4.646   0.503   0.899
 5083SOL    HW115791   4.621   0.494   0.803
 5083SOL    HW215792   4.694   0.421   0.930
 5084SOL     OW15793   4.263   0.064   0.512
 5084SOL    HW115794   4.182   0.065   0.570
 5084SOL    HW215795   4.266   0.147   0.457
 5085SOL     OW15796   5.158   1.188   0.041
 5085SOL    HW115797   5.190   1.112   0.098
 5085SOL    HW215798   5.066   1.215   0.071
 5086SOL     OW15799   4.021   0.035   0.171
 5086SOL    HW115800   4.070   0.119   0.150
 5086SOL    HW215801   4.083  -0.030   0.216
 5087SOL     OW15802   4.659   0.236   0.480
 5087SOL    HW115803   4.611   0.277   0.402
 5087SOL    HW215804   4.758   0.234   0.461
 5088SOL     OW15805   4.800   0.683   1.464
 5088SOL    HW115806   4.720   0.622   1.467
 5088SOL    HW215807   4.881   0.630   1.440
 5089SOL     OW15808   4.951   1.570   0.793
 5089SOL    HW115809   4.972   1.644   0.728
 5089SOL    HW215810   5.019   1.570   0.866
 5090SOL     OW15811   4.183   1.152   0.741
 5090SOL    HW115812   4.112   1.125   0.806
 5090SOL    HW215813   4.157   1.124   0.648
 5091SOL     OW15814   4.995   1.797   0.591
 5091SOL    HW115815   5.039   1.861   0.527
 5091SOL    HW215816   4.945   1.849   0.661
 5092SOL     OW15817   4.756   0.549   0.016
 5092SOL    HW115818   4.715   0.631  -0.023
 5092SOL    HW215819   4.820   0.575   0.089
 5093SOL     OW15820   3.802   0.556   1.386
 5093SOL    HW115821   3.894   0.555   1.345
 5093SOL    HW215822   3.796   0.630   1.453
 5094SOL     OW15823   4.285   0.222   1.147
 5094SOL    HW115824   4.323   0.138   1.184
 5094SOL    HW215825   4.197   0.241   1.191
 5095SOL     OW15826   4.590   0.454   0.642
 5095SOL    HW115827   4.558   0.526   0.580
 5095SOL    HW215828   4.614   0.373   0.589
 5096SOL     OW15829   4.741   0.039   0.753
 5096SOL    HW115830   4.669   0.044   0.684
 5096SOL    HW215831   4.717  -0.030   0.822
 5097SOL     OW15832   5.153   1.173   0.867
 5097SOL    HW115833   5.098   1.089   0.860
 5097SOL    HW215834   5.179   1.202   0.775
 5098SOL     OW15835   4.212   1.385   0.174
 5098SOL    HW115836   4.125   1.370   0.221
 5098SOL    HW215837   4.195   1.411   0.079
 5099SOL     OW15838   5.114   0.575   0.078
 5099SOL    HW115839   5.060   0.554   0.159
 5099SOL    HW215840   5.205   0.534   0.087
 5100SOL     OW15841   4.251   0.256   0.328
 5100SOL    HW115842   4.278   0.197   0.253
 5100SOL    HW215843   4.251   0.351   0.297
 5101SOL     OW15844   4.788   1.347   1.340
 5101SOL    HW115845   4.708   1.324   1.395
 5101SOL    HW215846   4.871   1.321   1.389
 5102SOL     OW15847   5.316   1.629   1.625
 5102SOL    HW115848   5.343   1.663   1.535
 5102SOL    HW215849   5.395   1.591   1.671
 5103SOL     OW15850   4.835   1.195   1.100
 5103SOL    HW115851   4.795   1.239   1.181
 5103SOL    HW215852   4.794   1.232   1.017
 5104SOL     OW15853   4.639   0.089   1.402
 5104SOL    HW115854   4.664   0.069   1.307
 5104SOL    HW215855   4.711   0.145   1.444
 5105SOL     OW15856   4.704   1.116   1.719
 5105SOL    HW115857   4.605   1.122   1.729
 5105SOL    HW215858   4.727   1.036   1.663
 5106SOL     OW15859   4.429   1.050   0.368
 5106SOL    HW115860   4.415   1.057   0.467
 5106SOL    HW215861   4.513   0.999   0.350
 5107SOL     OW15862   4.134   0.813   1.251
 5107SOL    HW115863   4.220   0.825   1.301
 5107SOL    HW215864   4.092   0.726   1.278
 5108SOL     OW15865   4.998   0.386   1.262
 5108SOL    HW115866   5.019   0.460   1.326
 5108SOL    HW215867   4.909   0.403   1.219
 5109SOL     OW15868   3.788   1.564   1.331
 5109SOL    HW115869   3.742   1.646   1.297
 5109SOL    HW215870   3.886   1.583   1.340
 5110SOL     OW15871   4.091   1.100   0.501
 5110SOL    HW115872   4.084   1.183   0.445
 5110SOL    HW215873   4.095   1.020   0.441
 5111SOL     OW15874   4.290   0.537   0.865
 5111SOL    HW115875   4.302   0.603   0.791
 5111SOL    HW215876   4.336   0.571   0.948
 5112SOL     OW15877   4.976   1.348   0.388
 5112SOL    HW115878   5.026   1.425   0.428
 5112SOL    HW215879   4.881   1.350   0.420
 5113SOL     OW15880   4.996   1.445   1.142
 5113SOL    HW115881   5.043   1.458   1.229
 5113SOL    HW215882   4.930   1.371   1.151
 5114SOL     OW15883   4.078   1.510   1.329
 5114SOL    HW115884   4.057   1.466   1.242
 5114SOL    HW215885   4.175   1.536   1.332
 5115SOL     OW15886   4.126   0.751   1.598
 5115SOL    HW115887   4.194   0.806   1.551
 5115SOL    HW215888   4.166   0.663   1.625
 5116SOL     OW15889   4.737   0.105   1.770
 5116SOL    HW115890   4.743   0.190   1.718
 5116SOL    HW215891   4.769   0.029   1.713
 5117SOL     OW15892   4.228   0.050   1.740
 5117SOL    HW115893   4.186  -0.007   1.670
 5117SOL    HW215894   4.162   0.119   1.772
 5118SOL     OW15895   4.297   0.870   1.029
 5118SOL    HW115896   4.341   0.959   1.020
 5118SOL    HW215897   4.234   0.870   1.106
 5119SOL     OW15898   5.084   0.862   1.045
 5119SOL    HW115899   5.009   0.862   0.979
 5119SOL    HW215900   5.121   0.770   1.054
 5120SOL     OW15901   4.933   0.525   0.275
 5120SOL    HW115902   4.946   0.441   0.329
 5120SOL    HW215903   4.904   0.599   0.335
 5121SOL     OW15904   4.031   0.213   1.231
 5121SOL    HW115905   4.008   0.250   1.321
 5121SOL    HW215906   4.001   0.118   1.225
 5122SOL     OW15907   3.761   1.310   1.282
 5122SOL    HW115908   3.814   1.261   1.350
 5122SOL    HW215909   3.783   1.408   1.287
 5123SOL     OW15910   4.456   0.634   1.064
 5123SOL    HW115911   4.515   0.608   0.988
 5123SOL    HW215912   4.428   0.730   1.053
 5124SOL     OW15913   4.031   0.063   0.618
 5124SOL    HW115914   4.020   0.157   0.651
 5124SOL    HW215915   4.026   0.000   0.695
 5125SOL     OW15916   5.346   0.367   0.374
 5125SOL    HW115917   5.348   0.291   0.438
 5125SOL    HW215918   5.298   0.444   0.414
 5126SOL     OW15919   4.747   0.766   0.966
 5126SOL    HW115920   4.762   0.787   1.062
 5126SOL    HW215921   4.717   0.671   0.957
 5127SOL     OW15922   4.704   1.573   1.700
 5127SOL    HW115923   4.684   1.617   1.612
 5127SOL    HW215924   4.743   1.482   1.684
 5128SOL     OW15925   4.074   0.898   1.804
 5128SOL    HW115926   4.150   0.942   1.852
 5128SOL    HW215927   4.109   0.851   1.722
 5129SOL     OW15928   5.027   0.838   0.042
 5129SOL    HW115929   5.061   0.745   0.057
 5129SOL    HW215930   5.045   0.865  -0.053
 5130SOL     OW15931   4.792   1.333   0.849
 5130SOL    HW115932   4.799   1.249   0.794
 5130SOL    HW215933   4.854   1.402   0.813
 5131SOL     OW15934   4.043   0.810   0.949
 5131SOL    HW115935   4.136   0.846   0.954
 5131SOL    HW215936   4.037   0.725   1.001
 5132SOL     OW15937   4.063   0.509   1.006
 5132SOL    HW115938   4.011   0.426   0.989
 5132SOL    HW215939   4.140   0.514   0.942
 5133SOL     OW15940   4.862   0.380   1.678
 5133SOL    HW115941   4.817   0.443   1.742
 5133SOL    HW215942   4.955   0.411   1.661
 5134SOL     OW15943   4.884   0.207   1.477
 5134SOL    HW115944   4.884   0.271   1.554
 5134SOL    HW215945   4.912   0.255   1.394
 5135SOL     OW15946   3.732   1.326   0.200
 5135SOL    HW115947   3.639   1.347   0.169
 5135SOL    HW215948   3.742   1.227   0.213
 5136SOL     OW15949   3.812   1.801   0.927
 5136SOL    HW115950   3.770   1.715   0.900
 5136SOL    HW215951   3.906   1.804   0.893
 5137SOL     OW15952   4.228   1.568   0.910
 5137SOL    HW115953   4.294   1.642   0.919
 5137SOL    HW215954   4.272   1.489   0.868
 5138SOL     OW15955   4.726   0.796   1.238
 5138SOL    HW115956   4.767   0.764   1.324
 5138SOL    HW215957   4.630   0.769   1.235
 5139SOL     OW15958   3.764   0.544   1.114
 5139SOL    HW115959   3.849   0.511   1.073
 5139SOL    HW215960   3.777   0.559   1.212
 5140SOL     OW15961   3.913   0.520   1.722
 5140SOL    HW115962   3.972   0.480   1.652
 5140SOL    HW215963   3.855   0.591   1.681
 5141SOL     OW15964   5.093   0.950   1.660
 5141SOL    HW115965   5.132   1.039   1.680
 5141SOL    HW215966   5.103   0.930   1.563
 5142SOL     OW15967   4.539   0.572   0.325
 5142SOL    HW115968   4.546   0.483   0.279
 5142SOL    HW215969   4.445   0.606   0.317
 5143SOL     OW15970   3.976   1.564   1.744
 5143SOL    HW115971   3.946   1.621   1.820
 5143SOL    HW215972   3.969   1.467   1.770
 5144SOL     OW15973   4.395   0.464   1.269
 5144SOL    HW115974   4.361   0.375   1.239
 5144SOL    HW215975   4.421   0.518   1.189
 5145SOL     OW15976   4.654   1.678   1.465
 5145SOL    HW115977   4.630   1.660   1.370
 5145SOL    HW215978   4.684   1.772   1.475
 5146SOL     OW15979   4.197   0.500   0.191
 5146SOL    HW115980   4.258   0.580   0.195
 5146SOL    HW215981   4.102   0.531   0.198
 5147SOL     OW15982   3.883   1.137   1.466
 5147SOL    HW115983   3.905   1.076   1.542
 5147SOL    HW215984   3.893   1.088   1.380
 5148SOL     OW15985   5.071   1.059   1.234
 5148SOL    HW115986   5.095   0.996   1.160
 5148SOL    HW215987   4.981   1.099   1.216
 5149SOL     OW15988   5.026   0.855   0.309
 5149SOL    HW115989   4.940   0.824   0.351
 5149SOL    HW215990   5.022   0.841   0.210
 5150SOL     OW15991   4.976   1.731   1.128
 5150SOL    HW115992   5.060   1.736   1.074
 5150SOL    HW215993   4.953   1.635   1.146
 5151SOL     OW15994   3.807   1.258   1.022
 5151SOL    HW115995   3.802   1.257   1.122
 5151SOL    HW215996   3.724   1.217   0.984
 5152SOL     OW15997   4.412   1.662   1.716
 5152SOL    HW115998   4.356   1.743   1.725
 5152SOL    HW215999   4.464   1.666   1.630
 5153SOL     OW16000   4.627   0.086   0.133
 5153SOL    HW116001   4.678   0.087   0.047
 5153SOL    HW216002   4.683   0.044   0.204
 5154SOL     OW16003   5.112   1.573   0.477
 5154SOL    HW116004   5.179   1.585   0.403
 5154SOL    HW216005   5.072   1.662   0.500
 5155SOL     OW16006   3.854   1.794   1.851
 5155SOL    HW116007   3.813   1.720   1.904
 5155SOL    HW216008   3.918   1.845   1.909
 5156SOL     OW16009   5.004   0.927   0.672
 5156SOL    HW116010   5.064   0.846   0.674
 5156SOL    HW216011   5.044   0.996   0.612
 5157SOL     OW16012   4.554   1.273   1.422
 5157SOL    HW116013   4.549   1.306   1.517
 5157SOL    HW216014   4.468   1.292   1.376
 5158SOL     OW16015   4.396   1.616   0.154
 5158SOL    HW116016   4.405   1.626   0.055
 5158SOL    HW216017   4.356   1.527   0.175
 5159SOL     OW16018   3.987   0.326   0.720
 5159SOL    HW116019   3.908   0.377   0.686
 5159SOL    HW216020   3.978   0.311   0.818
 5160SOL     OW16021   4.918   1.612   0.031
 5160SOL    HW116022   4.924   1.519   0.068
 5160SOL    HW216023   4.859   1.612  -0.049
 5161SOL     OW16024   4.546   1.002   1.372
 5161SOL    HW116025   4.586   1.001   1.280
 5161SOL    HW216026   4.556   1.094   1.412
 5162SOL     OW16027   4.640   0.910   0.291
 5162SOL    HW116028   4.703   0.948   0.223
 5162SOL    HW216029   4.680   0.827   0.330
 5163SOL     OW16030   4.096   1.288   1.490
 5163SOL    HW116031   4.083   1.381   1.456
 5163SOL    HW216032   4.012   1.236   1.477
 5164SOL     OW16033   4.763   1.098   0.696
 5164SOL    HW116034   4.693   1.051   0.750
 5164SOL    HW216035   4.822   1.030   0.653
 5165SOL     OW16036   4.738   0.236   0.971
 5165SOL    HW116037   4.730   0.200   0.878
 5165SOL    HW216038   4.736   0.160   1.036
 5166SOL     OW16039   4.314   1.487   0.491
 5166SOL    HW116040   4.356   1.429   0.421
 5166SOL    HW216041   4.270   1.566   0.447
 5167SOL     OW16042   3.979   1.348   0.290
 5167SOL    HW116043   3.883   1.349   0.263
 5167SOL    HW216044   3.991   1.401   0.374
 5168SOL     OW16045   3.829   1.013   1.726
 5168SOL    HW116046   3.752   0.980   1.780
 5168SOL    HW216047   3.914   0.983   1.768
 5169SOL     OW16048   4.396   0.203   1.489
 5169SOL    HW116049   4.486   0.187   1.449
 5169SOL    HW216050   4.404   0.208   1.588
 5170SOL     OW16051   3.799   0.345   0.033
 5170SOL    HW116052   3.707   0.317   0.004
 5170SOL    HW216053   3.830   0.422  -0.023
 5171SOL     OW16054   5.164   0.856   1.398
 5171SOL    HW116055   5.107   0.908   1.335
 5171SOL    HW216056   5.260   0.868   1.374
 5172SOL     OW16057   3.796   0.166   0.318
 5172SOL    HW116058   3.779   0.249   0.264
 5172SOL    HW216059   3.886   0.129   0.296
 5173SOL     OW16060   4.907   1.335   0.119
 5173SOL    HW116061   4.808   1.324   0.121
 5173SOL    HW216062   4.941   1.350   0.212
 5174SOL     OW16063   4.337   0.842   1.431
 5174SOL    HW116064   4.393   0.923   1.414
 5174SOL    HW216065   4.396   0.762   1.434
 5175SOL     OW16066   4.440   0.565   1.708
 5175SOL    HW116067   4.459   0.630   1.782
 5175SOL    HW216068   4.500   0.485   1.717
 5176SOL     OW16069   5.174   1.220   1.633
 5176SOL    HW116070   5.165   1.210   1.732
 5176SOL    HW216071   5.270   1.213   1.607
 5177SOL     OW16072   4.114   1.741   1.560
 5177SOL    HW116073   4.023   1.782   1.558
 5177SOL    HW216074   4.107   1.647   1.592
 5178SOL     OW16075   4.949   0.325   0.449
 5178SOL    HW116076   5.014   0.251   0.438
 5178SOL    HW216077   4.969   0.375   0.533
 5179SOL     OW16078   4.318   0.745   0.652
 5179SOL    HW116079   4.368   0.830   0.633
 5179SOL    HW216080   4.230   0.747   0.604
 5180SOL     OW16081   4.583   1.374   0.016
 5180SOL    HW116082   4.537   1.389   0.104
 5180SOL    HW216083   4.627   1.459  -0.014
 5181SOL     OW16084   4.385   1.790   0.953
 5181SOL    HW116085   4.339   1.878   0.940
 5181SOL    HW216086   4.484   1.802   0.946
 5182SOL     OW16087   4.583   0.956   0.861
 5182SOL    HW116088   4.637   0.887   0.909
 5182SOL    HW216089   4.551   1.025   0.927
 5183SOL     OW16090   4.807   0.984   0.087
 5183SOL    HW116091   4.784   1.037   0.005
 5183SOL    HW216092   4.888   0.928   0.068
 5184SOL     OW16093   3.945   1.314   1.844
 5184SOL    HW116094   3.880   1.241   1.823
 5184SOL    HW216095   3.949   1.328   1.942
 5185SOL     OW16096   3.803   1.240   0.653
 5185SOL    HW116097   3.802   1.193   0.741
 5185SOL    HW216098   3.885   1.212   0.602
 5186SOL     OW16099   4.396   1.391   1.624
 5186SOL    HW116100   4.318   1.341   1.662
 5186SOL    HW216101   4.393   1.486   1.655
 5187SOL     OW16102   4.152   0.424   0.520
 5187SOL    HW116103   4.182   0.352   0.458
 5187SOL    HW216104   4.113   0.384   0.603
 5188SOL     OW16105   5.429   1.487   1.104
 5188SOL    HW116106   5.336   1.462   1.077
 5188SOL    HW216107   5.455   1.437   1.186
 5189SOL     OW16108   4.041   0.547   1.280
 5189SOL    HW116109   4.079   0.488   1.352
 5189SOL    HW216110   4.081   0.521   1.192
 5190SOL     OW16111   4.536   1.586   0.687
 5190SOL    HW116112   4.568   1.596   0.593
 5190SOL    HW216113   4.457   1.524   0.689
 5191SOL     OW16114   5.148   0.214   1.112
 5191SOL    HW116115   5.200   0.149   1.167
 5191SOL    HW216116   5.099   0.277   1.173
 5192SOL     OW16117   4.725   0.034   1.154
 5192SOL    HW116118   4.662  -0.038   1.123
 5192SOL    HW216119   4.818  -0.002   1.154
 5193SOL     OW16120   4.494   1.330   0.301
 5193SOL    HW116121   4.448   1.243   0.318
 5193SOL    HW216122   4.585   1.327   0.342
 5194SOL     OW16123   4.342   1.567   1.284
 5194SOL    HW116124   4.337   1.649   1.341
 5194SOL    HW216125   4.431   1.564   1.239
 5195SOL     OW16126   5.076   0.052   0.168
 5195SOL    HW116127   5.111   0.011   0.084
 5195SOL    HW216128   4.986   0.014   0.188
 5196SOL     OW16129   5.024   0.453   0.691
 5196SOL    HW116130   4.965   0.533   0.695
 5196SOL    HW216131   5.039   0.418   0.784
 5197SOL     OW16132   5.317   0.221   0.882
 5197SOL    HW116133   5.233   0.220   0.936
 5197SOL    HW216134   5.319   0.304   0.826
 5198SOL     OW16135   3.763   1.077   0.300
 5198SOL    HW116136   3.862   1.066   0.291
 5198SOL    HW216137   3.723   0.991   0.332
 5199SOL     OW16138   4.599   1.646   0.337
 5199SOL    HW116139   4.522   1.611   0.283
 5199SOL    HW216140   4.567   1.717   0.399
 5200SOL     OW16141   3.954   0.628   1.975
 5200SOL    HW116142   3.861   0.626   2.012
 5200SOL    HW216143   3.955   0.589   1.883
 5201SOL     OW16144   3.949   0.275   2.858
 5201SOL    HW116145   3.984   0.258   2.950
 5201SOL    HW216146   3.861   0.230   2.846
 5202SOL     OW16147   3.743   0.368   2.509
 5202SOL    HW116148   3.661   0.411   2.548
 5202SOL    HW216149   3.715   0.295   2.446
 5203SOL     OW16150   4.293   1.275   3.027
 5203SOL    HW116151   4.200   1.268   2.990
 5203SOL    HW216152   4.304   1.364   3.071
 5204SOL     OW16153   5.279   1.511   2.565
 5204SOL    HW116154   5.222   1.495   2.646
 5204SOL    HW216155   5.220   1.521   2.485
 5205SOL     OW16156   4.859   0.703   2.579
 5205SOL    HW116157   4.916   0.781   2.554
 5205SOL    HW216158   4.799   0.729   2.655
 5206SOL     OW16159   4.492   1.144   2.885
 5206SOL    HW116160   4.414   1.161   2.945
 5206SOL    HW216161   4.526   1.231   2.849
 5207SOL     OW16162   4.574   0.798   3.685
 5207SOL    HW116163   4.570   0.874   3.750
 5207SOL    HW216164   4.596   0.834   3.594
 5208SOL     OW16165   4.409   1.012   2.527
 5208SOL    HW116166   4.478   0.996   2.597
 5208SOL    HW216167   4.336   1.069   2.565
 5209SOL     OW16168   4.410   1.161   3.665
 5209SOL    HW116169   4.470   1.240   3.679
 5209SOL    HW216170   4.324   1.192   3.624
 5210SOL     OW16171   4.059   1.435   2.923
 5210SOL    HW116172   3.981   1.404   2.870
 5210SOL    HW216173   4.117   1.493   2.866
 5211SOL     OW16174   5.184   1.505   3.201
 5211SOL    HW116175   5.208   1.599   3.227
 5211SOL    HW216176   5.168   1.451   3.283
 5212SOL     OW16177   4.162   0.392   3.361
 5212SOL    HW116178   4.244   0.336   3.370
 5212SOL    HW216179   4.081   0.334   3.365
 5213SOL     OW16180   3.955   1.713   2.345
 5213SOL    HW116181   3.989   1.790   2.399
 5213SOL    HW216182   3.999   1.713   2.255
 5214SOL     OW16183   4.851   1.341   3.552
 5214SOL    HW116184   4.898   1.341   3.640
 5214SOL    HW216185   4.803   1.254   3.541
 5215SOL     OW16186   3.954   1.434   2.400
 5215SOL    HW116187   3.928   1.530   2.400
 5215SOL    HW216188   3.883   1.380   2.445
 5216SOL     OW16189   3.964   1.091   2.748
 5216SOL    HW116190   3.978   1.007   2.800
 5216SOL    HW216191   3.909   1.155   2.803
 5217SOL     OW16192   4.344   1.786   3.301
 5217SOL    HW116193   4.252   1.769   3.336
 5217SOL    HW216194   4.372   1.878   3.327
 5218SOL     OW16195   4.330   0.964   1.985
 5218SOL    HW116196   4.337   1.048   1.931
 5218SOL    HW216197   4.376   0.977   2.073
 5219SOL     OW16198   5.318   0.114   3.342
 5219SOL    HW116199   5.300   0.181   3.270
 5219SOL    HW216200   5.315   0.160   3.431
 5220SOL     OW16201   3.846   0.643   2.425
 5220SOL    HW116202   3.801   0.555   2.442
 5220SOL    HW216203   3.845   0.697   2.509
 5221SOL     OW16204   3.751   1.596   1.979
 5221SOL    HW116205   3.732   1.500   2.000
 5221SOL    HW216206   3.718   1.654   2.054
 5222SOL     OW16207   5.413   0.922   2.474
 5222SOL    HW116208   5.508   0.893   2.482
 5222SOL    HW216209   5.405   0.987   2.399
 5223SOL     OW16210   3.837   0.737   3.459
 5223SOL    HW116211   3.925   0.724   3.504
 5223SOL    HW216212   3.824   0.834   3.437
 5224SOL     OW16213   4.337   1.365   2.588
 5224SOL    HW116214   4.288   1.278   2.597
 5224SOL    HW216215   4.314   1.408   2.501
 5225SOL     OW16216   5.017   1.228   3.285
 5225SOL    HW116217   5.054   1.155   3.227
 5225SOL    HW216218   5.069   1.233   3.370
 5226SOL     OW16219   4.533   0.004   2.364
 5226SOL    HW116220   4.573   0.095   2.355
 5226SOL    HW216221   4.433   0.012   2.370
 5227SOL     OW16222   3.921   0.976   3.126
 5227SOL    HW116223   4.010   0.931   3.112
 5227SOL    HW216224   3.848   0.911   3.107
 5228SOL     OW16225   4.911   1.792   3.478
 5228SOL    HW116226   4.935   1.852   3.402
 5228SOL    HW216227   4.918   1.697   3.448
 5229SOL     OW16228   4.041   0.251   3.663
 5229SOL    HW116229   4.112   0.322   3.669
 5229SOL    HW216230   3.953   0.290   3.691
 5230SOL     OW16231   5.190   1.417   2.815
 5230SOL    HW116232   5.131   1.423   2.895
 5230SOL    HW216233   5.175   1.329   2.769
 5231SOL     OW16234   4.322   0.729   2.132
 5231SOL    HW116235   4.346   0.798   2.064
 5231SOL    HW216236   4.244   0.762   2.186
 5232SOL     OW16237   5.005   0.345   2.806
 5232SOL    HW116238   4.919   0.295   2.793
 5232SOL    HW216239   5.067   0.291   2.862
 5233SOL     OW16240   4.531   0.605   3.327
 5233SOL    HW116241   4.484   0.602   3.416
 5233SOL    HW216242   4.480   0.550   3.261
 5234SOL     OW16243   5.118   0.469   3.536
 5234SOL    HW116244   5.098   0.512   3.624
 5234SOL    HW216245   5.196   0.407   3.545
 5235SOL     OW16246   4.697   0.890   3.434
 5235SOL    HW116247   4.743   0.806   3.405
 5235SOL    HW216248   4.641   0.924   3.359
 5236SOL     OW16249   4.715   0.410   3.104
 5236SOL    HW116250   4.638   0.444   3.158
 5236SOL    HW216251   4.681   0.359   3.025
 5237SOL     OW16252   4.765   0.701   2.291
 5237SOL    HW116253   4.791   0.697   2.387
 5237SOL    HW216254   4.680   0.650   2.277
 5238SOL     OW16255   3.800   0.811   2.651
 5238SOL    HW116256   3.899   0.799   2.660
 5238SOL    HW216257   3.776   0.906   2.672
 5239SOL     OW16258   3.854   1.821   3.433
 5239SOL    HW116259   3.844   1.806   3.532
 5239SOL    HW216260   3.768   1.857   3.397
 5240SOL     OW16261   4.589   0.348   2.057
 5240SOL    HW116262   4.648   0.411   2.008
 5240SOL    HW216263   4.608   0.254   2.028
 5241SOL     OW16264   5.086   1.144   2.407
 5241SOL    HW116265   5.169   1.115   2.359
 5241SOL    HW216266   5.037   1.211   2.351
 5242SOL     OW16267   4.274   0.196   2.747
 5242SOL    HW116268   4.269   0.191   2.847
 5242SOL    HW216269   4.276   0.292   2.718
 5243SOL     OW16270   4.732   1.456   2.339
 5243SOL    HW116271   4.686   1.528   2.287
 5243SOL    HW216272   4.728   1.476   2.437
 5244SOL     OW16273   4.075   1.801   2.715
 5244SOL    HW116274   4.125   1.715   2.721
 5244SOL    HW216275   4.140   1.878   2.712
 5245SOL     OW16276   4.951   1.550   3.368
 5245SOL    HW116277   4.957   1.473   3.432
 5245SOL    HW216278   4.899   1.524   3.288
 5246SOL     OW16279   4.045   0.943   2.104
 5246SOL    HW116280   4.127   0.982   2.062
 5246SOL    HW216281   4.018   0.861   2.055
 5247SOL     OW16282   4.185   1.266   3.589
 5247SOL    HW116283   4.135   1.267   3.503
 5247SOL    HW216284   4.122   1.248   3.665
 5248SOL     OW16285   4.835   1.776   2.099
 5248SOL    HW116286   4.775   1.714   2.149
 5248SOL    HW216287   4.866   1.732   2.014
 5249SOL     OW16288   3.926   0.285   3.360
 5249SOL    HW116289   3.846   0.345   3.347
 5249SOL    HW216290   3.916   0.236   3.446
 5250SOL     OW16291   4.188   1.743   2.185
 5250SOL    HW116292   4.221   1.782   2.271
 5250SOL    HW216293   4.264   1.736   2.120
 5251SOL     OW16294   5.124   0.107   2.288
 5251SOL    HW116295   5.100   0.070   2.198
 5251SOL    HW216296   5.223   0.123   2.292
 5252SOL     OW16297   3.973   1.785   3.103
 5252SOL    HW116298   4.030   1.720   3.153
 5252SOL    HW216299   3.957   1.752   3.010
 5253SOL     OW16300   4.664   1.698   2.766
 5253SOL    HW116301   4.744   1.641   2.787
 5253SOL    HW216302   4.615   1.658   2.689
 5254SOL     OW16303   4.106   0.700   2.342
 5254SOL    HW116304   4.151   0.610   2.339
 5254SOL    HW216305   4.012   0.689   2.375
 5255SOL     OW16306   4.338   0.122   1.979
 5255SOL    HW116307   4.436   0.100   1.986
 5255SOL    HW216308   4.307   0.105   1.886
 5256SOL     OW16309   4.505   0.264   3.611
 5256SOL    HW116310   4.572   0.203   3.654
 5256SOL    HW216311   4.432   0.283   3.676
 5257SOL     OW16312   4.612   1.514   3.057
 5257SOL    HW116313   4.589   1.489   2.963
 5257SOL    HW216314   4.673   1.445   3.096
 5258SOL     OW16315   5.075   0.590   3.295
 5258SOL    HW116316   5.103   0.547   3.380
 5258SOL    HW216317   5.100   0.686   3.296
 5259SOL     OW16318   4.527   1.402   2.786
 5259SOL    HW116319   4.617   1.416   2.744
 5259SOL    HW216320   4.456   1.404   2.715
 5260SOL     OW16321   4.646   0.503   2.761
 5260SOL    HW116322   4.621   0.494   2.665
 5260SOL    HW216323   4.694   0.421   2.792
 5261SOL     OW16324   4.263   0.064   2.374
 5261SOL    HW116325   4.182   0.065   2.432
 5261SOL    HW216326   4.266   0.147   2.319
 5262SOL     OW16327   5.158   1.188   1.903
 5262SOL    HW116328   5.190   1.112   1.960
 5262SOL    HW216329   5.066   1.215   1.933
 5263SOL     OW16330   4.021   0.035   2.033
 5263SOL    HW116331   4.070   0.119   2.012
 5263SOL    HW216332   4.083  -0.030   2.078
 5264SOL     OW16333   4.659   0.236   2.342
 5264SOL    HW116334   4.611   0.277   2.264
 5264SOL    HW216335   4.758   0.234   2.323
 5265SOL     OW16336   4.800   0.683   3.326
 5265SOL    HW116337   4.720   0.622   3.329
 5265SOL    HW216338   4.881   0.630   3.302
 5266SOL     OW16339   4.951   1.570   2.655
 5266SOL    HW116340   4.972   1.644   2.590
 5266SOL    HW216341   5.019   1.570   2.728
 5267SOL     OW16342   4.183   1.152   2.603
 5267SOL    HW116343   4.112   1.125   2.668
 5267SOL    HW216344   4.157   1.124   2.510
 5268SOL     OW16345   4.995   1.797   2.453
 5268SOL    HW116346   5.039   1.861   2.389
 5268SOL    HW216347   4.945   1.849   2.523
 5269SOL     OW16348   4.756   0.549   1.878
 5269SOL    HW116349   4.715   0.631   1.839
 5269SOL    HW216350   4.820   0.575   1.951
 5270SOL     OW16351   3.802   0.556   3.248
 5270SOL    HW116352   3.894   0.555   3.207
 5270SOL    HW216353   3.796   0.630   3.315
 5271SOL     OW16354   4.285   0.222   3.009
 5271SOL    HW116355   4.323   0.138   3.046
 5271SOL    HW216356   4.197   0.241   3.053
 5272SOL     OW16357   4.590   0.454   2.504
 5272SOL    HW116358   4.558   0.526   2.442
 5272SOL    HW216359   4.614   0.373   2.451
 5273SOL     OW16360   4.741   0.039   2.615
 5273SOL    HW116361   4.669   0.044   2.546
 5273SOL    HW216362   4.717  -0.030   2.684
 5274SOL     OW16363   5.153   1.173   2.729
 5274SOL    HW116364   5.098   1.089   2.722
 5274SOL    HW216365   5.179   1.202   2.637
 5275SOL     OW16366   4.212   1.385   2.036
 5275SOL    HW116367   4.125   1.370   2.083
 5275SOL    HW216368   4.195   1.411   1.941
 5276SOL     OW16369   5.114   0.575   1.940
 5276SOL    HW116370   5.060   0.554   2.021
 5276SOL    HW216371   5.205   0.534   1.949
 5277SOL     OW16372   4.251   0.256   2.190
 5277SOL    HW116373   4.278   0.197   2.115
 5277SOL    HW216374   4.251   0.351   2.159
 5278SOL     OW16375   4.788   1.347   3.202
 5278SOL    HW116376   4.708   1.324   3.257
 5278SOL    HW216377   4.871   1.321   3.251
 5279SOL     OW16378   5.316   1.629   3.487
 5279SOL    HW116379   5.343   1.663   3.397
 5279SOL    HW216380   5.395   1.591   3.533
 5280SOL     OW16381   4.835   1.195   2.962
 5280SOL    HW116382   4.795   1.239   3.043
 5280SOL    HW216383   4.794   1.232   2.879
 5281SOL     OW16384   4.639   0.089   3.264
 5281SOL    HW116385   4.664   0.069   3.169
 5281SOL    HW216386   4.711   0.145   3.306
 5282SOL     OW16387   4.704   1.116   3.581
 5282SOL    HW116388   4.605   1.122   3.591
 5282SOL    HW216389   4.727   1.036   3.525
 5283SOL     OW16390   4.429   1.050   2.230
 5283SOL    HW116391   4.415   1.057   2.329
 5283SOL    HW216392   4.513   0.999   2.212
 5284SOL     OW16393   4.134   0.813   3.113
 5284SOL    HW116394   4.220   0.825   3.163
 5284SOL    HW216395   4.092   0.726   3.140
 5285SOL     OW16396   4.998   0.386   3.124
 5285SOL    HW116397   5.019   0.460   3.188
 5285SOL    HW216398   4.909   0.403   3.081
 5286SOL     OW16399   3.788   1.564   3.193
 5286SOL    HW116400   3.742   1.646   3.159
 5286SOL    HW216401   3.886   1.583   3.202
 5287SOL     OW16402   4.091   1.100   2.363
 5287SOL    HW116403   4.084   1.183   2.307
 5287SOL    HW216404   4.095   1.020   2.303
 5288SOL     OW16405   4.290   0.537   2.727
 5288SOL    HW116406   4.302   0.603   2.653
 5288SOL    HW216407   4.336   0.571   2.810
 5289SOL     OW16408   4.976   1.348   2.250
 5289SOL    HW116409   5.026   1.425   2.290
 5289SOL    HW216410   4.881   1.350   2.282
 5290SOL     OW16411   4.996   1.445   3.004
 5290SOL    HW116412   5.043   1.458   3.091
 5290SOL    HW216413   4.930   1.371   3.013
 5291SOL     OW16414   4.078   1.510   3.191
 5291SOL    HW116415   4.057   1.466   3.104
 5291SOL    HW216416   4.175   1.536   3.194
 5292SOL     OW16417   4.126   0.751   3.460
 5292SOL    HW116418   4.194   0.806   3.413
 5292SOL    HW216419   4.166   0.663   3.487
 5293SOL     OW16420   4.737   0.105   3.632
 5293SOL    HW116421   4.743   0.190   3.580
 5293SOL    HW216422   4.769   0.029   3.575
 5294SOL     OW16423   4.228   0.050   3.602
 5294SOL    HW116424   4.186  -0.007   3.532
 5294SOL    HW216425   4.162   0.119   3.634
 5295SOL     OW16426   4.297   0.870   2.891
 5295SOL    HW116427   4.341   0.959   2.882
 5295SOL    HW216428   4.234   0.870   2.968
 5296SOL     OW16429   5.084   0.862   2.907
 5296SOL    HW116430   5.009   0.862   2.841
 5296SOL    HW216431   5.121   0.770   2.916
 5297SOL     OW16432   4.933   0.525   2.137
 5297SOL    HW116433   4.946   0.441   2.191
 5297SOL    HW216434   4.904   0.599   2.197
 5298SOL     OW16435   4.031   0.213   3.093
 5298SOL    HW116436   4.008   0.250   3.183
 5298SOL    HW216437   4.001   0.118   3.087
 5299SOL     OW16438   3.761   1.310   3.144
 5299SOL    HW116439   3.814   1.261   3.212
 5299SOL    HW216440   3.783   1.408   3.149
 5300SOL     OW16441   4.456   0.634   2.926
 5300SOL    HW116442   4.515   0.608   2.850
 5300SOL    HW216443   4.428   0.730   2.915
 5301SOL     OW16444   4.031   0.063   2.480
 5301SOL    HW116445   4.020   0.157   2.513
 5301SOL    HW216446   4.026   0.000   2.557
 5302SOL     OW16447   5.346   0.367   2.236
 5302SOL    HW116448   5.348   0.291   2.300
 5302SOL    HW216449   5.298   0.444   2.276
 5303SOL     OW16450   4.747   0.766   2.828
 5303SOL    HW116451   4.762   0.787   2.924
 5303SOL    HW216452   4.717   0.671   2.819
 5304SOL     OW16453   4.704   1.573   3.562
 5304SOL    HW116454   4.684   1.617   3.474
 5304SOL    HW216455   4.743   1.482   3.546
 5305SOL     OW16456   4.074   0.898   3.666
 5305SOL    HW116457   4.150   0.942   3.714
 5305SOL    HW216458   4.109   0.851   3.584
 5306SOL     OW16459   5.027   0.838   1.904
 5306SOL    HW116460   5.061   0.745   1.919
 5306SOL    HW216461   5.045   0.865   1.809
 5307SOL     OW16462   4.792   1.333   2.711
 5307SOL    HW116463   4.799   1.249   2.656
 5307SOL    HW216464   4.854   1.402   2.675
 5308SOL     OW16465   4.043   0.810   2.811
 5308SOL    HW116466   4.136   0.846   2.816
 5308SOL    HW216467   4.037   0.725   2.863
 5309SOL     OW16468   4.063   0.509   2.868
 5309SOL    HW116469   4.011   0.426   2.851
 5309SOL    HW216470   4.140   0.514   2.804
 5310SOL     OW16471   4.862   0.380   3.540
 5310SOL    HW116472   4.817   0.443   3.604
 5310SOL    HW216473   4.955   0.411   3.523
 5311SOL     OW16474   4.884   0.207   3.339
 5311SOL    HW116475   4.884   0.271   3.416
 5311SOL    HW216476   4.912   0.255   3.256
 5312SOL     OW16477   3.732   1.326   2.062
 5312SOL    HW116478   3.639   1.347   2.031
 5312SOL    HW216479   3.742   1.227   2.075
 5313SOL     OW16480   3.812   1.801   2.789
 5313SOL    HW116481   3.770   1.715   2.762
 5313SOL    HW216482   3.906   1.804   2.755
 5314SOL     OW16483   4.228   1.568   2.772
 5314SOL    HW116484   4.294   1.642   2.781
 5314SOL    HW216485   4.272   1.489   2.730
 5315SOL     OW16486   4.726   0.796   3.100
 5315SOL    HW116487   4.767   0.764   3.186
 5315SOL    HW216488   4.630   0.769   3.097
 5316SOL     OW16489   3.764   0.544   2.976
 5316SOL    HW116490   3.849   0.511   2.935
 5316SOL    HW216491   3.777   0.559   3.074
 5317SOL     OW16492   3.913   0.520   3.584
 5317SOL    HW116493   3.972   0.480   3.514
 5317SOL    HW216494   3.855   0.591   3.543
 5318SOL     OW16495   5.093   0.950   3.522
 5318SOL    HW116496   5.132   1.039   3.542
 5318SOL    HW216497   5.103   0.930   3.425
 5319SOL     OW16498   4.539   0.572   2.187
 5319SOL    HW116499   4.546   0.483   2.141
 5319SOL    HW216500   4.445   0.606   2.179
 5320SOL     OW16501   3.976   1.564   3.606
 5320SOL    HW116502   3.946   1.621   3.682
 5320SOL    HW216503   3.969   1.467   3.632
 5321SOL     OW16504   4.395   0.464   3.131
 5321SOL    HW116505   4.361   0.375   3.101
 5321SOL    HW216506   4.421   0.518   3.051
 5322SOL     OW16507   4.654   1.678   3.327
 5322SOL    HW116508   4.630   1.660   3.232
 5322SOL    HW216509   4.684   1.772   3.337
 5323SOL     OW16510   4.197   0.500   2.053
 5323SOL    HW116511   4.258   0.580   2.057
 5323SOL    HW216512   4.102   0.531   2.060
 5324SOL     OW16513   3.883   1.137   3.328
 5324SOL    HW116514   3.905   1.076   3.404
 5324SOL    HW216515   3.893   1.088   3.242
 5325SOL     OW16516   5.071   1.059   3.096
 5325SOL    HW116517   5.095   0.996   3.022
 5325SOL    HW216518   4.981   1.099   3.078
 5326SOL     OW16519   5.026   0.855   2.171
 5326SOL    HW116520   4.940   0.824   2.213
 5326SOL    HW216521   5.022   0.841   2.072
 5327SOL     OW16522   4.976   1.731   2.990
 5327SOL    HW116523   5.060   1.736   2.936
 5327SOL    HW216524   4.953   1.635   3.008
 5328SOL     OW16525   3.807   1.258   2.884
 5328SOL    HW116526   3.802   1.257   2.984
 5328SOL    HW216527   3.724   1.217   2.846
 5329SOL     OW16528   4.412   1.662   3.578
 5329SOL    HW116529   4.356   1.743   3.587
 5329SOL    HW216530   4.464   1.666   3.492
 5330SOL     OW16531   5.112   1.573   2.339
 5330SOL    HW116532   5.179   1.585   2.265
 5330SOL    HW216533   5.072   1.662   2.362
 5331SOL     OW16534   3.854   1.794   3.713
 5331SOL    HW116535   3.813   1.720   3.766
 5331SOL    HW216536   3.918   1.845   3.771
 5332SOL     OW16537   5.004   0.927   2.534
 5332SOL    HW116538   5.064   0.846   2.536
 5332SOL    HW216539   5.044   0.996   2.474
 5333SOL     OW16540   4.554   1.273   3.284
 5333SOL    HW116541   4.549   1.306   3.379
 5333SOL    HW216542   4.468   1.292   3.238
 5334SOL     OW16543   4.396   1.616   2.016
 5334SOL    HW116544   4.405   1.626   1.917
 5334SOL    HW216545   4.356   1.527   2.037
 5335SOL     OW16546   3.987   0.326   2.582
 5335SOL    HW116547   3.908   0.377   2.548
 5335SOL    HW216548   3.978   0.311   2.680
 5336SOL     OW16549   4.918   1.612   1.893
 5336SOL    HW116550   4.924   1.519   1.930
 5336SOL    HW216551   4.859   1.612   1.813
 5337SOL     OW16552   4.546   1.002   3.234
 5337SOL    HW116553   4.586   1.001   3.142
 5337SOL    HW216554   4.556   1.094   3.274
 5338SOL     OW16555   4.640   0.910   2.153
 5338SOL    HW116556   4.703   0.948   2.085
 5338SOL    HW216557   4.680   0.827   2.192
 5339SOL     OW16558   4.096   1.288   3.352
 5339SOL    HW116559   4.083   1.381   3.318
 5339SOL    HW216560   4.012   1.236   3.339
 5340SOL     OW16561   4.763   1.098   2.558
 5340SOL    HW116562   4.693   1.051   2.612
 5340SOL    HW216563   4.822   1.030   2.515
 5341SOL     OW16564   4.738   0.236   2.833
 5341SOL    HW116565   4.730   0.200   2.740
 5341SOL    HW216566   4.736   0.160   2.898
 5342SOL     OW16567   4.314   1.487   2.353
 5342SOL    HW116568   4.356   1.429   2.283
 5342SOL    HW216569   4.270   1.566   2.309
 5343SOL     OW16570   3.979   1.348   2.152
 5343SOL    HW116571   3.883   1.349   2.125
 5343SOL    HW216572   3.991   1.401   2.236
 5344SOL     OW16573   3.829   1.013   3.588
 5344SOL    HW116574   3.752   0.980   3.642
 5344SOL    HW216575   3.914   0.983   3.630
 5345SOL     OW16576   4.396   0.203   3.351
 5345SOL    HW116577   4.486   0.187   3.311
 5345SOL    HW216578   4.404   0.208   3.450
 5346SOL     OW16579   3.799   0.345   1.895
 5346SOL    HW116580   3.707   0.317   1.866
 5346SOL    HW216581   3.830   0.422   1.839
 5347SOL     OW16582   5.164   0.856   3.260
 5347SOL    HW116583   5.107   0.908   3.197
 5347SOL    HW216584   5.260   0.868   3.236
 5348SOL     OW16585   3.796   0.166   2.180
 5348SOL    HW116586   3.779   0.249   2.126
 5348SOL    HW216587   3.886   0.129   2.158
 5349SOL     OW16588   4.907   1.335   1.981
 5349SOL    HW116589   4.808   1.324   1.983
 5349SOL    HW216590   4.941   1.350   2.074
 5350SOL     OW16591   4.337   0.842   3.293
 5350SOL    HW116592   4.393   0.923   3.276
 5350SOL    HW216593   4.396   0.762   3.296
 5351SOL     OW16594   4.440   0.565   3.570
 5351SOL    HW116595   4.459   0.630   3.644
 5351SOL    HW216596   4.500   0.485   3.579
 5352SOL     OW16597   5.174   1.220   3.495
 5352SOL    HW116598   5.165   1.210   3.594
 5352SOL    HW216599   5.270   1.213   3.469
 5353SOL     OW16600   4.114   1.741   3.422
 5353SOL    HW116601   4.023   1.782   3.420
 5353SOL    HW216602   4.107   1.647   3.454
 5354SOL     OW16603   4.949   0.325   2.311
 5354SOL    HW116604   5.014   0.251   2.300
 5354SOL    HW216605   4.969   0.375   2.395
 5355SOL     OW16606   4.318   0.745   2.514
 5355SOL    HW116607   4.368   0.830   2.495
 5355SOL    HW216608   4.230   0.747   2.466
 5356SOL     OW16609   4.583   1.374   1.878
 5356SOL    HW116610   4.537   1.389   1.966
 5356SOL    HW216611   4.627   1.459   1.848
 5357SOL     OW16612   4.385   1.790   2.815
 5357SOL    HW116613   4.339   1.878   2.802
 5357SOL    HW216614   4.484   1.802   2.808
 5358SOL     OW16615   4.583   0.956   2.723
 5358SOL    HW116616   4.637   0.887   2.771
 5358SOL    HW216617   4.551   1.025   2.789
 5359SOL     OW16618   4.807   0.984   1.949
 5359SOL    HW116619   4.784   1.037   1.867
 5359SOL    HW216620   4.888   0.928   1.930
 5360SOL     OW16621   3.945   1.314   3.706
 5360SOL    HW116622   3.880   1.241   3.685
 5360SOL    HW216623   3.949   1.328   3.804
 5361SOL     OW16624   3.803   1.240   2.515
 5361SOL    HW116625   3.802   1.193   2.603
 5361SOL    HW216626   3.885   1.212   2.464
 5362SOL     OW16627   4.396   1.391   3.486
 5362SOL    HW116628   4.318   1.341   3.524
 5362SOL    HW216629   4.393   1.486   3.517
 5363SOL     OW16630   4.152   0.424   2.382
 5363SOL    HW116631   4.182   0.352   2.320
 5363SOL    HW216632   4.113   0.384   2.465
 5364SOL     OW16633   5.429   1.487   2.966
 5364SOL    HW116634   5.336   1.462   2.939
 5364SOL    HW216635   5.455   1.437   3.048
 5365SOL     OW16636   4.041   0.547   3.142
 5365SOL    HW116637   4.079   0.488   3.214
 5365SOL    HW216638   4.081   0.521   3.054
 5366SOL     OW16639   4.536   1.586   2.549
 5366SOL    HW116640   4.568   1.596   2.455
 5366SOL    HW216641   4.457   1.524   2.551
 5367SOL     OW16642   5.148   0.214   2.974
 5367SOL    HW116643   5.200   0.149   3.029
 5367SOL    HW216644   5.099   0.277   3.035
 5368SOL     OW16645   4.725   0.034   3.016
 5368SOL    HW116646   4.662  -0.038   2.985
 5368SOL    HW216647   4.818  -0.002   3.016
 5369SOL     OW16648   4.494   1.330   2.163
 5369SOL    HW116649   4.448   1.243   2.180
 5369SOL    HW216650   4.585   1.327   2.204
 5370SOL     OW16651   4.342   1.567   3.146
 5370SOL    HW116652   4.337   1.649   3.203
 5370SOL    HW216653   4.431   1.564   3.101
 5371SOL     OW16654   5.076   0.052   2.030
 5371SOL    HW116655   5.111   0.011   1.946
 5371SOL    HW216656   4.986   0.014   2.050
 5372SOL     OW16657   5.024   0.453   2.553
 5372SOL    HW116658   4.965   0.533   2.557
 5372SOL    HW216659   5.039   0.418   2.646
 5373SOL     OW16660   5.317   0.221   2.744
 5373SOL    HW116661   5.233   0.220   2.798
 5373SOL    HW216662   5.319   0.304   2.688
 5374SOL     OW16663   3.763   1.077   2.162
 5374SOL    HW116664   3.862   1.066   2.153
 5374SOL    HW216665   3.723   0.991   2.194
 5375SOL     OW16666   4.599   1.646   2.199
 5375SOL    HW116667   4.522   1.611   2.145
 5375SOL    HW216668   4.567   1.717   2.261
 5376SOL     OW16669   3.954   0.628   3.837
 5376SOL    HW116670   3.861   0.626   3.874
 5376SOL    HW216671   3.955   0.589   3.745
 5377SOL     OW16672   3.949   0.275   4.720
 5377SOL    HW116673   3.984   0.258   4.812
 5377SOL    HW216674   3.861   0.230   4.708
 5378SOL     OW16675   3.743   0.368   4.371
 5378SOL    HW116676   3.661   0.411   4.410
 5378SOL    HW216677   3.715   0.295   4.308
 5379SOL     OW16678   4.293   1.275   4.889
 5379SOL    HW116679   4.200   1.268   4.852
 5379SOL    HW216680   4.304   1.364   4.933
 5380SOL     OW16681   5.279   1.511   4.427
 5380SOL    HW116682   5.222   1.495   4.508
 5380SOL    HW216683   5.220   1.521   4.347
 5381SOL     OW16684   4.859   0.703   4.441
 5381SOL    HW116685   4.916   0.781   4.416
 5381SOL    HW216686   4.799   0.729   4.517
 5382SOL     OW16687   4.492   1.144   4.747
 5382SOL    HW116688   4.414   1.161   4.807
 5382SOL    HW216689   4.526   1.231   4.711
 5383SOL     OW16690   4.574   0.798   5.547
 5383SOL    HW116691   4.570   0.874   5.612
 5383SOL    HW216692   4.596   0.834   5.456
 5384SOL     OW16693   4.409   1.012   4.389
 5384SOL    HW116694   4.478   0.996   4.459
 5384SOL    HW216695   4.336   1.069   4.427
 5385SOL     OW16696   4.410   1.161   5.527
 5385SOL    HW116697   4.470   1.240   5.541
 5385SOL    HW216698   4.324   1.192   5.486
 5386SOL     OW16699   4.059   1.435   4.785
 5386SOL    HW116700   3.981   1.404   4.732
 5386SOL    HW216701   4.117   1.493   4.728
 5387SOL     OW16702   5.184   1.505   5.063
 5387SOL    HW116703   5.208   1.599   5.089
 5387SOL    HW216704   5.168   1.451   5.145
 5388SOL     OW16705   4.162   0.392   5.223
 5388SOL    HW116706   4.244   0.336   5.232
 5388SOL    HW216707   4.081   0.334   5.227
 5389SOL     OW16708   3.955   1.713   4.207
 5389SOL    HW116709   3.989   1.790   4.261
 5389SOL    HW216710   3.999   1.713   4.117
 5390SOL     OW16711   4.851   1.341   5.414
 5390SOL    HW116712   4.898   1.341   5.502
 5390SOL    HW216713   4.803   1.254   5.403
 5391SOL     OW16714   3.954   1.434   4.262
 5391SOL    HW116715   3.928   1.530   4.262
 5391SOL    HW216716   3.883   1.380   4.307
 5392SOL     OW16717   3.964   1.091   4.610
 5392SOL    HW116718   3.978   1.007   4.662
 5392SOL    HW216719   3.909   1.155   4.665
 5393SOL     OW16720   4.344   1.786   5.163
 5393SOL    HW116721   4.252   1.769   5.198
 5393SOL    HW216722   4.372   1.878   5.189
 5394SOL     OW16723   4.330   0.964   3.847
 5394SOL    HW116724   4.337   1.048   3.793
 5394SOL    HW216725   4.376   0.977   3.935
 5395SOL     OW16726   5.318   0.114   5.204
 5395SOL    HW116727   5.300   0.181   5.132
 5395SOL    HW216728   5.315   0.160   5.293
 5396SOL     OW16729   3.846   0.643   4.287
 5396SOL    HW116730   3.801   0.555   4.304
 5396SOL    HW216731   3.845   0.697   4.371
 5397SOL     OW16732   3.751   1.596   3.841
 5397SOL    HW116733   3.732   1.500   3.862
 5397SOL    HW216734   3.718   1.654   3.916
 5398SOL     OW16735   5.413   0.922   4.336
 5398SOL    HW116736   5.508   0.893   4.344
 5398SOL    HW216737   5.405   0.987   4.261
 5399SOL     OW16738   3.837   0.737   5.321
 5399SOL    HW116739   3.925   0.724   5.366
 5399SOL    HW216740   3.824   0.834   5.299
 5400SOL     OW16741   4.337   1.365   4.450
 5400SOL    HW116742   4.288   1.278   4.459
 5400SOL    HW216743   4.314   1.408   4.363
 5401SOL     OW16744   5.017   1.228   5.147
 5401SOL    HW116745   5.054   1.155   5.089
 5401SOL    HW216746   5.069   1.233   5.232
 5402SOL     OW16747   4.533   0.004   4.226
 5402SOL    HW116748   4.573   0.095   4.217
 5402SOL    HW216749   4.433   0.012   4.232
 5403SOL     OW16750   3.921   0.976   4.988
 5403SOL    HW116751   4.010   0.931   4.974
 5403SOL    HW216752   3.848   0.911   4.969
 5404SOL     OW16753   4.911   1.792   5.340
 5404SOL    HW116754   4.935   1.852   5.264
 5404SOL    HW216755   4.918   1.697   5.310
 5405SOL     OW16756   4.041   0.251   5.525
 5405SOL    HW116757   4.112   0.322   5.531
 5405SOL    HW216758   3.953   0.290   5.553
 5406SOL     OW16759   5.190   1.417   4.677
 5406SOL    HW116760   5.131   1.423   4.757
 5406SOL    HW216761   5.175   1.329   4.631
 5407SOL     OW16762   4.322   0.729   3.994
 5407SOL    HW116763   4.346   0.798   3.926
 5407SOL    HW216764   4.244   0.762   4.048
 5408SOL     OW16765   5.005   0.345   4.668
 5408SOL    HW116766   4.919   0.295   4.655
 5408SOL    HW216767   5.067   0.291   4.724
 5409SOL     OW16768   4.531   0.605   5.189
 5409SOL    HW116769   4.484   0.602   5.278
 5409SOL    HW216770   4.480   0.550   5.123
 5410SOL     OW16771   5.118   0.469   5.398
 5410SOL    HW116772   5.098   0.512   5.486
 5410SOL    HW216773   5.196   0.407   5.407
 5411SOL     OW16774   4.697   0.890   5.296
 5411SOL    HW116775   4.743   0.806   5.267
 5411SOL    HW216776   4.641   0.924   5.221
 5412SOL     OW16777   4.715   0.410   4.966
 5412SOL    HW116778   4.638   0.444   5.020
 5412SOL    HW216779   4.681   0.359   4.887
 5413SOL     OW16780   4.765   0.701   4.153
 5413SOL    HW116781   4.791   0.697   4.249
 5413SOL    HW216782   4.680   0.650   4.139
 5414SOL     OW16783   3.800   0.811   4.513
 5414SOL    HW116784   3.899   0.799   4.522
 5414SOL    HW216785   3.776   0.906   4.534
 5415SOL     OW16786   3.854   1.821   5.295
 5415SOL    HW116787   3.844   1.806   5.394
 5415SOL    HW216788   3.768   1.857   5.259
 5416SOL     OW16789   4.589   0.348   3.919
 5416SOL    HW116790   4.648   0.411   3.870
 5416SOL    HW216791   4.608   0.254   3.890
 5417SOL     OW16792   5.086   1.144   4.269
 5417SOL    HW116793   5.169   1.115   4.221
 5417SOL    HW216794   5.037   1.211   4.213
 5418SOL     OW16795   4.274   0.196   4.609
 5418SOL    HW116796   4.269   0.191   4.709
 5418SOL    HW216797   4.276   0.292   4.580
 5419SOL     OW16798   4.732   1.456   4.201
 5419SOL    HW116799   4.686   1.528   4.149
 5419SOL    HW216800   4.728   1.476   4.299
 5420SOL     OW16801   4.075   1.801   4.577
 5420SOL    HW116802   4.125   1.715   4.583
 5420SOL    HW216803   4.140   1.878   4.574
 5421SOL     OW16804   4.951   1.550   5.230
 5421SOL    HW116805   4.957   1.473   5.294
 5421SOL    HW216806   4.899   1.524   5.150
 5422SOL     OW16807   4.045   0.943   3.966
 5422SOL    HW116808   4.127   0.982   3.924
 5422SOL    HW216809   4.018   0.861   3.917
 5423SOL     OW16810   4.185   1.266   5.451
 5423SOL    HW116811   4.135   1.267   5.365
 5423SOL    HW216812   4.122   1.248   5.527
 5424SOL     OW16813   4.835   1.776   3.961
 5424SOL    HW116814   4.775   1.714   4.011
 5424SOL    HW216815   4.866   1.732   3.876
 5425SOL     OW16816   3.926   0.285   5.222
 5425SOL    HW116817   3.846   0.345   5.209
 5425SOL    HW216818   3.916   0.236   5.308
 5426SOL     OW16819   4.188   1.743   4.047
 5426SOL    HW116820   4.221   1.782   4.133
 5426SOL    HW216821   4.264   1.736   3.982
 5427SOL     OW16822   5.124   0.107   4.150
 5427SOL    HW116823   5.100   0.070   4.060
 5427SOL    HW216824   5.223   0.123   4.154
 5428SOL     OW16825   3.973   1.785   4.965
 5428SOL    HW116826   4.030   1.720   5.015
 5428SOL    HW216827   3.957   1.752   4.872
 5429SOL     OW16828   4.664   1.698   4.628
 5429SOL    HW116829   4.744   1.641   4.649
 5429SOL    HW216830   4.615   1.658   4.551
 5430SOL     OW16831   4.106   0.700   4.204
 5430SOL    HW116832   4.151   0.610   4.201
 5430SOL    HW216833   4.012   0.689   4.237
 5431SOL     OW16834   4.338   0.122   3.841
 5431SOL    HW116835   4.436   0.100   3.848
 5431SOL    HW216836   4.307   0.105   3.748
 5432SOL     OW16837   4.505   0.264   5.473
 5432SOL    HW116838   4.572   0.203   5.516
 5432SOL    HW216839   4.432   0.283   5.538
 5433SOL     OW16840   4.612   1.514   4.919
 5433SOL    HW116841   4.589   1.489   4.825
 5433SOL    HW216842   4.673   1.445   4.958
 5434SOL     OW16843   5.075   0.590   5.157
 5434SOL    HW116844   5.103   0.547   5.242
 5434SOL    HW216845   5.100   0.686   5.158
 5435SOL     OW16846   4.527   1.402   4.648
 5435SOL    HW116847   4.617   1.416   4.606
 5435SOL    HW216848   4.456   1.404   4.577
 5436SOL     OW16849   4.646   0.503   4.623
 5436SOL    HW116850   4.621   0.494   4.527
 5436SOL    HW216851   4.694   0.421   4.654
 5437SOL     OW16852   4.263   0.064   4.236
 5437SOL    HW116853   4.182   0.065   4.294
 5437SOL    HW216854   4.266   0.147   4.181
 5438SOL     OW16855   5.158   1.188   3.765
 5438SOL    HW116856   5.190   1.112   3.822
 5438SOL    HW216857   5.066   1.215   3.795
 5439SOL     OW16858   4.021   0.035   3.895
 5439SOL    HW116859   4.070   0.119   3.874
 5439SOL    HW216860   4.083  -0.030   3.940
 5440SOL     OW16861   4.659   0.236   4.204
 5440SOL    HW116862   4.611   0.277   4.126
 5440SOL    HW216863   4.758   0.234   4.185
 5441SOL     OW16864   4.800   0.683   5.188
 5441SOL    HW116865   4.720   0.622   5.191
 5441SOL    HW216866   4.881   0.630   5.164
 5442SOL     OW16867   4.951   1.570   4.517
 5442SOL    HW116868   4.972   1.644   4.452
 5442SOL    HW216869   5.019   1.570   4.590
 5443SOL     OW16870   4.183   1.152   4.465
 5443SOL    HW116871   4.112   1.125   4.530
 5443SOL    HW216872   4.157   1.124   4.372
 5444SOL     OW16873   4.995   1.797   4.315
 5444SOL    HW116874   5.039   1.861   4.251
 5444SOL    HW216875   4.945   1.849   4.385
 5445SOL     OW16876   4.756   0.549   3.740
 5445SOL    HW116877   4.715   0.631   3.701
 5445SOL    HW216878   4.820   0.575   3.813
 5446SOL     OW16879   3.802   0.556   5.110
 5446SOL    HW116880   3.894   0.555   5.069
 5446SOL    HW216881   3.796   0.630   5.177
 5447SOL     OW16882   4.285   0.222   4.871
 5447SOL    HW116883   4.323   0.138   4.908
 5447SOL    HW216884   4.197   0.241   4.915
 5448SOL     OW16885   4.590   0.454   4.366
 5448SOL    HW116886   4.558   0.526   4.304
 5448SOL    HW216887   4.614   0.373   4.313
 5449SOL     OW16888   4.741   0.039   4.477
 5449SOL    HW116889   4.669   0.044   4.408
 5449SOL    HW216890   4.717  -0.030   4.546
 5450SOL     OW16891   5.153   1.173   4.591
 5450SOL    HW116892   5.098   1.089   4.584
 5450SOL    HW216893   5.179   1.202   4.499
 5451SOL     OW16894   4.212   1.385   3.898
 5451SOL    HW116895   4.125   1.370   3.945
 5451SOL    HW216896   4.195   1.411   3.803
 5452SOL     OW16897   5.114   0.575   3.802
 5452SOL    HW116898   5.060   0.554   3.883
 5452SOL    HW216899   5.205   0.534   3.811
 5453SOL     OW16900   4.251   0.256   4.052
 5453SOL    HW116901   4.278   0.197   3.977
 5453SOL    HW216902   4.251   0.351   4.021
 5454SOL     OW16903   4.788   1.347   5.064
 5454SOL    HW116904   4.708   1.324   5.119
 5454SOL    HW216905   4.871   1.321   5.113
 5455SOL     OW16906   5.316   1.629   5.349
 5455SOL    HW116907   5.343   1.663   5.259
 5455SOL    HW216908   5.395   1.591   5.395
 5456SOL     OW16909   4.835   1.195   4.824
 5456SOL    HW116910   4.795   1.239   4.905
 5456SOL    HW216911   4.794   1.232   4.741
 5457SOL     OW16912   4.639   0.089   5.126
 5457SOL    HW116913   4.664   0.069   5.031
 5457SOL    HW216914   4.711   0.145   5.168
 5458SOL     OW16915   4.704   1.116   5.443
 5458SOL    HW116916   4.605   1.122   5.453
 5458SOL    HW216917   4.727   1.036   5.387
 5459SOL     OW16918   4.429   1.050   4.092
 5459SOL    HW116919   4.415   1.057   4.191
 5459SOL    HW216920   4.513   0.999   4.074
 5460SOL     OW16921   4.134   0.813   4.975
 5460SOL    HW116922   4.220   0.825   5.025
 5460SOL    HW216923   4.092   0.726   5.002
 5461SOL     OW16924   4.998   0.386   4.986
 5461SOL    HW116925   5.019   0.460   5.050
 5461SOL    HW216926   4.909   0.403   4.943
 5462SOL     OW16927   3.788   1.564   5.055
 5462SOL    HW116928   3.742   1.646   5.021
 5462SOL    HW216929   3.886   1.583   5.064
 5463SOL     OW16930   4.091   1.100   4.225
 5463SOL    HW116931   4.084   1.183   4.169
 5463SOL    HW216932   4.095   1.020   4.165
 5464SOL     OW16933   4.290   0.537   4.589
 5464SOL    HW116934   4.302   0.603   4.515
 5464SOL    HW216935   4.336   0.571   4.672
 5465SOL     OW16936   4.976   1.348   4.112
 5465SOL    HW116937   5.026   1.425   4.152
 5465SOL    HW216938   4.881   1.350   4.144
 5466SOL     OW16939   4.996   1.445   4.866
 5466SOL    HW116940   5.043   1.458   4.953
 5466SOL    HW216941   4.930   1.371   4.875
 5467SOL     OW16942   4.078   1.510   5.053
 5467SOL    HW116943   4.057   1.466   4.966
 5467SOL    HW216944   4.175   1.536   5.056
 5468SOL     OW16945   4.126   0.751   5.322
 5468SOL    HW116946   4.194   0.806   5.275
 5468SOL    HW216947   4.166   0.663   5.349
 5469SOL     OW16948   4.737   0.105   5.494
 5469SOL    HW116949   4.743   0.190   5.442
 5469SOL    HW216950   4.769   0.029   5.437
 5470SOL     OW16951   4.228   0.050   5.464
 5470SOL    HW116952   4.186  -0.007   5.394
 5470SOL    HW216953   4.162   0.119   5.496
 5471SOL     OW16954   4.297   0.870   4.753
 5471SOL    HW116955   4.341   0.959   4.744
 5471SOL    HW216956   4.234   0.870   4.830
 5472SOL     OW16957   5.084   0.862   4.769
 5472SOL    HW116958   5.009   0.862   4.703
 5472SOL    HW216959   5.121   0.770   4.778
 5473SOL     OW16960   4.933   0.525   3.999
 5473SOL    HW116961   4.946   0.441   4.053
 5473SOL    HW216962   4.904   0.599   4.059
 5474SOL     OW16963   4.031   0.213   4.955
 5474SOL    HW116964   4.008   0.250   5.045
 5474SOL    HW216965   4.001   0.118   4.949
 5475SOL     OW16966   3.761   1.310   5.006
 5475SOL    HW116967   3.814   1.261   5.074
 5475SOL    HW216968   3.783   1.408   5.011
 5476SOL     OW16969   4.456   0.634   4.788
 5476SOL    HW116970   4.515   0.608   4.712
 5476SOL    HW216971   4.428   0.730   4.777
 5477SOL     OW16972   4.031   0.063   4.342
 5477SOL    HW116973   4.020   0.157   4.375
 5477SOL    HW216974   4.026   0.000   4.419
 5478SOL     OW16975   5.346   0.367   4.098
 5478SOL    HW116976   5.348   0.291   4.162
 5478SOL    HW216977   5.298   0.444   4.138
 5479SOL     OW16978   4.747   0.766   4.690
 5479SOL    HW116979   4.762   0.787   4.786
 5479SOL    HW216980   4.717   0.671   4.681
 5480SOL     OW16981   4.704   1.573   5.424
 5480SOL    HW116982   4.684   1.617   5.336
 5480SOL    HW216983   4.743   1.482   5.408
 5481SOL     OW16984   4.074   0.898   5.528
 5481SOL    HW116985   4.150   0.942   5.576
 5481SOL    HW216986   4.109   0.851   5.446
 5482SOL     OW16987   5.027   0.838   3.766
 5482SOL    HW116988   5.061   0.745   3.781
 5482SOL    HW216989   5.045   0.865   3.671
 5483SOL     OW16990   4.792   1.333   4.573
 5483SOL    HW116991   4.799   1.249   4.518
 5483SOL    HW216992   4.854   1.402   4.537
 5484SOL     OW16993   4.043   0.810   4.673
 5484SOL    HW116994   4.136   0.846   4.678
 5484SOL    HW216995   4.037   0.725   4.725
 5485SOL     OW16996   4.063   0.509   4.730
 5485SOL    HW116997   4.011   0.426   4.713
 5485SOL    HW216998   4.140   0.514   4.666
 5486SOL     OW16999   4.862   0.380   5.402
 5486SOL    HW117000   4.817   0.443   5.466
 5486SOL    HW217001   4.955   0.411   5.385
 5487SOL     OW17002   4.884   0.207   5.201
 5487SOL    HW117003   4.884   0.271   5.278
 5487SOL    HW217004   4.912   0.255   5.118
 5488SOL     OW17005   3.732   1.326   3.924
 5488SOL    HW117006   3.639   1.347   3.893
 5488SOL    HW217007   3.742   1.227   3.937
 5489SOL     OW17008   3.812   1.801   4.651
 5489SOL    HW117009   3.770   1.715   4.624
 5489SOL    HW217010   3.906   1.804   4.617
 5490SOL     OW17011   4.228   1.568   4.634
 5490SOL    HW117012   4.294   1.642   4.643
 5490SOL    HW217013   4.272   1.489   4.592
 5491SOL     OW17014   4.726   0.796   4.962
 5491SOL    HW117015   4.767   0.764   5.048
 5491SOL    HW217016   4.630   0.769   4.959
 5492SOL     OW17017   3.764   0.544   4.838
 5492SOL    HW117018   3.849   0.511   4.797
 5492SOL    HW217019   3.777   0.559   4.936
 5493SOL     OW17020   3.913   0.520   5.446
 5493SOL    HW117021   3.972   0.480   5.376
 5493SOL    HW217022   3.855   0.591   5.405
 5494SOL     OW17023   5.093   0.950   5.384
 5494SOL    HW117024   5.132   1.039   5.404
 5494SOL    HW217025   5.103   0.930   5.287
 5495SOL     OW17026   4.539   0.572   4.049
 5495SOL    HW117027   4.546   0.483   4.003
 5495SOL    HW217028   4.445   0.606   4.041
 5496SOL     OW17029   3.976   1.564   5.468
 5496SOL    HW117030   3.946   1.621   5.544
 5496SOL    HW217031   3.969   1.467   5.494
 5497SOL     OW17032   4.395   0.464   4.993
 5497SOL    HW117033   4.361   0.375   4.963
 5497SOL    HW217034   4.421   0.518   4.913
 5498SOL     OW17035   4.654   1.678   5.189
 5498SOL    HW117036   4.630   1.660   5.094
 5498SOL    HW217037   4.684   1.772   5.199
 5499SOL     OW17038   4.197   0.500   3.915
 5499SOL    HW117039   4.258   0.580   3.919
 5499SOL    HW217040   4.102   0.531   3.922
 5500SOL     OW17041   3.883   1.137   5.190
 5500SOL    HW117042   3.905   1.076   5.266
 5500SOL    HW217043   3.893   1.088   5.104
 5501SOL     OW17044   5.071   1.059   4.958
 5501SOL    HW117045   5.095   0.996   4.884
 5501SOL    HW217046   4.981   1.099   4.940
 5502SOL     OW17047   5.026   0.855   4.033
 5502SOL    HW117048   4.940   0.824   4.075
 5502SOL    HW217049   5.022   0.841   3.934
 5503SOL     OW17050   4.976   1.731   4.852
 5503SOL    HW117051   5.060   1.736   4.798
 5503SOL    HW217052   4.953   1.635   4.870
 5504SOL     OW17053   3.807   1.258   4.746
 5504SOL    HW117054   3.802   1.257   4.846
 5504SOL    HW217055   3.724   1.217   4.708
 5505SOL     OW17056   4.412   1.662   5.440
 5505SOL    HW117057   4.356   1.743   5.449
 5505SOL    HW217058   4.464   1.666   5.354
 5506SOL     OW17059   5.112   1.573   4.201
 5506SOL    HW117060   5.179   1.585   4.127
 5506SOL    HW217061   5.072   1.662   4.224
 5507SOL     OW17062   3.854   1.794   5.575
 5507SOL    HW117063   3.813   1.720   5.628
 5507SOL    HW217064   3.918   1.845   5.633
 5508SOL     OW17065   5.004   0.927   4.396
 5508SOL    HW117066   5.064   0.846   4.398
 5508SOL    HW217067   5.044   0.996   4.336
 5509SOL     OW17068   4.554   1.273   5.146
 5509SOL    HW117069   4.549   1.306   5.241
 5509SOL    HW217070   4.468   1.292   5.100
 5510SOL     OW17071   4.396   1.616   3.878
 5510SOL    HW117072   4.405   1.626   3.779
 5510SOL    HW217073   4.356   1.527   3.899
 5511SOL     OW17074   3.987   0.326   4.444
 5511SOL    HW117075   3.908   0.377   4.410
 5511SOL    HW217076   3.978   0.311   4.542
 5512SOL     OW17077   4.918   1.612   3.755
 5512SOL    HW117078   4.924   1.519   3.792
 5512SOL    HW217079   4.859   1.612   3.675
 5513SOL     OW17080   4.546   1.002   5.096
 5513SOL    HW117081   4.586   1.001   5.004
 5513SOL    HW217082   4.556   1.094   5.136
 5514SOL     OW17083   4.640   0.910   4.015
 5514SOL    HW117084   4.703   0.948   3.947
 5514SOL    HW217085   4.680   0.827   4.054
 5515SOL     OW17086   4.096   1.288   5.214
 5515SOL    HW117087   4.083   1.381   5.180
 5515SOL    HW217088   4.012   1.236   5.201
 5516SOL     OW17089   4.763   1.098   4.420
 5516SOL    HW117090   4.693   1.051   4.474
 5516SOL    HW217091   4.822   1.030   4.377
 5517SOL     OW17092   4.738   0.236   4.695
 5517SOL    HW117093   4.730   0.200   4.602
 5517SOL    HW217094   4.736   0.160   4.760
 5518SOL     OW17095   4.314   1.487   4.215
 5518SOL    HW117096   4.356   1.429   4.145
 5518SOL    HW217097   4.270   1.566   4.171
 5519SOL     OW17098   3.979   1.348   4.014
 5519SOL    HW117099   3.883   1.349   3.987
 5519SOL    HW217100   3.991   1.401   4.098
 5520SOL     OW17101   3.829   1.013   5.450
 5520SOL    HW117102   3.752   0.980   5.504
 5520SOL    HW217103   3.914   0.983   5.492
 5521SOL     OW17104   4.396   0.203   5.213
 5521SOL    HW117105   4.486   0.187   5.173
 5521SOL    HW217106   4.404   0.208   5.312
 5522SOL     OW17107   3.799   0.345   3.757
 5522SOL    HW117108   3.707   0.317   3.728
 5522SOL    HW217109   3.830   0.422   3.701
 5523SOL     OW17110   5.164   0.856   5.122
 5523SOL    HW117111   5.107   0.908   5.059
 5523SOL    HW217112   5.260   0.868   5.098
 5524SOL     OW17113   3.796   0.166   4.042
 5524SOL    HW117114   3.779   0.249   3.988
 5524SOL    HW217115   3.886   0.129   4.020
 5525SOL     OW17116   4.907   1.335   3.843
 5525SOL    HW117117   4.808   1.324   3.845
 5525SOL    HW217118   4.941   1.350   3.936
 5526SOL     OW17119   4.337   0.842   5.155
 5526SOL    HW117120   4.393   0.923   5.138
 5526SOL    HW217121   4.396   0.762   5.158
 5527SOL     OW17122   4.440   0.565   5.432
 5527SOL    HW117123   4.459   0.630   5.506
 5527SOL    HW217124   4.500   0.485   5.441
 5528SOL     OW17125   5.174   1.220   5.357
 5528SOL    HW117126   5.165   1.210   5.456
 5528SOL    HW217127   5.270   1.213   5.331
 5529SOL     OW17128   4.114   1.741   5.284
 5529SOL    HW117129   4.023   1.782   5.282
 5529SOL    HW217130   4.107   1.647   5.316
 5530SOL     OW17131   4.949   0.325   4.173
 5530SOL    HW117132   5.014   0.251   4.162
 5530SOL    HW217133   4.969   0.375   4.257
 5531SOL     OW17134   4.318   0.745   4.376
 5531SOL    HW117135   4.368   0.830   4.357
 5531SOL    HW217136   4.230   0.747   4.328
 5532SOL     OW17137   4.583   1.374   3.740
 5532SOL    HW117138   4.537   1.389   3.828
 5532SOL    HW217139   4.627   1.459   3.710
 5533SOL     OW17140   4.385   1.790   4.677
 5533SOL    HW117141   4.339   1.878   4.664
 5533SOL    HW217142   4.484   1.802   4.670
 5534SOL     OW17143   4.583   0.956   4.585
 5534SOL    HW117144   4.637   0.887   4.633
 5534SOL    HW217145   4.551   1.025   4.651
 5535SOL     OW17146   4.807   0.984   3.811
 5535SOL    HW117147   4.784   1.037   3.729
 5535SOL    HW217148   4.888   0.928   3.792
 5536SOL     OW17149   3.945   1.314   5.568
 5536SOL    HW117150   3.880   1.241   5.547
 5536SOL    HW217151   3.949   1.328   5.666
 5537SOL     OW17152   3.803   1.240   4.377
 5537SOL    HW117153   3.802   1.193   4.465
 5537SOL    HW217154   3.885   1.212   4.326
 5538SOL     OW17155   4.396   1.391   5.348
 5538SOL    HW117156   4.318   1.341   5.386
 5538SOL    HW217157   4.393   1.486   5.379
 5539SOL     OW17158   4.152   0.424   4.244
 5539SOL    HW117159   4.182   0.352   4.182
 5539SOL    HW217160   4.113   0.384   4.327
 5540SOL     OW17161   5.429   1.487   4.828
 5540SOL    HW117162   5.336   1.462   4.801
 5540SOL    HW217163   5.455   1.437   4.910
 5541SOL     OW17164   4.041   0.547   5.004
 5541SOL    HW117165   4.079   0.488   5.076
 5541SOL    HW217166   4.081   0.521   4.916
 5542SOL     OW17167   4.536   1.586   4.411
 5542SOL    HW117168   4.568   1.596   4.317
 5542SOL    HW217169   4.457   1.524   4.413
 5543SOL     OW17170   5.148   0.214   4.836
 5543SOL    HW117171   5.200   0.149   4.891
 5543SOL    HW217172   5.099   0.277   4.897
 5544SOL     OW17173   4.725   0.034   4.878
 5544SOL    HW117174   4.662  -0.038   4.847
 5544SOL    HW217175   4.818  -0.002   4.878
 5545SOL     OW17176   4.494   1.330   4.025
 5545SOL    HW117177   4.448   1.243   4.042
 5545SOL    HW217178   4.585   1.327   4.066
 5546SOL     OW17179   4.342   1.567   5.008
 5546SOL    HW117180   4.337   1.649   5.065
 5546SOL    HW217181   4.431   1.564   4.963
 5547SOL     OW17182   5.076   0.052   3.892
 5547SOL    HW117183   5.111   0.011   3.808
 5547SOL    HW217184   4.986   0.014   3.912
 5548SOL     OW17185   5.024   0.453   4.415
 5548SOL    HW117186   4.965   0.533   4.419
 5548SOL    HW217187   5.039   0.418   4.508
 5549SOL     OW17188   5.317   0.221   4.606
 5549SOL    HW117189   5.233   0.220   4.660
 5549SOL    HW217190   5.319   0.304   4.550
 5550SOL     OW17191   3.763   1.077   4.024
 5550SOL    HW117192   3.862   1.066   4.015
 5550SOL    HW217193   3.723   0.991   4.056
 5551SOL     OW17194   4.599   1.646   4.061
 5551SOL    HW117195   4.522   1.611   4.007
 5551SOL    HW217196   4.567   1.717   4.123
 5552SOL     OW17197   3.954   0.628   5.699
 5552SOL    HW117198   3.861   0.626   5.736
 5552SOL    HW217199   3.955   0.589   5.607
 5553SOL     OW17200   3.949   0.275   6.582
 5553SOL    HW117201   3.984   0.258   6.674
 5553SOL    HW217202   3.861   0.230   6.570
 5554SOL     OW17203   3.743   0.368   6.233
 5554SOL    HW117204   3.661   0.411   6.272
 5554SOL    HW217205   3.715   0.295   6.170
 5555SOL     OW17206   4.293   1.275   6.751
 5555SOL    HW117207   4.200   1.268   6.714
 5555SOL    HW217208   4.304   1.364   6.795
 5556SOL     OW17209   5.279   1.511   6.289
 5556SOL    HW117210   5.222   1.495   6.370
 5556SOL    HW217211   5.220   1.521   6.209
 5557SOL     OW17212   4.859   0.703   6.303
 5557SOL    HW117213   4.916   0.781   6.278
 5557SOL    HW217214   4.799   0.729   6.379
 5558SOL     OW17215   4.492   1.144   6.609
 5558SOL    HW117216   4.414   1.161   6.669
 5558SOL    HW217217   4.526   1.231   6.573
 5559SOL     OW17218   4.574   0.798   7.409
 5559SOL    HW117219   4.570   0.874   7.474
 5559SOL    HW217220   4.596   0.834   7.318
 5560SOL     OW17221   4.409   1.012   6.251
 5560SOL    HW117222   4.478   0.996   6.321
 5560SOL    HW217223   4.336   1.069   6.289
 5561SOL     OW17224   4.410   1.161   7.389
 5561SOL    HW117225   4.470   1.240   7.403
 5561SOL    HW217226   4.324   1.192   7.348
 5562SOL     OW17227   4.059   1.435   6.647
 5562SOL    HW117228   3.981   1.404   6.594
 5562SOL    HW217229   4.117   1.493   6.590
 5563SOL     OW17230   5.184   1.505   6.925
 5563SOL    HW117231   5.208   1.599   6.951
 5563SOL    HW217232   5.168   1.451   7.007
 5564SOL     OW17233   4.162   0.392   7.085
 5564SOL    HW117234   4.244   0.336   7.094
 5564SOL    HW217235   4.081   0.334   7.089
 5565SOL     OW17236   3.955   1.713   6.069
 5565SOL    HW117237   3.989   1.790   6.123
 5565SOL    HW217238   3.999   1.713   5.979
 5566SOL     OW17239   4.851   1.341   7.276
 5566SOL    HW117240   4.898   1.341   7.364
 5566SOL    HW217241   4.803   1.254   7.265
 5567SOL     OW17242   3.954   1.434   6.124
 5567SOL    HW117243   3.928   1.530   6.124
 5567SOL    HW217244   3.883   1.380   6.169
 5568SOL     OW17245   3.964   1.091   6.472
 5568SOL    HW117246   3.978   1.007   6.524
 5568SOL    HW217247   3.909   1.155   6.527
 5569SOL     OW17248   4.344   1.786   7.025
 5569SOL    HW117249   4.252   1.769   7.060
 5569SOL    HW217250   4.372   1.878   7.051
 5570SOL     OW17251   4.330   0.964   5.709
 5570SOL    HW117252   4.337   1.048   5.655
 5570SOL    HW217253   4.376   0.977   5.797
 5571SOL     OW17254   5.318   0.114   7.066
 5571SOL    HW117255   5.300   0.181   6.994
 5571SOL    HW217256   5.315   0.160   7.155
 5572SOL     OW17257   3.846   0.643   6.149
 5572SOL    HW117258   3.801   0.555   6.166
 5572SOL    HW217259   3.845   0.697   6.233
 5573SOL     OW17260   3.751   1.596   5.703
 5573SOL    HW117261   3.732   1.500   5.724
 5573SOL    HW217262   3.718   1.654   5.778
 5574SOL     OW17263   5.413   0.922   6.198
 5574SOL    HW117264   5.508   0.893   6.206
 5574SOL    HW217265   5.405   0.987   6.123
 5575SOL     OW17266   3.837   0.737   7.183
 5575SOL    HW117267   3.925   0.724   7.228
 5575SOL    HW217268   3.824   0.834   7.161
 5576SOL     OW17269   4.337   1.365   6.312
 5576SOL    HW117270   4.288   1.278   6.321
 5576SOL    HW217271   4.314   1.408   6.225
 5577SOL     OW17272   5.017   1.228   7.009
 5577SOL    HW117273   5.054   1.155   6.951
 5577SOL    HW217274   5.069   1.233   7.094
 5578SOL     OW17275   4.533   0.004   6.088
 5578SOL    HW117276   4.573   0.095   6.079
 5578SOL    HW217277   4.433   0.012   6.094
 5579SOL     OW17278   3.921   0.976   6.850
 5579SOL    HW117279   4.010   0.931   6.836
 5579SOL    HW217280   3.848   0.911   6.831
 5580SOL     OW17281   4.911   1.792   7.202
 5580SOL    HW117282   4.935   1.852   7.126
 5580SOL    HW217283   4.918   1.697   7.172
 5581SOL     OW17284   4.041   0.251   7.387
 5581SOL    HW117285   4.112   0.322   7.393
 5581SOL    HW217286   3.953   0.290   7.415
 5582SOL     OW17287   5.190   1.417   6.539
 5582SOL    HW117288   5.131   1.423   6.619
 5582SOL    HW217289   5.175   1.329   6.493
 5583SOL     OW17290   4.322   0.729   5.856
 5583SOL    HW117291   4.346   0.798   5.788
 5583SOL    HW217292   4.244   0.762   5.910
 5584SOL     OW17293   5.005   0.345   6.530
 5584SOL    HW117294   4.919   0.295   6.517
 5584SOL    HW217295   5.067   0.291   6.586
 5585SOL     OW17296   4.531   0.605   7.051
 5585SOL    HW117297   4.484   0.602   7.140
 5585SOL    HW217298   4.480   0.550   6.985
 5586SOL     OW17299   5.118   0.469   7.260
 5586SOL    HW117300   5.098   0.512   7.348
 5586SOL    HW217301   5.196   0.407   7.269
 5587SOL     OW17302   4.697   0.890   7.158
 5587SOL    HW117303   4.743   0.806   7.129
 5587SOL    HW217304   4.641   0.924   7.083
 5588SOL     OW17305   4.715   0.410   6.828
 5588SOL    HW117306   4.638   0.444   6.882
 5588SOL    HW217307   4.681   0.359   6.749
 5589SOL     OW17308   4.765   0.701   6.015
 5589SOL    HW117309   4.791   0.697   6.111
 5589SOL    HW217310   4.680   0.650   6.001
 5590SOL     OW17311   3.800   0.811   6.375
 5590SOL    HW117312   3.899   0.799   6.384
 5590SOL    HW217313   3.776   0.906   6.396
 5591SOL     OW17314   3.854   1.821   7.157
 5591SOL    HW117315   3.844   1.806   7.256
 5591SOL    HW217316   3.768   1.857   7.121
 5592SOL     OW17317   4.589   0.348   5.781
 5592SOL    HW117318   4.648   0.411   5.732
 5592SOL    HW217319   4.608   0.254   5.752
 5593SOL     OW17320   5.086   1.144   6.131
 5593SOL    HW117321   5.169   1.115   6.083
 5593SOL    HW217322   5.037   1.211   6.075
 5594SOL     OW17323   4.274   0.196   6.471
 5594SOL    HW117324   4.269   0.191   6.571
 5594SOL    HW217325   4.276   0.292   6.442
 5595SOL     OW17326   4.732   1.456   6.063
 5595SOL    HW117327   4.686   1.528   6.011
 5595SOL    HW217328   4.728   1.476   6.161
 5596SOL     OW17329   4.075   1.801   6.439
 5596SOL    HW117330   4.125   1.715   6.445
 5596SOL    HW217331   4.140   1.878   6.436
 5597SOL     OW17332   4.951   1.550   7.092
 5597SOL    HW117333   4.957   1.473   7.156
 5597SOL    HW217334   4.899   1.524   7.012
 5598SOL     OW17335   4.045   0.943   5.828
 5598SOL    HW117336   4.127   0.982   5.786
 5598SOL    HW217337   4.018   0.861   5.779
 5599SOL     OW17338   4.185   1.266   7.313
 5599SOL    HW117339   4.135   1.267   7.227
 5599SOL    HW217340   4.122   1.248   7.389
 5600SOL     OW17341   4.835   1.776   5.823
 5600SOL    HW117342   4.775   1.714   5.873
 5600SOL    HW217343   4.866   1.732   5.738
 5601SOL     OW17344   3.926   0.285   7.084
 5601SOL    HW117345   3.846   0.345   7.071
 5601SOL    HW217346   3.916   0.236   7.170
 5602SOL     OW17347   4.188   1.743   5.909
 5602SOL    HW117348   4.221   1.782   5.995
 5602SOL    HW217349   4.264   1.736   5.844
 5603SOL     OW17350   5.124   0.107   6.012
 5603SOL    HW117351   5.100   0.070   5.922
 5603SOL    HW217352   5.223   0.123   6.016
 5604SOL     OW17353   3.973   1.785   6.827
 5604SOL    HW117354   4.030   1.720   6.877
 5604SOL    HW217355   3.957   1.752   6.734
 5605SOL     OW17356   4.664   1.698   6.490
 5605SOL    HW117357   4.744   1.641   6.511
 5605SOL    HW217358   4.615   1.658   6.413
 5606SOL     OW17359   4.106   0.700   6.066
 5606SOL    HW117360   4.151   0.610   6.063
 5606SOL    HW217361   4.012   0.689   6.099
 5607SOL     OW17362   4.338   0.122   5.703
 5607SOL    HW117363   4.436   0.100   5.710
 5607SOL    HW217364   4.307   0.105   5.610
 5608SOL     OW17365   4.505   0.264   7.335
 5608SOL    HW117366   4.572   0.203   7.378
 5608SOL    HW217367   4.432   0.283   7.400
 5609SOL     OW17368   4.612   1.514   6.781
 5609SOL    HW117369   4.589   1.489   6.687
 5609SOL    HW217370   4.673   1.445   6.820
 5610SOL     OW17371   5.075   0.590   7.019
 5610SOL    HW117372   5.103   0.547   7.104
 5610SOL    HW217373   5.100   0.686   7.020
 5611SOL     OW17374   4.527   1.402   6.510
 5611SOL    HW117375   4.617   1.416   6.468
 5611SOL    HW217376   4.456   1.404   6.439
 5612SOL     OW17377   4.646   0.503   6.485
 5612SOL    HW117378   4.621   0.494   6.389
 5612SOL    HW217379   4.694   0.421   6.516
 5613SOL     OW17380   4.263   0.064   6.098
 5613SOL    HW117381   4.182   0.065   6.156
 5613SOL    HW217382   4.266   0.147   6.043
 5614SOL     OW17383   5.158   1.188   5.627
 5614SOL    HW117384   5.190   1.112   5.684
 5614SOL    HW217385   5.066   1.215   5.657
 5615SOL     OW17386   4.021   0.035   5.757
 5615SOL    HW117387   4.070   0.119   5.736
 5615SOL    HW217388   4.083  -0.030   5.802
 5616SOL     OW17389   4.659   0.236   6.066
 5616SOL    HW117390   4.611   0.277   5.988
 5616SOL    HW217391   4.758   0.234   6.047
 5617SOL     OW17392   4.800   0.683   7.050
 5617SOL    HW117393   4.720   0.622   7.053
 5617SOL    HW217394   4.881   0.630   7.026
 5618SOL     OW17395   4.951   1.570   6.379
 5618SOL    HW117396   4.972   1.644   6.314
 5618SOL    HW217397   5.019   1.570   6.452
 5619SOL     OW17398   4.183   1.152   6.327
 5619SOL    HW117399   4.112   1.125   6.392
 5619SOL    HW217400   4.157   1.124   6.234
 5620SOL     OW17401   4.995   1.797   6.177
 5620SOL    HW117402   5.039   1.861   6.113
 5620SOL    HW217403   4.945   1.849   6.247
 5621SOL     OW17404   4.756   0.549   5.602
 5621SOL    HW117405   4.715   0.631   5.563
 5621SOL    HW217406   4.820   0.575   5.675
 5622SOL     OW17407   3.802   0.556   6.972
 5622SOL    HW117408   3.894   0.555   6.931
 5622SOL    HW217409   3.796   0.630   7.039
 5623SOL     OW17410   4.285   0.222   6.733
 5623SOL    HW117411   4.323   0.138   6.770
 5623SOL    HW217412   4.197   0.241   6.777
 5624SOL     OW17413   4.590   0.454   6.228
 5624SOL    HW117414   4.558   0.526   6.166
 5624SOL    HW217415   4.614   0.373   6.175
 5625SOL     OW17416   4.741   0.039   6.339
 5625SOL    HW117417   4.669   0.044   6.270
 5625SOL    HW217418   4.717  -0.030   6.408
 5626SOL     OW17419   5.153   1.173   6.453
 5626SOL    HW117420   5.098   1.089   6.446
 5626SOL    HW217421   5.179   1.202   6.361
 5627SOL     OW17422   4.212   1.385   5.760
 5627SOL    HW117423   4.125   1.370   5.807
 5627SOL    HW217424   4.195   1.411   5.665
 5628SOL     OW17425   5.114   0.575   5.664
 5628SOL    HW117426   5.060   0.554   5.745
 5628SOL    HW217427   5.205   0.534   5.673
 5629SOL     OW17428   4.251   0.256   5.914
 5629SOL    HW117429   4.278   0.197   5.839
 5629SOL    HW217430   4.251   0.351   5.883
 5630SOL     OW17431   4.788   1.347   6.926
 5630SOL    HW117432   4.708   1.324   6.981
 5630SOL    HW217433   4.871   1.321   6.975
 5631SOL     OW17434   5.316   1.629   7.211
 5631SOL    HW117435   5.343   1.663   7.121
 5631SOL    HW217436   5.395   1.591   7.257
 5632SOL     OW17437   4.835   1.195   6.686
 5632SOL    HW117438   4.795   1.239   6.767
 5632SOL    HW217439   4.794   1.232   6.603
 5633SOL     OW17440   4.639   0.089   6.988
 5633SOL    HW117441   4.664   0.069   6.893
 5633SOL    HW217442   4.711   0.145   7.030
 5634SOL     OW17443   4.704   1.116   7.305
 5634SOL    HW117444   4.605   1.122   7.315
 5634SOL    HW217445   4.727   1.036   7.249
 5635SOL     OW17446   4.429   1.050   5.954
 5635SOL    HW117447   4.415   1.057   6.053
 5635SOL    HW217448   4.513   0.999   5.936
 5636SOL     OW17449   4.134   0.813   6.837
 5636SOL    HW117450   4.220   0.825   6.887
 5636SOL    HW217451   4.092   0.726   6.864
 5637SOL     OW17452   4.998   0.386   6.848
 5637SOL    HW117453   5.019   0.460   6.912
 5637SOL    HW217454   4.909   0.403   6.805
 5638SOL     OW17455   3.788   1.564   6.917
 5638SOL    HW117456   3.742   1.646   6.883
 5638SOL    HW217457   3.886   1.583   6.926
 5639SOL     OW17458   4.091   1.100   6.087
 5639SOL    HW117459   4.084   1.183   6.031
 5639SOL    HW217460   4.095   1.020   6.027
 5640SOL     OW17461   4.290   0.537   6.451
 5640SOL    HW117462   4.302   0.603   6.377
 5640SOL    HW217463   4.336   0.571   6.534
 5641SOL     OW17464   4.976   1.348   5.974
 5641SOL    HW117465   5.026   1.425   6.014
 5641SOL    HW217466   4.881   1.350   6.006
 5642SOL     OW17467   4.996   1.445   6.728
 5642SOL    HW117468   5.043   1.458   6.815
 5642SOL    HW217469   4.930   1.371   6.737
 5643SOL     OW17470   4.078   1.510   6.915
 5643SOL    HW117471   4.057   1.466   6.828
 5643SOL    HW217472   4.175   1.536   6.918
 5644SOL     OW17473   4.126   0.751   7.184
 5644SOL    HW117474   4.194   0.806   7.137
 5644SOL    HW217475   4.166   0.663   7.211
 5645SOL     OW17476   4.737   0.105   7.356
 5645SOL    HW117477   4.743   0.190   7.304
 5645SOL    HW217478   4.769   0.029   7.299
 5646SOL     OW17479   4.228   0.050   7.326
 5646SOL    HW117480   4.186  -0.007   7.256
 5646SOL    HW217481   4.162   0.119   7.358
 5647SOL     OW17482   4.297   0.870   6.615
 5647SOL    HW117483   4.341   0.959   6.606
 5647SOL    HW217484   4.234   0.870   6.692
 5648SOL     OW17485   5.084   0.862   6.631
 5648SOL    HW117486   5.009   0.862   6.565
 5648SOL    HW217487   5.121   0.770   6.640
 5649SOL     OW17488   4.933   0.525   5.861
 5649SOL    HW117489   4.946   0.441   5.915
 5649SOL    HW217490   4.904   0.599   5.921
 5650SOL     OW17491   4.031   0.213   6.817
 5650SOL    HW117492   4.008   0.250   6.907
 5650SOL    HW217493   4.001   0.118   6.811
 5651SOL     OW17494   3.761   1.310   6.868
 5651SOL    HW117495   3.814   1.261   6.936
 5651SOL    HW217496   3.783   1.408   6.873
 5652SOL     OW17497   4.456   0.634   6.650
 5652SOL    HW117498   4.515   0.608   6.574
 5652SOL    HW217499   4.428   0.730   6.639
 5653SOL     OW17500   4.031   0.063   6.204
 5653SOL    HW117501   4.020   0.157   6.237
 5653SOL    HW217502   4.026   0.000   6.281
 5654SOL     OW17503   5.346   0.367   5.960
 5654SOL    HW117504   5.348   0.291   6.024
 5654SOL    HW217505   5.298   0.444   6.000
 5655SOL     OW17506   4.747   0.766   6.552
 5655SOL    HW117507   4.762   0.787   6.648
 5655SOL    HW217508   4.717   0.671   6.543
 5656SOL     OW17509   4.704   1.573   7.286
 5656SOL    HW117510   4.684   1.617   7.198
 5656SOL    HW217511   4.743   1.482   7.270
 5657SOL     OW17512   4.074   0.898   7.390
 5657SOL    HW117513   4.150   0.942   7.438
 5657SOL    HW217514   4.109   0.851   7.308
 5658SOL     OW17515   5.027   0.838   5.628
 5658SOL    HW117516   5.061   0.745   5.643
 5658SOL    HW217517   5.045   0.865   5.533
 5659SOL     OW17518   4.792   1.333   6.435
 5659SOL    HW117519   4.799   1.249   6.380
 5659SOL    HW217520   4.854   1.402   6.399
 5660SOL     OW17521   4.043   0.810   6.535
 5660SOL    HW117522   4.136   0.846   6.540
 5660SOL    HW217523   4.037   0.725   6.587
 5661SOL     OW17524   4.063   0.509   6.592
 5661SOL    HW117525   4.011   0.426   6.575
 5661SOL    HW217526   4.140   0.514   6.528
 5662SOL     OW17527   4.862   0.380   7.264
 5662SOL    HW117528   4.817   0.443   7.328
 5662SOL    HW217529   4.955   0.411   7.247
 5663SOL     OW17530   4.884   0.207   7.063
 5663SOL    HW117531   4.884   0.271   7.140
 5663SOL    HW217532   4.912   0.255   6.980
 5664SOL     OW17533   3.732   1.326   5.786
 5664SOL    HW117534   3.639   1.347   5.755
 5664SOL    HW217535   3.742   1.227   5.799
 5665SOL     OW17536   3.812   1.801   6.513
 5665SOL    HW117537   3.770   1.715   6.486
 5665SOL    HW217538   3.906   1.804   6.479
 5666SOL     OW17539   4.228   1.568   6.496
 5666SOL    HW117540   4.294   1.642   6.505
 5666SOL    HW217541   4.272   1.489   6.454
 5667SOL     OW17542   4.726   0.796   6.824
 5667SOL    HW117543   4.767   0.764   6.910
 5667SOL    HW217544   4.630   0.769   6.821
 5668SOL     OW17545   3.764   0.544   6.700
 5668SOL    HW117546   3.849   0.511   6.659
 5668SOL    HW217547   3.777   0.559   6.798
 5669SOL     OW17548   3.913   0.520   7.308
 5669SOL    HW117549   3.972   0.480   7.238
 5669SOL    HW217550   3.855   0.591   7.267
 5670SOL     OW17551   5.093   0.950   7.246
 5670SOL    HW117552   5.132   1.039   7.266
 5670SOL    HW217553   5.103   0.930   7.149
 5671SOL     OW17554   4.539   0.572   5.911
 5671SOL    HW117555   4.546   0.483   5.865
 5671SOL    HW217556   4.445   0.606   5.903
 5672SOL     OW17557   3.976   1.564   7.330
 5672SOL    HW117558   3.946   1.621   7.406
 5672SOL    HW217559   3.969   1.467   7.356
 5673SOL     OW17560   4.395   0.464   6.855
 5673SOL    HW117561   4.361   0.375   6.825
 5673SOL    HW217562   4.421   0.518   6.775
 5674SOL     OW17563   4.654   1.678   7.051
 5674SOL    HW117564   4.630   1.660   6.956
 5674SOL    HW217565   4.684   1.772   7.061
 5675SOL     OW17566   4.197   0.500   5.777
 5675SOL    HW117567   4.258   0.580   5.781
 5675SOL    HW217568   4.102   0.531   5.784
 5676SOL     OW17569   3.883   1.137   7.052
 5676SOL    HW117570   3.905   1.076   7.128
 5676SOL    HW217571   3.893   1.088   6.966
 5677SOL     OW17572   5.071   1.059   6.820
 5677SOL    HW117573   5.095   0.996   6.746
 5677SOL    HW217574   4.981   1.099   6.802
 5678SOL     OW17575   5.026   0.855   5.895
 5678SOL    HW117576   4.940   0.824   5.937
 5678SOL    HW217577   5.022   0.841   5.796
 5679SOL     OW17578   4.976   1.731   6.714
 5679SOL    HW117579   5.060   1.736   6.660
 5679SOL    HW217580   4.953   1.635   6.732
 5680SOL     OW17581   3.807   1.258   6.608
 5680SOL    HW117582   3.802   1.257   6.708
 5680SOL    HW217583   3.724   1.217   6.570
 5681SOL     OW17584   4.412   1.662   7.302
 5681SOL    HW117585   4.356   1.743   7.311
 5681SOL    HW217586   4.464   1.666   7.216
 5682SOL     OW17587   5.112   1.573   6.063
 5682SOL    HW117588   5.179   1.585   5.989
 5682SOL    HW217589   5.072   1.662   6.086
 5683SOL     OW17590   3.854   1.794   7.437
 5683SOL    HW117591   3.813   1.720   7.490
 5683SOL    HW217592   3.918   1.845   7.495
 5684SOL     OW17593   5.004   0.927   6.258
 5684SOL    HW117594   5.064   0.846   6.260
 5684SOL    HW217595   5.044   0.996   6.198
 5685SOL     OW17596   4.554   1.273   7.008
 5685SOL    HW117597   4.549   1.306   7.103
 5685SOL    HW217598   4.468   1.292   6.962
 5686SOL     OW17599   4.396   1.616   5.740
 5686SOL    HW117600   4.405   1.626   5.641
 5686SOL    HW217601   4.356   1.527   5.761
 5687SOL     OW17602   3.987   0.326   6.306
 5687SOL    HW117603   3.908   0.377   6.272
 5687SOL    HW217604   3.978   0.311   6.404
 5688SOL     OW17605   4.918   1.612   5.617
 5688SOL    HW117606   4.924   1.519   5.654
 5688SOL    HW217607   4.859   1.612   5.537
 5689SOL     OW17608   4.546   1.002   6.958
 5689SOL    HW117609   4.586   1.001   6.866
 5689SOL    HW217610   4.556   1.094   6.998
 5690SOL     OW17611   4.640   0.910   5.877
 5690SOL    HW117612   4.703   0.948   5.809
 5690SOL    HW217613   4.680   0.827   5.916
 5691SOL     OW17614   4.096   1.288   7.076
 5691SOL    HW117615   4.083   1.381   7.042
 5691SOL    HW217616   4.012   1.236   7.063
 5692SOL     OW17617   4.763   1.098   6.282
 5692SOL    HW117618   4.693   1.051   6.336
 5692SOL    HW217619   4.822   1.030   6.239
 5693SOL     OW17620   4.738   0.236   6.557
 5693SOL    HW117621   4.730   0.200   6.464
 5693SOL    HW217622   4.736   0.160   6.622
 5694SOL     OW17623   4.314   1.487   6.077
 5694SOL    HW117624   4.356   1.429   6.007
 5694SOL    HW217625   4.270   1.566   6.033
 5695SOL     OW17626   3.979   1.348   5.876
 5695SOL    HW117627   3.883   1.349   5.849
 5695SOL    HW217628   3.991   1.401   5.960
 5696SOL     OW17629   3.829   1.013   7.312
 5696SOL    HW117630   3.752   0.980   7.366
 5696SOL    HW217631   3.914   0.983   7.354
 5697SOL     OW17632   4.396   0.203   7.075
 5697SOL    HW117633   4.486   0.187   7.035
 5697SOL    HW217634   4.404   0.208   7.174
 5698SOL     OW17635   3.799   0.345   5.619
 5698SOL    HW117636   3.707   0.317   5.590
 5698SOL    HW217637   3.830   0.422   5.563
 5699SOL     OW17638   5.164   0.856   6.984
 5699SOL    HW117639   5.107   0.908   6.921
 5699SOL    HW217640   5.260   0.868   6.960
 5700SOL     OW17641   3.796   0.166   5.904
 5700SOL    HW117642   3.779   0.249   5.850
 5700SOL    HW217643   3.886   0.129   5.882
 5701SOL     OW17644   4.907   1.335   5.705
 5701SOL    HW117645   4.808   1.324   5.707
 5701SOL    HW217646   4.941   1.350   5.798
 5702SOL     OW17647   4.337   0.842   7.017
 5702SOL    HW117648   4.393   0.923   7.000
 5702SOL    HW217649   4.396   0.762   7.020
 5703SOL     OW17650   4.440   0.565   7.294
 5703SOL    HW117651   4.459   0.630   7.368
 5703SOL    HW217652   4.500   0.485   7.303
 5704SOL     OW17653   5.174   1.220   7.219
 5704SOL    HW117654   5.165   1.210   7.318
 5704SOL    HW217655   5.270   1.213   7.193
 5705SOL     OW17656   4.114   1.741   7.146
 5705SOL    HW117657   4.023   1.782   7.144
 5705SOL    HW217658   4.107   1.647   7.178
 5706SOL     OW17659   4.949   0.325   6.035
 5706SOL    HW117660   5.014   0.251   6.024
 5706SOL    HW217661   4.969   0.375   6.119
 5707SOL     OW17662   4.318   0.745   6.238
 5707SOL    HW117663   4.368   0.830   6.219
 5707SOL    HW217664   4.230   0.747   6.190
 5708SOL     OW17665   4.583   1.374   5.602
 5708SOL    HW117666   4.537   1.389   5.690
 5708SOL    HW217667   4.627   1.459   5.572
 5709SOL     OW17668   4.385   1.790   6.539
 5709SOL    HW117669   4.339   1.878   6.526
 5709SOL    HW217670   4.484   1.802   6.532
 5710SOL     OW17671   4.583   0.956   6.447
 5710SOL    HW117672   4.637   0.887   6.495
 5710SOL    HW217673   4.551   1.025   6.513
 5711SOL     OW17674   4.807   0.984   5.673
 5711SOL    HW117675   4.784   1.037   5.591
 5711SOL    HW217676   4.888   0.928   5.654
 5712SOL     OW17677   3.945   1.314   7.430
 5712SOL    HW117678   3.880   1.241   7.409
 5712SOL    HW217679   3.949   1.328   7.528
 5713SOL     OW17680   3.803   1.240   6.239
 5713SOL    HW117681   3.802   1.193   6.327
 5713SOL    HW217682   3.885   1.212   6.188
 5714SOL     OW17683   4.396   1.391   7.210
 5714SOL    HW117684   4.318   1.341   7.248
 5714SOL    HW217685   4.393   1.486   7.241
 5715SOL     OW17686   4.152   0.424   6.106
 5715SOL    HW117687   4.182   0.352   6.044
 5715SOL    HW217688   4.113   0.384   6.189
 5716SOL     OW17689   5.429   1.487   6.690
 5716SOL    HW117690   5.336   1.462   6.663
 5716SOL    HW217691   5.455   1.437   6.772
 5717SOL     OW17692   4.041   0.547   6.866
 5717SOL    HW117693   4.079   0.488   6.938
 5717SOL    HW217694   4.081   0.521   6.778
 5718SOL     OW17695   4.536   1.586   6.273
 5718SOL    HW117696   4.568   1.596   6.179
 5718SOL    HW217697   4.457   1.524   6.275
 5719SOL     OW17698   5.148   0.214   6.698
 5719SOL    HW117699   5.200   0.149   6.753
 5719SOL    HW217700   5.099   0.277   6.759
 5720SOL     OW17701   4.725   0.034   6.740
 5720SOL    HW117702   4.662  -0.038   6.709
 5720SOL    HW217703   4.818  -0.002   6.740
 5721SOL     OW17704   4.494   1.330   5.887
 5721SOL    HW117705   4.448   1.243   5.904
 5721SOL    HW217706   4.585   1.327   5.928
 5722SOL     OW17707   4.342   1.567   6.870
 5722SOL    HW117708   4.337   1.649   6.927
 5722SOL    HW217709   4.431   1.564   6.825
 5723SOL     OW17710   5.076   0.052   5.754
 5723SOL    HW117711   5.111   0.011   5.670
 5723SOL    HW217712   4.986   0.014   5.774
 5724SOL     OW17713   5.024   0.453   6.277
 5724SOL    HW117714   4.965   0.533   6.281
 5724SOL    HW217715   5.039   0.418   6.370
 5725SOL     OW17716   5.317   0.221   6.468
 5725SOL    HW117717   5.233   0.220   6.522
 5725SOL    HW217718   5.319   0.304   6.412
 5726SOL     OW17719   3.763   1.077   5.886
 5726SOL    HW117720   3.862   1.066   5.877
 5726SOL    HW217721   3.723   0.991   5.918
 5727SOL     OW17722   4.599   1.646   5.923
 5727SOL    HW117723   4.522   1.611   5.869
 5727SOL    HW217724   4.567   1.717   5.985
 5728SOL     OW17725   3.954   0.628   7.561
 5728SOL    HW117726   3.861   0.626   7.598
 5728SOL    HW217727   3.955   0.589   7.469
 5729SOL     OW17728   3.955   1.713   7.931
 5729SOL    HW117729   3.989   1.790   7.985
 5729SOL    HW217730   3.999   1.713   7.841
 5730SOL     OW17731   3.954   1.434   7.986
 5730SOL    HW117732   3.928   1.530   7.986
 5730SOL    HW217733   3.883   1.380   8.031
 5731SOL     OW17734   4.330   0.964   7.571
 5731SOL    HW117735   4.337   1.048   7.517
 5731SOL    HW217736   4.376   0.977   7.659
 5732SOL     OW17737   3.751   1.596   7.565
 5732SOL    HW117738   3.732   1.500   7.586
 5732SOL    HW217739   3.718   1.654   7.640
 5733SOL     OW17740   5.413   0.922   8.060
 5733SOL    HW117741   5.508   0.893   8.068
 5733SOL    HW217742   5.405   0.987   7.985
 5734SOL     OW17743   4.533   0.004   7.950
 5734SOL    HW117744   4.573   0.095   7.941
 5734SOL    HW217745   4.433   0.012   7.956
 5735SOL     OW17746   4.322   0.729   7.718
 5735SOL    HW117747   4.346   0.798   7.650
 5735SOL    HW217748   4.244   0.762   7.772
 5736SOL     OW17749   3.800   0.811   8.237
 5736SOL    HW117750   3.899   0.799   8.246
 5736SOL    HW217751   3.776   0.906   8.258
 5737SOL     OW17752   4.589   0.348   7.643
 5737SOL    HW117753   4.648   0.411   7.594
 5737SOL    HW217754   4.608   0.254   7.614
 5738SOL     OW17755   4.045   0.943   7.690
 5738SOL    HW117756   4.127   0.982   7.648
 5738SOL    HW217757   4.018   0.861   7.641
 5739SOL     OW17758   4.835   1.776   7.685
 5739SOL    HW117759   4.775   1.714   7.735
 5739SOL    HW217760   4.866   1.732   7.600
 5740SOL     OW17761   4.188   1.743   7.771
 5740SOL    HW117762   4.221   1.782   7.857
 5740SOL    HW217763   4.264   1.736   7.706
 5741SOL     OW17764   5.124   0.107   7.874
 5741SOL    HW117765   5.100   0.070   7.784
 5741SOL    HW217766   5.223   0.123   7.878
 5742SOL     OW17767   4.106   0.700   7.928
 5742SOL    HW117768   4.151   0.610   7.925
 5742SOL    HW217769   4.012   0.689   7.961
 5743SOL     OW17770   4.338   0.122   7.565
 5743SOL    HW117771   4.436   0.100   7.572
 5743SOL    HW217772   4.307   0.105   7.472
 5744SOL     OW17773   4.263   0.064   7.960
 5744SOL    HW117774   4.182   0.065   8.018
 5744SOL    HW217775   4.266   0.147   7.905
 5745SOL     OW17776   5.158   1.188   7.489
 5745SOL    HW117777   5.190   1.112   7.546
 5745SOL    HW217778   5.066   1.215   7.519
 5746SOL     OW17779   4.021   0.035   7.619
 5746SOL    HW117780   4.070   0.119   7.598
 5746SOL    HW217781   4.083  -0.030   7.664
 5747SOL     OW17782   4.659   0.236   7.928
 5747SOL    HW117783   4.611   0.277   7.850
 5747SOL    HW217784   4.758   0.234   7.909
 5748SOL     OW17785   4.183   1.152   8.189
 5748SOL    HW117786   4.112   1.125   8.254
 5748SOL    HW217787   4.157   1.124   8.096
 5749SOL     OW17788   4.995   1.797   8.039
 5749SOL    HW117789   5.039   1.861   7.975
 5749SOL    HW217790   4.945   1.849   8.109
 5750SOL     OW17791   4.756   0.549   7.464
 5750SOL    HW117792   4.715   0.631   7.425
 5750SOL    HW217793   4.820   0.575   7.537
 5751SOL     OW17794   4.212   1.385   7.622
 5751SOL    HW117795   4.125   1.370   7.669
 5751SOL    HW217796   4.195   1.411   7.527
 5752SOL     OW17797   5.114   0.575   7.526
 5752SOL    HW117798   5.060   0.554   7.607
 5752SOL    HW217799   5.205   0.534   7.535
 5753SOL     OW17800   4.251   0.256   7.776
 5753SOL    HW117801   4.278   0.197   7.701
 5753SOL    HW217802   4.251   0.351   7.745
 5754SOL     OW17803   4.429   1.050   7.816
 5754SOL    HW117804   4.415   1.057   7.915
 5754SOL    HW217805   4.513   0.999   7.798
 5755SOL     OW17806   4.091   1.100   7.949
 5755SOL    HW117807   4.084   1.183   7.893
 5755SOL    HW217808   4.095   1.020   7.889
 5756SOL     OW17809   4.976   1.348   7.836
 5756SOL    HW117810   5.026   1.425   7.876
 5756SOL    HW217811   4.881   1.350   7.868
 5757SOL     OW17812   5.306   0.639   7.920
 5757SOL    HW117813   5.275   0.700   7.993
 5757SOL    HW217814   5.356   0.691   7.851
 5758SOL     OW17815   4.933   0.525   7.723
 5758SOL    HW117816   4.946   0.441   7.777
 5758SOL    HW217817   4.904   0.599   7.783
 5759SOL     OW17818   5.346   0.367   7.822
 5759SOL    HW117819   5.348   0.291   7.886
 5759SOL    HW217820   5.298   0.444   7.862
 5760SOL     OW17821   5.027   0.838   7.490
 5760SOL    HW117822   5.061   0.745   7.505
 5760SOL    HW217823   5.045   0.865   7.395
 5761SOL     OW17824   3.732   1.326   7.648
 5761SOL    HW117825   3.639   1.347   7.617
 5761SOL    HW217826   3.742   1.227   7.661
 5762SOL     OW17827   4.539   0.572   7.773
 5762SOL    HW117828   4.546   0.483   7.727
 5762SOL    HW217829   4.445   0.606   7.765
 5763SOL     OW17830   4.197   0.500   7.639
 5763SOL    HW117831   4.258   0.580   7.643
 5763SOL    HW217832   4.102   0.531   7.646
 5764SOL     OW17833   5.026   0.855   7.757
 5764SOL    HW117834   4.940   0.824   7.799
 5764SOL    HW217835   5.022   0.841   7.658
 5765SOL     OW17836   5.112   1.573   7.925
 5765SOL    HW117837   5.179   1.585   7.851
 5765SOL    HW217838   5.072   1.662   7.948
 5766SOL     OW17839   4.396   1.616   7.602
 5766SOL    HW117840   4.405   1.626   7.503
 5766SOL    HW217841   4.356   1.527   7.623
 5767SOL     OW17842   4.918   1.612   7.479
 5767SOL    HW117843   4.924   1.519   7.516
 5767SOL    HW217844   4.859   1.612   7.399
 5768SOL     OW17845   4.640   0.910   7.739
 5768SOL    HW117846   4.703   0.948   7.671
 5768SOL    HW217847   4.680   0.827   7.778
 5769SOL     OW17848   4.314   1.487   7.939
 5769SOL    HW117849   4.356   1.429   7.869
 5769SOL    HW217850   4.270   1.566   7.895
 5770SOL     OW17851   3.979   1.348   7.738
 5770SOL    HW117852   3.883   1.349   7.711
 5770SOL    HW217853   3.991   1.401   7.822
 5771SOL     OW17854   3.799   0.345   7.481
 5771SOL    HW117855   3.707   0.317   7.452
 5771SOL    HW217856   3.830   0.422   7.425
 5772SOL     OW17857   3.796   0.166   7.766
 5772SOL    HW117858   3.779   0.249   7.712
 5772SOL    HW217859   3.886   0.129   7.744
 5773SOL     OW17860   4.907   1.335   7.567
 5773SOL    HW117861   4.808   1.324   7.569
 5773SOL    HW217862   4.941   1.350   7.660
 5774SOL     OW17863   5.217   1.767   8.407
 5774SOL    HW117864   5.250   1.831   8.338
 5774SOL    HW217865   5.283   1.761   8.482
 5775SOL     OW17866   4.949   0.325   7.897
 5775SOL    HW117867   5.014   0.251   7.886
 5775SOL    HW217868   4.969   0.375   7.981
 5776SOL     OW17869   4.318   0.745   8.100
 5776SOL    HW117870   4.368   0.830   8.081
 5776SOL    HW217871   4.230   0.747   8.052
 5777SOL     OW17872   4.583   1.374   7.464
 5777SOL    HW117873   4.537   1.389   7.552
 5777SOL    HW217874   4.627   1.459   7.434
 5778SOL     OW17875   4.807   0.984   7.535
 5778SOL    HW117876   4.784   1.037   7.453
 5778SOL    HW217877   4.888   0.928   7.516
 5779SOL     OW17878   4.152   0.424   7.968
 5779SOL    HW117879   4.182   0.352   7.906
 5779SOL    HW217880   4.113   0.384   8.051
 5780SOL     OW17881   4.494   1.330   7.749
 5780SOL    HW117882   4.448   1.243   7.766
 5780SOL    HW217883   4.585   1.327   7.790
 5781SOL     OW17884   5.076   0.052   7.616
 5781SOL    HW117885   5.111   0.011   7.532
 5781SOL    HW217886   4.986   0.014   7.636
 5782SOL     OW17887   3.763   1.077   7.748
 5782SOL    HW117888   3.862   1.066   7.739
 5782SOL    HW217889   3.723   0.991   7.780
 5783SOL     OW17890   4.599   1.646   7.785
 5783SOL    HW117891   4.522   1.611   7.731
 5783SOL    HW217892   4.567   1.717   7.847
 5784SOL     OW17893   3.954   2.490   0.113
 5784SOL    HW117894   3.861   2.488   0.150
 5784SOL    HW217895   3.955   2.451   0.021
 5785SOL     OW17896   3.949   2.137   0.996
 5785SOL    HW117897   3.984   2.120   1.088
 5785SOL    HW217898   3.861   2.092   0.984
 5786SOL     OW17899   3.743   2.230   0.647
 5786SOL    HW117900   3.661   2.273   0.686
 5786SOL    HW217901   3.715   2.157   0.584
 5787SOL     OW17902   4.293   3.137   1.165
 5787SOL    HW117903   4.200   3.130   1.128
 5787SOL    HW217904   4.304   3.226   1.209
 5788SOL     OW17905   5.279   3.373   0.703
 5788SOL    HW117906   5.222   3.357   0.784
 5788SOL    HW217907   5.220   3.383   0.623
 5789SOL     OW17908   4.859   2.565   0.717
 5789SOL    HW117909   4.916   2.643   0.692
 5789SOL    HW217910   4.799   2.591   0.793
 5790SOL     OW17911   4.492   3.006   1.023
 5790SOL    HW117912   4.414   3.023   1.083
 5790SOL    HW217913   4.526   3.093   0.987
 5791SOL     OW17914   4.574   2.660   1.823
 5791SOL    HW117915   4.570   2.736   1.888
 5791SOL    HW217916   4.596   2.696   1.732
 5792SOL     OW17917   4.409   2.874   0.665
 5792SOL    HW117918   4.478   2.858   0.735
 5792SOL    HW217919   4.336   2.931   0.703
 5793SOL     OW17920   4.410   3.023   1.803
 5793SOL    HW117921   4.470   3.102   1.817
 5793SOL    HW217922   4.324   3.054   1.762
 5794SOL     OW17923   4.059   3.297   1.061
 5794SOL    HW117924   3.981   3.266   1.008
 5794SOL    HW217925   4.117   3.355   1.004
 5795SOL     OW17926   5.184   3.367   1.339
 5795SOL    HW117927   5.208   3.461   1.365
 5795SOL    HW217928   5.168   3.313   1.421
 5796SOL     OW17929   4.162   2.254   1.499
 5796SOL    HW117930   4.244   2.198   1.508
 5796SOL    HW217931   4.081   2.196   1.503
 5797SOL     OW17932   3.955   3.575   0.483
 5797SOL    HW117933   3.989   3.652   0.537
 5797SOL    HW217934   3.999   3.575   0.393
 5798SOL     OW17935   4.851   3.203   1.690
 5798SOL    HW117936   4.898   3.203   1.778
 5798SOL    HW217937   4.803   3.116   1.679
 5799SOL     OW17938   3.954   3.296   0.538
 5799SOL    HW117939   3.928   3.392   0.538
 5799SOL    HW217940   3.883   3.242   0.583
 5800SOL     OW17941   3.964   2.953   0.886
 5800SOL    HW117942   3.978   2.869   0.938
 5800SOL    HW217943   3.909   3.017   0.941
 5801SOL     OW17944   4.344   3.648   1.439
 5801SOL    HW117945   4.252   3.631   1.474
 5801SOL    HW217946   4.372   3.740   1.465
 5802SOL     OW17947   4.330   2.826   0.123
 5802SOL    HW117948   4.337   2.910   0.069
 5802SOL    HW217949   4.376   2.839   0.211
 5803SOL     OW17950   3.846   2.505   0.563
 5803SOL    HW117951   3.801   2.417   0.580
 5803SOL    HW217952   3.845   2.559   0.647
 5804SOL     OW17953   3.751   3.458   0.117
 5804SOL    HW117954   3.732   3.362   0.138
 5804SOL    HW217955   3.718   3.516   0.192
 5805SOL     OW17956   5.413   2.784   0.612
 5805SOL    HW117957   5.508   2.755   0.620
 5805SOL    HW217958   5.405   2.849   0.537
 5806SOL     OW17959   3.837   2.599   1.597
 5806SOL    HW117960   3.925   2.586   1.642
 5806SOL    HW217961   3.824   2.696   1.575
 5807SOL     OW17962   4.337   3.227   0.726
 5807SOL    HW117963   4.288   3.140   0.735
 5807SOL    HW217964   4.314   3.270   0.639
 5808SOL     OW17965   5.017   3.090   1.423
 5808SOL    HW117966   5.054   3.017   1.365
 5808SOL    HW217967   5.069   3.095   1.508
 5809SOL     OW17968   4.533   1.866   0.502
 5809SOL    HW117969   4.573   1.957   0.493
 5809SOL    HW217970   4.433   1.874   0.508
 5810SOL     OW17971   3.921   2.838   1.264
 5810SOL    HW117972   4.010   2.793   1.250
 5810SOL    HW217973   3.848   2.773   1.245
 5811SOL     OW17974   4.911   3.654   1.616
 5811SOL    HW117975   4.935   3.714   1.540
 5811SOL    HW217976   4.918   3.559   1.586
 5812SOL     OW17977   4.041   2.113   1.801
 5812SOL    HW117978   4.112   2.184   1.807
 5812SOL    HW217979   3.953   2.152   1.829
 5813SOL     OW17980   5.190   3.279   0.953
 5813SOL    HW117981   5.131   3.285   1.033
 5813SOL    HW217982   5.175   3.191   0.907
 5814SOL     OW17983   4.322   2.591   0.270
 5814SOL    HW117984   4.346   2.660   0.202
 5814SOL    HW217985   4.244   2.624   0.324
 5815SOL     OW17986   5.005   2.207   0.944
 5815SOL    HW117987   4.919   2.157   0.931
 5815SOL    HW217988   5.067   2.153   1.000
 5816SOL     OW17989   4.531   2.467   1.465
 5816SOL    HW117990   4.484   2.464   1.554
 5816SOL    HW217991   4.480   2.412   1.399
 5817SOL     OW17992   5.118   2.331   1.674
 5817SOL    HW117993   5.098   2.374   1.762
 5817SOL    HW217994   5.196   2.269   1.683
 5818SOL     OW17995   4.697   2.752   1.572
 5818SOL    HW117996   4.743   2.668   1.543
 5818SOL    HW217997   4.641   2.786   1.497
 5819SOL     OW17998   4.715   2.272   1.242
 5819SOL    HW117999   4.638   2.306   1.296
 5819SOL    HW218000   4.681   2.221   1.163
 5820SOL     OW18001   4.765   2.563   0.429
 5820SOL    HW118002   4.791   2.559   0.525
 5820SOL    HW218003   4.680   2.512   0.415
 5821SOL     OW18004   3.800   2.673   0.789
 5821SOL    HW118005   3.899   2.661   0.798
 5821SOL    HW218006   3.776   2.768   0.810
 5822SOL     OW18007   3.854   3.683   1.571
 5822SOL    HW118008   3.844   3.668   1.670
 5822SOL    HW218009   3.768   3.719   1.535
 5823SOL     OW18010   4.589   2.210   0.195
 5823SOL    HW118011   4.648   2.273   0.146
 5823SOL    HW218012   4.608   2.116   0.166
 5824SOL     OW18013   5.086   3.006   0.545
 5824SOL    HW118014   5.169   2.977   0.497
 5824SOL    HW218015   5.037   3.073   0.489
 5825SOL     OW18016   4.274   2.058   0.885
 5825SOL    HW118017   4.269   2.053   0.985
 5825SOL    HW218018   4.276   2.154   0.856
 5826SOL     OW18019   4.732   3.318   0.477
 5826SOL    HW118020   4.686   3.390   0.425
 5826SOL    HW218021   4.728   3.338   0.575
 5827SOL     OW18022   4.075   3.663   0.853
 5827SOL    HW118023   4.125   3.577   0.859
 5827SOL    HW218024   4.140   3.740   0.850
 5828SOL     OW18025   4.951   3.412   1.506
 5828SOL    HW118026   4.957   3.335   1.570
 5828SOL    HW218027   4.899   3.386   1.426
 5829SOL     OW18028   4.045   2.805   0.242
 5829SOL    HW118029   4.127   2.844   0.200
 5829SOL    HW218030   4.018   2.723   0.193
 5830SOL     OW18031   4.185   3.128   1.727
 5830SOL    HW118032   4.135   3.129   1.641
 5830SOL    HW218033   4.122   3.110   1.803
 5831SOL     OW18034   4.835   3.638   0.237
 5831SOL    HW118035   4.775   3.576   0.287
 5831SOL    HW218036   4.866   3.594   0.152
 5832SOL     OW18037   3.926   2.147   1.498
 5832SOL    HW118038   3.846   2.207   1.485
 5832SOL    HW218039   3.916   2.098   1.584
 5833SOL     OW18040   4.188   3.605   0.323
 5833SOL    HW118041   4.221   3.644   0.409
 5833SOL    HW218042   4.264   3.598   0.258
 5834SOL     OW18043   5.124   1.969   0.426
 5834SOL    HW118044   5.100   1.932   0.336
 5834SOL    HW218045   5.223   1.985   0.430
 5835SOL     OW18046   3.973   3.647   1.241
 5835SOL    HW118047   4.030   3.582   1.291
 5835SOL    HW218048   3.957   3.614   1.148
 5836SOL     OW18049   4.664   3.560   0.904
 5836SOL    HW118050   4.744   3.503   0.925
 5836SOL    HW218051   4.615   3.520   0.827
 5837SOL     OW18052   4.106   2.562   0.480
 5837SOL    HW118053   4.151   2.472   0.477
 5837SOL    HW218054   4.012   2.551   0.513
 5838SOL     OW18055   4.338   1.984   0.117
 5838SOL    HW118056   4.436   1.962   0.124
 5838SOL    HW218057   4.307   1.967   0.024
 5839SOL     OW18058   4.505   2.126   1.749
 5839SOL    HW118059   4.572   2.065   1.792
 5839SOL    HW218060   4.432   2.145   1.814
 5840SOL     OW18061   4.612   3.376   1.195
 5840SOL    HW118062   4.589   3.351   1.101
 5840SOL    HW218063   4.673   3.307   1.234
 5841SOL     OW18064   5.075   2.452   1.433
 5841SOL    HW118065   5.103   2.409   1.518
 5841SOL    HW218066   5.100   2.548   1.434
 5842SOL     OW18067   4.527   3.264   0.924
 5842SOL    HW118068   4.617   3.278   0.882
 5842SOL    HW218069   4.456   3.266   0.853
 5843SOL     OW18070   4.646   2.365   0.899
 5843SOL    HW118071   4.621   2.356   0.803
 5843SOL    HW218072   4.694   2.283   0.930
 5844SOL     OW18073   4.263   1.926   0.512
 5844SOL    HW118074   4.182   1.927   0.570
 5844SOL    HW218075   4.266   2.009   0.457
 5845SOL     OW18076   5.158   3.050   0.041
 5845SOL    HW118077   5.190   2.974   0.098
 5845SOL    HW218078   5.066   3.077   0.071
 5846SOL     OW18079   4.021   1.897   0.171
 5846SOL    HW118080   4.070   1.981   0.150
 5846SOL    HW218081   4.083   1.832   0.216
 5847SOL     OW18082   4.659   2.098   0.480
 5847SOL    HW118083   4.611   2.139   0.402
 5847SOL    HW218084   4.758   2.096   0.461
 5848SOL     OW18085   4.800   2.545   1.464
 5848SOL    HW118086   4.720   2.484   1.467
 5848SOL    HW218087   4.881   2.492   1.440
 5849SOL     OW18088   4.951   3.432   0.793
 5849SOL    HW118089   4.972   3.506   0.728
 5849SOL    HW218090   5.019   3.432   0.866
 5850SOL     OW18091   4.183   3.014   0.741
 5850SOL    HW118092   4.112   2.987   0.806
 5850SOL    HW218093   4.157   2.986   0.648
 5851SOL     OW18094   4.995   3.659   0.591
 5851SOL    HW118095   5.039   3.723   0.527
 5851SOL    HW218096   4.945   3.711   0.661
 5852SOL     OW18097   4.756   2.411   0.016
 5852SOL    HW118098   4.715   2.493  -0.023
 5852SOL    HW218099   4.820   2.437   0.089
 5853SOL     OW18100   3.802   2.418   1.386
 5853SOL    HW118101   3.894   2.417   1.345
 5853SOL    HW218102   3.796   2.492   1.453
 5854SOL     OW18103   4.285   2.084   1.147
 5854SOL    HW118104   4.323   2.000   1.184
 5854SOL    HW218105   4.197   2.103   1.191
 5855SOL     OW18106   4.590   2.316   0.642
 5855SOL    HW118107   4.558   2.388   0.580
 5855SOL    HW218108   4.614   2.235   0.589
 5856SOL     OW18109   4.741   1.901   0.753
 5856SOL    HW118110   4.669   1.906   0.684
 5856SOL    HW218111   4.717   1.832   0.822
 5857SOL     OW18112   5.153   3.035   0.867
 5857SOL    HW118113   5.098   2.951   0.860
 5857SOL    HW218114   5.179   3.064   0.775
 5858SOL     OW18115   4.212   3.247   0.174
 5858SOL    HW118116   4.125   3.232   0.221
 5858SOL    HW218117   4.195   3.273   0.079
 5859SOL     OW18118   5.114   2.437   0.078
 5859SOL    HW118119   5.060   2.416   0.159
 5859SOL    HW218120   5.205   2.396   0.087
 5860SOL     OW18121   4.251   2.118   0.328
 5860SOL    HW118122   4.278   2.059   0.253
 5860SOL    HW218123   4.251   2.213   0.297
 5861SOL     OW18124   4.788   3.209   1.340
 5861SOL    HW118125   4.708   3.186   1.395
 5861SOL    HW218126   4.871   3.183   1.389
 5862SOL     OW18127   5.316   3.491   1.625
 5862SOL    HW118128   5.343   3.525   1.535
 5862SOL    HW218129   5.395   3.453   1.671
 5863SOL     OW18130   4.835   3.057   1.100
 5863SOL    HW118131   4.795   3.101   1.181
 5863SOL    HW218132   4.794   3.094   1.017
 5864SOL     OW18133   4.639   1.951   1.402
 5864SOL    HW118134   4.664   1.931   1.307
 5864SOL    HW218135   4.711   2.007   1.444
 5865SOL     OW18136   4.704   2.978   1.719
 5865SOL    HW118137   4.605   2.984   1.729
 5865SOL    HW218138   4.727   2.898   1.663
 5866SOL     OW18139   4.429   2.912   0.368
 5866SOL    HW118140   4.415   2.919   0.467
 5866SOL    HW218141   4.513   2.861   0.350
 5867SOL     OW18142   4.134   2.675   1.251
 5867SOL    HW118143   4.220   2.687   1.301
 5867SOL    HW218144   4.092   2.588   1.278
 5868SOL     OW18145   4.998   2.248   1.262
 5868SOL    HW118146   5.019   2.322   1.326
 5868SOL    HW218147   4.909   2.265   1.219
 5869SOL     OW18148   3.788   3.426   1.331
 5869SOL    HW118149   3.742   3.508   1.297
 5869SOL    HW218150   3.886   3.445   1.340
 5870SOL     OW18151   4.091   2.962   0.501
 5870SOL    HW118152   4.084   3.045   0.445
 5870SOL    HW218153   4.095   2.882   0.441
 5871SOL     OW18154   4.290   2.399   0.865
 5871SOL    HW118155   4.302   2.465   0.791
 5871SOL    HW218156   4.336   2.433   0.948
 5872SOL     OW18157   4.976   3.210   0.388
 5872SOL    HW118158   5.026   3.287   0.428
 5872SOL    HW218159   4.881   3.212   0.420
 5873SOL     OW18160   4.996   3.307   1.142
 5873SOL    HW118161   5.043   3.320   1.229
 5873SOL    HW218162   4.930   3.233   1.151
 5874SOL     OW18163   4.078   3.372   1.329
 5874SOL    HW118164   4.057   3.328   1.242
 5874SOL    HW218165   4.175   3.398   1.332
 5875SOL     OW18166   4.126   2.613   1.598
 5875SOL    HW118167   4.194   2.668   1.551
 5875SOL    HW218168   4.166   2.525   1.625
 5876SOL     OW18169   4.737   1.967   1.770
 5876SOL    HW118170   4.743   2.052   1.718
 5876SOL    HW218171   4.769   1.891   1.713
 5877SOL     OW18172   4.228   1.912   1.740
 5877SOL    HW118173   4.186   1.855   1.670
 5877SOL    HW218174   4.162   1.981   1.772
 5878SOL     OW18175   4.297   2.732   1.029
 5878SOL    HW118176   4.341   2.821   1.020
 5878SOL    HW218177   4.234   2.732   1.106
 5879SOL     OW18178   5.084   2.724   1.045
 5879SOL    HW118179   5.009   2.724   0.979
 5879SOL    HW218180   5.121   2.632   1.054
 5880SOL     OW18181   4.933   2.387   0.275
 5880SOL    HW118182   4.946   2.303   0.329
 5880SOL    HW218183   4.904   2.461   0.335
 5881SOL     OW18184   4.031   2.075   1.231
 5881SOL    HW118185   4.008   2.112   1.321
 5881SOL    HW218186   4.001   1.980   1.225
 5882SOL     OW18187   3.761   3.172   1.282
 5882SOL    HW118188   3.814   3.123   1.350
 5882SOL    HW218189   3.783   3.270   1.287
 5883SOL     OW18190   4.456   2.496   1.064
 5883SOL    HW118191   4.515   2.470   0.988
 5883SOL    HW218192   4.428   2.592   1.053
 5884SOL     OW18193   4.031   1.925   0.618
 5884SOL    HW118194   4.020   2.019   0.651
 5884SOL    HW218195   4.026   1.862   0.695
 5885SOL     OW18196   5.346   2.229   0.374
 5885SOL    HW118197   5.348   2.153   0.438
 5885SOL    HW218198   5.298   2.306   0.414
 5886SOL     OW18199   4.747   2.628   0.966
 5886SOL    HW118200   4.762   2.649   1.062
 5886SOL    HW218201   4.717   2.533   0.957
 5887SOL     OW18202   4.704   3.435   1.700
 5887SOL    HW118203   4.684   3.479   1.612
 5887SOL    HW218204   4.743   3.344   1.684
 5888SOL     OW18205   4.074   2.760   1.804
 5888SOL    HW118206   4.150   2.804   1.852
 5888SOL    HW218207   4.109   2.713   1.722
 5889SOL     OW18208   5.027   2.700   0.042
 5889SOL    HW118209   5.061   2.607   0.057
 5889SOL    HW218210   5.045   2.727  -0.053
 5890SOL     OW18211   4.792   3.195   0.849
 5890SOL    HW118212   4.799   3.111   0.794
 5890SOL    HW218213   4.854   3.264   0.813
 5891SOL     OW18214   4.043   2.672   0.949
 5891SOL    HW118215   4.136   2.708   0.954
 5891SOL    HW218216   4.037   2.587   1.001
 5892SOL     OW18217   4.063   2.371   1.006
 5892SOL    HW118218   4.011   2.288   0.989
 5892SOL    HW218219   4.140   2.376   0.942
 5893SOL     OW18220   4.862   2.242   1.678
 5893SOL    HW118221   4.817   2.305   1.742
 5893SOL    HW218222   4.955   2.273   1.661
 5894SOL     OW18223   4.884   2.069   1.477
 5894SOL    HW118224   4.884   2.133   1.554
 5894SOL    HW218225   4.912   2.117   1.394
 5895SOL     OW18226   3.732   3.188   0.200
 5895SOL    HW118227   3.639   3.209   0.169
 5895SOL    HW218228   3.742   3.089   0.213
 5896SOL     OW18229   3.812   3.663   0.927
 5896SOL    HW118230   3.770   3.577   0.900
 5896SOL    HW218231   3.906   3.666   0.893
 5897SOL     OW18232   4.228   3.430   0.910
 5897SOL    HW118233   4.294   3.504   0.919
 5897SOL    HW218234   4.272   3.351   0.868
 5898SOL     OW18235   4.726   2.658   1.238
 5898SOL    HW118236   4.767   2.626   1.324
 5898SOL    HW218237   4.630   2.631   1.235
 5899SOL     OW18238   3.764   2.406   1.114
 5899SOL    HW118239   3.849   2.373   1.073
 5899SOL    HW218240   3.777   2.421   1.212
 5900SOL     OW18241   3.913   2.382   1.722
 5900SOL    HW118242   3.972   2.342   1.652
 5900SOL    HW218243   3.855   2.453   1.681
 5901SOL     OW18244   5.093   2.812   1.660
 5901SOL    HW118245   5.132   2.901   1.680
 5901SOL    HW218246   5.103   2.792   1.563
 5902SOL     OW18247   4.539   2.434   0.325
 5902SOL    HW118248   4.546   2.345   0.279
 5902SOL    HW218249   4.445   2.468   0.317
 5903SOL     OW18250   3.976   3.426   1.744
 5903SOL    HW118251   3.946   3.483   1.820
 5903SOL    HW218252   3.969   3.329   1.770
 5904SOL     OW18253   4.395   2.326   1.269
 5904SOL    HW118254   4.361   2.237   1.239
 5904SOL    HW218255   4.421   2.380   1.189
 5905SOL     OW18256   4.654   3.540   1.465
 5905SOL    HW118257   4.630   3.522   1.370
 5905SOL    HW218258   4.684   3.634   1.475
 5906SOL     OW18259   4.197   2.362   0.191
 5906SOL    HW118260   4.258   2.442   0.195
 5906SOL    HW218261   4.102   2.393   0.198
 5907SOL     OW18262   3.883   2.999   1.466
 5907SOL    HW118263   3.905   2.938   1.542
 5907SOL    HW218264   3.893   2.950   1.380
 5908SOL     OW18265   5.071   2.921   1.234
 5908SOL    HW118266   5.095   2.858   1.160
 5908SOL    HW218267   4.981   2.961   1.216
 5909SOL     OW18268   5.026   2.717   0.309
 5909SOL    HW118269   4.940   2.686   0.351
 5909SOL    HW218270   5.022   2.703   0.210
 5910SOL     OW18271   4.976   3.593   1.128
 5910SOL    HW118272   5.060   3.598   1.074
 5910SOL    HW218273   4.953   3.497   1.146
 5911SOL     OW18274   3.807   3.120   1.022
 5911SOL    HW118275   3.802   3.119   1.122
 5911SOL    HW218276   3.724   3.079   0.984
 5912SOL     OW18277   4.412   3.524   1.716
 5912SOL    HW118278   4.356   3.605   1.725
 5912SOL    HW218279   4.464   3.528   1.630
 5913SOL     OW18280   4.627   1.948   0.133
 5913SOL    HW118281   4.678   1.949   0.047
 5913SOL    HW218282   4.683   1.906   0.204
 5914SOL     OW18283   5.450   1.997   0.523
 5914SOL    HW118284   5.523   1.980   0.456
 5914SOL    HW218285   5.419   1.910   0.561
 5915SOL     OW18286   5.112   3.435   0.477
 5915SOL    HW118287   5.179   3.447   0.403
 5915SOL    HW218288   5.072   3.524   0.500
 5916SOL     OW18289   3.854   3.656   1.851
 5916SOL    HW118290   3.813   3.582   1.904
 5916SOL    HW218291   3.918   3.707   1.909
 5917SOL     OW18292   5.004   2.789   0.672
 5917SOL    HW118293   5.064   2.708   0.674
 5917SOL    HW218294   5.044   2.858   0.612
 5918SOL     OW18295   4.554   3.135   1.422
 5918SOL    HW118296   4.549   3.168   1.517
 5918SOL    HW218297   4.468   3.154   1.376
 5919SOL     OW18298   4.396   3.478   0.154
 5919SOL    HW118299   4.405   3.488   0.055
 5919SOL    HW218300   4.356   3.389   0.175
 5920SOL     OW18301   3.987   2.188   0.720
 5920SOL    HW118302   3.908   2.239   0.686
 5920SOL    HW218303   3.978   2.173   0.818
 5921SOL     OW18304   4.918   3.474   0.031
 5921SOL    HW118305   4.924   3.381   0.068
 5921SOL    HW218306   4.859   3.474  -0.049
 5922SOL     OW18307   4.546   2.864   1.372
 5922SOL    HW118308   4.586   2.863   1.280
 5922SOL    HW218309   4.556   2.956   1.412
 5923SOL     OW18310   4.640   2.772   0.291
 5923SOL    HW118311   4.703   2.810   0.223
 5923SOL    HW218312   4.680   2.689   0.330
 5924SOL     OW18313   4.096   3.150   1.490
 5924SOL    HW118314   4.083   3.243   1.456
 5924SOL    HW218315   4.012   3.098   1.477
 5925SOL     OW18316   4.763   2.960   0.696
 5925SOL    HW118317   4.693   2.913   0.750
 5925SOL    HW218318   4.822   2.892   0.653
 5926SOL     OW18319   4.738   2.098   0.971
 5926SOL    HW118320   4.730   2.062   0.878
 5926SOL    HW218321   4.736   2.022   1.036
 5927SOL     OW18322   4.314   3.349   0.491
 5927SOL    HW118323   4.356   3.291   0.421
 5927SOL    HW218324   4.270   3.428   0.447
 5928SOL     OW18325   3.979   3.210   0.290
 5928SOL    HW118326   3.883   3.211   0.263
 5928SOL    HW218327   3.991   3.263   0.374
 5929SOL     OW18328   3.829   2.875   1.726
 5929SOL    HW118329   3.752   2.842   1.780
 5929SOL    HW218330   3.914   2.845   1.768
 5930SOL     OW18331   4.396   2.065   1.489
 5930SOL    HW118332   4.486   2.049   1.449
 5930SOL    HW218333   4.404   2.070   1.588
 5931SOL     OW18334   3.799   2.207   0.033
 5931SOL    HW118335   3.707   2.179   0.004
 5931SOL    HW218336   3.830   2.284  -0.023
 5932SOL     OW18337   5.164   2.718   1.398
 5932SOL    HW118338   5.107   2.770   1.335
 5932SOL    HW218339   5.260   2.730   1.374
 5933SOL     OW18340   3.796   2.028   0.318
 5933SOL    HW118341   3.779   2.111   0.264
 5933SOL    HW218342   3.886   1.991   0.296
 5934SOL     OW18343   4.907   3.197   0.119
 5934SOL    HW118344   4.808   3.186   0.121
 5934SOL    HW218345   4.941   3.212   0.212
 5935SOL     OW18346   4.337   2.704   1.431
 5935SOL    HW118347   4.393   2.785   1.414
 5935SOL    HW218348   4.396   2.624   1.434
 5936SOL     OW18349   4.440   2.427   1.708
 5936SOL    HW118350   4.459   2.492   1.782
 5936SOL    HW218351   4.500   2.347   1.717
 5937SOL     OW18352   5.174   3.082   1.633
 5937SOL    HW118353   5.165   3.072   1.732
 5937SOL    HW218354   5.270   3.075   1.607
 5938SOL     OW18355   4.114   3.603   1.560
 5938SOL    HW118356   4.023   3.644   1.558
 5938SOL    HW218357   4.107   3.509   1.592
 5939SOL     OW18358   4.949   2.187   0.449
 5939SOL    HW118359   5.014   2.113   0.438
 5939SOL    HW218360   4.969   2.237   0.533
 5940SOL     OW18361   4.318   2.607   0.652
 5940SOL    HW118362   4.368   2.692   0.633
 5940SOL    HW218363   4.230   2.609   0.604
 5941SOL     OW18364   4.583   3.236   0.016
 5941SOL    HW118365   4.537   3.251   0.104
 5941SOL    HW218366   4.627   3.321  -0.014
 5942SOL     OW18367   4.385   3.652   0.953
 5942SOL    HW118368   4.339   3.740   0.940
 5942SOL    HW218369   4.484   3.664   0.946
 5943SOL     OW18370   4.583   2.818   0.861
 5943SOL    HW118371   4.637   2.749   0.909
 5943SOL    HW218372   4.551   2.887   0.927
 5944SOL     OW18373   4.807   2.846   0.087
 5944SOL    HW118374   4.784   2.899   0.005
 5944SOL    HW218375   4.888   2.790   0.068
 5945SOL     OW18376   3.945   3.176   1.844
 5945SOL    HW118377   3.880   3.103   1.823
 5945SOL    HW218378   3.949   3.190   1.942
 5946SOL     OW18379   3.803   3.102   0.653
 5946SOL    HW118380   3.802   3.055   0.741
 5946SOL    HW218381   3.885   3.074   0.602
 5947SOL     OW18382   4.396   3.253   1.624
 5947SOL    HW118383   4.318   3.203   1.662
 5947SOL    HW218384   4.393   3.348   1.655
 5948SOL     OW18385   4.152   2.286   0.520
 5948SOL    HW118386   4.182   2.214   0.458
 5948SOL    HW218387   4.113   2.246   0.603
 5949SOL     OW18388   5.429   3.349   1.104
 5949SOL    HW118389   5.336   3.324   1.077
 5949SOL    HW218390   5.455   3.299   1.186
 5950SOL     OW18391   4.041   2.409   1.280
 5950SOL    HW118392   4.079   2.350   1.352
 5950SOL    HW218393   4.081   2.383   1.192
 5951SOL     OW18394   4.536   3.448   0.687
 5951SOL    HW118395   4.568   3.458   0.593
 5951SOL    HW218396   4.457   3.386   0.689
 5952SOL     OW18397   5.148   2.076   1.112
 5952SOL    HW118398   5.200   2.011   1.167
 5952SOL    HW218399   5.099   2.139   1.173
 5953SOL     OW18400   4.725   1.896   1.154
 5953SOL    HW118401   4.662   1.824   1.123
 5953SOL    HW218402   4.818   1.860   1.154
 5954SOL     OW18403   4.494   3.192   0.301
 5954SOL    HW118404   4.448   3.105   0.318
 5954SOL    HW218405   4.585   3.189   0.342
 5955SOL     OW18406   4.342   3.429   1.284
 5955SOL    HW118407   4.337   3.511   1.341
 5955SOL    HW218408   4.431   3.426   1.239
 5956SOL     OW18409   5.076   1.914   0.168
 5956SOL    HW118410   5.111   1.873   0.084
 5956SOL    HW218411   4.986   1.876   0.188
 5957SOL     OW18412   5.024   2.315   0.691
 5957SOL    HW118413   4.965   2.395   0.695
 5957SOL    HW218414   5.039   2.280   0.784
 5958SOL     OW18415   5.317   2.083   0.882
 5958SOL    HW118416   5.233   2.082   0.936
 5958SOL    HW218417   5.319   2.166   0.826
 5959SOL     OW18418   3.763   2.939   0.300
 5959SOL    HW118419   3.862   2.928   0.291
 5959SOL    HW218420   3.723   2.853   0.332
 5960SOL     OW18421   4.599   3.508   0.337
 5960SOL    HW118422   4.522   3.473   0.283
 5960SOL    HW218423   4.567   3.579   0.399
 5961SOL     OW18424   3.954   2.490   1.975
 5961SOL    HW118425   3.861   2.488   2.012
 5961SOL    HW218426   3.955   2.451   1.883
 5962SOL     OW18427   3.949   2.137   2.858
 5962SOL    HW118428   3.984   2.120   2.950
 5962SOL    HW218429   3.861   2.092   2.846
 5963SOL     OW18430   3.743   2.230   2.509
 5963SOL    HW118431   3.661   2.273   2.548
 5963SOL    HW218432   3.715   2.157   2.446
 5964SOL     OW18433   4.293   3.137   3.027
 5964SOL    HW118434   4.200   3.130   2.990
 5964SOL    HW218435   4.304   3.226   3.071
 5965SOL     OW18436   5.279   3.373   2.565
 5965SOL    HW118437   5.222   3.357   2.646
 5965SOL    HW218438   5.220   3.383   2.485
 5966SOL     OW18439   4.859   2.565   2.579
 5966SOL    HW118440   4.916   2.643   2.554
 5966SOL    HW218441   4.799   2.591   2.655
 5967SOL     OW18442   4.492   3.006   2.885
 5967SOL    HW118443   4.414   3.023   2.945
 5967SOL    HW218444   4.526   3.093   2.849
 5968SOL     OW18445   4.574   2.660   3.685
 5968SOL    HW118446   4.570   2.736   3.750
 5968SOL    HW218447   4.596   2.696   3.594
 5969SOL     OW18448   4.409   2.874   2.527
 5969SOL    HW118449   4.478   2.858   2.597
 5969SOL    HW218450   4.336   2.931   2.565
 5970SOL     OW18451   4.410   3.023   3.665
 5970SOL    HW118452   4.470   3.102   3.679
 5970SOL    HW218453   4.324   3.054   3.624
 5971SOL     OW18454   4.059   3.297   2.923
 5971SOL    HW118455   3.981   3.266   2.870
 5971SOL    HW218456   4.117   3.355   2.866
 5972SOL     OW18457   5.184   3.367   3.201
 5972SOL    HW118458   5.208   3.461   3.227
 5972SOL    HW218459   5.168   3.313   3.283
 5973SOL     OW18460   4.162   2.254   3.361
 5973SOL    HW118461   4.244   2.198   3.370
 5973SOL    HW218462   4.081   2.196   3.365
 5974SOL     OW18463   3.955   3.575   2.345
 5974SOL    HW118464   3.989   3.652   2.399
 5974SOL    HW218465   3.999   3.575   2.255
 5975SOL     OW18466   4.851   3.203   3.552
 5975SOL    HW118467   4.898   3.203   3.640
 5975SOL    HW218468   4.803   3.116   3.541
 5976SOL     OW18469   3.954   3.296   2.400
 5976SOL    HW118470   3.928   3.392   2.400
 5976SOL    HW218471   3.883   3.242   2.445
 5977SOL     OW18472   3.964   2.953   2.748
 5977SOL    HW118473   3.978   2.869   2.800
 5977SOL    HW218474   3.909   3.017   2.803
 5978SOL     OW18475   4.344   3.648   3.301
 5978SOL    HW118476   4.252   3.631   3.336
 5978SOL    HW218477   4.372   3.740   3.327
 5979SOL     OW18478   4.330   2.826   1.985
 5979SOL    HW118479   4.337   2.910   1.931
 5979SOL    HW218480   4.376   2.839   2.073
 5980SOL     OW18481   3.846   2.505   2.425
 5980SOL    HW118482   3.801   2.417   2.442
 5980SOL    HW218483   3.845   2.559   2.509
 5981SOL     OW18484   3.751   3.458   1.979
 5981SOL    HW118485   3.732   3.362   2.000
 5981SOL    HW218486   3.718   3.516   2.054
 5982SOL     OW18487   5.413   2.784   2.474
 5982SOL    HW118488   5.508   2.755   2.482
 5982SOL    HW218489   5.405   2.849   2.399
 5983SOL     OW18490   3.837   2.599   3.459
 5983SOL    HW118491   3.925   2.586   3.504
 5983SOL    HW218492   3.824   2.696   3.437
 5984SOL     OW18493   4.337   3.227   2.588
 5984SOL    HW118494   4.288   3.140   2.597
 5984SOL    HW218495   4.314   3.270   2.501
 5985SOL     OW18496   5.017   3.090   3.285
 5985SOL    HW118497   5.054   3.017   3.227
 5985SOL    HW218498   5.069   3.095   3.370
 5986SOL     OW18499   4.533   1.866   2.364
 5986SOL    HW118500   4.573   1.957   2.355
 5986SOL    HW218501   4.433   1.874   2.370
 5987SOL     OW18502   3.921   2.838   3.126
 5987SOL    HW118503   4.010   2.793   3.112
 5987SOL    HW218504   3.848   2.773   3.107
 5988SOL     OW18505   4.911   3.654   3.478
 5988SOL    HW118506   4.935   3.714   3.402
 5988SOL    HW218507   4.918   3.559   3.448
 5989SOL     OW18508   4.041   2.113   3.663
 5989SOL    HW118509   4.112   2.184   3.669
 5989SOL    HW218510   3.953   2.152   3.691
 5990SOL     OW18511   5.190   3.279   2.815
 5990SOL    HW118512   5.131   3.285   2.895
 5990SOL    HW218513   5.175   3.191   2.769
 5991SOL     OW18514   4.322   2.591   2.132
 5991SOL    HW118515   4.346   2.660   2.064
 5991SOL    HW218516   4.244   2.624   2.186
 5992SOL     OW18517   5.005   2.207   2.806
 5992SOL    HW118518   4.919   2.157   2.793
 5992SOL    HW218519   5.067   2.153   2.862
 5993SOL     OW18520   4.531   2.467   3.327
 5993SOL    HW118521   4.484   2.464   3.416
 5993SOL    HW218522   4.480   2.412   3.261
 5994SOL     OW18523   5.118   2.331   3.536
 5994SOL    HW118524   5.098   2.374   3.624
 5994SOL    HW218525   5.196   2.269   3.545
 5995SOL     OW18526   4.697   2.752   3.434
 5995SOL    HW118527   4.743   2.668   3.405
 5995SOL    HW218528   4.641   2.786   3.359
 5996SOL     OW18529   4.715   2.272   3.104
 5996SOL    HW118530   4.638   2.306   3.158
 5996SOL    HW218531   4.681   2.221   3.025
 5997SOL     OW18532   4.765   2.563   2.291
 5997SOL    HW118533   4.791   2.559   2.387
 5997SOL    HW218534   4.680   2.512   2.277
 5998SOL     OW18535   3.800   2.673   2.651
 5998SOL    HW118536   3.899   2.661   2.660
 5998SOL    HW218537   3.776   2.768   2.672
 5999SOL     OW18538   3.854   3.683   3.433
 5999SOL    HW118539   3.844   3.668   3.532
 5999SOL    HW218540   3.768   3.719   3.397
 6000SOL     OW18541   4.589   2.210   2.057
 6000SOL    HW118542   4.648   2.273   2.008
 6000SOL    HW218543   4.608   2.116   2.028
 6001SOL     OW18544   5.086   3.006   2.407
 6001SOL    HW118545   5.169   2.977   2.359
 6001SOL    HW218546   5.037   3.073   2.351
 6002SOL     OW18547   4.274   2.058   2.747
 6002SOL    HW118548   4.269   2.053   2.847
 6002SOL    HW218549   4.276   2.154   2.718
 6003SOL     OW18550   4.732   3.318   2.339
 6003SOL    HW118551   4.686   3.390   2.287
 6003SOL    HW218552   4.728   3.338   2.437
 6004SOL     OW18553   4.075   3.663   2.715
 6004SOL    HW118554   4.125   3.577   2.721
 6004SOL    HW218555   4.140   3.740   2.712
 6005SOL     OW18556   4.951   3.412   3.368
 6005SOL    HW118557   4.957   3.335   3.432
 6005SOL    HW218558   4.899   3.386   3.288
 6006SOL     OW18559   4.045   2.805   2.104
 6006SOL    HW118560   4.127   2.844   2.062
 6006SOL    HW218561   4.018   2.723   2.055
 6007SOL     OW18562   4.185   3.128   3.589
 6007SOL    HW118563   4.135   3.129   3.503
 6007SOL    HW218564   4.122   3.110   3.665
 6008SOL     OW18565   4.835   3.638   2.099
 6008SOL    HW118566   4.775   3.576   2.149
 6008SOL    HW218567   4.866   3.594   2.014
 6009SOL     OW18568   3.926   2.147   3.360
 6009SOL    HW118569   3.846   2.207   3.347
 6009SOL    HW218570   3.916   2.098   3.446
 6010SOL     OW18571   4.188   3.605   2.185
 6010SOL    HW118572   4.221   3.644   2.271
 6010SOL    HW218573   4.264   3.598   2.120
 6011SOL     OW18574   5.124   1.969   2.288
 6011SOL    HW118575   5.100   1.932   2.198
 6011SOL    HW218576   5.223   1.985   2.292
 6012SOL     OW18577   3.973   3.647   3.103
 6012SOL    HW118578   4.030   3.582   3.153
 6012SOL    HW218579   3.957   3.614   3.010
 6013SOL     OW18580   4.664   3.560   2.766
 6013SOL    HW118581   4.744   3.503   2.787
 6013SOL    HW218582   4.615   3.520   2.689
 6014SOL     OW18583   4.106   2.562   2.342
 6014SOL    HW118584   4.151   2.472   2.339
 6014SOL    HW218585   4.012   2.551   2.375
 6015SOL     OW18586   4.338   1.984   1.979
 6015SOL    HW118587   4.436   1.962   1.986
 6015SOL    HW218588   4.307   1.967   1.886
 6016SOL     OW18589   4.505   2.126   3.611
 6016SOL    HW118590   4.572   2.065   3.654
 6016SOL    HW218591   4.432   2.145   3.676
 6017SOL     OW18592   4.612   3.376   3.057
 6017SOL    HW118593   4.589   3.351   2.963
 6017SOL    HW218594   4.673   3.307   3.096
 6018SOL     OW18595   5.075   2.452   3.295
 6018SOL    HW118596   5.103   2.409   3.380
 6018SOL    HW218597   5.100   2.548   3.296
 6019SOL     OW18598   4.527   3.264   2.786
 6019SOL    HW118599   4.617   3.278   2.744
 6019SOL    HW218600   4.456   3.266   2.715
 6020SOL     OW18601   4.646   2.365   2.761
 6020SOL    HW118602   4.621   2.356   2.665
 6020SOL    HW218603   4.694   2.283   2.792
 6021SOL     OW18604   4.263   1.926   2.374
 6021SOL    HW118605   4.182   1.927   2.432
 6021SOL    HW218606   4.266   2.009   2.319
 6022SOL     OW18607   5.158   3.050   1.903
 6022SOL    HW118608   5.190   2.974   1.960
 6022SOL    HW218609   5.066   3.077   1.933
 6023SOL     OW18610   4.021   1.897   2.033
 6023SOL    HW118611   4.070   1.981   2.012
 6023SOL    HW218612   4.083   1.832   2.078
 6024SOL     OW18613   4.659   2.098   2.342
 6024SOL    HW118614   4.611   2.139   2.264
 6024SOL    HW218615   4.758   2.096   2.323
 6025SOL     OW18616   4.800   2.545   3.326
 6025SOL    HW118617   4.720   2.484   3.329
 6025SOL    HW218618   4.881   2.492   3.302
 6026SOL     OW18619   4.951   3.432   2.655
 6026SOL    HW118620   4.972   3.506   2.590
 6026SOL    HW218621   5.019   3.432   2.728
 6027SOL     OW18622   4.183   3.014   2.603
 6027SOL    HW118623   4.112   2.987   2.668
 6027SOL    HW218624   4.157   2.986   2.510
 6028SOL     OW18625   4.995   3.659   2.453
 6028SOL    HW118626   5.039   3.723   2.389
 6028SOL    HW218627   4.945   3.711   2.523
 6029SOL     OW18628   4.756   2.411   1.878
 6029SOL    HW118629   4.715   2.493   1.839
 6029SOL    HW218630   4.820   2.437   1.951
 6030SOL     OW18631   3.802   2.418   3.248
 6030SOL    HW118632   3.894   2.417   3.207
 6030SOL    HW218633   3.796   2.492   3.315
 6031SOL     OW18634   4.285   2.084   3.009
 6031SOL    HW118635   4.323   2.000   3.046
 6031SOL    HW218636   4.197   2.103   3.053
 6032SOL     OW18637   4.590   2.316   2.504
 6032SOL    HW118638   4.558   2.388   2.442
 6032SOL    HW218639   4.614   2.235   2.451
 6033SOL     OW18640   4.741   1.901   2.615
 6033SOL    HW118641   4.669   1.906   2.546
 6033SOL    HW218642   4.717   1.832   2.684
 6034SOL     OW18643   5.153   3.035   2.729
 6034SOL    HW118644   5.098   2.951   2.722
 6034SOL    HW218645   5.179   3.064   2.637
 6035SOL     OW18646   4.212   3.247   2.036
 6035SOL    HW118647   4.125   3.232   2.083
 6035SOL    HW218648   4.195   3.273   1.941
 6036SOL     OW18649   5.114   2.437   1.940
 6036SOL    HW118650   5.060   2.416   2.021
 6036SOL    HW218651   5.205   2.396   1.949
 6037SOL     OW18652   4.251   2.118   2.190
 6037SOL    HW118653   4.278   2.059   2.115
 6037SOL    HW218654   4.251   2.213   2.159
 6038SOL     OW18655   4.788   3.209   3.202
 6038SOL    HW118656   4.708   3.186   3.257
 6038SOL    HW218657   4.871   3.183   3.251
 6039SOL     OW18658   5.316   3.491   3.487
 6039SOL    HW118659   5.343   3.525   3.397
 6039SOL    HW218660   5.395   3.453   3.533
 6040SOL     OW18661   4.835   3.057   2.962
 6040SOL    HW118662   4.795   3.101   3.043
 6040SOL    HW218663   4.794   3.094   2.879
 6041SOL     OW18664   4.639   1.951   3.264
 6041SOL    HW118665   4.664   1.931   3.169
 6041SOL    HW218666   4.711   2.007   3.306
 6042SOL     OW18667   4.704   2.978   3.581
 6042SOL    HW118668   4.605   2.984   3.591
 6042SOL    HW218669   4.727   2.898   3.525
 6043SOL     OW18670   4.429   2.912   2.230
 6043SOL    HW118671   4.415   2.919   2.329
 6043SOL    HW218672   4.513   2.861   2.212
 6044SOL     OW18673   4.134   2.675   3.113
 6044SOL    HW118674   4.220   2.687   3.163
 6044SOL    HW218675   4.092   2.588   3.140
 6045SOL     OW18676   4.998   2.248   3.124
 6045SOL    HW118677   5.019   2.322   3.188
 6045SOL    HW218678   4.909   2.265   3.081
 6046SOL     OW18679   3.788   3.426   3.193
 6046SOL    HW118680   3.742   3.508   3.159
 6046SOL    HW218681   3.886   3.445   3.202
 6047SOL     OW18682   4.091   2.962   2.363
 6047SOL    HW118683   4.084   3.045   2.307
 6047SOL    HW218684   4.095   2.882   2.303
 6048SOL     OW18685   4.290   2.399   2.727
 6048SOL    HW118686   4.302   2.465   2.653
 6048SOL    HW218687   4.336   2.433   2.810
 6049SOL     OW18688   4.976   3.210   2.250
 6049SOL    HW118689   5.026   3.287   2.290
 6049SOL    HW218690   4.881   3.212   2.282
 6050SOL     OW18691   4.996   3.307   3.004
 6050SOL    HW118692   5.043   3.320   3.091
 6050SOL    HW218693   4.930   3.233   3.013
 6051SOL     OW18694   4.078   3.372   3.191
 6051SOL    HW118695   4.057   3.328   3.104
 6051SOL    HW218696   4.175   3.398   3.194
 6052SOL     OW18697   4.126   2.613   3.460
 6052SOL    HW118698   4.194   2.668   3.413
 6052SOL    HW218699   4.166   2.525   3.487
 6053SOL     OW18700   4.737   1.967   3.632
 6053SOL    HW118701   4.743   2.052   3.580
 6053SOL    HW218702   4.769   1.891   3.575
 6054SOL     OW18703   4.228   1.912   3.602
 6054SOL    HW118704   4.186   1.855   3.532
 6054SOL    HW218705   4.162   1.981   3.634
 6055SOL     OW18706   4.297   2.732   2.891
 6055SOL    HW118707   4.341   2.821   2.882
 6055SOL    HW218708   4.234   2.732   2.968
 6056SOL     OW18709   5.084   2.724   2.907
 6056SOL    HW118710   5.009   2.724   2.841
 6056SOL    HW218711   5.121   2.632   2.916
 6057SOL     OW18712   4.933   2.387   2.137
 6057SOL    HW118713   4.946   2.303   2.191
 6057SOL    HW218714   4.904   2.461   2.197
 6058SOL     OW18715   4.031   2.075   3.093
 6058SOL    HW118716   4.008   2.112   3.183
 6058SOL    HW218717   4.001   1.980   3.087
 6059SOL     OW18718   3.761   3.172   3.144
 6059SOL    HW118719   3.814   3.123   3.212
 6059SOL    HW218720   3.783   3.270   3.149
 6060SOL     OW18721   4.456   2.496   2.926
 6060SOL    HW118722   4.515   2.470   2.850
 6060SOL    HW218723   4.428   2.592   2.915
 6061SOL     OW18724   4.031   1.925   2.480
 6061SOL    HW118725   4.020   2.019   2.513
 6061SOL    HW218726   4.026   1.862   2.557
 6062SOL     OW18727   5.346   2.229   2.236
 6062SOL    HW118728   5.348   2.153   2.300
 6062SOL    HW218729   5.298   2.306   2.276
 6063SOL     OW18730   4.747   2.628   2.828
 6063SOL    HW118731   4.762   2.649   2.924
 6063SOL    HW218732   4.717   2.533   2.819
 6064SOL     OW18733   4.704   3.435   3.562
 6064SOL    HW118734   4.684   3.479   3.474
 6064SOL    HW218735   4.743   3.344   3.546
 6065SOL     OW18736   4.074   2.760   3.666
 6065SOL    HW118737   4.150   2.804   3.714
 6065SOL    HW218738   4.109   2.713   3.584
 6066SOL     OW18739   5.027   2.700   1.904
 6066SOL    HW118740   5.061   2.607   1.919
 6066SOL    HW218741   5.045   2.727   1.809
 6067SOL     OW18742   4.792   3.195   2.711
 6067SOL    HW118743   4.799   3.111   2.656
 6067SOL    HW218744   4.854   3.264   2.675
 6068SOL     OW18745   4.043   2.672   2.811
 6068SOL    HW118746   4.136   2.708   2.816
 6068SOL    HW218747   4.037   2.587   2.863
 6069SOL     OW18748   4.063   2.371   2.868
 6069SOL    HW118749   4.011   2.288   2.851
 6069SOL    HW218750   4.140   2.376   2.804
 6070SOL     OW18751   4.862   2.242   3.540
 6070SOL    HW118752   4.817   2.305   3.604
 6070SOL    HW218753   4.955   2.273   3.523
 6071SOL     OW18754   4.884   2.069   3.339
 6071SOL    HW118755   4.884   2.133   3.416
 6071SOL    HW218756   4.912   2.117   3.256
 6072SOL     OW18757   3.732   3.188   2.062
 6072SOL    HW118758   3.639   3.209   2.031
 6072SOL    HW218759   3.742   3.089   2.075
 6073SOL     OW18760   3.812   3.663   2.789
 6073SOL    HW118761   3.770   3.577   2.762
 6073SOL    HW218762   3.906   3.666   2.755
 6074SOL     OW18763   4.228   3.430   2.772
 6074SOL    HW118764   4.294   3.504   2.781
 6074SOL    HW218765   4.272   3.351   2.730
 6075SOL     OW18766   4.726   2.658   3.100
 6075SOL    HW118767   4.767   2.626   3.186
 6075SOL    HW218768   4.630   2.631   3.097
 6076SOL     OW18769   3.764   2.406   2.976
 6076SOL    HW118770   3.849   2.373   2.935
 6076SOL    HW218771   3.777   2.421   3.074
 6077SOL     OW18772   3.913   2.382   3.584
 6077SOL    HW118773   3.972   2.342   3.514
 6077SOL    HW218774   3.855   2.453   3.543
 6078SOL     OW18775   5.093   2.812   3.522
 6078SOL    HW118776   5.132   2.901   3.542
 6078SOL    HW218777   5.103   2.792   3.425
 6079SOL     OW18778   4.539   2.434   2.187
 6079SOL    HW118779   4.546   2.345   2.141
 6079SOL    HW218780   4.445   2.468   2.179
 6080SOL     OW18781   3.976   3.426   3.606
 6080SOL    HW118782   3.946   3.483   3.682
 6080SOL    HW218783   3.969   3.329   3.632
 6081SOL     OW18784   4.395   2.326   3.131
 6081SOL    HW118785   4.361   2.237   3.101
 6081SOL    HW218786   4.421   2.380   3.051
 6082SOL     OW18787   4.654   3.540   3.327
 6082SOL    HW118788   4.630   3.522   3.232
 6082SOL    HW218789   4.684   3.634   3.337
 6083SOL     OW18790   4.197   2.362   2.053
 6083SOL    HW118791   4.258   2.442   2.057
 6083SOL    HW218792   4.102   2.393   2.060
 6084SOL     OW18793   3.883   2.999   3.328
 6084SOL    HW118794   3.905   2.938   3.404
 6084SOL    HW218795   3.893   2.950   3.242
 6085SOL     OW18796   5.071   2.921   3.096
 6085SOL    HW118797   5.095   2.858   3.022
 6085SOL    HW218798   4.981   2.961   3.078
 6086SOL     OW18799   5.026   2.717   2.171
 6086SOL    HW118800   4.940   2.686   2.213
 6086SOL    HW218801   5.022   2.703   2.072
 6087SOL     OW18802   4.976   3.593   2.990
 6087SOL    HW118803   5.060   3.598   2.936
 6087SOL    HW218804   4.953   3.497   3.008
 6088SOL     OW18805   3.807   3.120   2.884
 6088SOL    HW118806   3.802   3.119   2.984
 6088SOL    HW218807   3.724   3.079   2.846
 6089SOL     OW18808   4.412   3.524   3.578
 6089SOL    HW118809   4.356   3.605   3.587
 6089SOL    HW218810   4.464   3.528   3.492
 6090SOL     OW18811   5.450   1.997   2.385
 6090SOL    HW118812   5.523   1.980   2.318
 6090SOL    HW218813   5.419   1.910   2.423
 6091SOL     OW18814   5.112   3.435   2.339
 6091SOL    HW118815   5.179   3.447   2.265
 6091SOL    HW218816   5.072   3.524   2.362
 6092SOL     OW18817   3.854   3.656   3.713
 6092SOL    HW118818   3.813   3.582   3.766
 6092SOL    HW218819   3.918   3.707   3.771
 6093SOL     OW18820   5.004   2.789   2.534
 6093SOL    HW118821   5.064   2.708   2.536
 6093SOL    HW218822   5.044   2.858   2.474
 6094SOL     OW18823   4.554   3.135   3.284
 6094SOL    HW118824   4.549   3.168   3.379
 6094SOL    HW218825   4.468   3.154   3.238
 6095SOL     OW18826   4.396   3.478   2.016
 6095SOL    HW118827   4.405   3.488   1.917
 6095SOL    HW218828   4.356   3.389   2.037
 6096SOL     OW18829   3.987   2.188   2.582
 6096SOL    HW118830   3.908   2.239   2.548
 6096SOL    HW218831   3.978   2.173   2.680
 6097SOL     OW18832   4.918   3.474   1.893
 6097SOL    HW118833   4.924   3.381   1.930
 6097SOL    HW218834   4.859   3.474   1.813
 6098SOL     OW18835   4.546   2.864   3.234
 6098SOL    HW118836   4.586   2.863   3.142
 6098SOL    HW218837   4.556   2.956   3.274
 6099SOL     OW18838   4.640   2.772   2.153
 6099SOL    HW118839   4.703   2.810   2.085
 6099SOL    HW218840   4.680   2.689   2.192
 6100SOL     OW18841   4.096   3.150   3.352
 6100SOL    HW118842   4.083   3.243   3.318
 6100SOL    HW218843   4.012   3.098   3.339
 6101SOL     OW18844   4.763   2.960   2.558
 6101SOL    HW118845   4.693   2.913   2.612
 6101SOL    HW218846   4.822   2.892   2.515
 6102SOL     OW18847   4.738   2.098   2.833
 6102SOL    HW118848   4.730   2.062   2.740
 6102SOL    HW218849   4.736   2.022   2.898
 6103SOL     OW18850   4.314   3.349   2.353
 6103SOL    HW118851   4.356   3.291   2.283
 6103SOL    HW218852   4.270   3.428   2.309
 6104SOL     OW18853   3.979   3.210   2.152
 6104SOL    HW118854   3.883   3.211   2.125
 6104SOL    HW218855   3.991   3.263   2.236
 6105SOL     OW18856   3.829   2.875   3.588
 6105SOL    HW118857   3.752   2.842   3.642
 6105SOL    HW218858   3.914   2.845   3.630
 6106SOL     OW18859   4.396   2.065   3.351
 6106SOL    HW118860   4.486   2.049   3.311
 6106SOL    HW218861   4.404   2.070   3.450
 6107SOL     OW18862   3.799   2.207   1.895
 6107SOL    HW118863   3.707   2.179   1.866
 6107SOL    HW218864   3.830   2.284   1.839
 6108SOL     OW18865   5.164   2.718   3.260
 6108SOL    HW118866   5.107   2.770   3.197
 6108SOL    HW218867   5.260   2.730   3.236
 6109SOL     OW18868   3.796   2.028   2.180
 6109SOL    HW118869   3.779   2.111   2.126
 6109SOL    HW218870   3.886   1.991   2.158
 6110SOL     OW18871   4.907   3.197   1.981
 6110SOL    HW118872   4.808   3.186   1.983
 6110SOL    HW218873   4.941   3.212   2.074
 6111SOL     OW18874   4.337   2.704   3.293
 6111SOL    HW118875   4.393   2.785   3.276
 6111SOL    HW218876   4.396   2.624   3.296
 6112SOL     OW18877   4.440   2.427   3.570
 6112SOL    HW118878   4.459   2.492   3.644
 6112SOL    HW218879   4.500   2.347   3.579
 6113SOL     OW18880   5.174   3.082   3.495
 6113SOL    HW118881   5.165   3.072   3.594
 6113SOL    HW218882   5.270   3.075   3.469
 6114SOL     OW18883   4.114   3.603   3.422
 6114SOL    HW118884   4.023   3.644   3.420
 6114SOL    HW218885   4.107   3.509   3.454
 6115SOL     OW18886   4.949   2.187   2.311
 6115SOL    HW118887   5.014   2.113   2.300
 6115SOL    HW218888   4.969   2.237   2.395
 6116SOL     OW18889   4.318   2.607   2.514
 6116SOL    HW118890   4.368   2.692   2.495
 6116SOL    HW218891   4.230   2.609   2.466
 6117SOL     OW18892   4.583   3.236   1.878
 6117SOL    HW118893   4.537   3.251   1.966
 6117SOL    HW218894   4.627   3.321   1.848
 6118SOL     OW18895   4.385   3.652   2.815
 6118SOL    HW118896   4.339   3.740   2.802
 6118SOL    HW218897   4.484   3.664   2.808
 6119SOL     OW18898   4.583   2.818   2.723
 6119SOL    HW118899   4.637   2.749   2.771
 6119SOL    HW218900   4.551   2.887   2.789
 6120SOL     OW18901   4.807   2.846   1.949
 6120SOL    HW118902   4.784   2.899   1.867
 6120SOL    HW218903   4.888   2.790   1.930
 6121SOL     OW18904   3.945   3.176   3.706
 6121SOL    HW118905   3.880   3.103   3.685
 6121SOL    HW218906   3.949   3.190   3.804
 6122SOL     OW18907   3.803   3.102   2.515
 6122SOL    HW118908   3.802   3.055   2.603
 6122SOL    HW218909   3.885   3.074   2.464
 6123SOL     OW18910   4.396   3.253   3.486
 6123SOL    HW118911   4.318   3.203   3.524
 6123SOL    HW218912   4.393   3.348   3.517
 6124SOL     OW18913   4.152   2.286   2.382
 6124SOL    HW118914   4.182   2.214   2.320
 6124SOL    HW218915   4.113   2.246   2.465
 6125SOL     OW18916   5.429   3.349   2.966
 6125SOL    HW118917   5.336   3.324   2.939
 6125SOL    HW218918   5.455   3.299   3.048
 6126SOL     OW18919   4.041   2.409   3.142
 6126SOL    HW118920   4.079   2.350   3.214
 6126SOL    HW218921   4.081   2.383   3.054
 6127SOL     OW18922   4.536   3.448   2.549
 6127SOL    HW118923   4.568   3.458   2.455
 6127SOL    HW218924   4.457   3.386   2.551
 6128SOL     OW18925   5.148   2.076   2.974
 6128SOL    HW118926   5.200   2.011   3.029
 6128SOL    HW218927   5.099   2.139   3.035
 6129SOL     OW18928   4.725   1.896   3.016
 6129SOL    HW118929   4.662   1.824   2.985
 6129SOL    HW218930   4.818   1.860   3.016
 6130SOL     OW18931   4.494   3.192   2.163
 6130SOL    HW118932   4.448   3.105   2.180
 6130SOL    HW218933   4.585   3.189   2.204
 6131SOL     OW18934   4.342   3.429   3.146
 6131SOL    HW118935   4.337   3.511   3.203
 6131SOL    HW218936   4.431   3.426   3.101
 6132SOL     OW18937   5.076   1.914   2.030
 6132SOL    HW118938   5.111   1.873   1.946
 6132SOL    HW218939   4.986   1.876   2.050
 6133SOL     OW18940   5.024   2.315   2.553
 6133SOL    HW118941   4.965   2.395   2.557
 6133SOL    HW218942   5.039   2.280   2.646
 6134SOL     OW18943   5.317   2.083   2.744
 6134SOL    HW118944   5.233   2.082   2.798
 6134SOL    HW218945   5.319   2.166   2.688
 6135SOL     OW18946   3.763   2.939   2.162
 6135SOL    HW118947   3.862   2.928   2.153
 6135SOL    HW218948   3.723   2.853   2.194
 6136SOL     OW18949   4.599   3.508   2.199
 6136SOL    HW118950   4.522   3.473   2.145
 6136SOL    HW218951   4.567   3.579   2.261
 6137SOL     OW18952   3.954   2.490   3.837
 6137SOL    HW118953   3.861   2.488   3.874
 6137SOL    HW218954   3.955   2.451   3.745
 6138SOL     OW18955   3.949   2.137   4.720
 6138SOL    HW118956   3.984   2.120   4.812
 6138SOL    HW218957   3.861   2.092   4.708
 6139SOL     OW18958   3.743   2.230   4.371
 6139SOL    HW118959   3.661   2.273   4.410
 6139SOL    HW218960   3.715   2.157   4.308
 6140SOL     OW18961   4.293   3.137   4.889
 6140SOL    HW118962   4.200   3.130   4.852
 6140SOL    HW218963   4.304   3.226   4.933
 6141SOL     OW18964   5.279   3.373   4.427
 6141SOL    HW118965   5.222   3.357   4.508
 6141SOL    HW218966   5.220   3.383   4.347
 6142SOL     OW18967   4.859   2.565   4.441
 6142SOL    HW118968   4.916   2.643   4.416
 6142SOL    HW218969   4.799   2.591   4.517
 6143SOL     OW18970   4.492   3.006   4.747
 6143SOL    HW118971   4.414   3.023   4.807
 6143SOL    HW218972   4.526   3.093   4.711
 6144SOL     OW18973   4.574   2.660   5.547
 6144SOL    HW118974   4.570   2.736   5.612
 6144SOL    HW218975   4.596   2.696   5.456
 6145SOL     OW18976   4.409   2.874   4.389
 6145SOL    HW118977   4.478   2.858   4.459
 6145SOL    HW218978   4.336   2.931   4.427
 6146SOL     OW18979   4.410   3.023   5.527
 6146SOL    HW118980   4.470   3.102   5.541
 6146SOL    HW218981   4.324   3.054   5.486
 6147SOL     OW18982   4.059   3.297   4.785
 6147SOL    HW118983   3.981   3.266   4.732
 6147SOL    HW218984   4.117   3.355   4.728
 6148SOL     OW18985   5.184   3.367   5.063
 6148SOL    HW118986   5.208   3.461   5.089
 6148SOL    HW218987   5.168   3.313   5.145
 6149SOL     OW18988   4.162   2.254   5.223
 6149SOL    HW118989   4.244   2.198   5.232
 6149SOL    HW218990   4.081   2.196   5.227
 6150SOL     OW18991   3.955   3.575   4.207
 6150SOL    HW118992   3.989   3.652   4.261
 6150SOL    HW218993   3.999   3.575   4.117
 6151SOL     OW18994   4.851   3.203   5.414
 6151SOL    HW118995   4.898   3.203   5.502
 6151SOL    HW218996   4.803   3.116   5.403
 6152SOL     OW18997   3.954   3.296   4.262
 6152SOL    HW118998   3.928   3.392   4.262
 6152SOL    HW218999   3.883   3.242   4.307
 6153SOL     OW19000   3.964   2.953   4.610
 6153SOL    HW119001   3.978   2.869   4.662
 6153SOL    HW219002   3.909   3.017   4.665
 6154SOL     OW19003   4.344   3.648   5.163
 6154SOL    HW119004   4.252   3.631   5.198
 6154SOL    HW219005   4.372   3.740   5.189
 6155SOL     OW19006   4.330   2.826   3.847
 6155SOL    HW119007   4.337   2.910   3.793
 6155SOL    HW219008   4.376   2.839   3.935
 6156SOL     OW19009   3.846   2.505   4.287
 6156SOL    HW119010   3.801   2.417   4.304
 6156SOL    HW219011   3.845   2.559   4.371
 6157SOL     OW19012   3.751   3.458   3.841
 6157SOL    HW119013   3.732   3.362   3.862
 6157SOL    HW219014   3.718   3.516   3.916
 6158SOL     OW19015   5.413   2.784   4.336
 6158SOL    HW119016   5.508   2.755   4.344
 6158SOL    HW219017   5.405   2.849   4.261
 6159SOL     OW19018   3.837   2.599   5.321
 6159SOL    HW119019   3.925   2.586   5.366
 6159SOL    HW219020   3.824   2.696   5.299
 6160SOL     OW19021   4.337   3.227   4.450
 6160SOL    HW119022   4.288   3.140   4.459
 6160SOL    HW219023   4.314   3.270   4.363
 6161SOL     OW19024   5.017   3.090   5.147
 6161SOL    HW119025   5.054   3.017   5.089
 6161SOL    HW219026   5.069   3.095   5.232
 6162SOL     OW19027   4.533   1.866   4.226
 6162SOL    HW119028   4.573   1.957   4.217
 6162SOL    HW219029   4.433   1.874   4.232
 6163SOL     OW19030   3.921   2.838   4.988
 6163SOL    HW119031   4.010   2.793   4.974
 6163SOL    HW219032   3.848   2.773   4.969
 6164SOL     OW19033   4.911   3.654   5.340
 6164SOL    HW119034   4.935   3.714   5.264
 6164SOL    HW219035   4.918   3.559   5.310
 6165SOL     OW19036   4.041   2.113   5.525
 6165SOL    HW119037   4.112   2.184   5.531
 6165SOL    HW219038   3.953   2.152   5.553
 6166SOL     OW19039   5.190   3.279   4.677
 6166SOL    HW119040   5.131   3.285   4.757
 6166SOL    HW219041   5.175   3.191   4.631
 6167SOL     OW19042   4.322   2.591   3.994
 6167SOL    HW119043   4.346   2.660   3.926
 6167SOL    HW219044   4.244   2.624   4.048
 6168SOL     OW19045   5.005   2.207   4.668
 6168SOL    HW119046   4.919   2.157   4.655
 6168SOL    HW219047   5.067   2.153   4.724
 6169SOL     OW19048   4.531   2.467   5.189
 6169SOL    HW119049   4.484   2.464   5.278
 6169SOL    HW219050   4.480   2.412   5.123
 6170SOL     OW19051   5.118   2.331   5.398
 6170SOL    HW119052   5.098   2.374   5.486
 6170SOL    HW219053   5.196   2.269   5.407
 6171SOL     OW19054   4.697   2.752   5.296
 6171SOL    HW119055   4.743   2.668   5.267
 6171SOL    HW219056   4.641   2.786   5.221
 6172SOL     OW19057   4.715   2.272   4.966
 6172SOL    HW119058   4.638   2.306   5.020
 6172SOL    HW219059   4.681   2.221   4.887
 6173SOL     OW19060   4.765   2.563   4.153
 6173SOL    HW119061   4.791   2.559   4.249
 6173SOL    HW219062   4.680   2.512   4.139
 6174SOL     OW19063   3.800   2.673   4.513
 6174SOL    HW119064   3.899   2.661   4.522
 6174SOL    HW219065   3.776   2.768   4.534
 6175SOL     OW19066   3.854   3.683   5.295
 6175SOL    HW119067   3.844   3.668   5.394
 6175SOL    HW219068   3.768   3.719   5.259
 6176SOL     OW19069   4.589   2.210   3.919
 6176SOL    HW119070   4.648   2.273   3.870
 6176SOL    HW219071   4.608   2.116   3.890
 6177SOL     OW19072   5.086   3.006   4.269
 6177SOL    HW119073   5.169   2.977   4.221
 6177SOL    HW219074   5.037   3.073   4.213
 6178SOL     OW19075   4.274   2.058   4.609
 6178SOL    HW119076   4.269   2.053   4.709
 6178SOL    HW219077   4.276   2.154   4.580
 6179SOL     OW19078   4.732   3.318   4.201
 6179SOL    HW119079   4.686   3.390   4.149
 6179SOL    HW219080   4.728   3.338   4.299
 6180SOL     OW19081   4.075   3.663   4.577
 6180SOL    HW119082   4.125   3.577   4.583
 6180SOL    HW219083   4.140   3.740   4.574
 6181SOL     OW19084   4.951   3.412   5.230
 6181SOL    HW119085   4.957   3.335   5.294
 6181SOL    HW219086   4.899   3.386   5.150
 6182SOL     OW19087   4.045   2.805   3.966
 6182SOL    HW119088   4.127   2.844   3.924
 6182SOL    HW219089   4.018   2.723   3.917
 6183SOL     OW19090   4.185   3.128   5.451
 6183SOL    HW119091   4.135   3.129   5.365
 6183SOL    HW219092   4.122   3.110   5.527
 6184SOL     OW19093   4.835   3.638   3.961
 6184SOL    HW119094   4.775   3.576   4.011
 6184SOL    HW219095   4.866   3.594   3.876
 6185SOL     OW19096   3.926   2.147   5.222
 6185SOL    HW119097   3.846   2.207   5.209
 6185SOL    HW219098   3.916   2.098   5.308
 6186SOL     OW19099   4.188   3.605   4.047
 6186SOL    HW119100   4.221   3.644   4.133
 6186SOL    HW219101   4.264   3.598   3.982
 6187SOL     OW19102   5.124   1.969   4.150
 6187SOL    HW119103   5.100   1.932   4.060
 6187SOL    HW219104   5.223   1.985   4.154
 6188SOL     OW19105   3.973   3.647   4.965
 6188SOL    HW119106   4.030   3.582   5.015
 6188SOL    HW219107   3.957   3.614   4.872
 6189SOL     OW19108   4.664   3.560   4.628
 6189SOL    HW119109   4.744   3.503   4.649
 6189SOL    HW219110   4.615   3.520   4.551
 6190SOL     OW19111   4.106   2.562   4.204
 6190SOL    HW119112   4.151   2.472   4.201
 6190SOL    HW219113   4.012   2.551   4.237
 6191SOL     OW19114   4.338   1.984   3.841
 6191SOL    HW119115   4.436   1.962   3.848
 6191SOL    HW219116   4.307   1.967   3.748
 6192SOL     OW19117   4.505   2.126   5.473
 6192SOL    HW119118   4.572   2.065   5.516
 6192SOL    HW219119   4.432   2.145   5.538
 6193SOL     OW19120   4.612   3.376   4.919
 6193SOL    HW119121   4.589   3.351   4.825
 6193SOL    HW219122   4.673   3.307   4.958
 6194SOL     OW19123   5.075   2.452   5.157
 6194SOL    HW119124   5.103   2.409   5.242
 6194SOL    HW219125   5.100   2.548   5.158
 6195SOL     OW19126   4.527   3.264   4.648
 6195SOL    HW119127   4.617   3.278   4.606
 6195SOL    HW219128   4.456   3.266   4.577
 6196SOL     OW19129   4.646   2.365   4.623
 6196SOL    HW119130   4.621   2.356   4.527
 6196SOL    HW219131   4.694   2.283   4.654
 6197SOL     OW19132   4.263   1.926   4.236
 6197SOL    HW119133   4.182   1.927   4.294
 6197SOL    HW219134   4.266   2.009   4.181
 6198SOL     OW19135   5.158   3.050   3.765
 6198SOL    HW119136   5.190   2.974   3.822
 6198SOL    HW219137   5.066   3.077   3.795
 6199SOL     OW19138   4.021   1.897   3.895
 6199SOL    HW119139   4.070   1.981   3.874
 6199SOL    HW219140   4.083   1.832   3.940
 6200SOL     OW19141   4.659   2.098   4.204
 6200SOL    HW119142   4.611   2.139   4.126
 6200SOL    HW219143   4.758   2.096   4.185
 6201SOL     OW19144   4.800   2.545   5.188
 6201SOL    HW119145   4.720   2.484   5.191
 6201SOL    HW219146   4.881   2.492   5.164
 6202SOL     OW19147   4.951   3.432   4.517
 6202SOL    HW119148   4.972   3.506   4.452
 6202SOL    HW219149   5.019   3.432   4.590
 6203SOL     OW19150   4.183   3.014   4.465
 6203SOL    HW119151   4.112   2.987   4.530
 6203SOL    HW219152   4.157   2.986   4.372
 6204SOL     OW19153   4.995   3.659   4.315
 6204SOL    HW119154   5.039   3.723   4.251
 6204SOL    HW219155   4.945   3.711   4.385
 6205SOL     OW19156   4.756   2.411   3.740
 6205SOL    HW119157   4.715   2.493   3.701
 6205SOL    HW219158   4.820   2.437   3.813
 6206SOL     OW19159   3.802   2.418   5.110
 6206SOL    HW119160   3.894   2.417   5.069
 6206SOL    HW219161   3.796   2.492   5.177
 6207SOL     OW19162   4.285   2.084   4.871
 6207SOL    HW119163   4.323   2.000   4.908
 6207SOL    HW219164   4.197   2.103   4.915
 6208SOL     OW19165   4.590   2.316   4.366
 6208SOL    HW119166   4.558   2.388   4.304
 6208SOL    HW219167   4.614   2.235   4.313
 6209SOL     OW19168   4.741   1.901   4.477
 6209SOL    HW119169   4.669   1.906   4.408
 6209SOL    HW219170   4.717   1.832   4.546
 6210SOL     OW19171   5.153   3.035   4.591
 6210SOL    HW119172   5.098   2.951   4.584
 6210SOL    HW219173   5.179   3.064   4.499
 6211SOL     OW19174   4.212   3.247   3.898
 6211SOL    HW119175   4.125   3.232   3.945
 6211SOL    HW219176   4.195   3.273   3.803
 6212SOL     OW19177   5.114   2.437   3.802
 6212SOL    HW119178   5.060   2.416   3.883
 6212SOL    HW219179   5.205   2.396   3.811
 6213SOL     OW19180   4.251   2.118   4.052
 6213SOL    HW119181   4.278   2.059   3.977
 6213SOL    HW219182   4.251   2.213   4.021
 6214SOL     OW19183   4.788   3.209   5.064
 6214SOL    HW119184   4.708   3.186   5.119
 6214SOL    HW219185   4.871   3.183   5.113
 6215SOL     OW19186   5.316   3.491   5.349
 6215SOL    HW119187   5.343   3.525   5.259
 6215SOL    HW219188   5.395   3.453   5.395
 6216SOL     OW19189   4.835   3.057   4.824
 6216SOL    HW119190   4.795   3.101   4.905
 6216SOL    HW219191   4.794   3.094   4.741
 6217SOL     OW19192   4.639   1.951   5.126
 6217SOL    HW119193   4.664   1.931   5.031
 6217SOL    HW219194   4.711   2.007   5.168
 6218SOL     OW19195   4.704   2.978   5.443
 6218SOL    HW119196   4.605   2.984   5.453
 6218SOL    HW219197   4.727   2.898   5.387
 6219SOL     OW19198   4.429   2.912   4.092
 6219SOL    HW119199   4.415   2.919   4.191
 6219SOL    HW219200   4.513   2.861   4.074
 6220SOL     OW19201   4.134   2.675   4.975
 6220SOL    HW119202   4.220   2.687   5.025
 6220SOL    HW219203   4.092   2.588   5.002
 6221SOL     OW19204   4.998   2.248   4.986
 6221SOL    HW119205   5.019   2.322   5.050
 6221SOL    HW219206   4.909   2.265   4.943
 6222SOL     OW19207   3.788   3.426   5.055
 6222SOL    HW119208   3.742   3.508   5.021
 6222SOL    HW219209   3.886   3.445   5.064
 6223SOL     OW19210   4.091   2.962   4.225
 6223SOL    HW119211   4.084   3.045   4.169
 6223SOL    HW219212   4.095   2.882   4.165
 6224SOL     OW19213   4.290   2.399   4.589
 6224SOL    HW119214   4.302   2.465   4.515
 6224SOL    HW219215   4.336   2.433   4.672
 6225SOL     OW19216   4.976   3.210   4.112
 6225SOL    HW119217   5.026   3.287   4.152
 6225SOL    HW219218   4.881   3.212   4.144
 6226SOL     OW19219   4.996   3.307   4.866
 6226SOL    HW119220   5.043   3.320   4.953
 6226SOL    HW219221   4.930   3.233   4.875
 6227SOL     OW19222   4.078   3.372   5.053
 6227SOL    HW119223   4.057   3.328   4.966
 6227SOL    HW219224   4.175   3.398   5.056
 6228SOL     OW19225   4.126   2.613   5.322
 6228SOL    HW119226   4.194   2.668   5.275
 6228SOL    HW219227   4.166   2.525   5.349
 6229SOL     OW19228   4.737   1.967   5.494
 6229SOL    HW119229   4.743   2.052   5.442
 6229SOL    HW219230   4.769   1.891   5.437
 6230SOL     OW19231   4.228   1.912   5.464
 6230SOL    HW119232   4.186   1.855   5.394
 6230SOL    HW219233   4.162   1.981   5.496
 6231SOL     OW19234   4.297   2.732   4.753
 6231SOL    HW119235   4.341   2.821   4.744
 6231SOL    HW219236   4.234   2.732   4.830
 6232SOL     OW19237   5.084   2.724   4.769
 6232SOL    HW119238   5.009   2.724   4.703
 6232SOL    HW219239   5.121   2.632   4.778
 6233SOL     OW19240   4.933   2.387   3.999
 6233SOL    HW119241   4.946   2.303   4.053
 6233SOL    HW219242   4.904   2.461   4.059
 6234SOL     OW19243   4.031   2.075   4.955
 6234SOL    HW119244   4.008   2.112   5.045
 6234SOL    HW219245   4.001   1.980   4.949
 6235SOL     OW19246   3.761   3.172   5.006
 6235SOL    HW119247   3.814   3.123   5.074
 6235SOL    HW219248   3.783   3.270   5.011
 6236SOL     OW19249   4.456   2.496   4.788
 6236SOL    HW119250   4.515   2.470   4.712
 6236SOL    HW219251   4.428   2.592   4.777
 6237SOL     OW19252   4.031   1.925   4.342
 6237SOL    HW119253   4.020   2.019   4.375
 6237SOL    HW219254   4.026   1.862   4.419
 6238SOL     OW19255   5.346   2.229   4.098
 6238SOL    HW119256   5.348   2.153   4.162
 6238SOL    HW219257   5.298   2.306   4.138
 6239SOL     OW19258   4.747   2.628   4.690
 6239SOL    HW119259   4.762   2.649   4.786
 6239SOL    HW219260   4.717   2.533   4.681
 6240SOL     OW19261   4.704   3.435   5.424
 6240SOL    HW119262   4.684   3.479   5.336
 6240SOL    HW219263   4.743   3.344   5.408
 6241SOL     OW19264   4.074   2.760   5.528
 6241SOL    HW119265   4.150   2.804   5.576
 6241SOL    HW219266   4.109   2.713   5.446
 6242SOL     OW19267   5.027   2.700   3.766
 6242SOL    HW119268   5.061   2.607   3.781
 6242SOL    HW219269   5.045   2.727   3.671
 6243SOL     OW19270   4.792   3.195   4.573
 6243SOL    HW119271   4.799   3.111   4.518
 6243SOL    HW219272   4.854   3.264   4.537
 6244SOL     OW19273   4.043   2.672   4.673
 6244SOL    HW119274   4.136   2.708   4.678
 6244SOL    HW219275   4.037   2.587   4.725
 6245SOL     OW19276   4.063   2.371   4.730
 6245SOL    HW119277   4.011   2.288   4.713
 6245SOL    HW219278   4.140   2.376   4.666
 6246SOL     OW19279   4.862   2.242   5.402
 6246SOL    HW119280   4.817   2.305   5.466
 6246SOL    HW219281   4.955   2.273   5.385
 6247SOL     OW19282   4.884   2.069   5.201
 6247SOL    HW119283   4.884   2.133   5.278
 6247SOL    HW219284   4.912   2.117   5.118
 6248SOL     OW19285   3.732   3.188   3.924
 6248SOL    HW119286   3.639   3.209   3.893
 6248SOL    HW219287   3.742   3.089   3.937
 6249SOL     OW19288   3.812   3.663   4.651
 6249SOL    HW119289   3.770   3.577   4.624
 6249SOL    HW219290   3.906   3.666   4.617
 6250SOL     OW19291   4.228   3.430   4.634
 6250SOL    HW119292   4.294   3.504   4.643
 6250SOL    HW219293   4.272   3.351   4.592
 6251SOL     OW19294   4.726   2.658   4.962
 6251SOL    HW119295   4.767   2.626   5.048
 6251SOL    HW219296   4.630   2.631   4.959
 6252SOL     OW19297   3.764   2.406   4.838
 6252SOL    HW119298   3.849   2.373   4.797
 6252SOL    HW219299   3.777   2.421   4.936
 6253SOL     OW19300   3.913   2.382   5.446
 6253SOL    HW119301   3.972   2.342   5.376
 6253SOL    HW219302   3.855   2.453   5.405
 6254SOL     OW19303   5.093   2.812   5.384
 6254SOL    HW119304   5.132   2.901   5.404
 6254SOL    HW219305   5.103   2.792   5.287
 6255SOL     OW19306   4.539   2.434   4.049
 6255SOL    HW119307   4.546   2.345   4.003
 6255SOL    HW219308   4.445   2.468   4.041
 6256SOL     OW19309   3.976   3.426   5.468
 6256SOL    HW119310   3.946   3.483   5.544
 6256SOL    HW219311   3.969   3.329   5.494
 6257SOL     OW19312   4.395   2.326   4.993
 6257SOL    HW119313   4.361   2.237   4.963
 6257SOL    HW219314   4.421   2.380   4.913
 6258SOL     OW19315   4.654   3.540   5.189
 6258SOL    HW119316   4.630   3.522   5.094
 6258SOL    HW219317   4.684   3.634   5.199
 6259SOL     OW19318   4.197   2.362   3.915
 6259SOL    HW119319   4.258   2.442   3.919
 6259SOL    HW219320   4.102   2.393   3.922
 6260SOL     OW19321   3.883   2.999   5.190
 6260SOL    HW119322   3.905   2.938   5.266
 6260SOL    HW219323   3.893   2.950   5.104
 6261SOL     OW19324   5.071   2.921   4.958
 6261SOL    HW119325   5.095   2.858   4.884
 6261SOL    HW219326   4.981   2.961   4.940
 6262SOL     OW19327   5.026   2.717   4.033
 6262SOL    HW119328   4.940   2.686   4.075
 6262SOL    HW219329   5.022   2.703   3.934
 6263SOL     OW19330   4.976   3.593   4.852
 6263SOL    HW119331   5.060   3.598   4.798
 6263SOL    HW219332   4.953   3.497   4.870
 6264SOL     OW19333   3.807   3.120   4.746
 6264SOL    HW119334   3.802   3.119   4.846
 6264SOL    HW219335   3.724   3.079   4.708
 6265SOL     OW19336   4.412   3.524   5.440
 6265SOL    HW119337   4.356   3.605   5.449
 6265SOL    HW219338   4.464   3.528   5.354
 6266SOL     OW19339   5.450   1.997   4.247
 6266SOL    HW119340   5.523   1.980   4.180
 6266SOL    HW219341   5.419   1.910   4.285
 6267SOL     OW19342   5.112   3.435   4.201
 6267SOL    HW119343   5.179   3.447   4.127
 6267SOL    HW219344   5.072   3.524   4.224
 6268SOL     OW19345   3.854   3.656   5.575
 6268SOL    HW119346   3.813   3.582   5.628
 6268SOL    HW219347   3.918   3.707   5.633
 6269SOL     OW19348   5.004   2.789   4.396
 6269SOL    HW119349   5.064   2.708   4.398
 6269SOL    HW219350   5.044   2.858   4.336
 6270SOL     OW19351   4.554   3.135   5.146
 6270SOL    HW119352   4.549   3.168   5.241
 6270SOL    HW219353   4.468   3.154   5.100
 6271SOL     OW19354   4.396   3.478   3.878
 6271SOL    HW119355   4.405   3.488   3.779
 6271SOL    HW219356   4.356   3.389   3.899
 6272SOL     OW19357   3.987   2.188   4.444
 6272SOL    HW119358   3.908   2.239   4.410
 6272SOL    HW219359   3.978   2.173   4.542
 6273SOL     OW19360   4.918   3.474   3.755
 6273SOL    HW119361   4.924   3.381   3.792
 6273SOL    HW219362   4.859   3.474   3.675
 6274SOL     OW19363   4.546   2.864   5.096
 6274SOL    HW119364   4.586   2.863   5.004
 6274SOL    HW219365   4.556   2.956   5.136
 6275SOL     OW19366   4.640   2.772   4.015
 6275SOL    HW119367   4.703   2.810   3.947
 6275SOL    HW219368   4.680   2.689   4.054
 6276SOL     OW19369   4.096   3.150   5.214
 6276SOL    HW119370   4.083   3.243   5.180
 6276SOL    HW219371   4.012   3.098   5.201
 6277SOL     OW19372   4.763   2.960   4.420
 6277SOL    HW119373   4.693   2.913   4.474
 6277SOL    HW219374   4.822   2.892   4.377
 6278SOL     OW19375   4.738   2.098   4.695
 6278SOL    HW119376   4.730   2.062   4.602
 6278SOL    HW219377   4.736   2.022   4.760
 6279SOL     OW19378   4.314   3.349   4.215
 6279SOL    HW119379   4.356   3.291   4.145
 6279SOL    HW219380   4.270   3.428   4.171
 6280SOL     OW19381   3.979   3.210   4.014
 6280SOL    HW119382   3.883   3.211   3.987
 6280SOL    HW219383   3.991   3.263   4.098
 6281SOL     OW19384   3.829   2.875   5.450
 6281SOL    HW119385   3.752   2.842   5.504
 6281SOL    HW219386   3.914   2.845   5.492
 6282SOL     OW19387   4.396   2.065   5.213
 6282SOL    HW119388   4.486   2.049   5.173
 6282SOL    HW219389   4.404   2.070   5.312
 6283SOL     OW19390   3.799   2.207   3.757
 6283SOL    HW119391   3.707   2.179   3.728
 6283SOL    HW219392   3.830   2.284   3.701
 6284SOL     OW19393   5.164   2.718   5.122
 6284SOL    HW119394   5.107   2.770   5.059
 6284SOL    HW219395   5.260   2.730   5.098
 6285SOL     OW19396   3.796   2.028   4.042
 6285SOL    HW119397   3.779   2.111   3.988
 6285SOL    HW219398   3.886   1.991   4.020
 6286SOL     OW19399   4.907   3.197   3.843
 6286SOL    HW119400   4.808   3.186   3.845
 6286SOL    HW219401   4.941   3.212   3.936
 6287SOL     OW19402   4.337   2.704   5.155
 6287SOL    HW119403   4.393   2.785   5.138
 6287SOL    HW219404   4.396   2.624   5.158
 6288SOL     OW19405   4.440   2.427   5.432
 6288SOL    HW119406   4.459   2.492   5.506
 6288SOL    HW219407   4.500   2.347   5.441
 6289SOL     OW19408   5.174   3.082   5.357
 6289SOL    HW119409   5.165   3.072   5.456
 6289SOL    HW219410   5.270   3.075   5.331
 6290SOL     OW19411   4.114   3.603   5.284
 6290SOL    HW119412   4.023   3.644   5.282
 6290SOL    HW219413   4.107   3.509   5.316
 6291SOL     OW19414   4.949   2.187   4.173
 6291SOL    HW119415   5.014   2.113   4.162
 6291SOL    HW219416   4.969   2.237   4.257
 6292SOL     OW19417   4.318   2.607   4.376
 6292SOL    HW119418   4.368   2.692   4.357
 6292SOL    HW219419   4.230   2.609   4.328
 6293SOL     OW19420   4.583   3.236   3.740
 6293SOL    HW119421   4.537   3.251   3.828
 6293SOL    HW219422   4.627   3.321   3.710
 6294SOL     OW19423   4.385   3.652   4.677
 6294SOL    HW119424   4.339   3.740   4.664
 6294SOL    HW219425   4.484   3.664   4.670
 6295SOL     OW19426   4.583   2.818   4.585
 6295SOL    HW119427   4.637   2.749   4.633
 6295SOL    HW219428   4.551   2.887   4.651
 6296SOL     OW19429   4.807   2.846   3.811
 6296SOL    HW119430   4.784   2.899   3.729
 6296SOL    HW219431   4.888   2.790   3.792
 6297SOL     OW19432   3.945   3.176   5.568
 6297SOL    HW119433   3.880   3.103   5.547
 6297SOL    HW219434   3.949   3.190   5.666
 6298SOL     OW19435   3.803   3.102   4.377
 6298SOL    HW119436   3.802   3.055   4.465
 6298SOL    HW219437   3.885   3.074   4.326
 6299SOL     OW19438   4.396   3.253   5.348
 6299SOL    HW119439   4.318   3.203   5.386
 6299SOL    HW219440   4.393   3.348   5.379
 6300SOL     OW19441   4.152   2.286   4.244
 6300SOL    HW119442   4.182   2.214   4.182
 6300SOL    HW219443   4.113   2.246   4.327
 6301SOL     OW19444   5.429   3.349   4.828
 6301SOL    HW119445   5.336   3.324   4.801
 6301SOL    HW219446   5.455   3.299   4.910
 6302SOL     OW19447   4.041   2.409   5.004
 6302SOL    HW119448   4.079   2.350   5.076
 6302SOL    HW219449   4.081   2.383   4.916
 6303SOL     OW19450   4.536   3.448   4.411
 6303SOL    HW119451   4.568   3.458   4.317
 6303SOL    HW219452   4.457   3.386   4.413
 6304SOL     OW19453   5.148   2.076   4.836
 6304SOL    HW119454   5.200   2.011   4.891
 6304SOL    HW219455   5.099   2.139   4.897
 6305SOL     OW19456   4.725   1.896   4.878
 6305SOL    HW119457   4.662   1.824   4.847
 6305SOL    HW219458   4.818   1.860   4.878
 6306SOL     OW19459   4.494   3.192   4.025
 6306SOL    HW119460   4.448   3.105   4.042
 6306SOL    HW219461   4.585   3.189   4.066
 6307SOL     OW19462   4.342   3.429   5.008
 6307SOL    HW119463   4.337   3.511   5.065
 6307SOL    HW219464   4.431   3.426   4.963
 6308SOL     OW19465   5.076   1.914   3.892
 6308SOL    HW119466   5.111   1.873   3.808
 6308SOL    HW219467   4.986   1.876   3.912
 6309SOL     OW19468   5.024   2.315   4.415
 6309SOL    HW119469   4.965   2.395   4.419
 6309SOL    HW219470   5.039   2.280   4.508
 6310SOL     OW19471   5.317   2.083   4.606
 6310SOL    HW119472   5.233   2.082   4.660
 6310SOL    HW219473   5.319   2.166   4.550
 6311SOL     OW19474   3.763   2.939   4.024
 6311SOL    HW119475   3.862   2.928   4.015
 6311SOL    HW219476   3.723   2.853   4.056
 6312SOL     OW19477   4.599   3.508   4.061
 6312SOL    HW119478   4.522   3.473   4.007
 6312SOL    HW219479   4.567   3.579   4.123
 6313SOL     OW19480   3.954   2.490   5.699
 6313SOL    HW119481   3.861   2.488   5.736
 6313SOL    HW219482   3.955   2.451   5.607
 6314SOL     OW19483   3.949   2.137   6.582
 6314SOL    HW119484   3.984   2.120   6.674
 6314SOL    HW219485   3.861   2.092   6.570
 6315SOL     OW19486   3.743   2.230   6.233
 6315SOL    HW119487   3.661   2.273   6.272
 6315SOL    HW219488   3.715   2.157   6.170
 6316SOL     OW19489   4.293   3.137   6.751
 6316SOL    HW119490   4.200   3.130   6.714
 6316SOL    HW219491   4.304   3.226   6.795
 6317SOL     OW19492   5.279   3.373   6.289
 6317SOL    HW119493   5.222   3.357   6.370
 6317SOL    HW219494   5.220   3.383   6.209
 6318SOL     OW19495   4.859   2.565   6.303
 6318SOL    HW119496   4.916   2.643   6.278
 6318SOL    HW219497   4.799   2.591   6.379
 6319SOL     OW19498   4.492   3.006   6.609
 6319SOL    HW119499   4.414   3.023   6.669
 6319SOL    HW219500   4.526   3.093   6.573
 6320SOL     OW19501   4.574   2.660   7.409
 6320SOL    HW119502   4.570   2.736   7.474
 6320SOL    HW219503   4.596   2.696   7.318
 6321SOL     OW19504   4.409   2.874   6.251
 6321SOL    HW119505   4.478   2.858   6.321
 6321SOL    HW219506   4.336   2.931   6.289
 6322SOL     OW19507   4.410   3.023   7.389
 6322SOL    HW119508   4.470   3.102   7.403
 6322SOL    HW219509   4.324   3.054   7.348
 6323SOL     OW19510   4.059   3.297   6.647
 6323SOL    HW119511   3.981   3.266   6.594
 6323SOL    HW219512   4.117   3.355   6.590
 6324SOL     OW19513   5.184   3.367   6.925
 6324SOL    HW119514   5.208   3.461   6.951
 6324SOL    HW219515   5.168   3.313   7.007
 6325SOL     OW19516   4.162   2.254   7.085
 6325SOL    HW119517   4.244   2.198   7.094
 6325SOL    HW219518   4.081   2.196   7.089
 6326SOL     OW19519   3.955   3.575   6.069
 6326SOL    HW119520   3.989   3.652   6.123
 6326SOL    HW219521   3.999   3.575   5.979
 6327SOL     OW19522   4.851   3.203   7.276
 6327SOL    HW119523   4.898   3.203   7.364
 6327SOL    HW219524   4.803   3.116   7.265
 6328SOL     OW19525   3.954   3.296   6.124
 6328SOL    HW119526   3.928   3.392   6.124
 6328SOL    HW219527   3.883   3.242   6.169
 6329SOL     OW19528   3.964   2.953   6.472
 6329SOL    HW119529   3.978   2.869   6.524
 6329SOL    HW219530   3.909   3.017   6.527
 6330SOL     OW19531   4.344   3.648   7.025
 6330SOL    HW119532   4.252   3.631   7.060
 6330SOL    HW219533   4.372   3.740   7.051
 6331SOL     OW19534   4.330   2.826   5.709
 6331SOL    HW119535   4.337   2.910   5.655
 6331SOL    HW219536   4.376   2.839   5.797
 6332SOL     OW19537   3.846   2.505   6.149
 6332SOL    HW119538   3.801   2.417   6.166
 6332SOL    HW219539   3.845   2.559   6.233
 6333SOL     OW19540   3.751   3.458   5.703
 6333SOL    HW119541   3.732   3.362   5.724
 6333SOL    HW219542   3.718   3.516   5.778
 6334SOL     OW19543   5.413   2.784   6.198
 6334SOL    HW119544   5.508   2.755   6.206
 6334SOL    HW219545   5.405   2.849   6.123
 6335SOL     OW19546   3.837   2.599   7.183
 6335SOL    HW119547   3.925   2.586   7.228
 6335SOL    HW219548   3.824   2.696   7.161
 6336SOL     OW19549   4.337   3.227   6.312
 6336SOL    HW119550   4.288   3.140   6.321
 6336SOL    HW219551   4.314   3.270   6.225
 6337SOL     OW19552   5.017   3.090   7.009
 6337SOL    HW119553   5.054   3.017   6.951
 6337SOL    HW219554   5.069   3.095   7.094
 6338SOL     OW19555   4.533   1.866   6.088
 6338SOL    HW119556   4.573   1.957   6.079
 6338SOL    HW219557   4.433   1.874   6.094
 6339SOL     OW19558   3.921   2.838   6.850
 6339SOL    HW119559   4.010   2.793   6.836
 6339SOL    HW219560   3.848   2.773   6.831
 6340SOL     OW19561   4.911   3.654   7.202
 6340SOL    HW119562   4.935   3.714   7.126
 6340SOL    HW219563   4.918   3.559   7.172
 6341SOL     OW19564   4.041   2.113   7.387
 6341SOL    HW119565   4.112   2.184   7.393
 6341SOL    HW219566   3.953   2.152   7.415
 6342SOL     OW19567   5.190   3.279   6.539
 6342SOL    HW119568   5.131   3.285   6.619
 6342SOL    HW219569   5.175   3.191   6.493
 6343SOL     OW19570   4.322   2.591   5.856
 6343SOL    HW119571   4.346   2.660   5.788
 6343SOL    HW219572   4.244   2.624   5.910
 6344SOL     OW19573   5.005   2.207   6.530
 6344SOL    HW119574   4.919   2.157   6.517
 6344SOL    HW219575   5.067   2.153   6.586
 6345SOL     OW19576   4.531   2.467   7.051
 6345SOL    HW119577   4.484   2.464   7.140
 6345SOL    HW219578   4.480   2.412   6.985
 6346SOL     OW19579   5.118   2.331   7.260
 6346SOL    HW119580   5.098   2.374   7.348
 6346SOL    HW219581   5.196   2.269   7.269
 6347SOL     OW19582   4.697   2.752   7.158
 6347SOL    HW119583   4.743   2.668   7.129
 6347SOL    HW219584   4.641   2.786   7.083
 6348SOL     OW19585   4.715   2.272   6.828
 6348SOL    HW119586   4.638   2.306   6.882
 6348SOL    HW219587   4.681   2.221   6.749
 6349SOL     OW19588   4.765   2.563   6.015
 6349SOL    HW119589   4.791   2.559   6.111
 6349SOL    HW219590   4.680   2.512   6.001
 6350SOL     OW19591   3.800   2.673   6.375
 6350SOL    HW119592   3.899   2.661   6.384
 6350SOL    HW219593   3.776   2.768   6.396
 6351SOL     OW19594   3.854   3.683   7.157
 6351SOL    HW119595   3.844   3.668   7.256
 6351SOL    HW219596   3.768   3.719   7.121
 6352SOL     OW19597   4.589   2.210   5.781
 6352SOL    HW119598   4.648   2.273   5.732
 6352SOL    HW219599   4.608   2.116   5.752
 6353SOL     OW19600   5.086   3.006   6.131
 6353SOL    HW119601   5.169   2.977   6.083
 6353SOL    HW219602   5.037   3.073   6.075
 6354SOL     OW19603   4.274   2.058   6.471
 6354SOL    HW119604   4.269   2.053   6.571
 6354SOL    HW219605   4.276   2.154   6.442
 6355SOL     OW19606   4.732   3.318   6.063
 6355SOL    HW119607   4.686   3.390   6.011
 6355SOL    HW219608   4.728   3.338   6.161
 6356SOL     OW19609   4.075   3.663   6.439
 6356SOL    HW119610   4.125   3.577   6.445
 6356SOL    HW219611   4.140   3.740   6.436
 6357SOL     OW19612   4.951   3.412   7.092
 6357SOL    HW119613   4.957   3.335   7.156
 6357SOL    HW219614   4.899   3.386   7.012
 6358SOL     OW19615   4.045   2.805   5.828
 6358SOL    HW119616   4.127   2.844   5.786
 6358SOL    HW219617   4.018   2.723   5.779
 6359SOL     OW19618   4.185   3.128   7.313
 6359SOL    HW119619   4.135   3.129   7.227
 6359SOL    HW219620   4.122   3.110   7.389
 6360SOL     OW19621   4.835   3.638   5.823
 6360SOL    HW119622   4.775   3.576   5.873
 6360SOL    HW219623   4.866   3.594   5.738
 6361SOL     OW19624   3.926   2.147   7.084
 6361SOL    HW119625   3.846   2.207   7.071
 6361SOL    HW219626   3.916   2.098   7.170
 6362SOL     OW19627   4.188   3.605   5.909
 6362SOL    HW119628   4.221   3.644   5.995
 6362SOL    HW219629   4.264   3.598   5.844
 6363SOL     OW19630   5.124   1.969   6.012
 6363SOL    HW119631   5.100   1.932   5.922
 6363SOL    HW219632   5.223   1.985   6.016
 6364SOL     OW19633   3.973   3.647   6.827
 6364SOL    HW119634   4.030   3.582   6.877
 6364SOL    HW219635   3.957   3.614   6.734
 6365SOL     OW19636   4.664   3.560   6.490
 6365SOL    HW119637   4.744   3.503   6.511
 6365SOL    HW219638   4.615   3.520   6.413
 6366SOL     OW19639   4.106   2.562   6.066
 6366SOL    HW119640   4.151   2.472   6.063
 6366SOL    HW219641   4.012   2.551   6.099
 6367SOL     OW19642   4.338   1.984   5.703
 6367SOL    HW119643   4.436   1.962   5.710
 6367SOL    HW219644   4.307   1.967   5.610
 6368SOL     OW19645   4.505   2.126   7.335
 6368SOL    HW119646   4.572   2.065   7.378
 6368SOL    HW219647   4.432   2.145   7.400
 6369SOL     OW19648   4.612   3.376   6.781
 6369SOL    HW119649   4.589   3.351   6.687
 6369SOL    HW219650   4.673   3.307   6.820
 6370SOL     OW19651   5.075   2.452   7.019
 6370SOL    HW119652   5.103   2.409   7.104
 6370SOL    HW219653   5.100   2.548   7.020
 6371SOL     OW19654   4.527   3.264   6.510
 6371SOL    HW119655   4.617   3.278   6.468
 6371SOL    HW219656   4.456   3.266   6.439
 6372SOL     OW19657   4.646   2.365   6.485
 6372SOL    HW119658   4.621   2.356   6.389
 6372SOL    HW219659   4.694   2.283   6.516
 6373SOL     OW19660   4.263   1.926   6.098
 6373SOL    HW119661   4.182   1.927   6.156
 6373SOL    HW219662   4.266   2.009   6.043
 6374SOL     OW19663   5.158   3.050   5.627
 6374SOL    HW119664   5.190   2.974   5.684
 6374SOL    HW219665   5.066   3.077   5.657
 6375SOL     OW19666   4.021   1.897   5.757
 6375SOL    HW119667   4.070   1.981   5.736
 6375SOL    HW219668   4.083   1.832   5.802
 6376SOL     OW19669   4.659   2.098   6.066
 6376SOL    HW119670   4.611   2.139   5.988
 6376SOL    HW219671   4.758   2.096   6.047
 6377SOL     OW19672   4.800   2.545   7.050
 6377SOL    HW119673   4.720   2.484   7.053
 6377SOL    HW219674   4.881   2.492   7.026
 6378SOL     OW19675   4.951   3.432   6.379
 6378SOL    HW119676   4.972   3.506   6.314
 6378SOL    HW219677   5.019   3.432   6.452
 6379SOL     OW19678   4.183   3.014   6.327
 6379SOL    HW119679   4.112   2.987   6.392
 6379SOL    HW219680   4.157   2.986   6.234
 6380SOL     OW19681   4.995   3.659   6.177
 6380SOL    HW119682   5.039   3.723   6.113
 6380SOL    HW219683   4.945   3.711   6.247
 6381SOL     OW19684   4.756   2.411   5.602
 6381SOL    HW119685   4.715   2.493   5.563
 6381SOL    HW219686   4.820   2.437   5.675
 6382SOL     OW19687   3.802   2.418   6.972
 6382SOL    HW119688   3.894   2.417   6.931
 6382SOL    HW219689   3.796   2.492   7.039
 6383SOL     OW19690   4.285   2.084   6.733
 6383SOL    HW119691   4.323   2.000   6.770
 6383SOL    HW219692   4.197   2.103   6.777
 6384SOL     OW19693   4.590   2.316   6.228
 6384SOL    HW119694   4.558   2.388   6.166
 6384SOL    HW219695   4.614   2.235   6.175
 6385SOL     OW19696   4.741   1.901   6.339
 6385SOL    HW119697   4.669   1.906   6.270
 6385SOL    HW219698   4.717   1.832   6.408
 6386SOL     OW19699   5.153   3.035   6.453
 6386SOL    HW119700   5.098   2.951   6.446
 6386SOL    HW219701   5.179   3.064   6.361
 6387SOL     OW19702   4.212   3.247   5.760
 6387SOL    HW119703   4.125   3.232   5.807
 6387SOL    HW219704   4.195   3.273   5.665
 6388SOL     OW19705   5.114   2.437   5.664
 6388SOL    HW119706   5.060   2.416   5.745
 6388SOL    HW219707   5.205   2.396   5.673
 6389SOL     OW19708   4.251   2.118   5.914
 6389SOL    HW119709   4.278   2.059   5.839
 6389SOL    HW219710   4.251   2.213   5.883
 6390SOL     OW19711   4.788   3.209   6.926
 6390SOL    HW119712   4.708   3.186   6.981
 6390SOL    HW219713   4.871   3.183   6.975
 6391SOL     OW19714   5.316   3.491   7.211
 6391SOL    HW119715   5.343   3.525   7.121
 6391SOL    HW219716   5.395   3.453   7.257
 6392SOL     OW19717   4.835   3.057   6.686
 6392SOL    HW119718   4.795   3.101   6.767
 6392SOL    HW219719   4.794   3.094   6.603
 6393SOL     OW19720   4.639   1.951   6.988
 6393SOL    HW119721   4.664   1.931   6.893
 6393SOL    HW219722   4.711   2.007   7.030
 6394SOL     OW19723   4.704   2.978   7.305
 6394SOL    HW119724   4.605   2.984   7.315
 6394SOL    HW219725   4.727   2.898   7.249
 6395SOL     OW19726   4.429   2.912   5.954
 6395SOL    HW119727   4.415   2.919   6.053
 6395SOL    HW219728   4.513   2.861   5.936
 6396SOL     OW19729   4.134   2.675   6.837
 6396SOL    HW119730   4.220   2.687   6.887
 6396SOL    HW219731   4.092   2.588   6.864
 6397SOL     OW19732   4.998   2.248   6.848
 6397SOL    HW119733   5.019   2.322   6.912
 6397SOL    HW219734   4.909   2.265   6.805
 6398SOL     OW19735   3.788   3.426   6.917
 6398SOL    HW119736   3.742   3.508   6.883
 6398SOL    HW219737   3.886   3.445   6.926
 6399SOL     OW19738   4.091   2.962   6.087
 6399SOL    HW119739   4.084   3.045   6.031
 6399SOL    HW219740   4.095   2.882   6.027
 6400SOL     OW19741   4.290   2.399   6.451
 6400SOL    HW119742   4.302   2.465   6.377
 6400SOL    HW219743   4.336   2.433   6.534
 6401SOL     OW19744   4.976   3.210   5.974
 6401SOL    HW119745   5.026   3.287   6.014
 6401SOL    HW219746   4.881   3.212   6.006
 6402SOL     OW19747   4.996   3.307   6.728
 6402SOL    HW119748   5.043   3.320   6.815
 6402SOL    HW219749   4.930   3.233   6.737
 6403SOL     OW19750   4.078   3.372   6.915
 6403SOL    HW119751   4.057   3.328   6.828
 6403SOL    HW219752   4.175   3.398   6.918
 6404SOL     OW19753   4.126   2.613   7.184
 6404SOL    HW119754   4.194   2.668   7.137
 6404SOL    HW219755   4.166   2.525   7.211
 6405SOL     OW19756   4.737   1.967   7.356
 6405SOL    HW119757   4.743   2.052   7.304
 6405SOL    HW219758   4.769   1.891   7.299
 6406SOL     OW19759   4.228   1.912   7.326
 6406SOL    HW119760   4.186   1.855   7.256
 6406SOL    HW219761   4.162   1.981   7.358
 6407SOL     OW19762   4.297   2.732   6.615
 6407SOL    HW119763   4.341   2.821   6.606
 6407SOL    HW219764   4.234   2.732   6.692
 6408SOL     OW19765   5.084   2.724   6.631
 6408SOL    HW119766   5.009   2.724   6.565
 6408SOL    HW219767   5.121   2.632   6.640
 6409SOL     OW19768   4.933   2.387   5.861
 6409SOL    HW119769   4.946   2.303   5.915
 6409SOL    HW219770   4.904   2.461   5.921
 6410SOL     OW19771   4.031   2.075   6.817
 6410SOL    HW119772   4.008   2.112   6.907
 6410SOL    HW219773   4.001   1.980   6.811
 6411SOL     OW19774   3.761   3.172   6.868
 6411SOL    HW119775   3.814   3.123   6.936
 6411SOL    HW219776   3.783   3.270   6.873
 6412SOL     OW19777   4.456   2.496   6.650
 6412SOL    HW119778   4.515   2.470   6.574
 6412SOL    HW219779   4.428   2.592   6.639
 6413SOL     OW19780   4.031   1.925   6.204
 6413SOL    HW119781   4.020   2.019   6.237
 6413SOL    HW219782   4.026   1.862   6.281
 6414SOL     OW19783   5.346   2.229   5.960
 6414SOL    HW119784   5.348   2.153   6.024
 6414SOL    HW219785   5.298   2.306   6.000
 6415SOL     OW19786   4.747   2.628   6.552
 6415SOL    HW119787   4.762   2.649   6.648
 6415SOL    HW219788   4.717   2.533   6.543
 6416SOL     OW19789   4.704   3.435   7.286
 6416SOL    HW119790   4.684   3.479   7.198
 6416SOL    HW219791   4.743   3.344   7.270
 6417SOL     OW19792   4.074   2.760   7.390
 6417SOL    HW119793   4.150   2.804   7.438
 6417SOL    HW219794   4.109   2.713   7.308
 6418SOL     OW19795   5.027   2.700   5.628
 6418SOL    HW119796   5.061   2.607   5.643
 6418SOL    HW219797   5.045   2.727   5.533
 6419SOL     OW19798   4.792   3.195   6.435
 6419SOL    HW119799   4.799   3.111   6.380
 6419SOL    HW219800   4.854   3.264   6.399
 6420SOL     OW19801   4.043   2.672   6.535
 6420SOL    HW119802   4.136   2.708   6.540
 6420SOL    HW219803   4.037   2.587   6.587
 6421SOL     OW19804   4.063   2.371   6.592
 6421SOL    HW119805   4.011   2.288   6.575
 6421SOL    HW219806   4.140   2.376   6.528
 6422SOL     OW19807   4.862   2.242   7.264
 6422SOL    HW119808   4.817   2.305   7.328
 6422SOL    HW219809   4.955   2.273   7.247
 6423SOL     OW19810   4.884   2.069   7.063
 6423SOL    HW119811   4.884   2.133   7.140
 6423SOL    HW219812   4.912   2.117   6.980
 6424SOL     OW19813   3.732   3.188   5.786
 6424SOL    HW119814   3.639   3.209   5.755
 6424SOL    HW219815   3.742   3.089   5.799
 6425SOL     OW19816   3.812   3.663   6.513
 6425SOL    HW119817   3.770   3.577   6.486
 6425SOL    HW219818   3.906   3.666   6.479
 6426SOL     OW19819   4.228   3.430   6.496
 6426SOL    HW119820   4.294   3.504   6.505
 6426SOL    HW219821   4.272   3.351   6.454
 6427SOL     OW19822   4.726   2.658   6.824
 6427SOL    HW119823   4.767   2.626   6.910
 6427SOL    HW219824   4.630   2.631   6.821
 6428SOL     OW19825   3.764   2.406   6.700
 6428SOL    HW119826   3.849   2.373   6.659
 6428SOL    HW219827   3.777   2.421   6.798
 6429SOL     OW19828   3.913   2.382   7.308
 6429SOL    HW119829   3.972   2.342   7.238
 6429SOL    HW219830   3.855   2.453   7.267
 6430SOL     OW19831   5.093   2.812   7.246
 6430SOL    HW119832   5.132   2.901   7.266
 6430SOL    HW219833   5.103   2.792   7.149
 6431SOL     OW19834   4.539   2.434   5.911
 6431SOL    HW119835   4.546   2.345   5.865
 6431SOL    HW219836   4.445   2.468   5.903
 6432SOL     OW19837   3.976   3.426   7.330
 6432SOL    HW119838   3.946   3.483   7.406
 6432SOL    HW219839   3.969   3.329   7.356
 6433SOL     OW19840   4.395   2.326   6.855
 6433SOL    HW119841   4.361   2.237   6.825
 6433SOL    HW219842   4.421   2.380   6.775
 6434SOL     OW19843   4.654   3.540   7.051
 6434SOL    HW119844   4.630   3.522   6.956
 6434SOL    HW219845   4.684   3.634   7.061
 6435SOL     OW19846   4.197   2.362   5.777
 6435SOL    HW119847   4.258   2.442   5.781
 6435SOL    HW219848   4.102   2.393   5.784
 6436SOL     OW19849   3.883   2.999   7.052
 6436SOL    HW119850   3.905   2.938   7.128
 6436SOL    HW219851   3.893   2.950   6.966
 6437SOL     OW19852   5.071   2.921   6.820
 6437SOL    HW119853   5.095   2.858   6.746
 6437SOL    HW219854   4.981   2.961   6.802
 6438SOL     OW19855   5.026   2.717   5.895
 6438SOL    HW119856   4.940   2.686   5.937
 6438SOL    HW219857   5.022   2.703   5.796
 6439SOL     OW19858   4.976   3.593   6.714
 6439SOL    HW119859   5.060   3.598   6.660
 6439SOL    HW219860   4.953   3.497   6.732
 6440SOL     OW19861   3.807   3.120   6.608
 6440SOL    HW119862   3.802   3.119   6.708
 6440SOL    HW219863   3.724   3.079   6.570
 6441SOL     OW19864   4.412   3.524   7.302
 6441SOL    HW119865   4.356   3.605   7.311
 6441SOL    HW219866   4.464   3.528   7.216
 6442SOL     OW19867   5.450   1.997   6.109
 6442SOL    HW119868   5.523   1.980   6.042
 6442SOL    HW219869   5.419   1.910   6.147
 6443SOL     OW19870   5.112   3.435   6.063
 6443SOL    HW119871   5.179   3.447   5.989
 6443SOL    HW219872   5.072   3.524   6.086
 6444SOL     OW19873   3.854   3.656   7.437
 6444SOL    HW119874   3.813   3.582   7.490
 6444SOL    HW219875   3.918   3.707   7.495
 6445SOL     OW19876   5.004   2.789   6.258
 6445SOL    HW119877   5.064   2.708   6.260
 6445SOL    HW219878   5.044   2.858   6.198
 6446SOL     OW19879   4.554   3.135   7.008
 6446SOL    HW119880   4.549   3.168   7.103
 6446SOL    HW219881   4.468   3.154   6.962
 6447SOL     OW19882   4.396   3.478   5.740
 6447SOL    HW119883   4.405   3.488   5.641
 6447SOL    HW219884   4.356   3.389   5.761
 6448SOL     OW19885   3.987   2.188   6.306
 6448SOL    HW119886   3.908   2.239   6.272
 6448SOL    HW219887   3.978   2.173   6.404
 6449SOL     OW19888   4.918   3.474   5.617
 6449SOL    HW119889   4.924   3.381   5.654
 6449SOL    HW219890   4.859   3.474   5.537
 6450SOL     OW19891   4.546   2.864   6.958
 6450SOL    HW119892   4.586   2.863   6.866
 6450SOL    HW219893   4.556   2.956   6.998
 6451SOL     OW19894   4.640   2.772   5.877
 6451SOL    HW119895   4.703   2.810   5.809
 6451SOL    HW219896   4.680   2.689   5.916
 6452SOL     OW19897   4.096   3.150   7.076
 6452SOL    HW119898   4.083   3.243   7.042
 6452SOL    HW219899   4.012   3.098   7.063
 6453SOL     OW19900   4.763   2.960   6.282
 6453SOL    HW119901   4.693   2.913   6.336
 6453SOL    HW219902   4.822   2.892   6.239
 6454SOL     OW19903   4.738   2.098   6.557
 6454SOL    HW119904   4.730   2.062   6.464
 6454SOL    HW219905   4.736   2.022   6.622
 6455SOL     OW19906   4.314   3.349   6.077
 6455SOL    HW119907   4.356   3.291   6.007
 6455SOL    HW219908   4.270   3.428   6.033
 6456SOL     OW19909   3.979   3.210   5.876
 6456SOL    HW119910   3.883   3.211   5.849
 6456SOL    HW219911   3.991   3.263   5.960
 6457SOL     OW19912   3.829   2.875   7.312
 6457SOL    HW119913   3.752   2.842   7.366
 6457SOL    HW219914   3.914   2.845   7.354
 6458SOL     OW19915   4.396   2.065   7.075
 6458SOL    HW119916   4.486   2.049   7.035
 6458SOL    HW219917   4.404   2.070   7.174
 6459SOL     OW19918   3.799   2.207   5.619
 6459SOL    HW119919   3.707   2.179   5.590
 6459SOL    HW219920   3.830   2.284   5.563
 6460SOL     OW19921   5.164   2.718   6.984
 6460SOL    HW119922   5.107   2.770   6.921
 6460SOL    HW219923   5.260   2.730   6.960
 6461SOL     OW19924   3.796   2.028   5.904
 6461SOL    HW119925   3.779   2.111   5.850
 6461SOL    HW219926   3.886   1.991   5.882
 6462SOL     OW19927   4.907   3.197   5.705
 6462SOL    HW119928   4.808   3.186   5.707
 6462SOL    HW219929   4.941   3.212   5.798
 6463SOL     OW19930   4.337   2.704   7.017
 6463SOL    HW119931   4.393   2.785   7.000
 6463SOL    HW219932   4.396   2.624   7.020
 6464SOL     OW19933   4.440   2.427   7.294
 6464SOL    HW119934   4.459   2.492   7.368
 6464SOL    HW219935   4.500   2.347   7.303
 6465SOL     OW19936   5.174   3.082   7.219
 6465SOL    HW119937   5.165   3.072   7.318
 6465SOL    HW219938   5.270   3.075   7.193
 6466SOL     OW19939   4.114   3.603   7.146
 6466SOL    HW119940   4.023   3.644   7.144
 6466SOL    HW219941   4.107   3.509   7.178
 6467SOL     OW19942   4.949   2.187   6.035
 6467SOL    HW119943   5.014   2.113   6.024
 6467SOL    HW219944   4.969   2.237   6.119
 6468SOL     OW19945   4.318   2.607   6.238
 6468SOL    HW119946   4.368   2.692   6.219
 6468SOL    HW219947   4.230   2.609   6.190
 6469SOL     OW19948   4.583   3.236   5.602
 6469SOL    HW119949   4.537   3.251   5.690
 6469SOL    HW219950   4.627   3.321   5.572
 6470SOL     OW19951   4.385   3.652   6.539
 6470SOL    HW119952   4.339   3.740   6.526
 6470SOL    HW219953   4.484   3.664   6.532
 6471SOL     OW19954   4.583   2.818   6.447
 6471SOL    HW119955   4.637   2.749   6.495
 6471SOL    HW219956   4.551   2.887   6.513
 6472SOL     OW19957   4.807   2.846   5.673
 6472SOL    HW119958   4.784   2.899   5.591
 6472SOL    HW219959   4.888   2.790   5.654
 6473SOL     OW19960   3.945   3.176   7.430
 6473SOL    HW119961   3.880   3.103   7.409
 6473SOL    HW219962   3.949   3.190   7.528
 6474SOL     OW19963   3.803   3.102   6.239
 6474SOL    HW119964   3.802   3.055   6.327
 6474SOL    HW219965   3.885   3.074   6.188
 6475SOL     OW19966   4.396   3.253   7.210
 6475SOL    HW119967   4.318   3.203   7.248
 6475SOL    HW219968   4.393   3.348   7.241
 6476SOL     OW19969   4.152   2.286   6.106
 6476SOL    HW119970   4.182   2.214   6.044
 6476SOL    HW219971   4.113   2.246   6.189
 6477SOL     OW19972   5.429   3.349   6.690
 6477SOL    HW119973   5.336   3.324   6.663
 6477SOL    HW219974   5.455   3.299   6.772
 6478SOL     OW19975   4.041   2.409   6.866
 6478SOL    HW119976   4.079   2.350   6.938
 6478SOL    HW219977   4.081   2.383   6.778
 6479SOL     OW19978   4.536   3.448   6.273
 6479SOL    HW119979   4.568   3.458   6.179
 6479SOL    HW219980   4.457   3.386   6.275
 6480SOL     OW19981   5.148   2.076   6.698
 6480SOL    HW119982   5.200   2.011   6.753
 6480SOL    HW219983   5.099   2.139   6.759
 6481SOL     OW19984   4.725   1.896   6.740
 6481SOL    HW119985   4.662   1.824   6.709
 6481SOL    HW219986   4.818   1.860   6.740
 6482SOL     OW19987   4.494   3.192   5.887
 6482SOL    HW119988   4.448   3.105   5.904
 6482SOL    HW219989   4.585   3.189   5.928
 6483SOL     OW19990   4.342   3.429   6.870
 6483SOL    HW119991   4.337   3.511   6.927
 6483SOL    HW219992   4.431   3.426   6.825
 6484SOL     OW19993   5.076   1.914   5.754
 6484SOL    HW119994   5.111   1.873   5.670
 6484SOL    HW219995   4.986   1.876   5.774
 6485SOL     OW19996   5.024   2.315   6.277
 6485SOL    HW119997   4.965   2.395   6.281
 6485SOL    HW219998   5.039   2.280   6.370
 6486SOL     OW19999   5.317   2.083   6.468
 6486SOL    HW120000   5.233   2.082   6.522
 6486SOL    HW220001   5.319   2.166   6.412
 6487SOL     OW20002   3.763   2.939   5.886
 6487SOL    HW120003   3.862   2.928   5.877
 6487SOL    HW220004   3.723   2.853   5.918
 6488SOL     OW20005   4.599   3.508   5.923
 6488SOL    HW120006   4.522   3.473   5.869
 6488SOL    HW220007   4.567   3.579   5.985
 6489SOL     OW20008   3.954   2.490   7.561
 6489SOL    HW120009   3.861   2.488   7.598
 6489SOL    HW220010   3.955   2.451   7.469
 6490SOL     OW20011   3.955   3.575   7.931
 6490SOL    HW120012   3.989   3.652   7.985
 6490SOL    HW220013   3.999   3.575   7.841
 6491SOL     OW20014   3.954   3.296   7.986
 6491SOL    HW120015   3.928   3.392   7.986
 6491SOL    HW220016   3.883   3.242   8.031
 6492SOL     OW20017   4.330   2.826   7.571
 6492SOL    HW120018   4.337   2.910   7.517
 6492SOL    HW220019   4.376   2.839   7.659
 6493SOL     OW20020   3.751   3.458   7.565
 6493SOL    HW120021   3.732   3.362   7.586
 6493SOL    HW220022   3.718   3.516   7.640
 6494SOL     OW20023   5.413   2.784   8.060
 6494SOL    HW120024   5.508   2.755   8.068
 6494SOL    HW220025   5.405   2.849   7.985
 6495SOL     OW20026   4.533   1.866   7.950
 6495SOL    HW120027   4.573   1.957   7.941
 6495SOL    HW220028   4.433   1.874   7.956
 6496SOL     OW20029   4.322   2.591   7.718
 6496SOL    HW120030   4.346   2.660   7.650
 6496SOL    HW220031   4.244   2.624   7.772
 6497SOL     OW20032   3.800   2.673   8.237
 6497SOL    HW120033   3.899   2.661   8.246
 6497SOL    HW220034   3.776   2.768   8.258
 6498SOL     OW20035   4.589   2.210   7.643
 6498SOL    HW120036   4.648   2.273   7.594
 6498SOL    HW220037   4.608   2.116   7.614
 6499SOL     OW20038   4.045   2.805   7.690
 6499SOL    HW120039   4.127   2.844   7.648
 6499SOL    HW220040   4.018   2.723   7.641
 6500SOL     OW20041   4.835   3.638   7.685
 6500SOL    HW120042   4.775   3.576   7.735
 6500SOL    HW220043   4.866   3.594   7.600
 6501SOL     OW20044   4.188   3.605   7.771
 6501SOL    HW120045   4.221   3.644   7.857
 6501SOL    HW220046   4.264   3.598   7.706
 6502SOL     OW20047   5.124   1.969   7.874
 6502SOL    HW120048   5.100   1.932   7.784
 6502SOL    HW220049   5.223   1.985   7.878
 6503SOL     OW20050   4.106   2.562   7.928
 6503SOL    HW120051   4.151   2.472   7.925
 6503SOL    HW220052   4.012   2.551   7.961
 6504SOL     OW20053   4.338   1.984   7.565
 6504SOL    HW120054   4.436   1.962   7.572
 6504SOL    HW220055   4.307   1.967   7.472
 6505SOL     OW20056   4.263   1.926   7.960
 6505SOL    HW120057   4.182   1.927   8.018
 6505SOL    HW220058   4.266   2.009   7.905
 6506SOL     OW20059   5.158   3.050   7.489
 6506SOL    HW120060   5.190   2.974   7.546
 6506SOL    HW220061   5.066   3.077   7.519
 6507SOL     OW20062   4.021   1.897   7.619
 6507SOL    HW120063   4.070   1.981   7.598
 6507SOL    HW220064   4.083   1.832   7.664
 6508SOL     OW20065   4.659   2.098   7.928
 6508SOL    HW120066   4.611   2.139   7.850
 6508SOL    HW220067   4.758   2.096   7.909
 6509SOL     OW20068   4.183   3.014   8.189
 6509SOL    HW120069   4.112   2.987   8.254
 6509SOL    HW220070   4.157   2.986   8.096
 6510SOL     OW20071   4.995   3.659   8.039
 6510SOL    HW120072   5.039   3.723   7.975
 6510SOL    HW220073   4.945   3.711   8.109
 6511SOL     OW20074   4.756   2.411   7.464
 6511SOL    HW120075   4.715   2.493   7.425
 6511SOL    HW220076   4.820   2.437   7.537
 6512SOL     OW20077   4.212   3.247   7.622
 6512SOL    HW120078   4.125   3.232   7.669
 6512SOL    HW220079   4.195   3.273   7.527
 6513SOL     OW20080   5.114   2.437   7.526
 6513SOL    HW120081   5.060   2.416   7.607
 6513SOL    HW220082   5.205   2.396   7.535
 6514SOL     OW20083   4.251   2.118   7.776
 6514SOL    HW120084   4.278   2.059   7.701
 6514SOL    HW220085   4.251   2.213   7.745
 6515SOL     OW20086   4.429   2.912   7.816
 6515SOL    HW120087   4.415   2.919   7.915
 6515SOL    HW220088   4.513   2.861   7.798
 6516SOL     OW20089   4.091   2.962   7.949
 6516SOL    HW120090   4.084   3.045   7.893
 6516SOL    HW220091   4.095   2.882   7.889
 6517SOL     OW20092   4.976   3.210   7.836
 6517SOL    HW120093   5.026   3.287   7.876
 6517SOL    HW220094   4.881   3.212   7.868
 6518SOL     OW20095   5.306   2.501   7.920
 6518SOL    HW120096   5.275   2.562   7.993
 6518SOL    HW220097   5.356   2.553   7.851
 6519SOL     OW20098   4.933   2.387   7.723
 6519SOL    HW120099   4.946   2.303   7.777
 6519SOL    HW220100   4.904   2.461   7.783
 6520SOL     OW20101   5.346   2.229   7.822
 6520SOL    HW120102   5.348   2.153   7.886
 6520SOL    HW220103   5.298   2.306   7.862
 6521SOL     OW20104   5.027   2.700   7.490
 6521SOL    HW120105   5.061   2.607   7.505
 6521SOL    HW220106   5.045   2.727   7.395
 6522SOL     OW20107   3.732   3.188   7.648
 6522SOL    HW120108   3.639   3.209   7.617
 6522SOL    HW220109   3.742   3.089   7.661
 6523SOL     OW20110   4.539   2.434   7.773
 6523SOL    HW120111   4.546   2.345   7.727
 6523SOL    HW220112   4.445   2.468   7.765
 6524SOL     OW20113   4.197   2.362   7.639
 6524SOL    HW120114   4.258   2.442   7.643
 6524SOL    HW220115   4.102   2.393   7.646
 6525SOL     OW20116   5.026   2.717   7.757
 6525SOL    HW120117   4.940   2.686   7.799
 6525SOL    HW220118   5.022   2.703   7.658
 6526SOL     OW20119   5.450   1.997   7.971
 6526SOL    HW120120   5.523   1.980   7.904
 6526SOL    HW220121   5.419   1.910   8.009
 6527SOL     OW20122   5.112   3.435   7.925
 6527SOL    HW120123   5.179   3.447   7.851
 6527SOL    HW220124   5.072   3.524   7.948
 6528SOL     OW20125   4.396   3.478   7.602
 6528SOL    HW120126   4.405   3.488   7.503
 6528SOL    HW220127   4.356   3.389   7.623
 6529SOL     OW20128   4.918   3.474   7.479
 6529SOL    HW120129   4.924   3.381   7.516
 6529SOL    HW220130   4.859   3.474   7.399
 6530SOL     OW20131   4.640   2.772   7.739
 6530SOL    HW120132   4.703   2.810   7.671
 6530SOL    HW220133   4.680   2.689   7.778
 6531SOL     OW20134   4.314   3.349   7.939
 6531SOL    HW120135   4.356   3.291   7.869
 6531SOL    HW220136   4.270   3.428   7.895
 6532SOL     OW20137   3.979   3.210   7.738
 6532SOL    HW120138   3.883   3.211   7.711
 6532SOL    HW220139   3.991   3.263   7.822
 6533SOL     OW20140   3.799   2.207   7.481
 6533SOL    HW120141   3.707   2.179   7.452
 6533SOL    HW220142   3.830   2.284   7.425
 6534SOL     OW20143   3.796   2.028   7.766
 6534SOL    HW120144   3.779   2.111   7.712
 6534SOL    HW220145   3.886   1.991   7.744
 6535SOL     OW20146   4.907   3.197   7.567
 6535SOL    HW120147   4.808   3.186   7.569
 6535SOL    HW220148   4.941   3.212   7.660
 6536SOL     OW20149   5.217   3.629   8.407
 6536SOL    HW120150   5.250   3.693   8.338
 6536SOL    HW220151   5.283   3.623   8.482
 6537SOL     OW20152   4.949   2.187   7.897
 6537SOL    HW120153   5.014   2.113   7.886
 6537SOL    HW220154   4.969   2.237   7.981
 6538SOL     OW20155   4.318   2.607   8.100
 6538SOL    HW120156   4.368   2.692   8.081
 6538SOL    HW220157   4.230   2.609   8.052
 6539SOL     OW20158   4.583   3.236   7.464
 6539SOL    HW120159   4.537   3.251   7.552
 6539SOL    HW220160   4.627   3.321   7.434
 6540SOL     OW20161   4.807   2.846   7.535
 6540SOL    HW120162   4.784   2.899   7.453
 6540SOL    HW220163   4.888   2.790   7.516
 6541SOL     OW20164   4.152   2.286   7.968
 6541SOL    HW120165   4.182   2.214   7.906
 6541SOL    HW220166   4.113   2.246   8.051
 6542SOL     OW20167   4.494   3.192   7.749
 6542SOL    HW120168   4.448   3.105   7.766
 6542SOL    HW220169   4.585   3.189   7.790
 6543SOL     OW20170   5.076   1.914   7.616
 6543SOL    HW120171   5.111   1.873   7.532
 6543SOL    HW220172   4.986   1.876   7.636
 6544SOL     OW20173   3.763   2.939   7.748
 6544SOL    HW120174   3.862   2.928   7.739
 6544SOL    HW220175   3.723   2.853   7.780
 6545SOL     OW20176   4.599   3.508   7.785
 6545SOL    HW120177   4.522   3.473   7.731
 6545SOL    HW220178   4.567   3.579   7.847
 6546SOL     OW20179   3.954   4.352   0.113
 6546SOL    HW120180   3.861   4.350   0.150
 6546SOL    HW220181   3.955   4.313   0.021
 6547SOL     OW20182   3.949   3.999   0.996
 6547SOL    HW120183   3.984   3.982   1.088
 6547SOL    HW220184   3.861   3.954   0.984
 6548SOL     OW20185   3.743   4.092   0.647
 6548SOL    HW120186   3.661   4.135   0.686
 6548SOL    HW220187   3.715   4.019   0.584
 6549SOL     OW20188   4.293   4.999   1.165
 6549SOL    HW120189   4.200   4.992   1.128
 6549SOL    HW220190   4.304   5.088   1.209
 6550SOL     OW20191   5.279   5.235   0.703
 6550SOL    HW120192   5.222   5.219   0.784
 6550SOL    HW220193   5.220   5.245   0.623
 6551SOL     OW20194   4.859   4.427   0.717
 6551SOL    HW120195   4.916   4.505   0.692
 6551SOL    HW220196   4.799   4.453   0.793
 6552SOL     OW20197   4.492   4.868   1.023
 6552SOL    HW120198   4.414   4.885   1.083
 6552SOL    HW220199   4.526   4.955   0.987
 6553SOL     OW20200   4.574   4.522   1.823
 6553SOL    HW120201   4.570   4.598   1.888
 6553SOL    HW220202   4.596   4.558   1.732
 6554SOL     OW20203   4.409   4.736   0.665
 6554SOL    HW120204   4.478   4.720   0.735
 6554SOL    HW220205   4.336   4.793   0.703
 6555SOL     OW20206   4.410   4.885   1.803
 6555SOL    HW120207   4.470   4.964   1.817
 6555SOL    HW220208   4.324   4.916   1.762
 6556SOL     OW20209   4.059   5.159   1.061
 6556SOL    HW120210   3.981   5.128   1.008
 6556SOL    HW220211   4.117   5.217   1.004
 6557SOL     OW20212   5.184   5.229   1.339
 6557SOL    HW120213   5.208   5.323   1.365
 6557SOL    HW220214   5.168   5.175   1.421
 6558SOL     OW20215   4.162   4.116   1.499
 6558SOL    HW120216   4.244   4.060   1.508
 6558SOL    HW220217   4.081   4.058   1.503
 6559SOL     OW20218   4.851   5.065   1.690
 6559SOL    HW120219   4.898   5.065   1.778
 6559SOL    HW220220   4.803   4.978   1.679
 6560SOL     OW20221   3.954   5.158   0.538
 6560SOL    HW120222   3.928   5.254   0.538
 6560SOL    HW220223   3.883   5.104   0.583
 6561SOL     OW20224   3.964   4.815   0.886
 6561SOL    HW120225   3.978   4.731   0.938
 6561SOL    HW220226   3.909   4.879   0.941
 6562SOL     OW20227   4.330   4.688   0.123
 6562SOL    HW120228   4.337   4.772   0.069
 6562SOL    HW220229   4.376   4.701   0.211
 6563SOL     OW20230   3.846   4.367   0.563
 6563SOL    HW120231   3.801   4.279   0.580
 6563SOL    HW220232   3.845   4.421   0.647
 6564SOL     OW20233   3.751   5.320   0.117
 6564SOL    HW120234   3.732   5.224   0.138
 6564SOL    HW220235   3.718   5.378   0.192
 6565SOL     OW20236   5.413   4.646   0.612
 6565SOL    HW120237   5.508   4.617   0.620
 6565SOL    HW220238   5.405   4.711   0.537
 6566SOL     OW20239   3.837   4.461   1.597
 6566SOL    HW120240   3.925   4.448   1.642
 6566SOL    HW220241   3.824   4.558   1.575
 6567SOL     OW20242   4.337   5.089   0.726
 6567SOL    HW120243   4.288   5.002   0.735
 6567SOL    HW220244   4.314   5.132   0.639
 6568SOL     OW20245   5.017   4.952   1.423
 6568SOL    HW120246   5.054   4.879   1.365
 6568SOL    HW220247   5.069   4.957   1.508
 6569SOL     OW20248   4.533   3.728   0.502
 6569SOL    HW120249   4.573   3.819   0.493
 6569SOL    HW220250   4.433   3.736   0.508
 6570SOL     OW20251   3.921   4.700   1.264
 6570SOL    HW120252   4.010   4.655   1.250
 6570SOL    HW220253   3.848   4.635   1.245
 6571SOL     OW20254   4.041   3.975   1.801
 6571SOL    HW120255   4.112   4.046   1.807
 6571SOL    HW220256   3.953   4.014   1.829
 6572SOL     OW20257   5.190   5.141   0.953
 6572SOL    HW120258   5.131   5.147   1.033
 6572SOL    HW220259   5.175   5.053   0.907
 6573SOL     OW20260   5.391   5.438   0.572
 6573SOL    HW120261   5.350   5.415   0.484
 6573SOL    HW220262   5.373   5.364   0.637
 6574SOL     OW20263   4.322   4.453   0.270
 6574SOL    HW120264   4.346   4.522   0.202
 6574SOL    HW220265   4.244   4.486   0.324
 6575SOL     OW20266   5.005   4.069   0.944
 6575SOL    HW120267   4.919   4.019   0.931
 6575SOL    HW220268   5.067   4.015   1.000
 6576SOL     OW20269   4.531   4.329   1.465
 6576SOL    HW120270   4.484   4.326   1.554
 6576SOL    HW220271   4.480   4.274   1.399
 6577SOL     OW20272   5.118   4.193   1.674
 6577SOL    HW120273   5.098   4.236   1.762
 6577SOL    HW220274   5.196   4.131   1.683
 6578SOL     OW20275   4.697   4.614   1.572
 6578SOL    HW120276   4.743   4.530   1.543
 6578SOL    HW220277   4.641   4.648   1.497
 6579SOL     OW20278   4.715   4.134   1.242
 6579SOL    HW120279   4.638   4.168   1.296
 6579SOL    HW220280   4.681   4.083   1.163
 6580SOL     OW20281   4.765   4.425   0.429
 6580SOL    HW120282   4.791   4.421   0.525
 6580SOL    HW220283   4.680   4.374   0.415
 6581SOL     OW20284   3.800   4.535   0.789
 6581SOL    HW120285   3.899   4.523   0.798
 6581SOL    HW220286   3.776   4.630   0.810
 6582SOL     OW20287   4.589   4.072   0.195
 6582SOL    HW120288   4.648   4.135   0.146
 6582SOL    HW220289   4.608   3.978   0.166
 6583SOL     OW20290   5.086   4.868   0.545
 6583SOL    HW120291   5.169   4.839   0.497
 6583SOL    HW220292   5.037   4.935   0.489
 6584SOL     OW20293   4.274   3.920   0.885
 6584SOL    HW120294   4.269   3.915   0.985
 6584SOL    HW220295   4.276   4.016   0.856
 6585SOL     OW20296   4.732   5.180   0.477
 6585SOL    HW120297   4.686   5.252   0.425
 6585SOL    HW220298   4.728   5.200   0.575
 6586SOL     OW20299   4.951   5.274   1.506
 6586SOL    HW120300   4.957   5.197   1.570
 6586SOL    HW220301   4.899   5.248   1.426
 6587SOL     OW20302   4.045   4.667   0.242
 6587SOL    HW120303   4.127   4.706   0.200
 6587SOL    HW220304   4.018   4.585   0.193
 6588SOL     OW20305   4.185   4.990   1.727
 6588SOL    HW120306   4.135   4.991   1.641
 6588SOL    HW220307   4.122   4.972   1.803
 6589SOL     OW20308   4.835   5.500   0.237
 6589SOL    HW120309   4.775   5.438   0.287
 6589SOL    HW220310   4.866   5.456   0.152
 6590SOL     OW20311   3.926   4.009   1.498
 6590SOL    HW120312   3.846   4.069   1.485
 6590SOL    HW220313   3.916   3.960   1.584
 6591SOL     OW20314   5.124   3.831   0.426
 6591SOL    HW120315   5.100   3.794   0.336
 6591SOL    HW220316   5.223   3.847   0.430
 6592SOL     OW20317   4.106   4.424   0.480
 6592SOL    HW120318   4.151   4.334   0.477
 6592SOL    HW220319   4.012   4.413   0.513
 6593SOL     OW20320   4.338   3.846   0.117
 6593SOL    HW120321   4.436   3.824   0.124
 6593SOL    HW220322   4.307   3.829   0.024
 6594SOL     OW20323   4.505   3.988   1.749
 6594SOL    HW120324   4.572   3.927   1.792
 6594SOL    HW220325   4.432   4.007   1.814
 6595SOL     OW20326   5.075   4.314   1.433
 6595SOL    HW120327   5.103   4.271   1.518
 6595SOL    HW220328   5.100   4.410   1.434
 6596SOL     OW20329   4.527   5.126   0.924
 6596SOL    HW120330   4.617   5.140   0.882
 6596SOL    HW220331   4.456   5.128   0.853
 6597SOL     OW20332   4.646   4.227   0.899
 6597SOL    HW120333   4.621   4.218   0.803
 6597SOL    HW220334   4.694   4.145   0.930
 6598SOL     OW20335   4.263   3.788   0.512
 6598SOL    HW120336   4.182   3.789   0.570
 6598SOL    HW220337   4.266   3.871   0.457
 6599SOL     OW20338   5.158   4.912   0.041
 6599SOL    HW120339   5.190   4.836   0.098
 6599SOL    HW220340   5.066   4.939   0.071
 6600SOL     OW20341   4.021   3.759   0.171
 6600SOL    HW120342   4.070   3.843   0.150
 6600SOL    HW220343   4.083   3.694   0.216
 6601SOL     OW20344   4.659   3.960   0.480
 6601SOL    HW120345   4.611   4.001   0.402
 6601SOL    HW220346   4.758   3.958   0.461
 6602SOL     OW20347   4.800   4.407   1.464
 6602SOL    HW120348   4.720   4.346   1.467
 6602SOL    HW220349   4.881   4.354   1.440
 6603SOL     OW20350   4.951   5.294   0.793
 6603SOL    HW120351   4.972   5.368   0.728
 6603SOL    HW220352   5.019   5.294   0.866
 6604SOL     OW20353   4.183   4.876   0.741
 6604SOL    HW120354   4.112   4.849   0.806
 6604SOL    HW220355   4.157   4.848   0.648
 6605SOL     OW20356   4.756   4.273   0.016
 6605SOL    HW120357   4.715   4.355  -0.023
 6605SOL    HW220358   4.820   4.299   0.089
 6606SOL     OW20359   3.802   4.280   1.386
 6606SOL    HW120360   3.894   4.279   1.345
 6606SOL    HW220361   3.796   4.354   1.453
 6607SOL     OW20362   4.285   3.946   1.147
 6607SOL    HW120363   4.323   3.862   1.184
 6607SOL    HW220364   4.197   3.965   1.191
 6608SOL     OW20365   4.590   4.178   0.642
 6608SOL    HW120366   4.558   4.250   0.580
 6608SOL    HW220367   4.614   4.097   0.589
 6609SOL     OW20368   4.741   3.763   0.753
 6609SOL    HW120369   4.669   3.768   0.684
 6609SOL    HW220370   4.717   3.694   0.822
 6610SOL     OW20371   5.153   4.897   0.867
 6610SOL    HW120372   5.098   4.813   0.860
 6610SOL    HW220373   5.179   4.926   0.775
 6611SOL     OW20374   4.212   5.109   0.174
 6611SOL    HW120375   4.125   5.094   0.221
 6611SOL    HW220376   4.195   5.135   0.079
 6612SOL     OW20377   5.114   4.299   0.078
 6612SOL    HW120378   5.060   4.278   0.159
 6612SOL    HW220379   5.205   4.258   0.087
 6613SOL     OW20380   4.251   3.980   0.328
 6613SOL    HW120381   4.278   3.921   0.253
 6613SOL    HW220382   4.251   4.075   0.297
 6614SOL     OW20383   4.788   5.071   1.340
 6614SOL    HW120384   4.708   5.048   1.395
 6614SOL    HW220385   4.871   5.045   1.389
 6615SOL     OW20386   4.835   4.919   1.100
 6615SOL    HW120387   4.795   4.963   1.181
 6615SOL    HW220388   4.794   4.956   1.017
 6616SOL     OW20389   4.639   3.813   1.402
 6616SOL    HW120390   4.664   3.793   1.307
 6616SOL    HW220391   4.711   3.869   1.444
 6617SOL     OW20392   4.704   4.840   1.719
 6617SOL    HW120393   4.605   4.846   1.729
 6617SOL    HW220394   4.727   4.760   1.663
 6618SOL     OW20395   4.429   4.774   0.368
 6618SOL    HW120396   4.415   4.781   0.467
 6618SOL    HW220397   4.513   4.723   0.350
 6619SOL     OW20398   4.134   4.537   1.251
 6619SOL    HW120399   4.220   4.549   1.301
 6619SOL    HW220400   4.092   4.450   1.278
 6620SOL     OW20401   4.998   4.110   1.262
 6620SOL    HW120402   5.019   4.184   1.326
 6620SOL    HW220403   4.909   4.127   1.219
 6621SOL     OW20404   4.091   4.824   0.501
 6621SOL    HW120405   4.084   4.907   0.445
 6621SOL    HW220406   4.095   4.744   0.441
 6622SOL     OW20407   4.290   4.261   0.865
 6622SOL    HW120408   4.302   4.327   0.791
 6622SOL    HW220409   4.336   4.295   0.948
 6623SOL     OW20410   4.976   5.072   0.388
 6623SOL    HW120411   5.026   5.149   0.428
 6623SOL    HW220412   4.881   5.074   0.420
 6624SOL     OW20413   4.996   5.169   1.142
 6624SOL    HW120414   5.043   5.182   1.229
 6624SOL    HW220415   4.930   5.095   1.151
 6625SOL     OW20416   4.078   5.234   1.329
 6625SOL    HW120417   4.057   5.190   1.242
 6625SOL    HW220418   4.175   5.260   1.332
 6626SOL     OW20419   4.126   4.475   1.598
 6626SOL    HW120420   4.194   4.530   1.551
 6626SOL    HW220421   4.166   4.387   1.625
 6627SOL     OW20422   4.737   3.829   1.770
 6627SOL    HW120423   4.743   3.914   1.718
 6627SOL    HW220424   4.769   3.753   1.713
 6628SOL     OW20425   4.228   3.774   1.740
 6628SOL    HW120426   4.186   3.717   1.670
 6628SOL    HW220427   4.162   3.843   1.772
 6629SOL     OW20428   4.297   4.594   1.029
 6629SOL    HW120429   4.341   4.683   1.020
 6629SOL    HW220430   4.234   4.594   1.106
 6630SOL     OW20431   5.084   4.586   1.045
 6630SOL    HW120432   5.009   4.586   0.979
 6630SOL    HW220433   5.121   4.494   1.054
 6631SOL     OW20434   4.933   4.249   0.275
 6631SOL    HW120435   4.946   4.165   0.329
 6631SOL    HW220436   4.904   4.323   0.335
 6632SOL     OW20437   4.031   3.937   1.231
 6632SOL    HW120438   4.008   3.974   1.321
 6632SOL    HW220439   4.001   3.842   1.225
 6633SOL     OW20440   3.761   5.034   1.282
 6633SOL    HW120441   3.814   4.985   1.350
 6633SOL    HW220442   3.783   5.132   1.287
 6634SOL     OW20443   4.456   4.358   1.064
 6634SOL    HW120444   4.515   4.332   0.988
 6634SOL    HW220445   4.428   4.454   1.053
 6635SOL     OW20446   4.031   3.787   0.618
 6635SOL    HW120447   4.020   3.881   0.651
 6635SOL    HW220448   4.026   3.724   0.695
 6636SOL     OW20449   5.346   4.091   0.374
 6636SOL    HW120450   5.348   4.015   0.438
 6636SOL    HW220451   5.298   4.168   0.414
 6637SOL     OW20452   4.747   4.490   0.966
 6637SOL    HW120453   4.762   4.511   1.062
 6637SOL    HW220454   4.717   4.395   0.957
 6638SOL     OW20455   4.074   4.622   1.804
 6638SOL    HW120456   4.150   4.666   1.852
 6638SOL    HW220457   4.109   4.575   1.722
 6639SOL     OW20458   5.027   4.562   0.042
 6639SOL    HW120459   5.061   4.469   0.057
 6639SOL    HW220460   5.045   4.589  -0.053
 6640SOL     OW20461   4.792   5.057   0.849
 6640SOL    HW120462   4.799   4.973   0.794
 6640SOL    HW220463   4.854   5.126   0.813
 6641SOL     OW20464   4.043   4.534   0.949
 6641SOL    HW120465   4.136   4.570   0.954
 6641SOL    HW220466   4.037   4.449   1.001
 6642SOL     OW20467   4.063   4.233   1.006
 6642SOL    HW120468   4.011   4.150   0.989
 6642SOL    HW220469   4.140   4.238   0.942
 6643SOL     OW20470   4.862   4.104   1.678
 6643SOL    HW120471   4.817   4.167   1.742
 6643SOL    HW220472   4.955   4.135   1.661
 6644SOL     OW20473   4.884   3.931   1.477
 6644SOL    HW120474   4.884   3.995   1.554
 6644SOL    HW220475   4.912   3.979   1.394
 6645SOL     OW20476   3.732   5.050   0.200
 6645SOL    HW120477   3.639   5.071   0.169
 6645SOL    HW220478   3.742   4.951   0.213
 6646SOL     OW20479   4.726   4.520   1.238
 6646SOL    HW120480   4.767   4.488   1.324
 6646SOL    HW220481   4.630   4.493   1.235
 6647SOL     OW20482   3.764   4.268   1.114
 6647SOL    HW120483   3.849   4.235   1.073
 6647SOL    HW220484   3.777   4.283   1.212
 6648SOL     OW20485   3.913   4.244   1.722
 6648SOL    HW120486   3.972   4.204   1.652
 6648SOL    HW220487   3.855   4.315   1.681
 6649SOL     OW20488   5.093   4.674   1.660
 6649SOL    HW120489   5.132   4.763   1.680
 6649SOL    HW220490   5.103   4.654   1.563
 6650SOL     OW20491   4.539   4.296   0.325
 6650SOL    HW120492   4.546   4.207   0.279
 6650SOL    HW220493   4.445   4.330   0.317
 6651SOL     OW20494   3.976   5.288   1.744
 6651SOL    HW120495   3.946   5.345   1.820
 6651SOL    HW220496   3.969   5.191   1.770
 6652SOL     OW20497   4.395   4.188   1.269
 6652SOL    HW120498   4.361   4.099   1.239
 6652SOL    HW220499   4.421   4.242   1.189
 6653SOL     OW20500   4.197   4.224   0.191
 6653SOL    HW120501   4.258   4.304   0.195
 6653SOL    HW220502   4.102   4.255   0.198
 6654SOL     OW20503   3.883   4.861   1.466
 6654SOL    HW120504   3.905   4.800   1.542
 6654SOL    HW220505   3.893   4.812   1.380
 6655SOL     OW20506   5.071   4.783   1.234
 6655SOL    HW120507   5.095   4.720   1.160
 6655SOL    HW220508   4.981   4.823   1.216
 6656SOL     OW20509   5.026   4.579   0.309
 6656SOL    HW120510   4.940   4.548   0.351
 6656SOL    HW220511   5.022   4.565   0.210
 6657SOL     OW20512   3.807   4.982   1.022
 6657SOL    HW120513   3.802   4.981   1.122
 6657SOL    HW220514   3.724   4.941   0.984
 6658SOL     OW20515   4.412   5.386   1.716
 6658SOL    HW120516   4.356   5.467   1.725
 6658SOL    HW220517   4.464   5.390   1.630
 6659SOL     OW20518   4.627   3.810   0.133
 6659SOL    HW120519   4.678   3.811   0.047
 6659SOL    HW220520   4.683   3.768   0.204
 6660SOL     OW20521   5.450   3.859   0.523
 6660SOL    HW120522   5.523   3.842   0.456
 6660SOL    HW220523   5.419   3.772   0.561
 6661SOL     OW20524   5.004   4.651   0.672
 6661SOL    HW120525   5.064   4.570   0.674
 6661SOL    HW220526   5.044   4.720   0.612
 6662SOL     OW20527   4.554   4.997   1.422
 6662SOL    HW120528   4.549   5.030   1.517
 6662SOL    HW220529   4.468   5.016   1.376
 6663SOL     OW20530   3.987   4.050   0.720
 6663SOL    HW120531   3.908   4.101   0.686
 6663SOL    HW220532   3.978   4.035   0.818
 6664SOL     OW20533   4.918   5.336   0.031
 6664SOL    HW120534   4.924   5.243   0.068
 6664SOL    HW220535   4.859   5.336  -0.049
 6665SOL     OW20536   4.546   4.726   1.372
 6665SOL    HW120537   4.586   4.725   1.280
 6665SOL    HW220538   4.556   4.818   1.412
 6666SOL     OW20539   4.640   4.634   0.291
 6666SOL    HW120540   4.703   4.672   0.223
 6666SOL    HW220541   4.680   4.551   0.330
 6667SOL     OW20542   4.096   5.012   1.490
 6667SOL    HW120543   4.083   5.105   1.456
 6667SOL    HW220544   4.012   4.960   1.477
 6668SOL     OW20545   4.763   4.822   0.696
 6668SOL    HW120546   4.693   4.775   0.750
 6668SOL    HW220547   4.822   4.754   0.653
 6669SOL     OW20548   4.738   3.960   0.971
 6669SOL    HW120549   4.730   3.924   0.878
 6669SOL    HW220550   4.736   3.884   1.036
 6670SOL     OW20551   3.979   5.072   0.290
 6670SOL    HW120552   3.883   5.073   0.263
 6670SOL    HW220553   3.991   5.125   0.374
 6671SOL     OW20554   3.829   4.737   1.726
 6671SOL    HW120555   3.752   4.704   1.780
 6671SOL    HW220556   3.914   4.707   1.768
 6672SOL     OW20557   4.396   3.927   1.489
 6672SOL    HW120558   4.486   3.911   1.449
 6672SOL    HW220559   4.404   3.932   1.588
 6673SOL     OW20560   3.799   4.069   0.033
 6673SOL    HW120561   3.707   4.041   0.004
 6673SOL    HW220562   3.830   4.146  -0.023
 6674SOL     OW20563   5.164   4.580   1.398
 6674SOL    HW120564   5.107   4.632   1.335
 6674SOL    HW220565   5.260   4.592   1.374
 6675SOL     OW20566   3.796   3.890   0.318
 6675SOL    HW120567   3.779   3.973   0.264
 6675SOL    HW220568   3.886   3.853   0.296
 6676SOL     OW20569   4.907   5.059   0.119
 6676SOL    HW120570   4.808   5.048   0.121
 6676SOL    HW220571   4.941   5.074   0.212
 6677SOL     OW20572   4.337   4.566   1.431
 6677SOL    HW120573   4.393   4.647   1.414
 6677SOL    HW220574   4.396   4.486   1.434
 6678SOL     OW20575   4.440   4.289   1.708
 6678SOL    HW120576   4.459   4.354   1.782
 6678SOL    HW220577   4.500   4.209   1.717
 6679SOL     OW20578   5.174   4.944   1.633
 6679SOL    HW120579   5.165   4.934   1.732
 6679SOL    HW220580   5.270   4.937   1.607
 6680SOL     OW20581   4.949   4.049   0.449
 6680SOL    HW120582   5.014   3.975   0.438
 6680SOL    HW220583   4.969   4.099   0.533
 6681SOL     OW20584   4.318   4.469   0.652
 6681SOL    HW120585   4.368   4.554   0.633
 6681SOL    HW220586   4.230   4.471   0.604
 6682SOL     OW20587   4.583   5.098   0.016
 6682SOL    HW120588   4.537   5.113   0.104
 6682SOL    HW220589   4.627   5.183  -0.014
 6683SOL     OW20590   4.583   4.680   0.861
 6683SOL    HW120591   4.637   4.611   0.909
 6683SOL    HW220592   4.551   4.749   0.927
 6684SOL     OW20593   4.807   4.708   0.087
 6684SOL    HW120594   4.784   4.761   0.005
 6684SOL    HW220595   4.888   4.652   0.068
 6685SOL     OW20596   3.945   5.038   1.844
 6685SOL    HW120597   3.880   4.965   1.823
 6685SOL    HW220598   3.949   5.052   1.942
 6686SOL     OW20599   3.803   4.964   0.653
 6686SOL    HW120600   3.802   4.917   0.741
 6686SOL    HW220601   3.885   4.936   0.602
 6687SOL     OW20602   4.396   5.115   1.624
 6687SOL    HW120603   4.318   5.065   1.662
 6687SOL    HW220604   4.393   5.210   1.655
 6688SOL     OW20605   4.152   4.148   0.520
 6688SOL    HW120606   4.182   4.076   0.458
 6688SOL    HW220607   4.113   4.108   0.603
 6689SOL     OW20608   5.429   5.211   1.104
 6689SOL    HW120609   5.336   5.186   1.077
 6689SOL    HW220610   5.455   5.161   1.186
 6690SOL     OW20611   4.041   4.271   1.280
 6690SOL    HW120612   4.079   4.212   1.352
 6690SOL    HW220613   4.081   4.245   1.192
 6691SOL     OW20614   5.148   3.938   1.112
 6691SOL    HW120615   5.200   3.873   1.167
 6691SOL    HW220616   5.099   4.001   1.173
 6692SOL     OW20617   4.725   3.758   1.154
 6692SOL    HW120618   4.662   3.686   1.123
 6692SOL    HW220619   4.818   3.722   1.154
 6693SOL     OW20620   4.494   5.054   0.301
 6693SOL    HW120621   4.448   4.967   0.318
 6693SOL    HW220622   4.585   5.051   0.342
 6694SOL     OW20623   4.342   5.291   1.284
 6694SOL    HW120624   4.337   5.373   1.341
 6694SOL    HW220625   4.431   5.288   1.239
 6695SOL     OW20626   5.076   3.776   0.168
 6695SOL    HW120627   5.111   3.735   0.084
 6695SOL    HW220628   4.986   3.738   0.188
 6696SOL     OW20629   5.024   4.177   0.691
 6696SOL    HW120630   4.965   4.257   0.695
 6696SOL    HW220631   5.039   4.142   0.784
 6697SOL     OW20632   5.317   3.945   0.882
 6697SOL    HW120633   5.233   3.944   0.936
 6697SOL    HW220634   5.319   4.028   0.826
 6698SOL     OW20635   3.763   4.801   0.300
 6698SOL    HW120636   3.862   4.790   0.291
 6698SOL    HW220637   3.723   4.715   0.332
 6699SOL     OW20638   3.954   4.352   1.975
 6699SOL    HW120639   3.861   4.350   2.012
 6699SOL    HW220640   3.955   4.313   1.883
 6700SOL     OW20641   3.949   3.999   2.858
 6700SOL    HW120642   3.984   3.982   2.950
 6700SOL    HW220643   3.861   3.954   2.846
 6701SOL     OW20644   3.743   4.092   2.509
 6701SOL    HW120645   3.661   4.135   2.548
 6701SOL    HW220646   3.715   4.019   2.446
 6702SOL     OW20647   4.293   4.999   3.027
 6702SOL    HW120648   4.200   4.992   2.990
 6702SOL    HW220649   4.304   5.088   3.071
 6703SOL     OW20650   5.279   5.235   2.565
 6703SOL    HW120651   5.222   5.219   2.646
 6703SOL    HW220652   5.220   5.245   2.485
 6704SOL     OW20653   4.859   4.427   2.579
 6704SOL    HW120654   4.916   4.505   2.554
 6704SOL    HW220655   4.799   4.453   2.655
 6705SOL     OW20656   4.492   4.868   2.885
 6705SOL    HW120657   4.414   4.885   2.945
 6705SOL    HW220658   4.526   4.955   2.849
 6706SOL     OW20659   4.574   4.522   3.685
 6706SOL    HW120660   4.570   4.598   3.750
 6706SOL    HW220661   4.596   4.558   3.594
 6707SOL     OW20662   4.409   4.736   2.527
 6707SOL    HW120663   4.478   4.720   2.597
 6707SOL    HW220664   4.336   4.793   2.565
 6708SOL     OW20665   4.410   4.885   3.665
 6708SOL    HW120666   4.470   4.964   3.679
 6708SOL    HW220667   4.324   4.916   3.624
 6709SOL     OW20668   4.059   5.159   2.923
 6709SOL    HW120669   3.981   5.128   2.870
 6709SOL    HW220670   4.117   5.217   2.866
 6710SOL     OW20671   5.184   5.229   3.201
 6710SOL    HW120672   5.208   5.323   3.227
 6710SOL    HW220673   5.168   5.175   3.283
 6711SOL     OW20674   4.162   4.116   3.361
 6711SOL    HW120675   4.244   4.060   3.370
 6711SOL    HW220676   4.081   4.058   3.365
 6712SOL     OW20677   4.851   5.065   3.552
 6712SOL    HW120678   4.898   5.065   3.640
 6712SOL    HW220679   4.803   4.978   3.541
 6713SOL     OW20680   3.954   5.158   2.400
 6713SOL    HW120681   3.928   5.254   2.400
 6713SOL    HW220682   3.883   5.104   2.445
 6714SOL     OW20683   3.964   4.815   2.748
 6714SOL    HW120684   3.978   4.731   2.800
 6714SOL    HW220685   3.909   4.879   2.803
 6715SOL     OW20686   4.330   4.688   1.985
 6715SOL    HW120687   4.337   4.772   1.931
 6715SOL    HW220688   4.376   4.701   2.073
 6716SOL     OW20689   3.846   4.367   2.425
 6716SOL    HW120690   3.801   4.279   2.442
 6716SOL    HW220691   3.845   4.421   2.509
 6717SOL     OW20692   3.751   5.320   1.979
 6717SOL    HW120693   3.732   5.224   2.000
 6717SOL    HW220694   3.718   5.378   2.054
 6718SOL     OW20695   5.413   4.646   2.474
 6718SOL    HW120696   5.508   4.617   2.482
 6718SOL    HW220697   5.405   4.711   2.399
 6719SOL     OW20698   3.837   4.461   3.459
 6719SOL    HW120699   3.925   4.448   3.504
 6719SOL    HW220700   3.824   4.558   3.437
 6720SOL     OW20701   4.337   5.089   2.588
 6720SOL    HW120702   4.288   5.002   2.597
 6720SOL    HW220703   4.314   5.132   2.501
 6721SOL     OW20704   5.017   4.952   3.285
 6721SOL    HW120705   5.054   4.879   3.227
 6721SOL    HW220706   5.069   4.957   3.370
 6722SOL     OW20707   4.533   3.728   2.364
 6722SOL    HW120708   4.573   3.819   2.355
 6722SOL    HW220709   4.433   3.736   2.370
 6723SOL     OW20710   3.921   4.700   3.126
 6723SOL    HW120711   4.010   4.655   3.112
 6723SOL    HW220712   3.848   4.635   3.107
 6724SOL     OW20713   4.041   3.975   3.663
 6724SOL    HW120714   4.112   4.046   3.669
 6724SOL    HW220715   3.953   4.014   3.691
 6725SOL     OW20716   5.190   5.141   2.815
 6725SOL    HW120717   5.131   5.147   2.895
 6725SOL    HW220718   5.175   5.053   2.769
 6726SOL     OW20719   5.391   5.438   2.434
 6726SOL    HW120720   5.350   5.415   2.346
 6726SOL    HW220721   5.373   5.364   2.499
 6727SOL     OW20722   4.322   4.453   2.132
 6727SOL    HW120723   4.346   4.522   2.064
 6727SOL    HW220724   4.244   4.486   2.186
 6728SOL     OW20725   5.005   4.069   2.806
 6728SOL    HW120726   4.919   4.019   2.793
 6728SOL    HW220727   5.067   4.015   2.862
 6729SOL     OW20728   4.531   4.329   3.327
 6729SOL    HW120729   4.484   4.326   3.416
 6729SOL    HW220730   4.480   4.274   3.261
 6730SOL     OW20731   5.118   4.193   3.536
 6730SOL    HW120732   5.098   4.236   3.624
 6730SOL    HW220733   5.196   4.131   3.545
 6731SOL     OW20734   4.697   4.614   3.434
 6731SOL    HW120735   4.743   4.530   3.405
 6731SOL    HW220736   4.641   4.648   3.359
 6732SOL     OW20737   4.715   4.134   3.104
 6732SOL    HW120738   4.638   4.168   3.158
 6732SOL    HW220739   4.681   4.083   3.025
 6733SOL     OW20740   4.765   4.425   2.291
 6733SOL    HW120741   4.791   4.421   2.387
 6733SOL    HW220742   4.680   4.374   2.277
 6734SOL     OW20743   3.800   4.535   2.651
 6734SOL    HW120744   3.899   4.523   2.660
 6734SOL    HW220745   3.776   4.630   2.672
 6735SOL     OW20746   4.589   4.072   2.057
 6735SOL    HW120747   4.648   4.135   2.008
 6735SOL    HW220748   4.608   3.978   2.028
 6736SOL     OW20749   5.086   4.868   2.407
 6736SOL    HW120750   5.169   4.839   2.359
 6736SOL    HW220751   5.037   4.935   2.351
 6737SOL     OW20752   4.274   3.920   2.747
 6737SOL    HW120753   4.269   3.915   2.847
 6737SOL    HW220754   4.276   4.016   2.718
 6738SOL     OW20755   4.732   5.180   2.339
 6738SOL    HW120756   4.686   5.252   2.287
 6738SOL    HW220757   4.728   5.200   2.437
 6739SOL     OW20758   4.951   5.274   3.368
 6739SOL    HW120759   4.957   5.197   3.432
 6739SOL    HW220760   4.899   5.248   3.288
 6740SOL     OW20761   4.045   4.667   2.104
 6740SOL    HW120762   4.127   4.706   2.062
 6740SOL    HW220763   4.018   4.585   2.055
 6741SOL     OW20764   4.185   4.990   3.589
 6741SOL    HW120765   4.135   4.991   3.503
 6741SOL    HW220766   4.122   4.972   3.665
 6742SOL     OW20767   4.835   5.500   2.099
 6742SOL    HW120768   4.775   5.438   2.149
 6742SOL    HW220769   4.866   5.456   2.014
 6743SOL     OW20770   3.926   4.009   3.360
 6743SOL    HW120771   3.846   4.069   3.347
 6743SOL    HW220772   3.916   3.960   3.446
 6744SOL     OW20773   5.124   3.831   2.288
 6744SOL    HW120774   5.100   3.794   2.198
 6744SOL    HW220775   5.223   3.847   2.292
 6745SOL     OW20776   4.106   4.424   2.342
 6745SOL    HW120777   4.151   4.334   2.339
 6745SOL    HW220778   4.012   4.413   2.375
 6746SOL     OW20779   4.338   3.846   1.979
 6746SOL    HW120780   4.436   3.824   1.986
 6746SOL    HW220781   4.307   3.829   1.886
 6747SOL     OW20782   4.505   3.988   3.611
 6747SOL    HW120783   4.572   3.927   3.654
 6747SOL    HW220784   4.432   4.007   3.676
 6748SOL     OW20785   5.075   4.314   3.295
 6748SOL    HW120786   5.103   4.271   3.380
 6748SOL    HW220787   5.100   4.410   3.296
 6749SOL     OW20788   4.527   5.126   2.786
 6749SOL    HW120789   4.617   5.140   2.744
 6749SOL    HW220790   4.456   5.128   2.715
 6750SOL     OW20791   4.646   4.227   2.761
 6750SOL    HW120792   4.621   4.218   2.665
 6750SOL    HW220793   4.694   4.145   2.792
 6751SOL     OW20794   4.263   3.788   2.374
 6751SOL    HW120795   4.182   3.789   2.432
 6751SOL    HW220796   4.266   3.871   2.319
 6752SOL     OW20797   5.158   4.912   1.903
 6752SOL    HW120798   5.190   4.836   1.960
 6752SOL    HW220799   5.066   4.939   1.933
 6753SOL     OW20800   4.021   3.759   2.033
 6753SOL    HW120801   4.070   3.843   2.012
 6753SOL    HW220802   4.083   3.694   2.078
 6754SOL     OW20803   4.659   3.960   2.342
 6754SOL    HW120804   4.611   4.001   2.264
 6754SOL    HW220805   4.758   3.958   2.323
 6755SOL     OW20806   4.800   4.407   3.326
 6755SOL    HW120807   4.720   4.346   3.329
 6755SOL    HW220808   4.881   4.354   3.302
 6756SOL     OW20809   4.951   5.294   2.655
 6756SOL    HW120810   4.972   5.368   2.590
 6756SOL    HW220811   5.019   5.294   2.728
 6757SOL     OW20812   4.183   4.876   2.603
 6757SOL    HW120813   4.112   4.849   2.668
 6757SOL    HW220814   4.157   4.848   2.510
 6758SOL     OW20815   4.756   4.273   1.878
 6758SOL    HW120816   4.715   4.355   1.839
 6758SOL    HW220817   4.820   4.299   1.951
 6759SOL     OW20818   3.802   4.280   3.248
 6759SOL    HW120819   3.894   4.279   3.207
 6759SOL    HW220820   3.796   4.354   3.315
 6760SOL     OW20821   4.285   3.946   3.009
 6760SOL    HW120822   4.323   3.862   3.046
 6760SOL    HW220823   4.197   3.965   3.053
 6761SOL     OW20824   4.590   4.178   2.504
 6761SOL    HW120825   4.558   4.250   2.442
 6761SOL    HW220826   4.614   4.097   2.451
 6762SOL     OW20827   4.741   3.763   2.615
 6762SOL    HW120828   4.669   3.768   2.546
 6762SOL    HW220829   4.717   3.694   2.684
 6763SOL     OW20830   5.153   4.897   2.729
 6763SOL    HW120831   5.098   4.813   2.722
 6763SOL    HW220832   5.179   4.926   2.637
 6764SOL     OW20833   4.212   5.109   2.036
 6764SOL    HW120834   4.125   5.094   2.083
 6764SOL    HW220835   4.195   5.135   1.941
 6765SOL     OW20836   5.114   4.299   1.940
 6765SOL    HW120837   5.060   4.278   2.021
 6765SOL    HW220838   5.205   4.258   1.949
 6766SOL     OW20839   4.251   3.980   2.190
 6766SOL    HW120840   4.278   3.921   2.115
 6766SOL    HW220841   4.251   4.075   2.159
 6767SOL     OW20842   4.788   5.071   3.202
 6767SOL    HW120843   4.708   5.048   3.257
 6767SOL    HW220844   4.871   5.045   3.251
 6768SOL     OW20845   4.835   4.919   2.962
 6768SOL    HW120846   4.795   4.963   3.043
 6768SOL    HW220847   4.794   4.956   2.879
 6769SOL     OW20848   4.639   3.813   3.264
 6769SOL    HW120849   4.664   3.793   3.169
 6769SOL    HW220850   4.711   3.869   3.306
 6770SOL     OW20851   4.704   4.840   3.581
 6770SOL    HW120852   4.605   4.846   3.591
 6770SOL    HW220853   4.727   4.760   3.525
 6771SOL     OW20854   4.429   4.774   2.230
 6771SOL    HW120855   4.415   4.781   2.329
 6771SOL    HW220856   4.513   4.723   2.212
 6772SOL     OW20857   4.134   4.537   3.113
 6772SOL    HW120858   4.220   4.549   3.163
 6772SOL    HW220859   4.092   4.450   3.140
 6773SOL     OW20860   4.998   4.110   3.124
 6773SOL    HW120861   5.019   4.184   3.188
 6773SOL    HW220862   4.909   4.127   3.081
 6774SOL     OW20863   4.091   4.824   2.363
 6774SOL    HW120864   4.084   4.907   2.307
 6774SOL    HW220865   4.095   4.744   2.303
 6775SOL     OW20866   4.290   4.261   2.727
 6775SOL    HW120867   4.302   4.327   2.653
 6775SOL    HW220868   4.336   4.295   2.810
 6776SOL     OW20869   4.976   5.072   2.250
 6776SOL    HW120870   5.026   5.149   2.290
 6776SOL    HW220871   4.881   5.074   2.282
 6777SOL     OW20872   4.996   5.169   3.004
 6777SOL    HW120873   5.043   5.182   3.091
 6777SOL    HW220874   4.930   5.095   3.013
 6778SOL     OW20875   4.078   5.234   3.191
 6778SOL    HW120876   4.057   5.190   3.104
 6778SOL    HW220877   4.175   5.260   3.194
 6779SOL     OW20878   4.126   4.475   3.460
 6779SOL    HW120879   4.194   4.530   3.413
 6779SOL    HW220880   4.166   4.387   3.487
 6780SOL     OW20881   4.737   3.829   3.632
 6780SOL    HW120882   4.743   3.914   3.580
 6780SOL    HW220883   4.769   3.753   3.575
 6781SOL     OW20884   4.228   3.774   3.602
 6781SOL    HW120885   4.186   3.717   3.532
 6781SOL    HW220886   4.162   3.843   3.634
 6782SOL     OW20887   4.297   4.594   2.891
 6782SOL    HW120888   4.341   4.683   2.882
 6782SOL    HW220889   4.234   4.594   2.968
 6783SOL     OW20890   5.084   4.586   2.907
 6783SOL    HW120891   5.009   4.586   2.841
 6783SOL    HW220892   5.121   4.494   2.916
 6784SOL     OW20893   4.933   4.249   2.137
 6784SOL    HW120894   4.946   4.165   2.191
 6784SOL    HW220895   4.904   4.323   2.197
 6785SOL     OW20896   4.031   3.937   3.093
 6785SOL    HW120897   4.008   3.974   3.183
 6785SOL    HW220898   4.001   3.842   3.087
 6786SOL     OW20899   3.761   5.034   3.144
 6786SOL    HW120900   3.814   4.985   3.212
 6786SOL    HW220901   3.783   5.132   3.149
 6787SOL     OW20902   4.456   4.358   2.926
 6787SOL    HW120903   4.515   4.332   2.850
 6787SOL    HW220904   4.428   4.454   2.915
 6788SOL     OW20905   4.031   3.787   2.480
 6788SOL    HW120906   4.020   3.881   2.513
 6788SOL    HW220907   4.026   3.724   2.557
 6789SOL     OW20908   5.346   4.091   2.236
 6789SOL    HW120909   5.348   4.015   2.300
 6789SOL    HW220910   5.298   4.168   2.276
 6790SOL     OW20911   4.747   4.490   2.828
 6790SOL    HW120912   4.762   4.511   2.924
 6790SOL    HW220913   4.717   4.395   2.819
 6791SOL     OW20914   4.074   4.622   3.666
 6791SOL    HW120915   4.150   4.666   3.714
 6791SOL    HW220916   4.109   4.575   3.584
 6792SOL     OW20917   5.027   4.562   1.904
 6792SOL    HW120918   5.061   4.469   1.919
 6792SOL    HW220919   5.045   4.589   1.809
 6793SOL     OW20920   4.792   5.057   2.711
 6793SOL    HW120921   4.799   4.973   2.656
 6793SOL    HW220922   4.854   5.126   2.675
 6794SOL     OW20923   4.043   4.534   2.811
 6794SOL    HW120924   4.136   4.570   2.816
 6794SOL    HW220925   4.037   4.449   2.863
 6795SOL     OW20926   4.063   4.233   2.868
 6795SOL    HW120927   4.011   4.150   2.851
 6795SOL    HW220928   4.140   4.238   2.804
 6796SOL     OW20929   4.862   4.104   3.540
 6796SOL    HW120930   4.817   4.167   3.604
 6796SOL    HW220931   4.955   4.135   3.523
 6797SOL     OW20932   4.884   3.931   3.339
 6797SOL    HW120933   4.884   3.995   3.416
 6797SOL    HW220934   4.912   3.979   3.256
 6798SOL     OW20935   3.732   5.050   2.062
 6798SOL    HW120936   3.639   5.071   2.031
 6798SOL    HW220937   3.742   4.951   2.075
 6799SOL     OW20938   4.726   4.520   3.100
 6799SOL    HW120939   4.767   4.488   3.186
 6799SOL    HW220940   4.630   4.493   3.097
 6800SOL     OW20941   3.764   4.268   2.976
 6800SOL    HW120942   3.849   4.235   2.935
 6800SOL    HW220943   3.777   4.283   3.074
 6801SOL     OW20944   3.913   4.244   3.584
 6801SOL    HW120945   3.972   4.204   3.514
 6801SOL    HW220946   3.855   4.315   3.543
 6802SOL     OW20947   5.093   4.674   3.522
 6802SOL    HW120948   5.132   4.763   3.542
 6802SOL    HW220949   5.103   4.654   3.425
 6803SOL     OW20950   4.539   4.296   2.187
 6803SOL    HW120951   4.546   4.207   2.141
 6803SOL    HW220952   4.445   4.330   2.179
 6804SOL     OW20953   3.976   5.288   3.606
 6804SOL    HW120954   3.946   5.345   3.682
 6804SOL    HW220955   3.969   5.191   3.632
 6805SOL     OW20956   4.395   4.188   3.131
 6805SOL    HW120957   4.361   4.099   3.101
 6805SOL    HW220958   4.421   4.242   3.051
 6806SOL     OW20959   4.197   4.224   2.053
 6806SOL    HW120960   4.258   4.304   2.057
 6806SOL    HW220961   4.102   4.255   2.060
 6807SOL     OW20962   3.883   4.861   3.328
 6807SOL    HW120963   3.905   4.800   3.404
 6807SOL    HW220964   3.893   4.812   3.242
 6808SOL     OW20965   5.071   4.783   3.096
 6808SOL    HW120966   5.095   4.720   3.022
 6808SOL    HW220967   4.981   4.823   3.078
 6809SOL     OW20968   5.026   4.579   2.171
 6809SOL    HW120969   4.940   4.548   2.213
 6809SOL    HW220970   5.022   4.565   2.072
 6810SOL     OW20971   3.807   4.982   2.884
 6810SOL    HW120972   3.802   4.981   2.984
 6810SOL    HW220973   3.724   4.941   2.846
 6811SOL     OW20974   4.412   5.386   3.578
 6811SOL    HW120975   4.356   5.467   3.587
 6811SOL    HW220976   4.464   5.390   3.492
 6812SOL     OW20977   5.450   3.859   2.385
 6812SOL    HW120978   5.523   3.842   2.318
 6812SOL    HW220979   5.419   3.772   2.423
 6813SOL     OW20980   5.004   4.651   2.534
 6813SOL    HW120981   5.064   4.570   2.536
 6813SOL    HW220982   5.044   4.720   2.474
 6814SOL     OW20983   4.554   4.997   3.284
 6814SOL    HW120984   4.549   5.030   3.379
 6814SOL    HW220985   4.468   5.016   3.238
 6815SOL     OW20986   3.987   4.050   2.582
 6815SOL    HW120987   3.908   4.101   2.548
 6815SOL    HW220988   3.978   4.035   2.680
 6816SOL     OW20989   4.546   4.726   3.234
 6816SOL    HW120990   4.586   4.725   3.142
 6816SOL    HW220991   4.556   4.818   3.274
 6817SOL     OW20992   4.640   4.634   2.153
 6817SOL    HW120993   4.703   4.672   2.085
 6817SOL    HW220994   4.680   4.551   2.192
 6818SOL     OW20995   4.096   5.012   3.352
 6818SOL    HW120996   4.083   5.105   3.318
 6818SOL    HW220997   4.012   4.960   3.339
 6819SOL     OW20998   4.763   4.822   2.558
 6819SOL    HW120999   4.693   4.775   2.612
 6819SOL    HW221000   4.822   4.754   2.515
 6820SOL     OW21001   4.738   3.960   2.833
 6820SOL    HW121002   4.730   3.924   2.740
 6820SOL    HW221003   4.736   3.884   2.898
 6821SOL     OW21004   3.979   5.072   2.152
 6821SOL    HW121005   3.883   5.073   2.125
 6821SOL    HW221006   3.991   5.125   2.236
 6822SOL     OW21007   3.829   4.737   3.588
 6822SOL    HW121008   3.752   4.704   3.642
 6822SOL    HW221009   3.914   4.707   3.630
 6823SOL     OW21010   4.396   3.927   3.351
 6823SOL    HW121011   4.486   3.911   3.311
 6823SOL    HW221012   4.404   3.932   3.450
 6824SOL     OW21013   3.799   4.069   1.895
 6824SOL    HW121014   3.707   4.041   1.866
 6824SOL    HW221015   3.830   4.146   1.839
 6825SOL     OW21016   5.164   4.580   3.260
 6825SOL    HW121017   5.107   4.632   3.197
 6825SOL    HW221018   5.260   4.592   3.236
 6826SOL     OW21019   3.796   3.890   2.180
 6826SOL    HW121020   3.779   3.973   2.126
 6826SOL    HW221021   3.886   3.853   2.158
 6827SOL     OW21022   4.907   5.059   1.981
 6827SOL    HW121023   4.808   5.048   1.983
 6827SOL    HW221024   4.941   5.074   2.074
 6828SOL     OW21025   4.337   4.566   3.293
 6828SOL    HW121026   4.393   4.647   3.276
 6828SOL    HW221027   4.396   4.486   3.296
 6829SOL     OW21028   4.440   4.289   3.570
 6829SOL    HW121029   4.459   4.354   3.644
 6829SOL    HW221030   4.500   4.209   3.579
 6830SOL     OW21031   5.174   4.944   3.495
 6830SOL    HW121032   5.165   4.934   3.594
 6830SOL    HW221033   5.270   4.937   3.469
 6831SOL     OW21034   4.949   4.049   2.311
 6831SOL    HW121035   5.014   3.975   2.300
 6831SOL    HW221036   4.969   4.099   2.395
 6832SOL     OW21037   4.318   4.469   2.514
 6832SOL    HW121038   4.368   4.554   2.495
 6832SOL    HW221039   4.230   4.471   2.466
 6833SOL     OW21040   4.583   5.098   1.878
 6833SOL    HW121041   4.537   5.113   1.966
 6833SOL    HW221042   4.627   5.183   1.848
 6834SOL     OW21043   4.583   4.680   2.723
 6834SOL    HW121044   4.637   4.611   2.771
 6834SOL    HW221045   4.551   4.749   2.789
 6835SOL     OW21046   4.807   4.708   1.949
 6835SOL    HW121047   4.784   4.761   1.867
 6835SOL    HW221048   4.888   4.652   1.930
 6836SOL     OW21049   3.945   5.038   3.706
 6836SOL    HW121050   3.880   4.965   3.685
 6836SOL    HW221051   3.949   5.052   3.804
 6837SOL     OW21052   3.803   4.964   2.515
 6837SOL    HW121053   3.802   4.917   2.603
 6837SOL    HW221054   3.885   4.936   2.464
 6838SOL     OW21055   4.396   5.115   3.486
 6838SOL    HW121056   4.318   5.065   3.524
 6838SOL    HW221057   4.393   5.210   3.517
 6839SOL     OW21058   4.152   4.148   2.382
 6839SOL    HW121059   4.182   4.076   2.320
 6839SOL    HW221060   4.113   4.108   2.465
 6840SOL     OW21061   5.429   5.211   2.966
 6840SOL    HW121062   5.336   5.186   2.939
 6840SOL    HW221063   5.455   5.161   3.048
 6841SOL     OW21064   4.041   4.271   3.142
 6841SOL    HW121065   4.079   4.212   3.214
 6841SOL    HW221066   4.081   4.245   3.054
 6842SOL     OW21067   5.148   3.938   2.974
 6842SOL    HW121068   5.200   3.873   3.029
 6842SOL    HW221069   5.099   4.001   3.035
 6843SOL     OW21070   4.725   3.758   3.016
 6843SOL    HW121071   4.662   3.686   2.985
 6843SOL    HW221072   4.818   3.722   3.016
 6844SOL     OW21073   4.494   5.054   2.163
 6844SOL    HW121074   4.448   4.967   2.180
 6844SOL    HW221075   4.585   5.051   2.204
 6845SOL     OW21076   4.342   5.291   3.146
 6845SOL    HW121077   4.337   5.373   3.203
 6845SOL    HW221078   4.431   5.288   3.101
 6846SOL     OW21079   5.076   3.776   2.030
 6846SOL    HW121080   5.111   3.735   1.946
 6846SOL    HW221081   4.986   3.738   2.050
 6847SOL     OW21082   5.024   4.177   2.553
 6847SOL    HW121083   4.965   4.257   2.557
 6847SOL    HW221084   5.039   4.142   2.646
 6848SOL     OW21085   5.317   3.945   2.744
 6848SOL    HW121086   5.233   3.944   2.798
 6848SOL    HW221087   5.319   4.028   2.688
 6849SOL     OW21088   3.763   4.801   2.162
 6849SOL    HW121089   3.862   4.790   2.153
 6849SOL    HW221090   3.723   4.715   2.194
 6850SOL     OW21091   3.954   4.352   3.837
 6850SOL    HW121092   3.861   4.350   3.874
 6850SOL    HW221093   3.955   4.313   3.745
 6851SOL     OW21094   3.949   3.999   4.720
 6851SOL    HW121095   3.984   3.982   4.812
 6851SOL    HW221096   3.861   3.954   4.708
 6852SOL     OW21097   3.743   4.092   4.371
 6852SOL    HW121098   3.661   4.135   4.410
 6852SOL    HW221099   3.715   4.019   4.308
 6853SOL     OW21100   4.293   4.999   4.889
 6853SOL    HW121101   4.200   4.992   4.852
 6853SOL    HW221102   4.304   5.088   4.933
 6854SOL     OW21103   5.279   5.235   4.427
 6854SOL    HW121104   5.222   5.219   4.508
 6854SOL    HW221105   5.220   5.245   4.347
 6855SOL     OW21106   4.859   4.427   4.441
 6855SOL    HW121107   4.916   4.505   4.416
 6855SOL    HW221108   4.799   4.453   4.517
 6856SOL     OW21109   4.492   4.868   4.747
 6856SOL    HW121110   4.414   4.885   4.807
 6856SOL    HW221111   4.526   4.955   4.711
 6857SOL     OW21112   4.574   4.522   5.547
 6857SOL    HW121113   4.570   4.598   5.612
 6857SOL    HW221114   4.596   4.558   5.456
 6858SOL     OW21115   4.409   4.736   4.389
 6858SOL    HW121116   4.478   4.720   4.459
 6858SOL    HW221117   4.336   4.793   4.427
 6859SOL     OW21118   4.410   4.885   5.527
 6859SOL    HW121119   4.470   4.964   5.541
 6859SOL    HW221120   4.324   4.916   5.486
 6860SOL     OW21121   4.059   5.159   4.785
 6860SOL    HW121122   3.981   5.128   4.732
 6860SOL    HW221123   4.117   5.217   4.728
 6861SOL     OW21124   5.184   5.229   5.063
 6861SOL    HW121125   5.208   5.323   5.089
 6861SOL    HW221126   5.168   5.175   5.145
 6862SOL     OW21127   4.162   4.116   5.223
 6862SOL    HW121128   4.244   4.060   5.232
 6862SOL    HW221129   4.081   4.058   5.227
 6863SOL     OW21130   4.851   5.065   5.414
 6863SOL    HW121131   4.898   5.065   5.502
 6863SOL    HW221132   4.803   4.978   5.403
 6864SOL     OW21133   3.954   5.158   4.262
 6864SOL    HW121134   3.928   5.254   4.262
 6864SOL    HW221135   3.883   5.104   4.307
 6865SOL     OW21136   3.964   4.815   4.610
 6865SOL    HW121137   3.978   4.731   4.662
 6865SOL    HW221138   3.909   4.879   4.665
 6866SOL     OW21139   4.330   4.688   3.847
 6866SOL    HW121140   4.337   4.772   3.793
 6866SOL    HW221141   4.376   4.701   3.935
 6867SOL     OW21142   3.846   4.367   4.287
 6867SOL    HW121143   3.801   4.279   4.304
 6867SOL    HW221144   3.845   4.421   4.371
 6868SOL     OW21145   3.751   5.320   3.841
 6868SOL    HW121146   3.732   5.224   3.862
 6868SOL    HW221147   3.718   5.378   3.916
 6869SOL     OW21148   5.413   4.646   4.336
 6869SOL    HW121149   5.508   4.617   4.344
 6869SOL    HW221150   5.405   4.711   4.261
 6870SOL     OW21151   3.837   4.461   5.321
 6870SOL    HW121152   3.925   4.448   5.366
 6870SOL    HW221153   3.824   4.558   5.299
 6871SOL     OW21154   4.337   5.089   4.450
 6871SOL    HW121155   4.288   5.002   4.459
 6871SOL    HW221156   4.314   5.132   4.363
 6872SOL     OW21157   5.017   4.952   5.147
 6872SOL    HW121158   5.054   4.879   5.089
 6872SOL    HW221159   5.069   4.957   5.232
 6873SOL     OW21160   4.533   3.728   4.226
 6873SOL    HW121161   4.573   3.819   4.217
 6873SOL    HW221162   4.433   3.736   4.232
 6874SOL     OW21163   3.921   4.700   4.988
 6874SOL    HW121164   4.010   4.655   4.974
 6874SOL    HW221165   3.848   4.635   4.969
 6875SOL     OW21166   4.041   3.975   5.525
 6875SOL    HW121167   4.112   4.046   5.531
 6875SOL    HW221168   3.953   4.014   5.553
 6876SOL     OW21169   5.190   5.141   4.677
 6876SOL    HW121170   5.131   5.147   4.757
 6876SOL    HW221171   5.175   5.053   4.631
 6877SOL     OW21172   5.391   5.438   4.296
 6877SOL    HW121173   5.350   5.415   4.208
 6877SOL    HW221174   5.373   5.364   4.361
 6878SOL     OW21175   4.322   4.453   3.994
 6878SOL    HW121176   4.346   4.522   3.926
 6878SOL    HW221177   4.244   4.486   4.048
 6879SOL     OW21178   5.005   4.069   4.668
 6879SOL    HW121179   4.919   4.019   4.655
 6879SOL    HW221180   5.067   4.015   4.724
 6880SOL     OW21181   4.531   4.329   5.189
 6880SOL    HW121182   4.484   4.326   5.278
 6880SOL    HW221183   4.480   4.274   5.123
 6881SOL     OW21184   5.118   4.193   5.398
 6881SOL    HW121185   5.098   4.236   5.486
 6881SOL    HW221186   5.196   4.131   5.407
 6882SOL     OW21187   4.697   4.614   5.296
 6882SOL    HW121188   4.743   4.530   5.267
 6882SOL    HW221189   4.641   4.648   5.221
 6883SOL     OW21190   4.715   4.134   4.966
 6883SOL    HW121191   4.638   4.168   5.020
 6883SOL    HW221192   4.681   4.083   4.887
 6884SOL     OW21193   4.765   4.425   4.153
 6884SOL    HW121194   4.791   4.421   4.249
 6884SOL    HW221195   4.680   4.374   4.139
 6885SOL     OW21196   3.800   4.535   4.513
 6885SOL    HW121197   3.899   4.523   4.522
 6885SOL    HW221198   3.776   4.630   4.534
 6886SOL     OW21199   4.589   4.072   3.919
 6886SOL    HW121200   4.648   4.135   3.870
 6886SOL    HW221201   4.608   3.978   3.890
 6887SOL     OW21202   5.086   4.868   4.269
 6887SOL    HW121203   5.169   4.839   4.221
 6887SOL    HW221204   5.037   4.935   4.213
 6888SOL     OW21205   4.274   3.920   4.609
 6888SOL    HW121206   4.269   3.915   4.709
 6888SOL    HW221207   4.276   4.016   4.580
 6889SOL     OW21208   4.732   5.180   4.201
 6889SOL    HW121209   4.686   5.252   4.149
 6889SOL    HW221210   4.728   5.200   4.299
 6890SOL     OW21211   4.951   5.274   5.230
 6890SOL    HW121212   4.957   5.197   5.294
 6890SOL    HW221213   4.899   5.248   5.150
 6891SOL     OW21214   4.045   4.667   3.966
 6891SOL    HW121215   4.127   4.706   3.924
 6891SOL    HW221216   4.018   4.585   3.917
 6892SOL     OW21217   4.185   4.990   5.451
 6892SOL    HW121218   4.135   4.991   5.365
 6892SOL    HW221219   4.122   4.972   5.527
 6893SOL     OW21220   4.835   5.500   3.961
 6893SOL    HW121221   4.775   5.438   4.011
 6893SOL    HW221222   4.866   5.456   3.876
 6894SOL     OW21223   3.926   4.009   5.222
 6894SOL    HW121224   3.846   4.069   5.209
 6894SOL    HW221225   3.916   3.960   5.308
 6895SOL     OW21226   5.124   3.831   4.150
 6895SOL    HW121227   5.100   3.794   4.060
 6895SOL    HW221228   5.223   3.847   4.154
 6896SOL     OW21229   4.106   4.424   4.204
 6896SOL    HW121230   4.151   4.334   4.201
 6896SOL    HW221231   4.012   4.413   4.237
 6897SOL     OW21232   4.338   3.846   3.841
 6897SOL    HW121233   4.436   3.824   3.848
 6897SOL    HW221234   4.307   3.829   3.748
 6898SOL     OW21235   4.505   3.988   5.473
 6898SOL    HW121236   4.572   3.927   5.516
 6898SOL    HW221237   4.432   4.007   5.538
 6899SOL     OW21238   5.075   4.314   5.157
 6899SOL    HW121239   5.103   4.271   5.242
 6899SOL    HW221240   5.100   4.410   5.158
 6900SOL     OW21241   4.527   5.126   4.648
 6900SOL    HW121242   4.617   5.140   4.606
 6900SOL    HW221243   4.456   5.128   4.577
 6901SOL     OW21244   4.646   4.227   4.623
 6901SOL    HW121245   4.621   4.218   4.527
 6901SOL    HW221246   4.694   4.145   4.654
 6902SOL     OW21247   4.263   3.788   4.236
 6902SOL    HW121248   4.182   3.789   4.294
 6902SOL    HW221249   4.266   3.871   4.181
 6903SOL     OW21250   5.158   4.912   3.765
 6903SOL    HW121251   5.190   4.836   3.822
 6903SOL    HW221252   5.066   4.939   3.795
 6904SOL     OW21253   4.021   3.759   3.895
 6904SOL    HW121254   4.070   3.843   3.874
 6904SOL    HW221255   4.083   3.694   3.940
 6905SOL     OW21256   4.659   3.960   4.204
 6905SOL    HW121257   4.611   4.001   4.126
 6905SOL    HW221258   4.758   3.958   4.185
 6906SOL     OW21259   4.800   4.407   5.188
 6906SOL    HW121260   4.720   4.346   5.191
 6906SOL    HW221261   4.881   4.354   5.164
 6907SOL     OW21262   4.951   5.294   4.517
 6907SOL    HW121263   4.972   5.368   4.452
 6907SOL    HW221264   5.019   5.294   4.590
 6908SOL     OW21265   4.183   4.876   4.465
 6908SOL    HW121266   4.112   4.849   4.530
 6908SOL    HW221267   4.157   4.848   4.372
 6909SOL     OW21268   4.756   4.273   3.740
 6909SOL    HW121269   4.715   4.355   3.701
 6909SOL    HW221270   4.820   4.299   3.813
 6910SOL     OW21271   3.802   4.280   5.110
 6910SOL    HW121272   3.894   4.279   5.069
 6910SOL    HW221273   3.796   4.354   5.177
 6911SOL     OW21274   4.285   3.946   4.871
 6911SOL    HW121275   4.323   3.862   4.908
 6911SOL    HW221276   4.197   3.965   4.915
 6912SOL     OW21277   4.590   4.178   4.366
 6912SOL    HW121278   4.558   4.250   4.304
 6912SOL    HW221279   4.614   4.097   4.313
 6913SOL     OW21280   4.741   3.763   4.477
 6913SOL    HW121281   4.669   3.768   4.408
 6913SOL    HW221282   4.717   3.694   4.546
 6914SOL     OW21283   5.153   4.897   4.591
 6914SOL    HW121284   5.098   4.813   4.584
 6914SOL    HW221285   5.179   4.926   4.499
 6915SOL     OW21286   4.212   5.109   3.898
 6915SOL    HW121287   4.125   5.094   3.945
 6915SOL    HW221288   4.195   5.135   3.803
 6916SOL     OW21289   5.114   4.299   3.802
 6916SOL    HW121290   5.060   4.278   3.883
 6916SOL    HW221291   5.205   4.258   3.811
 6917SOL     OW21292   4.251   3.980   4.052
 6917SOL    HW121293   4.278   3.921   3.977
 6917SOL    HW221294   4.251   4.075   4.021
 6918SOL     OW21295   4.788   5.071   5.064
 6918SOL    HW121296   4.708   5.048   5.119
 6918SOL    HW221297   4.871   5.045   5.113
 6919SOL     OW21298   4.835   4.919   4.824
 6919SOL    HW121299   4.795   4.963   4.905
 6919SOL    HW221300   4.794   4.956   4.741
 6920SOL     OW21301   4.639   3.813   5.126
 6920SOL    HW121302   4.664   3.793   5.031
 6920SOL    HW221303   4.711   3.869   5.168
 6921SOL     OW21304   4.704   4.840   5.443
 6921SOL    HW121305   4.605   4.846   5.453
 6921SOL    HW221306   4.727   4.760   5.387
 6922SOL     OW21307   4.429   4.774   4.092
 6922SOL    HW121308   4.415   4.781   4.191
 6922SOL    HW221309   4.513   4.723   4.074
 6923SOL     OW21310   4.134   4.537   4.975
 6923SOL    HW121311   4.220   4.549   5.025
 6923SOL    HW221312   4.092   4.450   5.002
 6924SOL     OW21313   4.998   4.110   4.986
 6924SOL    HW121314   5.019   4.184   5.050
 6924SOL    HW221315   4.909   4.127   4.943
 6925SOL     OW21316   4.091   4.824   4.225
 6925SOL    HW121317   4.084   4.907   4.169
 6925SOL    HW221318   4.095   4.744   4.165
 6926SOL     OW21319   4.290   4.261   4.589
 6926SOL    HW121320   4.302   4.327   4.515
 6926SOL    HW221321   4.336   4.295   4.672
 6927SOL     OW21322   4.976   5.072   4.112
 6927SOL    HW121323   5.026   5.149   4.152
 6927SOL    HW221324   4.881   5.074   4.144
 6928SOL     OW21325   4.996   5.169   4.866
 6928SOL    HW121326   5.043   5.182   4.953
 6928SOL    HW221327   4.930   5.095   4.875
 6929SOL     OW21328   4.078   5.234   5.053
 6929SOL    HW121329   4.057   5.190   4.966
 6929SOL    HW221330   4.175   5.260   5.056
 6930SOL     OW21331   4.126   4.475   5.322
 6930SOL    HW121332   4.194   4.530   5.275
 6930SOL    HW221333   4.166   4.387   5.349
 6931SOL     OW21334   4.737   3.829   5.494
 6931SOL    HW121335   4.743   3.914   5.442
 6931SOL    HW221336   4.769   3.753   5.437
 6932SOL     OW21337   4.228   3.774   5.464
 6932SOL    HW121338   4.186   3.717   5.394
 6932SOL    HW221339   4.162   3.843   5.496
 6933SOL     OW21340   4.297   4.594   4.753
 6933SOL    HW121341   4.341   4.683   4.744
 6933SOL    HW221342   4.234   4.594   4.830
 6934SOL     OW21343   5.084   4.586   4.769
 6934SOL    HW121344   5.009   4.586   4.703
 6934SOL    HW221345   5.121   4.494   4.778
 6935SOL     OW21346   4.933   4.249   3.999
 6935SOL    HW121347   4.946   4.165   4.053
 6935SOL    HW221348   4.904   4.323   4.059
 6936SOL     OW21349   4.031   3.937   4.955
 6936SOL    HW121350   4.008   3.974   5.045
 6936SOL    HW221351   4.001   3.842   4.949
 6937SOL     OW21352   3.761   5.034   5.006
 6937SOL    HW121353   3.814   4.985   5.074
 6937SOL    HW221354   3.783   5.132   5.011
 6938SOL     OW21355   4.456   4.358   4.788
 6938SOL    HW121356   4.515   4.332   4.712
 6938SOL    HW221357   4.428   4.454   4.777
 6939SOL     OW21358   4.031   3.787   4.342
 6939SOL    HW121359   4.020   3.881   4.375
 6939SOL    HW221360   4.026   3.724   4.419
 6940SOL     OW21361   5.346   4.091   4.098
 6940SOL    HW121362   5.348   4.015   4.162
 6940SOL    HW221363   5.298   4.168   4.138
 6941SOL     OW21364   4.747   4.490   4.690
 6941SOL    HW121365   4.762   4.511   4.786
 6941SOL    HW221366   4.717   4.395   4.681
 6942SOL     OW21367   4.074   4.622   5.528
 6942SOL    HW121368   4.150   4.666   5.576
 6942SOL    HW221369   4.109   4.575   5.446
 6943SOL     OW21370   5.027   4.562   3.766
 6943SOL    HW121371   5.061   4.469   3.781
 6943SOL    HW221372   5.045   4.589   3.671
 6944SOL     OW21373   4.792   5.057   4.573
 6944SOL    HW121374   4.799   4.973   4.518
 6944SOL    HW221375   4.854   5.126   4.537
 6945SOL     OW21376   4.043   4.534   4.673
 6945SOL    HW121377   4.136   4.570   4.678
 6945SOL    HW221378   4.037   4.449   4.725
 6946SOL     OW21379   4.063   4.233   4.730
 6946SOL    HW121380   4.011   4.150   4.713
 6946SOL    HW221381   4.140   4.238   4.666
 6947SOL     OW21382   4.862   4.104   5.402
 6947SOL    HW121383   4.817   4.167   5.466
 6947SOL    HW221384   4.955   4.135   5.385
 6948SOL     OW21385   4.884   3.931   5.201
 6948SOL    HW121386   4.884   3.995   5.278
 6948SOL    HW221387   4.912   3.979   5.118
 6949SOL     OW21388   3.732   5.050   3.924
 6949SOL    HW121389   3.639   5.071   3.893
 6949SOL    HW221390   3.742   4.951   3.937
 6950SOL     OW21391   4.726   4.520   4.962
 6950SOL    HW121392   4.767   4.488   5.048
 6950SOL    HW221393   4.630   4.493   4.959
 6951SOL     OW21394   3.764   4.268   4.838
 6951SOL    HW121395   3.849   4.235   4.797
 6951SOL    HW221396   3.777   4.283   4.936
 6952SOL     OW21397   3.913   4.244   5.446
 6952SOL    HW121398   3.972   4.204   5.376
 6952SOL    HW221399   3.855   4.315   5.405
 6953SOL     OW21400   5.093   4.674   5.384
 6953SOL    HW121401   5.132   4.763   5.404
 6953SOL    HW221402   5.103   4.654   5.287
 6954SOL     OW21403   4.539   4.296   4.049
 6954SOL    HW121404   4.546   4.207   4.003
 6954SOL    HW221405   4.445   4.330   4.041
 6955SOL     OW21406   3.976   5.288   5.468
 6955SOL    HW121407   3.946   5.345   5.544
 6955SOL    HW221408   3.969   5.191   5.494
 6956SOL     OW21409   4.395   4.188   4.993
 6956SOL    HW121410   4.361   4.099   4.963
 6956SOL    HW221411   4.421   4.242   4.913
 6957SOL     OW21412   4.197   4.224   3.915
 6957SOL    HW121413   4.258   4.304   3.919
 6957SOL    HW221414   4.102   4.255   3.922
 6958SOL     OW21415   3.883   4.861   5.190
 6958SOL    HW121416   3.905   4.800   5.266
 6958SOL    HW221417   3.893   4.812   5.104
 6959SOL     OW21418   5.071   4.783   4.958
 6959SOL    HW121419   5.095   4.720   4.884
 6959SOL    HW221420   4.981   4.823   4.940
 6960SOL     OW21421   5.026   4.579   4.033
 6960SOL    HW121422   4.940   4.548   4.075
 6960SOL    HW221423   5.022   4.565   3.934
 6961SOL     OW21424   3.807   4.982   4.746
 6961SOL    HW121425   3.802   4.981   4.846
 6961SOL    HW221426   3.724   4.941   4.708
 6962SOL     OW21427   4.412   5.386   5.440
 6962SOL    HW121428   4.356   5.467   5.449
 6962SOL    HW221429   4.464   5.390   5.354
 6963SOL     OW21430   5.450   3.859   4.247
 6963SOL    HW121431   5.523   3.842   4.180
 6963SOL    HW221432   5.419   3.772   4.285
 6964SOL     OW21433   5.004   4.651   4.396
 6964SOL    HW121434   5.064   4.570   4.398
 6964SOL    HW221435   5.044   4.720   4.336
 6965SOL     OW21436   4.554   4.997   5.146
 6965SOL    HW121437   4.549   5.030   5.241
 6965SOL    HW221438   4.468   5.016   5.100
 6966SOL     OW21439   3.987   4.050   4.444
 6966SOL    HW121440   3.908   4.101   4.410
 6966SOL    HW221441   3.978   4.035   4.542
 6967SOL     OW21442   4.546   4.726   5.096
 6967SOL    HW121443   4.586   4.725   5.004
 6967SOL    HW221444   4.556   4.818   5.136
 6968SOL     OW21445   4.640   4.634   4.015
 6968SOL    HW121446   4.703   4.672   3.947
 6968SOL    HW221447   4.680   4.551   4.054
 6969SOL     OW21448   4.096   5.012   5.214
 6969SOL    HW121449   4.083   5.105   5.180
 6969SOL    HW221450   4.012   4.960   5.201
 6970SOL     OW21451   4.763   4.822   4.420
 6970SOL    HW121452   4.693   4.775   4.474
 6970SOL    HW221453   4.822   4.754   4.377
 6971SOL     OW21454   4.738   3.960   4.695
 6971SOL    HW121455   4.730   3.924   4.602
 6971SOL    HW221456   4.736   3.884   4.760
 6972SOL     OW21457   3.979   5.072   4.014
 6972SOL    HW121458   3.883   5.073   3.987
 6972SOL    HW221459   3.991   5.125   4.098
 6973SOL     OW21460   3.829   4.737   5.450
 6973SOL    HW121461   3.752   4.704   5.504
 6973SOL    HW221462   3.914   4.707   5.492
 6974SOL     OW21463   4.396   3.927   5.213
 6974SOL    HW121464   4.486   3.911   5.173
 6974SOL    HW221465   4.404   3.932   5.312
 6975SOL     OW21466   3.799   4.069   3.757
 6975SOL    HW121467   3.707   4.041   3.728
 6975SOL    HW221468   3.830   4.146   3.701
 6976SOL     OW21469   5.164   4.580   5.122
 6976SOL    HW121470   5.107   4.632   5.059
 6976SOL    HW221471   5.260   4.592   5.098
 6977SOL     OW21472   3.796   3.890   4.042
 6977SOL    HW121473   3.779   3.973   3.988
 6977SOL    HW221474   3.886   3.853   4.020
 6978SOL     OW21475   4.907   5.059   3.843
 6978SOL    HW121476   4.808   5.048   3.845
 6978SOL    HW221477   4.941   5.074   3.936
 6979SOL     OW21478   4.337   4.566   5.155
 6979SOL    HW121479   4.393   4.647   5.138
 6979SOL    HW221480   4.396   4.486   5.158
 6980SOL     OW21481   4.440   4.289   5.432
 6980SOL    HW121482   4.459   4.354   5.506
 6980SOL    HW221483   4.500   4.209   5.441
 6981SOL     OW21484   5.174   4.944   5.357
 6981SOL    HW121485   5.165   4.934   5.456
 6981SOL    HW221486   5.270   4.937   5.331
 6982SOL     OW21487   4.949   4.049   4.173
 6982SOL    HW121488   5.014   3.975   4.162
 6982SOL    HW221489   4.969   4.099   4.257
 6983SOL     OW21490   4.318   4.469   4.376
 6983SOL    HW121491   4.368   4.554   4.357
 6983SOL    HW221492   4.230   4.471   4.328
 6984SOL     OW21493   4.583   5.098   3.740
 6984SOL    HW121494   4.537   5.113   3.828
 6984SOL    HW221495   4.627   5.183   3.710
 6985SOL     OW21496   4.583   4.680   4.585
 6985SOL    HW121497   4.637   4.611   4.633
 6985SOL    HW221498   4.551   4.749   4.651
 6986SOL     OW21499   4.807   4.708   3.811
 6986SOL    HW121500   4.784   4.761   3.729
 6986SOL    HW221501   4.888   4.652   3.792
 6987SOL     OW21502   3.945   5.038   5.568
 6987SOL    HW121503   3.880   4.965   5.547
 6987SOL    HW221504   3.949   5.052   5.666
 6988SOL     OW21505   3.803   4.964   4.377
 6988SOL    HW121506   3.802   4.917   4.465
 6988SOL    HW221507   3.885   4.936   4.326
 6989SOL     OW21508   4.396   5.115   5.348
 6989SOL    HW121509   4.318   5.065   5.386
 6989SOL    HW221510   4.393   5.210   5.379
 6990SOL     OW21511   4.152   4.148   4.244
 6990SOL    HW121512   4.182   4.076   4.182
 6990SOL    HW221513   4.113   4.108   4.327
 6991SOL     OW21514   5.429   5.211   4.828
 6991SOL    HW121515   5.336   5.186   4.801
 6991SOL    HW221516   5.455   5.161   4.910
 6992SOL     OW21517   4.041   4.271   5.004
 6992SOL    HW121518   4.079   4.212   5.076
 6992SOL    HW221519   4.081   4.245   4.916
 6993SOL     OW21520   5.148   3.938   4.836
 6993SOL    HW121521   5.200   3.873   4.891
 6993SOL    HW221522   5.099   4.001   4.897
 6994SOL     OW21523   4.725   3.758   4.878
 6994SOL    HW121524   4.662   3.686   4.847
 6994SOL    HW221525   4.818   3.722   4.878
 6995SOL     OW21526   4.494   5.054   4.025
 6995SOL    HW121527   4.448   4.967   4.042
 6995SOL    HW221528   4.585   5.051   4.066
 6996SOL     OW21529   4.342   5.291   5.008
 6996SOL    HW121530   4.337   5.373   5.065
 6996SOL    HW221531   4.431   5.288   4.963
 6997SOL     OW21532   5.076   3.776   3.892
 6997SOL    HW121533   5.111   3.735   3.808
 6997SOL    HW221534   4.986   3.738   3.912
 6998SOL     OW21535   5.024   4.177   4.415
 6998SOL    HW121536   4.965   4.257   4.419
 6998SOL    HW221537   5.039   4.142   4.508
 6999SOL     OW21538   5.317   3.945   4.606
 6999SOL    HW121539   5.233   3.944   4.660
 6999SOL    HW221540   5.319   4.028   4.550
 7000SOL     OW21541   3.763   4.801   4.024
 7000SOL    HW121542   3.862   4.790   4.015
 7000SOL    HW221543   3.723   4.715   4.056
 7001SOL     OW21544   3.954   4.352   5.699
 7001SOL    HW121545   3.861   4.350   5.736
 7001SOL    HW221546   3.955   4.313   5.607
 7002SOL     OW21547   3.949   3.999   6.582
 7002SOL    HW121548   3.984   3.982   6.674
 7002SOL    HW221549   3.861   3.954   6.570
 7003SOL     OW21550   3.743   4.092   6.233
 7003SOL    HW121551   3.661   4.135   6.272
 7003SOL    HW221552   3.715   4.019   6.170
 7004SOL     OW21553   4.293   4.999   6.751
 7004SOL    HW121554   4.200   4.992   6.714
 7004SOL    HW221555   4.304   5.088   6.795
 7005SOL     OW21556   5.279   5.235   6.289
 7005SOL    HW121557   5.222   5.219   6.370
 7005SOL    HW221558   5.220   5.245   6.209
 7006SOL     OW21559   4.859   4.427   6.303
 7006SOL    HW121560   4.916   4.505   6.278
 7006SOL    HW221561   4.799   4.453   6.379
 7007SOL     OW21562   4.492   4.868   6.609
 7007SOL    HW121563   4.414   4.885   6.669
 7007SOL    HW221564   4.526   4.955   6.573
 7008SOL     OW21565   4.574   4.522   7.409
 7008SOL    HW121566   4.570   4.598   7.474
 7008SOL    HW221567   4.596   4.558   7.318
 7009SOL     OW21568   4.409   4.736   6.251
 7009SOL    HW121569   4.478   4.720   6.321
 7009SOL    HW221570   4.336   4.793   6.289
 7010SOL     OW21571   4.410   4.885   7.389
 7010SOL    HW121572   4.470   4.964   7.403
 7010SOL    HW221573   4.324   4.916   7.348
 7011SOL     OW21574   4.059   5.159   6.647
 7011SOL    HW121575   3.981   5.128   6.594
 7011SOL    HW221576   4.117   5.217   6.590
 7012SOL     OW21577   5.184   5.229   6.925
 7012SOL    HW121578   5.208   5.323   6.951
 7012SOL    HW221579   5.168   5.175   7.007
 7013SOL     OW21580   4.162   4.116   7.085
 7013SOL    HW121581   4.244   4.060   7.094
 7013SOL    HW221582   4.081   4.058   7.089
 7014SOL     OW21583   4.851   5.065   7.276
 7014SOL    HW121584   4.898   5.065   7.364
 7014SOL    HW221585   4.803   4.978   7.265
 7015SOL     OW21586   3.954   5.158   6.124
 7015SOL    HW121587   3.928   5.254   6.124
 7015SOL    HW221588   3.883   5.104   6.169
 7016SOL     OW21589   3.964   4.815   6.472
 7016SOL    HW121590   3.978   4.731   6.524
 7016SOL    HW221591   3.909   4.879   6.527
 7017SOL     OW21592   4.330   4.688   5.709
 7017SOL    HW121593   4.337   4.772   5.655
 7017SOL    HW221594   4.376   4.701   5.797
 7018SOL     OW21595   3.846   4.367   6.149
 7018SOL    HW121596   3.801   4.279   6.166
 7018SOL    HW221597   3.845   4.421   6.233
 7019SOL     OW21598   3.751   5.320   5.703
 7019SOL    HW121599   3.732   5.224   5.724
 7019SOL    HW221600   3.718   5.378   5.778
 7020SOL     OW21601   5.413   4.646   6.198
 7020SOL    HW121602   5.508   4.617   6.206
 7020SOL    HW221603   5.405   4.711   6.123
 7021SOL     OW21604   3.837   4.461   7.183
 7021SOL    HW121605   3.925   4.448   7.228
 7021SOL    HW221606   3.824   4.558   7.161
 7022SOL     OW21607   4.337   5.089   6.312
 7022SOL    HW121608   4.288   5.002   6.321
 7022SOL    HW221609   4.314   5.132   6.225
 7023SOL     OW21610   5.017   4.952   7.009
 7023SOL    HW121611   5.054   4.879   6.951
 7023SOL    HW221612   5.069   4.957   7.094
 7024SOL     OW21613   4.533   3.728   6.088
 7024SOL    HW121614   4.573   3.819   6.079
 7024SOL    HW221615   4.433   3.736   6.094
 7025SOL     OW21616   3.921   4.700   6.850
 7025SOL    HW121617   4.010   4.655   6.836
 7025SOL    HW221618   3.848   4.635   6.831
 7026SOL     OW21619   4.041   3.975   7.387
 7026SOL    HW121620   4.112   4.046   7.393
 7026SOL    HW221621   3.953   4.014   7.415
 7027SOL     OW21622   5.190   5.141   6.539
 7027SOL    HW121623   5.131   5.147   6.619
 7027SOL    HW221624   5.175   5.053   6.493
 7028SOL     OW21625   5.391   5.438   6.158
 7028SOL    HW121626   5.350   5.415   6.070
 7028SOL    HW221627   5.373   5.364   6.223
 7029SOL     OW21628   4.322   4.453   5.856
 7029SOL    HW121629   4.346   4.522   5.788
 7029SOL    HW221630   4.244   4.486   5.910
 7030SOL     OW21631   5.005   4.069   6.530
 7030SOL    HW121632   4.919   4.019   6.517
 7030SOL    HW221633   5.067   4.015   6.586
 7031SOL     OW21634   4.531   4.329   7.051
 7031SOL    HW121635   4.484   4.326   7.140
 7031SOL    HW221636   4.480   4.274   6.985
 7032SOL     OW21637   5.118   4.193   7.260
 7032SOL    HW121638   5.098   4.236   7.348
 7032SOL    HW221639   5.196   4.131   7.269
 7033SOL     OW21640   4.697   4.614   7.158
 7033SOL    HW121641   4.743   4.530   7.129
 7033SOL    HW221642   4.641   4.648   7.083
 7034SOL     OW21643   4.715   4.134   6.828
 7034SOL    HW121644   4.638   4.168   6.882
 7034SOL    HW221645   4.681   4.083   6.749
 7035SOL     OW21646   4.765   4.425   6.015
 7035SOL    HW121647   4.791   4.421   6.111
 7035SOL    HW221648   4.680   4.374   6.001
 7036SOL     OW21649   3.800   4.535   6.375
 7036SOL    HW121650   3.899   4.523   6.384
 7036SOL    HW221651   3.776   4.630   6.396
 7037SOL     OW21652   4.589   4.072   5.781
 7037SOL    HW121653   4.648   4.135   5.732
 7037SOL    HW221654   4.608   3.978   5.752
 7038SOL     OW21655   5.086   4.868   6.131
 7038SOL    HW121656   5.169   4.839   6.083
 7038SOL    HW221657   5.037   4.935   6.075
 7039SOL     OW21658   4.274   3.920   6.471
 7039SOL    HW121659   4.269   3.915   6.571
 7039SOL    HW221660   4.276   4.016   6.442
 7040SOL     OW21661   4.732   5.180   6.063
 7040SOL    HW121662   4.686   5.252   6.011
 7040SOL    HW221663   4.728   5.200   6.161
 7041SOL     OW21664   4.951   5.274   7.092
 7041SOL    HW121665   4.957   5.197   7.156
 7041SOL    HW221666   4.899   5.248   7.012
 7042SOL     OW21667   4.045   4.667   5.828
 7042SOL    HW121668   4.127   4.706   5.786
 7042SOL    HW221669   4.018   4.585   5.779
 7043SOL     OW21670   4.185   4.990   7.313
 7043SOL    HW121671   4.135   4.991   7.227
 7043SOL    HW221672   4.122   4.972   7.389
 7044SOL     OW21673   4.835   5.500   5.823
 7044SOL    HW121674   4.775   5.438   5.873
 7044SOL    HW221675   4.866   5.456   5.738
 7045SOL     OW21676   3.926   4.009   7.084
 7045SOL    HW121677   3.846   4.069   7.071
 7045SOL    HW221678   3.916   3.960   7.170
 7046SOL     OW21679   5.124   3.831   6.012
 7046SOL    HW121680   5.100   3.794   5.922
 7046SOL    HW221681   5.223   3.847   6.016
 7047SOL     OW21682   4.106   4.424   6.066
 7047SOL    HW121683   4.151   4.334   6.063
 7047SOL    HW221684   4.012   4.413   6.099
 7048SOL     OW21685   4.338   3.846   5.703
 7048SOL    HW121686   4.436   3.824   5.710
 7048SOL    HW221687   4.307   3.829   5.610
 7049SOL     OW21688   4.505   3.988   7.335
 7049SOL    HW121689   4.572   3.927   7.378
 7049SOL    HW221690   4.432   4.007   7.400
 7050SOL     OW21691   5.075   4.314   7.019
 7050SOL    HW121692   5.103   4.271   7.104
 7050SOL    HW221693   5.100   4.410   7.020
 7051SOL     OW21694   4.527   5.126   6.510
 7051SOL    HW121695   4.617   5.140   6.468
 7051SOL    HW221696   4.456   5.128   6.439
 7052SOL     OW21697   4.646   4.227   6.485
 7052SOL    HW121698   4.621   4.218   6.389
 7052SOL    HW221699   4.694   4.145   6.516
 7053SOL     OW21700   4.263   3.788   6.098
 7053SOL    HW121701   4.182   3.789   6.156
 7053SOL    HW221702   4.266   3.871   6.043
 7054SOL     OW21703   5.158   4.912   5.627
 7054SOL    HW121704   5.190   4.836   5.684
 7054SOL    HW221705   5.066   4.939   5.657
 7055SOL     OW21706   4.021   3.759   5.757
 7055SOL    HW121707   4.070   3.843   5.736
 7055SOL    HW221708   4.083   3.694   5.802
 7056SOL     OW21709   4.659   3.960   6.066
 7056SOL    HW121710   4.611   4.001   5.988
 7056SOL    HW221711   4.758   3.958   6.047
 7057SOL     OW21712   4.800   4.407   7.050
 7057SOL    HW121713   4.720   4.346   7.053
 7057SOL    HW221714   4.881   4.354   7.026
 7058SOL     OW21715   4.951   5.294   6.379
 7058SOL    HW121716   4.972   5.368   6.314
 7058SOL    HW221717   5.019   5.294   6.452
 7059SOL     OW21718   4.183   4.876   6.327
 7059SOL    HW121719   4.112   4.849   6.392
 7059SOL    HW221720   4.157   4.848   6.234
 7060SOL     OW21721   4.756   4.273   5.602
 7060SOL    HW121722   4.715   4.355   5.563
 7060SOL    HW221723   4.820   4.299   5.675
 7061SOL     OW21724   3.802   4.280   6.972
 7061SOL    HW121725   3.894   4.279   6.931
 7061SOL    HW221726   3.796   4.354   7.039
 7062SOL     OW21727   4.285   3.946   6.733
 7062SOL    HW121728   4.323   3.862   6.770
 7062SOL    HW221729   4.197   3.965   6.777
 7063SOL     OW21730   4.590   4.178   6.228
 7063SOL    HW121731   4.558   4.250   6.166
 7063SOL    HW221732   4.614   4.097   6.175
 7064SOL     OW21733   4.741   3.763   6.339
 7064SOL    HW121734   4.669   3.768   6.270
 7064SOL    HW221735   4.717   3.694   6.408
 7065SOL     OW21736   5.153   4.897   6.453
 7065SOL    HW121737   5.098   4.813   6.446
 7065SOL    HW221738   5.179   4.926   6.361
 7066SOL     OW21739   4.212   5.109   5.760
 7066SOL    HW121740   4.125   5.094   5.807
 7066SOL    HW221741   4.195   5.135   5.665
 7067SOL     OW21742   5.114   4.299   5.664
 7067SOL    HW121743   5.060   4.278   5.745
 7067SOL    HW221744   5.205   4.258   5.673
 7068SOL     OW21745   4.251   3.980   5.914
 7068SOL    HW121746   4.278   3.921   5.839
 7068SOL    HW221747   4.251   4.075   5.883
 7069SOL     OW21748   4.788   5.071   6.926
 7069SOL    HW121749   4.708   5.048   6.981
 7069SOL    HW221750   4.871   5.045   6.975
 7070SOL     OW21751   4.835   4.919   6.686
 7070SOL    HW121752   4.795   4.963   6.767
 7070SOL    HW221753   4.794   4.956   6.603
 7071SOL     OW21754   4.639   3.813   6.988
 7071SOL    HW121755   4.664   3.793   6.893
 7071SOL    HW221756   4.711   3.869   7.030
 7072SOL     OW21757   4.704   4.840   7.305
 7072SOL    HW121758   4.605   4.846   7.315
 7072SOL    HW221759   4.727   4.760   7.249
 7073SOL     OW21760   4.429   4.774   5.954
 7073SOL    HW121761   4.415   4.781   6.053
 7073SOL    HW221762   4.513   4.723   5.936
 7074SOL     OW21763   4.134   4.537   6.837
 7074SOL    HW121764   4.220   4.549   6.887
 7074SOL    HW221765   4.092   4.450   6.864
 7075SOL     OW21766   4.998   4.110   6.848
 7075SOL    HW121767   5.019   4.184   6.912
 7075SOL    HW221768   4.909   4.127   6.805
 7076SOL     OW21769   4.091   4.824   6.087
 7076SOL    HW121770   4.084   4.907   6.031
 7076SOL    HW221771   4.095   4.744   6.027
 7077SOL     OW21772   4.290   4.261   6.451
 7077SOL    HW121773   4.302   4.327   6.377
 7077SOL    HW221774   4.336   4.295   6.534
 7078SOL     OW21775   4.976   5.072   5.974
 7078SOL    HW121776   5.026   5.149   6.014
 7078SOL    HW221777   4.881   5.074   6.006
 7079SOL     OW21778   4.996   5.169   6.728
 7079SOL    HW121779   5.043   5.182   6.815
 7079SOL    HW221780   4.930   5.095   6.737
 7080SOL     OW21781   4.078   5.234   6.915
 7080SOL    HW121782   4.057   5.190   6.828
 7080SOL    HW221783   4.175   5.260   6.918
 7081SOL     OW21784   4.126   4.475   7.184
 7081SOL    HW121785   4.194   4.530   7.137
 7081SOL    HW221786   4.166   4.387   7.211
 7082SOL     OW21787   4.737   3.829   7.356
 7082SOL    HW121788   4.743   3.914   7.304
 7082SOL    HW221789   4.769   3.753   7.299
 7083SOL     OW21790   4.228   3.774   7.326
 7083SOL    HW121791   4.186   3.717   7.256
 7083SOL    HW221792   4.162   3.843   7.358
 7084SOL     OW21793   4.297   4.594   6.615
 7084SOL    HW121794   4.341   4.683   6.606
 7084SOL    HW221795   4.234   4.594   6.692
 7085SOL     OW21796   5.084   4.586   6.631
 7085SOL    HW121797   5.009   4.586   6.565
 7085SOL    HW221798   5.121   4.494   6.640
 7086SOL     OW21799   4.933   4.249   5.861
 7086SOL    HW121800   4.946   4.165   5.915
 7086SOL    HW221801   4.904   4.323   5.921
 7087SOL     OW21802   4.031   3.937   6.817
 7087SOL    HW121803   4.008   3.974   6.907
 7087SOL    HW221804   4.001   3.842   6.811
 7088SOL     OW21805   3.761   5.034   6.868
 7088SOL    HW121806   3.814   4.985   6.936
 7088SOL    HW221807   3.783   5.132   6.873
 7089SOL     OW21808   4.456   4.358   6.650
 7089SOL    HW121809   4.515   4.332   6.574
 7089SOL    HW221810   4.428   4.454   6.639
 7090SOL     OW21811   4.031   3.787   6.204
 7090SOL    HW121812   4.020   3.881   6.237
 7090SOL    HW221813   4.026   3.724   6.281
 7091SOL     OW21814   5.346   4.091   5.960
 7091SOL    HW121815   5.348   4.015   6.024
 7091SOL    HW221816   5.298   4.168   6.000
 7092SOL     OW21817   4.747   4.490   6.552
 7092SOL    HW121818   4.762   4.511   6.648
 7092SOL    HW221819   4.717   4.395   6.543
 7093SOL     OW21820   4.074   4.622   7.390
 7093SOL    HW121821   4.150   4.666   7.438
 7093SOL    HW221822   4.109   4.575   7.308
 7094SOL     OW21823   5.027   4.562   5.628
 7094SOL    HW121824   5.061   4.469   5.643
 7094SOL    HW221825   5.045   4.589   5.533
 7095SOL     OW21826   4.792   5.057   6.435
 7095SOL    HW121827   4.799   4.973   6.380
 7095SOL    HW221828   4.854   5.126   6.399
 7096SOL     OW21829   4.043   4.534   6.535
 7096SOL    HW121830   4.136   4.570   6.540
 7096SOL    HW221831   4.037   4.449   6.587
 7097SOL     OW21832   4.063   4.233   6.592
 7097SOL    HW121833   4.011   4.150   6.575
 7097SOL    HW221834   4.140   4.238   6.528
 7098SOL     OW21835   4.862   4.104   7.264
 7098SOL    HW121836   4.817   4.167   7.328
 7098SOL    HW221837   4.955   4.135   7.247
 7099SOL     OW21838   4.884   3.931   7.063
 7099SOL    HW121839   4.884   3.995   7.140
 7099SOL    HW221840   4.912   3.979   6.980
 7100SOL     OW21841   3.732   5.050   5.786
 7100SOL    HW121842   3.639   5.071   5.755
 7100SOL    HW221843   3.742   4.951   5.799
 7101SOL     OW21844   4.726   4.520   6.824
 7101SOL    HW121845   4.767   4.488   6.910
 7101SOL    HW221846   4.630   4.493   6.821
 7102SOL     OW21847   3.764   4.268   6.700
 7102SOL    HW121848   3.849   4.235   6.659
 7102SOL    HW221849   3.777   4.283   6.798
 7103SOL     OW21850   3.913   4.244   7.308
 7103SOL    HW121851   3.972   4.204   7.238
 7103SOL    HW221852   3.855   4.315   7.267
 7104SOL     OW21853   5.093   4.674   7.246
 7104SOL    HW121854   5.132   4.763   7.266
 7104SOL    HW221855   5.103   4.654   7.149
 7105SOL     OW21856   4.539   4.296   5.911
 7105SOL    HW121857   4.546   4.207   5.865
 7105SOL    HW221858   4.445   4.330   5.903
 7106SOL     OW21859   3.976   5.288   7.330
 7106SOL    HW121860   3.946   5.345   7.406
 7106SOL    HW221861   3.969   5.191   7.356
 7107SOL     OW21862   4.395   4.188   6.855
 7107SOL    HW121863   4.361   4.099   6.825
 7107SOL    HW221864   4.421   4.242   6.775
 7108SOL     OW21865   4.197   4.224   5.777
 7108SOL    HW121866   4.258   4.304   5.781
 7108SOL    HW221867   4.102   4.255   5.784
 7109SOL     OW21868   3.883   4.861   7.052
 7109SOL    HW121869   3.905   4.800   7.128
 7109SOL    HW221870   3.893   4.812   6.966
 7110SOL     OW21871   5.071   4.783   6.820
 7110SOL    HW121872   5.095   4.720   6.746
 7110SOL    HW221873   4.981   4.823   6.802
 7111SOL     OW21874   5.026   4.579   5.895
 7111SOL    HW121875   4.940   4.548   5.937
 7111SOL    HW221876   5.022   4.565   5.796
 7112SOL     OW21877   3.807   4.982   6.608
 7112SOL    HW121878   3.802   4.981   6.708
 7112SOL    HW221879   3.724   4.941   6.570
 7113SOL     OW21880   4.412   5.386   7.302
 7113SOL    HW121881   4.356   5.467   7.311
 7113SOL    HW221882   4.464   5.390   7.216
 7114SOL     OW21883   5.450   3.859   6.109
 7114SOL    HW121884   5.523   3.842   6.042
 7114SOL    HW221885   5.419   3.772   6.147
 7115SOL     OW21886   5.004   4.651   6.258
 7115SOL    HW121887   5.064   4.570   6.260
 7115SOL    HW221888   5.044   4.720   6.198
 7116SOL     OW21889   4.554   4.997   7.008
 7116SOL    HW121890   4.549   5.030   7.103
 7116SOL    HW221891   4.468   5.016   6.962
 7117SOL     OW21892   3.987   4.050   6.306
 7117SOL    HW121893   3.908   4.101   6.272
 7117SOL    HW221894   3.978   4.035   6.404
 7118SOL     OW21895   4.546   4.726   6.958
 7118SOL    HW121896   4.586   4.725   6.866
 7118SOL    HW221897   4.556   4.818   6.998
 7119SOL     OW21898   4.640   4.634   5.877
 7119SOL    HW121899   4.703   4.672   5.809
 7119SOL    HW221900   4.680   4.551   5.916
 7120SOL     OW21901   4.096   5.012   7.076
 7120SOL    HW121902   4.083   5.105   7.042
 7120SOL    HW221903   4.012   4.960   7.063
 7121SOL     OW21904   4.763   4.822   6.282
 7121SOL    HW121905   4.693   4.775   6.336
 7121SOL    HW221906   4.822   4.754   6.239
 7122SOL     OW21907   4.738   3.960   6.557
 7122SOL    HW121908   4.730   3.924   6.464
 7122SOL    HW221909   4.736   3.884   6.622
 7123SOL     OW21910   3.979   5.072   5.876
 7123SOL    HW121911   3.883   5.073   5.849
 7123SOL    HW221912   3.991   5.125   5.960
 7124SOL     OW21913   3.829   4.737   7.312
 7124SOL    HW121914   3.752   4.704   7.366
 7124SOL    HW221915   3.914   4.707   7.354
 7125SOL     OW21916   4.396   3.927   7.075
 7125SOL    HW121917   4.486   3.911   7.035
 7125SOL    HW221918   4.404   3.932   7.174
 7126SOL     OW21919   3.799   4.069   5.619
 7126SOL    HW121920   3.707   4.041   5.590
 7126SOL    HW221921   3.830   4.146   5.563
 7127SOL     OW21922   5.164   4.580   6.984
 7127SOL    HW121923   5.107   4.632   6.921
 7127SOL    HW221924   5.260   4.592   6.960
 7128SOL     OW21925   3.796   3.890   5.904
 7128SOL    HW121926   3.779   3.973   5.850
 7128SOL    HW221927   3.886   3.853   5.882
 7129SOL     OW21928   4.907   5.059   5.705
 7129SOL    HW121929   4.808   5.048   5.707
 7129SOL    HW221930   4.941   5.074   5.798
 7130SOL     OW21931   4.337   4.566   7.017
 7130SOL    HW121932   4.393   4.647   7.000
 7130SOL    HW221933   4.396   4.486   7.020
 7131SOL     OW21934   4.440   4.289   7.294
 7131SOL    HW121935   4.459   4.354   7.368
 7131SOL    HW221936   4.500   4.209   7.303
 7132SOL     OW21937   5.174   4.944   7.219
 7132SOL    HW121938   5.165   4.934   7.318
 7132SOL    HW221939   5.270   4.937   7.193
 7133SOL     OW21940   4.949   4.049   6.035
 7133SOL    HW121941   5.014   3.975   6.024
 7133SOL    HW221942   4.969   4.099   6.119
 7134SOL     OW21943   4.318   4.469   6.238
 7134SOL    HW121944   4.368   4.554   6.219
 7134SOL    HW221945   4.230   4.471   6.190
 7135SOL     OW21946   4.583   5.098   5.602
 7135SOL    HW121947   4.537   5.113   5.690
 7135SOL    HW221948   4.627   5.183   5.572
 7136SOL     OW21949   4.583   4.680   6.447
 7136SOL    HW121950   4.637   4.611   6.495
 7136SOL    HW221951   4.551   4.749   6.513
 7137SOL     OW21952   4.807   4.708   5.673
 7137SOL    HW121953   4.784   4.761   5.591
 7137SOL    HW221954   4.888   4.652   5.654
 7138SOL     OW21955   3.945   5.038   7.430
 7138SOL    HW121956   3.880   4.965   7.409
 7138SOL    HW221957   3.949   5.052   7.528
 7139SOL     OW21958   3.803   4.964   6.239
 7139SOL    HW121959   3.802   4.917   6.327
 7139SOL    HW221960   3.885   4.936   6.188
 7140SOL     OW21961   4.396   5.115   7.210
 7140SOL    HW121962   4.318   5.065   7.248
 7140SOL    HW221963   4.393   5.210   7.241
 7141SOL     OW21964   4.152   4.148   6.106
 7141SOL    HW121965   4.182   4.076   6.044
 7141SOL    HW221966   4.113   4.108   6.189
 7142SOL     OW21967   5.429   5.211   6.690
 7142SOL    HW121968   5.336   5.186   6.663
 7142SOL    HW221969   5.455   5.161   6.772
 7143SOL     OW21970   4.041   4.271   6.866
 7143SOL    HW121971   4.079   4.212   6.938
 7143SOL    HW221972   4.081   4.245   6.778
 7144SOL     OW21973   5.148   3.938   6.698
 7144SOL    HW121974   5.200   3.873   6.753
 7144SOL    HW221975   5.099   4.001   6.759
 7145SOL     OW21976   4.725   3.758   6.740
 7145SOL    HW121977   4.662   3.686   6.709
 7145SOL    HW221978   4.818   3.722   6.740
 7146SOL     OW21979   4.494   5.054   5.887
 7146SOL    HW121980   4.448   4.967   5.904
 7146SOL    HW221981   4.585   5.051   5.928
 7147SOL     OW21982   4.342   5.291   6.870
 7147SOL    HW121983   4.337   5.373   6.927
 7147SOL    HW221984   4.431   5.288   6.825
 7148SOL     OW21985   5.076   3.776   5.754
 7148SOL    HW121986   5.111   3.735   5.670
 7148SOL    HW221987   4.986   3.738   5.774
 7149SOL     OW21988   5.024   4.177   6.277
 7149SOL    HW121989   4.965   4.257   6.281
 7149SOL    HW221990   5.039   4.142   6.370
 7150SOL     OW21991   5.317   3.945   6.468
 7150SOL    HW121992   5.233   3.944   6.522
 7150SOL    HW221993   5.319   4.028   6.412
 7151SOL     OW21994   3.763   4.801   5.886
 7151SOL    HW121995   3.862   4.790   5.877
 7151SOL    HW221996   3.723   4.715   5.918
 7152SOL     OW21997   3.954   4.352   7.561
 7152SOL    HW121998   3.861   4.350   7.598
 7152SOL    HW221999   3.955   4.313   7.469
 7153SOL     OW22000   3.955   5.437   7.931
 7153SOL    HW122001   3.989   5.514   7.985
 7153SOL    HW222002   3.999   5.437   7.841
 7154SOL     OW22003   3.954   5.158   7.986
 7154SOL    HW122004   3.928   5.254   7.986
 7154SOL    HW222005   3.883   5.104   8.031
 7155SOL     OW22006   4.330   4.688   7.571
 7155SOL    HW122007   4.337   4.772   7.517
 7155SOL    HW222008   4.376   4.701   7.659
 7156SOL     OW22009   3.751   5.320   7.565
 7156SOL    HW122010   3.732   5.224   7.586
 7156SOL    HW222011   3.718   5.378   7.640
 7157SOL     OW22012   5.413   4.646   8.060
 7157SOL    HW122013   5.508   4.617   8.068
 7157SOL    HW222014   5.405   4.711   7.985
 7158SOL     OW22015   4.533   3.728   7.950
 7158SOL    HW122016   4.573   3.819   7.941
 7158SOL    HW222017   4.433   3.736   7.956
 7159SOL     OW22018   4.322   4.453   7.718
 7159SOL    HW122019   4.346   4.522   7.650
 7159SOL    HW222020   4.244   4.486   7.772
 7160SOL     OW22021   3.800   4.535   8.237
 7160SOL    HW122022   3.899   4.523   8.246
 7160SOL    HW222023   3.776   4.630   8.258
 7161SOL     OW22024   4.589   4.072   7.643
 7161SOL    HW122025   4.648   4.135   7.594
 7161SOL    HW222026   4.608   3.978   7.614
 7162SOL     OW22027   4.045   4.667   7.690
 7162SOL    HW122028   4.127   4.706   7.648
 7162SOL    HW222029   4.018   4.585   7.641
 7163SOL     OW22030   4.835   5.500   7.685
 7163SOL    HW122031   4.775   5.438   7.735
 7163SOL    HW222032   4.866   5.456   7.600
 7164SOL     OW22033   5.124   3.831   7.874
 7164SOL    HW122034   5.100   3.794   7.784
 7164SOL    HW222035   5.223   3.847   7.878
 7165SOL     OW22036   4.106   4.424   7.928
 7165SOL    HW122037   4.151   4.334   7.925
 7165SOL    HW222038   4.012   4.413   7.961
 7166SOL     OW22039   4.338   3.846   7.565
 7166SOL    HW122040   4.436   3.824   7.572
 7166SOL    HW222041   4.307   3.829   7.472
 7167SOL     OW22042   4.263   3.788   7.960
 7167SOL    HW122043   4.182   3.789   8.018
 7167SOL    HW222044   4.266   3.871   7.905
 7168SOL     OW22045   5.158   4.912   7.489
 7168SOL    HW122046   5.190   4.836   7.546
 7168SOL    HW222047   5.066   4.939   7.519
 7169SOL     OW22048   4.021   3.759   7.619
 7169SOL    HW122049   4.070   3.843   7.598
 7169SOL    HW222050   4.083   3.694   7.664
 7170SOL     OW22051   4.659   3.960   7.928
 7170SOL    HW122052   4.611   4.001   7.850
 7170SOL    HW222053   4.758   3.958   7.909
 7171SOL     OW22054   4.183   4.876   8.189
 7171SOL    HW122055   4.112   4.849   8.254
 7171SOL    HW222056   4.157   4.848   8.096
 7172SOL     OW22057   4.756   4.273   7.464
 7172SOL    HW122058   4.715   4.355   7.425
 7172SOL    HW222059   4.820   4.299   7.537
 7173SOL     OW22060   4.212   5.109   7.622
 7173SOL    HW122061   4.125   5.094   7.669
 7173SOL    HW222062   4.195   5.135   7.527
 7174SOL     OW22063   5.114   4.299   7.526
 7174SOL    HW122064   5.060   4.278   7.607
 7174SOL    HW222065   5.205   4.258   7.535
 7175SOL     OW22066   4.251   3.980   7.776
 7175SOL    HW122067   4.278   3.921   7.701
 7175SOL    HW222068   4.251   4.075   7.745
 7176SOL     OW22069   4.429   4.774   7.816
 7176SOL    HW122070   4.415   4.781   7.915
 7176SOL    HW222071   4.513   4.723   7.798
 7177SOL     OW22072   4.091   4.824   7.949
 7177SOL    HW122073   4.084   4.907   7.893
 7177SOL    HW222074   4.095   4.744   7.889
 7178SOL     OW22075   4.976   5.072   7.836
 7178SOL    HW122076   5.026   5.149   7.876
 7178SOL    HW222077   4.881   5.074   7.868
 7179SOL     OW22078   5.306   4.363   7.920
 7179SOL    HW122079   5.275   4.424   7.993
 7179SOL    HW222080   5.356   4.415   7.851
 7180SOL     OW22081   4.933   4.249   7.723
 7180SOL    HW122082   4.946   4.165   7.777
 7180SOL    HW222083   4.904   4.323   7.783
 7181SOL     OW22084   5.346   4.091   7.822
 7181SOL    HW122085   5.348   4.015   7.886
 7181SOL    HW222086   5.298   4.168   7.862
 7182SOL     OW22087   5.027   4.562   7.490
 7182SOL    HW122088   5.061   4.469   7.505
 7182SOL    HW222089   5.045   4.589   7.395
 7183SOL     OW22090   3.732   5.050   7.648
 7183SOL    HW122091   3.639   5.071   7.617
 7183SOL    HW222092   3.742   4.951   7.661
 7184SOL     OW22093   4.539   4.296   7.773
 7184SOL    HW122094   4.546   4.207   7.727
 7184SOL    HW222095   4.445   4.330   7.765
 7185SOL     OW22096   4.197   4.224   7.639
 7185SOL    HW122097   4.258   4.304   7.643
 7185SOL    HW222098   4.102   4.255   7.646
 7186SOL     OW22099   5.026   4.579   7.757
 7186SOL    HW122100   4.940   4.548   7.799
 7186SOL    HW222101   5.022   4.565   7.658
 7187SOL     OW22102   5.450   3.859   7.971
 7187SOL    HW122103   5.523   3.842   7.904
 7187SOL    HW222104   5.419   3.772   8.009
 7188SOL     OW22105   4.640   4.634   7.739
 7188SOL    HW122106   4.703   4.672   7.671
 7188SOL    HW222107   4.680   4.551   7.778
 7189SOL     OW22108   3.979   5.072   7.738
 7189SOL    HW122109   3.883   5.073   7.711
 7189SOL    HW222110   3.991   5.125   7.822
 7190SOL     OW22111   3.799   4.069   7.481
 7190SOL    HW122112   3.707   4.041   7.452
 7190SOL    HW222113   3.830   4.146   7.425
 7191SOL     OW22114   3.796   3.890   7.766
 7191SOL    HW122115   3.779   3.973   7.712
 7191SOL    HW222116   3.886   3.853   7.744
 7192SOL     OW22117   4.907   5.059   7.567
 7192SOL    HW122118   4.808   5.048   7.569
 7192SOL    HW222119   4.941   5.074   7.660
 7193SOL     OW22120   4.949   4.049   7.897
 7193SOL    HW122121   5.014   3.975   7.886
 7193SOL    HW222122   4.969   4.099   7.981
 7194SOL     OW22123   4.318   4.469   8.100
 7194SOL    HW122124   4.368   4.554   8.081
 7194SOL    HW222125   4.230   4.471   8.052
 7195SOL     OW22126   4.583   5.098   7.464
 7195SOL    HW122127   4.537   5.113   7.552
 7195SOL    HW222128   4.627   5.183   7.434
 7196SOL     OW22129   4.807   4.708   7.535
 7196SOL    HW122130   4.784   4.761   7.453
 7196SOL    HW222131   4.888   4.652   7.516
 7197SOL     OW22132   4.152   4.148   7.968
 7197SOL    HW122133   4.182   4.076   7.906
 7197SOL    HW222134   4.113   4.108   8.051
 7198SOL     OW22135   4.494   5.054   7.749
 7198SOL    HW122136   4.448   4.967   7.766
 7198SOL    HW222137   4.585   5.051   7.790
 7199SOL     OW22138   5.076   3.776   7.616
 7199SOL    HW122139   5.111   3.735   7.532
 7199SOL    HW222140   4.986   3.738   7.636
 7200SOL     OW22141   3.763   4.801   7.748
 7200SOL    HW122142   3.862   4.790   7.739
 7200SOL    HW222143   3.723   4.715   7.780
   5.30000   5.30000   8.08000
