2gCDOC_2PEG_l11
22026
    1LIG      O    1   2.373   2.325   0.026
    1LIG      C    2   2.353   2.401   0.152
    1LIG     C1    3   2.428   2.340   0.280
    1LIG     O1    4   2.360   2.381   0.405
    1LIG     C2    5   2.428   2.342   0.530
    1LIG     C3    6   2.349   2.393   0.659
    1LIG     O2    7   2.405   2.337   0.783
    1LIG     C4    8   2.364   2.411   0.903
    1LIG     C5    9   2.437   2.358   1.033
    1LIG     O3   10   2.365   2.397   1.155
    1LIG     C6   11   2.429   2.346   1.275
    1LIG     C7   12   2.362   2.407   1.403
    1LIG     O4   13   2.423   2.357   1.524
    1LIG     C8   14   2.366   2.413   1.646
    1LIG     C9   15   2.429   2.346   1.773
    1LIG     O5   16   2.362   2.394   1.892
    1LIG    C10   17   2.425   2.344   2.013
    1LIG    C11   18   2.346   2.393   2.138
    1LIG     O6   19   2.399   2.334   2.260
    1LIG    C12   20   2.351   2.397   2.382
    1LIG    C13   21   2.423   2.336   2.508
    1LIG     O7   22   2.352   2.369   2.631
    1LIG    C14   23   2.428   2.331   2.749
    1LIG    C15   24   2.366   2.395   2.877
    1LIG     O8   25   2.409   2.327   2.998
    1LIG    C16   26   2.372   2.397   3.120
    1LIG    C17   27   2.434   2.331   3.248
    1LIG     O9   28   2.380   2.394   3.369
    1LIG    C18   29   2.440   2.337   3.490
    1LIG    C19   30   2.377   2.400   3.620
    1LIG    O10   31   2.423   2.331   3.739
    1LIG    C20   32   2.373   2.391   3.862
    1LIG    C21   33   2.439   2.326   3.989
    1LIG    O11   34   2.368   2.367   4.110
    1LIG    C22   35   2.436   2.327   4.232
    1LIG    C23   36   2.372   2.396   4.358
    1LIG    O12   37   2.417   2.334   4.481
    1LIG    C24   38   2.359   2.390   4.603
    1LIG    C25   39   2.441   2.343   4.726
    1LIG    O13   40   2.375   2.380   4.847
    1LIG    C26   41   2.446   2.330   4.962
    1LIG    C27   42   2.388   2.393   5.089
    1LIG    O14   43   2.426   2.317   5.204
    1LIG    C28   44   2.381   2.379   5.325
    1LIG    C29   45   2.438   2.304   5.447
    1LIG    O15   46   2.365   2.342   5.565
    1LIG    C30   47   2.425   2.285   5.682
    1LIG    C31   48   2.382   2.367   5.806
    1LIG    O16   49   2.436   2.312   5.932
    1LIG    C32   50   2.375   2.364   6.054
    1LIG    C33   51   2.444   2.312   6.185
    1LIG    O17   52   2.380   2.369   6.303
    1LIG    C34   53   2.439   2.327   6.428
    1LIG    C35   54   2.370   2.394   6.551
    1LIG    O18   55   2.415   2.329   6.674
    1LIG    C36   56   2.374   2.398   6.795
    1LIG    C37   57   2.436   2.334   6.924
    1LIG    O19   58   2.378   2.395   7.043
    1LIG    C38   59   2.436   2.343   7.165
    1LIG    C39   60   2.371   2.408   7.292
    1LIG    O20   61   2.421   2.344   7.412
    1LIG    C40   62   2.366   2.399   7.535
    1LIG    C41   63   2.427   2.327   7.660
    1LIG    O21   64   2.358   2.370   7.781
    1LIG    C42   65   2.420   2.325   7.904
    1LIG    C43   66   2.348   2.389   8.028
    1LIG    O22   67   2.405   2.336   8.151
    1LIG    C44   68   2.362   2.401   8.274
    1LIG    C45   69   2.429   2.333   8.398
    1LIG    O23   70   2.370   2.382   8.521
    1LIG    C46   71   2.432   2.326   8.640
    1LIG    C47   72   2.374   2.399   8.765
    1LIG    O24   73   2.428   2.347   8.888
    1LIG    C48   74   2.367   2.404   9.008
    1LIG    C49   75   2.431   2.340   9.135
    1LIG    O25   76   2.367   2.392   9.254
    1LIG    C50   77   2.433   2.345   9.376
    1LIG    C51   78   2.358   2.401   9.501
    1LIG    O26   79   2.415   2.348   9.624
    1LIG    C52   80   2.357   2.401   9.748
    1LIG    C53   81   2.428   2.335   9.872
    1LIG    O27   82   2.355   2.361   9.996
    1LIG    C54   83   2.432   2.330  10.116
    1LIG    C55   84   2.366   2.397  10.243
    1LIG    O28   85   2.406   2.332  10.369
    1LIG    C56   86   2.365   2.405  10.490
    1LIG    C57   87   2.426   2.342  10.623
    1LIG    O29   88   2.361   2.394  10.746
    1LIG    C58   89   2.414   2.328  10.868
    1LIG    C59   90   2.384   2.410  11.004
    1LIG      H   91   2.246   2.406   0.175
    1LIG     H1   92   2.386   2.503   0.136
    1LIG     H2   93   2.531   2.376   0.281
    1LIG     H3   94   2.431   2.231   0.275
    1LIG     H4   95   2.529   2.383   0.530
    1LIG     H5   96   2.436   2.233   0.534
    1LIG     H6   97   2.245   2.366   0.651
    1LIG     H7   98   2.347   2.501   0.664
    1LIG     H8   99   2.256   2.401   0.917
    1LIG     H9  100   2.386   2.517   0.892
    1LIG    H10  101   2.539   2.397   1.037
    1LIG    H11  102   2.443   2.249   1.028
    1LIG    H12  103   2.535   2.374   1.274
    1LIG    H13  104   2.423   2.237   1.279
    1LIG    H14  105   2.255   2.388   1.404
    1LIG    H15  106   2.371   2.515   1.401
    1LIG    H16  107   2.258   2.398   1.647
    1LIG    H17  108   2.384   2.521   1.649
    1LIG    H18  109   2.536   2.370   1.777
    1LIG    H19  110   2.416   2.237   1.766
    1LIG    H20  111   2.529   2.380   2.018
    1LIG    H21  112   2.427   2.234   2.011
    1LIG    H22  113   2.241   2.368   2.128
    1LIG    H23  114   2.343   2.501   2.145
    1LIG    H24  115   2.243   2.383   2.390
    1LIG    H25  116   2.368   2.505   2.375
    1LIG    H26  117   2.523   2.378   2.512
    1LIG    H27  118   2.431   2.227   2.498
    1LIG    H28  119   2.531   2.366   2.739
    1LIG    H29  120   2.430   2.221   2.758
    1LIG    H30  121   2.257   2.395   2.871
    1LIG    H31  122   2.395   2.500   2.881
    1LIG    H32  123   2.263   2.400   3.129
    1LIG    H33  124   2.408   2.500   3.114
    1LIG    H34  125   2.543   2.345   3.246
    1LIG    H35  126   2.412   2.224   3.249
    1LIG    H36  127   2.547   2.357   3.489
    1LIG    H37  128   2.423   2.229   3.490
    1LIG    H38  129   2.268   2.393   3.614
    1LIG    H39  130   2.404   2.506   3.626
    1LIG    H40  131   2.266   2.378   3.867
    1LIG    H41  132   2.392   2.499   3.859
    1LIG    H42  133   2.544   2.359   3.995
    1LIG    H43  134   2.437   2.217   3.981
    1LIG    H44  135   2.541   2.359   4.226
    1LIG    H45  136   2.434   2.218   4.242
    1LIG    H46  137   2.263   2.390   4.352
    1LIG    H47  138   2.398   2.502   4.357
    1LIG    H48  139   2.255   2.360   4.614
    1LIG    H49  140   2.353   2.498   4.601
    1LIG    H50  141   2.541   2.387   4.723
    1LIG    H51  142   2.452   2.234   4.723
    1LIG    H52  143   2.552   2.353   4.953
    1LIG    H53  144   2.435   2.221   4.969
    1LIG    H54  145   2.278   2.396   5.082
    1LIG    H55  146   2.426   2.495   5.098
    1LIG    H56  147   2.272   2.381   5.329
    1LIG    H57  148   2.417   2.482   5.328
    1LIG    H58  149   2.543   2.332   5.458
    1LIG    H59  150   2.431   2.195   5.433
    1LIG    H60  151   2.532   2.294   5.670
    1LIG    H61  152   2.401   2.179   5.692
    1LIG    H62  153   2.273   2.375   5.812
    1LIG    H63  154   2.419   2.467   5.787
    1LIG    H64  155   2.269   2.344   6.054
    1LIG    H65  156   2.380   2.471   6.057
    1LIG    H66  157   2.549   2.343   6.185
    1LIG    H67  158   2.438   2.203   6.189
    1LIG    H68  159   2.546   2.355   6.429
    1LIG    H69  160   2.432   2.218   6.437
    1LIG    H70  161   2.261   2.387   6.543
    1LIG    H71  162   2.395   2.501   6.554
    1LIG    H72  163   2.264   2.398   6.803
    1LIG    H73  164   2.406   2.502   6.790
    1LIG    H74  165   2.544   2.352   6.924
    1LIG    H75  166   2.418   2.226   6.925
    1LIG    H76  167   2.544   2.364   7.166
    1LIG    H77  168   2.422   2.235   7.170
    1LIG    H78  169   2.262   2.397   7.287
    1LIG    H79  170   2.393   2.516   7.294
    1LIG    H80  171   2.258   2.385   7.534
    1LIG    H81  172   2.385   2.506   7.539
    1LIG    H82  173   2.533   2.353   7.666
    1LIG    H83  174   2.420   2.218   7.651
    1LIG    H84  175   2.525   2.356   7.906
    1LIG    H85  176   2.417   2.216   7.910
    1LIG    H86  177   2.242   2.369   8.024
    1LIG    H87  178   2.356   2.497   8.022
    1LIG    H88  179   2.253   2.395   8.283
    1LIG    H89  180   2.388   2.507   8.273
    1LIG    H90  181   2.536   2.355   8.397
    1LIG    H91  182   2.418   2.224   8.392
    1LIG    H92  183   2.540   2.341   8.637
    1LIG    H93  184   2.413   2.218   8.645
    1LIG    H94  185   2.265   2.393   8.765
    1LIG    H95  186   2.399   2.504   8.757
    1LIG    H96  187   2.260   2.387   9.007
    1LIG    H97  188   2.383   2.512   9.010
    1LIG    H98  189   2.538   2.363   9.137
    1LIG    H99  190   2.418   2.231   9.131
    1LIG   H100  191   2.537   2.379   9.377
    1LIG   H101  192   2.432   2.236   9.378
    1LIG   H102  193   2.253   2.374   9.495
    1LIG   H103  194   2.359   2.510   9.498
    1LIG   H104  195   2.250   2.381   9.750
    1LIG   H105  196   2.368   2.509   9.753
    1LIG   H106  197   2.528   2.378   9.879
    1LIG   H107  198   2.438   2.227   9.858
    1LIG   H108  199   2.534   2.370  10.106
    1LIG   H109  200   2.439   2.222  10.128
    1LIG   H110  201   2.257   2.394  10.234
    1LIG   H111  202   2.395   2.503  10.245
    1LIG   H112  203   2.256   2.407  10.495
    1LIG   H113  204   2.399   2.508  10.482
    1LIG   H114  205   2.532   2.367  10.627
    1LIG   H115  206   2.416   2.233  10.620
    1LIG   H116  207   2.522   2.319  10.858
    1LIG   H117  208   2.376   2.227  10.873
    1LIG   H118  209   2.293   2.470  10.993
    1LIG   H119  210   2.466   2.479  11.021
    2LIG      O  211   2.127   2.055   0.034
    2LIG      C  212   2.162   2.133   0.157
    2LIG     C1  213   2.088   2.084   0.290
    2LIG     O1  214   2.162   2.113   0.415
    2LIG     C2  215   2.092   2.066   0.536
    2LIG     C3  216   2.144   2.138   0.666
    2LIG     O2  217   2.106   2.074   0.790
    2LIG     C4  218   2.142   2.154   0.907
    2LIG     C5  219   2.087   2.095   1.042
    2LIG     O3  220   2.163   2.137   1.159
    2LIG     C6  221   2.090   2.096   1.279
    2LIG     C7  222   2.155   2.149   1.408
    2LIG     O4  223   2.104   2.084   1.526
    2LIG     C8  224   2.143   2.156   1.645
    2LIG     C9  225   2.084   2.090   1.771
    2LIG     O5  226   2.155   2.132   1.890
    2LIG    C10  227   2.089   2.080   2.008
    2LIG    C11  228   2.150   2.138   2.139
    2LIG     O6  229   2.111   2.064   2.259
    2LIG    C12  230   2.143   2.141   2.379
    2LIG    C13  231   2.081   2.079   2.508
    2LIG     O7  232   2.154   2.124   2.626
    2LIG    C14  233   2.078   2.097   2.746
    2LIG    C15  234   2.145   2.152   2.876
    2LIG     O8  235   2.095   2.087   2.996
    2LIG    C16  236   2.145   2.149   3.117
    2LIG    C17  237   2.081   2.089   3.248
    2LIG     O9  238   2.139   2.151   3.366
    2LIG    C18  239   2.089   2.087   3.487
    2LIG    C19  240   2.153   2.148   3.615
    2LIG    O10  241   2.124   2.066   3.732
    2LIG    C20  242   2.159   2.136   3.855
    2LIG    C21  243   2.088   2.076   3.980
    2LIG    O11  244   2.155   2.119   4.102
    2LIG    C22  245   2.081   2.081   4.221
    2LIG    C23  246   2.137   2.152   4.348
    2LIG    O12  247   2.080   2.095   4.468
    2LIG    C24  248   2.117   2.167   4.587
    2LIG    C25  249   2.059   2.105   4.718
    2LIG    O13  250   2.114   2.166   4.838
    2LIG    C26  251   2.063   2.100   4.956
    2LIG    C27  252   2.126   2.162   5.085
    2LIG    O14  253   2.061   2.112   5.205
    2LIG    C28  254   2.115   2.179   5.321
    2LIG    C29  255   2.046   2.134   5.453
    2LIG    O15  256   2.131   2.164   5.569
    2LIG    C30  257   2.059   2.130   5.688
    2LIG    C31  258   2.123   2.175   5.825
    2LIG    O16  259   2.066   2.108   5.941
    2LIG    C32  260   2.125   2.152   6.066
    2LIG    C33  261   2.067   2.084   6.193
    2LIG    O17  262   2.135   2.134   6.312
    2LIG    C34  263   2.074   2.086   6.434
    2LIG    C35  264   2.141   2.148   6.560
    2LIG    O18  265   2.095   2.083   6.682
    2LIG    C36  266   2.146   2.150   6.801
    2LIG    C37  267   2.081   2.096   6.932
    2LIG    O19  268   2.142   2.154   7.050
    2LIG    C38  269   2.091   2.091   7.170
    2LIG    C39  270   2.152   2.151   7.299
    2LIG    O20  271   2.123   2.068   7.415
    2LIG    C40  272   2.159   2.133   7.540
    2LIG    C41  273   2.090   2.067   7.664
    2LIG    O21  274   2.154   2.107   7.788
    2LIG    C42  275   2.077   2.073   7.905
    2LIG    C43  276   2.140   2.138   8.031
    2LIG    O22  277   2.110   2.066   8.153
    2LIG    C44  278   2.155   2.145   8.268
    2LIG    C45  279   2.087   2.099   8.400
    2LIG    O23  280   2.159   2.142   8.519
    2LIG    C46  281   2.086   2.097   8.636
    2LIG    C47  282   2.151   2.147   8.769
    2LIG    O24  283   2.093   2.085   8.887
    2LIG    C48  284   2.141   2.148   9.008
    2LIG    C49  285   2.083   2.082   9.137
    2LIG    O25  286   2.152   2.131   9.256
    2LIG    C50  287   2.092   2.081   9.378
    2LIG    C51  288   2.156   2.142   9.506
    2LIG    O26  289   2.125   2.065   9.626
    2LIG    C52  290   2.156   2.137   9.748
    2LIG    C53  291   2.099   2.065   9.875
    2LIG    O27  292   2.160   2.114   9.998
    2LIG    C54  293   2.082   2.085  10.118
    2LIG    C55  294   2.149   2.145  10.248
    2LIG    O28  295   2.110   2.079  10.374
    2LIG    C56  296   2.158   2.147  10.495
    2LIG    C57  297   2.093   2.092  10.629
    2LIG    O29  298   2.150   2.143  10.754
    2LIG    C58  299   2.095   2.070  10.870
    2LIG    C59  300   2.147   2.129  11.007
    2LIG      H  301   2.133   2.238   0.142
    2LIG     H1  302   2.270   2.132   0.175
    2LIG     H2  303   2.071   1.976   0.285
    2LIG     H3  304   1.990   2.133   0.295
    2LIG     H4  305   2.108   1.958   0.547
    2LIG     H5  306   1.984   2.083   0.526
    2LIG     H6  307   2.101   2.239   0.666
    2LIG     H7  308   2.253   2.144   0.662
    2LIG     H8  309   2.100   2.255   0.896
    2LIG     H9  310   2.251   2.164   0.914
    2LIG    H10  311   2.085   1.986   1.037
    2LIG    H11  312   1.986   2.134   1.054
    2LIG    H12  313   2.081   1.987   1.283
    2LIG    H13  314   1.990   2.140   1.276
    2LIG    H14  315   2.126   2.253   1.414
    2LIG    H15  316   2.264   2.139   1.404
    2LIG    H16  317   2.108   2.260   1.639
    2LIG    H17  318   2.253   2.155   1.651
    2LIG    H18  319   2.094   1.982   1.760
    2LIG    H19  320   1.977   2.116   1.779
    2LIG    H20  321   2.095   1.970   2.009
    2LIG    H21  322   1.984   2.110   2.004
    2LIG    H22  323   2.107   2.238   2.149
    2LIG    H23  324   2.259   2.142   2.133
    2LIG    H24  325   2.103   2.242   2.368
    2LIG    H25  326   2.252   2.146   2.389
    2LIG    H26  327   2.084   1.970   2.503
    2LIG    H27  328   1.977   2.112   2.514
    2LIG    H28  329   2.064   1.989   2.755
    2LIG    H29  330   1.981   2.146   2.736
    2LIG    H30  331   2.119   2.258   2.883
    2LIG    H31  332   2.254   2.141   2.871
    2LIG    H32  333   2.119   2.255   3.114
    2LIG    H33  334   2.254   2.138   3.122
    2LIG    H34  335   2.095   1.981   3.251
    2LIG    H35  336   1.974   2.112   3.249
    2LIG    H36  337   2.114   1.981   3.484
    2LIG    H37  338   1.980   2.099   3.492
    2LIG    H38  339   2.114   2.249   3.629
    2LIG    H39  340   2.262   2.153   3.602
    2LIG    H40  341   2.126   2.240   3.847
    2LIG    H41  342   2.268   2.134   3.868
    2LIG    H42  343   2.088   1.967   3.975
    2LIG    H43  344   1.984   2.110   3.982
    2LIG    H44  345   2.089   1.973   4.234
    2LIG    H45  346   1.976   2.106   4.208
    2LIG    H46  347   2.112   2.258   4.342
    2LIG    H47  348   2.247   2.141   4.351
    2LIG    H48  349   2.082   2.270   4.579
    2LIG    H49  350   2.226   2.164   4.596
    2LIG    H50  351   2.086   2.000   4.720
    2LIG    H51  352   1.950   2.114   4.719
    2LIG    H52  353   2.086   1.993   4.952
    2LIG    H53  354   1.955   2.114   4.959
    2LIG    H54  355   2.112   2.270   5.080
    2LIG    H55  356   2.233   2.140   5.088
    2LIG    H56  357   2.097   2.286   5.310
    2LIG    H57  358   2.222   2.160   5.327
    2LIG    H58  359   2.023   2.028   5.451
    2LIG    H59  360   1.951   2.188   5.463
    2LIG    H60  361   2.039   2.023   5.688
    2LIG    H61  362   1.966   2.186   5.679
    2LIG    H62  363   2.103   2.282   5.836
    2LIG    H63  364   2.231   2.157   5.823
    2LIG    H64  365   2.101   2.258   6.075
    2LIG    H65  366   2.233   2.136   6.062
    2LIG    H66  367   2.080   1.975   6.190
    2LIG    H67  368   1.960   2.107   6.201
    2LIG    H68  369   2.079   1.977   6.437
    2LIG    H69  370   1.969   2.117   6.432
    2LIG    H70  371   2.113   2.253   6.565
    2LIG    H71  372   2.250   2.139   6.553
    2LIG    H72  373   2.120   2.256   6.794
    2LIG    H73  374   2.255   2.139   6.805
    2LIG    H74  375   2.090   1.987   6.937
    2LIG    H75  376   1.976   2.124   6.934
    2LIG    H76  377   2.116   1.985   7.167
    2LIG    H77  378   1.982   2.102   7.173
    2LIG    H78  379   2.111   2.252   7.314
    2LIG    H79  380   2.261   2.158   7.288
    2LIG    H80  381   2.127   2.238   7.537
    2LIG    H81  382   2.268   2.129   7.551
    2LIG    H82  383   2.093   1.958   7.655
    2LIG    H83  384   1.985   2.098   7.668
    2LIG    H84  385   2.075   1.964   7.916
    2LIG    H85  386   1.974   2.108   7.894
    2LIG    H86  387   2.099   2.239   8.039
    2LIG    H87  388   2.248   2.142   8.019
    2LIG    H88  389   2.125   2.249   8.252
    2LIG    H89  390   2.264   2.138   8.275
    2LIG    H90  391   2.079   1.990   8.400
    2LIG    H91  392   1.988   2.145   8.401
    2LIG    H92  393   2.080   1.988   8.635
    2LIG    H93  394   1.985   2.138   8.631
    2LIG    H94  395   2.130   2.254   8.774
    2LIG    H95  396   2.259   2.131   8.768
    2LIG    H96  397   2.110   2.253   9.007
    2LIG    H97  398   2.250   2.144   9.011
    2LIG    H98  399   2.097   1.974   9.132
    2LIG    H99  400   1.976   2.104   9.145
    2LIG   H100  401   2.104   1.973   9.383
    2LIG   H101  402   1.985   2.106   9.378
    2LIG   H102  403   2.113   2.242   9.518
    2LIG   H103  404   2.265   2.149   9.494
    2LIG   H104  405   2.111   2.237   9.743
    2LIG   H105  406   2.265   2.147   9.757
    2LIG   H106  407   2.118   1.957   9.867
    2LIG   H107  408   1.990   2.080   9.877
    2LIG   H108  409   2.070   1.977  10.127
    2LIG   H109  410   1.982   2.128  10.106
    2LIG   H110  411   2.118   2.250  10.254
    2LIG   H111  412   2.258   2.140  10.238
    2LIG   H112  413   2.130   2.253  10.486
    2LIG   H113  414   2.268   2.140  10.498
    2LIG   H114  415   2.100   1.983  10.630
    2LIG   H115  416   1.989   2.122  10.629
    2LIG   H116  417   2.125   1.966  10.862
    2LIG   H117  418   1.986   2.080  10.867
    2LIG   H118  419   2.253   2.141  10.991
    2LIG   H119  420   2.092   2.224  11.014
    3MOL     C1  421   1.723   1.799   4.885
    3MOL     H1  422   1.701   1.694   4.868
    3MOL     O1  423   1.682   1.835   5.018
    3MOL     C2  424   1.701   1.974   5.053
    3MOL     H2  425   1.805   2.003   5.037
    3MOL     C3  426   1.671   1.987   5.204
    3MOL     H3  427   1.702   2.086   5.239
    3MOL     H4  428   1.729   1.912   5.258
    3MOL     O2  429   1.530   1.968   5.225
    3MOL     C4  430   1.488   1.985   5.361
    3MOL     C5  431   1.639   1.882   4.784
    3MOL     H5  432   1.536   1.846   4.787
    3MOL     O3  433   1.691   1.867   4.652
    3MOL     C6  434   1.661   1.742   4.592
    3MOL     C7  435   1.637   2.032   4.814
    3MOL     H6  436   1.734   2.075   4.788
    3MOL     O4  437   1.529   2.090   4.739
    3MOL     C8  438   1.573   2.178   4.636
    3MOL     C9  439   1.608   2.060   4.962
    3MOL     H7  440   1.503   2.035   4.981
    3MOL     O5  441   1.634   2.200   4.980
    3MOL    C10  442   1.543   2.269   5.069
    3MOL     H8  443   1.461   2.203   5.099
    3MOL     O6  444   1.619   2.309   5.184
    3MOL    C11  445   1.735   2.391   5.154
    3MOL     H9  446   1.797   2.341   5.079
    3MOL    C12  447   1.820   2.402   5.282
    3MOL    H10  448   1.916   2.450   5.259
    3MOL    H11  449   1.842   2.301   5.319
    3MOL     O7  450   1.748   2.476   5.381
    3MOL    C13  451   1.827   2.509   5.497
    3MOL    C14  452   1.487   2.395   4.997
    3MOL    H12  453   1.411   2.441   5.062
    3MOL     O8  454   1.428   2.360   4.870
    3MOL    C15  455   1.301   2.294   4.875
    3MOL    C16  456   1.596   2.501   4.971
    3MOL    H13  457   1.661   2.465   4.889
    3MOL     O9  458   1.530   2.624   4.935
    3MOL    C17  459   1.541   2.661   4.797
    3MOL    C18  460   1.685   2.525   5.095
    3MOL    H14  461   1.622   2.577   5.170
    3MOL    O10  462   1.796   2.606   5.055
    3MOL    C19  463   1.832   2.715   5.143
    3MOL    H15  464   1.758   2.726   5.225
    3MOL    O11  465   1.960   2.688   5.201
    3MOL    C20  466   2.067   2.673   5.105
    3MOL    H16  467   2.046   2.591   5.037
    3MOL    C21  468   2.192   2.640   5.186
    3MOL    H17  469   2.274   2.624   5.116
    3MOL    H18  470   2.173   2.547   5.242
    3MOL    O12  471   2.223   2.748   5.275
    3MOL    C22  472   2.336   2.724   5.360
    3MOL    C23  473   1.839   2.848   5.065
    3MOL    H19  474   1.860   2.929   5.135
    3MOL    O13  475   1.714   2.871   5.001
    3MOL    C24  476   1.604   2.897   5.090
    3MOL    C25  477   1.951   2.846   4.958
    3MOL    H20  478   1.924   2.774   4.880
    3MOL    O14  479   1.966   2.980   4.904
    3MOL    C26  480   1.926   2.996   4.767
    3MOL    C27  481   2.085   2.804   5.023
    3MOL    H21  482   2.119   2.883   5.090
    3MOL    O15  483   2.183   2.778   4.920
    3MOL    C28  484   2.254   2.896   4.876
    3MOL    H22  485   2.186   2.981   4.865
    3MOL    O16  486   2.355   2.929   4.972
    3MOL    C29  487   2.460   2.833   4.995
    3MOL    H23  488   2.418   2.739   5.034
    3MOL    C30  489   2.553   2.893   5.104
    3MOL    H24  490   2.614   2.814   5.149
    3MOL    H25  491   2.491   2.937   5.183
    3MOL    O17  492   2.637   2.993   5.044
    3MOL    C31  493   2.726   3.058   5.136
    3MOL    C32  494   2.320   2.872   4.738
    3MOL    H26  495   2.362   2.968   4.705
    3MOL    O18  496   2.218   2.826   4.646
    3MOL    C33  497   2.226   2.882   4.514
    3MOL    C34  498   2.435   2.770   4.745
    3MOL    H27  499   2.393   2.669   4.760
    3MOL    O19  500   2.513   2.781   4.624
    3MOL    C35  501   2.532   2.658   4.553
    3MOL    C36  502   2.532   2.802   4.860
    3MOL    H28  503   2.589   2.890   4.829
    3MOL    O20  504   2.619   2.686   4.875
    3MOL    C37  505   2.756   2.716   4.908
    3MOL    H29  506   2.773   2.824   4.903
    3MOL    O21  507   2.780   2.671   5.043
    3MOL    C38  508   2.762   2.529   5.066
    3MOL    H30  509   2.660   2.501   5.038
    3MOL    C39  510   2.777   2.504   5.217
    3MOL    H31  511   2.743   2.403   5.242
    3MOL    H32  512   2.715   2.576   5.273
    3MOL    O22  513   2.916   2.521   5.252
    3MOL    C40  514   2.950   2.482   5.386
    3MOL    C41  515   2.853   2.644   4.811
    3MOL    H33  516   2.955   2.679   4.833
    3MOL    O23  517   2.820   2.672   4.673
    3MOL    C42  518   2.849   2.805   4.626
    3MOL    C43  519   2.850   2.491   4.829
    3MOL    H34  520   2.754   2.453   4.792
    3MOL    O24  521   2.961   2.437   4.755
    3MOL    C44  522   2.923   2.345   4.651
    3MOL    C45  523   2.864   2.451   4.977
    3MOL    H35  524   2.966   2.475   5.009
    3MOL    O25  525   2.839   2.309   4.986
    3MOL    C46  526   2.924   2.237   5.078
    3MOL    H36  527   3.001   2.303   5.119
    3MOL    O26  528   2.841   2.187   5.186
    3MOL    C47  529   2.734   2.096   5.148
    3MOL    H37  530   2.670   2.143   5.073
    3MOL    C48  531   2.647   2.069   5.273
    3MOL    H38  532   2.550   2.029   5.242
    3MOL    H39  533   2.630   2.164   5.325
    3MOL    O27  534   2.715   1.978   5.361
    3MOL    C49  535   2.648   1.948   5.484
    3MOL    C50  536   2.992   2.116   5.008
    3MOL    H40  537   3.066   2.073   5.076
    3MOL    O28  538   3.057   2.158   4.885
    3MOL    C51  539   3.183   2.225   4.900
    3MOL    C52  540   2.891   2.007   4.970
    3MOL    H41  541   2.828   2.043   4.887
    3MOL    O29  542   2.966   1.890   4.932
    3MOL    C53  543   2.964   1.865   4.791
    3MOL    C54  544   2.799   1.969   5.087
    3MOL    H42  545   2.860   1.919   5.163
    3MOL    O30  546   2.696   1.880   5.036
    3MOL    C55  547   2.678   1.757   5.111
    3MOL    H43  548   2.763   1.741   5.178
    3MOL    O31  549   2.558   1.768   5.189
    3MOL    C56  550   2.435   1.782   5.114
    3MOL    H44  551   2.436   1.876   5.057
    3MOL    C57  552   2.321   1.784   5.213
    3MOL    H45  553   2.323   1.692   5.272
    3MOL    H46  554   2.225   1.792   5.162
    3MOL    O32  555   2.339   1.897   5.298
    3MOL    C58  556   2.245   1.893   5.402
    3MOL    C59  557   2.664   1.632   5.019
    3MOL    H47  558   2.660   1.543   5.083
    3MOL    O33  559   2.778   1.625   4.933
    3MOL    C60  560   2.899   1.581   4.996
    3MOL    C61  561   2.537   1.635   4.933
    3MOL    H48  562   2.547   1.715   4.859
    3MOL    O34  563   2.520   1.506   4.870
    3MOL    C62  564   2.569   1.496   4.735
    3MOL    C63  565   2.413   1.663   5.018
    3MOL    H49  566   2.389   1.574   5.079
    3MOL    O35  567   2.303   1.698   4.931
    3MOL    C64  568   2.220   1.587   4.892
    3MOL    H50  569   2.280   1.496   4.886
    3MOL    O36  570   2.115   1.571   4.990
    3MOL    C65  571   2.021   1.682   5.001
    3MOL    H51  572   2.074   1.775   5.026
    3MOL    C66  573   1.925   1.646   5.115
    3MOL    H52  574   1.886   1.545   5.101
    3MOL    H53  575   1.841   1.715   5.116
    3MOL    O37  576   1.995   1.657   5.239
    3MOL    C67  577   1.910   1.626   5.350
    3MOL    C68  578   2.157   1.610   4.751
    3MOL    H54  579   2.110   1.516   4.719
    3MOL    O38  580   2.262   1.648   4.660
    3MOL    C69  581   2.257   1.585   4.531
    3MOL    C70  582   2.051   1.722   4.752
    3MOL    H55  583   2.106   1.814   4.767
    3MOL    O39  584   1.980   1.717   4.626
    3MOL    C71  585   1.990   1.835   4.547
    3MOL    C72  586   1.949   1.703   4.865
    3MOL    H56  587   1.889   1.615   4.842
    3MOL    O40  588   1.866   1.823   4.871
    3MOL    H57  589   1.379   1.975   5.367
    3MOL    H58  590   1.534   1.909   5.425
    3MOL    H59  591   1.516   2.085   5.397
    3MOL    H60  592   1.958   1.656   5.444
    3MOL    H61  593   1.816   1.681   5.343
    3MOL    H62  594   1.891   1.518   5.353
    3MOL    H63  595   2.261   1.978   5.469
    3MOL    H64  596   2.144   1.895   5.360
    3MOL    H65  597   2.256   1.799   5.458
    3MOL    H66  598   2.704   1.872   5.540
    3MOL    H67  599   2.639   2.038   5.545
    3MOL    H68  600   2.547   1.909   5.464
    3MOL    H69  601   3.059   2.486   5.398
    3MOL    H70  602   2.907   2.552   5.458
    3MOL    H71  603   2.915   2.380   5.407
    3MOL    H72  604   2.782   3.138   5.086
    3MOL    H73  605   2.669   3.103   5.218
    3MOL    H74  606   2.798   2.986   5.177
    3MOL    H75  607   2.364   2.816   5.413
    3MOL    H76  608   2.312   2.647   5.434
    3MOL    H77  609   2.422   2.691   5.300
    3MOL    H78  610   1.771   2.579   5.561
    3MOL    H79  611   1.849   2.419   5.556
    3MOL    H80  612   1.920   2.558   5.468
    3MOL    H81  613   1.480   2.749   4.777
    3MOL    H82  614   1.646   2.685   4.773
    3MOL    H83  615   1.507   2.579   4.733
    3MOL    H84  616   1.258   2.286   4.774
    3MOL    H85  617   1.312   2.192   4.914
    3MOL    H86  618   1.231   2.350   4.938
    3MOL    H87  619   1.486   2.215   4.581
    3MOL    H88  620   1.627   2.263   4.680
    3MOL    H89  621   1.639   2.126   4.566
    3MOL    H90  622   1.711   1.737   4.495
    3MOL    H91  623   1.699   1.660   4.653
    3MOL    H92  624   1.553   1.730   4.579
    3MOL    H93  625   1.948   1.819   4.447
    3MOL    H94  626   1.934   1.916   4.594
    3MOL    H95  627   2.095   1.864   4.536
    3MOL    H96  628   2.343   1.617   4.471
    3MOL    H97  629   2.262   1.476   4.542
    3MOL    H98  630   2.164   1.611   4.479
    3MOL    H99  631   2.550   1.397   4.694
    3MOL   H100  632   2.519   1.569   4.670
    3MOL   H101  633   2.677   1.514   4.732
    3MOL   H102  634   2.975   1.566   4.919
    3MOL   H103  635   2.935   1.657   5.065
    3MOL   H104  636   2.882   1.487   5.050
    3MOL   H105  637   3.016   1.771   4.767
    3MOL   H106  638   2.860   1.859   4.757
    3MOL   H107  639   3.014   1.947   4.736
    3MOL   H108  640   3.234   2.229   4.804
    3MOL   H109  641   3.168   2.327   4.937
    3MOL   H110  642   3.248   2.170   4.970
    3MOL   H111  643   3.012   2.306   4.602
    3MOL   H112  644   2.866   2.261   4.693
    3MOL   H113  645   2.861   2.397   4.577
    3MOL   H114  646   2.833   2.810   4.517
    3MOL   H115  647   2.784   2.878   4.674
    3MOL   H116  648   2.954   2.831   4.646
    3MOL   H117  649   2.612   2.666   4.479
    3MOL   H118  650   2.558   2.577   4.622
    3MOL   H119  651   2.440   2.636   4.499
    3MOL   H120  652   2.140   2.850   4.454
    3MOL   H121  653   2.225   2.991   4.519
    3MOL   H122  654   2.317   2.848   4.464
    3MOL   H123  655   1.935   3.101   4.737
    3MOL   H124  656   1.990   2.935   4.701
    3MOL   H125  657   1.823   2.964   4.753
    3MOL   H126  658   1.521   2.939   5.032
    3MOL   H127  659   1.570   2.806   5.139
    3MOL   H128  660   1.633   2.972   5.164
    4MOL     C1  661   2.766   1.802   6.228
    4MOL     H1  662   2.787   1.695   6.245
    4MOL     O1  663   2.809   1.839   6.096
    4MOL     C2  664   2.788   1.979   6.061
    4MOL     H2  665   2.683   2.006   6.076
    4MOL     C3  666   2.821   1.993   5.910
    4MOL     H3  667   2.781   2.089   5.873
    4MOL     H4  668   2.772   1.913   5.855
    4MOL     O2  669   2.963   1.987   5.892
    4MOL     C4  670   3.005   2.001   5.756
    4MOL     C5  671   2.847   1.884   6.333
    4MOL     H5  672   2.950   1.849   6.331
    4MOL     O3  673   2.794   1.865   6.466
    4MOL     C6  674   2.827   1.739   6.527
    4MOL     C7  675   2.847   2.036   6.302
    4MOL     H6  676   2.748   2.077   6.326
    4MOL     O4  677   2.952   2.096   6.381
    4MOL     C8  678   2.906   2.191   6.479
    4MOL     C9  679   2.878   2.065   6.154
    4MOL     H7  680   2.983   2.040   6.136
    4MOL     O5  681   2.854   2.206   6.130
    4MOL    C10  682   2.947   2.272   6.041
    4MOL     H8  683   3.028   2.203   6.013
    4MOL     O6  684   2.878   2.314   5.923
    4MOL    C11  685   2.768   2.404   5.944
    4MOL     H9  686   2.695   2.358   6.012
    4MOL    C12  687   2.701   2.423   5.810
    4MOL    H10  688   2.605   2.468   5.831
    4MOL    H11  689   2.692   2.324   5.766
    4MOL     O7  690   2.774   2.511   5.724
    4MOL    C13  691   2.697   2.546   5.608
    4MOL    C14  692   3.008   2.397   6.107
    4MOL    H12  693   3.087   2.436   6.042
    4MOL     O8  694   3.063   2.362   6.236
    4MOL    C15  695   3.186   2.288   6.230
    4MOL    C16  696   2.903   2.510   6.128
    4MOL    H13  697   2.836   2.481   6.211
    4MOL     O9  698   2.975   2.631   6.155
    4MOL    C17  699   2.974   2.663   6.294
    4MOL    C18  700   2.816   2.538   6.004
    4MOL    H14  701   2.878   2.591   5.931
    4MOL    O10  702   2.700   2.619   6.045
    4MOL    C19  703   2.663   2.730   5.957
    4MOL    H15  704   2.734   2.737   5.874
    4MOL    O11  705   2.529   2.709   5.904
    4MOL    C20  706   2.422   2.708   6.002
    4MOL    H16  707   2.452   2.638   6.082
    4MOL    C21  708   2.288   2.664   5.940
    4MOL    H17  709   2.219   2.632   6.019
    4MOL    H18  710   2.303   2.576   5.882
    4MOL    O12  711   2.230   2.764   5.856
    4MOL    C22  712   2.143   2.706   5.756
    4MOL    C23  713   2.660   2.865   6.035
    4MOL    H19  714   2.642   2.945   5.962
    4MOL    O13  715   2.787   2.887   6.100
    4MOL    C24  716   2.893   2.924   6.011
    4MOL    C25  717   2.546   2.871   6.140
    4MOL    H20  718   2.565   2.795   6.217
    4MOL    O14  719   2.539   3.003   6.197
    4MOL    C26  720   2.588   3.003   6.331
    4MOL    C27  721   2.409   2.839   6.077
    4MOL    H21  722   2.375   2.918   6.009
    4MOL    O15  723   2.312   2.811   6.181
    4MOL    C28  724   2.233   2.920   6.229
    4MOL    H22  725   2.296   3.009   6.242
    4MOL    O16  726   2.126   2.948   6.136
    4MOL    C29  727   2.031   2.841   6.109
    4MOL    H23  728   2.082   2.753   6.072
    4MOL    C30  729   1.938   2.891   5.995
    4MOL    H24  730   1.880   2.808   5.954
    4MOL    H25  731   2.001   2.932   5.915
    4MOL    O17  732   1.852   2.993   6.048
    4MOL    C31  733   1.770   3.060   5.952
    4MOL    C32  734   2.171   2.880   6.365
    4MOL    H26  735   2.122   2.968   6.407
    4MOL    O18  736   2.278   2.836   6.452
    4MOL    C33  737   2.270   2.887   6.586
    4MOL    C34  738   2.067   2.766   6.350
    4MOL    H27  739   2.121   2.675   6.323
    4MOL    O19  740   1.999   2.752   6.477
    4MOL    C35  741   1.988   2.617   6.524
    4MOL    C36  742   1.961   2.801   6.242
    4MOL    H28  743   1.900   2.884   6.280
    4MOL    O20  744   1.877   2.684   6.220
    4MOL    C37  745   1.738   2.711   6.188
    4MOL    H29  746   1.719   2.819   6.194
    4MOL    O21  747   1.712   2.666   6.054
    4MOL    C38  748   1.728   2.524   6.030
    4MOL    H30  749   1.829   2.493   6.057
    4MOL    C39  750   1.711   2.500   5.879
    4MOL    H31  751   1.747   2.399   5.855
    4MOL    H32  752   1.771   2.572   5.823
    4MOL    O22  753   1.571   2.513   5.846
    4MOL    C40  754   1.539   2.476   5.711
    4MOL    C41  755   1.644   2.637   6.286
    4MOL    H33  756   1.542   2.675   6.271
    4MOL    O23  757   1.686   2.659   6.420
    4MOL    C42  758   1.651   2.785   6.474
    4MOL    C43  759   1.643   2.485   6.266
    4MOL    H34  760   1.737   2.444   6.304
    4MOL    O24  761   1.530   2.434   6.339
    4MOL    C44  762   1.564   2.357   6.456
    4MOL    C45  763   1.626   2.446   6.119
    4MOL    H35  764   1.524   2.472   6.089
    4MOL    O25  765   1.649   2.303   6.112
    4MOL    C46  766   1.556   2.231   6.028
    4MOL    H36  767   1.477   2.298   5.992
    4MOL    O26  768   1.627   2.180   5.916
    4MOL    C47  769   1.732   2.085   5.945
    4MOL    H37  770   1.808   2.132   6.009
    4MOL    C48  771   1.796   2.052   5.813
    4MOL    H38  772   1.892   2.002   5.832
    4MOL    H39  773   1.809   2.149   5.765
    4MOL    O27  774   1.717   1.967   5.729
    4MOL    C49  775   1.791   1.926   5.613
    4MOL    C50  776   1.492   2.110   6.102
    4MOL    H40  777   1.420   2.063   6.034
    4MOL    O28  778   1.424   2.154   6.221
    4MOL    C51  779   1.303   2.228   6.198
    4MOL    C52  780   1.596   2.002   6.140
    4MOL    H41  781   1.664   2.042   6.216
    4MOL    O29  782   1.526   1.885   6.187
    4MOL    C53  783   1.537   1.859   6.327
    4MOL    C54  784   1.678   1.960   6.016
    4MOL    H42  785   1.612   1.905   5.948
    4MOL    O30  786   1.791   1.878   6.059
    4MOL    C55  787   1.811   1.754   5.984
    4MOL    H43  788   1.726   1.737   5.917
    4MOL    O31  789   1.932   1.762   5.904
    4MOL    C56  790   2.059   1.777   5.975
    4MOL    H44  791   2.062   1.876   6.022
    4MOL    C57  792   2.177   1.765   5.877
    4MOL    H45  793   2.158   1.686   5.803
    4MOL    H46  794   2.267   1.740   5.932
    4MOL    O32  795   2.196   1.890   5.812
    4MOL    C58  796   2.309   1.894   5.724
    4MOL    C59  797   1.824   1.634   6.081
    4MOL    H47  798   1.834   1.542   6.021
    4MOL    O33  799   1.707   1.625   6.165
    4MOL    C60  800   1.588   1.577   6.099
    4MOL    C61  801   1.949   1.647   6.171
    4MOL    H48  802   1.937   1.733   6.237
    4MOL    O34  803   1.967   1.524   6.244
    4MOL    C62  804   1.917   1.523   6.379
    4MOL    C63  805   2.075   1.669   6.084
    4MOL    H49  806   2.100   1.575   6.034
    4MOL    O35  807   2.182   1.709   6.173
    4MOL    C64  808   2.265   1.600   6.218
    4MOL    H50  809   2.205   1.508   6.226
    4MOL    O36  810   2.372   1.579   6.122
    4MOL    C65  811   2.469   1.687   6.109
    4MOL    H51  812   2.419   1.780   6.079
    4MOL    C66  813   2.564   1.644   5.995
    4MOL    H52  814   2.587   1.537   6.003
    4MOL    H53  815   2.658   1.699   5.998
    4MOL    O37  816   2.499   1.673   5.871
    4MOL    C67  817   2.567   1.624   5.756
    4MOL    C68  818   2.327   1.629   6.357
    4MOL    H54  819   2.377   1.537   6.391
    4MOL    O38  820   2.222   1.663   6.449
    4MOL    C69  821   2.226   1.587   6.571
    4MOL    C70  822   2.431   1.741   6.353
    4MOL    H55  823   2.380   1.835   6.327
    4MOL    O39  824   2.495   1.749   6.482
    4MOL    C71  825   2.486   1.877   6.546
    4MOL    C72  826   2.538   1.711   6.246
    4MOL    H56  827   2.594   1.621   6.276
    4MOL    O40  828   2.624   1.827   6.239
    4MOL    H57  829   3.114   1.991   5.748
    4MOL    H58  830   2.959   1.922   5.695
    4MOL    H59  831   2.976   2.099   5.716
    4MOL    H60  832   2.507   1.645   5.667
    4MOL    H61  833   2.666   1.670   5.745
    4MOL    H62  834   2.578   1.515   5.762
    4MOL    H63  835   2.311   1.990   5.671
    4MOL    H64  836   2.403   1.885   5.780
    4MOL    H65  837   2.302   1.812   5.652
    4MOL    H66  838   1.731   1.858   5.551
    4MOL    H67  839   1.819   2.013   5.553
    4MOL    H68  840   1.883   1.873   5.643
    4MOL    H69  841   1.430   2.471   5.700
    4MOL    H70  842   1.579   2.550   5.642
    4MOL    H71  843   1.581   2.377   5.688
    4MOL    H72  844   1.710   3.138   6.001
    4MOL    H73  845   1.831   3.107   5.874
    4MOL    H74  846   1.701   2.989   5.904
    4MOL    H75  847   2.106   2.783   5.689
    4MOL    H76  848   2.199   2.632   5.696
    4MOL    H77  849   2.059   2.655   5.804
    4MOL    H78  850   2.743   2.631   5.557
    4MOL    H79  851   2.691   2.461   5.539
    4MOL    H80  852   2.595   2.575   5.637
    4MOL    H81  853   3.042   2.747   6.314
    4MOL    H82  854   2.872   2.689   6.324
    4MOL    H83  855   3.009   2.577   6.353
    4MOL    H84  856   3.226   2.277   6.332
    4MOL    H85  857   3.170   2.188   6.188
    4MOL    H86  858   3.259   2.341   6.168
    4MOL    H87  859   2.992   2.231   6.534
    4MOL    H88  860   2.854   2.274   6.430
    4MOL    H89  861   2.838   2.142   6.550
    4MOL    H90  862   2.801   1.740   6.633
    4MOL    H91  863   2.772   1.657   6.479
    4MOL    H92  864   2.935   1.719   6.518
    4MOL    H93  865   2.535   1.872   6.645
    4MOL    H94  866   2.538   1.952   6.486
    4MOL    H95  867   2.381   1.906   6.559
    4MOL    H96  868   2.138   1.610   6.633
    4MOL    H97  869   2.224   1.479   6.549
    4MOL    H98  870   2.317   1.610   6.627
    4MOL    H99  871   1.944   1.429   6.427
    4MOL   H100  872   1.960   1.606   6.437
    4MOL   H101  873   1.808   1.532   6.379
    4MOL   H102  874   1.511   1.554   6.174
    4MOL   H103  875   1.548   1.653   6.031
    4MOL   H104  876   1.610   1.485   6.042
    4MOL   H105  877   1.479   1.770   6.353
    4MOL   H106  878   1.641   1.842   6.355
    4MOL   H107  879   1.497   1.944   6.385
    4MOL   H108  880   1.252   2.245   6.293
    4MOL   H109  881   1.326   2.326   6.155
    4MOL   H110  882   1.236   2.173   6.132
    4MOL   H111  883   1.472   2.329   6.510
    4MOL   H112  884   1.617   2.266   6.428
    4MOL   H113  885   1.627   2.416   6.524
    4MOL   H114  886   1.668   2.782   6.581
    4MOL   H115  887   1.711   2.866   6.430
    4MOL   H116  888   1.545   2.807   6.457
    4MOL   H117  889   1.936   2.617   6.621
    4MOL   H118  890   1.930   2.556   6.454
    4MOL   H119  891   2.087   2.572   6.537
    4MOL   H120  892   2.356   2.850   6.645
    4MOL   H121  893   2.272   2.996   6.586
    4MOL   H122  894   2.178   2.853   6.634
    4MOL   H123  895   2.587   3.103   6.373
    4MOL   H124  896   2.527   2.937   6.394
    4MOL   H125  897   2.691   2.969   6.331
    4MOL   H126  898   2.981   2.957   6.068
    4MOL   H127  899   2.923   2.839   5.949
    4MOL   H128  900   2.863   3.007   5.946
    5SOL     OW  901   0.243   0.599   0.109
    5SOL    HW1  902   0.169   0.598   0.170
    5SOL    HW2  903   0.207   0.634   0.028
    6SOL     OW  904   0.196   0.293   0.990
    6SOL    HW1  905   0.233   0.270   1.075
    6SOL    HW2  906   0.130   0.225   0.972
    7SOL     OW  907   0.005   0.378   0.641
    7SOL    HW1  908   4.428   0.417   0.683
    7SOL    HW2  909   4.470   0.307   0.588
    8SOL     OW  910   0.567   1.284   1.174
    8SOL    HW1  911   0.479   1.289   1.135
    8SOL    HW2  912   0.583   1.372   1.209
    9SOL     OW  913   1.558   1.511   0.706
    9SOL    HW1  914   1.515   1.492   0.790
    9SOL    HW2  915   1.487   1.515   0.643
   10SOL     OW  916   1.133   0.700   0.700
   10SOL    HW1  917   1.181   0.782   0.689
   10SOL    HW2  918   1.083   0.711   0.781
   11SOL     OW  919   1.774   0.603   0.219
   11SOL    HW1  920   1.724   0.604   0.138
   11SOL    HW2  921   1.735   0.533   0.271
   12SOL     OW  922   0.757   1.143   1.039
   12SOL    HW1  923   0.688   1.178   1.095
   12SOL    HW2  924   0.792   1.220   0.994
   13SOL     OW  925   0.864   0.777   1.821
   13SOL    HW1  926   0.850   0.848   1.883
   13SOL    HW2  927   0.887   0.821   1.739
   14SOL     OW  928   0.686   1.006   0.648
   14SOL    HW1  929   0.751   0.991   0.717
   14SOL    HW2  930   0.616   1.056   0.691
   15SOL     OW  931   0.709   1.151   1.811
   15SOL    HW1  932   0.756   1.230   1.836
   15SOL    HW2  933   0.626   1.182   1.776
   16SOL     OW  934   0.336   1.422   1.069
   16SOL    HW1  935   0.255   1.404   1.023
   16SOL    HW2  936   0.387   1.477   1.009
   17SOL     OW  937   1.461   1.499   1.351
   17SOL    HW1  938   1.509   1.581   1.361
   17SOL    HW2  939   1.404   1.495   1.428
   18SOL     OW  940   0.437   0.395   1.492
   18SOL    HW1  941   0.526   0.360   1.494
   18SOL    HW2  942   0.381   0.320   1.510
   19SOL     OW  943   1.612   0.448   0.738
   19SOL    HW1  944   1.531   0.469   0.693
   19SOL    HW2  945   1.631   0.526   0.791
   20SOL     OW  946   0.244   1.691   0.483
   20SOL    HW1  947   0.233   1.778   0.522
   20SOL    HW2  948   0.303   1.706   0.409
   21SOL     OW  949   1.136   1.341   1.692
   21SOL    HW1  950   1.176   1.337   1.779
   21SOL    HW2  951   1.083   1.261   1.686
   22SOL     OW  952   0.243   1.427   0.529
   22SOL    HW1  953   0.239   1.523   0.530
   22SOL    HW2  954   0.177   1.399   0.592
   23SOL     OW  955   0.244   1.081   0.882
   23SOL    HW1  956   0.263   0.993   0.914
   23SOL    HW2  957   0.187   1.119   0.949
   24SOL     OW  958   0.615   1.791   1.432
   24SOL    HW1  959   0.531   1.773   1.475
   24SOL    HW2  960   0.636   1.881   1.455
   25SOL     OW  961   0.575   0.993   0.146
   25SOL    HW1  962   0.621   1.035   0.073
   25SOL    HW2  963   0.625   1.017   0.223
   26SOL     OW  964   1.584   0.115   1.473
   26SOL    HW1  965   1.600   0.184   1.408
   26SOL    HW2  966   1.574   0.162   1.556
   27SOL     OW  967   0.137   0.643   0.575
   27SOL    HW1  968   0.083   0.565   0.590
   27SOL    HW2  969   0.109   0.705   0.643
   28SOL     OW  970   1.843   1.779   0.338
   28SOL    HW1  971   1.897   1.740   0.407
   28SOL    HW2  972   1.905   1.830   0.285
   29SOL     OW  973   0.071   1.592   0.150
   29SOL    HW1  974   0.036   1.503   0.154
   29SOL    HW2  975   0.018   1.641   0.213
   30SOL     OW  976   1.690   0.919   0.639
   30SOL    HW1  977   1.775   0.879   0.619
   30SOL    HW2  978   1.668   0.970   0.561
   31SOL     OW  979   1.646   1.106   0.432
   31SOL    HW1  980   1.728   1.119   0.384
   31SOL    HW2  981   1.651   1.168   0.505
   32SOL     OW  982   0.106   0.762   1.585
   32SOL    HW1  983   0.199   0.760   1.563
   32SOL    HW2  984   0.086   0.855   1.598
   33SOL     OW  985   0.613   1.384   0.736
   33SOL    HW1  986   0.566   1.301   0.745
   33SOL    HW2  987   0.596   1.411   0.645
   34SOL     OW  988   1.290   1.238   1.424
   34SOL    HW1  989   1.322   1.171   1.364
   34SOL    HW2  990   1.346   1.231   1.501
   35SOL     OW  991   0.819   0.010   0.550
   35SOL    HW1  992   0.857   0.089   0.511
   35SOL    HW2  993   0.725   0.020   0.540
   36SOL     OW  994   0.181   0.942   1.280
   36SOL    HW1  995   0.273   0.925   1.258
   36SOL    HW2  996   0.133   0.924   1.199
   37SOL     OW  997   1.519   0.999   0.201
   37SOL    HW1  998   1.455   0.937   0.236
   37SOL    HW2  999   1.567   1.029   0.278
   38SOL     OW 1000   1.185   1.805   1.621
   38SOL    HW1 1001   1.200   1.862   1.546
   38SOL    HW2 1002   1.201   1.716   1.587
   39SOL     OW 1003   0.318   0.260   1.771
   39SOL    HW1 1004   0.386   0.312   1.813
   39SOL    HW2 1005   0.242   0.268   1.829
   40SOL     OW 1006   1.466   1.419   0.952
   40SOL    HW1 1007   1.397   1.434   1.018
   40SOL    HW2 1008   1.454   1.328   0.925
   41SOL     OW 1009   1.658   1.734   0.580
   41SOL    HW1 1010   1.635   1.706   0.491
   41SOL    HW2 1011   1.633   1.661   0.635
   42SOL     OW 1012   0.594   0.720   0.263
   42SOL    HW1 1013   0.600   0.801   0.212
   42SOL    HW2 1014   0.532   0.740   0.332
   43SOL     OW 1015   1.288   0.359   0.934
   43SOL    HW1 1016   1.199   0.327   0.923
   43SOL    HW2 1017   1.328   0.297   0.996
   44SOL     OW 1018   1.583   1.669   0.312
   44SOL    HW1 1019   1.670   1.707   0.303
   44SOL    HW2 1020   1.556   1.650   0.222
   45SOL     OW 1021   0.797   0.617   1.454
   45SOL    HW1 1022   0.769   0.593   1.542
   45SOL    HW2 1023   0.752   0.554   1.397
   46SOL     OW 1024   1.389   0.478   1.676
   46SOL    HW1 1025   1.391   0.522   1.761
   46SOL    HW2 1026   1.456   0.410   1.682
   47SOL     OW 1027   0.956   0.888   1.581
   47SOL    HW1 1028   1.011   0.817   1.547
   47SOL    HW2 1029   0.910   0.922   1.505
   48SOL     OW 1030   0.997   0.417   1.237
   48SOL    HW1 1031   0.911   0.429   1.279
   48SOL    HW2 1032   0.978   0.367   1.158
   49SOL     OW 1033   1.049   0.701   0.428
   49SOL    HW1 1034   1.065   0.692   0.522
   49SOL    HW2 1035   0.967   0.653   0.413
   50SOL     OW 1036   0.099   0.823   0.784
   50SOL    HW1 1037   0.185   0.807   0.822
   50SOL    HW2 1038   0.049   0.865   0.854
   51SOL     OW 1039   0.123   1.856   1.576
   51SOL    HW1 1040   0.118   1.831   1.669
   51SOL    HW2 1041   0.046   1.817   1.536
   52SOL     OW 1042   0.878   0.359   0.202
   52SOL    HW1 1043   0.931   0.413   0.143
   52SOL    HW2 1044   0.906   0.269   0.185
   53SOL     OW 1045   1.705   0.575   1.828
   53SOL    HW1 1046   1.670   0.651   1.782
   53SOL    HW2 1047   1.740   0.518   1.759
   54SOL     OW 1048   1.376   1.142   0.542
   54SOL    HW1 1049   1.454   1.128   0.488
   54SOL    HW2 1050   1.323   1.204   0.491
   55SOL     OW 1051   0.542   0.203   0.900
   55SOL    HW1 1052   0.562   0.222   0.992
   55SOL    HW2 1053   0.535   0.289   0.859
   56SOL     OW 1054   1.007   1.445   0.474
   56SOL    HW1 1055   0.967   1.517   0.425
   56SOL    HW2 1056   0.990   1.467   0.566
   57SOL     OW 1057   0.355   1.809   0.858
   57SOL    HW1 1058   0.397   1.724   0.867
   57SOL    HW2 1059   0.425   1.872   0.871
   58SOL     OW 1060   1.799   1.058   0.867
   58SOL    HW1 1061   1.742   1.042   0.791
   58SOL    HW2 1062   1.738   1.064   0.941
   59SOL     OW 1063   1.228   1.539   1.513
   59SOL    HW1 1064   1.214   1.466   1.573
   59SOL    HW2 1065   1.167   1.524   1.441
   60SOL     OW 1066   0.315   0.956   0.277
   60SOL    HW1 1067   0.398   0.983   0.239
   60SOL    HW2 1068   0.306   0.864   0.252
   61SOL     OW 1069   1.478   0.739   0.724
   61SOL    HW1 1070   1.465   0.695   0.808
   61SOL    HW2 1071   1.554   0.796   0.739
   62SOL     OW 1072   0.466   1.261   1.735
   62SOL    HW1 1073   0.439   1.268   1.644
   62SOL    HW2 1074   0.385   1.267   1.785
   63SOL     OW 1075   1.107   1.779   0.227
   63SOL    HW1 1076   1.048   1.727   0.281
   63SOL    HW2 1077   1.148   1.715   0.168
   64SOL     OW 1078   0.165   0.264   1.509
   64SOL    HW1 1079   0.135   0.351   1.482
   64SOL    HW2 1080   0.198   0.276   1.598
   65SOL     OW 1081   1.627   1.375   0.091
   65SOL    HW1 1082   1.586   1.460   0.076
   65SOL    HW2 1083   1.562   1.311   0.061
   66SOL     OW 1084   0.469   1.741   0.318
   66SOL    HW1 1085   0.507   1.798   0.385
   66SOL    HW2 1086   0.544   1.715   0.264
   67SOL     OW 1087   1.418   0.131   0.425
   67SOL    HW1 1088   1.395   0.097   0.338
   67SOL    HW2 1089   1.513   0.133   0.426
   68SOL     OW 1090   0.256   1.790   1.235
   68SOL    HW1 1091   0.305   1.717   1.272
   68SOL    HW2 1092   0.228   1.759   1.149
   69SOL     OW 1093   0.938   1.698   0.900
   69SOL    HW1 1094   1.015   1.646   0.921
   69SOL    HW2 1095   0.893   1.649   0.831
   70SOL     OW 1096   0.392   0.693   0.471
   70SOL    HW1 1097   0.419   0.602   0.484
   70SOL    HW2 1098   0.301   0.696   0.501
   71SOL     OW 1099   1.526   0.233   1.722
   71SOL    HW1 1100   1.525   0.256   1.815
   71SOL    HW2 1101   1.450   0.176   1.711
   72SOL     OW 1102   0.601   0.105   0.118
   72SOL    HW1 1103   0.694   0.083   0.118
   72SOL    HW2 1104   0.569   0.074   0.034
   73SOL     OW 1105   0.768   0.269   1.753
   73SOL    HW1 1106   0.835   0.201   1.766
   73SOL    HW2 1107   0.726   0.278   1.839
   74SOL     OW 1108   0.877   1.521   1.193
   74SOL    HW1 1109   0.861   1.485   1.106
   74SOL    HW2 1110   0.946   1.466   1.230
   75SOL     OW 1111   1.342   0.589   1.429
   75SOL    HW1 1112   1.370   0.560   1.516
   75SOL    HW2 1113   1.376   0.678   1.422
   76SOL     OW 1114   0.814   1.397   0.937
   76SOL    HW1 1115   0.898   1.386   0.892
   76SOL    HW2 1116   0.749   1.396   0.867
   77SOL     OW 1117   0.923   0.515   0.901
   77SOL    HW1 1118   0.906   0.515   0.807
   77SOL    HW2 1119   0.963   0.430   0.918
   78SOL     OW 1120   0.560   0.068   0.512
   78SOL    HW1 1121   0.472   0.055   0.548
   78SOL    HW2 1122   0.550   0.138   0.448
   79SOL     OW 1123   1.426   1.196   0.031
   79SOL    HW1 1124   1.458   1.123   0.084
   79SOL    HW2 1125   1.343   1.220   0.071
   80SOL     OW 1126   0.295   0.056   0.191
   80SOL    HW1 1127   0.372   0.095   0.149
   80SOL    HW2 1128   0.331   0.001   0.260
   81SOL     OW 1129   0.950   0.227   0.446
   81SOL    HW1 1130   0.903   0.291   0.392
   81SOL    HW2 1131   1.039   0.261   0.453
   82SOL     OW 1132   1.080   0.680   1.461
   82SOL    HW1 1133   1.009   0.616   1.462
   82SOL    HW2 1134   1.159   0.628   1.450
   83SOL     OW 1135   1.224   1.569   0.794
   83SOL    HW1 1136   1.242   1.637   0.728
   83SOL    HW2 1137   1.292   1.582   0.860
   84SOL     OW 1138   0.467   1.148   0.740
   84SOL    HW1 1139   0.395   1.129   0.800
   84SOL    HW2 1140   0.430   1.135   0.653
   85SOL     OW 1141   1.270   1.795   0.605
   85SOL    HW1 1142   1.315   1.857   0.548
   85SOL    HW2 1143   1.205   1.848   0.652
   86SOL     OW 1144   1.021   0.533   0.034
   86SOL    HW1 1145   0.984   0.618   0.009
   86SOL    HW2 1146   1.094   0.555   0.092
   87SOL     OW 1147   0.092   0.521   1.412
   87SOL    HW1 1148   0.152   0.531   1.338
   87SOL    HW2 1149   0.061   0.610   1.430
   88SOL     OW 1150   0.563   0.243   1.165
   88SOL    HW1 1151   0.593   0.159   1.199
   88SOL    HW2 1152   0.469   0.244   1.185
   89SOL     OW 1153   0.862   0.508   0.628
   89SOL    HW1 1154   0.818   0.544   0.551
   89SOL    HW2 1155   0.842   0.414   0.626
   90SOL     OW 1156   0.965   0.034   0.779
   90SOL    HW1 1157   0.916   0.027   0.696
   90SOL    HW2 1158   0.983   4.443   0.802
   91SOL     OW 1159   1.436   1.163   0.857
   91SOL    HW1 1160   1.368   1.096   0.856
   91SOL    HW2 1161   1.460   1.176   0.765
   92SOL     OW 1162   1.467   0.603   0.977
   92SOL    HW1 1163   1.415   0.523   0.980
   92SOL    HW2 1164   1.525   0.597   1.053
   93SOL     OW 1165   1.850   0.815   0.379
   93SOL    HW1 1166   1.903   0.764   0.440
   93SOL    HW2 1167   1.821   0.752   0.313
   94SOL     OW 1168   0.494   1.422   0.174
   94SOL    HW1 1169   0.415   1.396   0.222
   94SOL    HW2 1170   0.488   1.375   0.091
   95SOL     OW 1171   1.670   1.265   0.648
   95SOL    HW1 1172   1.764   1.271   0.661
   95SOL    HW2 1173   1.637   1.353   0.669
   96SOL     OW 1174   1.390   0.575   0.076
   96SOL    HW1 1175   1.329   0.556   0.148
   96SOL    HW2 1176   1.463   0.515   0.090
   97SOL     OW 1177   0.525   0.262   0.325
   97SOL    HW1 1178   0.558   0.204   0.256
   97SOL    HW2 1179   0.512   0.346   0.282
   98SOL     OW 1180   1.754   1.237   1.576
   98SOL    HW1 1181   1.841   1.199   1.571
   98SOL    HW2 1182   1.769   1.327   1.604
   99SOL     OW 1183   1.060   1.353   1.334
   99SOL    HW1 1184   0.985   1.323   1.385
   99SOL    HW2 1185   1.136   1.312   1.375
  100SOL     OW 1186   1.607   1.624   1.652
  100SOL    HW1 1187   1.603   1.660   1.563
  100SOL    HW2 1188   1.691   1.578   1.655
  101SOL     OW 1189   1.127   1.202   1.107
  101SOL    HW1 1190   1.068   1.240   1.172
  101SOL    HW2 1191   1.093   1.233   1.023
  102SOL     OW 1192   1.630   1.099   1.078
  102SOL    HW1 1193   1.626   1.161   1.151
  102SOL    HW2 1194   1.550   1.115   1.028
  103SOL     OW 1195   0.903   0.132   1.389
  103SOL    HW1 1196   0.925   0.087   1.307
  103SOL    HW2 1197   0.987   0.145   1.433
  104SOL     OW 1198   0.984   1.114   1.723
  104SOL    HW1 1199   0.892   1.130   1.743
  104SOL    HW2 1200   0.984   1.037   1.666
  105SOL     OW 1201   0.710   1.059   0.374
  105SOL    HW1 1202   0.696   1.045   0.467
  105SOL    HW2 1203   0.786   1.005   0.352
  106SOL     OW 1204   0.429   0.824   1.240
  106SOL    HW1 1205   0.498   0.835   1.306
  106SOL    HW2 1206   0.370   0.758   1.276
  107SOL     OW 1207   1.269   0.376   1.273
  107SOL    HW1 1208   1.301   0.455   1.317
  107SOL    HW2 1209   1.180   0.399   1.245
  108SOL     OW 1210   0.062   1.576   1.342
  108SOL    HW1 1211   0.035   1.664   1.316
  108SOL    HW2 1212   0.157   1.581   1.347
  109SOL     OW 1213   0.350   1.114   0.499
  109SOL    HW1 1214   0.354   1.188   0.438
  109SOL    HW2 1215   0.344   1.037   0.442
  110SOL     OW 1216   0.564   0.528   0.854
  110SOL    HW1 1217   0.576   0.588   0.781
  110SOL    HW2 1218   0.623   0.560   0.922
  111SOL     OW 1219   1.247   1.346   0.394
  111SOL    HW1 1220   1.303   1.419   0.422
  111SOL    HW2 1221   1.160   1.369   0.426
  112SOL     OW 1222   1.278   1.456   1.146
  112SOL    HW1 1223   1.334   1.459   1.224
  112SOL    HW2 1224   1.223   1.379   1.158
  113SOL     OW 1225   1.586   0.628   0.475
  113SOL    HW1 1226   1.537   0.673   0.543
  113SOL    HW2 1227   1.622   0.698   0.421
  114SOL     OW 1228   0.348   1.530   1.316
  114SOL    HW1 1229   0.333   1.483   1.234
  114SOL    HW2 1230   0.443   1.540   1.322
  115SOL     OW 1231   0.481   0.761   1.666
  115SOL    HW1 1232   0.506   0.799   1.583
  115SOL    HW2 1233   0.517   0.672   1.663
  116SOL     OW 1234   1.599   0.777   1.679
  116SOL    HW1 1235   1.513   0.819   1.673
  116SOL    HW2 1236   1.651   0.820   1.612
  117SOL     OW 1237   1.006   0.086   1.723
  117SOL    HW1 1238   1.032   0.170   1.685
  117SOL    HW2 1239   1.031   0.021   1.658
  118SOL     OW 1240   0.496   0.045   1.750
  118SOL    HW1 1241   0.479   4.497   1.669
  118SOL    HW2 1242   0.429   0.114   1.752
  119SOL     OW 1243   0.588   0.874   1.024
  119SOL    HW1 1244   0.618   0.965   1.026
  119SOL    HW2 1245   0.532   0.865   1.101
  120SOL     OW 1246   1.360   0.858   1.032
  120SOL    HW1 1247   1.278   0.851   0.983
  120SOL    HW2 1248   1.398   0.771   1.027
  121SOL     OW 1249   1.202   0.531   0.267
  121SOL    HW1 1250   1.210   0.453   0.321
  121SOL    HW2 1251   1.160   0.596   0.325
  122SOL     OW 1252   0.285   0.218   1.234
  122SOL    HW1 1253   0.248   0.236   1.321
  122SOL    HW2 1254   0.323   0.131   1.241
  123SOL     OW 1255   0.044   1.313   1.285
  123SOL    HW1 1256   0.077   1.266   1.361
  123SOL    HW2 1257   0.047   1.405   1.310
  124SOL     OW 1258   0.725   0.631   1.059
  124SOL    HW1 1259   0.798   0.611   1.001
  124SOL    HW2 1260   0.699   0.720   1.035
  125SOL     OW 1261   1.734   0.959   1.852
  125SOL    HW1 1262   1.686   0.902   1.791
  125SOL    HW2 1263   1.674   0.971   1.925
  126SOL     OW 1264   0.316   0.074   0.629
  126SOL    HW1 1265   0.301   0.163   0.663
  126SOL    HW2 1266   0.306   0.017   0.706
  127SOL     OW 1267   1.615   0.375   0.365
  127SOL    HW1 1268   1.644   0.311   0.431
  127SOL    HW2 1269   1.591   0.453   0.417
  128SOL     OW 1270   1.028   0.761   0.962
  128SOL    HW1 1271   1.026   0.777   1.056
  128SOL    HW2 1272   1.000   0.670   0.953
  129SOL     OW 1273   0.983   1.566   1.715
  129SOL    HW1 1274   0.967   1.610   1.632
  129SOL    HW2 1275   1.025   1.484   1.691
  130SOL     OW 1276   1.856   1.506   1.606
  130SOL    HW1 1277   1.870   1.534   1.515
  130SOL    HW2 1278   1.937   1.530   1.650
  131SOL     OW 1279   0.347   0.931   1.818
  131SOL    HW1 1280   0.420   0.961   1.872
  131SOL    HW2 1281   0.385   0.865   1.760
  132SOL     OW 1282   1.536   0.293   0.113
  132SOL    HW1 1283   1.476   0.219   0.126
  132SOL    HW2 1284   1.566   0.316   0.200
  133SOL     OW 1285   1.289   0.824   0.033
  133SOL    HW1 1286   1.332   0.739   0.042
  133SOL    HW2 1287   1.322   0.858  11.050
  134SOL     OW 1288   1.065   1.335   0.853
  134SOL    HW1 1289   1.068   1.262   0.790
  134SOL    HW2 1290   1.127   1.399   0.818
  135SOL     OW 1291   0.318   0.813   0.949
  135SOL    HW1 1292   0.412   0.831   0.945
  135SOL    HW2 1293   0.312   0.722   0.979
  136SOL     OW 1294   0.336   0.528   0.992
  136SOL    HW1 1295   0.292   0.446   0.973
  136SOL    HW2 1296   0.413   0.528   0.936
  137SOL     OW 1297   1.135   0.375   1.694
  137SOL    HW1 1298   1.087   0.439   1.746
  137SOL    HW2 1299   1.221   0.414   1.681
  138SOL     OW 1300   1.158   0.212   1.473
  138SOL    HW1 1301   1.152   0.276   1.544
  138SOL    HW2 1302   1.196   0.261   1.400
  139SOL     OW 1303   4.495   1.324   0.198
  139SOL    HW1 1304   4.402   1.342   0.190
  139SOL    HW2 1305   0.000   1.232   0.226
  140SOL     OW 1306   0.096   1.779   0.940
  140SOL    HW1 1307   0.057   1.723   0.872
  140SOL    HW2 1308   0.183   1.799   0.907
  141SOL     OW 1309   0.498   1.573   0.907
  141SOL    HW1 1310   0.566   1.636   0.930
  141SOL    HW2 1311   0.542   1.510   0.851
  142SOL     OW 1312   0.987   0.794   1.228
  142SOL    HW1 1313   1.040   0.770   1.303
  142SOL    HW2 1314   0.901   0.757   1.247
  143SOL     OW 1315   0.038   0.566   1.110
  143SOL    HW1 1316   0.114   0.523   1.070
  143SOL    HW2 1317   0.021   0.515   1.189
  144SOL     OW 1318   0.180   0.520   1.711
  144SOL    HW1 1319   0.266   0.504   1.674
  144SOL    HW2 1320   0.151   0.601   1.669
  145SOL     OW 1321   1.377   0.940   1.659
  145SOL    HW1 1322   1.397   1.034   1.658
  145SOL    HW2 1323   1.374   0.916   1.567
  146SOL     OW 1324   0.811   0.575   0.358
  146SOL    HW1 1325   0.819   0.500   0.300
  146SOL    HW2 1326   0.737   0.625   0.323
  147SOL     OW 1327   1.641   0.601   1.188
  147SOL    HW1 1328   1.631   0.542   1.262
  147SOL    HW2 1329   1.728   0.581   1.154
  148SOL     OW 1330   0.271   1.562   1.741
  148SOL    HW1 1331   0.217   1.614   1.800
  148SOL    HW2 1332   0.252   1.471   1.764
  149SOL     OW 1333   0.684   0.464   1.267
  149SOL    HW1 1334   0.647   0.383   1.231
  149SOL    HW2 1335   0.692   0.523   1.192
  150SOL     OW 1336   0.929   1.679   1.467
  150SOL    HW1 1337   0.903   1.646   1.381
  150SOL    HW2 1338   0.927   1.774   1.458
  151SOL     OW 1339   0.476   0.485   0.183
  151SOL    HW1 1340   0.532   0.559   0.205
  151SOL    HW2 1341   0.390   0.524   0.164
  152SOL     OW 1342   0.161   1.141   1.462
  152SOL    HW1 1343   0.147   1.094   1.545
  152SOL    HW2 1344   0.170   1.071   1.397
  153SOL     OW 1345   1.328   1.048   1.224
  153SOL    HW1 1346   1.351   0.985   1.156
  153SOL    HW2 1347   1.256   1.099   1.186
  154SOL     OW 1348   1.308   0.852   0.310
  154SOL    HW1 1349   1.231   0.823   0.358
  154SOL    HW2 1350   1.285   0.840   0.218
  155SOL     OW 1351   1.765   1.745   1.148
  155SOL    HW1 1352   1.829   1.773   1.082
  155SOL    HW2 1353   1.747   1.654   1.125
  156SOL     OW 1354   1.241   1.733   1.115
  156SOL    HW1 1355   1.323   1.752   1.070
  156SOL    HW2 1356   1.245   1.639   1.133
  157SOL     OW 1357   0.067   1.186   1.049
  157SOL    HW1 1358   0.069   1.220   1.139
  157SOL    HW2 1359   0.018   1.252   1.000
  158SOL     OW 1360   0.679   1.664   1.727
  158SOL    HW1 1361   0.625   1.743   1.722
  158SOL    HW2 1362   0.741   1.674   1.655
  159SOL     OW 1363   0.879   0.064   0.124
  159SOL    HW1 1364   0.964   0.093   0.091
  159SOL    HW2 1365   0.900   0.016   0.204
  160SOL     OW 1366   1.720   0.134   0.499
  160SOL    HW1 1367   1.793   0.137   0.437
  160SOL    HW2 1368   1.736   0.055   0.551
  161SOL     OW 1369   1.389   1.568   0.484
  161SOL    HW1 1370   1.450   1.599   0.417
  161SOL    HW2 1371   1.343   1.646   0.512
  162SOL     OW 1372   0.119   1.808   1.848
  162SOL    HW1 1373   0.080   1.734   1.895
  162SOL    HW2 1374   0.183   1.844   1.909
  163SOL     OW 1375   1.278   0.927   0.673
  163SOL    HW1 1376   1.351   0.864   0.676
  163SOL    HW2 1377   1.312   0.999   0.620
  164SOL     OW 1378   0.817   1.273   1.431
  164SOL    HW1 1379   0.790   1.311   1.514
  164SOL    HW2 1380   0.746   1.295   1.370
  165SOL     OW 1381   0.675   1.619   0.166
  165SOL    HW1 1382   0.684   1.628   0.072
  165SOL    HW2 1383   0.617   1.543   0.178
  166SOL     OW 1384   1.627   1.725   1.391
  166SOL    HW1 1385   1.677   1.733   1.309
  166SOL    HW2 1386   1.616   1.816   1.420
  167SOL     OW 1387   1.839   0.155   0.966
  167SOL    HW1 1388   1.867   0.078   0.918
  167SOL    HW2 1389   1.752   0.175   0.931
  168SOL     OW 1390   0.265   0.324   0.724
  168SOL    HW1 1391   0.183   0.361   0.690
  168SOL    HW2 1392   0.252   0.317   0.818
  169SOL     OW 1393   1.222   1.603   0.051
  169SOL    HW1 1394   1.209   1.510   0.072
  169SOL    HW2 1395   1.157   1.622  11.084
  170SOL     OW 1396   0.825   1.006   1.372
  170SOL    HW1 1397   0.868   1.004   1.286
  170SOL    HW2 1398   0.825   1.099   1.395
  171SOL     OW 1399   0.914   0.907   0.282
  171SOL    HW1 1400   0.981   0.946   0.226
  171SOL    HW2 1401   0.961   0.841   0.334
  172SOL     OW 1402   1.500   1.622   0.046
  172SOL    HW1 1403   1.404   1.619   0.042
  172SOL    HW2 1404   1.527   1.636  11.056
  173SOL     OW 1405   0.373   1.306   1.491
  173SOL    HW1 1406   0.356   1.384   1.439
  173SOL    HW2 1407   0.297   1.250   1.474
  174SOL     OW 1408   1.611   1.283   1.281
  174SOL    HW1 1409   1.672   1.275   1.354
  174SOL    HW2 1410   1.551   1.353   1.306
  175SOL     OW 1411   1.049   1.106   0.705
  175SOL    HW1 1412   0.979   1.054   0.745
  175SOL    HW2 1413   1.112   1.040   0.673
  176SOL     OW 1414   1.011   0.240   0.994
  176SOL    HW1 1415   1.013   0.207   0.904
  176SOL    HW2 1416   1.002   0.162   1.048
  177SOL     OW 1417   0.602   1.490   0.483
  177SOL    HW1 1418   0.641   1.440   0.412
  177SOL    HW2 1419   0.531   1.540   0.442
  178SOL     OW 1420   1.720   0.393   1.377
  178SOL    HW1 1421   1.792   0.456   1.377
  178SOL    HW2 1422   1.750   0.322   1.321
  179SOL     OW 1423   0.262   1.331   0.284
  179SOL    HW1 1424   0.174   1.344   0.248
  179SOL    HW2 1425   0.258   1.371   0.371
  180SOL     OW 1426   0.116   1.007   1.696
  180SOL    HW1 1427   0.052   1.048   1.754
  180SOL    HW2 1428   0.194   0.996   1.750
  181SOL     OW 1429   0.659   0.208   1.496
  181SOL    HW1 1430   0.738   0.181   1.450
  181SOL    HW2 1431   0.687   0.223   1.586
  182SOL     OW 1432   0.052   0.339   0.012
  182SOL    HW1 1433   4.461   0.333   0.040
  182SOL    HW2 1434   0.073   0.432   0.018
  183SOL     OW 1435   1.431   0.858   1.401
  183SOL    HW1 1436   1.382   0.918   1.345
  183SOL    HW2 1437   1.521   0.861   1.367
  184SOL     OW 1438   0.081   0.185   0.297
  184SOL    HW1 1439   0.084   0.263   0.242
  184SOL    HW2 1440   0.157   0.134   0.272
  185SOL     OW 1441   1.182   1.341   0.122
  185SOL    HW1 1442   1.088   1.321   0.116
  185SOL    HW2 1443   1.202   1.334   0.215
  186SOL     OW 1444   0.622   0.830   1.429
  186SOL    HW1 1445   0.676   0.908   1.416
  186SOL    HW2 1446   0.685   0.759   1.438
  187SOL     OW 1447   1.485   1.775   0.977
  187SOL    HW1 1448   1.509   1.835   0.906
  187SOL    HW2 1449   1.567   1.760   1.024
  188SOL     OW 1450   0.714   0.561   1.705
  188SOL    HW1 1451   0.748   0.629   1.764
  188SOL    HW2 1452   0.753   0.480   1.737
  189SOL     OW 1453   1.470   1.202   1.633
  189SOL    HW1 1454   1.458   1.215   1.727
  189SOL    HW2 1455   1.563   1.215   1.618
  190SOL     OW 1456   0.381   1.743   1.564
  190SOL    HW1 1457   0.296   1.783   1.547
  190SOL    HW2 1458   0.361   1.662   1.611
  191SOL     OW 1459   1.671   0.882   1.255
  191SOL    HW1 1460   1.662   0.797   1.212
  191SOL    HW2 1461   1.662   0.946   1.185
  192SOL     OW 1462   1.218   0.326   0.447
  192SOL    HW1 1463   1.284   0.257   0.438
  192SOL    HW2 1464   1.243   0.373   0.527
  193SOL     OW 1465   0.586   0.739   0.669
  193SOL    HW1 1466   0.629   0.824   0.654
  193SOL    HW2 1467   0.519   0.733   0.602
  194SOL     OW 1468   1.764   0.362   1.643
  194SOL    HW1 1469   1.748   0.376   1.550
  194SOL    HW2 1470   1.686   0.318   1.675
  195SOL     OW 1471   1.744   0.933   1.513
  195SOL    HW1 1472   1.745   1.028   1.526
  195SOL    HW2 1473   1.729   0.923   1.419
  196SOL     OW 1474   0.899   1.357   0.064
  196SOL    HW1 1475   0.829   1.359   0.129
  196SOL    HW2 1476   0.891   1.440   0.016
  197SOL     OW 1477   0.660   1.793   0.948
  197SOL    HW1 1478   0.638   1.883   0.922
  197SOL    HW2 1479   0.755   1.788   0.938
  198SOL     OW 1480   0.867   0.966   0.855
  198SOL    HW1 1481   0.917   0.895   0.895
  198SOL    HW2 1482   0.833   1.016   0.929
  199SOL     OW 1483   1.080   0.990   0.086
  199SOL    HW1 1484   1.055   1.025   0.000
  199SOL    HW2 1485   1.156   0.934   0.069
  200SOL     OW 1486   1.856   1.552   0.842
  200SOL    HW1 1487   1.775   1.544   0.792
  200SOL    HW2 1488   1.846   1.491   0.914
  201SOL     OW 1489   0.229   1.306   1.857
  201SOL    HW1 1490   0.158   1.247   1.833
  201SOL    HW2 1491   0.222   1.316   1.952
  202SOL     OW 1492   0.101   1.234   0.667
  202SOL    HW1 1493   0.115   1.188   0.750
  202SOL    HW2 1494   0.166   1.197   0.608
  203SOL     OW 1495   0.681   1.401   1.627
  203SOL    HW1 1496   0.601   1.358   1.655
  203SOL    HW2 1497   0.675   1.489   1.664
  204SOL     OW 1498   1.810   0.183   1.239
  204SOL    HW1 1499   1.808   0.089   1.259
  204SOL    HW2 1500   1.825   0.186   1.144
  205SOL     OW 1501   0.438   0.431   0.529
  205SOL    HW1 1502   0.459   0.360   0.469
  205SOL    HW2 1503   0.382   0.391   0.595
  206SOL     OW 1504   1.703   1.488   1.095
  206SOL    HW1 1505   1.620   1.464   1.054
  206SOL    HW2 1506   1.716   1.422   1.163
  207SOL     OW 1507   0.312   0.504   1.256
  207SOL    HW1 1508   0.384   0.456   1.297
  207SOL    HW2 1509   0.339   0.514   1.164
  208SOL     OW 1510   0.826   1.578   0.679
  208SOL    HW1 1511   0.816   1.626   0.597
  208SOL    HW2 1512   0.748   1.522   0.683
  209SOL     OW 1513   1.432   0.216   1.118
  209SOL    HW1 1514   1.468   0.145   1.171
  209SOL    HW2 1515   1.381   0.269   1.179
  210SOL     OW 1516   0.996   0.012   1.149
  210SOL    HW1 1517   0.952   4.428   1.138
  210SOL    HW2 1518   1.089   4.489   1.161
  211SOL     OW 1519   0.767   1.328   0.314
  211SOL    HW1 1520   0.738   1.238   0.327
  211SOL    HW2 1521   0.852   1.332   0.358
  212SOL     OW 1522   0.621   1.557   1.285
  212SOL    HW1 1523   0.623   1.639   1.335
  212SOL    HW2 1524   0.708   1.550   1.246
  213SOL     OW 1525   1.348   0.059   0.169
  213SOL    HW1 1526   1.385   0.003   0.100
  213SOL    HW2 1527   1.269   0.013   0.197
  214SOL     OW 1528   1.315   0.463   0.680
  214SOL    HW1 1529   1.253   0.535   0.680
  214SOL    HW2 1530   1.302   0.420   0.764
  215SOL     OW 1531   1.587   0.202   0.868
  215SOL    HW1 1532   1.525   0.216   0.940
  215SOL    HW2 1533   1.589   0.285   0.821
  216SOL     OW 1534   0.039   1.049   0.283
  216SOL    HW1 1535   0.134   1.047   0.284
  216SOL    HW2 1536   0.012   1.015   0.368
  217SOL     OW 1537   0.884   1.652   0.347
  217SOL    HW1 1538   0.813   1.631   0.286
  217SOL    HW2 1539   0.852   1.726   0.398
  218SOL     OW 1540   0.247   0.626   1.982
  218SOL    HW1 1541   0.172   0.609   2.038
  218SOL    HW2 1542   0.214   0.611   1.893
  219SOL     OW 1543   0.195   0.293   2.851
  219SOL    HW1 1544   0.231   0.269   2.937
  219SOL    HW2 1545   0.132   0.224   2.832
  220SOL     OW 1546   0.005   0.379   2.504
  220SOL    HW1 1547   4.427   0.416   2.543
  220SOL    HW2 1548   4.473   0.307   2.448
  221SOL     OW 1549   0.567   1.284   3.036
  221SOL    HW1 1550   0.479   1.289   2.997
  221SOL    HW2 1551   0.583   1.372   3.071
  222SOL     OW 1552   1.558   1.510   2.569
  222SOL    HW1 1553   1.515   1.493   2.652
  222SOL    HW2 1554   1.487   1.516   2.505
  223SOL     OW 1555   1.133   0.699   2.562
  223SOL    HW1 1556   1.180   0.782   2.551
  223SOL    HW2 1557   1.083   0.711   2.643
  224SOL     OW 1558   1.765   0.608   2.091
  224SOL    HW1 1559   1.746   0.598   1.998
  224SOL    HW2 1560   1.733   0.527   2.131
  225SOL     OW 1561   0.757   1.143   2.901
  225SOL    HW1 1562   0.688   1.178   2.957
  225SOL    HW2 1563   0.792   1.221   2.856
  226SOL     OW 1564   0.864   0.777   3.683
  226SOL    HW1 1565   0.850   0.848   3.745
  226SOL    HW2 1566   0.887   0.821   3.601
  227SOL     OW 1567   0.686   1.006   2.510
  227SOL    HW1 1568   0.751   0.991   2.579
  227SOL    HW2 1569   0.616   1.056   2.553
  228SOL     OW 1570   0.709   1.151   3.673
  228SOL    HW1 1571   0.756   1.230   3.698
  228SOL    HW2 1572   0.626   1.182   3.638
  229SOL     OW 1573   0.336   1.423   2.932
  229SOL    HW1 1574   0.255   1.403   2.885
  229SOL    HW2 1575   0.386   1.477   2.871
  230SOL     OW 1576   1.461   1.499   3.213
  230SOL    HW1 1577   1.509   1.581   3.223
  230SOL    HW2 1578   1.404   1.495   3.290
  231SOL     OW 1579   0.437   0.395   3.354
  231SOL    HW1 1580   0.526   0.360   3.356
  231SOL    HW2 1581   0.381   0.320   3.372
  232SOL     OW 1582   1.612   0.447   2.600
  232SOL    HW1 1583   1.532   0.470   2.553
  232SOL    HW2 1584   1.632   0.525   2.653
  233SOL     OW 1585   0.245   1.692   2.340
  233SOL    HW1 1586   0.232   1.776   2.383
  233SOL    HW2 1587   0.310   1.709   2.273
  234SOL     OW 1588   1.136   1.341   3.554
  234SOL    HW1 1589   1.176   1.337   3.641
  234SOL    HW2 1590   1.083   1.261   3.548
  235SOL     OW 1591   0.246   1.427   2.390
  235SOL    HW1 1592   0.238   1.522   2.394
  235SOL    HW2 1593   0.182   1.395   2.453
  236SOL     OW 1594   0.245   1.081   2.745
  236SOL    HW1 1595   0.263   0.993   2.777
  236SOL    HW2 1596   0.187   1.119   2.811
  237SOL     OW 1597   0.615   1.791   3.294
  237SOL    HW1 1598   0.531   1.773   3.337
  237SOL    HW2 1599   0.636   1.881   3.318
  238SOL     OW 1600   0.582   0.985   1.998
  238SOL    HW1 1601   0.628   1.030   1.928
  238SOL    HW2 1602   0.627   1.013   2.078
  239SOL     OW 1603   1.583   0.115   3.334
  239SOL    HW1 1604   1.600   0.184   3.270
  239SOL    HW2 1605   1.574   0.161   3.418
  240SOL     OW 1606   0.136   0.642   2.436
  240SOL    HW1 1607   0.083   0.564   2.452
  240SOL    HW2 1608   0.107   0.704   2.504
  241SOL     OW 1609   1.839   1.735   2.201
  241SOL    HW1 1610   1.904   1.717   2.269
  241SOL    HW2 1611   1.844   1.829   2.187
  242SOL     OW 1612   0.033   1.601   2.000
  242SOL    HW1 1613   0.021   1.506   1.999
  242SOL    HW2 1614   0.015   1.627   2.090
  243SOL     OW 1615   1.691   0.920   2.501
  243SOL    HW1 1616   1.775   0.879   2.481
  243SOL    HW2 1617   1.668   0.969   2.422
  244SOL     OW 1618   1.645   1.108   2.291
  244SOL    HW1 1619   1.731   1.115   2.249
  244SOL    HW2 1620   1.650   1.168   2.365
  245SOL     OW 1621   0.106   0.762   3.447
  245SOL    HW1 1622   0.199   0.760   3.424
  245SOL    HW2 1623   0.086   0.855   3.460
  246SOL     OW 1624   0.613   1.383   2.598
  246SOL    HW1 1625   0.566   1.300   2.607
  246SOL    HW2 1626   0.597   1.410   2.507
  247SOL     OW 1627   1.290   1.238   3.286
  247SOL    HW1 1628   1.322   1.171   3.226
  247SOL    HW2 1629   1.346   1.231   3.363
  248SOL     OW 1630   0.818   0.012   2.411
  248SOL    HW1 1631   0.852   0.098   2.387
  248SOL    HW2 1632   0.724   0.020   2.400
  249SOL     OW 1633   0.181   0.942   3.141
  249SOL    HW1 1634   0.273   0.925   3.120
  249SOL    HW2 1635   0.133   0.923   3.061
  250SOL     OW 1636   1.532   0.992   2.059
  250SOL    HW1 1637   1.461   0.935   2.090
  250SOL    HW2 1638   1.572   1.026   2.139
  251SOL     OW 1639   1.186   1.805   3.483
  251SOL    HW1 1640   1.199   1.862   3.408
  251SOL    HW2 1641   1.200   1.717   3.449
  252SOL     OW 1642   0.318   0.260   3.633
  252SOL    HW1 1643   0.386   0.312   3.675
  252SOL    HW2 1644   0.242   0.268   3.691
  253SOL     OW 1645   1.465   1.419   2.814
  253SOL    HW1 1646   1.397   1.434   2.880
  253SOL    HW2 1647   1.453   1.328   2.788
  254SOL     OW 1648   1.662   1.731   2.442
  254SOL    HW1 1649   1.638   1.704   2.354
  254SOL    HW2 1650   1.634   1.658   2.498
  255SOL     OW 1651   0.596   0.723   2.127
  255SOL    HW1 1652   0.600   0.804   2.075
  255SOL    HW2 1653   0.530   0.741   2.194
  256SOL     OW 1654   1.291   0.360   2.796
  256SOL    HW1 1655   1.201   0.329   2.780
  256SOL    HW2 1656   1.327   0.297   2.858
  257SOL     OW 1657   1.575   1.668   2.170
  257SOL    HW1 1658   1.668   1.690   2.167
  257SOL    HW2 1659   1.551   1.652   2.079
  258SOL     OW 1660   0.797   0.617   3.316
  258SOL    HW1 1661   0.769   0.593   3.405
  258SOL    HW2 1662   0.752   0.554   3.259
  259SOL     OW 1663   1.388   0.478   3.538
  259SOL    HW1 1664   1.391   0.522   3.623
  259SOL    HW2 1665   1.456   0.410   3.544
  260SOL     OW 1666   0.957   0.888   3.443
  260SOL    HW1 1667   1.011   0.817   3.409
  260SOL    HW2 1668   0.910   0.922   3.367
  261SOL     OW 1669   0.997   0.417   3.099
  261SOL    HW1 1670   0.911   0.428   3.140
  261SOL    HW2 1671   0.979   0.365   3.020
  262SOL     OW 1672   1.049   0.698   2.289
  262SOL    HW1 1673   1.065   0.691   2.384
  262SOL    HW2 1674   0.967   0.651   2.275
  263SOL     OW 1675   0.098   0.824   2.645
  263SOL    HW1 1676   0.185   0.806   2.682
  263SOL    HW2 1677   0.049   0.864   2.717
  264SOL     OW 1678   0.123   1.856   3.438
  264SOL    HW1 1679   0.118   1.831   3.531
  264SOL    HW2 1680   0.045   1.817   3.398
  265SOL     OW 1681   0.853   0.368   2.040
  265SOL    HW1 1682   0.928   0.404   1.993
  265SOL    HW2 1683   0.871   0.274   2.047
  266SOL     OW 1684   1.705   0.574   3.690
  266SOL    HW1 1685   1.670   0.650   3.644
  266SOL    HW2 1686   1.740   0.519   3.621
  267SOL     OW 1687   1.376   1.143   2.404
  267SOL    HW1 1688   1.454   1.129   2.350
  267SOL    HW2 1689   1.323   1.205   2.353
  268SOL     OW 1690   0.543   0.203   2.763
  268SOL    HW1 1691   0.562   0.222   2.855
  268SOL    HW2 1692   0.533   0.289   2.722
  269SOL     OW 1693   1.007   1.445   2.335
  269SOL    HW1 1694   0.968   1.517   2.286
  269SOL    HW2 1695   0.992   1.467   2.427
  270SOL     OW 1696   0.355   1.809   2.719
  270SOL    HW1 1697   0.398   1.724   2.729
  270SOL    HW2 1698   0.425   1.872   2.734
  271SOL     OW 1699   1.798   1.059   2.729
  271SOL    HW1 1700   1.742   1.041   2.653
  271SOL    HW2 1701   1.738   1.064   2.803
  272SOL     OW 1702   1.228   1.539   3.375
  272SOL    HW1 1703   1.214   1.466   3.435
  272SOL    HW2 1704   1.167   1.524   3.303
  273SOL     OW 1705   0.317   0.954   2.113
  273SOL    HW1 1706   0.401   0.977   2.074
  273SOL    HW2 1707   0.300   0.865   2.084
  274SOL     OW 1708   1.478   0.740   2.587
  274SOL    HW1 1709   1.465   0.695   2.671
  274SOL    HW2 1710   1.554   0.796   2.602
  275SOL     OW 1711   0.466   1.262   3.597
  275SOL    HW1 1712   0.439   1.268   3.506
  275SOL    HW2 1713   0.385   1.267   3.647
  276SOL     OW 1714   1.121   1.778   2.093
  276SOL    HW1 1715   1.049   1.735   2.140
  276SOL    HW2 1716   1.143   1.717   2.022
  277SOL     OW 1717   0.165   0.264   3.371
  277SOL    HW1 1718   0.136   0.351   3.344
  277SOL    HW2 1719   0.198   0.276   3.460
  278SOL     OW 1720   1.629   1.379   1.950
  278SOL    HW1 1721   1.588   1.464   1.933
  278SOL    HW2 1722   1.560   1.316   1.930
  279SOL     OW 1723   0.469   1.743   2.176
  279SOL    HW1 1724   0.509   1.796   2.245
  279SOL    HW2 1725   0.543   1.711   2.125
  280SOL     OW 1726   1.418   0.134   2.280
  280SOL    HW1 1727   1.401   0.086   2.199
  280SOL    HW2 1728   1.513   0.131   2.291
  281SOL     OW 1729   0.257   1.790   3.097
  281SOL    HW1 1730   0.305   1.717   3.135
  281SOL    HW2 1731   0.228   1.759   3.012
  282SOL     OW 1732   0.938   1.698   2.762
  282SOL    HW1 1733   1.015   1.646   2.783
  282SOL    HW2 1734   0.893   1.649   2.693
  283SOL     OW 1735   0.393   0.694   2.335
  283SOL    HW1 1736   0.418   0.602   2.347
  283SOL    HW2 1737   0.301   0.697   2.362
  284SOL     OW 1738   1.526   0.233   3.584
  284SOL    HW1 1739   1.525   0.256   3.677
  284SOL    HW2 1740   1.450   0.176   3.573
  285SOL     OW 1741   0.623   0.122   1.979
  285SOL    HW1 1742   0.711   0.087   1.991
  285SOL    HW2 1743   0.594   0.085   1.896
  286SOL     OW 1744   0.768   0.269   3.615
  286SOL    HW1 1745   0.835   0.201   3.628
  286SOL    HW2 1746   0.726   0.278   3.701
  287SOL     OW 1747   0.877   1.521   3.055
  287SOL    HW1 1748   0.862   1.485   2.968
  287SOL    HW2 1749   0.946   1.466   3.092
  288SOL     OW 1750   1.342   0.589   3.291
  288SOL    HW1 1751   1.370   0.560   3.378
  288SOL    HW2 1752   1.376   0.678   3.284
  289SOL     OW 1753   0.814   1.397   2.799
  289SOL    HW1 1754   0.898   1.386   2.755
  289SOL    HW2 1755   0.749   1.396   2.729
  290SOL     OW 1756   0.922   0.516   2.763
  290SOL    HW1 1757   0.906   0.515   2.669
  290SOL    HW2 1758   0.962   0.431   2.782
  291SOL     OW 1759   0.560   0.068   2.371
  291SOL    HW1 1760   0.472   0.054   2.408
  291SOL    HW2 1761   0.548   0.139   2.308
  292SOL     OW 1762   1.428   1.198   1.903
  292SOL    HW1 1763   1.459   1.122   1.953
  292SOL    HW2 1764   1.343   1.218   1.940
  293SOL     OW 1765   0.303   0.075   2.048
  293SOL    HW1 1766   0.387   0.122   2.044
  293SOL    HW2 1767   0.320   4.499   2.103
  294SOL     OW 1768   0.951   0.241   2.333
  294SOL    HW1 1769   0.899   0.292   2.271
  294SOL    HW2 1770   1.040   0.276   2.325
  295SOL     OW 1771   1.080   0.680   3.323
  295SOL    HW1 1772   1.009   0.616   3.324
  295SOL    HW2 1773   1.159   0.628   3.311
  296SOL     OW 1774   1.225   1.569   2.656
  296SOL    HW1 1775   1.242   1.637   2.590
  296SOL    HW2 1776   1.292   1.582   2.722
  297SOL     OW 1777   0.465   1.148   2.599
  297SOL    HW1 1778   0.394   1.129   2.660
  297SOL    HW2 1779   0.428   1.132   2.512
  298SOL     OW 1780   1.270   1.795   2.468
  298SOL    HW1 1781   1.315   1.856   2.410
  298SOL    HW2 1782   1.206   1.848   2.514
  299SOL     OW 1783   1.030   0.549   1.878
  299SOL    HW1 1784   0.982   0.630   1.862
  299SOL    HW2 1785   1.089   0.569   1.950
  300SOL     OW 1786   0.092   0.521   3.274
  300SOL    HW1 1787   0.152   0.531   3.200
  300SOL    HW2 1788   0.061   0.610   3.291
  301SOL     OW 1789   0.563   0.243   3.028
  301SOL    HW1 1790   0.593   0.159   3.061
  301SOL    HW2 1791   0.469   0.244   3.047
  302SOL     OW 1792   0.866   0.502   2.488
  302SOL    HW1 1793   0.817   0.544   2.417
  302SOL    HW2 1794   0.842   0.410   2.482
  303SOL     OW 1795   0.967   0.029   2.641
  303SOL    HW1 1796   0.918   0.026   2.558
  303SOL    HW2 1797   0.979   4.437   2.665
  304SOL     OW 1798   1.436   1.163   2.720
  304SOL    HW1 1799   1.368   1.096   2.718
  304SOL    HW2 1800   1.459   1.176   2.627
  305SOL     OW 1801   1.467   0.603   2.839
  305SOL    HW1 1802   1.415   0.523   2.842
  305SOL    HW2 1803   1.525   0.597   2.915
  306SOL     OW 1804   1.847   0.818   2.244
  306SOL    HW1 1805   1.903   0.766   2.302
  306SOL    HW2 1806   1.818   0.756   2.177
  307SOL     OW 1807   0.492   1.415   2.023
  307SOL    HW1 1808   0.415   1.386   2.072
  307SOL    HW2 1809   0.472   1.392   1.932
  308SOL     OW 1810   1.670   1.265   2.509
  308SOL    HW1 1811   1.764   1.271   2.522
  308SOL    HW2 1812   1.637   1.352   2.531
  309SOL     OW 1813   1.394   0.570   1.932
  309SOL    HW1 1814   1.333   0.554   2.004
  309SOL    HW2 1815   1.480   0.550   1.968
  310SOL     OW 1816   0.523   0.264   2.184
  310SOL    HW1 1817   0.569   0.214   2.117
  310SOL    HW2 1818   0.508   0.350   2.143
  311SOL     OW 1819   1.754   1.237   3.439
  311SOL    HW1 1820   1.841   1.198   3.433
  311SOL    HW2 1821   1.769   1.328   3.465
  312SOL     OW 1822   1.060   1.354   3.197
  312SOL    HW1 1823   0.985   1.322   3.247
  312SOL    HW2 1824   1.136   1.312   3.237
  313SOL     OW 1825   1.608   1.625   3.513
  313SOL    HW1 1826   1.603   1.660   3.424
  313SOL    HW2 1827   1.691   1.578   3.517
  314SOL     OW 1828   1.127   1.202   2.969
  314SOL    HW1 1829   1.068   1.240   3.034
  314SOL    HW2 1830   1.093   1.233   2.885
  315SOL     OW 1831   1.630   1.099   2.940
  315SOL    HW1 1832   1.626   1.161   3.013
  315SOL    HW2 1833   1.550   1.115   2.890
  316SOL     OW 1834   0.903   0.132   3.251
  316SOL    HW1 1835   0.925   0.087   3.169
  316SOL    HW2 1836   0.987   0.145   3.295
  317SOL     OW 1837   0.984   1.114   3.585
  317SOL    HW1 1838   0.892   1.130   3.605
  317SOL    HW2 1839   0.984   1.037   3.528
  318SOL     OW 1840   0.708   1.060   2.234
  318SOL    HW1 1841   0.696   1.046   2.328
  318SOL    HW2 1842   0.784   1.007   2.212
  319SOL     OW 1843   0.429   0.824   3.102
  319SOL    HW1 1844   0.497   0.834   3.168
  319SOL    HW2 1845   0.370   0.758   3.138
  320SOL     OW 1846   1.269   0.376   3.134
  320SOL    HW1 1847   1.301   0.455   3.179
  320SOL    HW2 1848   1.180   0.399   3.107
  321SOL     OW 1849   0.062   1.576   3.203
  321SOL    HW1 1850   0.035   1.664   3.178
  321SOL    HW2 1851   0.157   1.581   3.209
  322SOL     OW 1852   0.349   1.107   2.355
  322SOL    HW1 1853   0.358   1.181   2.295
  322SOL    HW2 1854   0.351   1.030   2.300
  323SOL     OW 1855   0.564   0.528   2.716
  323SOL    HW1 1856   0.576   0.589   2.643
  323SOL    HW2 1857   0.623   0.561   2.784
  324SOL     OW 1858   1.248   1.348   2.251
  324SOL    HW1 1859   1.303   1.420   2.282
  324SOL    HW2 1860   1.161   1.369   2.285
  325SOL     OW 1861   1.278   1.456   3.008
  325SOL    HW1 1862   1.334   1.459   3.086
  325SOL    HW2 1863   1.223   1.379   3.020
  326SOL     OW 1864   1.583   0.624   2.338
  326SOL    HW1 1865   1.537   0.676   2.404
  326SOL    HW2 1866   1.627   0.689   2.283
  327SOL     OW 1867   0.348   1.530   3.179
  327SOL    HW1 1868   0.333   1.483   3.096
  327SOL    HW2 1869   0.443   1.540   3.184
  328SOL     OW 1870   0.481   0.761   3.529
  328SOL    HW1 1871   0.506   0.799   3.445
  328SOL    HW2 1872   0.516   0.672   3.525
  329SOL     OW 1873   1.598   0.777   3.541
  329SOL    HW1 1874   1.513   0.819   3.534
  329SOL    HW2 1875   1.651   0.819   3.474
  330SOL     OW 1876   1.006   0.086   3.585
  330SOL    HW1 1877   1.032   0.170   3.547
  330SOL    HW2 1878   1.032   0.021   3.520
  331SOL     OW 1879   0.496   0.045   3.612
  331SOL    HW1 1880   0.479   4.497   3.531
  331SOL    HW2 1881   0.429   0.114   3.614
  332SOL     OW 1882   0.588   0.874   2.886
  332SOL    HW1 1883   0.618   0.965   2.888
  332SOL    HW2 1884   0.532   0.865   2.963
  333SOL     OW 1885   1.360   0.858   2.894
  333SOL    HW1 1886   1.277   0.851   2.845
  333SOL    HW2 1887   1.398   0.771   2.889
  334SOL     OW 1888   1.206   0.535   2.127
  334SOL    HW1 1889   1.211   0.454   2.178
  334SOL    HW2 1890   1.163   0.597   2.185
  335SOL     OW 1891   0.285   0.219   3.096
  335SOL    HW1 1892   0.247   0.235   3.183
  335SOL    HW2 1893   0.323   0.131   3.103
  336SOL     OW 1894   0.044   1.313   3.147
  336SOL    HW1 1895   0.077   1.266   3.223
  336SOL    HW2 1896   0.047   1.405   3.172
  337SOL     OW 1897   0.725   0.632   2.921
  337SOL    HW1 1898   0.798   0.611   2.864
  337SOL    HW2 1899   0.699   0.720   2.897
  338SOL     OW 1900   1.734   0.959   3.713
  338SOL    HW1 1901   1.685   0.902   3.653
  338SOL    HW2 1902   1.675   0.971   3.788
  339SOL     OW 1903   0.319   0.075   2.493
  339SOL    HW1 1904   0.301   0.163   2.526
  339SOL    HW2 1905   0.306   0.018   2.569
  340SOL     OW 1906   1.612   0.376   2.227
  340SOL    HW1 1907   1.643   0.313   2.293
  340SOL    HW2 1908   1.590   0.454   2.277
  341SOL     OW 1909   1.028   0.761   2.824
  341SOL    HW1 1910   1.026   0.777   2.918
  341SOL    HW2 1911   0.999   0.670   2.815
  342SOL     OW 1912   0.983   1.567   3.577
  342SOL    HW1 1913   0.967   1.610   3.494
  342SOL    HW2 1914   1.025   1.484   3.554
  343SOL     OW 1915   1.856   1.505   3.467
  343SOL    HW1 1916   1.870   1.534   3.377
  343SOL    HW2 1917   1.936   1.528   3.513
  344SOL     OW 1918   0.347   0.932   3.680
  344SOL    HW1 1919   0.420   0.961   3.735
  344SOL    HW2 1920   0.385   0.866   3.622
  345SOL     OW 1921   1.532   0.266   1.990
  345SOL    HW1 1922   1.459   0.210   2.018
  345SOL    HW2 1923   1.560   0.311   2.070
  346SOL     OW 1924   1.293   0.827   1.894
  346SOL    HW1 1925   1.335   0.741   1.896
  346SOL    HW2 1926   1.324   0.866   1.812
  347SOL     OW 1927   1.065   1.335   2.715
  347SOL    HW1 1928   1.068   1.262   2.653
  347SOL    HW2 1929   1.128   1.399   2.680
  348SOL     OW 1930   0.318   0.813   2.811
  348SOL    HW1 1931   0.412   0.830   2.807
  348SOL    HW2 1932   0.311   0.722   2.841
  349SOL     OW 1933   0.336   0.528   2.854
  349SOL    HW1 1934   0.291   0.446   2.835
  349SOL    HW2 1935   0.413   0.527   2.798
  350SOL     OW 1936   1.135   0.374   3.556
  350SOL    HW1 1937   1.087   0.439   3.608
  350SOL    HW2 1938   1.221   0.414   3.543
  351SOL     OW 1939   1.159   0.212   3.335
  351SOL    HW1 1940   1.152   0.276   3.406
  351SOL    HW2 1941   1.196   0.261   3.262
  352SOL     OW 1942   4.492   1.323   2.065
  352SOL    HW1 1943   4.399   1.338   2.047
  352SOL    HW2 1944   4.497   1.230   2.088
  353SOL     OW 1945   0.096   1.779   2.802
  353SOL    HW1 1946   0.058   1.722   2.735
  353SOL    HW2 1947   0.183   1.799   2.769
  354SOL     OW 1948   0.498   1.573   2.768
  354SOL    HW1 1949   0.566   1.636   2.792
  354SOL    HW2 1950   0.542   1.509   2.713
  355SOL     OW 1951   0.987   0.794   3.090
  355SOL    HW1 1952   1.040   0.770   3.165
  355SOL    HW2 1953   0.901   0.757   3.109
  356SOL     OW 1954   0.039   0.567   2.973
  356SOL    HW1 1955   0.114   0.523   2.932
  356SOL    HW2 1956   0.021   0.515   3.051
  357SOL     OW 1957   0.180   0.520   3.573
  357SOL    HW1 1958   0.266   0.503   3.535
  357SOL    HW2 1959   0.151   0.601   3.531
  358SOL     OW 1960   1.377   0.940   3.521
  358SOL    HW1 1961   1.397   1.034   3.520
  358SOL    HW2 1962   1.374   0.916   3.429
  359SOL     OW 1963   0.812   0.573   2.216
  359SOL    HW1 1964   0.814   0.501   2.152
  359SOL    HW2 1965   0.738   0.627   2.187
  360SOL     OW 1966   1.641   0.601   3.050
  360SOL    HW1 1967   1.631   0.542   3.124
  360SOL    HW2 1968   1.728   0.581   3.016
  361SOL     OW 1969   0.271   1.562   3.603
  361SOL    HW1 1970   0.217   1.614   3.662
  361SOL    HW2 1971   0.252   1.471   3.626
  362SOL     OW 1972   0.684   0.464   3.129
  362SOL    HW1 1973   0.647   0.383   3.093
  362SOL    HW2 1974   0.692   0.523   3.054
  363SOL     OW 1975   0.929   1.679   3.329
  363SOL    HW1 1976   0.903   1.646   3.243
  363SOL    HW2 1977   0.927   1.774   3.320
  364SOL     OW 1978   0.473   0.491   2.047
  364SOL    HW1 1979   0.532   0.562   2.069
  364SOL    HW2 1980   0.388   0.533   2.032
  365SOL     OW 1981   0.162   1.141   3.324
  365SOL    HW1 1982   0.147   1.094   3.407
  365SOL    HW2 1983   0.170   1.072   3.259
  366SOL     OW 1984   1.328   1.048   3.086
  366SOL    HW1 1985   1.351   0.985   3.018
  366SOL    HW2 1986   1.256   1.099   3.048
  367SOL     OW 1987   1.310   0.856   2.169
  367SOL    HW1 1988   1.234   0.827   2.219
  367SOL    HW2 1989   1.285   0.843   2.077
  368SOL     OW 1990   1.762   1.745   3.010
  368SOL    HW1 1991   1.828   1.774   2.947
  368SOL    HW2 1992   1.746   1.653   2.987
  369SOL     OW 1993   1.241   1.733   2.977
  369SOL    HW1 1994   1.323   1.752   2.932
  369SOL    HW2 1995   1.246   1.639   2.995
  370SOL     OW 1996   0.067   1.187   2.911
  370SOL    HW1 1997   0.070   1.220   3.000
  370SOL    HW2 1998   0.016   1.251   2.863
  371SOL     OW 1999   0.679   1.665   3.589
  371SOL    HW1 2000   0.625   1.743   3.584
  371SOL    HW2 2001   0.741   1.674   3.517
  372SOL     OW 2002   1.718   0.130   2.358
  372SOL    HW1 2003   1.791   0.136   2.296
  372SOL    HW2 2004   1.741   0.056   2.414
  373SOL     OW 2005   1.389   1.568   2.346
  373SOL    HW1 2006   1.449   1.599   2.278
  373SOL    HW2 2007   1.341   1.645   2.374
  374SOL     OW 2008   0.119   1.808   3.710
  374SOL    HW1 2009   0.080   1.734   3.757
  374SOL    HW2 2010   0.183   1.844   3.771
  375SOL     OW 2011   1.278   0.926   2.534
  375SOL    HW1 2012   1.351   0.864   2.538
  375SOL    HW2 2013   1.312   0.999   2.482
  376SOL     OW 2014   0.817   1.273   3.293
  376SOL    HW1 2015   0.790   1.311   3.376
  376SOL    HW2 2016   0.746   1.295   3.232
  377SOL     OW 2017   0.673   1.618   2.017
  377SOL    HW1 2018   0.682   1.629   1.923
  377SOL    HW2 2019   0.619   1.539   2.027
  378SOL     OW 2020   1.628   1.726   3.253
  378SOL    HW1 2021   1.677   1.733   3.171
  378SOL    HW2 2022   1.616   1.816   3.282
  379SOL     OW 2023   1.839   0.155   2.828
  379SOL    HW1 2024   1.868   0.078   2.779
  379SOL    HW2 2025   1.752   0.175   2.793
  380SOL     OW 2026   0.265   0.325   2.586
  380SOL    HW1 2027   0.183   0.360   2.552
  380SOL    HW2 2028   0.250   0.317   2.680
  381SOL     OW 2029   1.206   1.607   1.893
  381SOL    HW1 2030   1.198   1.516   1.920
  381SOL    HW2 2031   1.141   1.618   1.824
  382SOL     OW 2032   0.825   1.006   3.234
  382SOL    HW1 2033   0.868   1.003   3.148
  382SOL    HW2 2034   0.825   1.099   3.257
  383SOL     OW 2035   0.915   0.910   2.151
  383SOL    HW1 2036   0.977   0.942   2.086
  383SOL    HW2 2037   0.962   0.840   2.197
  384SOL     OW 2038   1.494   1.625   1.903
  384SOL    HW1 2039   1.399   1.620   1.891
  384SOL    HW2 2040   1.529   1.630   1.815
  385SOL     OW 2041   0.373   1.306   3.353
  385SOL    HW1 2042   0.356   1.384   3.301
  385SOL    HW2 2043   0.297   1.249   3.336
  386SOL     OW 2044   1.611   1.283   3.142
  386SOL    HW1 2045   1.672   1.276   3.215
  386SOL    HW2 2046   1.551   1.353   3.168
  387SOL     OW 2047   1.050   1.106   2.567
  387SOL    HW1 2048   0.979   1.055   2.607
  387SOL    HW2 2049   1.111   1.040   2.535
  388SOL     OW 2050   1.006   0.242   2.863
  388SOL    HW1 2051   1.012   0.216   2.771
  388SOL    HW2 2052   1.000   0.159   2.911
  389SOL     OW 2053   0.603   1.489   2.345
  389SOL    HW1 2054   0.643   1.439   2.274
  389SOL    HW2 2055   0.532   1.537   2.303
  390SOL     OW 2056   1.720   0.393   3.240
  390SOL    HW1 2057   1.792   0.456   3.239
  390SOL    HW2 2058   1.750   0.322   3.183
  391SOL     OW 2059   0.252   1.345   2.139
  391SOL    HW1 2060   0.157   1.345   2.124
  391SOL    HW2 2061   0.263   1.377   2.228
  392SOL     OW 2062   0.116   1.007   3.558
  392SOL    HW1 2063   0.052   1.048   3.616
  392SOL    HW2 2064   0.194   0.996   3.612
  393SOL     OW 2065   0.659   0.208   3.358
  393SOL    HW1 2066   0.738   0.181   3.312
  393SOL    HW2 2067   0.687   0.223   3.448
  394SOL     OW 2068   0.071   0.320   1.888
  394SOL    HW1 2069   4.476   0.329   1.900
  394SOL    HW2 2070   0.099   0.407   1.857
  395SOL     OW 2071   1.431   0.858   3.263
  395SOL    HW1 2072   1.382   0.918   3.206
  395SOL    HW2 2073   1.521   0.861   3.230
  396SOL     OW 2074   0.084   0.188   2.165
  396SOL    HW1 2075   0.078   0.260   2.102
  396SOL    HW2 2076   0.163   0.140   2.139
  397SOL     OW 2077   1.180   1.341   1.979
  397SOL    HW1 2078   1.089   1.311   1.982
  397SOL    HW2 2079   1.208   1.340   2.070
  398SOL     OW 2080   0.622   0.830   3.290
  398SOL    HW1 2081   0.676   0.908   3.278
  398SOL    HW2 2082   0.684   0.759   3.300
  399SOL     OW 2083   1.486   1.775   2.838
  399SOL    HW1 2084   1.509   1.836   2.769
  399SOL    HW2 2085   1.567   1.761   2.887
  400SOL     OW 2086   0.715   0.561   3.567
  400SOL    HW1 2087   0.748   0.629   3.626
  400SOL    HW2 2088   0.753   0.480   3.599
  401SOL     OW 2089   1.470   1.202   3.495
  401SOL    HW1 2090   1.458   1.215   3.589
  401SOL    HW2 2091   1.564   1.215   3.480
  402SOL     OW 2092   0.381   1.743   3.426
  402SOL    HW1 2093   0.296   1.783   3.409
  402SOL    HW2 2094   0.361   1.662   3.473
  403SOL     OW 2095   1.671   0.882   3.117
  403SOL    HW1 2096   1.662   0.797   3.074
  403SOL    HW2 2097   1.662   0.946   3.047
  404SOL     OW 2098   1.218   0.328   2.310
  404SOL    HW1 2099   1.283   0.259   2.300
  404SOL    HW2 2100   1.245   0.376   2.389
  405SOL     OW 2101   0.588   0.739   2.531
  405SOL    HW1 2102   0.629   0.824   2.515
  405SOL    HW2 2103   0.519   0.732   2.465
  406SOL     OW 2104   1.764   0.362   3.505
  406SOL    HW1 2105   1.748   0.376   3.412
  406SOL    HW2 2106   1.685   0.318   3.537
  407SOL     OW 2107   1.743   0.933   3.375
  407SOL    HW1 2108   1.745   1.028   3.388
  407SOL    HW2 2109   1.729   0.923   3.281
  408SOL     OW 2110   0.863   1.368   1.894
  408SOL    HW1 2111   0.824   1.395   1.977
  408SOL    HW2 2112   0.881   1.450   1.848
  409SOL     OW 2113   0.660   1.793   2.809
  409SOL    HW1 2114   0.639   1.883   2.784
  409SOL    HW2 2115   0.755   1.788   2.800
  410SOL     OW 2116   0.867   0.966   2.717
  410SOL    HW1 2117   0.917   0.895   2.757
  410SOL    HW2 2118   0.833   1.016   2.792
  411SOL     OW 2119   1.080   0.988   1.951
  411SOL    HW1 2120   1.057   1.038   1.873
  411SOL    HW2 2121   1.155   0.935   1.925
  412SOL     OW 2122   1.856   1.549   2.702
  412SOL    HW1 2123   1.774   1.542   2.653
  412SOL    HW2 2124   1.845   1.489   2.776
  413SOL     OW 2125   0.229   1.306   3.719
  413SOL    HW1 2126   0.158   1.247   3.695
  413SOL    HW2 2127   0.221   1.316   3.814
  414SOL     OW 2128   0.103   1.237   2.529
  414SOL    HW1 2129   0.112   1.188   2.611
  414SOL    HW2 2130   0.164   1.194   2.469
  415SOL     OW 2131   0.681   1.401   3.489
  415SOL    HW1 2132   0.601   1.357   3.517
  415SOL    HW2 2133   0.675   1.489   3.526
  416SOL     OW 2134   1.810   0.183   3.101
  416SOL    HW1 2135   1.808   0.089   3.122
  416SOL    HW2 2136   1.825   0.186   3.006
  417SOL     OW 2137   0.439   0.431   2.392
  417SOL    HW1 2138   0.458   0.361   2.330
  417SOL    HW2 2139   0.381   0.391   2.457
  418SOL     OW 2140   1.704   1.487   2.956
  418SOL    HW1 2141   1.620   1.464   2.916
  418SOL    HW2 2142   1.717   1.422   3.024
  419SOL     OW 2143   0.313   0.505   3.118
  419SOL    HW1 2144   0.384   0.456   3.158
  419SOL    HW2 2145   0.338   0.514   3.026
  420SOL     OW 2146   0.826   1.578   2.541
  420SOL    HW1 2147   0.817   1.627   2.459
  420SOL    HW2 2148   0.748   1.522   2.544
  421SOL     OW 2149   1.432   0.215   2.980
  421SOL    HW1 2150   1.468   0.145   3.034
  421SOL    HW2 2151   1.381   0.269   3.041
  422SOL     OW 2152   0.997   0.010   3.012
  422SOL    HW1 2153   0.952   4.426   3.001
  422SOL    HW2 2154   1.089   4.487   3.023
  423SOL     OW 2155   0.772   1.332   2.174
  423SOL    HW1 2156   0.739   1.242   2.180
  423SOL    HW2 2157   0.854   1.332   2.223
  424SOL     OW 2158   0.621   1.557   3.147
  424SOL    HW1 2159   0.623   1.639   3.197
  424SOL    HW2 2160   0.708   1.550   3.108
  425SOL     OW 2161   1.341   0.053   2.014
  425SOL    HW1 2162   1.381   4.478   1.970
  425SOL    HW2 2163   1.266   0.017   2.061
  426SOL     OW 2164   1.314   0.462   2.541
  426SOL    HW1 2165   1.253   0.536   2.541
  426SOL    HW2 2166   1.302   0.421   2.626
  427SOL     OW 2167   1.586   0.202   2.730
  427SOL    HW1 2168   1.525   0.216   2.802
  427SOL    HW2 2169   1.588   0.285   2.683
  428SOL     OW 2170   0.041   1.053   2.149
  428SOL    HW1 2171   0.136   1.039   2.141
  428SOL    HW2 2172   0.019   1.016   2.235
  429SOL     OW 2173   0.883   1.651   2.206
  429SOL    HW1 2174   0.811   1.633   2.145
  429SOL    HW2 2175   0.853   1.726   2.256
  430SOL     OW 2176   0.247   0.626   3.844
  430SOL    HW1 2177   0.172   0.609   3.900
  430SOL    HW2 2178   0.214   0.612   3.755
  431SOL     OW 2179   0.195   0.293   4.714
  431SOL    HW1 2180   0.231   0.269   4.799
  431SOL    HW2 2181   0.132   0.224   4.694
  432SOL     OW 2182   0.005   0.379   4.366
  432SOL    HW1 2183   4.427   0.416   4.405
  432SOL    HW2 2184   4.473   0.307   4.310
  433SOL     OW 2185   0.567   1.284   4.897
  433SOL    HW1 2186   0.480   1.288   4.859
  433SOL    HW2 2187   0.582   1.372   4.933
  434SOL     OW 2188   1.551   1.511   4.421
  434SOL    HW1 2189   1.511   1.486   4.504
  434SOL    HW2 2190   1.478   1.512   4.359
  435SOL     OW 2191   1.133   0.699   4.424
  435SOL    HW1 2192   1.180   0.782   4.413
  435SOL    HW2 2193   1.083   0.711   4.505
  436SOL     OW 2194   1.765   0.608   3.953
  436SOL    HW1 2195   1.746   0.597   3.860
  436SOL    HW2 2196   1.733   0.527   3.993
  437SOL     OW 2197   0.758   1.144   4.764
  437SOL    HW1 2198   0.688   1.178   4.819
  437SOL    HW2 2199   0.792   1.221   4.718
  438SOL     OW 2200   0.864   0.777   5.545
  438SOL    HW1 2201   0.849   0.848   5.607
  438SOL    HW2 2202   0.887   0.821   5.463
  439SOL     OW 2203   0.686   1.006   4.372
  439SOL    HW1 2204   0.750   0.992   4.441
  439SOL    HW2 2205   0.616   1.056   4.415
  440SOL     OW 2206   0.710   1.151   5.535
  440SOL    HW1 2207   0.756   1.231   5.560
  440SOL    HW2 2208   0.626   1.182   5.500
  441SOL     OW 2209   0.336   1.423   4.794
  441SOL    HW1 2210   0.255   1.403   4.747
  441SOL    HW2 2211   0.386   1.477   4.733
  442SOL     OW 2212   1.466   1.501   5.083
  442SOL    HW1 2213   1.469   1.597   5.081
  442SOL    HW2 2214   1.406   1.481   5.155
  443SOL     OW 2215   0.437   0.395   5.216
  443SOL    HW1 2216   0.526   0.359   5.218
  443SOL    HW2 2217   0.381   0.320   5.234
  444SOL     OW 2218   1.612   0.447   4.462
  444SOL    HW1 2219   1.532   0.470   4.415
  444SOL    HW2 2220   1.633   0.525   4.513
  445SOL     OW 2221   0.245   1.692   4.202
  445SOL    HW1 2222   0.231   1.777   4.245
  445SOL    HW2 2223   0.310   1.709   4.134
  446SOL     OW 2224   1.137   1.341   5.414
  446SOL    HW1 2225   1.175   1.338   5.502
  446SOL    HW2 2226   1.083   1.262   5.409
  447SOL     OW 2227   0.247   1.427   4.252
  447SOL    HW1 2228   0.238   1.522   4.256
  447SOL    HW2 2229   0.182   1.395   4.315
  448SOL     OW 2230   0.246   1.081   4.607
  448SOL    HW1 2231   0.263   0.993   4.639
  448SOL    HW2 2232   0.188   1.119   4.673
  449SOL     OW 2233   0.616   1.790   5.157
  449SOL    HW1 2234   0.532   1.773   5.199
  449SOL    HW2 2235   0.636   1.881   5.180
  450SOL     OW 2236   0.582   0.985   3.860
  450SOL    HW1 2237   0.628   1.030   3.790
  450SOL    HW2 2238   0.627   1.013   3.940
  451SOL     OW 2239   1.583   0.115   5.197
  451SOL    HW1 2240   1.600   0.183   5.132
  451SOL    HW2 2241   1.573   0.162   5.279
  452SOL     OW 2242   0.136   0.642   4.299
  452SOL    HW1 2243   0.083   0.564   4.314
  452SOL    HW2 2244   0.107   0.704   4.366
  453SOL     OW 2245   1.844   1.775   4.055
  453SOL    HW1 2246   1.892   1.734   4.127
  453SOL    HW2 2247   1.901   1.845   4.024
  454SOL     OW 2248   0.033   1.601   3.862
  454SOL    HW1 2249   0.021   1.506   3.861
  454SOL    HW2 2250   0.015   1.627   3.952
  455SOL     OW 2251   1.688   0.917   4.361
  455SOL    HW1 2252   1.775   0.881   4.345
  455SOL    HW2 2253   1.669   0.970   4.283
  456SOL     OW 2254   1.646   1.110   4.155
  456SOL    HW1 2255   1.732   1.116   4.112
  456SOL    HW2 2256   1.652   1.170   4.229
  457SOL     OW 2257   0.105   0.762   5.309
  457SOL    HW1 2258   0.199   0.760   5.287
  457SOL    HW2 2259   0.086   0.855   5.322
  458SOL     OW 2260   0.613   1.383   4.460
  458SOL    HW1 2261   0.566   1.300   4.469
  458SOL    HW2 2262   0.597   1.410   4.370
  459SOL     OW 2263   1.293   1.243   5.145
  459SOL    HW1 2264   1.323   1.173   5.087
  459SOL    HW2 2265   1.346   1.232   5.224
  460SOL     OW 2266   0.819   0.012   4.273
  460SOL    HW1 2267   0.852   0.098   4.249
  460SOL    HW2 2268   0.724   0.020   4.262
  461SOL     OW 2269   0.181   0.942   5.004
  461SOL    HW1 2270   0.273   0.925   4.981
  461SOL    HW2 2271   0.133   0.923   4.923
  462SOL     OW 2272   1.532   0.992   3.922
  462SOL    HW1 2273   1.462   0.935   3.953
  462SOL    HW2 2274   1.572   1.026   4.001
  463SOL     OW 2275   1.179   1.802   5.343
  463SOL    HW1 2276   1.200   1.861   5.270
  463SOL    HW2 2277   1.199   1.715   5.309
  464SOL     OW 2278   0.318   0.260   5.495
  464SOL    HW1 2279   0.386   0.312   5.537
  464SOL    HW2 2280   0.242   0.268   5.553
  465SOL     OW 2281   1.455   1.426   4.669
  465SOL    HW1 2282   1.392   1.434   4.741
  465SOL    HW2 2283   1.452   1.334   4.644
  466SOL     OW 2284   1.652   1.723   4.273
  466SOL    HW1 2285   1.625   1.695   4.185
  466SOL    HW2 2286   1.631   1.649   4.330
  467SOL     OW 2287   0.596   0.723   3.989
  467SOL    HW1 2288   0.600   0.804   3.937
  467SOL    HW2 2289   0.530   0.741   4.056
  468SOL     OW 2290   1.290   0.360   4.658
  468SOL    HW1 2291   1.201   0.329   4.642
  468SOL    HW2 2292   1.327   0.297   4.720
  469SOL     OW 2293   1.579   1.665   4.020
  469SOL    HW1 2294   1.666   1.704   4.011
  469SOL    HW2 2295   1.551   1.648   3.931
  470SOL     OW 2296   0.797   0.618   5.178
  470SOL    HW1 2297   0.769   0.593   5.266
  470SOL    HW2 2298   0.753   0.555   5.121
  471SOL     OW 2299   1.389   0.479   5.400
  471SOL    HW1 2300   1.392   0.522   5.485
  471SOL    HW2 2301   1.455   0.410   5.406
  472SOL     OW 2302   0.957   0.889   5.305
  472SOL    HW1 2303   1.011   0.817   5.271
  472SOL    HW2 2304   0.910   0.922   5.229
  473SOL     OW 2305   0.996   0.417   4.961
  473SOL    HW1 2306   0.910   0.428   5.002
  473SOL    HW2 2307   0.980   0.366   4.882
  474SOL     OW 2308   1.049   0.698   4.151
  474SOL    HW1 2309   1.065   0.690   4.246
  474SOL    HW2 2310   0.967   0.651   4.137
  475SOL     OW 2311   0.098   0.825   4.507
  475SOL    HW1 2312   0.185   0.807   4.544
  475SOL    HW2 2313   0.049   0.863   4.580
  476SOL     OW 2314   0.123   1.856   5.300
  476SOL    HW1 2315   0.118   1.831   5.393
  476SOL    HW2 2316   0.045   1.817   5.260
  477SOL     OW 2317   0.853   0.368   3.902
  477SOL    HW1 2318   0.928   0.404   3.854
  477SOL    HW2 2319   0.871   0.274   3.909
  478SOL     OW 2320   1.705   0.574   5.552
  478SOL    HW1 2321   1.670   0.650   5.505
  478SOL    HW2 2322   1.740   0.518   5.483
  479SOL     OW 2323   1.376   1.143   4.265
  479SOL    HW1 2324   1.456   1.130   4.214
  479SOL    HW2 2325   1.324   1.204   4.214
  480SOL     OW 2326   0.543   0.202   4.625
  480SOL    HW1 2327   0.562   0.222   4.717
  480SOL    HW2 2328   0.533   0.288   4.584
  481SOL     OW 2329   1.008   1.446   4.198
  481SOL    HW1 2330   0.968   1.517   4.148
  481SOL    HW2 2331   0.990   1.468   4.289
  482SOL     OW 2332   0.355   1.809   4.581
  482SOL    HW1 2333   0.397   1.724   4.591
  482SOL    HW2 2334   0.425   1.872   4.596
  483SOL     OW 2335   1.799   1.054   4.592
  483SOL    HW1 2336   1.743   1.045   4.515
  483SOL    HW2 2337   1.738   1.062   4.665
  484SOL     OW 2338   1.228   1.538   5.232
  484SOL    HW1 2339   1.216   1.468   5.296
  484SOL    HW2 2340   1.160   1.523   5.166
  485SOL     OW 2341   0.317   0.954   3.975
  485SOL    HW1 2342   0.401   0.977   3.935
  485SOL    HW2 2343   0.300   0.865   3.946
  486SOL     OW 2344   1.477   0.740   4.450
  486SOL    HW1 2345   1.466   0.695   4.534
  486SOL    HW2 2346   1.554   0.796   4.462
  487SOL     OW 2347   0.466   1.262   5.459
  487SOL    HW1 2348   0.439   1.268   5.368
  487SOL    HW2 2349   0.385   1.266   5.509
  488SOL     OW 2350   1.121   1.777   3.956
  488SOL    HW1 2351   1.048   1.734   4.002
  488SOL    HW2 2352   1.143   1.717   3.885
  489SOL     OW 2353   0.165   0.264   5.233
  489SOL    HW1 2354   0.136   0.351   5.206
  489SOL    HW2 2355   0.198   0.276   5.322
  490SOL     OW 2356   1.628   1.380   3.811
  490SOL    HW1 2357   1.586   1.464   3.794
  490SOL    HW2 2358   1.560   1.315   3.792
  491SOL     OW 2359   0.469   1.744   4.038
  491SOL    HW1 2360   0.509   1.796   4.107
  491SOL    HW2 2361   0.543   1.711   3.987
  492SOL     OW 2362   1.418   0.134   4.142
  492SOL    HW1 2363   1.401   0.086   4.061
  492SOL    HW2 2364   1.513   0.131   4.153
  493SOL     OW 2365   0.257   1.790   4.959
  493SOL    HW1 2366   0.305   1.716   4.996
  493SOL    HW2 2367   0.227   1.759   4.874
  494SOL     OW 2368   0.938   1.699   4.623
  494SOL    HW1 2369   1.015   1.645   4.642
  494SOL    HW2 2370   0.892   1.650   4.555
  495SOL     OW 2371   0.393   0.694   4.198
  495SOL    HW1 2372   0.418   0.602   4.209
  495SOL    HW2 2373   0.301   0.697   4.224
  496SOL     OW 2374   1.526   0.233   5.446
  496SOL    HW1 2375   1.525   0.256   5.539
  496SOL    HW2 2376   1.450   0.176   5.435
  497SOL     OW 2377   0.623   0.122   3.841
  497SOL    HW1 2378   0.711   0.087   3.853
  497SOL    HW2 2379   0.594   0.085   3.758
  498SOL     OW 2380   0.769   0.269   5.477
  498SOL    HW1 2381   0.835   0.201   5.490
  498SOL    HW2 2382   0.726   0.277   5.562
  499SOL     OW 2383   0.877   1.522   4.917
  499SOL    HW1 2384   0.861   1.485   4.830
  499SOL    HW2 2385   0.945   1.466   4.954
  500SOL     OW 2386   1.342   0.589   5.153
  500SOL    HW1 2387   1.370   0.559   5.240
  500SOL    HW2 2388   1.376   0.678   5.146
  501SOL     OW 2389   0.814   1.397   4.661
  501SOL    HW1 2390   0.897   1.386   4.616
  501SOL    HW2 2391   0.748   1.396   4.592
  502SOL     OW 2392   0.922   0.516   4.625
  502SOL    HW1 2393   0.906   0.515   4.531
  502SOL    HW2 2394   0.962   0.431   4.644
  503SOL     OW 2395   0.560   0.068   4.233
  503SOL    HW1 2396   0.472   0.054   4.270
  503SOL    HW2 2397   0.548   0.139   4.170
  504SOL     OW 2398   1.428   1.198   3.765
  504SOL    HW1 2399   1.459   1.122   3.815
  504SOL    HW2 2400   1.342   1.218   3.802
  505SOL     OW 2401   0.303   0.075   3.910
  505SOL    HW1 2402   0.387   0.122   3.906
  505SOL    HW2 2403   0.321   4.499   3.965
  506SOL     OW 2404   0.951   0.241   4.196
  506SOL    HW1 2405   0.899   0.291   4.133
  506SOL    HW2 2406   1.040   0.276   4.187
  507SOL     OW 2407   1.080   0.680   5.185
  507SOL    HW1 2408   1.009   0.616   5.186
  507SOL    HW2 2409   1.159   0.627   5.173
  508SOL     OW 2410   1.218   1.570   4.518
  508SOL    HW1 2411   1.239   1.637   4.452
  508SOL    HW2 2412   1.296   1.566   4.574
  509SOL     OW 2413   0.465   1.148   4.461
  509SOL    HW1 2414   0.394   1.129   4.522
  509SOL    HW2 2415   0.428   1.132   4.374
  510SOL     OW 2416   1.271   1.795   4.333
  510SOL    HW1 2417   1.315   1.856   4.274
  510SOL    HW2 2418   1.202   1.846   4.374
  511SOL     OW 2419   1.030   0.548   3.740
  511SOL    HW1 2420   0.982   0.630   3.724
  511SOL    HW2 2421   1.089   0.569   3.812
  512SOL     OW 2422   0.093   0.521   5.136
  512SOL    HW1 2423   0.152   0.531   5.062
  512SOL    HW2 2424   0.060   0.610   5.153
  513SOL     OW 2425   0.563   0.243   4.890
  513SOL    HW1 2426   0.593   0.159   4.923
  513SOL    HW2 2427   0.469   0.244   4.909
  514SOL     OW 2428   0.866   0.502   4.350
  514SOL    HW1 2429   0.817   0.544   4.279
  514SOL    HW2 2430   0.842   0.410   4.344
  515SOL     OW 2431   0.967   0.028   4.503
  515SOL    HW1 2432   0.918   0.026   4.420
  515SOL    HW2 2433   0.979   4.436   4.527
  516SOL     OW 2434   1.437   1.166   4.582
  516SOL    HW1 2435   1.370   1.098   4.579
  516SOL    HW2 2436   1.464   1.176   4.491
  517SOL     OW 2437   1.467   0.604   4.702
  517SOL    HW1 2438   1.415   0.523   4.704
  517SOL    HW2 2439   1.525   0.597   4.777
  518SOL     OW 2440   1.847   0.818   4.105
  518SOL    HW1 2441   1.903   0.767   4.164
  518SOL    HW2 2442   1.818   0.756   4.039
  519SOL     OW 2443   0.492   1.415   3.885
  519SOL    HW1 2444   0.415   1.386   3.934
  519SOL    HW2 2445   0.473   1.392   3.794
  520SOL     OW 2446   1.671   1.267   4.374
  520SOL    HW1 2447   1.766   1.269   4.387
  520SOL    HW2 2448   1.642   1.356   4.395
  521SOL     OW 2449   1.394   0.570   3.794
  521SOL    HW1 2450   1.333   0.554   3.866
  521SOL    HW2 2451   1.480   0.551   3.830
  522SOL     OW 2452   0.523   0.264   4.046
  522SOL    HW1 2453   0.569   0.214   3.979
  522SOL    HW2 2454   0.508   0.350   4.005
  523SOL     OW 2455   1.752   1.228   5.299
  523SOL    HW1 2456   1.841   1.193   5.289
  523SOL    HW2 2457   1.761   1.301   5.360
  524SOL     OW 2458   1.059   1.355   5.060
  524SOL    HW1 2459   0.984   1.323   5.111
  524SOL    HW2 2460   1.135   1.313   5.100
  525SOL     OW 2461   1.577   1.626   5.361
  525SOL    HW1 2462   1.596   1.669   5.278
  525SOL    HW2 2463   1.661   1.589   5.389
  526SOL     OW 2464   1.129   1.206   4.831
  526SOL    HW1 2465   1.066   1.239   4.895
  526SOL    HW2 2466   1.093   1.232   4.746
  527SOL     OW 2467   1.629   1.098   4.802
  527SOL    HW1 2468   1.622   1.160   4.875
  527SOL    HW2 2469   1.550   1.114   4.750
  528SOL     OW 2470   0.903   0.132   5.113
  528SOL    HW1 2471   0.925   0.087   5.031
  528SOL    HW2 2472   0.987   0.145   5.157
  529SOL     OW 2473   0.984   1.115   5.446
  529SOL    HW1 2474   0.892   1.130   5.467
  529SOL    HW2 2475   0.983   1.037   5.390
  530SOL     OW 2476   0.708   1.060   4.096
  530SOL    HW1 2477   0.696   1.046   4.190
  530SOL    HW2 2478   0.784   1.007   4.074
  531SOL     OW 2479   0.429   0.824   4.964
  531SOL    HW1 2480   0.497   0.834   5.030
  531SOL    HW2 2481   0.371   0.757   4.999
  532SOL     OW 2482   1.269   0.376   4.996
  532SOL    HW1 2483   1.301   0.455   5.041
  532SOL    HW2 2484   1.180   0.399   4.968
  533SOL     OW 2485   0.061   1.576   5.066
  533SOL    HW1 2486   0.034   1.664   5.040
  533SOL    HW2 2487   0.157   1.581   5.071
  534SOL     OW 2488   0.349   1.107   4.217
  534SOL    HW1 2489   0.358   1.181   4.157
  534SOL    HW2 2490   0.351   1.030   4.161
  535SOL     OW 2491   0.564   0.528   4.578
  535SOL    HW1 2492   0.576   0.589   4.505
  535SOL    HW2 2493   0.623   0.561   4.646
  536SOL     OW 2494   1.247   1.347   4.113
  536SOL    HW1 2495   1.302   1.419   4.143
  536SOL    HW2 2496   1.160   1.368   4.147
  537SOL     OW 2497   1.279   1.454   4.873
  537SOL    HW1 2498   1.330   1.449   4.954
  537SOL    HW2 2499   1.221   1.378   4.876
  538SOL     OW 2500   1.583   0.624   4.200
  538SOL    HW1 2501   1.538   0.677   4.266
  538SOL    HW2 2502   1.629   0.688   4.145
  539SOL     OW 2503   0.348   1.530   5.040
  539SOL    HW1 2504   0.333   1.483   4.958
  539SOL    HW2 2505   0.443   1.540   5.046
  540SOL     OW 2506   0.482   0.762   5.391
  540SOL    HW1 2507   0.506   0.800   5.306
  540SOL    HW2 2508   0.514   0.672   5.387
  541SOL     OW 2509   1.599   0.778   5.404
  541SOL    HW1 2510   1.513   0.818   5.397
  541SOL    HW2 2511   1.651   0.820   5.336
  542SOL     OW 2512   1.006   0.086   5.447
  542SOL    HW1 2513   1.032   0.170   5.408
  542SOL    HW2 2514   1.032   0.021   5.382
  543SOL     OW 2515   0.496   0.045   5.474
  543SOL    HW1 2516   0.479   4.497   5.393
  543SOL    HW2 2517   0.429   0.114   5.476
  544SOL     OW 2518   0.589   0.874   4.748
  544SOL    HW1 2519   0.617   0.965   4.750
  544SOL    HW2 2520   0.532   0.864   4.825
  545SOL     OW 2521   1.359   0.858   4.757
  545SOL    HW1 2522   1.278   0.851   4.707
  545SOL    HW2 2523   1.399   0.771   4.751
  546SOL     OW 2524   1.205   0.535   3.989
  546SOL    HW1 2525   1.211   0.454   4.041
  546SOL    HW2 2526   1.163   0.597   4.047
  547SOL     OW 2527   0.285   0.219   4.959
  547SOL    HW1 2528   0.247   0.236   5.045
  547SOL    HW2 2529   0.323   0.131   4.965
  548SOL     OW 2530   0.045   1.313   5.009
  548SOL    HW1 2531   0.078   1.266   5.085
  548SOL    HW2 2532   0.048   1.405   5.034
  549SOL     OW 2533   0.725   0.632   4.784
  549SOL    HW1 2534   0.798   0.611   4.725
  549SOL    HW2 2535   0.699   0.720   4.758
  550SOL     OW 2536   1.731   0.962   5.573
  550SOL    HW1 2537   1.685   0.900   5.516
  550SOL    HW2 2538   1.674   0.971   5.649
  551SOL     OW 2539   0.319   0.075   4.355
  551SOL    HW1 2540   0.301   0.163   4.388
  551SOL    HW2 2541   0.306   0.018   4.431
  552SOL     OW 2542   1.612   0.375   4.089
  552SOL    HW1 2543   1.643   0.313   4.155
  552SOL    HW2 2544   1.590   0.454   4.139
  553SOL     OW 2545   1.028   0.761   4.686
  553SOL    HW1 2546   1.026   0.777   4.780
  553SOL    HW2 2547   0.999   0.670   4.677
  554SOL     OW 2548   0.983   1.566   5.439
  554SOL    HW1 2549   0.968   1.611   5.355
  554SOL    HW2 2550   1.024   1.483   5.415
  555SOL     OW 2551   0.347   0.932   5.542
  555SOL    HW1 2552   0.420   0.961   5.597
  555SOL    HW2 2553   0.385   0.866   5.484
  556SOL     OW 2554   1.532   0.266   3.852
  556SOL    HW1 2555   1.459   0.210   3.880
  556SOL    HW2 2556   1.560   0.311   3.931
  557SOL     OW 2557   1.293   0.827   3.756
  557SOL    HW1 2558   1.335   0.741   3.758
  557SOL    HW2 2559   1.324   0.866   3.674
  558SOL     OW 2560   1.065   1.334   4.577
  558SOL    HW1 2561   1.067   1.261   4.515
  558SOL    HW2 2562   1.125   1.399   4.540
  559SOL     OW 2563   0.317   0.812   4.673
  559SOL    HW1 2564   0.411   0.830   4.669
  559SOL    HW2 2565   0.311   0.722   4.703
  560SOL     OW 2566   0.336   0.528   4.716
  560SOL    HW1 2567   0.291   0.446   4.697
  560SOL    HW2 2568   0.413   0.527   4.660
  561SOL     OW 2569   1.135   0.375   5.418
  561SOL    HW1 2570   1.087   0.439   5.469
  561SOL    HW2 2571   1.221   0.414   5.405
  562SOL     OW 2572   1.159   0.212   5.197
  562SOL    HW1 2573   1.152   0.276   5.268
  562SOL    HW2 2574   1.196   0.261   5.124
  563SOL     OW 2575   4.492   1.323   3.926
  563SOL    HW1 2576   4.399   1.338   3.909
  563SOL    HW2 2577   4.497   1.230   3.950
  564SOL     OW 2578   0.096   1.779   4.664
  564SOL    HW1 2579   0.058   1.722   4.598
  564SOL    HW2 2580   0.184   1.799   4.631
  565SOL     OW 2581   0.498   1.573   4.630
  565SOL    HW1 2582   0.566   1.636   4.654
  565SOL    HW2 2583   0.542   1.509   4.575
  566SOL     OW 2584   0.987   0.795   4.952
  566SOL    HW1 2585   1.040   0.770   5.028
  566SOL    HW2 2586   0.901   0.756   4.970
  567SOL     OW 2587   0.040   0.567   4.835
  567SOL    HW1 2588   0.113   0.522   4.793
  567SOL    HW2 2589   0.020   0.514   4.913
  568SOL     OW 2590   0.180   0.521   5.435
  568SOL    HW1 2591   0.266   0.503   5.397
  568SOL    HW2 2592   0.151   0.601   5.393
  569SOL     OW 2593   1.376   0.940   5.383
  569SOL    HW1 2594   1.395   1.034   5.382
  569SOL    HW2 2595   1.374   0.915   5.291
  570SOL     OW 2596   0.812   0.573   4.078
  570SOL    HW1 2597   0.814   0.501   4.014
  570SOL    HW2 2598   0.738   0.627   4.049
  571SOL     OW 2599   1.642   0.601   4.913
  571SOL    HW1 2600   1.631   0.541   4.986
  571SOL    HW2 2601   1.728   0.581   4.878
  572SOL     OW 2602   0.272   1.562   5.465
  572SOL    HW1 2603   0.217   1.614   5.523
  572SOL    HW2 2604   0.252   1.471   5.488
  573SOL     OW 2605   0.685   0.464   4.991
  573SOL    HW1 2606   0.647   0.383   4.955
  573SOL    HW2 2607   0.692   0.522   4.916
  574SOL     OW 2608   0.932   1.677   5.189
  574SOL    HW1 2609   0.902   1.646   5.103
  574SOL    HW2 2610   0.928   1.772   5.183
  575SOL     OW 2611   0.473   0.491   3.909
  575SOL    HW1 2612   0.532   0.562   3.931
  575SOL    HW2 2613   0.388   0.533   3.894
  576SOL     OW 2614   0.162   1.141   5.187
  576SOL    HW1 2615   0.147   1.094   5.269
  576SOL    HW2 2616   0.170   1.072   5.121
  577SOL     OW 2617   1.327   1.048   4.949
  577SOL    HW1 2618   1.351   0.985   4.881
  577SOL    HW2 2619   1.256   1.099   4.909
  578SOL     OW 2620   1.310   0.856   4.031
  578SOL    HW1 2621   1.234   0.827   4.081
  578SOL    HW2 2622   1.285   0.843   3.939
  579SOL     OW 2623   1.236   1.728   4.848
  579SOL    HW1 2624   1.321   1.747   4.809
  579SOL    HW2 2625   1.236   1.634   4.861
  580SOL     OW 2626   0.067   1.186   4.773
  580SOL    HW1 2627   0.070   1.220   4.862
  580SOL    HW2 2628   0.015   1.251   4.725
  581SOL     OW 2629   0.679   1.665   5.451
  581SOL    HW1 2630   0.624   1.743   5.447
  581SOL    HW2 2631   0.741   1.675   5.379
  582SOL     OW 2632   1.718   0.130   4.220
  582SOL    HW1 2633   1.791   0.137   4.158
  582SOL    HW2 2634   1.741   0.056   4.276
  583SOL     OW 2635   1.385   1.568   4.203
  583SOL    HW1 2636   1.444   1.598   4.134
  583SOL    HW2 2637   1.341   1.647   4.232
  584SOL     OW 2638   0.120   1.808   5.572
  584SOL    HW1 2639   0.080   1.734   5.618
  584SOL    HW2 2640   0.183   1.844   5.633
  585SOL     OW 2641   1.278   0.927   4.397
  585SOL    HW1 2642   1.351   0.864   4.401
  585SOL    HW2 2643   1.312   0.999   4.344
  586SOL     OW 2644   0.816   1.273   5.154
  586SOL    HW1 2645   0.789   1.311   5.238
  586SOL    HW2 2646   0.745   1.294   5.094
  587SOL     OW 2647   0.673   1.618   3.879
  587SOL    HW1 2648   0.682   1.629   3.785
  587SOL    HW2 2649   0.619   1.539   3.889
  588SOL     OW 2650   1.839   0.155   4.690
  588SOL    HW1 2651   1.868   0.078   4.641
  588SOL    HW2 2652   1.752   0.175   4.655
  589SOL     OW 2653   0.265   0.325   4.448
  589SOL    HW1 2654   0.183   0.360   4.414
  589SOL    HW2 2655   0.250   0.317   4.542
  590SOL     OW 2656   1.206   1.607   3.755
  590SOL    HW1 2657   1.197   1.516   3.782
  590SOL    HW2 2658   1.141   1.618   3.685
  591SOL     OW 2659   0.825   1.007   5.096
  591SOL    HW1 2660   0.867   1.003   5.010
  591SOL    HW2 2661   0.825   1.100   5.119
  592SOL     OW 2662   0.915   0.910   4.014
  592SOL    HW1 2663   0.977   0.942   3.948
  592SOL    HW2 2664   0.962   0.840   4.059
  593SOL     OW 2665   1.492   1.625   3.762
  593SOL    HW1 2666   1.398   1.620   3.749
  593SOL    HW2 2667   1.528   1.630   3.674
  594SOL     OW 2668   0.373   1.306   5.215
  594SOL    HW1 2669   0.356   1.385   5.163
  594SOL    HW2 2670   0.298   1.249   5.199
  595SOL     OW 2671   1.608   1.280   5.008
  595SOL    HW1 2672   1.673   1.271   5.077
  595SOL    HW2 2673   1.552   1.352   5.036
  596SOL     OW 2674   1.050   1.106   4.429
  596SOL    HW1 2675   0.979   1.055   4.469
  596SOL    HW2 2676   1.111   1.041   4.397
  597SOL     OW 2677   1.006   0.242   4.725
  597SOL    HW1 2678   1.012   0.217   4.633
  597SOL    HW2 2679   0.999   0.159   4.773
  598SOL     OW 2680   0.604   1.490   4.207
  598SOL    HW1 2681   0.643   1.439   4.136
  598SOL    HW2 2682   0.531   1.536   4.166
  599SOL     OW 2683   1.720   0.393   5.102
  599SOL    HW1 2684   1.792   0.456   5.101
  599SOL    HW2 2685   1.750   0.322   5.045
  600SOL     OW 2686   0.252   1.345   4.001
  600SOL    HW1 2687   0.157   1.345   3.987
  600SOL    HW2 2688   0.262   1.377   4.090
  601SOL     OW 2689   0.116   1.007   5.420
  601SOL    HW1 2690   0.052   1.048   5.478
  601SOL    HW2 2691   0.194   0.996   5.474
  602SOL     OW 2692   0.659   0.208   5.220
  602SOL    HW1 2693   0.738   0.181   5.174
  602SOL    HW2 2694   0.687   0.223   5.310
  603SOL     OW 2695   0.071   0.320   3.750
  603SOL    HW1 2696   4.476   0.329   3.762
  603SOL    HW2 2697   0.099   0.407   3.719
  604SOL     OW 2698   1.431   0.859   5.125
  604SOL    HW1 2699   1.382   0.918   5.068
  604SOL    HW2 2700   1.520   0.861   5.090
  605SOL     OW 2701   0.084   0.188   4.027
  605SOL    HW1 2702   0.078   0.260   3.964
  605SOL    HW2 2703   0.163   0.140   4.001
  606SOL     OW 2704   1.179   1.341   3.841
  606SOL    HW1 2705   1.089   1.311   3.843
  606SOL    HW2 2706   1.208   1.340   3.932
  607SOL     OW 2707   0.622   0.830   5.152
  607SOL    HW1 2708   0.676   0.908   5.140
  607SOL    HW2 2709   0.684   0.758   5.162
  608SOL     OW 2710   0.715   0.561   5.429
  608SOL    HW1 2711   0.748   0.628   5.488
  608SOL    HW2 2712   0.753   0.479   5.461
  609SOL     OW 2713   1.467   1.202   5.357
  609SOL    HW1 2714   1.456   1.215   5.451
  609SOL    HW2 2715   1.561   1.209   5.342
  610SOL     OW 2716   0.381   1.743   5.288
  610SOL    HW1 2717   0.296   1.783   5.271
  610SOL    HW2 2718   0.361   1.662   5.335
  611SOL     OW 2719   1.670   0.881   4.979
  611SOL    HW1 2720   1.663   0.796   4.936
  611SOL    HW2 2721   1.662   0.945   4.908
  612SOL     OW 2722   1.218   0.328   4.172
  612SOL    HW1 2723   1.283   0.259   4.162
  612SOL    HW2 2724   1.245   0.376   4.250
  613SOL     OW 2725   0.588   0.739   4.393
  613SOL    HW1 2726   0.629   0.824   4.377
  613SOL    HW2 2727   0.519   0.732   4.327
  614SOL     OW 2728   1.764   0.363   5.368
  614SOL    HW1 2729   1.748   0.377   5.274
  614SOL    HW2 2730   1.685   0.318   5.399
  615SOL     OW 2731   1.745   0.933   5.236
  615SOL    HW1 2732   1.743   1.027   5.248
  615SOL    HW2 2733   1.729   0.920   5.142
  616SOL     OW 2734   0.863   1.368   3.756
  616SOL    HW1 2735   0.823   1.395   3.838
  616SOL    HW2 2736   0.881   1.450   3.710
  617SOL     OW 2737   0.660   1.794   4.671
  617SOL    HW1 2738   0.638   1.883   4.647
  617SOL    HW2 2739   0.755   1.789   4.662
  618SOL     OW 2740   0.867   0.966   4.579
  618SOL    HW1 2741   0.916   0.894   4.619
  618SOL    HW2 2742   0.833   1.015   4.654
  619SOL     OW 2743   1.080   0.988   3.813
  619SOL    HW1 2744   1.057   1.038   3.734
  619SOL    HW2 2745   1.155   0.935   3.787
  620SOL     OW 2746   1.850   1.474   4.529
  620SOL    HW1 2747   1.793   1.550   4.515
  620SOL    HW2 2748   1.865   1.472   4.624
  621SOL     OW 2749   0.229   1.306   5.581
  621SOL    HW1 2750   0.158   1.247   5.557
  621SOL    HW2 2751   0.221   1.316   5.676
  622SOL     OW 2752   0.104   1.238   4.391
  622SOL    HW1 2753   0.110   1.189   4.472
  622SOL    HW2 2754   0.164   1.194   4.331
  623SOL     OW 2755   0.681   1.401   5.351
  623SOL    HW1 2756   0.601   1.357   5.379
  623SOL    HW2 2757   0.675   1.489   5.388
  624SOL     OW 2758   1.809   0.183   4.963
  624SOL    HW1 2759   1.808   0.089   4.984
  624SOL    HW2 2760   1.825   0.186   4.868
  625SOL     OW 2761   0.439   0.431   4.254
  625SOL    HW1 2762   0.458   0.361   4.192
  625SOL    HW2 2763   0.381   0.391   4.319
  626SOL     OW 2764   1.705   1.460   4.814
  626SOL    HW1 2765   1.621   1.447   4.771
  626SOL    HW2 2766   1.706   1.398   4.887
  627SOL     OW 2767   0.313   0.506   4.980
  627SOL    HW1 2768   0.384   0.455   5.020
  627SOL    HW2 2769   0.339   0.514   4.888
  628SOL     OW 2770   0.826   1.578   4.403
  628SOL    HW1 2771   0.817   1.627   4.321
  628SOL    HW2 2772   0.748   1.522   4.406
  629SOL     OW 2773   1.432   0.215   4.842
  629SOL    HW1 2774   1.468   0.145   4.896
  629SOL    HW2 2775   1.381   0.268   4.903
  630SOL     OW 2776   0.997   0.010   4.874
  630SOL    HW1 2777   0.952   4.426   4.863
  630SOL    HW2 2778   1.089   4.487   4.885
  631SOL     OW 2779   0.771   1.332   4.036
  631SOL    HW1 2780   0.739   1.242   4.042
  631SOL    HW2 2781   0.854   1.331   4.084
  632SOL     OW 2782   0.621   1.557   5.009
  632SOL    HW1 2783   0.623   1.638   5.059
  632SOL    HW2 2784   0.708   1.551   4.969
  633SOL     OW 2785   1.341   0.053   3.877
  633SOL    HW1 2786   1.381   4.478   3.832
  633SOL    HW2 2787   1.266   0.017   3.923
  634SOL     OW 2788   1.314   0.462   4.402
  634SOL    HW1 2789   1.254   0.536   4.403
  634SOL    HW2 2790   1.302   0.421   4.488
  635SOL     OW 2791   1.586   0.202   4.591
  635SOL    HW1 2792   1.525   0.216   4.664
  635SOL    HW2 2793   1.588   0.285   4.545
  636SOL     OW 2794   0.041   1.053   4.011
  636SOL    HW1 2795   0.136   1.039   4.003
  636SOL    HW2 2796   0.019   1.016   4.097
  637SOL     OW 2797   0.883   1.651   4.067
  637SOL    HW1 2798   0.811   1.633   4.007
  637SOL    HW2 2799   0.853   1.726   4.118
  638SOL     OW 2800   0.247   0.626   5.706
  638SOL    HW1 2801   0.172   0.609   5.762
  638SOL    HW2 2802   0.214   0.612   5.617
  639SOL     OW 2803   0.195   0.293   6.576
  639SOL    HW1 2804   0.231   0.269   6.661
  639SOL    HW2 2805   0.132   0.224   6.556
  640SOL     OW 2806   0.005   0.379   6.228
  640SOL    HW1 2807   4.427   0.416   6.267
  640SOL    HW2 2808   4.473   0.307   6.172
  641SOL     OW 2809   0.567   1.284   6.760
  641SOL    HW1 2810   0.479   1.289   6.721
  641SOL    HW2 2811   0.583   1.372   6.795
  642SOL     OW 2812   1.133   0.699   6.286
  642SOL    HW1 2813   1.180   0.782   6.275
  642SOL    HW2 2814   1.083   0.711   6.367
  643SOL     OW 2815   1.765   0.608   5.815
  643SOL    HW1 2816   1.745   0.597   5.722
  643SOL    HW2 2817   1.733   0.528   5.855
  644SOL     OW 2818   0.757   1.144   6.625
  644SOL    HW1 2819   0.688   1.177   6.681
  644SOL    HW2 2820   0.792   1.221   6.580
  645SOL     OW 2821   0.864   0.777   7.407
  645SOL    HW1 2822   0.850   0.848   7.469
  645SOL    HW2 2823   0.887   0.821   7.325
  646SOL     OW 2824   0.686   1.006   6.234
  646SOL    HW1 2825   0.751   0.992   6.303
  646SOL    HW2 2826   0.616   1.056   6.277
  647SOL     OW 2827   0.709   1.151   7.397
  647SOL    HW1 2828   0.756   1.230   7.422
  647SOL    HW2 2829   0.626   1.182   7.362
  648SOL     OW 2830   0.336   1.422   6.656
  648SOL    HW1 2831   0.255   1.403   6.609
  648SOL    HW2 2832   0.386   1.477   6.595
  649SOL     OW 2833   1.461   1.498   6.938
  649SOL    HW1 2834   1.510   1.580   6.948
  649SOL    HW2 2835   1.403   1.495   7.014
  650SOL     OW 2836   0.437   0.395   7.078
  650SOL    HW1 2837   0.526   0.359   7.080
  650SOL    HW2 2838   0.381   0.320   7.096
  651SOL     OW 2839   1.612   0.447   6.324
  651SOL    HW1 2840   1.532   0.470   6.277
  651SOL    HW2 2841   1.632   0.525   6.377
  652SOL     OW 2842   0.245   1.692   6.064
  652SOL    HW1 2843   0.231   1.776   6.107
  652SOL    HW2 2844   0.310   1.710   5.996
  653SOL     OW 2845   1.136   1.341   7.278
  653SOL    HW1 2846   1.175   1.337   7.365
  653SOL    HW2 2847   1.083   1.261   7.272
  654SOL     OW 2848   0.246   1.427   6.114
  654SOL    HW1 2849   0.238   1.522   6.118
  654SOL    HW2 2850   0.182   1.395   6.177
  655SOL     OW 2851   0.246   1.081   6.469
  655SOL    HW1 2852   0.263   0.993   6.501
  655SOL    HW2 2853   0.188   1.119   6.535
  656SOL     OW 2854   0.615   1.790   7.018
  656SOL    HW1 2855   0.532   1.773   7.061
  656SOL    HW2 2856   0.636   1.881   7.041
  657SOL     OW 2857   0.582   0.985   5.722
  657SOL    HW1 2858   0.628   1.030   5.652
  657SOL    HW2 2859   0.627   1.012   5.802
  658SOL     OW 2860   1.584   0.115   7.059
  658SOL    HW1 2861   1.600   0.184   6.994
  658SOL    HW2 2862   1.573   0.162   7.142
  659SOL     OW 2863   0.136   0.643   6.161
  659SOL    HW1 2864   0.083   0.564   6.176
  659SOL    HW2 2865   0.107   0.704   6.228
  660SOL     OW 2866   0.033   1.601   5.724
  660SOL    HW1 2867   0.021   1.506   5.723
  660SOL    HW2 2868   0.014   1.627   5.814
  661SOL     OW 2869   1.689   0.920   6.224
  661SOL    HW1 2870   1.775   0.881   6.207
  661SOL    HW2 2871   1.670   0.970   6.145
  662SOL     OW 2872   1.646   1.112   6.017
  662SOL    HW1 2873   1.733   1.116   5.976
  662SOL    HW2 2874   1.651   1.174   6.089
  663SOL     OW 2875   0.106   0.762   7.171
  663SOL    HW1 2876   0.199   0.760   7.149
  663SOL    HW2 2877   0.086   0.855   7.184
  664SOL     OW 2878   0.613   1.383   6.322
  664SOL    HW1 2879   0.566   1.300   6.331
  664SOL    HW2 2880   0.597   1.410   6.231
  665SOL     OW 2881   1.290   1.238   7.010
  665SOL    HW1 2882   1.322   1.171   6.950
  665SOL    HW2 2883   1.346   1.231   7.087
  666SOL     OW 2884   0.818   0.012   6.135
  666SOL    HW1 2885   0.852   0.098   6.111
  666SOL    HW2 2886   0.724   0.020   6.124
  667SOL     OW 2887   0.181   0.942   6.865
  667SOL    HW1 2888   0.273   0.925   6.844
  667SOL    HW2 2889   0.133   0.923   6.785
  668SOL     OW 2890   1.532   0.992   5.784
  668SOL    HW1 2891   1.462   0.935   5.814
  668SOL    HW2 2892   1.572   1.026   5.864
  669SOL     OW 2893   1.186   1.805   7.207
  669SOL    HW1 2894   1.198   1.863   7.132
  669SOL    HW2 2895   1.201   1.717   7.172
  670SOL     OW 2896   0.318   0.260   7.357
  670SOL    HW1 2897   0.386   0.312   7.399
  670SOL    HW2 2898   0.242   0.268   7.415
  671SOL     OW 2899   1.468   1.422   6.543
  671SOL    HW1 2900   1.398   1.432   6.607
  671SOL    HW2 2901   1.457   1.333   6.509
  672SOL     OW 2902   0.596   0.723   5.851
  672SOL    HW1 2903   0.600   0.804   5.799
  672SOL    HW2 2904   0.530   0.741   5.918
  673SOL     OW 2905   1.291   0.360   6.520
  673SOL    HW1 2906   1.201   0.329   6.504
  673SOL    HW2 2907   1.327   0.297   6.582
  674SOL     OW 2908   0.797   0.617   7.040
  674SOL    HW1 2909   0.769   0.593   7.128
  674SOL    HW2 2910   0.753   0.554   6.983
  675SOL     OW 2911   1.389   0.478   7.262
  675SOL    HW1 2912   1.391   0.522   7.347
  675SOL    HW2 2913   1.456   0.410   7.268
  676SOL     OW 2914   0.957   0.888   7.167
  676SOL    HW1 2915   1.011   0.817   7.133
  676SOL    HW2 2916   0.910   0.922   7.091
  677SOL     OW 2917   0.997   0.417   6.823
  677SOL    HW1 2918   0.911   0.428   6.864
  677SOL    HW2 2919   0.979   0.365   6.744
  678SOL     OW 2920   1.049   0.698   6.013
  678SOL    HW1 2921   1.065   0.690   6.108
  678SOL    HW2 2922   0.967   0.651   5.999
  679SOL     OW 2923   0.098   0.824   6.369
  679SOL    HW1 2924   0.185   0.807   6.406
  679SOL    HW2 2925   0.049   0.863   6.441
  680SOL     OW 2926   0.124   1.855   7.162
  680SOL    HW1 2927   0.118   1.831   7.255
  680SOL    HW2 2928   0.045   1.817   7.122
  681SOL     OW 2929   0.853   0.368   5.764
  681SOL    HW1 2930   0.928   0.403   5.717
  681SOL    HW2 2931   0.871   0.274   5.771
  682SOL     OW 2932   1.705   0.575   7.414
  682SOL    HW1 2933   1.670   0.651   7.368
  682SOL    HW2 2934   1.740   0.518   7.345
  683SOL     OW 2935   1.377   1.143   6.128
  683SOL    HW1 2936   1.455   1.129   6.076
  683SOL    HW2 2937   1.323   1.201   6.076
  684SOL     OW 2938   0.543   0.203   6.487
  684SOL    HW1 2939   0.562   0.222   6.579
  684SOL    HW2 2940   0.534   0.289   6.446
  685SOL     OW 2941   1.009   1.446   6.060
  685SOL    HW1 2942   0.969   1.517   6.011
  685SOL    HW2 2943   0.991   1.468   6.152
  686SOL     OW 2944   0.355   1.809   6.443
  686SOL    HW1 2945   0.398   1.724   6.453
  686SOL    HW2 2946   0.425   1.872   6.458
  687SOL     OW 2947   1.797   1.053   6.454
  687SOL    HW1 2948   1.741   1.038   6.378
  687SOL    HW2 2949   1.737   1.062   6.527
  688SOL     OW 2950   1.228   1.539   7.099
  688SOL    HW1 2951   1.214   1.466   7.159
  688SOL    HW2 2952   1.166   1.524   7.028
  689SOL     OW 2953   0.317   0.954   5.837
  689SOL    HW1 2954   0.401   0.977   5.797
  689SOL    HW2 2955   0.300   0.865   5.808
  690SOL     OW 2956   1.477   0.741   6.311
  690SOL    HW1 2957   1.465   0.695   6.395
  690SOL    HW2 2958   1.554   0.796   6.326
  691SOL     OW 2959   0.466   1.262   7.321
  691SOL    HW1 2960   0.439   1.268   7.230
  691SOL    HW2 2961   0.385   1.267   7.371
  692SOL     OW 2962   1.116   1.777   5.819
  692SOL    HW1 2963   1.045   1.731   5.864
  692SOL    HW2 2964   1.140   1.719   5.747
  693SOL     OW 2965   0.165   0.264   7.095
  693SOL    HW1 2966   0.136   0.351   7.068
  693SOL    HW2 2967   0.198   0.276   7.184
  694SOL     OW 2968   1.632   1.380   5.665
  694SOL    HW1 2969   1.588   1.466   5.660
  694SOL    HW2 2970   1.561   1.317   5.653
  695SOL     OW 2971   0.469   1.744   5.899
  695SOL    HW1 2972   0.509   1.796   5.969
  695SOL    HW2 2973   0.543   1.710   5.849
  696SOL     OW 2974   1.418   0.135   6.004
  696SOL    HW1 2975   1.401   0.085   5.924
  696SOL    HW2 2976   1.513   0.130   6.015
  697SOL     OW 2977   0.257   1.790   6.821
  697SOL    HW1 2978   0.305   1.717   6.859
  697SOL    HW2 2979   0.227   1.758   6.736
  698SOL     OW 2980   0.939   1.699   6.486
  698SOL    HW1 2981   1.017   1.646   6.505
  698SOL    HW2 2982   0.894   1.650   6.417
  699SOL     OW 2983   0.393   0.694   6.059
  699SOL    HW1 2984   0.418   0.602   6.071
  699SOL    HW2 2985   0.301   0.697   6.086
  700SOL     OW 2986   1.526   0.233   7.308
  700SOL    HW1 2987   1.525   0.256   7.401
  700SOL    HW2 2988   1.449   0.176   7.297
  701SOL     OW 2989   0.623   0.122   5.703
  701SOL    HW1 2990   0.711   0.087   5.715
  701SOL    HW2 2991   0.594   0.085   5.620
  702SOL     OW 2992   0.769   0.269   7.339
  702SOL    HW1 2993   0.835   0.201   7.352
  702SOL    HW2 2994   0.726   0.277   7.425
  703SOL     OW 2995   0.877   1.522   6.779
  703SOL    HW1 2996   0.862   1.485   6.692
  703SOL    HW2 2997   0.946   1.466   6.816
  704SOL     OW 2998   1.342   0.589   7.015
  704SOL    HW1 2999   1.370   0.560   7.102
  704SOL    HW2 3000   1.376   0.678   7.008
  705SOL     OW 3001   0.813   1.397   6.524
  705SOL    HW1 3002   0.897   1.386   6.479
  705SOL    HW2 3003   0.749   1.396   6.453
  706SOL     OW 3004   0.922   0.516   6.487
  706SOL    HW1 3005   0.906   0.515   6.393
  706SOL    HW2 3006   0.962   0.431   6.506
  707SOL     OW 3007   0.560   0.068   6.095
  707SOL    HW1 3008   0.472   0.054   6.132
  707SOL    HW2 3009   0.548   0.139   6.032
  708SOL     OW 3010   1.430   1.198   5.628
  708SOL    HW1 3011   1.459   1.122   5.678
  708SOL    HW2 3012   1.343   1.218   5.663
  709SOL     OW 3013   0.303   0.075   5.772
  709SOL    HW1 3014   0.387   0.122   5.768
  709SOL    HW2 3015   0.320   4.499   5.827
  710SOL     OW 3016   0.951   0.240   6.057
  710SOL    HW1 3017   0.899   0.292   5.995
  710SOL    HW2 3018   1.040   0.276   6.049
  711SOL     OW 3019   1.080   0.680   7.047
  711SOL    HW1 3020   1.009   0.616   7.048
  711SOL    HW2 3021   1.159   0.627   7.035
  712SOL     OW 3022   1.219   1.564   6.376
  712SOL    HW1 3023   1.232   1.634   6.313
  712SOL    HW2 3024   1.300   1.563   6.428
  713SOL     OW 3025   0.465   1.148   6.323
  713SOL    HW1 3026   0.394   1.130   6.384
  713SOL    HW2 3027   0.428   1.132   6.236
  714SOL     OW 3028   1.249   1.782   6.203
  714SOL    HW1 3029   1.315   1.826   6.149
  714SOL    HW2 3030   1.196   1.853   6.239
  715SOL     OW 3031   1.030   0.549   5.601
  715SOL    HW1 3032   0.982   0.630   5.586
  715SOL    HW2 3033   1.088   0.569   5.675
  716SOL     OW 3034   0.092   0.521   6.998
  716SOL    HW1 3035   0.152   0.531   6.924
  716SOL    HW2 3036   0.061   0.610   7.015
  717SOL     OW 3037   0.563   0.243   6.752
  717SOL    HW1 3038   0.593   0.159   6.785
  717SOL    HW2 3039   0.469   0.244   6.771
  718SOL     OW 3040   0.866   0.502   6.212
  718SOL    HW1 3041   0.817   0.544   6.141
  718SOL    HW2 3042   0.842   0.410   6.206
  719SOL     OW 3043   0.967   0.029   6.364
  719SOL    HW1 3044   0.918   0.026   6.282
  719SOL    HW2 3045   0.979   4.437   6.389
  720SOL     OW 3046   1.437   1.165   6.442
  720SOL    HW1 3047   1.369   1.097   6.444
  720SOL    HW2 3048   1.456   1.177   6.349
  721SOL     OW 3049   1.467   0.603   6.563
  721SOL    HW1 3050   1.415   0.523   6.566
  721SOL    HW2 3051   1.525   0.597   6.639
  722SOL     OW 3052   1.846   0.819   5.968
  722SOL    HW1 3053   1.902   0.767   6.026
  722SOL    HW2 3054   1.818   0.756   5.901
  723SOL     OW 3055   0.492   1.415   5.747
  723SOL    HW1 3056   0.416   1.386   5.796
  723SOL    HW2 3057   0.472   1.392   5.656
  724SOL     OW 3058   1.668   1.280   6.231
  724SOL    HW1 3059   1.762   1.269   6.239
  724SOL    HW2 3060   1.648   1.359   6.281
  725SOL     OW 3061   1.394   0.570   5.656
  725SOL    HW1 3062   1.333   0.554   5.728
  725SOL    HW2 3063   1.480   0.549   5.692
  726SOL     OW 3064   0.523   0.264   5.908
  726SOL    HW1 3065   0.569   0.214   5.841
  726SOL    HW2 3066   0.508   0.350   5.867
  727SOL     OW 3067   1.753   1.237   7.162
  727SOL    HW1 3068   1.840   1.197   7.160
  727SOL    HW2 3069   1.769   1.327   7.189
  728SOL     OW 3070   1.060   1.353   6.921
  728SOL    HW1 3071   0.985   1.322   6.972
  728SOL    HW2 3072   1.135   1.312   6.962
  729SOL     OW 3073   1.608   1.625   7.240
  729SOL    HW1 3074   1.602   1.659   7.151
  729SOL    HW2 3075   1.691   1.577   7.241
  730SOL     OW 3076   1.127   1.202   6.693
  730SOL    HW1 3077   1.068   1.240   6.758
  730SOL    HW2 3078   1.093   1.233   6.609
  731SOL     OW 3079   1.630   1.099   6.664
  731SOL    HW1 3080   1.626   1.162   6.737
  731SOL    HW2 3081   1.550   1.117   6.614
  732SOL     OW 3082   0.903   0.132   6.975
  732SOL    HW1 3083   0.925   0.087   6.893
  732SOL    HW2 3084   0.987   0.145   7.019
  733SOL     OW 3085   0.984   1.114   7.309
  733SOL    HW1 3086   0.892   1.130   7.329
  733SOL    HW2 3087   0.983   1.037   7.252
  734SOL     OW 3088   0.708   1.061   5.958
  734SOL    HW1 3089   0.695   1.046   6.052
  734SOL    HW2 3090   0.784   1.007   5.936
  735SOL     OW 3091   0.429   0.824   6.826
  735SOL    HW1 3092   0.497   0.834   6.892
  735SOL    HW2 3093   0.370   0.757   6.862
  736SOL     OW 3094   1.269   0.376   6.858
  736SOL    HW1 3095   1.301   0.455   6.903
  736SOL    HW2 3096   1.180   0.399   6.831
  737SOL     OW 3097   0.061   1.576   6.927
  737SOL    HW1 3098   0.034   1.664   6.903
  737SOL    HW2 3099   0.157   1.581   6.933
  738SOL     OW 3100   0.349   1.107   6.079
  738SOL    HW1 3101   0.358   1.181   6.018
  738SOL    HW2 3102   0.351   1.029   6.023
  739SOL     OW 3103   0.564   0.528   6.440
  739SOL    HW1 3104   0.576   0.589   6.367
  739SOL    HW2 3105   0.623   0.561   6.508
  740SOL     OW 3106   1.247   1.348   5.974
  740SOL    HW1 3107   1.300   1.423   6.003
  740SOL    HW2 3108   1.159   1.366   6.008
  741SOL     OW 3109   1.277   1.456   6.733
  741SOL    HW1 3110   1.333   1.457   6.811
  741SOL    HW2 3111   1.223   1.378   6.744
  742SOL     OW 3112   1.582   0.624   6.062
  742SOL    HW1 3113   1.537   0.677   6.128
  742SOL    HW2 3114   1.628   0.688   6.008
  743SOL     OW 3115   0.348   1.530   6.903
  743SOL    HW1 3116   0.333   1.483   6.820
  743SOL    HW2 3117   0.443   1.540   6.908
  744SOL     OW 3118   0.481   0.761   7.253
  744SOL    HW1 3119   0.506   0.799   7.168
  744SOL    HW2 3120   0.516   0.672   7.249
  745SOL     OW 3121   1.599   0.777   7.266
  745SOL    HW1 3122   1.513   0.819   7.259
  745SOL    HW2 3123   1.651   0.820   7.198
  746SOL     OW 3124   1.006   0.086   7.309
  746SOL    HW1 3125   1.032   0.170   7.271
  746SOL    HW2 3126   1.031   0.021   7.244
  747SOL     OW 3127   0.496   0.045   7.336
  747SOL    HW1 3128   0.479   4.497   7.255
  747SOL    HW2 3129   0.429   0.114   7.338
  748SOL     OW 3130   0.588   0.874   6.610
  748SOL    HW1 3131   0.618   0.965   6.612
  748SOL    HW2 3132   0.532   0.865   6.687
  749SOL     OW 3133   1.360   0.859   6.618
  749SOL    HW1 3134   1.277   0.851   6.570
  749SOL    HW2 3135   1.398   0.771   6.613
  750SOL     OW 3136   1.206   0.535   5.851
  750SOL    HW1 3137   1.212   0.454   5.902
  750SOL    HW2 3138   1.162   0.597   5.909
  751SOL     OW 3139   0.285   0.219   6.820
  751SOL    HW1 3140   0.248   0.235   6.907
  751SOL    HW2 3141   0.323   0.131   6.827
  752SOL     OW 3142   0.044   1.313   6.871
  752SOL    HW1 3143   0.077   1.266   6.947
  752SOL    HW2 3144   0.048   1.405   6.896
  753SOL     OW 3145   0.725   0.632   6.645
  753SOL    HW1 3146   0.798   0.611   6.588
  753SOL    HW2 3147   0.699   0.720   6.621
  754SOL     OW 3148   1.733   0.959   7.437
  754SOL    HW1 3149   1.686   0.902   7.377
  754SOL    HW2 3150   1.674   0.971   7.511
  755SOL     OW 3151   0.319   0.075   6.217
  755SOL    HW1 3152   0.301   0.163   6.250
  755SOL    HW2 3153   0.306   0.018   6.293
  756SOL     OW 3154   1.612   0.376   5.951
  756SOL    HW1 3155   1.643   0.313   6.016
  756SOL    HW2 3156   1.590   0.454   6.001
  757SOL     OW 3157   1.028   0.761   6.548
  757SOL    HW1 3158   1.026   0.777   6.642
  757SOL    HW2 3159   0.999   0.670   6.539
  758SOL     OW 3160   0.983   1.567   7.301
  758SOL    HW1 3161   0.967   1.611   7.218
  758SOL    HW2 3162   1.025   1.484   7.277
  759SOL     OW 3163   1.856   1.504   7.192
  759SOL    HW1 3164   1.869   1.534   7.102
  759SOL    HW2 3165   1.936   1.529   7.237
  760SOL     OW 3166   0.347   0.932   7.404
  760SOL    HW1 3167   0.420   0.961   7.459
  760SOL    HW2 3168   0.385   0.866   7.346
  761SOL     OW 3169   1.531   0.266   5.714
  761SOL    HW1 3170   1.459   0.210   5.742
  761SOL    HW2 3171   1.560   0.311   5.794
  762SOL     OW 3172   1.294   0.827   5.618
  762SOL    HW1 3173   1.335   0.740   5.621
  762SOL    HW2 3174   1.324   0.865   5.536
  763SOL     OW 3175   1.064   1.334   6.440
  763SOL    HW1 3176   1.068   1.262   6.377
  763SOL    HW2 3177   1.125   1.399   6.405
  764SOL     OW 3178   0.317   0.813   6.535
  764SOL    HW1 3179   0.411   0.830   6.531
  764SOL    HW2 3180   0.311   0.722   6.565
  765SOL     OW 3181   0.336   0.528   6.578
  765SOL    HW1 3182   0.291   0.446   6.559
  765SOL    HW2 3183   0.413   0.527   6.522
  766SOL     OW 3184   1.135   0.375   7.280
  766SOL    HW1 3185   1.087   0.439   7.332
  766SOL    HW2 3186   1.221   0.414   7.267
  767SOL     OW 3187   1.159   0.212   7.059
  767SOL    HW1 3188   1.152   0.276   7.130
  767SOL    HW2 3189   1.196   0.261   6.986
  768SOL     OW 3190   4.492   1.323   5.788
  768SOL    HW1 3191   4.399   1.338   5.771
  768SOL    HW2 3192   4.497   1.230   5.812
  769SOL     OW 3193   0.096   1.779   6.526
  769SOL    HW1 3194   0.058   1.722   6.459
  769SOL    HW2 3195   0.183   1.799   6.493
  770SOL     OW 3196   0.498   1.573   6.492
  770SOL    HW1 3197   0.566   1.636   6.516
  770SOL    HW2 3198   0.542   1.509   6.437
  771SOL     OW 3199   0.987   0.794   6.814
  771SOL    HW1 3200   1.040   0.770   6.889
  771SOL    HW2 3201   0.901   0.757   6.832
  772SOL     OW 3202   0.040   0.567   6.697
  772SOL    HW1 3203   0.114   0.523   6.656
  772SOL    HW2 3204   0.021   0.515   6.775
  773SOL     OW 3205   0.180   0.520   7.297
  773SOL    HW1 3206   0.266   0.503   7.259
  773SOL    HW2 3207   0.151   0.601   7.255
  774SOL     OW 3208   1.377   0.940   7.245
  774SOL    HW1 3209   1.397   1.034   7.244
  774SOL    HW2 3210   1.374   0.916   7.153
  775SOL     OW 3211   0.812   0.573   5.939
  775SOL    HW1 3212   0.815   0.501   5.876
  775SOL    HW2 3213   0.738   0.628   5.911
  776SOL     OW 3214   1.641   0.601   6.774
  776SOL    HW1 3215   1.631   0.542   6.848
  776SOL    HW2 3216   1.728   0.581   6.740
  777SOL     OW 3217   0.272   1.562   7.327
  777SOL    HW1 3218   0.217   1.614   7.386
  777SOL    HW2 3219   0.252   1.471   7.350
  778SOL     OW 3220   0.684   0.464   6.853
  778SOL    HW1 3221   0.647   0.383   6.817
  778SOL    HW2 3222   0.692   0.522   6.778
  779SOL     OW 3223   0.930   1.679   7.052
  779SOL    HW1 3224   0.903   1.647   6.967
  779SOL    HW2 3225   0.927   1.774   7.044
  780SOL     OW 3226   0.473   0.491   5.771
  780SOL    HW1 3227   0.532   0.563   5.793
  780SOL    HW2 3228   0.388   0.533   5.756
  781SOL     OW 3229   0.162   1.141   7.049
  781SOL    HW1 3230   0.147   1.094   7.131
  781SOL    HW2 3231   0.170   1.071   6.983
  782SOL     OW 3232   1.328   1.048   6.810
  782SOL    HW1 3233   1.352   0.985   6.742
  782SOL    HW2 3234   1.256   1.099   6.772
  783SOL     OW 3235   1.310   0.858   5.893
  783SOL    HW1 3236   1.235   0.827   5.943
  783SOL    HW2 3237   1.285   0.843   5.802
  784SOL     OW 3238   1.774   1.743   6.752
  784SOL    HW1 3239   1.808   1.787   6.675
  784SOL    HW2 3240   1.745   1.657   6.721
  785SOL     OW 3241   1.233   1.728   6.706
  785SOL    HW1 3242   1.322   1.751   6.678
  785SOL    HW2 3243   1.236   1.634   6.720
  786SOL     OW 3244   0.067   1.186   6.635
  786SOL    HW1 3245   0.070   1.220   6.724
  786SOL    HW2 3246   0.016   1.251   6.587
  787SOL     OW 3247   0.679   1.665   7.313
  787SOL    HW1 3248   0.625   1.743   7.309
  787SOL    HW2 3249   0.741   1.675   7.241
  788SOL     OW 3250   1.718   0.130   6.082
  788SOL    HW1 3251   1.791   0.136   6.020
  788SOL    HW2 3252   1.741   0.056   6.139
  789SOL     OW 3253   0.119   1.808   7.434
  789SOL    HW1 3254   0.080   1.734   7.481
  789SOL    HW2 3255   0.183   1.844   7.495
  790SOL     OW 3256   1.278   0.926   6.258
  790SOL    HW1 3257   1.351   0.864   6.263
  790SOL    HW2 3258   1.312   0.999   6.206
  791SOL     OW 3259   0.817   1.273   7.017
  791SOL    HW1 3260   0.790   1.311   7.100
  791SOL    HW2 3261   0.746   1.294   6.956
  792SOL     OW 3262   0.672   1.618   5.741
  792SOL    HW1 3263   0.681   1.629   5.646
  792SOL    HW2 3264   0.618   1.539   5.751
  793SOL     OW 3265   1.625   1.725   6.981
  793SOL    HW1 3266   1.679   1.730   6.902
  793SOL    HW2 3267   1.613   1.816   7.008
  794SOL     OW 3268   1.839   0.155   6.552
  794SOL    HW1 3269   1.868   0.078   6.503
  794SOL    HW2 3270   1.752   0.175   6.517
  795SOL     OW 3271   0.265   0.325   6.310
  795SOL    HW1 3272   0.183   0.360   6.276
  795SOL    HW2 3273   0.250   0.317   6.404
  796SOL     OW 3274   1.203   1.608   5.620
  796SOL    HW1 3275   1.196   1.516   5.644
  796SOL    HW2 3276   1.139   1.619   5.549
  797SOL     OW 3277   0.825   1.006   6.958
  797SOL    HW1 3278   0.868   1.003   6.872
  797SOL    HW2 3279   0.825   1.099   6.981
  798SOL     OW 3280   0.915   0.910   5.875
  798SOL    HW1 3281   0.978   0.942   5.810
  798SOL    HW2 3282   0.962   0.840   5.921
  799SOL     OW 3283   1.491   1.614   5.621
  799SOL    HW1 3284   1.396   1.624   5.628
  799SOL    HW2 3285   1.510   1.628   5.528
  800SOL     OW 3286   0.373   1.306   7.077
  800SOL    HW1 3287   0.356   1.384   7.025
  800SOL    HW2 3288   0.297   1.249   7.060
  801SOL     OW 3289   1.612   1.282   6.868
  801SOL    HW1 3290   1.671   1.275   6.942
  801SOL    HW2 3291   1.552   1.353   6.891
  802SOL     OW 3292   1.050   1.106   6.290
  802SOL    HW1 3293   0.979   1.056   6.331
  802SOL    HW2 3294   1.112   1.039   6.259
  803SOL     OW 3295   1.006   0.242   6.587
  803SOL    HW1 3296   1.012   0.216   6.495
  803SOL    HW2 3297   1.000   0.160   6.635
  804SOL     OW 3298   0.604   1.490   6.069
  804SOL    HW1 3299   0.643   1.439   5.997
  804SOL    HW2 3300   0.530   1.536   6.028
  805SOL     OW 3301   1.720   0.393   6.963
  805SOL    HW1 3302   1.792   0.456   6.963
  805SOL    HW2 3303   1.750   0.322   6.907
  806SOL     OW 3304   0.252   1.345   5.863
  806SOL    HW1 3305   0.157   1.345   5.848
  806SOL    HW2 3306   0.262   1.377   5.953
  807SOL     OW 3307   0.116   1.007   7.282
  807SOL    HW1 3308   0.052   1.048   7.340
  807SOL    HW2 3309   0.194   0.996   7.336
  808SOL     OW 3310   0.659   0.208   7.082
  808SOL    HW1 3311   0.738   0.181   7.036
  808SOL    HW2 3312   0.687   0.223   7.172
  809SOL     OW 3313   0.071   0.320   5.612
  809SOL    HW1 3314   4.476   0.329   5.624
  809SOL    HW2 3315   0.099   0.407   5.582
  810SOL     OW 3316   1.431   0.858   6.987
  810SOL    HW1 3317   1.382   0.918   6.931
  810SOL    HW2 3318   1.521   0.861   6.953
  811SOL     OW 3319   0.084   0.188   5.889
  811SOL    HW1 3320   0.078   0.260   5.826
  811SOL    HW2 3321   0.163   0.140   5.863
  812SOL     OW 3322   1.179   1.339   5.701
  812SOL    HW1 3323   1.088   1.311   5.703
  812SOL    HW2 3324   1.206   1.338   5.793
  813SOL     OW 3325   0.622   0.830   7.014
  813SOL    HW1 3326   0.676   0.908   7.002
  813SOL    HW2 3327   0.684   0.759   7.024
  814SOL     OW 3328   0.715   0.561   7.291
  814SOL    HW1 3329   0.748   0.628   7.350
  814SOL    HW2 3330   0.753   0.480   7.323
  815SOL     OW 3331   1.470   1.202   7.219
  815SOL    HW1 3332   1.458   1.215   7.313
  815SOL    HW2 3333   1.563   1.215   7.204
  816SOL     OW 3334   0.381   1.743   7.150
  816SOL    HW1 3335   0.296   1.783   7.133
  816SOL    HW2 3336   0.361   1.662   7.197
  817SOL     OW 3337   1.671   0.882   6.841
  817SOL    HW1 3338   1.662   0.797   6.798
  817SOL    HW2 3339   1.662   0.946   6.771
  818SOL     OW 3340   1.218   0.329   6.034
  818SOL    HW1 3341   1.283   0.259   6.024
  818SOL    HW2 3342   1.245   0.376   6.113
  819SOL     OW 3343   0.588   0.739   6.255
  819SOL    HW1 3344   0.629   0.824   6.239
  819SOL    HW2 3345   0.519   0.732   6.189
  820SOL     OW 3346   1.764   0.363   7.229
  820SOL    HW1 3347   1.748   0.377   7.136
  820SOL    HW2 3348   1.686   0.318   7.261
  821SOL     OW 3349   1.744   0.934   7.098
  821SOL    HW1 3350   1.744   1.028   7.112
  821SOL    HW2 3351   1.729   0.922   7.005
  822SOL     OW 3352   0.865   1.368   5.618
  822SOL    HW1 3353   0.824   1.394   5.701
  822SOL    HW2 3354   0.881   1.451   5.573
  823SOL     OW 3355   0.660   1.793   6.532
  823SOL    HW1 3356   0.638   1.883   6.508
  823SOL    HW2 3357   0.755   1.788   6.525
  824SOL     OW 3358   0.867   0.967   6.441
  824SOL    HW1 3359   0.917   0.895   6.481
  824SOL    HW2 3360   0.833   1.016   6.516
  825SOL     OW 3361   1.081   0.989   5.675
  825SOL    HW1 3362   1.058   1.038   5.596
  825SOL    HW2 3363   1.155   0.935   5.649
  826SOL     OW 3364   0.229   1.306   7.443
  826SOL    HW1 3365   0.158   1.247   7.419
  826SOL    HW2 3366   0.222   1.316   7.538
  827SOL     OW 3367   0.104   1.238   6.253
  827SOL    HW1 3368   0.110   1.189   6.335
  827SOL    HW2 3369   0.164   1.194   6.193
  828SOL     OW 3370   0.681   1.401   7.213
  828SOL    HW1 3371   0.601   1.357   7.241
  828SOL    HW2 3372   0.675   1.489   7.250
  829SOL     OW 3373   1.810   0.183   6.825
  829SOL    HW1 3374   1.808   0.089   6.846
  829SOL    HW2 3375   1.825   0.186   6.730
  830SOL     OW 3376   0.439   0.431   6.116
  830SOL    HW1 3377   0.458   0.361   6.054
  830SOL    HW2 3378   0.381   0.392   6.181
  831SOL     OW 3379   1.698   1.495   6.686
  831SOL    HW1 3380   1.621   1.468   6.636
  831SOL    HW2 3381   1.713   1.423   6.747
  832SOL     OW 3382   0.313   0.505   6.842
  832SOL    HW1 3383   0.384   0.456   6.882
  832SOL    HW2 3384   0.338   0.514   6.750
  833SOL     OW 3385   0.826   1.577   6.264
  833SOL    HW1 3386   0.817   1.626   6.183
  833SOL    HW2 3387   0.748   1.522   6.269
  834SOL     OW 3388   1.432   0.215   6.704
  834SOL    HW1 3389   1.468   0.145   6.758
  834SOL    HW2 3390   1.381   0.269   6.765
  835SOL     OW 3391   0.997   0.010   6.735
  835SOL    HW1 3392   0.952   4.426   6.725
  835SOL    HW2 3393   1.089   4.487   6.748
  836SOL     OW 3394   0.772   1.332   5.897
  836SOL    HW1 3395   0.738   1.242   5.904
  836SOL    HW2 3396   0.853   1.331   5.947
  837SOL     OW 3397   0.621   1.557   6.871
  837SOL    HW1 3398   0.623   1.639   6.921
  837SOL    HW2 3399   0.708   1.550   6.832
  838SOL     OW 3400   1.341   0.053   5.738
  838SOL    HW1 3401   1.381   4.478   5.694
  838SOL    HW2 3402   1.266   0.017   5.785
  839SOL     OW 3403   1.314   0.462   6.265
  839SOL    HW1 3404   1.253   0.536   6.266
  839SOL    HW2 3405   1.302   0.420   6.350
  840SOL     OW 3406   1.586   0.201   6.454
  840SOL    HW1 3407   1.525   0.216   6.526
  840SOL    HW2 3408   1.588   0.285   6.407
  841SOL     OW 3409   0.041   1.053   5.873
  841SOL    HW1 3410   0.136   1.039   5.865
  841SOL    HW2 3411   0.019   1.016   5.959
  842SOL     OW 3412   0.882   1.650   5.930
  842SOL    HW1 3413   0.810   1.632   5.869
  842SOL    HW2 3414   0.852   1.725   5.981
  843SOL     OW 3415   0.247   0.626   7.568
  843SOL    HW1 3416   0.172   0.609   7.624
  843SOL    HW2 3417   0.215   0.611   7.479
  844SOL     OW 3418   0.195   0.293   8.438
  844SOL    HW1 3419   0.231   0.269   8.523
  844SOL    HW2 3420   0.132   0.224   8.418
  845SOL     OW 3421   0.005   0.379   8.090
  845SOL    HW1 3422   4.427   0.416   8.129
  845SOL    HW2 3423   4.473   0.307   8.034
  846SOL     OW 3424   0.567   1.284   8.621
  846SOL    HW1 3425   0.479   1.289   8.583
  846SOL    HW2 3426   0.583   1.372   8.657
  847SOL     OW 3427   1.559   1.512   8.155
  847SOL    HW1 3428   1.516   1.493   8.238
  847SOL    HW2 3429   1.487   1.516   8.091
  848SOL     OW 3430   1.133   0.699   8.148
  848SOL    HW1 3431   1.180   0.782   8.137
  848SOL    HW2 3432   1.083   0.711   8.229
  849SOL     OW 3433   1.765   0.608   7.677
  849SOL    HW1 3434   1.746   0.598   7.584
  849SOL    HW2 3435   1.733   0.528   7.717
  850SOL     OW 3436   0.757   1.143   8.487
  850SOL    HW1 3437   0.688   1.178   8.543
  850SOL    HW2 3438   0.792   1.221   8.442
  851SOL     OW 3439   0.864   0.777   9.269
  851SOL    HW1 3440   0.850   0.848   9.331
  851SOL    HW2 3441   0.887   0.821   9.187
  852SOL     OW 3442   0.686   1.006   8.096
  852SOL    HW1 3443   0.751   0.992   8.165
  852SOL    HW2 3444   0.616   1.056   8.139
  853SOL     OW 3445   0.709   1.151   9.259
  853SOL    HW1 3446   0.756   1.230   9.284
  853SOL    HW2 3447   0.626   1.182   9.224
  854SOL     OW 3448   0.336   1.423   8.518
  854SOL    HW1 3449   0.255   1.403   8.471
  854SOL    HW2 3450   0.386   1.477   8.457
  855SOL     OW 3451   1.461   1.499   8.799
  855SOL    HW1 3452   1.509   1.581   8.809
  855SOL    HW2 3453   1.404   1.495   8.876
  856SOL     OW 3454   0.437   0.395   8.940
  856SOL    HW1 3455   0.526   0.360   8.942
  856SOL    HW2 3456   0.381   0.320   8.958
  857SOL     OW 3457   1.612   0.447   8.186
  857SOL    HW1 3458   1.532   0.470   8.139
  857SOL    HW2 3459   1.632   0.525   8.239
  858SOL     OW 3460   0.245   1.692   7.926
  858SOL    HW1 3461   0.232   1.776   7.969
  858SOL    HW2 3462   0.310   1.709   7.858
  859SOL     OW 3463   1.136   1.341   9.140
  859SOL    HW1 3464   1.176   1.337   9.227
  859SOL    HW2 3465   1.083   1.261   9.134
  860SOL     OW 3466   0.246   1.427   7.976
  860SOL    HW1 3467   0.238   1.522   7.980
  860SOL    HW2 3468   0.182   1.395   8.039
  861SOL     OW 3469   0.245   1.081   8.331
  861SOL    HW1 3470   0.263   0.993   8.363
  861SOL    HW2 3471   0.187   1.119   8.397
  862SOL     OW 3472   0.615   1.791   8.880
  862SOL    HW1 3473   0.531   1.773   8.923
  862SOL    HW2 3474   0.636   1.881   8.903
  863SOL     OW 3475   0.582   0.985   7.584
  863SOL    HW1 3476   0.628   1.030   7.514
  863SOL    HW2 3477   0.627   1.013   7.664
  864SOL     OW 3478   1.584   0.115   8.921
  864SOL    HW1 3479   1.600   0.184   8.856
  864SOL    HW2 3480   1.574   0.161   9.004
  865SOL     OW 3481   0.136   0.642   8.022
  865SOL    HW1 3482   0.083   0.564   8.038
  865SOL    HW2 3483   0.107   0.704   8.090
  866SOL     OW 3484   1.841   1.773   7.787
  866SOL    HW1 3485   1.896   1.735   7.855
  866SOL    HW2 3486   1.894   1.843   7.750
  867SOL     OW 3487   0.033   1.601   7.586
  867SOL    HW1 3488   0.021   1.506   7.585
  867SOL    HW2 3489   0.015   1.627   7.676
  868SOL     OW 3490   1.691   0.920   8.087
  868SOL    HW1 3491   1.775   0.879   8.067
  868SOL    HW2 3492   1.669   0.969   8.008
  869SOL     OW 3493   1.645   1.108   7.877
  869SOL    HW1 3494   1.731   1.115   7.835
  869SOL    HW2 3495   1.650   1.168   7.951
  870SOL     OW 3496   0.106   0.762   9.033
  870SOL    HW1 3497   0.199   0.760   9.011
  870SOL    HW2 3498   0.086   0.855   9.046
  871SOL     OW 3499   0.613   1.383   8.184
  871SOL    HW1 3500   0.566   1.300   8.193
  871SOL    HW2 3501   0.597   1.410   8.093
  872SOL     OW 3502   1.290   1.238   8.872
  872SOL    HW1 3503   1.322   1.171   8.812
  872SOL    HW2 3504   1.346   1.231   8.949
  873SOL     OW 3505   0.818   0.012   7.997
  873SOL    HW1 3506   0.852   0.098   7.973
  873SOL    HW2 3507   0.724   0.020   7.986
  874SOL     OW 3508   0.181   0.942   8.727
  874SOL    HW1 3509   0.273   0.925   8.706
  874SOL    HW2 3510   0.133   0.923   8.647
  875SOL     OW 3511   1.532   0.992   7.645
  875SOL    HW1 3512   1.461   0.935   7.676
  875SOL    HW2 3513   1.572   1.026   7.725
  876SOL     OW 3514   1.185   1.805   9.069
  876SOL    HW1 3515   1.200   1.862   8.994
  876SOL    HW2 3516   1.201   1.716   9.035
  877SOL     OW 3517   0.318   0.260   9.219
  877SOL    HW1 3518   0.386   0.312   9.261
  877SOL    HW2 3519   0.242   0.268   9.277
  878SOL     OW 3520   1.465   1.419   8.400
  878SOL    HW1 3521   1.397   1.434   8.466
  878SOL    HW2 3522   1.453   1.328   8.373
  879SOL     OW 3523   1.659   1.733   8.026
  879SOL    HW1 3524   1.634   1.704   7.938
  879SOL    HW2 3525   1.634   1.661   8.083
  880SOL     OW 3526   0.596   0.723   7.713
  880SOL    HW1 3527   0.600   0.804   7.661
  880SOL    HW2 3528   0.530   0.741   7.780
  881SOL     OW 3529   1.291   0.360   8.382
  881SOL    HW1 3530   1.201   0.329   8.366
  881SOL    HW2 3531   1.327   0.297   8.444
  882SOL     OW 3532   1.581   1.668   7.757
  882SOL    HW1 3533   1.668   1.707   7.749
  882SOL    HW2 3534   1.554   1.651   7.667
  883SOL     OW 3535   0.797   0.617   8.902
  883SOL    HW1 3536   0.769   0.593   8.991
  883SOL    HW2 3537   0.753   0.554   8.845
  884SOL     OW 3538   1.389   0.478   9.124
  884SOL    HW1 3539   1.391   0.522   9.209
  884SOL    HW2 3540   1.456   0.410   9.130
  885SOL     OW 3541   0.957   0.888   9.029
  885SOL    HW1 3542   1.011   0.817   8.995
  885SOL    HW2 3543   0.910   0.922   8.953
  886SOL     OW 3544   0.997   0.417   8.685
  886SOL    HW1 3545   0.911   0.428   8.726
  886SOL    HW2 3546   0.979   0.365   8.606
  887SOL     OW 3547   1.049   0.698   7.875
  887SOL    HW1 3548   1.065   0.690   7.970
  887SOL    HW2 3549   0.967   0.651   7.861
  888SOL     OW 3550   0.098   0.824   8.231
  888SOL    HW1 3551   0.185   0.806   8.268
  888SOL    HW2 3552   0.049   0.864   8.303
  889SOL     OW 3553   0.124   1.855   9.024
  889SOL    HW1 3554   0.118   1.831   9.117
  889SOL    HW2 3555   0.045   1.817   8.984
  890SOL     OW 3556   0.853   0.368   7.626
  890SOL    HW1 3557   0.928   0.403   7.579
  890SOL    HW2 3558   0.871   0.274   7.633
  891SOL     OW 3559   1.705   0.575   9.276
  891SOL    HW1 3560   1.670   0.651   9.230
  891SOL    HW2 3561   1.740   0.518   9.207
  892SOL     OW 3562   1.376   1.143   7.990
  892SOL    HW1 3563   1.454   1.129   7.936
  892SOL    HW2 3564   1.323   1.205   7.939
  893SOL     OW 3565   0.543   0.203   8.349
  893SOL    HW1 3566   0.562   0.222   8.441
  893SOL    HW2 3567   0.534   0.289   8.308
  894SOL     OW 3568   1.008   1.445   7.921
  894SOL    HW1 3569   0.968   1.517   7.872
  894SOL    HW2 3570   0.991   1.467   8.013
  895SOL     OW 3571   0.355   1.809   8.305
  895SOL    HW1 3572   0.398   1.724   8.315
  895SOL    HW2 3573   0.425   1.872   8.320
  896SOL     OW 3574   1.798   1.059   8.315
  896SOL    HW1 3575   1.742   1.041   8.239
  896SOL    HW2 3576   1.738   1.064   8.389
  897SOL     OW 3577   1.228   1.539   8.961
  897SOL    HW1 3578   1.214   1.466   9.021
  897SOL    HW2 3579   1.167   1.523   8.889
  898SOL     OW 3580   0.317   0.954   7.699
  898SOL    HW1 3581   0.401   0.977   7.660
  898SOL    HW2 3582   0.300   0.865   7.670
  899SOL     OW 3583   1.478   0.740   8.173
  899SOL    HW1 3584   1.465   0.695   8.256
  899SOL    HW2 3585   1.554   0.796   8.188
  900SOL     OW 3586   0.466   1.262   9.183
  900SOL    HW1 3587   0.439   1.268   9.092
  900SOL    HW2 3588   0.385   1.267   9.233
  901SOL     OW 3589   1.121   1.777   7.680
  901SOL    HW1 3590   1.049   1.735   7.726
  901SOL    HW2 3591   1.143   1.717   7.609
  902SOL     OW 3592   0.165   0.264   8.957
  902SOL    HW1 3593   0.136   0.351   8.930
  902SOL    HW2 3594   0.198   0.276   9.046
  903SOL     OW 3595   1.629   1.380   7.535
  903SOL    HW1 3596   1.587   1.465   7.519
  903SOL    HW2 3597   1.561   1.316   7.517
  904SOL     OW 3598   0.469   1.743   7.762
  904SOL    HW1 3599   0.509   1.797   7.831
  904SOL    HW2 3600   0.543   1.711   7.711
  905SOL     OW 3601   1.418   0.135   7.866
  905SOL    HW1 3602   1.401   0.085   7.786
  905SOL    HW2 3603   1.513   0.131   7.877
  906SOL     OW 3604   0.257   1.790   8.683
  906SOL    HW1 3605   0.305   1.717   8.721
  906SOL    HW2 3606   0.228   1.758   8.598
  907SOL     OW 3607   0.938   1.699   8.348
  907SOL    HW1 3608   1.015   1.646   8.369
  907SOL    HW2 3609   0.893   1.649   8.279
  908SOL     OW 3610   0.393   0.694   7.921
  908SOL    HW1 3611   0.418   0.602   7.933
  908SOL    HW2 3612   0.301   0.697   7.948
  909SOL     OW 3613   1.526   0.233   9.170
  909SOL    HW1 3614   1.525   0.256   9.263
  909SOL    HW2 3615   1.449   0.176   9.159
  910SOL     OW 3616   0.623   0.122   7.565
  910SOL    HW1 3617   0.711   0.087   7.577
  910SOL    HW2 3618   0.594   0.085   7.482
  911SOL     OW 3619   0.769   0.269   9.201
  911SOL    HW1 3620   0.835   0.201   9.214
  911SOL    HW2 3621   0.726   0.277   9.287
  912SOL     OW 3622   0.877   1.521   8.641
  912SOL    HW1 3623   0.861   1.485   8.554
  912SOL    HW2 3624   0.946   1.466   8.678
  913SOL     OW 3625   1.342   0.589   8.877
  913SOL    HW1 3626   1.370   0.560   8.964
  913SOL    HW2 3627   1.376   0.678   8.870
  914SOL     OW 3628   0.814   1.397   8.385
  914SOL    HW1 3629   0.898   1.386   8.341
  914SOL    HW2 3630   0.749   1.396   8.315
  915SOL     OW 3631   0.922   0.516   8.349
  915SOL    HW1 3632   0.906   0.515   8.255
  915SOL    HW2 3633   0.962   0.431   8.368
  916SOL     OW 3634   0.560   0.068   7.957
  916SOL    HW1 3635   0.472   0.054   7.994
  916SOL    HW2 3636   0.548   0.139   7.894
  917SOL     OW 3637   1.429   1.198   7.490
  917SOL    HW1 3638   1.459   1.122   7.539
  917SOL    HW2 3639   1.343   1.218   7.526
  918SOL     OW 3640   0.303   0.075   7.634
  918SOL    HW1 3641   0.387   0.122   7.630
  918SOL    HW2 3642   0.320   4.499   7.689
  919SOL     OW 3643   0.951   0.240   7.919
  919SOL    HW1 3644   0.899   0.292   7.857
  919SOL    HW2 3645   1.040   0.276   7.911
  920SOL     OW 3646   1.080   0.680   8.909
  920SOL    HW1 3647   1.009   0.616   8.910
  920SOL    HW2 3648   1.159   0.628   8.897
  921SOL     OW 3649   1.225   1.569   8.241
  921SOL    HW1 3650   1.242   1.637   8.176
  921SOL    HW2 3651   1.292   1.582   8.308
  922SOL     OW 3652   0.465   1.148   8.185
  922SOL    HW1 3653   0.394   1.129   8.246
  922SOL    HW2 3654   0.428   1.132   8.098
  923SOL     OW 3655   1.270   1.794   8.055
  923SOL    HW1 3656   1.314   1.856   7.996
  923SOL    HW2 3657   1.205   1.847   8.100
  924SOL     OW 3658   1.030   0.549   7.463
  924SOL    HW1 3659   0.982   0.630   7.448
  924SOL    HW2 3660   1.088   0.569   7.536
  925SOL     OW 3661   0.092   0.521   8.860
  925SOL    HW1 3662   0.152   0.531   8.786
  925SOL    HW2 3663   0.061   0.610   8.877
  926SOL     OW 3664   0.563   0.243   8.614
  926SOL    HW1 3665   0.593   0.159   8.647
  926SOL    HW2 3666   0.469   0.244   8.633
  927SOL     OW 3667   0.866   0.502   8.074
  927SOL    HW1 3668   0.817   0.544   8.003
  927SOL    HW2 3669   0.842   0.410   8.068
  928SOL     OW 3670   0.967   0.029   8.227
  928SOL    HW1 3671   0.918   0.026   8.144
  928SOL    HW2 3672   0.979   4.437   8.251
  929SOL     OW 3673   1.436   1.163   8.305
  929SOL    HW1 3674   1.368   1.096   8.305
  929SOL    HW2 3675   1.458   1.175   8.213
  930SOL     OW 3676   1.467   0.603   8.425
  930SOL    HW1 3677   1.415   0.523   8.428
  930SOL    HW2 3678   1.525   0.597   8.501
  931SOL     OW 3679   1.847   0.818   7.830
  931SOL    HW1 3680   1.903   0.766   7.888
  931SOL    HW2 3681   1.818   0.757   7.763
  932SOL     OW 3682   0.492   1.415   7.609
  932SOL    HW1 3683   0.416   1.386   7.658
  932SOL    HW2 3684   0.472   1.392   7.518
  933SOL     OW 3685   1.670   1.266   8.094
  933SOL    HW1 3686   1.764   1.271   8.109
  933SOL    HW2 3687   1.637   1.353   8.117
  934SOL     OW 3688   1.394   0.570   7.518
  934SOL    HW1 3689   1.333   0.554   7.590
  934SOL    HW2 3690   1.480   0.550   7.554
  935SOL     OW 3691   0.523   0.264   7.770
  935SOL    HW1 3692   0.569   0.214   7.703
  935SOL    HW2 3693   0.508   0.350   7.729
  936SOL     OW 3694   1.754   1.237   9.024
  936SOL    HW1 3695   1.841   1.199   9.019
  936SOL    HW2 3696   1.769   1.327   9.052
  937SOL     OW 3697   1.060   1.353   8.782
  937SOL    HW1 3698   0.985   1.323   8.833
  937SOL    HW2 3699   1.136   1.312   8.823
  938SOL     OW 3700   1.607   1.624   9.100
  938SOL    HW1 3701   1.603   1.660   9.011
  938SOL    HW2 3702   1.691   1.578   9.103
  939SOL     OW 3703   1.127   1.202   8.555
  939SOL    HW1 3704   1.068   1.240   8.620
  939SOL    HW2 3705   1.093   1.233   8.471
  940SOL     OW 3706   1.630   1.099   8.526
  940SOL    HW1 3707   1.626   1.161   8.599
  940SOL    HW2 3708   1.550   1.115   8.476
  941SOL     OW 3709   0.903   0.132   8.837
  941SOL    HW1 3710   0.925   0.087   8.755
  941SOL    HW2 3711   0.987   0.145   8.881
  942SOL     OW 3712   0.984   1.114   9.171
  942SOL    HW1 3713   0.892   1.130   9.191
  942SOL    HW2 3714   0.984   1.037   9.114
  943SOL     OW 3715   0.708   1.060   7.820
  943SOL    HW1 3716   0.696   1.046   7.914
  943SOL    HW2 3717   0.784   1.007   7.798
  944SOL     OW 3718   0.429   0.824   8.688
  944SOL    HW1 3719   0.497   0.834   8.754
  944SOL    HW2 3720   0.370   0.758   8.724
  945SOL     OW 3721   1.269   0.376   8.720
  945SOL    HW1 3722   1.301   0.455   8.765
  945SOL    HW2 3723   1.180   0.399   8.693
  946SOL     OW 3724   0.062   1.576   8.789
  946SOL    HW1 3725   0.034   1.664   8.764
  946SOL    HW2 3726   0.157   1.581   8.795
  947SOL     OW 3727   0.349   1.107   7.941
  947SOL    HW1 3728   0.358   1.181   7.881
  947SOL    HW2 3729   0.351   1.030   7.885
  948SOL     OW 3730   0.564   0.528   8.302
  948SOL    HW1 3731   0.576   0.589   8.229
  948SOL    HW2 3732   0.623   0.561   8.370
  949SOL     OW 3733   1.248   1.348   7.837
  949SOL    HW1 3734   1.303   1.420   7.868
  949SOL    HW2 3735   1.161   1.369   7.871
  950SOL     OW 3736   1.278   1.456   8.594
  950SOL    HW1 3737   1.334   1.459   8.672
  950SOL    HW2 3738   1.223   1.379   8.607
  951SOL     OW 3739   1.583   0.624   7.924
  951SOL    HW1 3740   1.537   0.676   7.990
  951SOL    HW2 3741   1.627   0.689   7.869
  952SOL     OW 3742   0.348   1.530   8.765
  952SOL    HW1 3743   0.333   1.483   8.682
  952SOL    HW2 3744   0.443   1.540   8.770
  953SOL     OW 3745   0.481   0.761   9.114
  953SOL    HW1 3746   0.506   0.799   9.031
  953SOL    HW2 3747   0.516   0.672   9.111
  954SOL     OW 3748   1.599   0.777   9.127
  954SOL    HW1 3749   1.513   0.819   9.121
  954SOL    HW2 3750   1.651   0.820   9.060
  955SOL     OW 3751   1.006   0.086   9.171
  955SOL    HW1 3752   1.032   0.170   9.133
  955SOL    HW2 3753   1.032   0.021   9.106
  956SOL     OW 3754   0.496   0.045   9.198
  956SOL    HW1 3755   0.479   4.497   9.117
  956SOL    HW2 3756   0.429   0.114   9.200
  957SOL     OW 3757   0.588   0.874   8.471
  957SOL    HW1 3758   0.618   0.965   8.474
  957SOL    HW2 3759   0.532   0.865   8.549
  958SOL     OW 3760   1.360   0.859   8.480
  958SOL    HW1 3761   1.277   0.851   8.432
  958SOL    HW2 3762   1.398   0.771   8.475
  959SOL     OW 3763   1.206   0.535   7.713
  959SOL    HW1 3764   1.212   0.454   7.764
  959SOL    HW2 3765   1.163   0.597   7.771
  960SOL     OW 3766   0.285   0.219   8.682
  960SOL    HW1 3767   0.248   0.235   8.769
  960SOL    HW2 3768   0.323   0.131   8.689
  961SOL     OW 3769   0.044   1.313   8.733
  961SOL    HW1 3770   0.077   1.266   8.809
  961SOL    HW2 3771   0.047   1.405   8.758
  962SOL     OW 3772   0.725   0.632   8.507
  962SOL    HW1 3773   0.798   0.611   8.450
  962SOL    HW2 3774   0.699   0.720   8.482
  963SOL     OW 3775   1.734   0.959   9.300
  963SOL    HW1 3776   1.686   0.902   9.239
  963SOL    HW2 3777   1.674   0.971   9.373
  964SOL     OW 3778   0.319   0.075   8.079
  964SOL    HW1 3779   0.301   0.163   8.112
  964SOL    HW2 3780   0.306   0.018   8.155
  965SOL     OW 3781   1.612   0.376   7.813
  965SOL    HW1 3782   1.643   0.313   7.878
  965SOL    HW2 3783   1.590   0.454   7.863
  966SOL     OW 3784   1.028   0.761   8.410
  966SOL    HW1 3785   1.026   0.777   8.504
  966SOL    HW2 3786   0.999   0.670   8.401
  967SOL     OW 3787   0.983   1.566   9.163
  967SOL    HW1 3788   0.967   1.610   9.080
  967SOL    HW2 3789   1.025   1.484   9.140
  968SOL     OW 3790   1.856   1.505   9.054
  968SOL    HW1 3791   1.869   1.534   8.963
  968SOL    HW2 3792   1.937   1.529   9.098
  969SOL     OW 3793   0.347   0.932   9.266
  969SOL    HW1 3794   0.420   0.961   9.321
  969SOL    HW2 3795   0.385   0.865   9.208
  970SOL     OW 3796   1.531   0.266   7.576
  970SOL    HW1 3797   1.459   0.210   7.604
  970SOL    HW2 3798   1.560   0.311   7.656
  971SOL     OW 3799   1.293   0.827   7.480
  971SOL    HW1 3800   1.335   0.741   7.482
  971SOL    HW2 3801   1.324   0.866   7.398
  972SOL     OW 3802   1.065   1.335   8.301
  972SOL    HW1 3803   1.068   1.262   8.239
  972SOL    HW2 3804   1.128   1.399   8.266
  973SOL     OW 3805   0.317   0.813   8.397
  973SOL    HW1 3806   0.412   0.830   8.393
  973SOL    HW2 3807   0.311   0.722   8.427
  974SOL     OW 3808   0.336   0.528   8.440
  974SOL    HW1 3809   0.291   0.446   8.421
  974SOL    HW2 3810   0.413   0.527   8.384
  975SOL     OW 3811   1.135   0.375   9.142
  975SOL    HW1 3812   1.087   0.439   9.194
  975SOL    HW2 3813   1.221   0.414   9.129
  976SOL     OW 3814   1.159   0.212   8.921
  976SOL    HW1 3815   1.152   0.276   8.992
  976SOL    HW2 3816   1.196   0.261   8.848
  977SOL     OW 3817   4.492   1.323   7.651
  977SOL    HW1 3818   4.399   1.338   7.633
  977SOL    HW2 3819   4.497   1.230   7.674
  978SOL     OW 3820   0.096   1.779   8.388
  978SOL    HW1 3821   0.058   1.722   8.321
  978SOL    HW2 3822   0.183   1.799   8.355
  979SOL     OW 3823   0.498   1.573   8.354
  979SOL    HW1 3824   0.566   1.636   8.378
  979SOL    HW2 3825   0.542   1.509   8.299
  980SOL     OW 3826   0.987   0.794   8.676
  980SOL    HW1 3827   1.040   0.770   8.751
  980SOL    HW2 3828   0.901   0.757   8.694
  981SOL     OW 3829   0.039   0.567   8.559
  981SOL    HW1 3830   0.114   0.523   8.518
  981SOL    HW2 3831   0.021   0.515   8.637
  982SOL     OW 3832   0.180   0.521   9.159
  982SOL    HW1 3833   0.266   0.503   9.122
  982SOL    HW2 3834   0.151   0.601   9.117
  983SOL     OW 3835   1.377   0.940   9.107
  983SOL    HW1 3836   1.397   1.034   9.106
  983SOL    HW2 3837   1.374   0.916   9.015
  984SOL     OW 3838   0.812   0.573   7.801
  984SOL    HW1 3839   0.814   0.501   7.738
  984SOL    HW2 3840   0.738   0.627   7.773
  985SOL     OW 3841   1.641   0.601   8.636
  985SOL    HW1 3842   1.631   0.542   8.710
  985SOL    HW2 3843   1.728   0.581   8.602
  986SOL     OW 3844   0.271   1.562   9.189
  986SOL    HW1 3845   0.217   1.614   9.248
  986SOL    HW2 3846   0.252   1.471   9.212
  987SOL     OW 3847   0.684   0.464   8.715
  987SOL    HW1 3848   0.647   0.383   8.679
  987SOL    HW2 3849   0.692   0.522   8.640
  988SOL     OW 3850   0.929   1.679   8.915
  988SOL    HW1 3851   0.903   1.647   8.829
  988SOL    HW2 3852   0.927   1.774   8.906
  989SOL     OW 3853   0.473   0.491   7.633
  989SOL    HW1 3854   0.532   0.562   7.655
  989SOL    HW2 3855   0.388   0.533   7.618
  990SOL     OW 3856   0.162   1.141   8.910
  990SOL    HW1 3857   0.147   1.094   8.993
  990SOL    HW2 3858   0.170   1.072   8.845
  991SOL     OW 3859   1.328   1.048   8.672
  991SOL    HW1 3860   1.351   0.985   8.604
  991SOL    HW2 3861   1.256   1.099   8.634
  992SOL     OW 3862   1.310   0.856   7.755
  992SOL    HW1 3863   1.234   0.827   7.805
  992SOL    HW2 3864   1.285   0.843   7.663
  993SOL     OW 3865   1.763   1.743   8.597
  993SOL    HW1 3866   1.826   1.773   8.532
  993SOL    HW2 3867   1.746   1.651   8.573
  994SOL     OW 3868   1.241   1.733   8.562
  994SOL    HW1 3869   1.323   1.752   8.518
  994SOL    HW2 3870   1.245   1.639   8.581
  995SOL     OW 3871   0.067   1.186   8.497
  995SOL    HW1 3872   0.070   1.220   8.586
  995SOL    HW2 3873   0.016   1.251   8.448
  996SOL     OW 3874   0.679   1.664   9.175
  996SOL    HW1 3875   0.625   1.743   9.170
  996SOL    HW2 3876   0.742   1.674   9.103
  997SOL     OW 3877   1.718   0.130   7.944
  997SOL    HW1 3878   1.791   0.136   7.882
  997SOL    HW2 3879   1.741   0.056   8.000
  998SOL     OW 3880   1.390   1.567   7.932
  998SOL    HW1 3881   1.449   1.599   7.864
  998SOL    HW2 3882   1.341   1.645   7.960
  999SOL     OW 3883   0.119   1.808   9.296
  999SOL    HW1 3884   0.080   1.734   9.343
  999SOL    HW2 3885   0.183   1.844   9.357
 1000SOL     OW 3886   1.278   0.926   8.120
 1000SOL    HW1 3887   1.351   0.864   8.124
 1000SOL    HW2 3888   1.312   0.999   8.068
 1001SOL     OW 3889   0.817   1.273   8.879
 1001SOL    HW1 3890   0.790   1.311   8.962
 1001SOL    HW2 3891   0.746   1.295   8.818
 1002SOL     OW 3892   0.673   1.618   7.603
 1002SOL    HW1 3893   0.681   1.629   7.509
 1002SOL    HW2 3894   0.619   1.539   7.613
 1003SOL     OW 3895   1.627   1.725   8.839
 1003SOL    HW1 3896   1.676   1.734   8.757
 1003SOL    HW2 3897   1.615   1.815   8.869
 1004SOL     OW 3898   1.839   0.155   8.414
 1004SOL    HW1 3899   1.868   0.078   8.365
 1004SOL    HW2 3900   1.752   0.175   8.379
 1005SOL     OW 3901   0.265   0.325   8.172
 1005SOL    HW1 3902   0.183   0.360   8.138
 1005SOL    HW2 3903   0.250   0.317   8.266
 1006SOL     OW 3904   1.207   1.607   7.479
 1006SOL    HW1 3905   1.197   1.516   7.506
 1006SOL    HW2 3906   1.142   1.618   7.410
 1007SOL     OW 3907   0.825   1.006   8.820
 1007SOL    HW1 3908   0.868   1.003   8.734
 1007SOL    HW2 3909   0.825   1.099   8.843
 1008SOL     OW 3910   0.915   0.910   7.737
 1008SOL    HW1 3911   0.977   0.942   7.672
 1008SOL    HW2 3912   0.962   0.840   7.783
 1009SOL     OW 3913   1.494   1.625   7.490
 1009SOL    HW1 3914   1.399   1.620   7.478
 1009SOL    HW2 3915   1.529   1.631   7.402
 1010SOL     OW 3916   0.373   1.306   8.939
 1010SOL    HW1 3917   0.356   1.384   8.887
 1010SOL    HW2 3918   0.297   1.249   8.922
 1011SOL     OW 3919   1.611   1.283   8.729
 1011SOL    HW1 3920   1.672   1.276   8.802
 1011SOL    HW2 3921   1.551   1.353   8.754
 1012SOL     OW 3922   1.050   1.106   8.153
 1012SOL    HW1 3923   0.979   1.055   8.193
 1012SOL    HW2 3924   1.111   1.040   8.121
 1013SOL     OW 3925   1.006   0.242   8.449
 1013SOL    HW1 3926   1.012   0.216   8.357
 1013SOL    HW2 3927   1.000   0.160   8.497
 1014SOL     OW 3928   0.603   1.489   7.931
 1014SOL    HW1 3929   0.643   1.439   7.860
 1014SOL    HW2 3930   0.531   1.537   7.889
 1015SOL     OW 3931   1.720   0.393   8.825
 1015SOL    HW1 3932   1.792   0.456   8.825
 1015SOL    HW2 3933   1.750   0.322   8.769
 1016SOL     OW 3934   0.252   1.345   7.725
 1016SOL    HW1 3935   0.157   1.345   7.710
 1016SOL    HW2 3936   0.263   1.377   7.814
 1017SOL     OW 3937   0.116   1.007   9.144
 1017SOL    HW1 3938   0.052   1.048   9.202
 1017SOL    HW2 3939   0.194   0.996   9.198
 1018SOL     OW 3940   0.659   0.208   8.944
 1018SOL    HW1 3941   0.738   0.181   8.898
 1018SOL    HW2 3942   0.687   0.223   9.034
 1019SOL     OW 3943   0.071   0.320   7.474
 1019SOL    HW1 3944   4.476   0.329   7.486
 1019SOL    HW2 3945   0.099   0.407   7.443
 1020SOL     OW 3946   1.431   0.858   8.849
 1020SOL    HW1 3947   1.382   0.918   8.793
 1020SOL    HW2 3948   1.521   0.861   8.815
 1021SOL     OW 3949   0.084   0.188   7.751
 1021SOL    HW1 3950   0.078   0.260   7.688
 1021SOL    HW2 3951   0.163   0.140   7.725
 1022SOL     OW 3952   1.179   1.341   7.565
 1022SOL    HW1 3953   1.089   1.311   7.567
 1022SOL    HW2 3954   1.208   1.340   7.656
 1023SOL     OW 3955   0.622   0.830   8.876
 1023SOL    HW1 3956   0.676   0.908   8.864
 1023SOL    HW2 3957   0.684   0.759   8.886
 1024SOL     OW 3958   1.486   1.774   8.425
 1024SOL    HW1 3959   1.509   1.835   8.355
 1024SOL    HW2 3960   1.567   1.761   8.474
 1025SOL     OW 3961   0.715   0.561   9.153
 1025SOL    HW1 3962   0.748   0.629   9.212
 1025SOL    HW2 3963   0.753   0.480   9.185
 1026SOL     OW 3964   1.470   1.202   9.081
 1026SOL    HW1 3965   1.458   1.215   9.175
 1026SOL    HW2 3966   1.563   1.215   9.066
 1027SOL     OW 3967   0.381   1.743   9.012
 1027SOL    HW1 3968   0.296   1.783   8.995
 1027SOL    HW2 3969   0.361   1.662   9.059
 1028SOL     OW 3970   1.671   0.882   8.703
 1028SOL    HW1 3971   1.662   0.797   8.660
 1028SOL    HW2 3972   1.662   0.946   8.633
 1029SOL     OW 3973   1.218   0.328   7.896
 1029SOL    HW1 3974   1.283   0.259   7.886
 1029SOL    HW2 3975   1.245   0.376   7.975
 1030SOL     OW 3976   0.588   0.739   8.117
 1030SOL    HW1 3977   0.629   0.824   8.101
 1030SOL    HW2 3978   0.519   0.732   8.051
 1031SOL     OW 3979   1.764   0.363   9.091
 1031SOL    HW1 3980   1.748   0.376   8.998
 1031SOL    HW2 3981   1.686   0.318   9.123
 1032SOL     OW 3982   1.744   0.933   8.961
 1032SOL    HW1 3983   1.745   1.028   8.974
 1032SOL    HW2 3984   1.729   0.923   8.867
 1033SOL     OW 3985   0.863   1.368   7.480
 1033SOL    HW1 3986   0.824   1.394   7.563
 1033SOL    HW2 3987   0.881   1.450   7.434
 1034SOL     OW 3988   0.660   1.793   8.395
 1034SOL    HW1 3989   0.638   1.883   8.370
 1034SOL    HW2 3990   0.755   1.788   8.386
 1035SOL     OW 3991   0.867   0.966   8.303
 1035SOL    HW1 3992   0.917   0.895   8.343
 1035SOL    HW2 3993   0.833   1.016   8.378
 1036SOL     OW 3994   1.080   0.988   7.537
 1036SOL    HW1 3995   1.057   1.038   7.459
 1036SOL    HW2 3996   1.155   0.935   7.511
 1037SOL     OW 3997   1.855   1.548   8.288
 1037SOL    HW1 3998   1.772   1.541   8.240
 1037SOL    HW2 3999   1.845   1.489   8.363
 1038SOL     OW 4000   0.229   1.306   9.305
 1038SOL    HW1 4001   0.158   1.246   9.281
 1038SOL    HW2 4002   0.222   1.316   9.400
 1039SOL     OW 4003   0.103   1.238   8.115
 1039SOL    HW1 4004   0.111   1.188   8.197
 1039SOL    HW2 4005   0.164   1.194   8.055
 1040SOL     OW 4006   0.681   1.401   9.075
 1040SOL    HW1 4007   0.601   1.357   9.103
 1040SOL    HW2 4008   0.675   1.489   9.112
 1041SOL     OW 4009   1.810   0.183   8.687
 1041SOL    HW1 4010   1.808   0.089   8.708
 1041SOL    HW2 4011   1.825   0.186   8.592
 1042SOL     OW 4012   0.439   0.431   7.978
 1042SOL    HW1 4013   0.458   0.361   7.916
 1042SOL    HW2 4014   0.381   0.391   8.043
 1043SOL     OW 4015   1.704   1.486   8.541
 1043SOL    HW1 4016   1.620   1.463   8.501
 1043SOL    HW2 4017   1.717   1.421   8.610
 1044SOL     OW 4018   0.312   0.505   8.704
 1044SOL    HW1 4019   0.384   0.456   8.744
 1044SOL    HW2 4020   0.338   0.514   8.612
 1045SOL     OW 4021   0.826   1.578   8.127
 1045SOL    HW1 4022   0.817   1.627   8.045
 1045SOL    HW2 4023   0.748   1.522   8.130
 1046SOL     OW 4024   1.432   0.215   8.566
 1046SOL    HW1 4025   1.468   0.145   8.620
 1046SOL    HW2 4026   1.381   0.269   8.627
 1047SOL     OW 4027   0.997   0.010   8.598
 1047SOL    HW1 4028   0.952   4.426   8.587
 1047SOL    HW2 4029   1.089   4.487   8.609
 1048SOL     OW 4030   0.772   1.332   7.759
 1048SOL    HW1 4031   0.739   1.242   7.766
 1048SOL    HW2 4032   0.854   1.332   7.809
 1049SOL     OW 4033   0.621   1.557   8.733
 1049SOL    HW1 4034   0.623   1.639   8.783
 1049SOL    HW2 4035   0.708   1.550   8.694
 1050SOL     OW 4036   1.341   0.053   7.600
 1050SOL    HW1 4037   1.381   4.478   7.556
 1050SOL    HW2 4038   1.266   0.017   7.647
 1051SOL     OW 4039   1.314   0.462   8.127
 1051SOL    HW1 4040   1.253   0.536   8.127
 1051SOL    HW2 4041   1.302   0.421   8.212
 1052SOL     OW 4042   1.586   0.202   8.316
 1052SOL    HW1 4043   1.525   0.216   8.388
 1052SOL    HW2 4044   1.588   0.285   8.269
 1053SOL     OW 4045   0.041   1.053   7.735
 1053SOL    HW1 4046   0.136   1.039   7.727
 1053SOL    HW2 4047   0.019   1.016   7.821
 1054SOL     OW 4048   0.883   1.651   7.791
 1054SOL    HW1 4049   0.811   1.633   7.731
 1054SOL    HW2 4050   0.853   1.726   7.842
 1055SOL     OW 4051   0.247   0.627   9.430
 1055SOL    HW1 4052   0.172   0.609   9.486
 1055SOL    HW2 4053   0.215   0.611   9.341
 1056SOL     OW 4054   0.197   0.292  10.300
 1056SOL    HW1 4055   0.233   0.269  10.386
 1056SOL    HW2 4056   0.133   0.224  10.282
 1057SOL     OW 4057   0.005   0.379   9.951
 1057SOL    HW1 4058   4.427   0.416   9.991
 1057SOL    HW2 4059   4.473   0.307   9.896
 1058SOL     OW 4060   0.567   1.284  10.484
 1058SOL    HW1 4061   0.480   1.289  10.445
 1058SOL    HW2 4062   0.582   1.372  10.519
 1059SOL     OW 4063   1.559   1.512  10.016
 1059SOL    HW1 4064   1.516   1.493  10.100
 1059SOL    HW2 4065   1.488   1.516   9.953
 1060SOL     OW 4066   1.133   0.699  10.010
 1060SOL    HW1 4067   1.180   0.782   9.999
 1060SOL    HW2 4068   1.083   0.711  10.091
 1061SOL     OW 4069   1.765   0.608   9.539
 1061SOL    HW1 4070   1.746   0.598   9.446
 1061SOL    HW2 4071   1.733   0.527   9.579
 1062SOL     OW 4072   0.758   1.144  10.350
 1062SOL    HW1 4073   0.688   1.178  10.405
 1062SOL    HW2 4074   0.792   1.221  10.304
 1063SOL     OW 4075   0.851   0.779   0.021
 1063SOL    HW1 4076   0.860   0.836   0.097
 1063SOL    HW2 4077   0.885   0.832  11.048
 1064SOL     OW 4078   0.686   1.006   9.958
 1064SOL    HW1 4079   0.750   0.991  10.027
 1064SOL    HW2 4080   0.616   1.056  10.001
 1065SOL     OW 4081   0.337   1.422  10.379
 1065SOL    HW1 4082   0.255   1.403  10.333
 1065SOL    HW2 4083   0.386   1.477  10.318
 1066SOL     OW 4084   1.463   1.500  10.657
 1066SOL    HW1 4085   1.516   1.579  10.666
 1066SOL    HW2 4086   1.416   1.494  10.740
 1067SOL     OW 4087   0.441   0.392  10.786
 1067SOL    HW1 4088   0.528   0.353  10.792
 1067SOL    HW2 4089   0.387   0.338  10.844
 1068SOL     OW 4090   1.612   0.447  10.048
 1068SOL    HW1 4091   1.532   0.470  10.001
 1068SOL    HW2 4092   1.632   0.525  10.101
 1069SOL     OW 4093   0.245   1.692   9.788
 1069SOL    HW1 4094   0.232   1.776   9.831
 1069SOL    HW2 4095   0.310   1.709   9.720
 1070SOL     OW 4096   0.246   1.427   9.838
 1070SOL    HW1 4097   0.238   1.522   9.842
 1070SOL    HW2 4098   0.182   1.395   9.901
 1071SOL     OW 4099   0.246   1.081  10.193
 1071SOL    HW1 4100   0.263   0.993  10.225
 1071SOL    HW2 4101   0.187   1.119  10.259
 1072SOL     OW 4102   0.614   1.790  10.740
 1072SOL    HW1 4103   0.533   1.771  10.787
 1072SOL    HW2 4104   0.635   1.880  10.764
 1073SOL     OW 4105   0.582   0.985   9.446
 1073SOL    HW1 4106   0.628   1.030   9.376
 1073SOL    HW2 4107   0.627   1.013   9.526
 1074SOL     OW 4108   1.555   0.134  10.782
 1074SOL    HW1 4109   1.602   0.192  10.722
 1074SOL    HW2 4110   1.612   0.129  10.859
 1075SOL     OW 4111   0.136   0.643   9.884
 1075SOL    HW1 4112   0.083   0.564   9.900
 1075SOL    HW2 4113   0.107   0.704   9.952
 1076SOL     OW 4114   1.839   1.743   9.648
 1076SOL    HW1 4115   1.906   1.724   9.714
 1076SOL    HW2 4116   1.849   1.836   9.629
 1077SOL     OW 4117   0.033   1.601   9.448
 1077SOL    HW1 4118   0.021   1.506   9.447
 1077SOL    HW2 4119   0.015   1.627   9.538
 1078SOL     OW 4120   1.691   0.920   9.949
 1078SOL    HW1 4121   1.775   0.879   9.929
 1078SOL    HW2 4122   1.668   0.969   9.870
 1079SOL     OW 4123   1.645   1.108   9.739
 1079SOL    HW1 4124   1.731   1.115   9.697
 1079SOL    HW2 4125   1.650   1.168   9.813
 1080SOL     OW 4126   0.097   0.759  10.911
 1080SOL    HW1 4127   0.188   0.742  10.888
 1080SOL    HW2 4128   0.087   0.854  10.904
 1081SOL     OW 4129   0.613   1.383  10.046
 1081SOL    HW1 4130   0.566   1.300  10.055
 1081SOL    HW2 4131   0.597   1.410   9.955
 1082SOL     OW 4132   1.296   1.237  10.751
 1082SOL    HW1 4133   1.320   1.177  10.681
 1082SOL    HW2 4134   1.352   1.213  10.825
 1083SOL     OW 4135   0.818   0.012   9.858
 1083SOL    HW1 4136   0.852   0.098   9.835
 1083SOL    HW2 4137   0.724   0.020   9.848
 1084SOL     OW 4138   0.180   0.941  10.589
 1084SOL    HW1 4139   0.272   0.924  10.569
 1084SOL    HW2 4140   0.133   0.921  10.509
 1085SOL     OW 4141   1.532   0.992   9.507
 1085SOL    HW1 4142   1.461   0.935   9.538
 1085SOL    HW2 4143   1.572   1.026   9.587
 1086SOL     OW 4144   1.194   1.805  10.927
 1086SOL    HW1 4145   1.197   1.868  10.854
 1086SOL    HW2 4146   1.203   1.719  10.885
 1087SOL     OW 4147   0.326   0.289  11.064
 1087SOL    HW1 4148   0.389   0.333   0.022
 1087SOL    HW2 4149   0.246   0.284   0.017
 1088SOL     OW 4150   1.466   1.419  10.262
 1088SOL    HW1 4151   1.397   1.435  10.327
 1088SOL    HW2 4152   1.453   1.328  10.235
 1089SOL     OW 4153   1.659   1.736   9.888
 1089SOL    HW1 4154   1.637   1.706   9.800
 1089SOL    HW2 4155   1.634   1.663   9.945
 1090SOL     OW 4156   0.596   0.723   9.575
 1090SOL    HW1 4157   0.600   0.804   9.523
 1090SOL    HW2 4158   0.530   0.741   9.642
 1091SOL     OW 4159   1.291   0.360  10.244
 1091SOL    HW1 4160   1.201   0.329  10.228
 1091SOL    HW2 4161   1.327   0.297  10.306
 1092SOL     OW 4162   1.576   1.669   9.618
 1092SOL    HW1 4163   1.669   1.693   9.614
 1092SOL    HW2 4164   1.552   1.652   9.527
 1093SOL     OW 4165   0.797   0.618  10.765
 1093SOL    HW1 4166   0.768   0.593  10.852
 1093SOL    HW2 4167   0.755   0.554  10.707
 1094SOL     OW 4168   0.965   0.898  10.900
 1094SOL    HW1 4169   1.014   0.825  10.861
 1094SOL    HW2 4170   0.915   0.935  10.828
 1095SOL     OW 4171   0.996   0.419  10.546
 1095SOL    HW1 4172   0.910   0.428  10.587
 1095SOL    HW2 4173   0.980   0.365  10.469
 1096SOL     OW 4174   1.049   0.698   9.737
 1096SOL    HW1 4175   1.065   0.690   9.832
 1096SOL    HW2 4176   0.967   0.651   9.723
 1097SOL     OW 4177   0.098   0.825  10.093
 1097SOL    HW1 4178   0.185   0.806  10.130
 1097SOL    HW2 4179   0.049   0.863  10.165
 1098SOL     OW 4180   0.118   1.851  10.900
 1098SOL    HW1 4181   0.116   1.790  10.974
 1098SOL    HW2 4182   0.051   1.818  10.839
 1099SOL     OW 4183   0.853   0.368   9.488
 1099SOL    HW1 4184   0.928   0.403   9.441
 1099SOL    HW2 4185   0.871   0.274   9.495
 1100SOL     OW 4186   1.376   1.143   9.852
 1100SOL    HW1 4187   1.454   1.129   9.798
 1100SOL    HW2 4188   1.323   1.205   9.801
 1101SOL     OW 4189   0.544   0.203  10.211
 1101SOL    HW1 4190   0.561   0.222  10.303
 1101SOL    HW2 4191   0.534   0.289  10.170
 1102SOL     OW 4192   1.008   1.445   9.783
 1102SOL    HW1 4193   0.968   1.517   9.734
 1102SOL    HW2 4194   0.991   1.467   9.875
 1103SOL     OW 4195   0.355   1.809  10.167
 1103SOL    HW1 4196   0.398   1.724  10.177
 1103SOL    HW2 4197   0.425   1.873  10.182
 1104SOL     OW 4198   1.799   1.059  10.177
 1104SOL    HW1 4199   1.742   1.041  10.101
 1104SOL    HW2 4200   1.738   1.064  10.251
 1105SOL     OW 4201   1.226   1.539  10.826
 1105SOL    HW1 4202   1.236   1.451  10.862
 1105SOL    HW2 4203   1.167   1.528  10.751
 1106SOL     OW 4204   0.317   0.954   9.561
 1106SOL    HW1 4205   0.401   0.977   9.522
 1106SOL    HW2 4206   0.300   0.865   9.532
 1107SOL     OW 4207   1.478   0.740  10.035
 1107SOL    HW1 4208   1.465   0.695  10.119
 1107SOL    HW2 4209   1.554   0.796  10.050
 1108SOL     OW 4210   0.455   1.268  11.052
 1108SOL    HW1 4211   0.426   1.278  10.961
 1108SOL    HW2 4212   0.386   1.215  11.092
 1109SOL     OW 4213   1.121   1.777   9.542
 1109SOL    HW1 4214   1.049   1.735   9.588
 1109SOL    HW2 4215   1.143   1.717   9.471
 1110SOL     OW 4216   0.166   0.261  10.819
 1110SOL    HW1 4217   0.140   0.350  10.796
 1110SOL    HW2 4218   0.205   0.269  10.906
 1111SOL     OW 4219   1.629   1.379   9.398
 1111SOL    HW1 4220   1.588   1.464   9.381
 1111SOL    HW2 4221   1.560   1.316   9.378
 1112SOL     OW 4222   0.469   1.743   9.624
 1112SOL    HW1 4223   0.509   1.796   9.693
 1112SOL    HW2 4224   0.543   1.711   9.573
 1113SOL     OW 4225   1.418   0.135   9.728
 1113SOL    HW1 4226   1.401   0.085   9.648
 1113SOL    HW2 4227   1.513   0.131   9.739
 1114SOL     OW 4228   0.254   1.790  10.547
 1114SOL    HW1 4229   0.305   1.719  10.586
 1114SOL    HW2 4230   0.230   1.757  10.460
 1115SOL     OW 4231   0.938   1.698  10.210
 1115SOL    HW1 4232   1.016   1.646  10.230
 1115SOL    HW2 4233   0.893   1.649  10.141
 1116SOL     OW 4234   0.393   0.694   9.784
 1116SOL    HW1 4235   0.418   0.602   9.795
 1116SOL    HW2 4236   0.301   0.697   9.810
 1117SOL     OW 4237   0.623   0.122   9.427
 1117SOL    HW1 4238   0.711   0.087   9.439
 1117SOL    HW2 4239   0.594   0.085   9.344
 1118SOL     OW 4240   0.768   0.271  11.043
 1118SOL    HW1 4241   0.830   0.205  11.074
 1118SOL    HW2 4242   0.712   0.289   0.018
 1119SOL     OW 4243   0.876   1.521  10.503
 1119SOL    HW1 4244   0.861   1.486  10.415
 1119SOL    HW2 4245   0.948   1.468  10.538
 1120SOL     OW 4246   1.344   0.589  10.752
 1120SOL    HW1 4247   1.393   0.572  10.833
 1120SOL    HW2 4248   1.370   0.678  10.727
 1121SOL     OW 4249   0.814   1.397  10.247
 1121SOL    HW1 4250   0.898   1.386  10.202
 1121SOL    HW2 4251   0.749   1.396  10.177
 1122SOL     OW 4252   0.922   0.517  10.211
 1122SOL    HW1 4253   0.906   0.514  10.117
 1122SOL    HW2 4254   0.962   0.431  10.230
 1123SOL     OW 4255   0.559   0.068   9.819
 1123SOL    HW1 4256   0.472   0.054   9.856
 1123SOL    HW2 4257   0.548   0.139   9.756
 1124SOL     OW 4258   1.428   1.198   9.351
 1124SOL    HW1 4259   1.459   1.122   9.401
 1124SOL    HW2 4260   1.343   1.218   9.388
 1125SOL     OW 4261   0.303   0.075   9.496
 1125SOL    HW1 4262   0.387   0.122   9.492
 1125SOL    HW2 4263   0.320   4.499   9.551
 1126SOL     OW 4264   0.951   0.240   9.781
 1126SOL    HW1 4265   0.899   0.292   9.719
 1126SOL    HW2 4266   1.040   0.276   9.773
 1127SOL     OW 4267   1.079   0.684  10.772
 1127SOL    HW1 4268   1.006   0.621  10.773
 1127SOL    HW2 4269   1.157   0.629  10.766
 1128SOL     OW 4270   1.224   1.570  10.104
 1128SOL    HW1 4271   1.242   1.637  10.038
 1128SOL    HW2 4272   1.292   1.582  10.170
 1129SOL     OW 4273   0.465   1.148  10.047
 1129SOL    HW1 4274   0.394   1.129  10.108
 1129SOL    HW2 4275   0.428   1.132   9.960
 1130SOL     OW 4276   1.270   1.795   9.916
 1130SOL    HW1 4277   1.314   1.856   9.858
 1130SOL    HW2 4278   1.205   1.847   9.962
 1131SOL     OW 4279   1.030   0.549   9.325
 1131SOL    HW1 4280   0.982   0.630   9.310
 1131SOL    HW2 4281   1.088   0.569   9.398
 1132SOL     OW 4282   0.086   0.522  10.722
 1132SOL    HW1 4283   0.151   0.532  10.653
 1132SOL    HW2 4284   0.064   0.612  10.748
 1133SOL     OW 4285   0.562   0.244  10.476
 1133SOL    HW1 4286   0.591   0.157  10.504
 1133SOL    HW2 4287   0.469   0.247  10.498
 1134SOL     OW 4288   0.866   0.502   9.936
 1134SOL    HW1 4289   0.817   0.544   9.865
 1134SOL    HW2 4290   0.842   0.410   9.930
 1135SOL     OW 4291   0.968   0.029  10.088
 1135SOL    HW1 4292   0.918   0.025  10.006
 1135SOL    HW2 4293   0.979   4.437  10.113
 1136SOL     OW 4294   1.435   1.163  10.167
 1136SOL    HW1 4295   1.368   1.095  10.166
 1136SOL    HW2 4296   1.459   1.176  10.075
 1137SOL     OW 4297   1.466   0.604  10.287
 1137SOL    HW1 4298   1.415   0.523  10.290
 1137SOL    HW2 4299   1.525   0.597  10.362
 1138SOL     OW 4300   1.847   0.818   9.692
 1138SOL    HW1 4301   1.903   0.766   9.750
 1138SOL    HW2 4302   1.818   0.756   9.625
 1139SOL     OW 4303   0.492   1.415   9.471
 1139SOL    HW1 4304   0.415   1.386   9.520
 1139SOL    HW2 4305   0.473   1.392   9.380
 1140SOL     OW 4306   1.669   1.265   9.957
 1140SOL    HW1 4307   1.764   1.270   9.970
 1140SOL    HW2 4308   1.637   1.353   9.979
 1141SOL     OW 4309   1.394   0.570   9.380
 1141SOL    HW1 4310   1.333   0.554   9.452
 1141SOL    HW2 4311   1.480   0.550   9.416
 1142SOL     OW 4312   0.523   0.264   9.632
 1142SOL    HW1 4313   0.569   0.214   9.565
 1142SOL    HW2 4314   0.508   0.350   9.591
 1143SOL     OW 4315   1.761   1.229  10.874
 1143SOL    HW1 4316   1.852   1.200  10.873
 1143SOL    HW2 4317   1.763   1.317  10.911
 1144SOL     OW 4318   1.064   1.353  10.649
 1144SOL    HW1 4319   0.986   1.321  10.694
 1144SOL    HW2 4320   1.137   1.306  10.689
 1145SOL     OW 4321   1.127   1.205  10.417
 1145SOL    HW1 4322   1.063   1.240  10.479
 1145SOL    HW2 4323   1.095   1.233  10.331
 1146SOL     OW 4324   1.631   1.100  10.388
 1146SOL    HW1 4325   1.627   1.161  10.461
 1146SOL    HW2 4326   1.550   1.116  10.339
 1147SOL     OW 4327   0.899   0.127  10.698
 1147SOL    HW1 4328   0.927   0.088  10.615
 1147SOL    HW2 4329   0.981   0.143  10.745
 1148SOL     OW 4330   0.708   1.060   9.682
 1148SOL    HW1 4331   0.696   1.046   9.776
 1148SOL    HW2 4332   0.784   1.007   9.660
 1149SOL     OW 4333   0.428   0.823  10.550
 1149SOL    HW1 4334   0.496   0.832  10.617
 1149SOL    HW2 4335   0.369   0.756  10.585
 1150SOL     OW 4336   1.270   0.381  10.581
 1150SOL    HW1 4337   1.300   0.459  10.628
 1150SOL    HW2 4338   1.182   0.403  10.553
 1151SOL     OW 4339   0.063   1.578  10.655
 1151SOL    HW1 4340   0.038   1.663  10.620
 1151SOL    HW2 4341   0.158   1.580  10.656
 1152SOL     OW 4342   0.349   1.107   9.803
 1152SOL    HW1 4343   0.358   1.181   9.743
 1152SOL    HW2 4344   0.351   1.030   9.748
 1153SOL     OW 4345   0.564   0.528  10.164
 1153SOL    HW1 4346   0.576   0.589  10.091
 1153SOL    HW2 4347   0.623   0.560  10.233
 1154SOL     OW 4348   1.248   1.348   9.699
 1154SOL    HW1 4349   1.303   1.420   9.730
 1154SOL    HW2 4350   1.161   1.369   9.733
 1155SOL     OW 4351   1.277   1.458  10.454
 1155SOL    HW1 4352   1.334   1.461  10.531
 1155SOL    HW2 4353   1.225   1.379  10.467
 1156SOL     OW 4354   1.583   0.624   9.786
 1156SOL    HW1 4355   1.537   0.677   9.852
 1156SOL    HW2 4356   1.627   0.689   9.731
 1157SOL     OW 4357   0.347   1.526  10.626
 1157SOL    HW1 4358   0.334   1.481  10.543
 1157SOL    HW2 4359   0.441   1.540  10.632
 1158SOL     OW 4360   0.486   0.749  10.970
 1158SOL    HW1 4361   0.517   0.786  10.887
 1158SOL    HW2 4362   0.517   0.659  10.969
 1159SOL     OW 4363   1.592   0.761  10.970
 1159SOL    HW1 4364   1.515   0.818  10.965
 1159SOL    HW2 4365   1.661   0.810  10.926
 1160SOL     OW 4366   0.588   0.874  10.334
 1160SOL    HW1 4367   0.617   0.965  10.337
 1160SOL    HW2 4368   0.532   0.864  10.411
 1161SOL     OW 4369   1.359   0.860  10.345
 1161SOL    HW1 4370   1.278   0.853  10.295
 1161SOL    HW2 4371   1.399   0.773  10.339
 1162SOL     OW 4372   1.205   0.535   9.575
 1162SOL    HW1 4373   1.212   0.454   9.626
 1162SOL    HW2 4374   1.163   0.597   9.633
 1163SOL     OW 4375   0.286   0.217  10.545
 1163SOL    HW1 4376   0.254   0.235  10.634
 1163SOL    HW2 4377   0.319   0.128  10.549
 1164SOL     OW 4378   0.045   1.315  10.594
 1164SOL    HW1 4379   0.077   1.266  10.670
 1164SOL    HW2 4380   0.046   1.406  10.622
 1165SOL     OW 4381   0.725   0.632  10.369
 1165SOL    HW1 4382   0.798   0.611  10.311
 1165SOL    HW2 4383   0.699   0.721  10.344
 1166SOL     OW 4384   0.318   0.075   9.941
 1166SOL    HW1 4385   0.302   0.163   9.974
 1166SOL    HW2 4386   0.306   0.018  10.017
 1167SOL     OW 4387   1.612   0.376   9.675
 1167SOL    HW1 4388   1.643   0.313   9.740
 1167SOL    HW2 4389   1.590   0.454   9.725
 1168SOL     OW 4390   1.028   0.761  10.272
 1168SOL    HW1 4391   1.026   0.777  10.366
 1168SOL    HW2 4392   0.999   0.670  10.263
 1169SOL     OW 4393   0.973   1.572  11.004
 1169SOL    HW1 4394   0.959   1.622  10.924
 1169SOL    HW2 4395   1.007   1.487  10.974
 1170SOL     OW 4396   1.860   1.494  10.912
 1170SOL    HW1 4397   1.871   1.529  10.824
 1170SOL    HW2 4398   1.923   1.542  10.965
 1171SOL     OW 4399   0.348   0.933  11.095
 1171SOL    HW1 4400   0.422   0.962   0.048
 1171SOL    HW2 4401   0.383   0.861  11.043
 1172SOL     OW 4402   1.531   0.266   9.438
 1172SOL    HW1 4403   1.459   0.210   9.466
 1172SOL    HW2 4404   1.560   0.311   9.518
 1173SOL     OW 4405   1.293   0.827   9.342
 1173SOL    HW1 4406   1.335   0.741   9.344
 1173SOL    HW2 4407   1.324   0.866   9.260
 1174SOL     OW 4408   1.065   1.334  10.163
 1174SOL    HW1 4409   1.068   1.262  10.101
 1174SOL    HW2 4410   1.128   1.398  10.128
 1175SOL     OW 4411   0.317   0.812  10.259
 1175SOL    HW1 4412   0.411   0.830  10.255
 1175SOL    HW2 4413   0.311   0.722  10.289
 1176SOL     OW 4414   0.336   0.529  10.302
 1176SOL    HW1 4415   0.291   0.446  10.284
 1176SOL    HW2 4416   0.413   0.527  10.246
 1177SOL     OW 4417   1.152   0.217  10.770
 1177SOL    HW1 4418   1.168   0.267  10.850
 1177SOL    HW2 4419   1.192   0.270  10.701
 1178SOL     OW 4420   4.492   1.323   9.513
 1178SOL    HW1 4421   4.399   1.338   9.495
 1178SOL    HW2 4422   4.497   1.230   9.536
 1179SOL     OW 4423   0.095   1.779  10.249
 1179SOL    HW1 4424   0.058   1.721  10.182
 1179SOL    HW2 4425   0.183   1.799  10.217
 1180SOL     OW 4426   0.498   1.573  10.216
 1180SOL    HW1 4427   0.566   1.636  10.240
 1180SOL    HW2 4428   0.542   1.509  10.161
 1181SOL     OW 4429   0.986   0.796  10.538
 1181SOL    HW1 4430   1.039   0.772  10.614
 1181SOL    HW2 4431   0.901   0.756  10.556
 1182SOL     OW 4432   0.036   0.564  10.417
 1182SOL    HW1 4433   0.115   0.524  10.381
 1182SOL    HW2 4434   0.024   0.521  10.502
 1183SOL     OW 4435   0.812   0.573   9.663
 1183SOL    HW1 4436   0.814   0.501   9.600
 1183SOL    HW2 4437   0.738   0.627   9.635
 1184SOL     OW 4438   1.641   0.601  10.497
 1184SOL    HW1 4439   1.632   0.542  10.572
 1184SOL    HW2 4440   1.729   0.582  10.463
 1185SOL     OW 4441   0.263   1.573  11.056
 1185SOL    HW1 4442   0.210   1.600   0.031
 1185SOL    HW2 4443   0.244   1.479  11.047
 1186SOL     OW 4444   0.690   0.462  10.577
 1186SOL    HW1 4445   0.648   0.383  10.543
 1186SOL    HW2 4446   0.694   0.521  10.501
 1187SOL     OW 4447   0.940   1.682  10.759
 1187SOL    HW1 4448   0.902   1.650  10.677
 1187SOL    HW2 4449   0.927   1.777  10.757
 1188SOL     OW 4450   0.473   0.491   9.494
 1188SOL    HW1 4451   0.532   0.562   9.517
 1188SOL    HW2 4452   0.388   0.533   9.480
 1189SOL     OW 4453   0.162   1.142  10.770
 1189SOL    HW1 4454   0.140   1.099  10.853
 1189SOL    HW2 4455   0.169   1.070  10.707
 1190SOL     OW 4456   1.326   1.053  10.538
 1190SOL    HW1 4457   1.353   0.988  10.473
 1190SOL    HW2 4458   1.254   1.101  10.496
 1191SOL     OW 4459   1.310   0.856   9.617
 1191SOL    HW1 4460   1.234   0.827   9.667
 1191SOL    HW2 4461   1.285   0.843   9.525
 1192SOL     OW 4462   1.763   1.748  10.457
 1192SOL    HW1 4463   1.830   1.773  10.393
 1192SOL    HW2 4464   1.745   1.655  10.437
 1193SOL     OW 4465   1.241   1.733  10.424
 1193SOL    HW1 4466   1.323   1.753  10.380
 1193SOL    HW2 4467   1.245   1.640  10.442
 1194SOL     OW 4468   0.067   1.187  10.359
 1194SOL    HW1 4469   0.071   1.221  10.448
 1194SOL    HW2 4470   0.015   1.251  10.311
 1195SOL     OW 4471   1.718   0.130   9.806
 1195SOL    HW1 4472   1.791   0.136   9.744
 1195SOL    HW2 4473   1.741   0.057   9.863
 1196SOL     OW 4474   1.389   1.567   9.794
 1196SOL    HW1 4475   1.449   1.599   9.726
 1196SOL    HW2 4476   1.341   1.645   9.822
 1197SOL     OW 4477   1.278   0.927   9.983
 1197SOL    HW1 4478   1.351   0.864   9.986
 1197SOL    HW2 4479   1.312   0.999   9.930
 1198SOL     OW 4480   0.820   1.273  10.739
 1198SOL    HW1 4481   0.790   1.307  10.823
 1198SOL    HW2 4482   0.750   1.295  10.678
 1199SOL     OW 4483   0.673   1.618   9.465
 1199SOL    HW1 4484   0.682   1.629   9.371
 1199SOL    HW2 4485   0.619   1.539   9.475
 1200SOL     OW 4486   1.623   1.719  10.698
 1200SOL    HW1 4487   1.676   1.734  10.620
 1200SOL    HW2 4488   1.608   1.807  10.734
 1201SOL     OW 4489   1.839   0.155  10.276
 1201SOL    HW1 4490   1.868   0.078  10.228
 1201SOL    HW2 4491   1.752   0.175  10.241
 1202SOL     OW 4492   0.265   0.325  10.034
 1202SOL    HW1 4493   0.183   0.360  10.001
 1202SOL    HW2 4494   0.251   0.317  10.128
 1203SOL     OW 4495   1.206   1.607   9.341
 1203SOL    HW1 4496   1.198   1.516   9.368
 1203SOL    HW2 4497   1.141   1.618   9.272
 1204SOL     OW 4498   0.825   1.006  10.685
 1204SOL    HW1 4499   0.868   1.000  10.599
 1204SOL    HW2 4500   0.827   1.099  10.706
 1205SOL     OW 4501   0.915   0.910   9.599
 1205SOL    HW1 4502   0.977   0.942   9.534
 1205SOL    HW2 4503   0.962   0.840   9.645
 1206SOL     OW 4504   1.494   1.625   9.351
 1206SOL    HW1 4505   1.399   1.620   9.339
 1206SOL    HW2 4506   1.529   1.630   9.263
 1207SOL     OW 4507   0.368   1.309  10.806
 1207SOL    HW1 4508   0.356   1.384  10.748
 1207SOL    HW2 4509   0.296   1.250  10.785
 1208SOL     OW 4510   1.612   1.282  10.592
 1208SOL    HW1 4511   1.671   1.272  10.667
 1208SOL    HW2 4512   1.555   1.356  10.616
 1209SOL     OW 4513   1.050   1.106  10.015
 1209SOL    HW1 4514   0.979   1.055  10.055
 1209SOL    HW2 4515   1.111   1.041   9.983
 1210SOL     OW 4516   1.006   0.243  10.310
 1210SOL    HW1 4517   1.013   0.216  10.219
 1210SOL    HW2 4518   1.000   0.160  10.359
 1211SOL     OW 4519   0.603   1.489   9.793
 1211SOL    HW1 4520   0.643   1.439   9.722
 1211SOL    HW2 4521   0.531   1.537   9.751
 1212SOL     OW 4522   1.718   0.394  10.689
 1212SOL    HW1 4523   1.790   0.457  10.690
 1212SOL    HW2 4524   1.748   0.324  10.631
 1213SOL     OW 4525   0.252   1.345   9.587
 1213SOL    HW1 4526   0.157   1.345   9.573
 1213SOL    HW2 4527   0.263   1.377   9.676
 1214SOL     OW 4528   0.110   1.018  11.005
 1214SOL    HW1 4529   0.051   1.021  11.080
 1214SOL    HW2 4530   0.196   1.000  11.042
 1215SOL     OW 4531   0.656   0.198  10.803
 1215SOL    HW1 4532   0.734   0.173  10.755
 1215SOL    HW2 4533   0.688   0.225  10.889
 1216SOL     OW 4534   0.071   0.320   9.336
 1216SOL    HW1 4535   4.476   0.329   9.348
 1216SOL    HW2 4536   0.099   0.407   9.305
 1217SOL     OW 4537   1.430   0.849  10.709
 1217SOL    HW1 4538   1.382   0.917  10.661
 1217SOL    HW2 4539   1.521   0.858  10.680
 1218SOL     OW 4540   0.084   0.188   9.613
 1218SOL    HW1 4541   0.079   0.261   9.550
 1218SOL    HW2 4542   0.163   0.140   9.587
 1219SOL     OW 4543   1.180   1.341   9.427
 1219SOL    HW1 4544   1.089   1.311   9.430
 1219SOL    HW2 4545   1.208   1.340   9.518
 1220SOL     OW 4546   0.622   0.829  10.738
 1220SOL    HW1 4547   0.677   0.907  10.725
 1220SOL    HW2 4548   0.685   0.757  10.747
 1221SOL     OW 4549   1.486   1.775  10.287
 1221SOL    HW1 4550   1.511   1.835  10.217
 1221SOL    HW2 4551   1.567   1.759  10.336
 1222SOL     OW 4552   0.714   0.561  11.015
 1222SOL    HW1 4553   0.746   0.634  11.068
 1222SOL    HW2 4554   0.765   0.486  11.044
 1223SOL     OW 4555   0.384   1.737  10.871
 1223SOL    HW1 4556   0.307   1.793  10.865
 1223SOL    HW2 4557   0.357   1.666  10.929
 1224SOL     OW 4558   1.672   0.882  10.567
 1224SOL    HW1 4559   1.662   0.798  10.524
 1224SOL    HW2 4560   1.663   0.946  10.496
 1225SOL     OW 4561   1.218   0.329   9.758
 1225SOL    HW1 4562   1.283   0.259   9.748
 1225SOL    HW2 4563   1.245   0.376   9.837
 1226SOL     OW 4564   0.588   0.739   9.979
 1226SOL    HW1 4565   0.629   0.824   9.963
 1226SOL    HW2 4566   0.519   0.732   9.913
 1227SOL     OW 4567   1.753   0.314  10.950
 1227SOL    HW1 4568   1.735   0.354  10.865
 1227SOL    HW2 4569   1.675   0.332  11.002
 1228SOL     OW 4570   1.748   0.935  10.826
 1228SOL    HW1 4571   1.742   1.030  10.840
 1228SOL    HW2 4572   1.731   0.924  10.732
 1229SOL     OW 4573   0.863   1.368   9.342
 1229SOL    HW1 4574   0.823   1.395   9.425
 1229SOL    HW2 4575   0.881   1.450   9.296
 1230SOL     OW 4576   0.660   1.793  10.257
 1230SOL    HW1 4577   0.638   1.883  10.233
 1230SOL    HW2 4578   0.755   1.788  10.248
 1231SOL     OW 4579   0.867   0.966  10.165
 1231SOL    HW1 4580   0.916   0.894  10.204
 1231SOL    HW2 4581   0.833   1.016  10.240
 1232SOL     OW 4582   1.080   0.988   9.399
 1232SOL    HW1 4583   1.057   1.038   9.321
 1232SOL    HW2 4584   1.155   0.935   9.373
 1233SOL     OW 4585   1.856   1.553  10.152
 1233SOL    HW1 4586   1.775   1.543  10.103
 1233SOL    HW2 4587   1.847   1.492  10.225
 1234SOL     OW 4588   0.104   1.238   9.977
 1234SOL    HW1 4589   0.111   1.188  10.059
 1234SOL    HW2 4590   0.164   1.194   9.917
 1235SOL     OW 4591   0.679   1.394  10.937
 1235SOL    HW1 4592   0.606   1.344  10.973
 1235SOL    HW2 4593   0.649   1.485  10.937
 1236SOL     OW 4594   1.804   0.181  10.549
 1236SOL    HW1 4595   1.816   0.088  10.570
 1236SOL    HW2 4596   1.822   0.187  10.455
 1237SOL     OW 4597   0.439   0.431   9.840
 1237SOL    HW1 4598   0.458   0.361   9.778
 1237SOL    HW2 4599   0.381   0.391   9.905
 1238SOL     OW 4600   1.704   1.489  10.405
 1238SOL    HW1 4601   1.621   1.463  10.365
 1238SOL    HW2 4602   1.720   1.423  10.473
 1239SOL     OW 4603   0.308   0.506  10.567
 1239SOL    HW1 4604   0.375   0.455  10.613
 1239SOL    HW2 4605   0.339   0.512  10.477
 1240SOL     OW 4606   0.826   1.578   9.989
 1240SOL    HW1 4607   0.817   1.627   9.907
 1240SOL    HW2 4608   0.748   1.522   9.992
 1241SOL     OW 4609   1.431   0.214  10.429
 1241SOL    HW1 4610   1.471   0.147  10.484
 1241SOL    HW2 4611   1.382   0.269  10.490
 1242SOL     OW 4612   0.996   0.011  10.458
 1242SOL    HW1 4613   0.952   4.426  10.448
 1242SOL    HW2 4614   1.088   4.488  10.473
 1243SOL     OW 4615   0.772   1.332   9.622
 1243SOL    HW1 4616   0.739   1.242   9.628
 1243SOL    HW2 4617   0.854   1.331   9.671
 1244SOL     OW 4618   0.620   1.556  10.596
 1244SOL    HW1 4619   0.621   1.639  10.644
 1244SOL    HW2 4620   0.707   1.550  10.556
 1245SOL     OW 4621   1.341   0.053   9.462
 1245SOL    HW1 4622   1.381   4.478   9.418
 1245SOL    HW2 4623   1.266   0.017   9.509
 1246SOL     OW 4624   1.314   0.462   9.989
 1246SOL    HW1 4625   1.253   0.536   9.990
 1246SOL    HW2 4626   1.302   0.420  10.074
 1247SOL     OW 4627   1.586   0.201  10.178
 1247SOL    HW1 4628   1.525   0.216  10.250
 1247SOL    HW2 4629   1.588   0.285  10.132
 1248SOL     OW 4630   0.041   1.053   9.597
 1248SOL    HW1 4631   0.136   1.039   9.589
 1248SOL    HW2 4632   0.019   1.016   9.683
 1249SOL     OW 4633   0.883   1.651   9.654
 1249SOL    HW1 4634   0.811   1.633   9.593
 1249SOL    HW2 4635   0.853   1.726   9.704
 1250SOL     OW 4636   0.243   2.459   0.108
 1250SOL    HW1 4637   0.170   2.459   0.170
 1250SOL    HW2 4638   0.206   2.497   0.028
 1251SOL     OW 4639   0.212   2.138   0.992
 1251SOL    HW1 4640   0.249   2.111   1.076
 1251SOL    HW2 4641   0.137   2.080   0.979
 1252SOL     OW 4642   0.009   2.251   0.638
 1252SOL    HW1 4643   4.429   2.280   0.681
 1252SOL    HW2 4644   4.485   2.168   0.596
 1253SOL     OW 4645   0.567   3.146   1.173
 1253SOL    HW1 4646   0.480   3.151   1.135
 1253SOL    HW2 4647   0.582   3.234   1.209
 1254SOL     OW 4648   1.558   3.373   0.706
 1254SOL    HW1 4649   1.515   3.354   0.789
 1254SOL    HW2 4650   1.488   3.378   0.642
 1255SOL     OW 4651   1.130   2.561   0.703
 1255SOL    HW1 4652   1.180   2.641   0.689
 1255SOL    HW2 4653   1.083   2.576   0.785
 1256SOL     OW 4654   1.758   2.474   0.230
 1256SOL    HW1 4655   1.749   2.453   0.137
 1256SOL    HW2 4656   1.736   2.393   0.275
 1257SOL     OW 4657   0.758   3.006   1.039
 1257SOL    HW1 4658   0.688   3.039   1.095
 1257SOL    HW2 4659   0.792   3.083   0.994
 1258SOL     OW 4660   0.865   2.639   1.821
 1258SOL    HW1 4661   0.850   2.711   1.883
 1258SOL    HW2 4662   0.887   2.683   1.739
 1259SOL     OW 4663   0.686   2.868   0.648
 1259SOL    HW1 4664   0.750   2.854   0.717
 1259SOL    HW2 4665   0.616   2.918   0.690
 1260SOL     OW 4666   0.709   3.013   1.811
 1260SOL    HW1 4667   0.756   3.092   1.836
 1260SOL    HW2 4668   0.626   3.044   1.776
 1261SOL     OW 4669   0.336   3.284   1.070
 1261SOL    HW1 4670   0.255   3.265   1.023
 1261SOL    HW2 4671   0.386   3.339   1.009
 1262SOL     OW 4672   1.461   3.360   1.352
 1262SOL    HW1 4673   1.507   3.443   1.362
 1262SOL    HW2 4674   1.402   3.356   1.427
 1263SOL     OW 4675   0.443   2.266   1.494
 1263SOL    HW1 4676   0.523   2.213   1.497
 1263SOL    HW2 4677   0.372   2.202   1.498
 1264SOL     OW 4678   1.600   2.314   0.746
 1264SOL    HW1 4679   1.526   2.338   0.691
 1264SOL    HW2 4680   1.622   2.394   0.794
 1265SOL     OW 4681   0.245   3.553   0.483
 1265SOL    HW1 4682   0.233   3.640   0.522
 1265SOL    HW2 4683   0.302   3.569   0.408
 1266SOL     OW 4684   1.136   3.203   1.692
 1266SOL    HW1 4685   1.175   3.199   1.779
 1266SOL    HW2 4686   1.083   3.123   1.686
 1267SOL     OW 4687   0.244   3.289   0.529
 1267SOL    HW1 4688   0.239   3.385   0.530
 1267SOL    HW2 4689   0.178   3.261   0.592
 1268SOL     OW 4690   0.246   2.944   0.883
 1268SOL    HW1 4691   0.263   2.855   0.915
 1268SOL    HW2 4692   0.187   2.981   0.949
 1269SOL     OW 4693   0.616   3.652   1.433
 1269SOL    HW1 4694   0.532   3.634   1.475
 1269SOL    HW2 4695   0.636   3.743   1.456
 1270SOL     OW 4696   0.575   2.854   0.145
 1270SOL    HW1 4697   0.621   2.897   0.073
 1270SOL    HW2 4698   0.625   2.878   0.223
 1271SOL     OW 4699   1.594   1.982   1.472
 1271SOL    HW1 4700   1.599   2.059   1.416
 1271SOL    HW2 4701   1.583   2.018   1.560
 1272SOL     OW 4702   0.136   2.507   0.574
 1272SOL    HW1 4703   0.088   2.426   0.590
 1272SOL    HW2 4704   0.106   2.567   0.643
 1273SOL     OW 4705   1.842   3.623   0.335
 1273SOL    HW1 4706   1.903   3.592   0.402
 1273SOL    HW2 4707   1.869   3.712   0.316
 1274SOL     OW 4708   0.072   3.454   0.151
 1274SOL    HW1 4709   0.036   3.365   0.154
 1274SOL    HW2 4710   0.017   3.504   0.211
 1275SOL     OW 4711   1.690   2.781   0.639
 1275SOL    HW1 4712   1.773   2.738   0.617
 1275SOL    HW2 4713   1.668   2.832   0.562
 1276SOL     OW 4714   1.645   2.968   0.432
 1276SOL    HW1 4715   1.727   2.980   0.384
 1276SOL    HW2 4716   1.651   3.030   0.505
 1277SOL     OW 4717   0.111   2.623   1.587
 1277SOL    HW1 4718   0.204   2.623   1.566
 1277SOL    HW2 4719   0.089   2.715   1.598
 1278SOL     OW 4720   0.613   3.246   0.736
 1278SOL    HW1 4721   0.566   3.163   0.745
 1278SOL    HW2 4722   0.596   3.273   0.645
 1279SOL     OW 4723   1.290   3.101   1.424
 1279SOL    HW1 4724   1.322   3.033   1.364
 1279SOL    HW2 4725   1.346   3.093   1.501
 1280SOL     OW 4726   0.814   1.862   0.506
 1280SOL    HW1 4727   0.853   1.948   0.491
 1280SOL    HW2 4728   0.721   1.879   0.516
 1281SOL     OW 4729   0.182   2.804   1.280
 1281SOL    HW1 4730   0.273   2.787   1.257
 1281SOL    HW2 4731   0.133   2.784   1.199
 1282SOL     OW 4732   1.519   2.862   0.201
 1282SOL    HW1 4733   1.456   2.798   0.234
 1282SOL    HW2 4734   1.568   2.891   0.278
 1283SOL     OW 4735   1.186   3.667   1.621
 1283SOL    HW1 4736   1.198   3.724   1.545
 1283SOL    HW2 4737   1.201   3.579   1.587
 1284SOL     OW 4738   0.329   2.118   1.796
 1284SOL    HW1 4739   0.381   2.191   1.831
 1284SOL    HW2 4740   0.243   2.127   1.837
 1285SOL     OW 4741   1.466   3.281   0.953
 1285SOL    HW1 4742   1.398   3.296   1.018
 1285SOL    HW2 4743   1.454   3.191   0.925
 1286SOL     OW 4744   1.660   3.598   0.579
 1286SOL    HW1 4745   1.639   3.570   0.490
 1286SOL    HW2 4746   1.634   3.524   0.634
 1287SOL     OW 4747   0.596   2.581   0.264
 1287SOL    HW1 4748   0.601   2.662   0.212
 1287SOL    HW2 4749   0.532   2.601   0.333
 1288SOL     OW 4750   1.278   2.213   0.933
 1288SOL    HW1 4751   1.189   2.179   0.941
 1288SOL    HW2 4752   1.330   2.160   0.993
 1289SOL     OW 4753   1.582   3.531   0.311
 1289SOL    HW1 4754   1.672   3.564   0.305
 1289SOL    HW2 4755   1.557   3.513   0.221
 1290SOL     OW 4756   0.794   2.478   1.452
 1290SOL    HW1 4757   0.768   2.455   1.541
 1290SOL    HW2 4758   0.750   2.414   1.396
 1291SOL     OW 4759   1.394   2.336   1.677
 1291SOL    HW1 4760   1.395   2.380   1.763
 1291SOL    HW2 4761   1.457   2.264   1.686
 1292SOL     OW 4762   0.957   2.750   1.581
 1292SOL    HW1 4763   1.011   2.679   1.546
 1292SOL    HW2 4764   0.910   2.784   1.505
 1293SOL     OW 4765   0.993   2.276   1.239
 1293SOL    HW1 4766   0.909   2.298   1.280
 1293SOL    HW2 4767   0.969   2.228   1.160
 1294SOL     OW 4768   1.050   2.563   0.427
 1294SOL    HW1 4769   1.065   2.555   0.521
 1294SOL    HW2 4770   0.968   2.516   0.412
 1295SOL     OW 4771   0.098   2.687   0.784
 1295SOL    HW1 4772   0.184   2.668   0.821
 1295SOL    HW2 4773   0.049   2.727   0.856
 1296SOL     OW 4774   0.125   3.713   1.575
 1296SOL    HW1 4775   0.118   3.692   1.668
 1296SOL    HW2 4776   0.044   3.681   1.537
 1297SOL     OW 4777   0.887   2.216   0.208
 1297SOL    HW1 4778   0.935   2.271   0.145
 1297SOL    HW2 4779   0.900   2.127   0.176
 1298SOL     OW 4780   1.712   2.441   1.831
 1298SOL    HW1 4781   1.672   2.512   1.780
 1298SOL    HW2 4782   1.737   2.375   1.766
 1299SOL     OW 4783   1.376   3.004   0.542
 1299SOL    HW1 4784   1.454   2.989   0.488
 1299SOL    HW2 4785   1.323   3.066   0.492
 1300SOL     OW 4786   0.551   2.045   0.893
 1300SOL    HW1 4787   0.554   2.075   0.984
 1300SOL    HW2 4788   0.552   2.126   0.841
 1301SOL     OW 4789   1.007   3.308   0.474
 1301SOL    HW1 4790   0.967   3.379   0.425
 1301SOL    HW2 4791   0.990   3.329   0.566
 1302SOL     OW 4792   0.355   3.671   0.858
 1302SOL    HW1 4793   0.397   3.585   0.868
 1302SOL    HW2 4794   0.425   3.734   0.870
 1303SOL     OW 4795   1.799   2.919   0.868
 1303SOL    HW1 4796   1.743   2.904   0.791
 1303SOL    HW2 4797   1.737   2.925   0.941
 1304SOL     OW 4798   1.228   3.401   1.512
 1304SOL    HW1 4799   1.214   3.328   1.573
 1304SOL    HW2 4800   1.166   3.386   1.441
 1305SOL     OW 4801   0.314   2.818   0.277
 1305SOL    HW1 4802   0.398   2.845   0.238
 1305SOL    HW2 4803   0.305   2.726   0.253
 1306SOL     OW 4804   1.476   2.602   0.728
 1306SOL    HW1 4805   1.466   2.558   0.812
 1306SOL    HW2 4806   1.553   2.658   0.739
 1307SOL     OW 4807   0.466   3.123   1.735
 1307SOL    HW1 4808   0.439   3.130   1.644
 1307SOL    HW2 4809   0.385   3.129   1.785
 1308SOL     OW 4810   1.107   3.640   0.227
 1308SOL    HW1 4811   1.049   3.588   0.282
 1308SOL    HW2 4812   1.148   3.577   0.168
 1309SOL     OW 4813   0.195   2.139   1.487
 1309SOL    HW1 4814   0.134   2.213   1.492
 1309SOL    HW2 4815   0.184   2.093   1.570
 1310SOL     OW 4816   1.628   3.237   0.088
 1310SOL    HW1 4817   1.586   3.322   0.076
 1310SOL    HW2 4818   1.562   3.173   0.061
 1311SOL     OW 4819   0.470   3.604   0.317
 1311SOL    HW1 4820   0.507   3.660   0.385
 1311SOL    HW2 4821   0.545   3.576   0.265
 1312SOL     OW 4822   1.400   1.969   0.430
 1312SOL    HW1 4823   1.389   1.947   0.337
 1312SOL    HW2 4824   1.495   1.979   0.441
 1313SOL     OW 4825   0.260   3.656   1.233
 1313SOL    HW1 4826   0.306   3.582   1.272
 1313SOL    HW2 4827   0.228   3.622   1.149
 1314SOL     OW 4828   0.938   3.560   0.899
 1314SOL    HW1 4829   1.015   3.507   0.920
 1314SOL    HW2 4830   0.893   3.511   0.831
 1315SOL     OW 4831   0.392   2.557   0.472
 1315SOL    HW1 4832   0.417   2.465   0.483
 1315SOL    HW2 4833   0.301   2.560   0.501
 1316SOL     OW 4834   1.538   2.089   1.726
 1316SOL    HW1 4835   1.547   2.109   1.819
 1316SOL    HW2 4836   1.470   2.021   1.723
 1317SOL     OW 4837   0.614   1.969   0.123
 1317SOL    HW1 4838   0.705   1.939   0.123
 1317SOL    HW2 4839   0.583   1.953   0.033
 1318SOL     OW 4840   0.768   2.138   1.754
 1318SOL    HW1 4841   0.842   2.078   1.757
 1318SOL    HW2 4842   0.718   2.120   1.833
 1319SOL     OW 4843   0.877   3.384   1.193
 1319SOL    HW1 4844   0.861   3.348   1.106
 1319SOL    HW2 4845   0.946   3.329   1.230
 1320SOL     OW 4846   1.341   2.451   1.432
 1320SOL    HW1 4847   1.372   2.418   1.517
 1320SOL    HW2 4848   1.377   2.539   1.425
 1321SOL     OW 4849   0.814   3.259   0.937
 1321SOL    HW1 4850   0.898   3.248   0.892
 1321SOL    HW2 4851   0.749   3.258   0.867
 1322SOL     OW 4852   0.927   2.371   0.904
 1322SOL    HW1 4853   0.904   2.363   0.811
 1322SOL    HW2 4854   0.960   2.285   0.928
 1323SOL     OW 4855   0.551   1.923   0.505
 1323SOL    HW1 4856   0.469   1.921   0.555
 1323SOL    HW2 4857   0.545   2.002   0.451
 1324SOL     OW 4858   1.426   3.058   0.031
 1324SOL    HW1 4859   1.459   2.986   0.084
 1324SOL    HW2 4860   1.343   3.082   0.071
 1325SOL     OW 4861   0.286   1.911   0.192
 1325SOL    HW1 4862   0.336   1.961   0.127
 1325SOL    HW2 4863   0.348   1.845   0.224
 1326SOL     OW 4864   0.938   2.106   0.463
 1326SOL    HW1 4865   0.909   2.153   0.385
 1326SOL    HW2 4866   1.033   2.121   0.466
 1327SOL     OW 4867   1.080   2.542   1.460
 1327SOL    HW1 4868   1.010   2.476   1.465
 1327SOL    HW2 4869   1.160   2.490   1.452
 1328SOL     OW 4870   1.224   3.431   0.794
 1328SOL    HW1 4871   1.242   3.498   0.728
 1328SOL    HW2 4872   1.293   3.445   0.860
 1329SOL     OW 4873   0.467   3.010   0.740
 1329SOL    HW1 4874   0.395   2.991   0.800
 1329SOL    HW2 4875   0.430   2.997   0.653
 1330SOL     OW 4876   1.270   3.657   0.605
 1330SOL    HW1 4877   1.316   3.718   0.548
 1330SOL    HW2 4878   1.205   3.711   0.651
 1331SOL     OW 4879   1.013   2.400   0.036
 1331SOL    HW1 4880   0.981   2.487   0.013
 1331SOL    HW2 4881   1.093   2.416   0.087
 1332SOL     OW 4882   0.082   2.393   1.408
 1332SOL    HW1 4883   0.149   2.392   1.340
 1332SOL    HW2 4884   0.068   2.486   1.428
 1333SOL     OW 4885   0.561   2.090   1.165
 1333SOL    HW1 4886   0.602   2.009   1.198
 1333SOL    HW2 4887   0.470   2.082   1.192
 1334SOL     OW 4888   0.869   2.322   0.640
 1334SOL    HW1 4889   0.823   2.376   0.576
 1334SOL    HW2 4890   0.888   2.240   0.594
 1335SOL     OW 4891   1.015   1.915   0.753
 1335SOL    HW1 4892   0.956   1.907   0.678
 1335SOL    HW2 4893   0.994   1.839   0.807
 1336SOL     OW 4894   1.436   3.025   0.857
 1336SOL    HW1 4895   1.368   2.958   0.856
 1336SOL    HW2 4896   1.460   3.038   0.765
 1337SOL     OW 4897   1.466   2.467   0.981
 1337SOL    HW1 4898   1.418   2.384   0.982
 1337SOL    HW2 4899   1.525   2.461   1.055
 1338SOL     OW 4900   1.853   2.679   0.380
 1338SOL    HW1 4901   1.904   2.624   0.440
 1338SOL    HW2 4902   1.816   2.618   0.317
 1339SOL     OW 4903   0.494   3.284   0.175
 1339SOL    HW1 4904   0.415   3.258   0.222
 1339SOL    HW2 4905   0.488   3.237   0.091
 1340SOL     OW 4906   1.669   3.127   0.649
 1340SOL    HW1 4907   1.764   3.132   0.660
 1340SOL    HW2 4908   1.637   3.215   0.669
 1341SOL     OW 4909   1.389   2.440   0.078
 1341SOL    HW1 4910   1.331   2.416   0.150
 1341SOL    HW2 4911   1.464   2.381   0.087
 1342SOL     OW 4912   0.529   2.125   0.328
 1342SOL    HW1 4913   0.555   2.066   0.257
 1342SOL    HW2 4914   0.512   2.208   0.284
 1343SOL     OW 4915   1.753   3.099   1.575
 1343SOL    HW1 4916   1.841   3.061   1.570
 1343SOL    HW2 4917   1.768   3.189   1.605
 1344SOL     OW 4918   1.060   3.216   1.335
 1344SOL    HW1 4919   0.985   3.185   1.386
 1344SOL    HW2 4920   1.136   3.174   1.376
 1345SOL     OW 4921   1.607   3.487   1.652
 1345SOL    HW1 4922   1.603   3.521   1.563
 1345SOL    HW2 4923   1.690   3.440   1.656
 1346SOL     OW 4924   1.127   3.065   1.107
 1346SOL    HW1 4925   1.068   3.102   1.172
 1346SOL    HW2 4926   1.093   3.095   1.023
 1347SOL     OW 4927   1.630   2.961   1.078
 1347SOL    HW1 4928   1.625   3.023   1.151
 1347SOL    HW2 4929   1.550   2.977   1.028
 1348SOL     OW 4930   0.917   1.961   1.398
 1348SOL    HW1 4931   0.940   1.940   1.307
 1348SOL    HW2 4932   0.997   1.999   1.435
 1349SOL     OW 4933   0.984   2.976   1.722
 1349SOL    HW1 4934   0.892   2.992   1.743
 1349SOL    HW2 4935   0.984   2.899   1.666
 1350SOL     OW 4936   0.710   2.921   0.374
 1350SOL    HW1 4937   0.696   2.907   0.467
 1350SOL    HW2 4938   0.786   2.868   0.352
 1351SOL     OW 4939   0.430   2.686   1.240
 1351SOL    HW1 4940   0.498   2.697   1.305
 1351SOL    HW2 4941   0.371   2.621   1.278
 1352SOL     OW 4942   1.267   2.239   1.273
 1352SOL    HW1 4943   1.299   2.317   1.320
 1352SOL    HW2 4944   1.177   2.262   1.249
 1353SOL     OW 4945   0.062   3.438   1.340
 1353SOL    HW1 4946   0.034   3.527   1.318
 1353SOL    HW2 4947   0.157   3.444   1.347
 1354SOL     OW 4948   0.351   2.976   0.499
 1354SOL    HW1 4949   0.353   3.050   0.438
 1354SOL    HW2 4950   0.344   2.899   0.443
 1355SOL     OW 4951   0.561   2.397   0.857
 1355SOL    HW1 4952   0.575   2.456   0.783
 1355SOL    HW2 4953   0.621   2.428   0.924
 1356SOL     OW 4954   1.247   3.208   0.394
 1356SOL    HW1 4955   1.303   3.281   0.422
 1356SOL    HW2 4956   1.160   3.231   0.426
 1357SOL     OW 4957   1.278   3.318   1.146
 1357SOL    HW1 4958   1.333   3.320   1.224
 1357SOL    HW2 4959   1.223   3.241   1.157
 1358SOL     OW 4960   1.583   2.485   0.479
 1358SOL    HW1 4961   1.537   2.541   0.541
 1358SOL    HW2 4962   1.622   2.546   0.416
 1359SOL     OW 4963   0.347   3.392   1.316
 1359SOL    HW1 4964   0.333   3.345   1.234
 1359SOL    HW2 4965   0.442   3.402   1.322
 1360SOL     OW 4966   0.476   2.621   1.663
 1360SOL    HW1 4967   0.505   2.660   1.580
 1360SOL    HW2 4968   0.512   2.533   1.662
 1361SOL     OW 4969   1.600   2.641   1.680
 1361SOL    HW1 4970   1.513   2.680   1.673
 1361SOL    HW2 4971   1.651   2.682   1.611
 1362SOL     OW 4972   0.996   1.982   1.756
 1362SOL    HW1 4973   1.050   2.055   1.725
 1362SOL    HW2 4974   1.045   1.903   1.730
 1363SOL     OW 4975   0.498   1.905   1.746
 1363SOL    HW1 4976   0.458   1.849   1.680
 1363SOL    HW2 4977   0.437   1.979   1.755
 1364SOL     OW 4978   0.589   2.735   1.024
 1364SOL    HW1 4979   0.617   2.827   1.026
 1364SOL    HW2 4980   0.532   2.726   1.101
 1365SOL     OW 4981   1.360   2.721   1.033
 1365SOL    HW1 4982   1.278   2.714   0.984
 1365SOL    HW2 4983   1.398   2.633   1.028
 1366SOL     OW 4984   1.204   2.388   0.271
 1366SOL    HW1 4985   1.212   2.311   0.327
 1366SOL    HW2 4986   1.162   2.453   0.327
 1367SOL     OW 4987   0.303   2.055   1.242
 1367SOL    HW1 4988   0.263   2.089   1.322
 1367SOL    HW2 4989   0.285   1.961   1.245
 1368SOL     OW 4990   0.044   3.175   1.284
 1368SOL    HW1 4991   0.077   3.128   1.361
 1368SOL    HW2 4992   0.047   3.267   1.310
 1369SOL     OW 4993   0.726   2.494   1.060
 1369SOL    HW1 4994   0.799   2.475   1.001
 1369SOL    HW2 4995   0.699   2.583   1.037
 1370SOL     OW 4996   1.734   2.821   1.851
 1370SOL    HW1 4997   1.687   2.762   1.792
 1370SOL    HW2 4998   1.675   2.834   1.925
 1371SOL     OW 4999   0.310   1.933   0.620
 1371SOL    HW1 5000   0.287   2.021   0.648
 1371SOL    HW2 5001   0.305   1.880   0.700
 1372SOL     OW 5002   1.612   2.232   0.371
 1372SOL    HW1 5003   1.643   2.172   0.439
 1372SOL    HW2 5004   1.591   2.313   0.417
 1373SOL     OW 5005   1.027   2.621   0.962
 1373SOL    HW1 5006   1.026   2.639   1.056
 1373SOL    HW2 5007   1.001   2.530   0.954
 1374SOL     OW 5008   0.983   3.429   1.715
 1374SOL    HW1 5009   0.967   3.473   1.632
 1374SOL    HW2 5010   1.025   3.346   1.691
 1375SOL     OW 5011   1.856   3.370   1.606
 1375SOL    HW1 5012   1.872   3.395   1.515
 1375SOL    HW2 5013   1.937   3.390   1.652
 1376SOL     OW 5014   0.347   2.793   1.818
 1376SOL    HW1 5015   0.421   2.822   1.872
 1376SOL    HW2 5016   0.384   2.727   1.760
 1377SOL     OW 5017   1.538   2.147   0.118
 1377SOL    HW1 5018   1.475   2.077   0.134
 1377SOL    HW2 5019   1.567   2.174   0.205
 1378SOL     OW 5020   1.289   2.687   0.033
 1378SOL    HW1 5021   1.332   2.602   0.045
 1378SOL    HW2 5022   1.322   2.719  11.049
 1379SOL     OW 5023   1.065   3.197   0.853
 1379SOL    HW1 5024   1.068   3.124   0.790
 1379SOL    HW2 5025   1.127   3.261   0.818
 1380SOL     OW 5026   0.317   2.674   0.949
 1380SOL    HW1 5027   0.411   2.691   0.945
 1380SOL    HW2 5028   0.310   2.583   0.978
 1381SOL     OW 5029   0.332   2.386   0.992
 1381SOL    HW1 5030   0.294   2.299   0.976
 1381SOL    HW2 5031   0.410   2.388   0.937
 1382SOL     OW 5032   1.134   2.240   1.680
 1382SOL    HW1 5033   1.088   2.295   1.743
 1382SOL    HW2 5034   1.223   2.277   1.676
 1383SOL     OW 5035   1.160   2.066   1.469
 1383SOL    HW1 5036   1.151   2.129   1.541
 1383SOL    HW2 5037   1.199   2.116   1.398
 1384SOL     OW 5038   4.496   3.186   0.198
 1384SOL    HW1 5039   4.402   3.204   0.190
 1384SOL    HW2 5040   0.000   3.094   0.226
 1385SOL     OW 5041   0.096   3.642   0.940
 1385SOL    HW1 5042   0.057   3.585   0.873
 1385SOL    HW2 5043   0.183   3.661   0.907
 1386SOL     OW 5044   0.498   3.435   0.907
 1386SOL    HW1 5045   0.566   3.498   0.930
 1386SOL    HW2 5046   0.542   3.372   0.851
 1387SOL     OW 5047   0.986   2.656   1.228
 1387SOL    HW1 5048   1.040   2.631   1.303
 1387SOL    HW2 5049   0.900   2.619   1.247
 1388SOL     OW 5050   0.036   2.424   1.106
 1388SOL    HW1 5051   0.119   2.389   1.073
 1388SOL    HW2 5052   0.024   2.383   1.191
 1389SOL     OW 5053   0.179   2.379   1.714
 1389SOL    HW1 5054   0.259   2.350   1.669
 1389SOL    HW2 5055   0.155   2.460   1.670
 1390SOL     OW 5056   1.376   2.802   1.659
 1390SOL    HW1 5057   1.396   2.896   1.658
 1390SOL    HW2 5058   1.374   2.777   1.567
 1391SOL     OW 5059   0.815   2.436   0.363
 1391SOL    HW1 5060   0.823   2.361   0.304
 1391SOL    HW2 5061   0.740   2.485   0.329
 1392SOL     OW 5062   1.642   2.465   1.190
 1392SOL    HW1 5063   1.633   2.403   1.262
 1392SOL    HW2 5064   1.728   2.446   1.153
 1393SOL     OW 5065   0.273   3.423   1.742
 1393SOL    HW1 5066   0.217   3.476   1.799
 1393SOL    HW2 5067   0.252   3.333   1.764
 1394SOL     OW 5068   0.688   2.318   1.264
 1394SOL    HW1 5069   0.645   2.240   1.229
 1394SOL    HW2 5070   0.691   2.378   1.190
 1395SOL     OW 5071   0.930   3.541   1.466
 1395SOL    HW1 5072   0.903   3.508   1.381
 1395SOL    HW2 5073   0.926   3.636   1.458
 1396SOL     OW 5074   0.476   2.347   0.184
 1396SOL    HW1 5075   0.532   2.421   0.206
 1396SOL    HW2 5076   0.390   2.386   0.167
 1397SOL     OW 5077   0.162   3.003   1.462
 1397SOL    HW1 5078   0.147   2.956   1.544
 1397SOL    HW2 5079   0.170   2.934   1.397
 1398SOL     OW 5080   1.328   2.910   1.224
 1398SOL    HW1 5081   1.351   2.847   1.156
 1398SOL    HW2 5082   1.256   2.961   1.186
 1399SOL     OW 5083   1.307   2.715   0.310
 1399SOL    HW1 5084   1.229   2.683   0.357
 1399SOL    HW2 5085   1.286   2.702   0.218
 1400SOL     OW 5086   1.770   3.608   1.149
 1400SOL    HW1 5087   1.830   3.634   1.079
 1400SOL    HW2 5088   1.746   3.517   1.128
 1401SOL     OW 5089   1.242   3.595   1.116
 1401SOL    HW1 5090   1.323   3.614   1.069
 1401SOL    HW2 5091   1.245   3.501   1.133
 1402SOL     OW 5092   0.067   3.048   1.049
 1402SOL    HW1 5093   0.069   3.082   1.138
 1402SOL    HW2 5094   0.017   3.114   1.000
 1403SOL     OW 5095   0.679   3.527   1.727
 1403SOL    HW1 5096   0.624   3.605   1.722
 1403SOL    HW2 5097   0.741   3.537   1.654
 1404SOL     OW 5098   0.917   1.954   0.110
 1404SOL    HW1 5099   0.968   1.919   0.037
 1404SOL    HW2 5100   0.953   1.911   0.188
 1405SOL     OW 5101   1.721   1.999   0.517
 1405SOL    HW1 5102   1.776   1.960   0.448
 1405SOL    HW2 5103   1.691   1.925   0.569
 1406SOL     OW 5104   1.390   3.430   0.484
 1406SOL    HW1 5105   1.451   3.461   0.417
 1406SOL    HW2 5106   1.343   3.509   0.512
 1407SOL     OW 5107   0.120   3.669   1.847
 1407SOL    HW1 5108   0.080   3.596   1.894
 1407SOL    HW2 5109   0.183   3.706   1.909
 1408SOL     OW 5110   1.277   2.787   0.671
 1408SOL    HW1 5111   1.350   2.726   0.676
 1408SOL    HW2 5112   1.310   2.860   0.619
 1409SOL     OW 5113   0.817   3.135   1.431
 1409SOL    HW1 5114   0.790   3.174   1.514
 1409SOL    HW2 5115   0.746   3.156   1.370
 1410SOL     OW 5116   0.675   3.481   0.166
 1410SOL    HW1 5117   0.683   3.490   0.071
 1410SOL    HW2 5118   0.618   3.405   0.178
 1411SOL     OW 5119   1.631   3.588   1.392
 1411SOL    HW1 5120   1.679   3.596   1.310
 1411SOL    HW2 5121   1.617   3.679   1.420
 1412SOL     OW 5122   1.805   2.016   0.968
 1412SOL    HW1 5123   1.855   1.945   0.928
 1412SOL    HW2 5124   1.728   2.025   0.911
 1413SOL     OW 5125   0.266   2.183   0.720
 1413SOL    HW1 5126   0.183   2.221   0.691
 1413SOL    HW2 5127   0.254   2.170   0.814
 1414SOL     OW 5128   1.222   3.465   0.051
 1414SOL    HW1 5129   1.209   3.372   0.072
 1414SOL    HW2 5130   1.156   3.484  11.085
 1415SOL     OW 5131   0.825   2.869   1.372
 1415SOL    HW1 5132   0.867   2.865   1.286
 1415SOL    HW2 5133   0.825   2.961   1.395
 1416SOL     OW 5134   0.914   2.770   0.282
 1416SOL    HW1 5135   0.981   2.809   0.226
 1416SOL    HW2 5136   0.961   2.703   0.333
 1417SOL     OW 5137   1.499   3.484   0.046
 1417SOL    HW1 5138   1.404   3.480   0.042
 1417SOL    HW2 5139   1.526   3.497  11.055
 1418SOL     OW 5140   0.373   3.168   1.491
 1418SOL    HW1 5141   0.356   3.247   1.439
 1418SOL    HW2 5142   0.298   3.111   1.474
 1419SOL     OW 5143   1.612   3.145   1.281
 1419SOL    HW1 5144   1.670   3.136   1.356
 1419SOL    HW2 5145   1.551   3.214   1.306
 1420SOL     OW 5146   1.049   2.968   0.705
 1420SOL    HW1 5147   0.979   2.917   0.745
 1420SOL    HW2 5148   1.111   2.903   0.673
 1421SOL     OW 5149   1.020   2.102   0.966
 1421SOL    HW1 5150   1.015   2.054   0.883
 1421SOL    HW2 5151   1.015   2.034   1.033
 1422SOL     OW 5152   0.603   3.353   0.483
 1422SOL    HW1 5153   0.640   3.302   0.412
 1422SOL    HW2 5154   0.530   3.401   0.443
 1423SOL     OW 5155   1.720   2.254   1.379
 1423SOL    HW1 5156   1.797   2.310   1.377
 1423SOL    HW2 5157   1.742   2.180   1.323
 1424SOL     OW 5158   0.262   3.193   0.284
 1424SOL    HW1 5159   0.174   3.206   0.248
 1424SOL    HW2 5160   0.258   3.233   0.371
 1425SOL     OW 5161   0.117   2.870   1.695
 1425SOL    HW1 5162   0.052   2.909   1.754
 1425SOL    HW2 5163   0.195   2.858   1.750
 1426SOL     OW 5164   0.673   2.061   1.499
 1426SOL    HW1 5165   0.756   2.040   1.457
 1426SOL    HW2 5166   0.697   2.088   1.587
 1427SOL     OW 5167   0.059   2.203   0.004
 1427SOL    HW1 5168   4.470   2.193   0.039
 1427SOL    HW2 5169   0.079   2.296   0.016
 1428SOL     OW 5170   1.432   2.721   1.402
 1428SOL    HW1 5171   1.383   2.780   1.345
 1428SOL    HW2 5172   1.521   2.723   1.366
 1429SOL     OW 5173   0.079   2.034   0.307
 1429SOL    HW1 5174   0.083   2.115   0.256
 1429SOL    HW2 5175   0.154   1.983   0.278
 1430SOL     OW 5176   1.182   3.204   0.122
 1430SOL    HW1 5177   1.088   3.183   0.116
 1430SOL    HW2 5178   1.203   3.196   0.215
 1431SOL     OW 5179   0.622   2.693   1.429
 1431SOL    HW1 5180   0.677   2.770   1.416
 1431SOL    HW2 5181   0.683   2.620   1.438
 1432SOL     OW 5182   1.484   3.637   0.977
 1432SOL    HW1 5183   1.509   3.695   0.904
 1432SOL    HW2 5184   1.566   3.620   1.023
 1433SOL     OW 5185   0.716   2.424   1.704
 1433SOL    HW1 5186   0.752   2.489   1.765
 1433SOL    HW2 5187   0.750   2.341   1.735
 1434SOL     OW 5188   1.470   3.064   1.633
 1434SOL    HW1 5189   1.457   3.077   1.727
 1434SOL    HW2 5190   1.563   3.077   1.619
 1435SOL     OW 5191   0.382   3.605   1.564
 1435SOL    HW1 5192   0.296   3.645   1.548
 1435SOL    HW2 5193   0.362   3.524   1.611
 1436SOL     OW 5194   1.672   2.744   1.255
 1436SOL    HW1 5195   1.662   2.658   1.213
 1436SOL    HW2 5196   1.661   2.807   1.184
 1437SOL     OW 5197   1.217   2.180   0.459
 1437SOL    HW1 5198   1.281   2.110   0.449
 1437SOL    HW2 5199   1.246   2.229   0.536
 1438SOL     OW 5200   0.590   2.601   0.668
 1438SOL    HW1 5201   0.629   2.688   0.652
 1438SOL    HW2 5202   0.521   2.593   0.602
 1439SOL     OW 5203   1.764   2.234   1.653
 1439SOL    HW1 5204   1.750   2.238   1.558
 1439SOL    HW2 5205   1.699   2.171   1.684
 1440SOL     OW 5206   1.749   2.794   1.511
 1440SOL    HW1 5207   1.744   2.888   1.526
 1440SOL    HW2 5208   1.730   2.783   1.418
 1441SOL     OW 5209   0.900   3.220   0.064
 1441SOL    HW1 5210   0.829   3.220   0.129
 1441SOL    HW2 5211   0.890   3.303   0.017
 1442SOL     OW 5212   0.660   3.655   0.948
 1442SOL    HW1 5213   0.638   3.745   0.922
 1442SOL    HW2 5214   0.755   3.650   0.938
 1443SOL     OW 5215   0.867   2.828   0.855
 1443SOL    HW1 5216   0.917   2.757   0.896
 1443SOL    HW2 5217   0.833   2.878   0.929
 1444SOL     OW 5218   1.080   2.852   0.086
 1444SOL    HW1 5219   1.056   2.886  11.099
 1444SOL    HW2 5220   1.156   2.797   0.069
 1445SOL     OW 5221   1.855   3.418   0.845
 1445SOL    HW1 5222   1.779   3.407   0.789
 1445SOL    HW2 5223   1.845   3.350   0.912
 1446SOL     OW 5224   0.229   3.168   1.857
 1446SOL    HW1 5225   0.158   3.108   1.833
 1446SOL    HW2 5226   0.221   3.178   1.952
 1447SOL     OW 5227   0.102   3.098   0.668
 1447SOL    HW1 5228   0.113   3.050   0.750
 1447SOL    HW2 5229   0.166   3.059   0.608
 1448SOL     OW 5230   0.681   3.263   1.627
 1448SOL    HW1 5231   0.601   3.219   1.655
 1448SOL    HW2 5232   0.675   3.351   1.664
 1449SOL     OW 5233   1.778   2.037   1.232
 1449SOL    HW1 5234   1.801   1.946   1.253
 1449SOL    HW2 5235   1.786   2.042   1.137
 1450SOL     OW 5236   0.433   2.296   0.526
 1450SOL    HW1 5237   0.462   2.224   0.470
 1450SOL    HW2 5238   0.384   2.255   0.596
 1451SOL     OW 5239   1.701   3.352   1.099
 1451SOL    HW1 5240   1.620   3.328   1.054
 1451SOL    HW2 5241   1.713   3.283   1.164
 1452SOL     OW 5242   0.304   2.351   1.256
 1452SOL    HW1 5243   0.378   2.309   1.300
 1452SOL    HW2 5244   0.335   2.366   1.166
 1453SOL     OW 5245   0.826   3.440   0.679
 1453SOL    HW1 5246   0.816   3.488   0.597
 1453SOL    HW2 5247   0.748   3.384   0.683
 1454SOL     OW 5248   1.434   2.087   1.117
 1454SOL    HW1 5249   1.466   2.010   1.164
 1454SOL    HW2 5250   1.381   2.135   1.181
 1455SOL     OW 5251   1.008   1.882   1.145
 1455SOL    HW1 5252   0.954   1.813   1.105
 1455SOL    HW2 5253   1.096   1.844   1.146
 1456SOL     OW 5254   0.768   3.190   0.314
 1456SOL    HW1 5255   0.738   3.100   0.327
 1456SOL    HW2 5256   0.852   3.194   0.358
 1457SOL     OW 5257   0.621   3.419   1.285
 1457SOL    HW1 5258   0.623   3.501   1.335
 1457SOL    HW2 5259   0.708   3.412   1.246
 1458SOL     OW 5260   1.351   1.915   0.164
 1458SOL    HW1 5261   1.373   1.867   0.085
 1458SOL    HW2 5262   1.264   1.883   0.189
 1459SOL     OW 5263   1.297   2.323   0.682
 1459SOL    HW1 5264   1.242   2.401   0.690
 1459SOL    HW2 5265   1.293   2.282   0.769
 1460SOL     OW 5266   1.565   2.062   0.862
 1460SOL    HW1 5267   1.516   2.082   0.942
 1460SOL    HW2 5268   1.572   2.146   0.817
 1461SOL     OW 5269   0.039   2.911   0.283
 1461SOL    HW1 5270   0.134   2.909   0.285
 1461SOL    HW2 5271   0.012   2.877   0.368
 1462SOL     OW 5272   0.884   3.514   0.347
 1462SOL    HW1 5273   0.813   3.493   0.287
 1462SOL    HW2 5274   0.852   3.588   0.398
 1463SOL     OW 5275   0.248   2.490   1.981
 1463SOL    HW1 5276   0.173   2.473   2.038
 1463SOL    HW2 5277   0.217   2.470   1.893
 1464SOL     OW 5278   0.213   2.138   2.854
 1464SOL    HW1 5279   0.249   2.111   2.938
 1464SOL    HW2 5280   0.137   2.080   2.841
 1465SOL     OW 5281   0.009   2.251   2.502
 1465SOL    HW1 5282   4.428   2.281   2.543
 1465SOL    HW2 5283   4.484   2.171   2.455
 1466SOL     OW 5284   0.567   3.146   3.035
 1466SOL    HW1 5285   0.480   3.151   2.997
 1466SOL    HW2 5286   0.582   3.234   3.071
 1467SOL     OW 5287   1.559   3.373   2.568
 1467SOL    HW1 5288   1.515   3.355   2.651
 1467SOL    HW2 5289   1.488   3.378   2.504
 1468SOL     OW 5290   1.129   2.561   2.565
 1468SOL    HW1 5291   1.179   2.641   2.551
 1468SOL    HW2 5292   1.083   2.576   2.647
 1469SOL     OW 5293   1.777   2.460   2.091
 1469SOL    HW1 5294   1.749   2.457   1.999
 1469SOL    HW2 5295   1.725   2.392   2.134
 1470SOL     OW 5296   0.758   3.006   2.901
 1470SOL    HW1 5297   0.688   3.039   2.957
 1470SOL    HW2 5298   0.792   3.083   2.856
 1471SOL     OW 5299   0.864   2.639   3.683
 1471SOL    HW1 5300   0.850   2.711   3.745
 1471SOL    HW2 5301   0.887   2.683   3.601
 1472SOL     OW 5302   0.686   2.868   2.510
 1472SOL    HW1 5303   0.750   2.854   2.580
 1472SOL    HW2 5304   0.616   2.918   2.552
 1473SOL     OW 5305   0.709   3.013   3.673
 1473SOL    HW1 5306   0.756   3.092   3.698
 1473SOL    HW2 5307   0.626   3.044   3.638
 1474SOL     OW 5308   0.336   3.284   2.932
 1474SOL    HW1 5309   0.255   3.265   2.885
 1474SOL    HW2 5310   0.386   3.339   2.871
 1475SOL     OW 5311   1.461   3.360   3.214
 1475SOL    HW1 5312   1.508   3.443   3.224
 1475SOL    HW2 5313   1.403   3.355   3.289
 1476SOL     OW 5314   0.443   2.266   3.356
 1476SOL    HW1 5315   0.523   2.213   3.359
 1476SOL    HW2 5316   0.372   2.202   3.360
 1477SOL     OW 5317   1.600   2.307   2.605
 1477SOL    HW1 5318   1.526   2.337   2.552
 1477SOL    HW2 5319   1.639   2.387   2.640
 1478SOL     OW 5320   0.246   3.553   2.341
 1478SOL    HW1 5321   0.232   3.638   2.383
 1478SOL    HW2 5322   0.310   3.571   2.272
 1479SOL     OW 5323   1.136   3.203   3.553
 1479SOL    HW1 5324   1.176   3.199   3.641
 1479SOL    HW2 5325   1.083   3.124   3.548
 1480SOL     OW 5326   0.246   3.289   2.390
 1480SOL    HW1 5327   0.238   3.384   2.394
 1480SOL    HW2 5328   0.182   3.257   2.453
 1481SOL     OW 5329   0.246   2.943   2.745
 1481SOL    HW1 5330   0.263   2.855   2.777
 1481SOL    HW2 5331   0.188   2.981   2.811
 1482SOL     OW 5332   0.616   3.652   3.294
 1482SOL    HW1 5333   0.532   3.634   3.337
 1482SOL    HW2 5334   0.636   3.743   3.318
 1483SOL     OW 5335   0.582   2.846   1.998
 1483SOL    HW1 5336   0.628   2.892   1.928
 1483SOL    HW2 5337   0.627   2.874   2.078
 1484SOL     OW 5338   1.596   1.982   3.334
 1484SOL    HW1 5339   1.599   2.059   3.278
 1484SOL    HW2 5340   1.581   2.017   3.422
 1485SOL     OW 5341   0.136   2.507   2.436
 1485SOL    HW1 5342   0.087   2.426   2.451
 1485SOL    HW2 5343   0.106   2.566   2.505
 1486SOL     OW 5344   1.842   3.622   2.198
 1486SOL    HW1 5345   1.902   3.594   2.266
 1486SOL    HW2 5346   1.868   3.713   2.179
 1487SOL     OW 5347   0.033   3.463   1.999
 1487SOL    HW1 5348   0.021   3.368   2.000
 1487SOL    HW2 5349   0.014   3.490   2.089
 1488SOL     OW 5350   1.691   2.782   2.500
 1488SOL    HW1 5351   1.774   2.741   2.478
 1488SOL    HW2 5352   1.667   2.832   2.422
 1489SOL     OW 5353   1.645   2.969   2.292
 1489SOL    HW1 5354   1.730   2.978   2.249
 1489SOL    HW2 5355   1.649   3.030   2.365
 1490SOL     OW 5356   0.111   2.623   3.449
 1490SOL    HW1 5357   0.204   2.623   3.428
 1490SOL    HW2 5358   0.089   2.715   3.460
 1491SOL     OW 5359   0.613   3.245   2.598
 1491SOL    HW1 5360   0.566   3.162   2.607
 1491SOL    HW2 5361   0.597   3.272   2.507
 1492SOL     OW 5362   1.290   3.101   3.286
 1492SOL    HW1 5363   1.322   3.033   3.226
 1492SOL    HW2 5364   1.346   3.093   3.363
 1493SOL     OW 5365   0.814   1.861   2.368
 1493SOL    HW1 5366   0.854   1.946   2.352
 1493SOL    HW2 5367   0.721   1.880   2.379
 1494SOL     OW 5368   0.182   2.804   3.141
 1494SOL    HW1 5369   0.273   2.787   3.119
 1494SOL    HW2 5370   0.133   2.784   3.061
 1495SOL     OW 5371   1.533   2.853   2.059
 1495SOL    HW1 5372   1.462   2.796   2.089
 1495SOL    HW2 5373   1.571   2.888   2.140
 1496SOL     OW 5374   1.186   3.667   3.483
 1496SOL    HW1 5375   1.198   3.724   3.407
 1496SOL    HW2 5376   1.201   3.579   3.449
 1497SOL     OW 5377   0.329   2.118   3.658
 1497SOL    HW1 5378   0.380   2.191   3.693
 1497SOL    HW2 5379   0.243   2.127   3.699
 1498SOL     OW 5380   1.467   3.281   2.815
 1498SOL    HW1 5381   1.398   3.296   2.880
 1498SOL    HW2 5382   1.454   3.190   2.787
 1499SOL     OW 5383   1.661   3.597   2.440
 1499SOL    HW1 5384   1.638   3.569   2.351
 1499SOL    HW2 5385   1.634   3.524   2.496
 1500SOL     OW 5386   0.598   2.584   2.127
 1500SOL    HW1 5387   0.601   2.664   2.075
 1500SOL    HW2 5388   0.532   2.601   2.194
 1501SOL     OW 5389   1.278   2.213   2.794
 1501SOL    HW1 5390   1.190   2.179   2.802
 1501SOL    HW2 5391   1.330   2.160   2.855
 1502SOL     OW 5392   1.581   3.531   2.171
 1502SOL    HW1 5393   1.671   3.565   2.164
 1502SOL    HW2 5394   1.555   3.514   2.080
 1503SOL     OW 5395   0.794   2.478   3.314
 1503SOL    HW1 5396   0.768   2.455   3.403
 1503SOL    HW2 5397   0.750   2.414   3.259
 1504SOL     OW 5398   1.394   2.336   3.540
 1504SOL    HW1 5399   1.395   2.380   3.625
 1504SOL    HW2 5400   1.456   2.264   3.549
 1505SOL     OW 5401   0.957   2.750   3.443
 1505SOL    HW1 5402   1.011   2.679   3.408
 1505SOL    HW2 5403   0.909   2.784   3.367
 1506SOL     OW 5404   0.993   2.276   3.101
 1506SOL    HW1 5405   0.909   2.298   3.142
 1506SOL    HW2 5406   0.969   2.228   3.022
 1507SOL     OW 5407   1.050   2.560   2.289
 1507SOL    HW1 5408   1.065   2.553   2.383
 1507SOL    HW2 5409   0.968   2.513   2.273
 1508SOL     OW 5410   0.097   2.688   2.646
 1508SOL    HW1 5411   0.184   2.668   2.682
 1508SOL    HW2 5412   0.049   2.726   2.719
 1509SOL     OW 5413   0.126   3.713   3.437
 1509SOL    HW1 5414   0.118   3.692   3.530
 1509SOL    HW2 5415   0.044   3.681   3.399
 1510SOL     OW 5416   0.889   2.209   2.056
 1510SOL    HW1 5417   0.931   2.270   1.996
 1510SOL    HW2 5418   0.906   2.122   2.019
 1511SOL     OW 5419   1.701   2.448   3.690
 1511SOL    HW1 5420   1.664   2.521   3.640
 1511SOL    HW2 5421   1.725   2.383   3.625
 1512SOL     OW 5422   1.376   3.004   2.404
 1512SOL    HW1 5423   1.454   2.991   2.350
 1512SOL    HW2 5424   1.323   3.066   2.354
 1513SOL     OW 5425   0.551   2.045   2.755
 1513SOL    HW1 5426   0.553   2.074   2.846
 1513SOL    HW2 5427   0.552   2.126   2.704
 1514SOL     OW 5428   1.008   3.308   2.335
 1514SOL    HW1 5429   0.968   3.379   2.286
 1514SOL    HW2 5430   0.991   3.329   2.427
 1515SOL     OW 5431   0.355   3.671   2.719
 1515SOL    HW1 5432   0.397   3.585   2.730
 1515SOL    HW2 5433   0.425   3.734   2.733
 1516SOL     OW 5434   1.799   2.919   2.729
 1516SOL    HW1 5435   1.742   2.904   2.653
 1516SOL    HW2 5436   1.738   2.925   2.803
 1517SOL     OW 5437   1.228   3.401   3.374
 1517SOL    HW1 5438   1.214   3.328   3.435
 1517SOL    HW2 5439   1.166   3.386   3.304
 1518SOL     OW 5440   0.317   2.816   2.113
 1518SOL    HW1 5441   0.401   2.838   2.073
 1518SOL    HW2 5442   0.299   2.727   2.084
 1519SOL     OW 5443   1.478   2.600   2.588
 1519SOL    HW1 5444   1.465   2.555   2.672
 1519SOL    HW2 5445   1.553   2.657   2.603
 1520SOL     OW 5446   0.466   3.124   3.597
 1520SOL    HW1 5447   0.439   3.130   3.506
 1520SOL    HW2 5448   0.385   3.129   3.647
 1521SOL     OW 5449   1.121   3.639   2.094
 1521SOL    HW1 5450   1.049   3.597   2.140
 1521SOL    HW2 5451   1.143   3.579   2.023
 1522SOL     OW 5452   0.195   2.139   3.349
 1522SOL    HW1 5453   0.134   2.213   3.354
 1522SOL    HW2 5454   0.184   2.093   3.432
 1523SOL     OW 5455   1.629   3.241   1.949
 1523SOL    HW1 5456   1.588   3.327   1.934
 1523SOL    HW2 5457   1.560   3.178   1.931
 1524SOL     OW 5458   0.469   3.606   2.176
 1524SOL    HW1 5459   0.510   3.658   2.245
 1524SOL    HW2 5460   0.543   3.573   2.125
 1525SOL     OW 5461   1.401   1.971   2.293
 1525SOL    HW1 5462   1.394   1.944   2.202
 1525SOL    HW2 5463   1.495   1.974   2.311
 1526SOL     OW 5464   0.261   3.656   3.095
 1526SOL    HW1 5465   0.306   3.582   3.134
 1526SOL    HW2 5466   0.227   3.622   3.012
 1527SOL     OW 5467   0.938   3.561   2.761
 1527SOL    HW1 5468   1.014   3.507   2.783
 1527SOL    HW2 5469   0.893   3.511   2.693
 1528SOL     OW 5470   0.393   2.557   2.336
 1528SOL    HW1 5471   0.417   2.465   2.346
 1528SOL    HW2 5472   0.301   2.561   2.362
 1529SOL     OW 5473   1.534   2.086   3.588
 1529SOL    HW1 5474   1.542   2.107   3.681
 1529SOL    HW2 5475   1.466   2.019   3.584
 1530SOL     OW 5476   0.632   1.988   1.966
 1530SOL    HW1 5477   0.703   1.926   1.981
 1530SOL    HW2 5478   0.585   1.953   1.890
 1531SOL     OW 5479   0.768   2.138   3.615
 1531SOL    HW1 5480   0.842   2.078   3.619
 1531SOL    HW2 5481   0.718   2.120   3.695
 1532SOL     OW 5482   0.878   3.384   3.055
 1532SOL    HW1 5483   0.861   3.347   2.968
 1532SOL    HW2 5484   0.946   3.328   3.092
 1533SOL     OW 5485   1.341   2.451   3.294
 1533SOL    HW1 5486   1.372   2.419   3.379
 1533SOL    HW2 5487   1.377   2.539   3.288
 1534SOL     OW 5488   0.814   3.259   2.799
 1534SOL    HW1 5489   0.898   3.248   2.754
 1534SOL    HW2 5490   0.749   3.258   2.729
 1535SOL     OW 5491   0.927   2.371   2.766
 1535SOL    HW1 5492   0.904   2.363   2.673
 1535SOL    HW2 5493   0.960   2.285   2.790
 1536SOL     OW 5494   0.551   1.924   2.365
 1536SOL    HW1 5495   0.470   1.923   2.416
 1536SOL    HW2 5496   0.544   2.002   2.311
 1537SOL     OW 5497   1.429   3.060   1.904
 1537SOL    HW1 5498   1.458   2.984   1.953
 1537SOL    HW2 5499   1.342   3.080   1.940
 1538SOL     OW 5500   0.295   1.908   2.040
 1538SOL    HW1 5501   0.357   1.975   2.013
 1538SOL    HW2 5502   0.349   1.842   2.084
 1539SOL     OW 5503   0.937   2.107   2.325
 1539SOL    HW1 5504   0.909   2.149   2.243
 1539SOL    HW2 5505   1.032   2.120   2.327
 1540SOL     OW 5506   1.080   2.542   3.322
 1540SOL    HW1 5507   1.010   2.476   3.327
 1540SOL    HW2 5508   1.161   2.491   3.315
 1541SOL     OW 5509   1.225   3.431   2.655
 1541SOL    HW1 5510   1.242   3.499   2.590
 1541SOL    HW2 5511   1.292   3.445   2.722
 1542SOL     OW 5512   0.466   3.010   2.599
 1542SOL    HW1 5513   0.394   2.992   2.660
 1542SOL    HW2 5514   0.428   2.994   2.512
 1543SOL     OW 5515   1.271   3.656   2.469
 1543SOL    HW1 5516   1.315   3.718   2.410
 1543SOL    HW2 5517   1.205   3.710   2.513
 1544SOL     OW 5518   1.025   2.406   1.882
 1544SOL    HW1 5519   0.982   2.489   1.862
 1544SOL    HW2 5520   1.089   2.428   1.950
 1545SOL     OW 5521   0.082   2.393   3.270
 1545SOL    HW1 5522   0.149   2.392   3.202
 1545SOL    HW2 5523   0.068   2.486   3.290
 1546SOL     OW 5524   0.561   2.089   3.027
 1546SOL    HW1 5525   0.602   2.009   3.060
 1546SOL    HW2 5526   0.470   2.082   3.054
 1547SOL     OW 5527   0.869   2.322   2.502
 1547SOL    HW1 5528   0.822   2.375   2.438
 1547SOL    HW2 5529   0.889   2.241   2.455
 1548SOL     OW 5530   1.014   1.915   2.615
 1548SOL    HW1 5531   0.956   1.907   2.539
 1548SOL    HW2 5532   0.994   1.839   2.669
 1549SOL     OW 5533   1.436   3.025   2.719
 1549SOL    HW1 5534   1.368   2.958   2.719
 1549SOL    HW2 5535   1.457   3.038   2.627
 1550SOL     OW 5536   1.464   2.468   2.844
 1550SOL    HW1 5537   1.419   2.383   2.842
 1550SOL    HW2 5538   1.525   2.461   2.917
 1551SOL     OW 5539   1.848   2.678   2.243
 1551SOL    HW1 5540   1.905   2.628   2.300
 1551SOL    HW2 5541   1.821   2.617   2.175
 1552SOL     OW 5542   0.492   3.277   2.023
 1552SOL    HW1 5543   0.415   3.248   2.072
 1552SOL    HW2 5544   0.472   3.254   1.932
 1553SOL     OW 5545   1.669   3.127   2.509
 1553SOL    HW1 5546   1.764   3.132   2.522
 1553SOL    HW2 5547   1.637   3.215   2.530
 1554SOL     OW 5548   1.394   2.434   1.933
 1554SOL    HW1 5549   1.333   2.415   2.005
 1554SOL    HW2 5550   1.477   2.396   1.962
 1555SOL     OW 5551   0.525   2.122   2.181
 1555SOL    HW1 5552   0.569   2.075   2.111
 1555SOL    HW2 5553   0.507   2.209   2.144
 1556SOL     OW 5554   1.753   3.100   3.436
 1556SOL    HW1 5555   1.840   3.060   3.435
 1556SOL    HW2 5556   1.767   3.189   3.466
 1557SOL     OW 5557   1.060   3.216   3.197
 1557SOL    HW1 5558   0.985   3.185   3.247
 1557SOL    HW2 5559   1.136   3.174   3.238
 1558SOL     OW 5560   1.607   3.488   3.514
 1558SOL    HW1 5561   1.603   3.521   3.425
 1558SOL    HW2 5562   1.690   3.440   3.519
 1559SOL     OW 5563   1.127   3.065   2.969
 1559SOL    HW1 5564   1.068   3.102   3.034
 1559SOL    HW2 5565   1.093   3.095   2.885
 1560SOL     OW 5566   1.631   2.962   2.939
 1560SOL    HW1 5567   1.626   3.024   3.013
 1560SOL    HW2 5568   1.550   2.977   2.890
 1561SOL     OW 5569   0.917   1.961   3.260
 1561SOL    HW1 5570   0.940   1.940   3.169
 1561SOL    HW2 5571   0.997   1.999   3.296
 1562SOL     OW 5572   0.984   2.976   3.584
 1562SOL    HW1 5573   0.892   2.992   3.605
 1562SOL    HW2 5574   0.984   2.899   3.528
 1563SOL     OW 5575   0.708   2.923   2.234
 1563SOL    HW1 5576   0.695   2.908   2.328
 1563SOL    HW2 5577   0.784   2.869   2.212
 1564SOL     OW 5578   0.430   2.686   3.102
 1564SOL    HW1 5579   0.499   2.697   3.167
 1564SOL    HW2 5580   0.371   2.621   3.140
 1565SOL     OW 5581   1.267   2.239   3.136
 1565SOL    HW1 5582   1.299   2.317   3.182
 1565SOL    HW2 5583   1.177   2.262   3.111
 1566SOL     OW 5584   0.061   3.438   3.201
 1566SOL    HW1 5585   0.033   3.527   3.181
 1566SOL    HW2 5586   0.157   3.444   3.209
 1567SOL     OW 5587   0.350   2.969   2.355
 1567SOL    HW1 5588   0.358   3.042   2.294
 1567SOL    HW2 5589   0.351   2.891   2.300
 1568SOL     OW 5590   0.561   2.396   2.718
 1568SOL    HW1 5591   0.575   2.456   2.645
 1568SOL    HW2 5592   0.621   2.428   2.786
 1569SOL     OW 5593   1.248   3.210   2.252
 1569SOL    HW1 5594   1.303   3.282   2.282
 1569SOL    HW2 5595   1.161   3.231   2.285
 1570SOL     OW 5596   1.278   3.318   3.008
 1570SOL    HW1 5597   1.333   3.320   3.086
 1570SOL    HW2 5598   1.223   3.241   3.019
 1571SOL     OW 5599   1.585   2.490   2.338
 1571SOL    HW1 5600   1.536   2.538   2.404
 1571SOL    HW2 5601   1.625   2.558   2.283
 1572SOL     OW 5602   0.347   3.392   3.178
 1572SOL    HW1 5603   0.333   3.345   3.096
 1572SOL    HW2 5604   0.442   3.402   3.184
 1573SOL     OW 5605   0.476   2.621   3.525
 1573SOL    HW1 5606   0.505   2.660   3.442
 1573SOL    HW2 5607   0.513   2.533   3.524
 1574SOL     OW 5608   1.597   2.644   3.540
 1574SOL    HW1 5609   1.511   2.685   3.532
 1574SOL    HW2 5610   1.650   2.686   3.471
 1575SOL     OW 5611   0.996   1.982   3.618
 1575SOL    HW1 5612   1.050   2.055   3.587
 1575SOL    HW2 5613   1.045   1.904   3.592
 1576SOL     OW 5614   0.498   1.905   3.608
 1576SOL    HW1 5615   0.458   1.849   3.543
 1576SOL    HW2 5616   0.437   1.979   3.617
 1577SOL     OW 5617   0.589   2.735   2.886
 1577SOL    HW1 5618   0.617   2.827   2.888
 1577SOL    HW2 5619   0.532   2.726   2.963
 1578SOL     OW 5620   1.360   2.721   2.894
 1578SOL    HW1 5621   1.277   2.714   2.846
 1578SOL    HW2 5622   1.398   2.634   2.890
 1579SOL     OW 5623   1.207   2.391   2.131
 1579SOL    HW1 5624   1.214   2.312   2.185
 1579SOL    HW2 5625   1.164   2.455   2.187
 1580SOL     OW 5626   0.303   2.055   3.104
 1580SOL    HW1 5627   0.264   2.089   3.184
 1580SOL    HW2 5628   0.285   1.961   3.107
 1581SOL     OW 5629   0.044   3.175   3.146
 1581SOL    HW1 5630   0.077   3.128   3.223
 1581SOL    HW2 5631   0.047   3.267   3.171
 1582SOL     OW 5632   0.726   2.494   2.922
 1582SOL    HW1 5633   0.799   2.475   2.863
 1582SOL    HW2 5634   0.699   2.583   2.899
 1583SOL     OW 5635   1.732   2.823   3.712
 1583SOL    HW1 5636   1.687   2.762   3.654
 1583SOL    HW2 5637   1.673   2.834   3.787
 1584SOL     OW 5638   0.309   1.932   2.481
 1584SOL    HW1 5639   0.287   2.021   2.509
 1584SOL    HW2 5640   0.305   1.880   2.561
 1585SOL     OW 5641   1.625   2.235   2.234
 1585SOL    HW1 5642   1.636   2.168   2.301
 1585SOL    HW2 5643   1.595   2.313   2.282
 1586SOL     OW 5644   1.027   2.621   2.824
 1586SOL    HW1 5645   1.026   2.639   2.918
 1586SOL    HW2 5646   1.001   2.530   2.816
 1587SOL     OW 5647   0.983   3.429   3.577
 1587SOL    HW1 5648   0.967   3.472   3.494
 1587SOL    HW2 5649   1.025   3.346   3.554
 1588SOL     OW 5650   1.855   3.370   3.468
 1588SOL    HW1 5651   1.873   3.396   3.377
 1588SOL    HW2 5652   1.937   3.390   3.514
 1589SOL     OW 5653   0.347   2.793   3.680
 1589SOL    HW1 5654   0.421   2.822   3.734
 1589SOL    HW2 5655   0.384   2.727   3.622
 1590SOL     OW 5656   1.529   2.137   1.992
 1590SOL    HW1 5657   1.465   2.070   2.016
 1590SOL    HW2 5658   1.562   2.171   2.076
 1591SOL     OW 5659   1.294   2.689   1.895
 1591SOL    HW1 5660   1.336   2.603   1.898
 1591SOL    HW2 5661   1.324   2.728   1.812
 1592SOL     OW 5662   1.065   3.197   2.715
 1592SOL    HW1 5663   1.068   3.124   2.653
 1592SOL    HW2 5664   1.127   3.261   2.680
 1593SOL     OW 5665   0.317   2.674   2.811
 1593SOL    HW1 5666   0.411   2.691   2.807
 1593SOL    HW2 5667   0.310   2.583   2.840
 1594SOL     OW 5668   0.332   2.386   2.854
 1594SOL    HW1 5669   0.294   2.299   2.838
 1594SOL    HW2 5670   0.410   2.388   2.798
 1595SOL     OW 5671   1.134   2.240   3.542
 1595SOL    HW1 5672   1.088   2.294   3.606
 1595SOL    HW2 5673   1.223   2.277   3.539
 1596SOL     OW 5674   1.160   2.066   3.332
 1596SOL    HW1 5675   1.150   2.129   3.403
 1596SOL    HW2 5676   1.199   2.116   3.261
 1597SOL     OW 5677   4.492   3.185   2.065
 1597SOL    HW1 5678   4.399   3.200   2.047
 1597SOL    HW2 5679   4.497   3.092   2.088
 1598SOL     OW 5680   0.096   3.641   2.802
 1598SOL    HW1 5681   0.058   3.584   2.736
 1598SOL    HW2 5682   0.184   3.661   2.769
 1599SOL     OW 5683   0.498   3.435   2.768
 1599SOL    HW1 5684   0.566   3.498   2.792
 1599SOL    HW2 5685   0.542   3.371   2.713
 1600SOL     OW 5686   0.986   2.656   3.090
 1600SOL    HW1 5687   1.040   2.631   3.165
 1600SOL    HW2 5688   0.900   2.620   3.109
 1601SOL     OW 5689   0.036   2.424   2.968
 1601SOL    HW1 5690   0.119   2.389   2.935
 1601SOL    HW2 5691   0.024   2.383   3.053
 1602SOL     OW 5692   0.179   2.379   3.576
 1602SOL    HW1 5693   0.259   2.350   3.531
 1602SOL    HW2 5694   0.155   2.460   3.532
 1603SOL     OW 5695   1.374   2.803   3.521
 1603SOL    HW1 5696   1.396   2.897   3.520
 1603SOL    HW2 5697   1.372   2.778   3.428
 1604SOL     OW 5698   0.816   2.431   2.219
 1604SOL    HW1 5699   0.819   2.356   2.159
 1604SOL    HW2 5700   0.742   2.483   2.188
 1605SOL     OW 5701   1.643   2.465   3.051
 1605SOL    HW1 5702   1.633   2.403   3.123
 1605SOL    HW2 5703   1.730   2.448   3.015
 1606SOL     OW 5704   0.273   3.423   3.603
 1606SOL    HW1 5705   0.217   3.476   3.661
 1606SOL    HW2 5706   0.252   3.333   3.627
 1607SOL     OW 5707   0.688   2.317   3.126
 1607SOL    HW1 5708   0.645   2.240   3.091
 1607SOL    HW2 5709   0.691   2.378   3.052
 1608SOL     OW 5710   0.930   3.541   3.328
 1608SOL    HW1 5711   0.903   3.508   3.243
 1608SOL    HW2 5712   0.926   3.636   3.320
 1609SOL     OW 5713   0.472   2.352   2.049
 1609SOL    HW1 5714   0.531   2.425   2.071
 1609SOL    HW2 5715   0.388   2.394   2.034
 1610SOL     OW 5716   0.162   3.003   3.324
 1610SOL    HW1 5717   0.147   2.956   3.406
 1610SOL    HW2 5718   0.170   2.934   3.259
 1611SOL     OW 5719   1.329   2.911   3.086
 1611SOL    HW1 5720   1.351   2.847   3.018
 1611SOL    HW2 5721   1.257   2.961   3.048
 1612SOL     OW 5722   1.310   2.718   2.169
 1612SOL    HW1 5723   1.234   2.689   2.219
 1612SOL    HW2 5724   1.286   2.705   2.077
 1613SOL     OW 5725   1.769   3.608   3.011
 1613SOL    HW1 5726   1.829   3.634   2.941
 1613SOL    HW2 5727   1.746   3.517   2.990
 1614SOL     OW 5728   1.242   3.595   2.978
 1614SOL    HW1 5729   1.323   3.614   2.931
 1614SOL    HW2 5730   1.245   3.501   2.995
 1615SOL     OW 5731   0.067   3.049   2.910
 1615SOL    HW1 5732   0.070   3.082   3.000
 1615SOL    HW2 5733   0.016   3.114   2.862
 1616SOL     OW 5734   0.679   3.527   3.589
 1616SOL    HW1 5735   0.624   3.605   3.584
 1616SOL    HW2 5736   0.741   3.537   3.517
 1617SOL     OW 5737   1.685   1.996   2.378
 1617SOL    HW1 5738   1.759   1.988   2.317
 1617SOL    HW2 5739   1.682   1.912   2.424
 1618SOL     OW 5740   1.391   3.430   2.346
 1618SOL    HW1 5741   1.451   3.461   2.278
 1618SOL    HW2 5742   1.342   3.507   2.373
 1619SOL     OW 5743   0.120   3.669   3.709
 1619SOL    HW1 5744   0.080   3.596   3.756
 1619SOL    HW2 5745   0.183   3.706   3.771
 1620SOL     OW 5746   1.278   2.787   2.533
 1620SOL    HW1 5747   1.351   2.725   2.538
 1620SOL    HW2 5748   1.311   2.860   2.481
 1621SOL     OW 5749   0.817   3.135   3.293
 1621SOL    HW1 5750   0.790   3.173   3.376
 1621SOL    HW2 5751   0.745   3.156   3.232
 1622SOL     OW 5752   0.673   3.480   2.017
 1622SOL    HW1 5753   0.681   3.491   1.922
 1622SOL    HW2 5754   0.619   3.401   2.027
 1623SOL     OW 5755   1.630   3.589   3.254
 1623SOL    HW1 5756   1.678   3.596   3.171
 1623SOL    HW2 5757   1.617   3.679   3.282
 1624SOL     OW 5758   1.809   2.018   2.843
 1624SOL    HW1 5759   1.852   1.940   2.809
 1624SOL    HW2 5760   1.730   2.027   2.789
 1625SOL     OW 5761   0.266   2.182   2.581
 1625SOL    HW1 5762   0.183   2.221   2.553
 1625SOL    HW2 5763   0.255   2.169   2.676
 1626SOL     OW 5764   1.206   3.469   1.893
 1626SOL    HW1 5765   1.197   3.378   1.920
 1626SOL    HW2 5766   1.141   3.480   1.824
 1627SOL     OW 5767   0.825   2.869   3.234
 1627SOL    HW1 5768   0.868   2.865   3.148
 1627SOL    HW2 5769   0.825   2.961   3.257
 1628SOL     OW 5770   0.916   2.773   2.152
 1628SOL    HW1 5771   0.977   2.804   2.085
 1628SOL    HW2 5772   0.962   2.702   2.196
 1629SOL     OW 5773   1.494   3.486   1.904
 1629SOL    HW1 5774   1.399   3.482   1.892
 1629SOL    HW2 5775   1.529   3.493   1.816
 1630SOL     OW 5776   0.373   3.168   3.353
 1630SOL    HW1 5777   0.356   3.247   3.301
 1630SOL    HW2 5778   0.298   3.111   3.336
 1631SOL     OW 5779   1.613   3.146   3.143
 1631SOL    HW1 5780   1.670   3.135   3.219
 1631SOL    HW2 5781   1.551   3.214   3.168
 1632SOL     OW 5782   1.050   2.968   2.567
 1632SOL    HW1 5783   0.979   2.917   2.607
 1632SOL    HW2 5784   1.111   2.902   2.534
 1633SOL     OW 5785   1.019   2.102   2.828
 1633SOL    HW1 5786   1.015   2.054   2.745
 1633SOL    HW2 5787   1.015   2.034   2.895
 1634SOL     OW 5788   0.604   3.352   2.345
 1634SOL    HW1 5789   0.643   3.301   2.274
 1634SOL    HW2 5790   0.531   3.398   2.304
 1635SOL     OW 5791   1.721   2.258   3.242
 1635SOL    HW1 5792   1.798   2.315   3.241
 1635SOL    HW2 5793   1.746   2.183   3.190
 1636SOL     OW 5794   0.252   3.207   2.139
 1636SOL    HW1 5795   0.157   3.207   2.125
 1636SOL    HW2 5796   0.262   3.239   2.229
 1637SOL     OW 5797   0.117   2.870   3.557
 1637SOL    HW1 5798   0.052   2.909   3.616
 1637SOL    HW2 5799   0.195   2.858   3.611
 1638SOL     OW 5800   0.673   2.061   3.360
 1638SOL    HW1 5801   0.756   2.040   3.319
 1638SOL    HW2 5802   0.697   2.088   3.449
 1639SOL     OW 5803   0.072   2.188   1.895
 1639SOL    HW1 5804   4.477   2.198   1.896
 1639SOL    HW2 5805   0.104   2.269   1.857
 1640SOL     OW 5806   1.432   2.721   3.263
 1640SOL    HW1 5807   1.383   2.781   3.206
 1640SOL    HW2 5808   1.521   2.723   3.230
 1641SOL     OW 5809   0.085   2.039   2.168
 1641SOL    HW1 5810   0.079   2.111   2.104
 1641SOL    HW2 5811   0.161   1.988   2.139
 1642SOL     OW 5812   1.179   3.203   1.979
 1642SOL    HW1 5813   1.088   3.173   1.981
 1642SOL    HW2 5814   1.207   3.202   2.070
 1643SOL     OW 5815   0.622   2.693   3.291
 1643SOL    HW1 5816   0.677   2.770   3.278
 1643SOL    HW2 5817   0.683   2.620   3.300
 1644SOL     OW 5818   1.485   3.637   2.838
 1644SOL    HW1 5819   1.509   3.695   2.767
 1644SOL    HW2 5820   1.566   3.621   2.886
 1645SOL     OW 5821   0.716   2.425   3.566
 1645SOL    HW1 5822   0.752   2.490   3.626
 1645SOL    HW2 5823   0.750   2.341   3.597
 1646SOL     OW 5824   1.470   3.064   3.495
 1646SOL    HW1 5825   1.457   3.077   3.589
 1646SOL    HW2 5826   1.563   3.077   3.481
 1647SOL     OW 5827   0.382   3.605   3.426
 1647SOL    HW1 5828   0.296   3.645   3.410
 1647SOL    HW2 5829   0.362   3.524   3.473
 1648SOL     OW 5830   1.672   2.744   3.117
 1648SOL    HW1 5831   1.661   2.658   3.075
 1648SOL    HW2 5832   1.661   2.807   3.045
 1649SOL     OW 5833   1.218   2.182   2.319
 1649SOL    HW1 5834   1.281   2.110   2.311
 1649SOL    HW2 5835   1.246   2.230   2.397
 1650SOL     OW 5836   0.591   2.601   2.530
 1650SOL    HW1 5837   0.629   2.687   2.513
 1650SOL    HW2 5838   0.521   2.593   2.465
 1651SOL     OW 5839   1.753   2.232   3.515
 1651SOL    HW1 5840   1.746   2.241   3.420
 1651SOL    HW2 5841   1.682   2.172   3.539
 1652SOL     OW 5842   1.745   2.797   3.373
 1652SOL    HW1 5843   1.743   2.892   3.386
 1652SOL    HW2 5844   1.729   2.785   3.279
 1653SOL     OW 5845   0.864   3.230   1.894
 1653SOL    HW1 5846   0.823   3.256   1.977
 1653SOL    HW2 5847   0.881   3.313   1.849
 1654SOL     OW 5848   0.660   3.655   2.810
 1654SOL    HW1 5849   0.638   3.745   2.784
 1654SOL    HW2 5850   0.755   3.650   2.800
 1655SOL     OW 5851   0.867   2.828   2.717
 1655SOL    HW1 5852   0.917   2.757   2.758
 1655SOL    HW2 5853   0.833   2.878   2.792
 1656SOL     OW 5854   1.080   2.851   1.951
 1656SOL    HW1 5855   1.057   2.900   1.872
 1656SOL    HW2 5856   1.155   2.797   1.925
 1657SOL     OW 5857   1.856   3.417   2.707
 1657SOL    HW1 5858   1.778   3.407   2.652
 1657SOL    HW2 5859   1.845   3.351   2.775
 1658SOL     OW 5860   0.229   3.168   3.719
 1658SOL    HW1 5861   0.158   3.108   3.695
 1658SOL    HW2 5862   0.221   3.178   3.814
 1659SOL     OW 5863   0.104   3.100   2.529
 1659SOL    HW1 5864   0.111   3.050   2.611
 1659SOL    HW2 5865   0.163   3.056   2.469
 1660SOL     OW 5866   0.681   3.263   3.489
 1660SOL    HW1 5867   0.601   3.219   3.517
 1660SOL    HW2 5868   0.675   3.351   3.526
 1661SOL     OW 5869   1.795   2.043   3.104
 1661SOL    HW1 5870   1.823   1.954   3.125
 1661SOL    HW2 5871   1.806   2.050   3.009
 1662SOL     OW 5872   0.435   2.295   2.387
 1662SOL    HW1 5873   0.459   2.222   2.331
 1662SOL    HW2 5874   0.384   2.256   2.458
 1663SOL     OW 5875   1.701   3.352   2.960
 1663SOL    HW1 5876   1.620   3.328   2.916
 1663SOL    HW2 5877   1.714   3.284   3.026
 1664SOL     OW 5878   0.304   2.351   3.117
 1664SOL    HW1 5879   0.377   2.310   3.162
 1664SOL    HW2 5880   0.335   2.365   3.028
 1665SOL     OW 5881   0.826   3.440   2.541
 1665SOL    HW1 5882   0.817   3.488   2.459
 1665SOL    HW2 5883   0.748   3.384   2.545
 1666SOL     OW 5884   1.433   2.087   2.979
 1666SOL    HW1 5885   1.465   2.010   3.025
 1666SOL    HW2 5886   1.380   2.134   3.044
 1667SOL     OW 5887   1.008   1.882   3.007
 1667SOL    HW1 5888   0.954   1.813   2.967
 1667SOL    HW2 5889   1.096   1.844   3.008
 1668SOL     OW 5890   0.772   3.194   2.173
 1668SOL    HW1 5891   0.739   3.105   2.180
 1668SOL    HW2 5892   0.854   3.193   2.223
 1669SOL     OW 5893   0.621   3.419   3.147
 1669SOL    HW1 5894   0.623   3.501   3.197
 1669SOL    HW2 5895   0.708   3.413   3.108
 1670SOL     OW 5896   1.353   1.916   2.026
 1670SOL    HW1 5897   1.378   1.854   1.957
 1670SOL    HW2 5898   1.266   1.886   2.054
 1671SOL     OW 5899   1.295   2.324   2.543
 1671SOL    HW1 5900   1.240   2.401   2.553
 1671SOL    HW2 5901   1.294   2.282   2.630
 1672SOL     OW 5902   1.572   2.060   2.729
 1672SOL    HW1 5903   1.518   2.085   2.804
 1672SOL    HW2 5904   1.580   2.140   2.677
 1673SOL     OW 5905   0.041   2.915   2.149
 1673SOL    HW1 5906   0.136   2.901   2.141
 1673SOL    HW2 5907   0.019   2.877   2.235
 1674SOL     OW 5908   0.883   3.513   2.206
 1674SOL    HW1 5909   0.811   3.495   2.145
 1674SOL    HW2 5910   0.853   3.588   2.256
 1675SOL     OW 5911   0.248   2.490   3.843
 1675SOL    HW1 5912   0.173   2.473   3.900
 1675SOL    HW2 5913   0.217   2.470   3.755
 1676SOL     OW 5914   0.213   2.138   4.716
 1676SOL    HW1 5915   0.249   2.111   4.800
 1676SOL    HW2 5916   0.137   2.081   4.703
 1677SOL     OW 5917   0.009   2.251   4.364
 1677SOL    HW1 5918   4.428   2.281   4.405
 1677SOL    HW2 5919   4.484   2.171   4.318
 1678SOL     OW 5920   0.567   3.146   4.898
 1678SOL    HW1 5921   0.480   3.151   4.859
 1678SOL    HW2 5922   0.582   3.234   4.933
 1679SOL     OW 5923   1.558   3.375   4.430
 1679SOL    HW1 5924   1.514   3.356   4.513
 1679SOL    HW2 5925   1.487   3.379   4.366
 1680SOL     OW 5926   1.134   2.558   4.431
 1680SOL    HW1 5927   1.180   2.640   4.414
 1680SOL    HW2 5928   1.084   2.576   4.511
 1681SOL     OW 5929   1.769   2.470   3.952
 1681SOL    HW1 5930   1.747   2.463   3.859
 1681SOL    HW2 5931   1.738   2.388   3.991
 1682SOL     OW 5932   0.757   3.006   4.763
 1682SOL    HW1 5933   0.688   3.040   4.819
 1682SOL    HW2 5934   0.792   3.083   4.718
 1683SOL     OW 5935   0.866   2.639   5.546
 1683SOL    HW1 5936   0.848   2.710   5.607
 1683SOL    HW2 5937   0.887   2.683   5.464
 1684SOL     OW 5938   0.685   2.868   4.372
 1684SOL    HW1 5939   0.750   2.854   4.441
 1684SOL    HW2 5940   0.616   2.918   4.414
 1685SOL     OW 5941   0.710   3.013   5.535
 1685SOL    HW1 5942   0.756   3.092   5.560
 1685SOL    HW2 5943   0.626   3.044   5.500
 1686SOL     OW 5944   0.336   3.284   4.794
 1686SOL    HW1 5945   0.255   3.265   4.747
 1686SOL    HW2 5946   0.386   3.339   4.733
 1687SOL     OW 5947   1.455   3.371   5.079
 1687SOL    HW1 5948   1.503   3.453   5.092
 1687SOL    HW2 5949   1.398   3.365   5.156
 1688SOL     OW 5950   0.444   2.266   5.218
 1688SOL    HW1 5951   0.523   2.212   5.221
 1688SOL    HW2 5952   0.372   2.203   5.222
 1689SOL     OW 5953   1.618   2.357   4.416
 1689SOL    HW1 5954   1.530   2.376   4.384
 1689SOL    HW2 5955   1.622   2.397   4.502
 1690SOL     OW 5956   0.246   3.553   4.203
 1690SOL    HW1 5957   0.232   3.638   4.245
 1690SOL    HW2 5958   0.310   3.571   4.134
 1691SOL     OW 5959   1.136   3.202   5.417
 1691SOL    HW1 5960   1.175   3.199   5.504
 1691SOL    HW2 5961   1.083   3.123   5.411
 1692SOL     OW 5962   0.246   3.289   4.252
 1692SOL    HW1 5963   0.238   3.384   4.256
 1692SOL    HW2 5964   0.182   3.257   4.315
 1693SOL     OW 5965   0.246   2.944   4.607
 1693SOL    HW1 5966   0.263   2.855   4.639
 1693SOL    HW2 5967   0.188   2.981   4.673
 1694SOL     OW 5968   0.616   3.652   5.156
 1694SOL    HW1 5969   0.532   3.634   5.199
 1694SOL    HW2 5970   0.636   3.743   5.180
 1695SOL     OW 5971   0.582   2.846   3.860
 1695SOL    HW1 5972   0.628   2.892   3.790
 1695SOL    HW2 5973   0.627   2.874   3.940
 1696SOL     OW 5974   0.136   2.506   4.298
 1696SOL    HW1 5975   0.087   2.426   4.313
 1696SOL    HW2 5976   0.106   2.566   4.367
 1697SOL     OW 5977   1.842   3.623   4.060
 1697SOL    HW1 5978   1.903   3.594   4.128
 1697SOL    HW2 5979   1.868   3.713   4.041
 1698SOL     OW 5980   0.033   3.463   3.861
 1698SOL    HW1 5981   0.021   3.368   3.862
 1698SOL    HW2 5982   0.014   3.490   3.951
 1699SOL     OW 5983   1.689   2.767   4.357
 1699SOL    HW1 5984   1.775   2.735   4.330
 1699SOL    HW2 5985   1.663   2.828   4.288
 1700SOL     OW 5986   1.645   2.968   4.156
 1700SOL    HW1 5987   1.730   2.977   4.112
 1700SOL    HW2 5988   1.649   3.030   4.229
 1701SOL     OW 5989   0.110   2.623   5.310
 1701SOL    HW1 5990   0.204   2.623   5.290
 1701SOL    HW2 5991   0.088   2.715   5.321
 1702SOL     OW 5992   0.613   3.245   4.460
 1702SOL    HW1 5993   0.566   3.162   4.469
 1702SOL    HW2 5994   0.597   3.272   4.369
 1703SOL     OW 5995   1.289   3.103   5.150
 1703SOL    HW1 5996   1.308   3.030   5.091
 1703SOL    HW2 5997   1.352   3.094   5.221
 1704SOL     OW 5998   0.814   1.861   4.231
 1704SOL    HW1 5999   0.854   1.946   4.214
 1704SOL    HW2 6000   0.721   1.879   4.241
 1705SOL     OW 6001   0.181   2.804   5.004
 1705SOL    HW1 6002   0.273   2.787   4.981
 1705SOL    HW2 6003   0.133   2.784   4.923
 1706SOL     OW 6004   1.532   2.854   3.921
 1706SOL    HW1 6005   1.462   2.796   3.951
 1706SOL    HW2 6006   1.571   2.887   4.002
 1707SOL     OW 6007   1.186   3.667   5.346
 1707SOL    HW1 6008   1.198   3.724   5.270
 1707SOL    HW2 6009   1.200   3.579   5.312
 1708SOL     OW 6010   0.330   2.118   5.521
 1708SOL    HW1 6011   0.380   2.192   5.555
 1708SOL    HW2 6012   0.243   2.127   5.561
 1709SOL     OW 6013   1.465   3.286   4.675
 1709SOL    HW1 6014   1.400   3.300   4.744
 1709SOL    HW2 6015   1.445   3.200   4.640
 1710SOL     OW 6016   1.663   3.595   4.302
 1710SOL    HW1 6017   1.640   3.570   4.213
 1710SOL    HW2 6018   1.632   3.523   4.357
 1711SOL     OW 6019   0.598   2.584   3.989
 1711SOL    HW1 6020   0.602   2.664   3.937
 1711SOL    HW2 6021   0.532   2.601   4.056
 1712SOL     OW 6022   1.581   3.531   4.033
 1712SOL    HW1 6023   1.671   3.565   4.026
 1712SOL    HW2 6024   1.555   3.514   3.943
 1713SOL     OW 6025   0.799   2.479   5.177
 1713SOL    HW1 6026   0.770   2.457   5.265
 1713SOL    HW2 6027   0.754   2.416   5.120
 1714SOL     OW 6028   1.387   2.328   5.407
 1714SOL    HW1 6029   1.405   2.370   5.491
 1714SOL    HW2 6030   1.473   2.298   5.377
 1715SOL     OW 6031   0.960   2.749   5.304
 1715SOL    HW1 6032   1.013   2.678   5.269
 1715SOL    HW2 6033   0.912   2.783   5.228
 1716SOL     OW 6034   0.986   2.265   4.981
 1716SOL    HW1 6035   0.896   2.291   5.005
 1716SOL    HW2 6036   0.978   2.229   4.893
 1717SOL     OW 6037   1.050   2.560   4.151
 1717SOL    HW1 6038   1.063   2.554   4.246
 1717SOL    HW2 6039   0.968   2.513   4.135
 1718SOL     OW 6040   0.097   2.688   4.508
 1718SOL    HW1 6041   0.184   2.668   4.544
 1718SOL    HW2 6042   0.049   2.726   4.580
 1719SOL     OW 6043   0.126   3.712   5.299
 1719SOL    HW1 6044   0.118   3.692   5.392
 1719SOL    HW2 6045   0.044   3.681   5.261
 1720SOL     OW 6046   0.890   2.209   3.918
 1720SOL    HW1 6047   0.932   2.270   3.858
 1720SOL    HW2 6048   0.906   2.123   3.880
 1721SOL     OW 6049   1.377   3.005   4.264
 1721SOL    HW1 6050   1.454   2.990   4.210
 1721SOL    HW2 6051   1.323   3.067   4.214
 1722SOL     OW 6052   0.551   2.045   4.617
 1722SOL    HW1 6053   0.554   2.075   4.708
 1722SOL    HW2 6054   0.552   2.126   4.565
 1723SOL     OW 6055   1.008   3.307   4.197
 1723SOL    HW1 6056   0.968   3.379   4.148
 1723SOL    HW2 6057   0.991   3.329   4.289
 1724SOL     OW 6058   0.355   3.670   4.581
 1724SOL    HW1 6059   0.397   3.585   4.592
 1724SOL    HW2 6060   0.425   3.734   4.595
 1725SOL     OW 6061   1.225   3.402   5.240
 1725SOL    HW1 6062   1.212   3.328   5.298
 1725SOL    HW2 6063   1.166   3.386   5.167
 1726SOL     OW 6064   0.317   2.816   3.975
 1726SOL    HW1 6065   0.401   2.838   3.935
 1726SOL    HW2 6066   0.299   2.727   3.946
 1727SOL     OW 6067   1.473   2.609   4.444
 1727SOL    HW1 6068   1.462   2.576   4.533
 1727SOL    HW2 6069   1.553   2.662   4.448
 1728SOL     OW 6070   0.466   3.123   5.459
 1728SOL    HW1 6071   0.439   3.130   5.368
 1728SOL    HW2 6072   0.385   3.128   5.509
 1729SOL     OW 6073   1.121   3.639   3.956
 1729SOL    HW1 6074   1.049   3.597   4.002
 1729SOL    HW2 6075   1.143   3.579   3.885
 1730SOL     OW 6076   0.196   2.140   5.211
 1730SOL    HW1 6077   0.134   2.212   5.215
 1730SOL    HW2 6078   0.184   2.092   5.293
 1731SOL     OW 6079   1.629   3.241   3.811
 1731SOL    HW1 6080   1.588   3.326   3.796
 1731SOL    HW2 6081   1.560   3.178   3.793
 1732SOL     OW 6082   0.469   3.606   4.038
 1732SOL    HW1 6083   0.510   3.658   4.107
 1732SOL    HW2 6084   0.543   3.573   3.987
 1733SOL     OW 6085   1.400   1.969   4.155
 1733SOL    HW1 6086   1.387   1.944   4.064
 1733SOL    HW2 6087   1.494   1.979   4.164
 1734SOL     OW 6088   0.261   3.656   4.957
 1734SOL    HW1 6089   0.306   3.582   4.996
 1734SOL    HW2 6090   0.227   3.622   4.874
 1735SOL     OW 6091   0.938   3.560   4.623
 1735SOL    HW1 6092   1.015   3.507   4.645
 1735SOL    HW2 6093   0.893   3.511   4.555
 1736SOL     OW 6094   0.393   2.557   4.198
 1736SOL    HW1 6095   0.417   2.465   4.208
 1736SOL    HW2 6096   0.301   2.561   4.224
 1737SOL     OW 6097   0.632   1.988   3.828
 1737SOL    HW1 6098   0.703   1.925   3.843
 1737SOL    HW2 6099   0.585   1.954   3.752
 1738SOL     OW 6100   0.768   2.140   5.479
 1738SOL    HW1 6101   0.842   2.079   5.481
 1738SOL    HW2 6102   0.716   2.117   5.556
 1739SOL     OW 6103   0.877   3.384   4.917
 1739SOL    HW1 6104   0.861   3.348   4.830
 1739SOL    HW2 6105   0.946   3.329   4.954
 1740SOL     OW 6106   0.814   3.259   4.661
 1740SOL    HW1 6107   0.898   3.248   4.616
 1740SOL    HW2 6108   0.749   3.258   4.591
 1741SOL     OW 6109   0.929   2.368   4.629
 1741SOL    HW1 6110   0.906   2.361   4.537
 1741SOL    HW2 6111   0.955   2.280   4.654
 1742SOL     OW 6112   0.551   1.924   4.227
 1742SOL    HW1 6113   0.470   1.923   4.278
 1742SOL    HW2 6114   0.544   2.002   4.173
 1743SOL     OW 6115   1.429   3.060   3.765
 1743SOL    HW1 6116   1.459   2.984   3.815
 1743SOL    HW2 6117   1.342   3.080   3.802
 1744SOL     OW 6118   0.295   1.908   3.902
 1744SOL    HW1 6119   0.357   1.975   3.875
 1744SOL    HW2 6120   0.348   1.842   3.946
 1745SOL     OW 6121   0.937   2.107   4.186
 1745SOL    HW1 6122   0.908   2.149   4.105
 1745SOL    HW2 6123   1.031   2.120   4.188
 1746SOL     OW 6124   1.079   2.533   5.184
 1746SOL    HW1 6125   0.995   2.489   5.189
 1746SOL    HW2 6126   1.143   2.463   5.175
 1747SOL     OW 6127   1.225   3.431   4.517
 1747SOL    HW1 6128   1.242   3.499   4.452
 1747SOL    HW2 6129   1.292   3.444   4.584
 1748SOL     OW 6130   0.465   3.010   4.461
 1748SOL    HW1 6131   0.394   2.992   4.522
 1748SOL    HW2 6132   0.428   2.994   4.374
 1749SOL     OW 6133   1.271   3.657   4.331
 1749SOL    HW1 6134   1.315   3.718   4.272
 1749SOL    HW2 6135   1.205   3.709   4.375
 1750SOL     OW 6136   1.024   2.406   3.745
 1750SOL    HW1 6137   0.982   2.489   3.725
 1750SOL    HW2 6138   1.089   2.427   3.811
 1751SOL     OW 6139   0.083   2.393   5.133
 1751SOL    HW1 6140   0.149   2.393   5.063
 1751SOL    HW2 6141   0.067   2.486   5.152
 1752SOL     OW 6142   0.561   2.090   4.890
 1752SOL    HW1 6143   0.602   2.010   4.922
 1752SOL    HW2 6144   0.469   2.082   4.916
 1753SOL     OW 6145   0.871   2.322   4.364
 1753SOL    HW1 6146   0.822   2.376   4.302
 1753SOL    HW2 6147   0.888   2.241   4.317
 1754SOL     OW 6148   1.020   1.913   4.475
 1754SOL    HW1 6149   0.958   1.909   4.402
 1754SOL    HW2 6150   0.996   1.839   4.531
 1755SOL     OW 6151   1.413   3.042   4.566
 1755SOL    HW1 6152   1.351   2.969   4.565
 1755SOL    HW2 6153   1.450   3.044   4.477
 1756SOL     OW 6154   1.848   2.678   4.109
 1756SOL    HW1 6155   1.906   2.624   4.162
 1756SOL    HW2 6156   1.819   2.620   4.038
 1757SOL     OW 6157   0.492   3.277   3.885
 1757SOL    HW1 6158   0.415   3.248   3.934
 1757SOL    HW2 6159   0.472   3.254   3.794
 1758SOL     OW 6160   1.670   3.131   4.368
 1758SOL    HW1 6161   1.765   3.140   4.382
 1758SOL    HW2 6162   1.635   3.217   4.392
 1759SOL     OW 6163   1.393   2.434   3.794
 1759SOL    HW1 6164   1.335   2.414   3.868
 1759SOL    HW2 6165   1.480   2.407   3.825
 1760SOL     OW 6166   0.525   2.122   4.043
 1760SOL    HW1 6167   0.569   2.075   3.972
 1760SOL    HW2 6168   0.507   2.209   4.006
 1761SOL     OW 6169   1.746   3.109   5.340
 1761SOL    HW1 6170   1.824   3.054   5.345
 1761SOL    HW2 6171   1.780   3.199   5.335
 1762SOL     OW 6172   1.059   3.216   5.057
 1762SOL    HW1 6173   0.985   3.184   5.109
 1762SOL    HW2 6174   1.136   3.175   5.099
 1763SOL     OW 6175   1.607   3.488   5.377
 1763SOL    HW1 6176   1.603   3.522   5.287
 1763SOL    HW2 6177   1.689   3.438   5.380
 1764SOL     OW 6178   1.122   3.066   4.825
 1764SOL    HW1 6179   1.065   3.104   4.891
 1764SOL    HW2 6180   1.089   3.100   4.742
 1765SOL     OW 6181   1.579   2.977   4.773
 1765SOL    HW1 6182   1.593   3.042   4.843
 1765SOL    HW2 6183   1.521   3.021   4.711
 1766SOL     OW 6184   0.916   1.958   5.124
 1766SOL    HW1 6185   0.939   1.941   5.032
 1766SOL    HW2 6186   0.995   1.996   5.161
 1767SOL     OW 6187   0.984   2.975   5.447
 1767SOL    HW1 6188   0.892   2.992   5.466
 1767SOL    HW2 6189   0.983   2.898   5.390
 1768SOL     OW 6190   0.708   2.923   4.096
 1768SOL    HW1 6191   0.695   2.907   4.190
 1768SOL    HW2 6192   0.784   2.869   4.074
 1769SOL     OW 6193   0.429   2.685   4.964
 1769SOL    HW1 6194   0.498   2.697   5.029
 1769SOL    HW2 6195   0.370   2.620   5.002
 1770SOL     OW 6196   0.061   3.438   5.063
 1770SOL    HW1 6197   0.033   3.527   5.043
 1770SOL    HW2 6198   0.157   3.444   5.071
 1771SOL     OW 6199   0.350   2.969   4.217
 1771SOL    HW1 6200   0.358   3.042   4.156
 1771SOL    HW2 6201   0.351   2.891   4.162
 1772SOL     OW 6202   0.562   2.397   4.580
 1772SOL    HW1 6203   0.575   2.456   4.507
 1772SOL    HW2 6204   0.621   2.428   4.648
 1773SOL     OW 6205   1.248   3.210   4.113
 1773SOL    HW1 6206   1.303   3.282   4.144
 1773SOL    HW2 6207   1.161   3.231   4.147
 1774SOL     OW 6208   1.278   3.319   4.870
 1774SOL    HW1 6209   1.332   3.322   4.949
 1774SOL    HW2 6210   1.224   3.241   4.881
 1775SOL     OW 6211   1.565   2.499   4.173
 1775SOL    HW1 6212   1.539   2.551   4.249
 1775SOL    HW2 6213   1.628   2.555   4.127
 1776SOL     OW 6214   0.347   3.392   5.040
 1776SOL    HW1 6215   0.333   3.345   4.958
 1776SOL    HW2 6216   0.442   3.402   5.046
 1777SOL     OW 6217   0.477   2.622   5.387
 1777SOL    HW1 6218   0.505   2.661   5.304
 1777SOL    HW2 6219   0.510   2.532   5.384
 1778SOL     OW 6220   1.577   2.696   5.416
 1778SOL    HW1 6221   1.491   2.729   5.388
 1778SOL    HW2 6222   1.605   2.640   5.344
 1779SOL     OW 6223   0.994   1.981   5.479
 1779SOL    HW1 6224   1.050   2.054   5.450
 1779SOL    HW2 6225   1.043   1.903   5.454
 1780SOL     OW 6226   0.498   1.906   5.470
 1780SOL    HW1 6227   0.457   1.849   5.405
 1780SOL    HW2 6228   0.437   1.979   5.479
 1781SOL     OW 6229   0.589   2.735   4.748
 1781SOL    HW1 6230   0.617   2.826   4.750
 1781SOL    HW2 6231   0.532   2.726   4.825
 1782SOL     OW 6232   1.206   2.391   3.992
 1782SOL    HW1 6233   1.214   2.313   4.046
 1782SOL    HW2 6234   1.164   2.455   4.049
 1783SOL     OW 6235   0.303   2.055   4.966
 1783SOL    HW1 6236   0.263   2.089   5.046
 1783SOL    HW2 6237   0.285   1.961   4.968
 1784SOL     OW 6238   0.044   3.174   5.008
 1784SOL    HW1 6239   0.077   3.128   5.085
 1784SOL    HW2 6240   0.048   3.267   5.033
 1785SOL     OW 6241   0.726   2.494   4.784
 1785SOL    HW1 6242   0.800   2.476   4.725
 1785SOL    HW2 6243   0.699   2.583   4.761
 1786SOL     OW 6244   1.734   2.828   5.586
 1786SOL    HW1 6245   1.683   2.782   5.520
 1786SOL    HW2 6246   1.672   2.849   5.655
 1787SOL     OW 6247   0.309   1.932   4.343
 1787SOL    HW1 6248   0.287   2.021   4.371
 1787SOL    HW2 6249   0.305   1.880   4.423
 1788SOL     OW 6250   1.610   2.233   4.096
 1788SOL    HW1 6251   1.641   2.179   4.169
 1788SOL    HW2 6252   1.587   2.316   4.137
 1789SOL     OW 6253   1.019   2.621   4.683
 1789SOL    HW1 6254   1.025   2.640   4.777
 1789SOL    HW2 6255   0.996   2.528   4.678
 1790SOL     OW 6256   0.983   3.429   5.439
 1790SOL    HW1 6257   0.967   3.473   5.356
 1790SOL    HW2 6258   1.025   3.346   5.415
 1791SOL     OW 6259   1.857   3.375   5.330
 1791SOL    HW1 6260   1.874   3.396   5.238
 1791SOL    HW2 6261   1.940   3.391   5.374
 1792SOL     OW 6262   0.347   2.794   5.542
 1792SOL    HW1 6263   0.421   2.822   5.596
 1792SOL    HW2 6264   0.384   2.727   5.484
 1793SOL     OW 6265   1.531   2.133   3.851
 1793SOL    HW1 6266   1.465   2.070   3.879
 1793SOL    HW2 6267   1.564   2.172   3.933
 1794SOL     OW 6268   1.294   2.689   3.756
 1794SOL    HW1 6269   1.336   2.603   3.760
 1794SOL    HW2 6270   1.324   2.727   3.674
 1795SOL     OW 6271   1.064   3.197   4.576
 1795SOL    HW1 6272   1.068   3.124   4.514
 1795SOL    HW2 6273   1.128   3.260   4.542
 1796SOL     OW 6274   0.317   2.674   4.673
 1796SOL    HW1 6275   0.411   2.691   4.669
 1796SOL    HW2 6276   0.310   2.583   4.702
 1797SOL     OW 6277   0.333   2.385   4.716
 1797SOL    HW1 6278   0.294   2.299   4.700
 1797SOL    HW2 6279   0.410   2.388   4.660
 1798SOL     OW 6280   1.130   2.239   5.401
 1798SOL    HW1 6281   1.085   2.295   5.465
 1798SOL    HW2 6282   1.220   2.270   5.402
 1799SOL     OW 6283   1.160   2.066   5.192
 1799SOL    HW1 6284   1.150   2.126   5.266
 1799SOL    HW2 6285   1.167   2.123   5.116
 1800SOL     OW 6286   4.492   3.185   3.927
 1800SOL    HW1 6287   4.399   3.200   3.909
 1800SOL    HW2 6288   4.497   3.092   3.950
 1801SOL     OW 6289   0.096   3.641   4.664
 1801SOL    HW1 6290   0.058   3.584   4.598
 1801SOL    HW2 6291   0.184   3.661   4.631
 1802SOL     OW 6292   0.498   3.435   4.630
 1802SOL    HW1 6293   0.566   3.498   4.654
 1802SOL    HW2 6294   0.542   3.371   4.575
 1803SOL     OW 6295   0.987   2.654   4.952
 1803SOL    HW1 6296   1.041   2.630   5.027
 1803SOL    HW2 6297   0.901   2.618   4.971
 1804SOL     OW 6298   0.036   2.425   4.830
 1804SOL    HW1 6299   0.119   2.388   4.797
 1804SOL    HW2 6300   0.023   2.383   4.915
 1805SOL     OW 6301   0.179   2.379   5.438
 1805SOL    HW1 6302   0.258   2.350   5.392
 1805SOL    HW2 6303   0.154   2.460   5.393
 1806SOL     OW 6304   1.346   2.817   5.364
 1806SOL    HW1 6305   1.381   2.905   5.376
 1806SOL    HW2 6306   1.310   2.816   5.276
 1807SOL     OW 6307   0.816   2.431   4.081
 1807SOL    HW1 6308   0.819   2.356   4.021
 1807SOL    HW2 6309   0.742   2.483   4.050
 1808SOL     OW 6310   0.273   3.423   5.466
 1808SOL    HW1 6311   0.217   3.476   5.523
 1808SOL    HW2 6312   0.252   3.333   5.489
 1809SOL     OW 6313   0.691   2.318   4.988
 1809SOL    HW1 6314   0.646   2.241   4.954
 1809SOL    HW2 6315   0.692   2.379   4.913
 1810SOL     OW 6316   0.930   3.541   5.191
 1810SOL    HW1 6317   0.903   3.508   5.105
 1810SOL    HW2 6318   0.925   3.637   5.182
 1811SOL     OW 6319   0.472   2.352   3.911
 1811SOL    HW1 6320   0.531   2.425   3.933
 1811SOL    HW2 6321   0.388   2.394   3.896
 1812SOL     OW 6322   0.162   3.003   5.187
 1812SOL    HW1 6323   0.146   2.956   5.269
 1812SOL    HW2 6324   0.170   2.934   5.121
 1813SOL     OW 6325   1.295   2.904   4.961
 1813SOL    HW1 6326   1.357   2.864   4.900
 1813SOL    HW2 6327   1.233   2.950   4.904
 1814SOL     OW 6328   1.308   2.722   4.031
 1814SOL    HW1 6329   1.233   2.689   4.080
 1814SOL    HW2 6330   1.286   2.706   3.939
 1815SOL     OW 6331   1.769   3.609   4.873
 1815SOL    HW1 6332   1.830   3.637   4.804
 1815SOL    HW2 6333   1.748   3.519   4.851
 1816SOL     OW 6334   1.242   3.595   4.840
 1816SOL    HW1 6335   1.323   3.614   4.793
 1816SOL    HW2 6336   1.245   3.501   4.858
 1817SOL     OW 6337   0.067   3.048   4.773
 1817SOL    HW1 6338   0.070   3.082   4.862
 1817SOL    HW2 6339   0.016   3.114   4.724
 1818SOL     OW 6340   0.679   3.527   5.451
 1818SOL    HW1 6341   0.624   3.605   5.446
 1818SOL    HW2 6342   0.741   3.537   5.378
 1819SOL     OW 6343   1.718   1.996   4.245
 1819SOL    HW1 6344   1.777   1.968   4.175
 1819SOL    HW2 6345   1.688   1.915   4.286
 1820SOL     OW 6346   1.391   3.430   4.208
 1820SOL    HW1 6347   1.451   3.461   4.140
 1820SOL    HW2 6348   1.342   3.507   4.235
 1821SOL     OW 6349   0.120   3.668   5.571
 1821SOL    HW1 6350   0.080   3.596   5.618
 1821SOL    HW2 6351   0.183   3.706   5.633
 1822SOL     OW 6352   1.274   2.789   4.391
 1822SOL    HW1 6353   1.347   2.727   4.395
 1822SOL    HW2 6354   1.308   2.862   4.339
 1823SOL     OW 6355   0.817   3.135   5.155
 1823SOL    HW1 6356   0.789   3.174   5.238
 1823SOL    HW2 6357   0.746   3.156   5.094
 1824SOL     OW 6358   0.673   3.480   3.879
 1824SOL    HW1 6359   0.681   3.491   3.784
 1824SOL    HW2 6360   0.619   3.401   3.889
 1825SOL     OW 6361   1.629   3.590   5.116
 1825SOL    HW1 6362   1.679   3.597   5.035
 1825SOL    HW2 6363   1.616   3.680   5.144
 1826SOL     OW 6364   0.266   2.182   4.443
 1826SOL    HW1 6365   0.183   2.221   4.415
 1826SOL    HW2 6366   0.255   2.169   4.538
 1827SOL     OW 6367   1.206   3.469   3.755
 1827SOL    HW1 6368   1.198   3.378   3.783
 1827SOL    HW2 6369   1.141   3.480   3.686
 1828SOL     OW 6370   0.827   2.868   5.096
 1828SOL    HW1 6371   0.868   2.866   5.009
 1828SOL    HW2 6372   0.825   2.961   5.119
 1829SOL     OW 6373   0.916   2.772   4.013
 1829SOL    HW1 6374   0.977   2.805   3.947
 1829SOL    HW2 6375   0.963   2.702   4.058
 1830SOL     OW 6376   1.493   3.487   3.766
 1830SOL    HW1 6377   1.399   3.481   3.754
 1830SOL    HW2 6378   1.529   3.493   3.678
 1831SOL     OW 6379   0.373   3.168   5.215
 1831SOL    HW1 6380   0.356   3.247   5.163
 1831SOL    HW2 6381   0.298   3.111   5.199
 1832SOL     OW 6382   1.608   3.175   4.977
 1832SOL    HW1 6383   1.680   3.161   5.038
 1832SOL    HW2 6384   1.550   3.236   5.022
 1833SOL     OW 6385   1.050   2.968   4.429
 1833SOL    HW1 6386   0.979   2.917   4.469
 1833SOL    HW2 6387   1.111   2.902   4.397
 1834SOL     OW 6388   1.006   2.105   4.694
 1834SOL    HW1 6389   1.015   2.059   4.610
 1834SOL    HW2 6390   1.010   2.036   4.760
 1835SOL     OW 6391   0.604   3.352   4.207
 1835SOL    HW1 6392   0.643   3.301   4.136
 1835SOL    HW2 6393   0.531   3.398   4.166
 1836SOL     OW 6394   0.252   3.207   4.001
 1836SOL    HW1 6395   0.157   3.207   3.987
 1836SOL    HW2 6396   0.262   3.239   4.091
 1837SOL     OW 6397   0.116   2.869   5.419
 1837SOL    HW1 6398   0.052   2.909   5.477
 1837SOL    HW2 6399   0.194   2.858   5.474
 1838SOL     OW 6400   0.673   2.061   5.223
 1838SOL    HW1 6401   0.756   2.040   5.181
 1838SOL    HW2 6402   0.697   2.089   5.311
 1839SOL     OW 6403   0.072   2.188   3.757
 1839SOL    HW1 6404   4.477   2.198   3.758
 1839SOL    HW2 6405   0.104   2.270   3.719
 1840SOL     OW 6406   0.085   2.039   4.030
 1840SOL    HW1 6407   0.079   2.111   3.966
 1840SOL    HW2 6408   0.161   1.989   4.001
 1841SOL     OW 6409   1.179   3.203   3.841
 1841SOL    HW1 6410   1.089   3.173   3.843
 1841SOL    HW2 6411   1.208   3.202   3.932
 1842SOL     OW 6412   0.622   2.693   5.152
 1842SOL    HW1 6413   0.677   2.770   5.140
 1842SOL    HW2 6414   0.684   2.621   5.162
 1843SOL     OW 6415   1.485   3.636   4.700
 1843SOL    HW1 6416   1.509   3.696   4.629
 1843SOL    HW2 6417   1.566   3.624   4.749
 1844SOL     OW 6418   0.717   2.424   5.427
 1844SOL    HW1 6419   0.751   2.488   5.490
 1844SOL    HW2 6420   0.749   2.340   5.459
 1845SOL     OW 6421   1.472   3.063   5.359
 1845SOL    HW1 6422   1.458   3.079   5.452
 1845SOL    HW2 6423   1.565   3.081   5.345
 1846SOL     OW 6424   0.382   3.605   5.288
 1846SOL    HW1 6425   0.296   3.645   5.272
 1846SOL    HW2 6426   0.362   3.524   5.335
 1847SOL     OW 6427   1.219   2.182   4.183
 1847SOL    HW1 6428   1.281   2.111   4.172
 1847SOL    HW2 6429   1.250   2.231   4.260
 1848SOL     OW 6430   0.591   2.601   4.392
 1848SOL    HW1 6431   0.629   2.687   4.376
 1848SOL    HW2 6432   0.521   2.593   4.327
 1849SOL     OW 6433   0.864   3.230   3.756
 1849SOL    HW1 6434   0.823   3.256   3.839
 1849SOL    HW2 6435   0.881   3.313   3.711
 1850SOL     OW 6436   0.660   3.655   4.672
 1850SOL    HW1 6437   0.638   3.745   4.646
 1850SOL    HW2 6438   0.755   3.650   4.662
 1851SOL     OW 6439   0.866   2.829   4.579
 1851SOL    HW1 6440   0.916   2.757   4.618
 1851SOL    HW2 6441   0.833   2.879   4.654
 1852SOL     OW 6442   1.080   2.851   3.813
 1852SOL    HW1 6443   1.058   2.900   3.734
 1852SOL    HW2 6444   1.155   2.797   3.787
 1853SOL     OW 6445   1.857   3.408   4.570
 1853SOL    HW1 6446   1.784   3.412   4.508
 1853SOL    HW2 6447   1.819   3.371   4.650
 1854SOL     OW 6448   0.229   3.168   5.581
 1854SOL    HW1 6449   0.158   3.109   5.557
 1854SOL    HW2 6450   0.221   3.178   5.676
 1855SOL     OW 6451   0.103   3.100   4.391
 1855SOL    HW1 6452   0.111   3.050   4.473
 1855SOL    HW2 6453   0.163   3.056   4.331
 1856SOL     OW 6454   0.682   3.263   5.352
 1856SOL    HW1 6455   0.601   3.219   5.379
 1856SOL    HW2 6456   0.675   3.351   5.388
 1857SOL     OW 6457   0.435   2.295   4.249
 1857SOL    HW1 6458   0.459   2.222   4.193
 1857SOL    HW2 6459   0.384   2.256   4.320
 1858SOL     OW 6460   1.712   3.354   4.802
 1858SOL    HW1 6461   1.626   3.335   4.763
 1858SOL    HW2 6462   1.718   3.294   4.876
 1859SOL     OW 6463   0.305   2.352   4.980
 1859SOL    HW1 6464   0.378   2.309   5.023
 1859SOL    HW2 6465   0.335   2.366   4.890
 1860SOL     OW 6466   0.826   3.440   4.403
 1860SOL    HW1 6467   0.816   3.488   4.321
 1860SOL    HW2 6468   0.748   3.384   4.407
 1861SOL     OW 6469   1.007   1.882   4.870
 1861SOL    HW1 6470   0.952   1.815   4.829
 1861SOL    HW2 6471   1.094   1.842   4.872
 1862SOL     OW 6472   0.772   3.194   4.035
 1862SOL    HW1 6473   0.739   3.105   4.042
 1862SOL    HW2 6474   0.854   3.193   4.085
 1863SOL     OW 6475   0.621   3.419   5.009
 1863SOL    HW1 6476   0.623   3.501   5.059
 1863SOL    HW2 6477   0.708   3.412   4.970
 1864SOL     OW 6478   1.351   1.915   3.889
 1864SOL    HW1 6479   1.378   1.856   3.819
 1864SOL    HW2 6480   1.265   1.883   3.915
 1865SOL     OW 6481   1.299   2.325   4.415
 1865SOL    HW1 6482   1.243   2.403   4.414
 1865SOL    HW2 6483   1.278   2.282   4.498
 1866SOL     OW 6484   0.041   2.915   4.011
 1866SOL    HW1 6485   0.136   2.901   4.003
 1866SOL    HW2 6486   0.019   2.877   4.097
 1867SOL     OW 6487   0.883   3.513   4.068
 1867SOL    HW1 6488   0.811   3.495   4.007
 1867SOL    HW2 6489   0.853   3.588   4.118
 1868SOL     OW 6490   0.249   2.488   5.705
 1868SOL    HW1 6491   0.174   2.472   5.762
 1868SOL    HW2 6492   0.216   2.471   5.617
 1869SOL     OW 6493   0.213   2.138   6.577
 1869SOL    HW1 6494   0.250   2.111   6.662
 1869SOL    HW2 6495   0.137   2.081   6.566
 1870SOL     OW 6496   0.009   2.251   6.225
 1870SOL    HW1 6497   4.429   2.281   6.267
 1870SOL    HW2 6498   4.483   2.171   6.180
 1871SOL     OW 6499   0.567   3.146   6.759
 1871SOL    HW1 6500   0.479   3.151   6.721
 1871SOL    HW2 6501   0.582   3.234   6.795
 1872SOL     OW 6502   1.557   3.376   6.291
 1872SOL    HW1 6503   1.515   3.357   6.375
 1872SOL    HW2 6504   1.484   3.380   6.229
 1873SOL     OW 6505   1.111   2.581   6.278
 1873SOL    HW1 6506   1.172   2.655   6.280
 1873SOL    HW2 6507   1.077   2.575   6.367
 1874SOL     OW 6508   0.757   3.006   6.624
 1874SOL    HW1 6509   0.688   3.039   6.681
 1874SOL    HW2 6510   0.792   3.083   6.580
 1875SOL     OW 6511   0.864   2.639   7.407
 1875SOL    HW1 6512   0.850   2.711   7.469
 1875SOL    HW2 6513   0.887   2.683   7.325
 1876SOL     OW 6514   0.686   2.868   6.234
 1876SOL    HW1 6515   0.750   2.853   6.304
 1876SOL    HW2 6516   0.616   2.918   6.277
 1877SOL     OW 6517   0.709   3.013   7.397
 1877SOL    HW1 6518   0.756   3.092   7.422
 1877SOL    HW2 6519   0.626   3.044   7.362
 1878SOL     OW 6520   0.336   3.285   6.656
 1878SOL    HW1 6521   0.255   3.265   6.609
 1878SOL    HW2 6522   0.386   3.339   6.595
 1879SOL     OW 6523   1.457   3.366   6.939
 1879SOL    HW1 6524   1.505   3.448   6.950
 1879SOL    HW2 6525   1.399   3.362   7.015
 1880SOL     OW 6526   0.443   2.266   7.080
 1880SOL    HW1 6527   0.523   2.214   7.083
 1880SOL    HW2 6528   0.372   2.202   7.084
 1881SOL     OW 6529   0.246   3.553   6.065
 1881SOL    HW1 6530   0.232   3.638   6.107
 1881SOL    HW2 6531   0.310   3.572   5.996
 1882SOL     OW 6532   1.136   3.203   7.278
 1882SOL    HW1 6533   1.176   3.199   7.365
 1882SOL    HW2 6534   1.083   3.123   7.272
 1883SOL     OW 6535   0.246   3.289   6.114
 1883SOL    HW1 6536   0.238   3.384   6.118
 1883SOL    HW2 6537   0.182   3.257   6.177
 1884SOL     OW 6538   0.246   2.944   6.469
 1884SOL    HW1 6539   0.263   2.855   6.501
 1884SOL    HW2 6540   0.188   2.981   6.535
 1885SOL     OW 6541   0.615   3.653   7.018
 1885SOL    HW1 6542   0.532   3.634   7.061
 1885SOL    HW2 6543   0.636   3.743   7.042
 1886SOL     OW 6544   0.583   2.846   5.722
 1886SOL    HW1 6545   0.628   2.892   5.652
 1886SOL    HW2 6546   0.627   2.874   5.802
 1887SOL     OW 6547   1.596   1.983   7.057
 1887SOL    HW1 6548   1.601   2.062   7.003
 1887SOL    HW2 6549   1.581   2.016   7.146
 1888SOL     OW 6550   0.137   2.506   6.160
 1888SOL    HW1 6551   0.087   2.426   6.175
 1888SOL    HW2 6552   0.106   2.566   6.228
 1889SOL     OW 6553   1.842   3.622   5.919
 1889SOL    HW1 6554   1.901   3.593   5.988
 1889SOL    HW2 6555   1.867   3.712   5.901
 1890SOL     OW 6556   0.033   3.463   5.723
 1890SOL    HW1 6557   0.021   3.368   5.724
 1890SOL    HW2 6558   0.014   3.490   5.813
 1891SOL     OW 6559   0.111   2.623   7.173
 1891SOL    HW1 6560   0.204   2.623   7.152
 1891SOL    HW2 6561   0.088   2.715   7.184
 1892SOL     OW 6562   0.613   3.245   6.322
 1892SOL    HW1 6563   0.566   3.162   6.331
 1892SOL    HW2 6564   0.597   3.272   6.231
 1893SOL     OW 6565   1.290   3.101   7.010
 1893SOL    HW1 6566   1.322   3.034   6.950
 1893SOL    HW2 6567   1.346   3.094   7.087
 1894SOL     OW 6568   0.812   1.860   6.092
 1894SOL    HW1 6569   0.849   1.947   6.077
 1894SOL    HW2 6570   0.718   1.876   6.104
 1895SOL     OW 6571   0.182   2.805   6.865
 1895SOL    HW1 6572   0.273   2.787   6.843
 1895SOL    HW2 6573   0.134   2.784   6.785
 1896SOL     OW 6574   1.527   2.850   5.784
 1896SOL    HW1 6575   1.454   2.793   5.808
 1896SOL    HW2 6576   1.583   2.851   5.862
 1897SOL     OW 6577   1.186   3.667   7.207
 1897SOL    HW1 6578   1.199   3.724   7.131
 1897SOL    HW2 6579   1.200   3.579   7.173
 1898SOL     OW 6580   0.329   2.118   7.382
 1898SOL    HW1 6581   0.381   2.191   7.417
 1898SOL    HW2 6582   0.243   2.127   7.423
 1899SOL     OW 6583   1.466   3.287   6.539
 1899SOL    HW1 6584   1.398   3.300   6.605
 1899SOL    HW2 6585   1.453   3.196   6.511
 1900SOL     OW 6586   1.662   3.597   6.163
 1900SOL    HW1 6587   1.638   3.568   6.075
 1900SOL    HW2 6588   1.635   3.525   6.220
 1901SOL     OW 6589   0.598   2.584   5.851
 1901SOL    HW1 6590   0.601   2.664   5.800
 1901SOL    HW2 6591   0.532   2.601   5.919
 1902SOL     OW 6592   1.260   2.208   6.536
 1902SOL    HW1 6593   1.176   2.163   6.545
 1902SOL    HW2 6594   1.323   2.152   6.582
 1903SOL     OW 6595   1.581   3.530   5.895
 1903SOL    HW1 6596   1.670   3.566   5.888
 1903SOL    HW2 6597   1.555   3.514   5.805
 1904SOL     OW 6598   0.793   2.479   7.038
 1904SOL    HW1 6599   0.767   2.455   7.127
 1904SOL    HW2 6600   0.750   2.414   6.983
 1905SOL     OW 6601   1.393   2.336   7.264
 1905SOL    HW1 6602   1.394   2.380   7.349
 1905SOL    HW2 6603   1.456   2.265   7.273
 1906SOL     OW 6604   0.957   2.750   7.167
 1906SOL    HW1 6605   1.011   2.679   7.132
 1906SOL    HW2 6606   0.909   2.783   7.091
 1907SOL     OW 6607   0.992   2.275   6.825
 1907SOL    HW1 6608   0.907   2.296   6.864
 1907SOL    HW2 6609   0.970   2.229   6.744
 1908SOL     OW 6610   1.051   2.559   6.012
 1908SOL    HW1 6611   1.064   2.560   6.107
 1908SOL    HW2 6612   0.968   2.514   6.000
 1909SOL     OW 6613   0.098   2.688   6.369
 1909SOL    HW1 6614   0.184   2.668   6.406
 1909SOL    HW2 6615   0.049   2.726   6.442
 1910SOL     OW 6616   0.126   3.713   7.161
 1910SOL    HW1 6617   0.118   3.692   7.254
 1910SOL    HW2 6618   0.044   3.681   7.123
 1911SOL     OW 6619   0.894   2.206   5.783
 1911SOL    HW1 6620   0.933   2.268   5.721
 1911SOL    HW2 6621   0.900   2.121   5.739
 1912SOL     OW 6622   1.699   2.449   7.414
 1912SOL    HW1 6623   1.663   2.522   7.363
 1912SOL    HW2 6624   1.725   2.384   7.348
 1913SOL     OW 6625   1.371   3.002   6.126
 1913SOL    HW1 6626   1.455   3.007   6.081
 1913SOL    HW2 6627   1.315   3.065   6.081
 1914SOL     OW 6628   0.551   2.046   6.479
 1914SOL    HW1 6629   0.554   2.074   6.570
 1914SOL    HW2 6630   0.553   2.127   6.428
 1915SOL     OW 6631   1.008   3.307   6.059
 1915SOL    HW1 6632   0.968   3.379   6.010
 1915SOL    HW2 6633   0.991   3.328   6.151
 1916SOL     OW 6634   0.355   3.670   6.443
 1916SOL    HW1 6635   0.397   3.585   6.454
 1916SOL    HW2 6636   0.425   3.734   6.457
 1917SOL     OW 6637   1.227   3.401   7.100
 1917SOL    HW1 6638   1.213   3.328   7.160
 1917SOL    HW2 6639   1.166   3.385   7.028
 1918SOL     OW 6640   0.317   2.817   5.837
 1918SOL    HW1 6641   0.401   2.838   5.797
 1918SOL    HW2 6642   0.299   2.727   5.808
 1919SOL     OW 6643   0.466   3.124   7.321
 1919SOL    HW1 6644   0.439   3.130   7.230
 1919SOL    HW2 6645   0.385   3.129   7.371
 1920SOL     OW 6646   1.121   3.640   5.817
 1920SOL    HW1 6647   1.049   3.597   5.864
 1920SOL    HW2 6648   1.143   3.579   5.747
 1921SOL     OW 6649   0.195   2.139   7.072
 1921SOL    HW1 6650   0.134   2.213   7.078
 1921SOL    HW2 6651   0.185   2.094   7.156
 1922SOL     OW 6652   1.642   3.251   5.682
 1922SOL    HW1 6653   1.593   3.331   5.661
 1922SOL    HW2 6654   1.583   3.180   5.658
 1923SOL     OW 6655   0.469   3.606   5.900
 1923SOL    HW1 6656   0.509   3.658   5.969
 1923SOL    HW2 6657   0.543   3.573   5.849
 1924SOL     OW 6658   0.261   3.656   6.819
 1924SOL    HW1 6659   0.306   3.582   6.859
 1924SOL    HW2 6660   0.227   3.622   6.736
 1925SOL     OW 6661   0.938   3.561   6.485
 1925SOL    HW1 6662   1.014   3.507   6.508
 1925SOL    HW2 6663   0.893   3.511   6.417
 1926SOL     OW 6664   0.393   2.557   6.059
 1926SOL    HW1 6665   0.417   2.465   6.070
 1926SOL    HW2 6666   0.301   2.561   6.085
 1927SOL     OW 6667   1.535   2.086   7.312
 1927SOL    HW1 6668   1.543   2.107   7.405
 1927SOL    HW2 6669   1.465   2.021   7.308
 1928SOL     OW 6670   0.635   1.989   5.688
 1928SOL    HW1 6671   0.702   1.923   5.706
 1928SOL    HW2 6672   0.586   1.954   5.614
 1929SOL     OW 6673   0.768   2.138   7.339
 1929SOL    HW1 6674   0.842   2.078   7.343
 1929SOL    HW2 6675   0.718   2.121   7.419
 1930SOL     OW 6676   0.878   3.384   6.779
 1930SOL    HW1 6677   0.861   3.347   6.692
 1930SOL    HW2 6678   0.946   3.329   6.816
 1931SOL     OW 6679   1.341   2.452   7.018
 1931SOL    HW1 6680   1.372   2.419   7.103
 1931SOL    HW2 6681   1.378   2.540   7.011
 1932SOL     OW 6682   0.814   3.259   6.524
 1932SOL    HW1 6683   0.898   3.248   6.479
 1932SOL    HW2 6684   0.749   3.258   6.453
 1933SOL     OW 6685   0.926   2.372   6.491
 1933SOL    HW1 6686   0.904   2.363   6.398
 1933SOL    HW2 6687   0.964   2.288   6.515
 1934SOL     OW 6688   0.550   1.923   6.089
 1934SOL    HW1 6689   0.470   1.922   6.141
 1934SOL    HW2 6690   0.543   2.002   6.035
 1935SOL     OW 6691   1.431   3.062   5.629
 1935SOL    HW1 6692   1.458   2.986   5.681
 1935SOL    HW2 6693   1.345   3.086   5.664
 1936SOL     OW 6694   0.294   1.908   5.764
 1936SOL    HW1 6695   0.356   1.976   5.737
 1936SOL    HW2 6696   0.348   1.843   5.808
 1937SOL     OW 6697   0.926   2.106   6.048
 1937SOL    HW1 6698   0.902   2.149   5.966
 1937SOL    HW2 6699   1.021   2.094   6.041
 1938SOL     OW 6700   1.080   2.542   7.046
 1938SOL    HW1 6701   1.011   2.475   7.050
 1938SOL    HW2 6702   1.161   2.491   7.038
 1939SOL     OW 6703   1.225   3.430   6.379
 1939SOL    HW1 6704   1.243   3.500   6.315
 1939SOL    HW2 6705   1.292   3.442   6.446
 1940SOL     OW 6706   0.466   3.010   6.323
 1940SOL    HW1 6707   0.394   2.992   6.384
 1940SOL    HW2 6708   0.428   2.994   6.236
 1941SOL     OW 6709   1.271   3.656   6.192
 1941SOL    HW1 6710   1.315   3.718   6.134
 1941SOL    HW2 6711   1.205   3.709   6.238
 1942SOL     OW 6712   1.028   2.408   5.606
 1942SOL    HW1 6713   0.984   2.491   5.589
 1942SOL    HW2 6714   1.087   2.426   5.679
 1943SOL     OW 6715   0.082   2.393   6.994
 1943SOL    HW1 6716   0.149   2.392   6.926
 1943SOL    HW2 6717   0.069   2.486   7.014
 1944SOL     OW 6718   0.561   2.089   6.751
 1944SOL    HW1 6719   0.602   2.010   6.785
 1944SOL    HW2 6720   0.469   2.082   6.778
 1945SOL     OW 6721   0.869   2.321   6.226
 1945SOL    HW1 6722   0.821   2.377   6.165
 1945SOL    HW2 6723   0.883   2.240   6.178
 1946SOL     OW 6724   1.012   1.916   6.337
 1946SOL    HW1 6725   0.952   1.904   6.264
 1946SOL    HW2 6726   0.997   1.840   6.393
 1947SOL     OW 6727   1.427   3.036   6.446
 1947SOL    HW1 6728   1.364   2.964   6.440
 1947SOL    HW2 6729   1.464   3.042   6.358
 1948SOL     OW 6730   0.492   3.277   5.747
 1948SOL    HW1 6731   0.416   3.248   5.797
 1948SOL    HW2 6732   0.471   3.255   5.656
 1949SOL     OW 6733   1.663   3.123   6.263
 1949SOL    HW1 6734   1.758   3.133   6.253
 1949SOL    HW2 6735   1.630   3.213   6.269
 1950SOL     OW 6736   0.525   2.122   5.904
 1950SOL    HW1 6737   0.570   2.075   5.833
 1950SOL    HW2 6738   0.507   2.209   5.868
 1951SOL     OW 6739   1.753   3.101   7.160
 1951SOL    HW1 6740   1.840   3.062   7.154
 1951SOL    HW2 6741   1.769   3.190   7.192
 1952SOL     OW 6742   1.060   3.216   6.921
 1952SOL    HW1 6743   0.985   3.185   6.972
 1952SOL    HW2 6744   1.136   3.174   6.962
 1953SOL     OW 6745   1.607   3.488   7.238
 1953SOL    HW1 6746   1.603   3.522   7.149
 1953SOL    HW2 6747   1.690   3.440   7.243
 1954SOL     OW 6748   1.127   3.065   6.693
 1954SOL    HW1 6749   1.067   3.103   6.758
 1954SOL    HW2 6750   1.092   3.095   6.609
 1955SOL     OW 6751   1.649   3.000   6.673
 1955SOL    HW1 6752   1.632   3.052   6.752
 1955SOL    HW2 6753   1.566   3.005   6.624
 1956SOL     OW 6754   0.917   1.960   6.984
 1956SOL    HW1 6755   0.939   1.941   6.893
 1956SOL    HW2 6756   0.997   2.000   7.020
 1957SOL     OW 6757   0.984   2.976   7.308
 1957SOL    HW1 6758   0.892   2.991   7.328
 1957SOL    HW2 6759   0.984   2.899   7.252
 1958SOL     OW 6760   0.708   2.923   5.958
 1958SOL    HW1 6761   0.695   2.908   6.052
 1958SOL    HW2 6762   0.784   2.869   5.936
 1959SOL     OW 6763   0.430   2.686   6.826
 1959SOL    HW1 6764   0.499   2.698   6.891
 1959SOL    HW2 6765   0.371   2.621   6.865
 1960SOL     OW 6766   1.270   2.236   6.864
 1960SOL    HW1 6767   1.302   2.315   6.907
 1960SOL    HW2 6768   1.183   2.260   6.830
 1961SOL     OW 6769   0.061   3.438   6.925
 1961SOL    HW1 6770   0.033   3.527   6.905
 1961SOL    HW2 6771   0.157   3.444   6.933
 1962SOL     OW 6772   0.350   2.969   6.079
 1962SOL    HW1 6773   0.357   3.043   6.018
 1962SOL    HW2 6774   0.350   2.891   6.023
 1963SOL     OW 6775   0.561   2.397   6.442
 1963SOL    HW1 6776   0.576   2.457   6.369
 1963SOL    HW2 6777   0.622   2.427   6.510
 1964SOL     OW 6778   1.248   3.210   5.977
 1964SOL    HW1 6779   1.303   3.282   6.006
 1964SOL    HW2 6780   1.161   3.231   6.009
 1965SOL     OW 6781   1.278   3.319   6.732
 1965SOL    HW1 6782   1.333   3.321   6.811
 1965SOL    HW2 6783   1.224   3.241   6.743
 1966SOL     OW 6784   0.347   3.392   6.902
 1966SOL    HW1 6785   0.333   3.345   6.821
 1966SOL    HW2 6786   0.442   3.402   6.908
 1967SOL     OW 6787   0.475   2.621   7.248
 1967SOL    HW1 6788   0.505   2.660   7.166
 1967SOL    HW2 6789   0.514   2.533   7.248
 1968SOL     OW 6790   1.597   2.645   7.263
 1968SOL    HW1 6791   1.511   2.685   7.255
 1968SOL    HW2 6792   1.650   2.687   7.195
 1969SOL     OW 6793   0.996   1.982   7.342
 1969SOL    HW1 6794   1.050   2.055   7.311
 1969SOL    HW2 6795   1.045   1.904   7.316
 1970SOL     OW 6796   0.498   1.905   7.332
 1970SOL    HW1 6797   0.458   1.849   7.266
 1970SOL    HW2 6798   0.437   1.979   7.341
 1971SOL     OW 6799   0.588   2.736   6.610
 1971SOL    HW1 6800   0.617   2.827   6.612
 1971SOL    HW2 6801   0.532   2.726   6.686
 1972SOL     OW 6802   1.357   2.720   6.622
 1972SOL    HW1 6803   1.277   2.706   6.571
 1972SOL    HW2 6804   1.396   2.633   6.631
 1973SOL     OW 6805   1.197   2.399   5.843
 1973SOL    HW1 6806   1.225   2.322   5.893
 1973SOL    HW2 6807   1.157   2.457   5.908
 1974SOL     OW 6808   0.303   2.055   6.828
 1974SOL    HW1 6809   0.263   2.089   6.908
 1974SOL    HW2 6810   0.285   1.961   6.831
 1975SOL     OW 6811   0.044   3.175   6.870
 1975SOL    HW1 6812   0.077   3.128   6.947
 1975SOL    HW2 6813   0.047   3.267   6.895
 1976SOL     OW 6814   0.726   2.494   6.646
 1976SOL    HW1 6815   0.799   2.474   6.588
 1976SOL    HW2 6816   0.700   2.583   6.622
 1977SOL     OW 6817   1.733   2.823   7.436
 1977SOL    HW1 6818   1.687   2.763   7.377
 1977SOL    HW2 6819   1.674   2.834   7.510
 1978SOL     OW 6820   0.309   1.932   6.205
 1978SOL    HW1 6821   0.286   2.021   6.233
 1978SOL    HW2 6822   0.305   1.880   6.285
 1979SOL     OW 6823   1.029   2.621   6.549
 1979SOL    HW1 6824   1.026   2.639   6.643
 1979SOL    HW2 6825   1.003   2.529   6.541
 1980SOL     OW 6826   0.983   3.429   7.301
 1980SOL    HW1 6827   0.967   3.472   7.218
 1980SOL    HW2 6828   1.025   3.346   7.278
 1981SOL     OW 6829   1.856   3.370   7.192
 1981SOL    HW1 6830   1.872   3.396   7.102
 1981SOL    HW2 6831   1.937   3.390   7.238
 1982SOL     OW 6832   0.347   2.793   7.404
 1982SOL    HW1 6833   0.421   2.822   7.458
 1982SOL    HW2 6834   0.384   2.727   7.346
 1983SOL     OW 6835   1.293   2.697   5.614
 1983SOL    HW1 6836   1.346   2.617   5.617
 1983SOL    HW2 6837   1.314   2.737   5.530
 1984SOL     OW 6838   1.064   3.197   6.438
 1984SOL    HW1 6839   1.068   3.124   6.377
 1984SOL    HW2 6840   1.128   3.260   6.405
 1985SOL     OW 6841   0.317   2.674   6.535
 1985SOL    HW1 6842   0.411   2.691   6.532
 1985SOL    HW2 6843   0.311   2.583   6.564
 1986SOL     OW 6844   0.332   2.386   6.578
 1986SOL    HW1 6845   0.294   2.300   6.562
 1986SOL    HW2 6846   0.410   2.388   6.523
 1987SOL     OW 6847   1.134   2.239   7.267
 1987SOL    HW1 6848   1.088   2.294   7.330
 1987SOL    HW2 6849   1.222   2.277   7.262
 1988SOL     OW 6850   1.160   2.065   7.056
 1988SOL    HW1 6851   1.150   2.129   7.127
 1988SOL    HW2 6852   1.199   2.115   6.985
 1989SOL     OW 6853   4.492   3.185   5.788
 1989SOL    HW1 6854   4.399   3.200   5.771
 1989SOL    HW2 6855   4.497   3.092   5.812
 1990SOL     OW 6856   0.096   3.642   6.526
 1990SOL    HW1 6857   0.058   3.584   6.460
 1990SOL    HW2 6858   0.184   3.661   6.493
 1991SOL     OW 6859   0.498   3.435   6.492
 1991SOL    HW1 6860   0.566   3.498   6.516
 1991SOL    HW2 6861   0.542   3.371   6.437
 1992SOL     OW 6862   0.986   2.656   6.814
 1992SOL    HW1 6863   1.040   2.631   6.889
 1992SOL    HW2 6864   0.900   2.619   6.833
 1993SOL     OW 6865   0.036   2.424   6.691
 1993SOL    HW1 6866   0.119   2.389   6.659
 1993SOL    HW2 6867   0.024   2.384   6.777
 1994SOL     OW 6868   0.179   2.379   7.300
 1994SOL    HW1 6869   0.259   2.350   7.255
 1994SOL    HW2 6870   0.155   2.460   7.256
 1995SOL     OW 6871   1.374   2.804   7.245
 1995SOL    HW1 6872   1.395   2.897   7.244
 1995SOL    HW2 6873   1.372   2.778   7.152
 1996SOL     OW 6874   0.817   2.432   5.941
 1996SOL    HW1 6875   0.817   2.356   5.883
 1996SOL    HW2 6876   0.742   2.484   5.912
 1997SOL     OW 6877   1.646   2.481   6.786
 1997SOL    HW1 6878   1.617   2.411   6.845
 1997SOL    HW2 6879   1.720   2.444   6.739
 1998SOL     OW 6880   0.273   3.423   7.327
 1998SOL    HW1 6881   0.217   3.476   7.385
 1998SOL    HW2 6882   0.252   3.333   7.350
 1999SOL     OW 6883   0.688   2.317   6.850
 1999SOL    HW1 6884   0.645   2.239   6.814
 1999SOL    HW2 6885   0.691   2.378   6.776
 2000SOL     OW 6886   0.930   3.541   7.053
 2000SOL    HW1 6887   0.903   3.508   6.967
 2000SOL    HW2 6888   0.926   3.636   7.044
 2001SOL     OW 6889   0.473   2.352   5.773
 2001SOL    HW1 6890   0.531   2.425   5.796
 2001SOL    HW2 6891   0.388   2.393   5.758
 2002SOL     OW 6892   0.162   3.003   7.048
 2002SOL    HW1 6893   0.147   2.956   7.130
 2002SOL    HW2 6894   0.170   2.934   6.983
 2003SOL     OW 6895   1.328   2.912   6.810
 2003SOL    HW1 6896   1.351   2.849   6.742
 2003SOL    HW2 6897   1.256   2.962   6.772
 2004SOL     OW 6898   1.303   2.718   5.895
 2004SOL    HW1 6899   1.228   2.687   5.945
 2004SOL    HW2 6900   1.277   2.707   5.803
 2005SOL     OW 6901   1.770   3.608   6.736
 2005SOL    HW1 6902   1.829   3.633   6.665
 2005SOL    HW2 6903   1.745   3.518   6.715
 2006SOL     OW 6904   1.241   3.595   6.702
 2006SOL    HW1 6905   1.323   3.614   6.655
 2006SOL    HW2 6906   1.245   3.501   6.720
 2007SOL     OW 6907   0.067   3.049   6.634
 2007SOL    HW1 6908   0.070   3.082   6.724
 2007SOL    HW2 6909   0.016   3.114   6.586
 2008SOL     OW 6910   0.679   3.527   7.313
 2008SOL    HW1 6911   0.624   3.605   7.308
 2008SOL    HW2 6912   0.741   3.536   7.241
 2009SOL     OW 6913   1.389   3.430   6.068
 2009SOL    HW1 6914   1.450   3.462   6.002
 2009SOL    HW2 6915   1.341   3.507   6.097
 2010SOL     OW 6916   0.120   3.669   7.433
 2010SOL    HW1 6917   0.080   3.596   7.480
 2010SOL    HW2 6918   0.183   3.706   7.495
 2011SOL     OW 6919   1.289   2.786   6.264
 2011SOL    HW1 6920   1.355   2.722   6.241
 2011SOL    HW2 6921   1.311   2.864   6.213
 2012SOL     OW 6922   0.817   3.135   7.017
 2012SOL    HW1 6923   0.790   3.173   7.100
 2012SOL    HW2 6924   0.745   3.156   6.956
 2013SOL     OW 6925   0.673   3.479   5.741
 2013SOL    HW1 6926   0.681   3.491   5.646
 2013SOL    HW2 6927   0.619   3.401   5.751
 2014SOL     OW 6928   1.630   3.589   6.978
 2014SOL    HW1 6929   1.678   3.595   6.896
 2014SOL    HW2 6930   1.617   3.680   7.006
 2015SOL     OW 6931   1.800   1.985   6.554
 2015SOL    HW1 6932   1.854   1.957   6.480
 2015SOL    HW2 6933   1.728   2.034   6.513
 2016SOL     OW 6934   0.266   2.182   6.305
 2016SOL    HW1 6935   0.183   2.221   6.277
 2016SOL    HW2 6936   0.255   2.170   6.399
 2017SOL     OW 6937   1.207   3.469   5.617
 2017SOL    HW1 6938   1.198   3.378   5.644
 2017SOL    HW2 6939   1.142   3.480   5.548
 2018SOL     OW 6940   0.825   2.868   6.958
 2018SOL    HW1 6941   0.869   2.865   6.873
 2018SOL    HW2 6942   0.825   2.961   6.981
 2019SOL     OW 6943   0.915   2.772   5.876
 2019SOL    HW1 6944   0.976   2.805   5.810
 2019SOL    HW2 6945   0.962   2.701   5.920
 2020SOL     OW 6946   1.495   3.487   5.628
 2020SOL    HW1 6947   1.400   3.481   5.616
 2020SOL    HW2 6948   1.530   3.493   5.539
 2021SOL     OW 6949   0.373   3.168   7.077
 2021SOL    HW1 6950   0.356   3.247   7.025
 2021SOL    HW2 6951   0.298   3.111   7.061
 2022SOL     OW 6952   1.613   3.155   6.884
 2022SOL    HW1 6953   1.666   3.145   6.964
 2022SOL    HW2 6954   1.552   3.225   6.905
 2023SOL     OW 6955   1.049   2.967   6.291
 2023SOL    HW1 6956   0.978   2.919   6.333
 2023SOL    HW2 6957   1.108   2.900   6.256
 2024SOL     OW 6958   1.008   2.097   6.556
 2024SOL    HW1 6959   1.008   2.051   6.472
 2024SOL    HW2 6960   1.006   2.028   6.621
 2025SOL     OW 6961   0.604   3.352   6.069
 2025SOL    HW1 6962   0.642   3.302   5.997
 2025SOL    HW2 6963   0.530   3.398   6.028
 2026SOL     OW 6964   1.722   2.252   6.969
 2026SOL    HW1 6965   1.793   2.316   6.959
 2026SOL    HW2 6966   1.746   2.181   6.910
 2027SOL     OW 6967   0.252   3.207   5.863
 2027SOL    HW1 6968   0.157   3.207   5.849
 2027SOL    HW2 6969   0.262   3.239   5.953
 2028SOL     OW 6970   0.117   2.870   7.281
 2028SOL    HW1 6971   0.052   2.909   7.340
 2028SOL    HW2 6972   0.195   2.858   7.335
 2029SOL     OW 6973   0.673   2.061   7.084
 2029SOL    HW1 6974   0.757   2.040   7.043
 2029SOL    HW2 6975   0.697   2.088   7.173
 2030SOL     OW 6976   0.072   2.188   5.618
 2030SOL    HW1 6977   4.477   2.197   5.620
 2030SOL    HW2 6978   0.104   2.270   5.581
 2031SOL     OW 6979   1.431   2.722   6.988
 2031SOL    HW1 6980   1.383   2.782   6.931
 2031SOL    HW2 6981   1.520   2.723   6.953
 2032SOL     OW 6982   0.085   2.039   5.892
 2032SOL    HW1 6983   0.078   2.111   5.829
 2032SOL    HW2 6984   0.161   1.989   5.863
 2033SOL     OW 6985   1.180   3.202   5.703
 2033SOL    HW1 6986   1.088   3.174   5.705
 2033SOL    HW2 6987   1.207   3.202   5.795
 2034SOL     OW 6988   0.622   2.693   7.015
 2034SOL    HW1 6989   0.677   2.770   7.002
 2034SOL    HW2 6990   0.683   2.621   7.024
 2035SOL     OW 6991   1.484   3.638   6.563
 2035SOL    HW1 6992   1.510   3.696   6.491
 2035SOL    HW2 6993   1.566   3.618   6.609
 2036SOL     OW 6994   0.715   2.425   7.290
 2036SOL    HW1 6995   0.752   2.490   7.350
 2036SOL    HW2 6996   0.750   2.341   7.321
 2037SOL     OW 6997   1.470   3.064   7.219
 2037SOL    HW1 6998   1.457   3.077   7.313
 2037SOL    HW2 6999   1.563   3.077   7.205
 2038SOL     OW 7000   0.382   3.605   7.150
 2038SOL    HW1 7001   0.296   3.645   7.134
 2038SOL    HW2 7002   0.362   3.524   7.197
 2039SOL     OW 7003   1.671   2.750   6.846
 2039SOL    HW1 7004   1.663   2.663   6.806
 2039SOL    HW2 7005   1.668   2.811   6.772
 2040SOL     OW 7006   0.591   2.601   6.253
 2040SOL    HW1 7007   0.629   2.687   6.238
 2040SOL    HW2 7008   0.521   2.594   6.188
 2041SOL     OW 7009   1.755   2.229   7.238
 2041SOL    HW1 7010   1.748   2.239   7.143
 2041SOL    HW2 7011   1.683   2.170   7.261
 2042SOL     OW 7012   1.750   2.796   7.099
 2042SOL    HW1 7013   1.745   2.891   7.112
 2042SOL    HW2 7014   1.731   2.784   7.006
 2043SOL     OW 7015   0.865   3.230   5.618
 2043SOL    HW1 7016   0.824   3.256   5.701
 2043SOL    HW2 7017   0.881   3.312   5.572
 2044SOL     OW 7018   0.660   3.655   6.533
 2044SOL    HW1 7019   0.638   3.745   6.508
 2044SOL    HW2 7020   0.755   3.650   6.524
 2045SOL     OW 7021   0.867   2.828   6.441
 2045SOL    HW1 7022   0.917   2.757   6.481
 2045SOL    HW2 7023   0.833   2.878   6.516
 2046SOL     OW 7024   1.078   2.853   5.676
 2046SOL    HW1 7025   1.054   2.903   5.598
 2046SOL    HW2 7026   1.153   2.800   5.649
 2047SOL     OW 7027   1.855   3.419   6.434
 2047SOL    HW1 7028   1.781   3.405   6.374
 2047SOL    HW2 7029   1.849   3.347   6.497
 2048SOL     OW 7030   0.229   3.168   7.443
 2048SOL    HW1 7031   0.158   3.108   7.419
 2048SOL    HW2 7032   0.221   3.178   7.538
 2049SOL     OW 7033   0.104   3.100   6.253
 2049SOL    HW1 7034   0.111   3.051   6.335
 2049SOL    HW2 7035   0.164   3.055   6.193
 2050SOL     OW 7036   0.681   3.263   7.213
 2050SOL    HW1 7037   0.601   3.219   7.241
 2050SOL    HW2 7038   0.675   3.351   7.250
 2051SOL     OW 7039   1.786   2.038   6.819
 2051SOL    HW1 7040   1.808   1.948   6.844
 2051SOL    HW2 7041   1.803   2.041   6.725
 2052SOL     OW 7042   0.435   2.295   6.111
 2052SOL    HW1 7043   0.459   2.221   6.055
 2052SOL    HW2 7044   0.384   2.256   6.182
 2053SOL     OW 7045   1.700   3.354   6.687
 2053SOL    HW1 7046   1.621   3.327   6.641
 2053SOL    HW2 7047   1.716   3.283   6.749
 2054SOL     OW 7048   0.304   2.350   6.841
 2054SOL    HW1 7049   0.378   2.310   6.886
 2054SOL    HW2 7050   0.335   2.365   6.752
 2055SOL     OW 7051   0.826   3.440   6.264
 2055SOL    HW1 7052   0.816   3.488   6.183
 2055SOL    HW2 7053   0.749   3.384   6.269
 2056SOL     OW 7054   1.426   2.070   6.707
 2056SOL    HW1 7055   1.477   2.015   6.767
 2056SOL    HW2 7056   1.378   2.129   6.764
 2057SOL     OW 7057   1.005   1.880   6.731
 2057SOL    HW1 7058   0.952   1.811   6.692
 2057SOL    HW2 7059   1.093   1.843   6.734
 2058SOL     OW 7060   0.772   3.194   5.897
 2058SOL    HW1 7061   0.739   3.104   5.904
 2058SOL    HW2 7062   0.853   3.194   5.947
 2059SOL     OW 7063   0.621   3.419   6.870
 2059SOL    HW1 7064   0.623   3.501   6.921
 2059SOL    HW2 7065   0.708   3.412   6.832
 2060SOL     OW 7066   1.343   1.926   5.761
 2060SOL    HW1 7067   1.378   1.874   5.689
 2060SOL    HW2 7068   1.263   1.880   5.787
 2061SOL     OW 7069   0.041   2.915   5.873
 2061SOL    HW1 7070   0.136   2.901   5.865
 2061SOL    HW2 7071   0.019   2.878   5.959
 2062SOL     OW 7072   0.883   3.513   5.929
 2062SOL    HW1 7073   0.811   3.495   5.869
 2062SOL    HW2 7074   0.853   3.588   5.980
 2063SOL     OW 7075   0.248   2.490   7.567
 2063SOL    HW1 7076   0.173   2.473   7.624
 2063SOL    HW2 7077   0.216   2.470   7.479
 2064SOL     OW 7078   0.213   2.138   8.440
 2064SOL    HW1 7079   0.249   2.111   8.524
 2064SOL    HW2 7080   0.137   2.081   8.427
 2065SOL     OW 7081   0.009   2.251   8.088
 2065SOL    HW1 7082   4.428   2.281   8.129
 2065SOL    HW2 7083   4.483   2.171   8.041
 2066SOL     OW 7084   0.567   3.146   8.621
 2066SOL    HW1 7085   0.480   3.151   8.583
 2066SOL    HW2 7086   0.582   3.234   8.657
 2067SOL     OW 7087   1.559   3.374   8.154
 2067SOL    HW1 7088   1.515   3.355   8.237
 2067SOL    HW2 7089   1.488   3.378   8.090
 2068SOL     OW 7090   1.130   2.560   8.151
 2068SOL    HW1 7091   1.179   2.641   8.136
 2068SOL    HW2 7092   1.083   2.575   8.233
 2069SOL     OW 7093   1.765   2.471   7.678
 2069SOL    HW1 7094   1.745   2.463   7.584
 2069SOL    HW2 7095   1.738   2.386   7.714
 2070SOL     OW 7096   0.758   3.006   8.487
 2070SOL    HW1 7097   0.688   3.039   8.543
 2070SOL    HW2 7098   0.792   3.083   8.442
 2071SOL     OW 7099   0.864   2.639   9.269
 2071SOL    HW1 7100   0.850   2.711   9.331
 2071SOL    HW2 7101   0.887   2.683   9.187
 2072SOL     OW 7102   0.686   2.868   8.096
 2072SOL    HW1 7103   0.750   2.854   8.166
 2072SOL    HW2 7104   0.616   2.918   8.138
 2073SOL     OW 7105   0.709   3.013   9.259
 2073SOL    HW1 7106   0.756   3.092   9.284
 2073SOL    HW2 7107   0.626   3.044   9.224
 2074SOL     OW 7108   0.336   3.284   8.518
 2074SOL    HW1 7109   0.255   3.265   8.471
 2074SOL    HW2 7110   0.386   3.339   8.457
 2075SOL     OW 7111   1.461   3.360   8.800
 2075SOL    HW1 7112   1.508   3.443   8.810
 2075SOL    HW2 7113   1.403   3.356   8.875
 2076SOL     OW 7114   0.443   2.266   8.942
 2076SOL    HW1 7115   0.523   2.213   8.945
 2076SOL    HW2 7116   0.372   2.202   8.946
 2077SOL     OW 7117   1.605   2.314   8.192
 2077SOL    HW1 7118   1.531   2.338   8.136
 2077SOL    HW2 7119   1.625   2.393   8.242
 2078SOL     OW 7120   0.246   3.553   7.927
 2078SOL    HW1 7121   0.232   3.638   7.969
 2078SOL    HW2 7122   0.310   3.571   7.858
 2079SOL     OW 7123   1.136   3.203   9.140
 2079SOL    HW1 7124   1.175   3.199   9.227
 2079SOL    HW2 7125   1.083   3.123   9.134
 2080SOL     OW 7126   0.246   3.289   7.976
 2080SOL    HW1 7127   0.238   3.384   7.980
 2080SOL    HW2 7128   0.182   3.257   8.039
 2081SOL     OW 7129   0.246   2.943   8.331
 2081SOL    HW1 7130   0.263   2.855   8.363
 2081SOL    HW2 7131   0.188   2.981   8.397
 2082SOL     OW 7132   0.616   3.652   8.880
 2082SOL    HW1 7133   0.532   3.634   8.923
 2082SOL    HW2 7134   0.636   3.743   8.904
 2083SOL     OW 7135   0.582   2.846   7.584
 2083SOL    HW1 7136   0.628   2.892   7.514
 2083SOL    HW2 7137   0.627   2.874   7.664
 2084SOL     OW 7138   1.591   1.980   8.922
 2084SOL    HW1 7139   1.602   2.055   8.864
 2084SOL    HW2 7140   1.580   2.019   9.009
 2085SOL     OW 7141   0.136   2.506   8.022
 2085SOL    HW1 7142   0.087   2.426   8.037
 2085SOL    HW2 7143   0.106   2.566   8.090
 2086SOL     OW 7144   1.842   3.622   7.784
 2086SOL    HW1 7145   1.903   3.593   7.852
 2086SOL    HW2 7146   1.868   3.713   7.765
 2087SOL     OW 7147   0.033   3.463   7.585
 2087SOL    HW1 7148   0.021   3.368   7.586
 2087SOL    HW2 7149   0.014   3.490   7.676
 2088SOL     OW 7150   1.691   2.782   8.087
 2088SOL    HW1 7151   1.773   2.738   8.064
 2088SOL    HW2 7152   1.668   2.831   8.008
 2089SOL     OW 7153   1.645   2.969   7.878
 2089SOL    HW1 7154   1.730   2.977   7.835
 2089SOL    HW2 7155   1.650   3.030   7.952
 2090SOL     OW 7156   0.111   2.623   9.035
 2090SOL    HW1 7157   0.204   2.623   9.014
 2090SOL    HW2 7158   0.088   2.715   9.046
 2091SOL     OW 7159   0.613   3.245   8.184
 2091SOL    HW1 7160   0.566   3.162   8.193
 2091SOL    HW2 7161   0.597   3.272   8.093
 2092SOL     OW 7162   1.290   3.101   8.872
 2092SOL    HW1 7163   1.322   3.033   8.812
 2092SOL    HW2 7164   1.346   3.093   8.949
 2093SOL     OW 7165   0.814   1.861   7.954
 2093SOL    HW1 7166   0.854   1.946   7.938
 2093SOL    HW2 7167   0.721   1.880   7.965
 2094SOL     OW 7168   0.182   2.804   8.727
 2094SOL    HW1 7169   0.273   2.787   8.705
 2094SOL    HW2 7170   0.133   2.784   8.647
 2095SOL     OW 7171   1.532   2.854   7.645
 2095SOL    HW1 7172   1.462   2.796   7.674
 2095SOL    HW2 7173   1.571   2.888   7.726
 2096SOL     OW 7174   1.186   3.667   9.069
 2096SOL    HW1 7175   1.198   3.724   8.993
 2096SOL    HW2 7176   1.201   3.579   9.035
 2097SOL     OW 7177   0.329   2.118   9.244
 2097SOL    HW1 7178   0.380   2.191   9.279
 2097SOL    HW2 7179   0.243   2.127   9.285
 2098SOL     OW 7180   1.466   3.281   8.401
 2098SOL    HW1 7181   1.398   3.296   8.466
 2098SOL    HW2 7182   1.454   3.190   8.373
 2099SOL     OW 7183   1.661   3.597   8.026
 2099SOL    HW1 7184   1.638   3.569   7.937
 2099SOL    HW2 7185   1.634   3.524   8.082
 2100SOL     OW 7186   0.598   2.584   7.713
 2100SOL    HW1 7187   0.601   2.664   7.661
 2100SOL    HW2 7188   0.532   2.601   7.780
 2101SOL     OW 7189   1.279   2.213   8.381
 2101SOL    HW1 7190   1.189   2.179   8.389
 2101SOL    HW2 7191   1.330   2.160   8.442
 2102SOL     OW 7192   1.581   3.531   7.757
 2102SOL    HW1 7193   1.671   3.565   7.750
 2102SOL    HW2 7194   1.555   3.514   7.666
 2103SOL     OW 7195   0.794   2.478   8.900
 2103SOL    HW1 7196   0.768   2.455   8.989
 2103SOL    HW2 7197   0.750   2.414   8.845
 2104SOL     OW 7198   1.394   2.336   9.125
 2104SOL    HW1 7199   1.395   2.380   9.210
 2104SOL    HW2 7200   1.457   2.265   9.134
 2105SOL     OW 7201   0.957   2.750   9.029
 2105SOL    HW1 7202   1.011   2.679   8.994
 2105SOL    HW2 7203   0.910   2.784   8.953
 2106SOL     OW 7204   0.993   2.276   8.687
 2106SOL    HW1 7205   0.909   2.298   8.728
 2106SOL    HW2 7206   0.969   2.228   8.608
 2107SOL     OW 7207   1.050   2.561   7.875
 2107SOL    HW1 7208   1.065   2.554   7.969
 2107SOL    HW2 7209   0.968   2.513   7.860
 2108SOL     OW 7210   0.097   2.688   8.232
 2108SOL    HW1 7211   0.184   2.668   8.268
 2108SOL    HW2 7212   0.049   2.726   8.305
 2109SOL     OW 7213   0.126   3.713   9.023
 2109SOL    HW1 7214   0.118   3.692   9.116
 2109SOL    HW2 7215   0.044   3.681   8.985
 2110SOL     OW 7216   0.889   2.209   7.642
 2110SOL    HW1 7217   0.931   2.270   7.582
 2110SOL    HW2 7218   0.907   2.123   7.604
 2111SOL     OW 7219   1.711   2.441   9.279
 2111SOL    HW1 7220   1.672   2.512   9.228
 2111SOL    HW2 7221   1.735   2.375   9.214
 2112SOL     OW 7222   1.376   3.004   7.990
 2112SOL    HW1 7223   1.454   2.990   7.937
 2112SOL    HW2 7224   1.323   3.066   7.940
 2113SOL     OW 7225   0.551   2.045   8.341
 2113SOL    HW1 7226   0.553   2.074   8.432
 2113SOL    HW2 7227   0.552   2.126   8.290
 2114SOL     OW 7228   1.008   3.308   7.921
 2114SOL    HW1 7229   0.968   3.379   7.872
 2114SOL    HW2 7230   0.991   3.329   8.013
 2115SOL     OW 7231   0.355   3.670   8.305
 2115SOL    HW1 7232   0.397   3.585   8.316
 2115SOL    HW2 7233   0.425   3.734   8.319
 2116SOL     OW 7234   1.799   2.920   8.315
 2116SOL    HW1 7235   1.743   2.903   8.239
 2116SOL    HW2 7236   1.738   2.926   8.388
 2117SOL     OW 7237   1.228   3.401   8.960
 2117SOL    HW1 7238   1.214   3.328   9.021
 2117SOL    HW2 7239   1.166   3.386   8.890
 2118SOL     OW 7240   0.317   2.816   7.699
 2118SOL    HW1 7241   0.401   2.838   7.659
 2118SOL    HW2 7242   0.300   2.727   7.670
 2119SOL     OW 7243   1.477   2.602   8.176
 2119SOL    HW1 7244   1.465   2.558   8.260
 2119SOL    HW2 7245   1.554   2.658   8.188
 2120SOL     OW 7246   0.466   3.123   9.183
 2120SOL    HW1 7247   0.439   3.130   9.092
 2120SOL    HW2 7248   0.385   3.129   9.233
 2121SOL     OW 7249   1.121   3.640   7.679
 2121SOL    HW1 7250   1.049   3.597   7.726
 2121SOL    HW2 7251   1.143   3.579   7.609
 2122SOL     OW 7252   0.195   2.139   8.935
 2122SOL    HW1 7253   0.134   2.213   8.940
 2122SOL    HW2 7254   0.185   2.093   9.018
 2123SOL     OW 7255   1.629   3.242   7.535
 2123SOL    HW1 7256   1.588   3.327   7.520
 2123SOL    HW2 7257   1.560   3.178   7.517
 2124SOL     OW 7258   0.469   3.606   7.762
 2124SOL    HW1 7259   0.510   3.658   7.831
 2124SOL    HW2 7260   0.543   3.573   7.711
 2125SOL     OW 7261   1.400   1.969   7.879
 2125SOL    HW1 7262   1.388   1.944   7.787
 2125SOL    HW2 7263   1.494   1.980   7.888
 2126SOL     OW 7264   0.261   3.656   8.681
 2126SOL    HW1 7265   0.306   3.582   8.720
 2126SOL    HW2 7266   0.227   3.622   8.598
 2127SOL     OW 7267   0.938   3.561   8.347
 2127SOL    HW1 7268   1.015   3.507   8.369
 2127SOL    HW2 7269   0.893   3.511   8.279
 2128SOL     OW 7270   0.393   2.557   7.922
 2128SOL    HW1 7271   0.417   2.465   7.932
 2128SOL    HW2 7272   0.301   2.561   7.948
 2129SOL     OW 7273   1.537   2.088   9.174
 2129SOL    HW1 7274   1.546   2.109   9.267
 2129SOL    HW2 7275   1.469   2.020   9.171
 2130SOL     OW 7276   0.632   1.988   7.552
 2130SOL    HW1 7277   0.703   1.926   7.567
 2130SOL    HW2 7278   0.585   1.953   7.476
 2131SOL     OW 7279   0.768   2.138   9.201
 2131SOL    HW1 7280   0.842   2.078   9.205
 2131SOL    HW2 7281   0.718   2.120   9.281
 2132SOL     OW 7282   0.877   3.384   8.641
 2132SOL    HW1 7283   0.861   3.347   8.554
 2132SOL    HW2 7284   0.946   3.329   8.678
 2133SOL     OW 7285   1.341   2.451   8.880
 2133SOL    HW1 7286   1.372   2.418   8.964
 2133SOL    HW2 7287   1.377   2.539   8.873
 2134SOL     OW 7288   0.814   3.259   8.385
 2134SOL    HW1 7289   0.898   3.248   8.340
 2134SOL    HW2 7290   0.749   3.258   8.315
 2135SOL     OW 7291   0.927   2.371   8.352
 2135SOL    HW1 7292   0.904   2.363   8.259
 2135SOL    HW2 7293   0.960   2.285   8.376
 2136SOL     OW 7294   0.551   1.924   7.951
 2136SOL    HW1 7295   0.470   1.923   8.002
 2136SOL    HW2 7296   0.544   2.002   7.897
 2137SOL     OW 7297   1.429   3.060   7.490
 2137SOL    HW1 7298   1.459   2.984   7.539
 2137SOL    HW2 7299   1.343   3.080   7.526
 2138SOL     OW 7300   0.295   1.908   7.626
 2138SOL    HW1 7301   0.357   1.975   7.599
 2138SOL    HW2 7302   0.349   1.842   7.670
 2139SOL     OW 7303   0.937   2.107   7.910
 2139SOL    HW1 7304   0.909   2.149   7.829
 2139SOL    HW2 7305   1.032   2.120   7.913
 2140SOL     OW 7306   1.080   2.542   8.908
 2140SOL    HW1 7307   1.010   2.476   8.913
 2140SOL    HW2 7308   1.160   2.491   8.901
 2141SOL     OW 7309   1.225   3.431   8.241
 2141SOL    HW1 7310   1.242   3.499   8.176
 2141SOL    HW2 7311   1.292   3.445   8.308
 2142SOL     OW 7312   0.466   3.010   8.185
 2142SOL    HW1 7313   0.394   2.992   8.246
 2142SOL    HW2 7314   0.428   2.994   8.098
 2143SOL     OW 7315   1.271   3.656   8.055
 2143SOL    HW1 7316   1.315   3.718   7.996
 2143SOL    HW2 7317   1.205   3.710   8.100
 2144SOL     OW 7318   1.024   2.406   7.469
 2144SOL    HW1 7319   0.982   2.489   7.448
 2144SOL    HW2 7320   1.089   2.428   7.535
 2145SOL     OW 7321   0.082   2.393   8.856
 2145SOL    HW1 7322   0.149   2.393   8.788
 2145SOL    HW2 7323   0.068   2.486   8.876
 2146SOL     OW 7324   0.561   2.089   8.613
 2146SOL    HW1 7325   0.602   2.010   8.646
 2146SOL    HW2 7326   0.470   2.082   8.640
 2147SOL     OW 7327   0.869   2.322   8.088
 2147SOL    HW1 7328   0.822   2.375   8.024
 2147SOL    HW2 7329   0.889   2.240   8.041
 2148SOL     OW 7330   1.015   1.915   8.201
 2148SOL    HW1 7331   0.956   1.907   8.125
 2148SOL    HW2 7332   0.994   1.839   8.255
 2149SOL     OW 7333   1.436   3.025   8.305
 2149SOL    HW1 7334   1.368   2.958   8.305
 2149SOL    HW2 7335   1.459   3.038   8.213
 2150SOL     OW 7336   1.466   2.466   8.428
 2150SOL    HW1 7337   1.418   2.383   8.431
 2150SOL    HW2 7338   1.526   2.461   8.503
 2151SOL     OW 7339   1.849   2.679   7.831
 2151SOL    HW1 7340   1.904   2.625   7.888
 2151SOL    HW2 7341   1.818   2.619   7.764
 2152SOL     OW 7342   0.492   3.277   7.609
 2152SOL    HW1 7343   0.415   3.248   7.658
 2152SOL    HW2 7344   0.472   3.254   7.518
 2153SOL     OW 7345   1.669   3.127   8.095
 2153SOL    HW1 7346   1.764   3.132   8.108
 2153SOL    HW2 7347   1.637   3.215   8.117
 2154SOL     OW 7348   1.393   2.434   7.519
 2154SOL    HW1 7349   1.335   2.414   7.592
 2154SOL    HW2 7350   1.480   2.406   7.549
 2155SOL     OW 7351   0.525   2.122   7.767
 2155SOL    HW1 7352   0.569   2.075   7.697
 2155SOL    HW2 7353   0.507   2.209   7.730
 2156SOL     OW 7354   1.753   3.099   9.023
 2156SOL    HW1 7355   1.841   3.061   9.018
 2156SOL    HW2 7356   1.768   3.189   9.053
 2157SOL     OW 7357   1.060   3.216   8.783
 2157SOL    HW1 7358   0.985   3.185   8.834
 2157SOL    HW2 7359   1.136   3.174   8.824
 2158SOL     OW 7360   1.607   3.487   9.100
 2158SOL    HW1 7361   1.603   3.521   9.011
 2158SOL    HW2 7362   1.690   3.440   9.105
 2159SOL     OW 7363   1.127   3.065   8.555
 2159SOL    HW1 7364   1.068   3.102   8.620
 2159SOL    HW2 7365   1.093   3.095   8.471
 2160SOL     OW 7366   1.630   2.961   8.526
 2160SOL    HW1 7367   1.626   3.023   8.599
 2160SOL    HW2 7368   1.550   2.977   8.476
 2161SOL     OW 7369   0.917   1.961   8.846
 2161SOL    HW1 7370   0.940   1.940   8.755
 2161SOL    HW2 7371   0.997   1.999   8.883
 2162SOL     OW 7372   0.984   2.976   9.170
 2162SOL    HW1 7373   0.892   2.992   9.191
 2162SOL    HW2 7374   0.984   2.899   9.114
 2163SOL     OW 7375   0.708   2.923   7.820
 2163SOL    HW1 7376   0.695   2.908   7.914
 2163SOL    HW2 7377   0.784   2.869   7.798
 2164SOL     OW 7378   0.430   2.686   8.688
 2164SOL    HW1 7379   0.499   2.697   8.753
 2164SOL    HW2 7380   0.371   2.621   8.727
 2165SOL     OW 7381   1.267   2.240   8.721
 2165SOL    HW1 7382   1.299   2.317   8.768
 2165SOL    HW2 7383   1.177   2.262   8.697
 2166SOL     OW 7384   0.061   3.438   8.787
 2166SOL    HW1 7385   0.033   3.527   8.767
 2166SOL    HW2 7386   0.157   3.444   8.795
 2167SOL     OW 7387   0.350   2.969   7.941
 2167SOL    HW1 7388   0.358   3.042   7.880
 2167SOL    HW2 7389   0.351   2.891   7.886
 2168SOL     OW 7390   0.562   2.396   8.304
 2168SOL    HW1 7391   0.575   2.456   8.231
 2168SOL    HW2 7392   0.621   2.428   8.372
 2169SOL     OW 7393   1.248   3.210   7.837
 2169SOL    HW1 7394   1.303   3.282   7.868
 2169SOL    HW2 7395   1.161   3.231   7.871
 2170SOL     OW 7396   1.278   3.318   8.594
 2170SOL    HW1 7397   1.333   3.320   8.672
 2170SOL    HW2 7398   1.223   3.241   8.605
 2171SOL     OW 7399   1.582   2.484   7.925
 2171SOL    HW1 7400   1.537   2.542   7.987
 2171SOL    HW2 7401   1.628   2.544   7.866
 2172SOL     OW 7402   0.347   3.392   8.764
 2172SOL    HW1 7403   0.333   3.345   8.682
 2172SOL    HW2 7404   0.442   3.402   8.770
 2173SOL     OW 7405   0.476   2.621   9.111
 2173SOL    HW1 7406   0.505   2.660   9.028
 2173SOL    HW2 7407   0.512   2.533   9.110
 2174SOL     OW 7408   1.600   2.641   9.129
 2174SOL    HW1 7409   1.513   2.680   9.121
 2174SOL    HW2 7410   1.651   2.682   9.059
 2175SOL     OW 7411   0.996   1.982   9.204
 2175SOL    HW1 7412   1.050   2.055   9.173
 2175SOL    HW2 7413   1.045   1.904   9.178
 2176SOL     OW 7414   0.498   1.905   9.194
 2176SOL    HW1 7415   0.458   1.849   9.129
 2176SOL    HW2 7416   0.437   1.979   9.203
 2177SOL     OW 7417   0.589   2.735   8.472
 2177SOL    HW1 7418   0.617   2.827   8.474
 2177SOL    HW2 7419   0.532   2.726   8.549
 2178SOL     OW 7420   1.360   2.721   8.480
 2178SOL    HW1 7421   1.278   2.714   8.432
 2178SOL    HW2 7422   1.398   2.633   8.476
 2179SOL     OW 7423   1.207   2.391   7.717
 2179SOL    HW1 7424   1.214   2.312   7.771
 2179SOL    HW2 7425   1.164   2.455   7.773
 2180SOL     OW 7426   0.303   2.055   8.690
 2180SOL    HW1 7427   0.263   2.089   8.770
 2180SOL    HW2 7428   0.285   1.961   8.693
 2181SOL     OW 7429   0.044   3.175   8.732
 2181SOL    HW1 7430   0.077   3.128   8.809
 2181SOL    HW2 7431   0.048   3.267   8.757
 2182SOL     OW 7432   0.726   2.494   8.508
 2182SOL    HW1 7433   0.799   2.475   8.449
 2182SOL    HW2 7434   0.699   2.583   8.485
 2183SOL     OW 7435   1.734   2.821   9.299
 2183SOL    HW1 7436   1.687   2.762   9.241
 2183SOL    HW2 7437   1.675   2.834   9.373
 2184SOL     OW 7438   0.309   1.932   8.067
 2184SOL    HW1 7439   0.287   2.021   8.095
 2184SOL    HW2 7440   0.305   1.880   8.147
 2185SOL     OW 7441   1.610   2.231   7.820
 2185SOL    HW1 7442   1.642   2.173   7.889
 2185SOL    HW2 7443   1.590   2.314   7.864
 2186SOL     OW 7444   1.027   2.621   8.410
 2186SOL    HW1 7445   1.026   2.639   8.504
 2186SOL    HW2 7446   1.001   2.530   8.402
 2187SOL     OW 7447   0.983   3.429   9.163
 2187SOL    HW1 7448   0.967   3.473   9.080
 2187SOL    HW2 7449   1.025   3.346   9.139
 2188SOL     OW 7450   1.856   3.370   9.054
 2188SOL    HW1 7451   1.873   3.395   8.963
 2188SOL    HW2 7452   1.937   3.390   9.100
 2189SOL     OW 7453   0.347   2.794   9.266
 2189SOL    HW1 7454   0.421   2.822   9.320
 2189SOL    HW2 7455   0.384   2.727   9.208
 2190SOL     OW 7456   1.531   2.133   7.575
 2190SOL    HW1 7457   1.465   2.070   7.603
 2190SOL    HW2 7458   1.563   2.171   7.657
 2191SOL     OW 7459   1.294   2.689   7.481
 2191SOL    HW1 7460   1.336   2.603   7.483
 2191SOL    HW2 7461   1.324   2.728   7.398
 2192SOL     OW 7462   1.065   3.197   8.301
 2192SOL    HW1 7463   1.068   3.124   8.239
 2192SOL    HW2 7464   1.127   3.261   8.266
 2193SOL     OW 7465   0.317   2.674   8.397
 2193SOL    HW1 7466   0.411   2.691   8.393
 2193SOL    HW2 7467   0.310   2.583   8.426
 2194SOL     OW 7468   0.332   2.386   8.440
 2194SOL    HW1 7469   0.294   2.299   8.424
 2194SOL    HW2 7470   0.410   2.388   8.384
 2195SOL     OW 7471   1.134   2.240   9.128
 2195SOL    HW1 7472   1.088   2.295   9.192
 2195SOL    HW2 7473   1.223   2.277   9.124
 2196SOL     OW 7474   1.160   2.066   8.917
 2196SOL    HW1 7475   1.151   2.129   8.989
 2196SOL    HW2 7476   1.200   2.116   8.846
 2197SOL     OW 7477   4.492   3.185   7.651
 2197SOL    HW1 7478   4.399   3.200   7.633
 2197SOL    HW2 7479   4.497   3.092   7.674
 2198SOL     OW 7480   0.096   3.642   8.388
 2198SOL    HW1 7481   0.058   3.584   8.322
 2198SOL    HW2 7482   0.184   3.661   8.355
 2199SOL     OW 7483   0.498   3.435   8.354
 2199SOL    HW1 7484   0.566   3.498   8.378
 2199SOL    HW2 7485   0.542   3.371   8.299
 2200SOL     OW 7486   0.986   2.656   8.676
 2200SOL    HW1 7487   1.040   2.631   8.751
 2200SOL    HW2 7488   0.900   2.620   8.695
 2201SOL     OW 7489   0.036   2.424   8.554
 2201SOL    HW1 7490   0.119   2.389   8.521
 2201SOL    HW2 7491   0.024   2.383   8.639
 2202SOL     OW 7492   0.179   2.379   9.162
 2202SOL    HW1 7493   0.259   2.350   9.117
 2202SOL    HW2 7494   0.155   2.460   9.118
 2203SOL     OW 7495   1.376   2.802   9.107
 2203SOL    HW1 7496   1.396   2.896   9.106
 2203SOL    HW2 7497   1.374   2.777   9.015
 2204SOL     OW 7498   0.816   2.431   7.805
 2204SOL    HW1 7499   0.819   2.356   7.745
 2204SOL    HW2 7500   0.742   2.483   7.774
 2205SOL     OW 7501   1.643   2.465   8.637
 2205SOL    HW1 7502   1.633   2.404   8.710
 2205SOL    HW2 7503   1.729   2.446   8.600
 2206SOL     OW 7504   0.273   3.423   9.190
 2206SOL    HW1 7505   0.217   3.476   9.247
 2206SOL    HW2 7506   0.252   3.333   9.213
 2207SOL     OW 7507   0.688   2.317   8.712
 2207SOL    HW1 7508   0.645   2.240   8.677
 2207SOL    HW2 7509   0.691   2.378   8.638
 2208SOL     OW 7510   0.930   3.541   8.914
 2208SOL    HW1 7511   0.903   3.508   8.829
 2208SOL    HW2 7512   0.926   3.636   8.906
 2209SOL     OW 7513   0.472   2.352   7.635
 2209SOL    HW1 7514   0.531   2.424   7.657
 2209SOL    HW2 7515   0.388   2.394   7.620
 2210SOL     OW 7516   0.162   3.003   8.910
 2210SOL    HW1 7517   0.147   2.956   8.993
 2210SOL    HW2 7518   0.170   2.934   8.845
 2211SOL     OW 7519   1.328   2.910   8.672
 2211SOL    HW1 7520   1.351   2.847   8.604
 2211SOL    HW2 7521   1.256   2.961   8.634
 2212SOL     OW 7522   1.310   2.719   7.755
 2212SOL    HW1 7523   1.233   2.688   7.804
 2212SOL    HW2 7524   1.286   2.705   7.663
 2213SOL     OW 7525   1.769   3.608   8.597
 2213SOL    HW1 7526   1.830   3.634   8.527
 2213SOL    HW2 7527   1.746   3.517   8.576
 2214SOL     OW 7528   1.242   3.595   8.564
 2214SOL    HW1 7529   1.323   3.614   8.517
 2214SOL    HW2 7530   1.245   3.501   8.581
 2215SOL     OW 7531   0.067   3.049   8.496
 2215SOL    HW1 7532   0.070   3.082   8.586
 2215SOL    HW2 7533   0.016   3.114   8.448
 2216SOL     OW 7534   0.679   3.527   9.175
 2216SOL    HW1 7535   0.624   3.605   9.170
 2216SOL    HW2 7536   0.741   3.537   9.103
 2217SOL     OW 7537   1.720   2.000   7.968
 2217SOL    HW1 7538   1.778   1.962   7.901
 2217SOL    HW2 7539   1.689   1.925   8.018
 2218SOL     OW 7540   1.390   3.430   7.932
 2218SOL    HW1 7541   1.451   3.461   7.864
 2218SOL    HW2 7542   1.342   3.508   7.959
 2219SOL     OW 7543   0.120   3.669   9.295
 2219SOL    HW1 7544   0.080   3.596   9.342
 2219SOL    HW2 7545   0.183   3.706   9.357
 2220SOL     OW 7546   1.277   2.787   8.119
 2220SOL    HW1 7547   1.350   2.725   8.124
 2220SOL    HW2 7548   1.311   2.860   8.067
 2221SOL     OW 7549   0.817   3.135   8.879
 2221SOL    HW1 7550   0.790   3.173   8.962
 2221SOL    HW2 7551   0.745   3.156   8.818
 2222SOL     OW 7552   0.673   3.480   7.603
 2222SOL    HW1 7553   0.682   3.491   7.508
 2222SOL    HW2 7554   0.619   3.401   7.613
 2223SOL     OW 7555   1.630   3.588   8.840
 2223SOL    HW1 7556   1.678   3.596   8.757
 2223SOL    HW2 7557   1.617   3.679   8.868
 2224SOL     OW 7558   1.799   2.006   8.433
 2224SOL    HW1 7559   1.849   1.937   8.390
 2224SOL    HW2 7560   1.725   2.023   8.374
 2225SOL     OW 7561   0.266   2.182   8.167
 2225SOL    HW1 7562   0.183   2.221   8.139
 2225SOL    HW2 7563   0.255   2.169   8.262
 2226SOL     OW 7564   1.206   3.469   7.479
 2226SOL    HW1 7565   1.198   3.378   7.507
 2226SOL    HW2 7566   1.141   3.480   7.410
 2227SOL     OW 7567   0.825   2.869   8.820
 2227SOL    HW1 7568   0.868   2.866   8.734
 2227SOL    HW2 7569   0.825   2.961   8.843
 2228SOL     OW 7570   0.916   2.773   7.738
 2228SOL    HW1 7571   0.977   2.804   7.671
 2228SOL    HW2 7572   0.962   2.702   7.782
 2229SOL     OW 7573   1.493   3.487   7.490
 2229SOL    HW1 7574   1.399   3.481   7.478
 2229SOL    HW2 7575   1.529   3.493   7.402
 2230SOL     OW 7576   0.373   3.168   8.939
 2230SOL    HW1 7577   0.356   3.247   8.887
 2230SOL    HW2 7578   0.298   3.111   8.923
 2231SOL     OW 7579   1.612   3.145   8.729
 2231SOL    HW1 7580   1.670   3.136   8.804
 2231SOL    HW2 7581   1.551   3.214   8.754
 2232SOL     OW 7582   1.050   2.968   8.153
 2232SOL    HW1 7583   0.979   2.917   8.193
 2232SOL    HW2 7584   1.111   2.902   8.120
 2233SOL     OW 7585   1.020   2.102   8.414
 2233SOL    HW1 7586   1.015   2.054   8.331
 2233SOL    HW2 7587   1.015   2.034   8.481
 2234SOL     OW 7588   0.604   3.352   7.931
 2234SOL    HW1 7589   0.643   3.301   7.860
 2234SOL    HW2 7590   0.531   3.398   7.890
 2235SOL     OW 7591   1.718   2.259   8.828
 2235SOL    HW1 7592   1.797   2.313   8.826
 2235SOL    HW2 7593   1.742   2.181   8.776
 2236SOL     OW 7594   0.252   3.207   7.725
 2236SOL    HW1 7595   0.157   3.207   7.711
 2236SOL    HW2 7596   0.262   3.239   7.815
 2237SOL     OW 7597   0.117   2.869   9.143
 2237SOL    HW1 7598   0.052   2.909   9.201
 2237SOL    HW2 7599   0.195   2.858   9.198
 2238SOL     OW 7600   0.673   2.061   8.946
 2238SOL    HW1 7601   0.757   2.040   8.905
 2238SOL    HW2 7602   0.697   2.088   9.035
 2239SOL     OW 7603   0.072   2.188   7.481
 2239SOL    HW1 7604   4.477   2.198   7.482
 2239SOL    HW2 7605   0.104   2.269   7.443
 2240SOL     OW 7606   1.432   2.721   8.850
 2240SOL    HW1 7607   1.383   2.781   8.793
 2240SOL    HW2 7608   1.521   2.723   8.815
 2241SOL     OW 7609   0.085   2.039   7.754
 2241SOL    HW1 7610   0.079   2.111   7.691
 2241SOL    HW2 7611   0.161   1.988   7.725
 2242SOL     OW 7612   1.179   3.203   7.565
 2242SOL    HW1 7613   1.089   3.173   7.567
 2242SOL    HW2 7614   1.208   3.202   7.656
 2243SOL     OW 7615   0.622   2.693   8.877
 2243SOL    HW1 7616   0.677   2.770   8.864
 2243SOL    HW2 7617   0.683   2.620   8.886
 2244SOL     OW 7618   1.485   3.637   8.424
 2244SOL    HW1 7619   1.509   3.695   8.353
 2244SOL    HW2 7620   1.566   3.621   8.471
 2245SOL     OW 7621   0.716   2.424   9.152
 2245SOL    HW1 7622   0.752   2.489   9.213
 2245SOL    HW2 7623   0.750   2.341   9.183
 2246SOL     OW 7624   1.470   3.064   9.081
 2246SOL    HW1 7625   1.457   3.077   9.175
 2246SOL    HW2 7626   1.563   3.077   9.067
 2247SOL     OW 7627   0.382   3.605   9.012
 2247SOL    HW1 7628   0.296   3.645   8.996
 2247SOL    HW2 7629   0.362   3.524   9.059
 2248SOL     OW 7630   1.672   2.744   8.703
 2248SOL    HW1 7631   1.662   2.658   8.661
 2248SOL    HW2 7632   1.661   2.807   8.632
 2249SOL     OW 7633   1.218   2.182   7.906
 2249SOL    HW1 7634   1.281   2.110   7.897
 2249SOL    HW2 7635   1.246   2.230   7.983
 2250SOL     OW 7636   0.591   2.601   8.116
 2250SOL    HW1 7637   0.629   2.687   8.100
 2250SOL    HW2 7638   0.521   2.593   8.051
 2251SOL     OW 7639   1.758   2.238   9.100
 2251SOL    HW1 7640   1.744   2.242   9.005
 2251SOL    HW2 7641   1.693   2.174   9.130
 2252SOL     OW 7642   1.748   2.794   8.960
 2252SOL    HW1 7643   1.744   2.889   8.974
 2252SOL    HW2 7644   1.730   2.783   8.866
 2253SOL     OW 7645   0.863   3.230   7.480
 2253SOL    HW1 7646   0.823   3.256   7.563
 2253SOL    HW2 7647   0.881   3.313   7.435
 2254SOL     OW 7648   0.660   3.655   8.396
 2254SOL    HW1 7649   0.638   3.745   8.370
 2254SOL    HW2 7650   0.755   3.650   8.386
 2255SOL     OW 7651   0.867   2.828   8.303
 2255SOL    HW1 7652   0.917   2.757   8.344
 2255SOL    HW2 7653   0.833   2.878   8.377
 2256SOL     OW 7654   1.080   2.851   7.537
 2256SOL    HW1 7655   1.058   2.900   7.458
 2256SOL    HW2 7656   1.155   2.797   7.511
 2257SOL     OW 7657   1.855   3.417   8.293
 2257SOL    HW1 7658   1.778   3.407   8.238
 2257SOL    HW2 7659   1.846   3.351   8.361
 2258SOL     OW 7660   0.229   3.168   9.305
 2258SOL    HW1 7661   0.158   3.108   9.281
 2258SOL    HW2 7662   0.221   3.178   9.400
 2259SOL     OW 7663   0.104   3.100   8.115
 2259SOL    HW1 7664   0.111   3.050   8.197
 2259SOL    HW2 7665   0.163   3.056   8.055
 2260SOL     OW 7666   0.681   3.263   9.075
 2260SOL    HW1 7667   0.601   3.219   9.103
 2260SOL    HW2 7668   0.675   3.351   9.112
 2261SOL     OW 7669   1.778   2.035   8.696
 2261SOL    HW1 7670   1.814   1.950   8.720
 2261SOL    HW2 7671   1.783   2.036   8.600
 2262SOL     OW 7672   0.435   2.295   7.973
 2262SOL    HW1 7673   0.459   2.222   7.917
 2262SOL    HW2 7674   0.384   2.256   8.044
 2263SOL     OW 7675   1.701   3.352   8.546
 2263SOL    HW1 7676   1.620   3.328   8.502
 2263SOL    HW2 7677   1.714   3.284   8.612
 2264SOL     OW 7678   0.304   2.351   8.703
 2264SOL    HW1 7679   0.377   2.310   8.748
 2264SOL    HW2 7680   0.335   2.365   8.614
 2265SOL     OW 7681   0.826   3.440   8.127
 2265SOL    HW1 7682   0.817   3.488   8.045
 2265SOL    HW2 7683   0.748   3.384   8.131
 2266SOL     OW 7684   1.434   2.087   8.564
 2266SOL    HW1 7685   1.467   2.011   8.612
 2266SOL    HW2 7686   1.381   2.134   8.629
 2267SOL     OW 7687   1.008   1.882   8.592
 2267SOL    HW1 7688   0.954   1.813   8.553
 2267SOL    HW2 7689   1.096   1.844   8.594
 2268SOL     OW 7690   0.772   3.194   7.759
 2268SOL    HW1 7691   0.739   3.105   7.766
 2268SOL    HW2 7692   0.854   3.193   7.809
 2269SOL     OW 7693   0.621   3.419   8.733
 2269SOL    HW1 7694   0.623   3.501   8.783
 2269SOL    HW2 7695   0.708   3.412   8.694
 2270SOL     OW 7696   1.351   1.915   7.613
 2270SOL    HW1 7697   1.377   1.856   7.542
 2270SOL    HW2 7698   1.265   1.884   7.640
 2271SOL     OW 7699   1.297   2.322   8.130
 2271SOL    HW1 7700   1.243   2.401   8.138
 2271SOL    HW2 7701   1.294   2.282   8.217
 2272SOL     OW 7702   1.569   2.064   8.311
 2272SOL    HW1 7703   1.517   2.084   8.389
 2272SOL    HW2 7704   1.575   2.147   8.265
 2273SOL     OW 7705   0.041   2.915   7.735
 2273SOL    HW1 7706   0.136   2.901   7.727
 2273SOL    HW2 7707   0.019   2.878   7.821
 2274SOL     OW 7708   0.883   3.513   7.792
 2274SOL    HW1 7709   0.811   3.495   7.731
 2274SOL    HW2 7710   0.853   3.588   7.842
 2275SOL     OW 7711   0.248   2.490   9.429
 2275SOL    HW1 7712   0.173   2.473   9.486
 2275SOL    HW2 7713   0.216   2.470   9.341
 2276SOL     OW 7714   0.214   2.137  10.301
 2276SOL    HW1 7715   0.250   2.111  10.386
 2276SOL    HW2 7716   0.137   2.082  10.290
 2277SOL     OW 7717   0.009   2.251   9.949
 2277SOL    HW1 7718   4.429   2.281   9.991
 2277SOL    HW2 7719   4.483   2.171   9.904
 2278SOL     OW 7720   0.567   3.146  10.484
 2278SOL    HW1 7721   0.480   3.150  10.445
 2278SOL    HW2 7722   0.582   3.234  10.519
 2279SOL     OW 7723   1.559   3.373  10.016
 2279SOL    HW1 7724   1.515   3.355  10.099
 2279SOL    HW2 7725   1.488   3.378   9.952
 2280SOL     OW 7726   1.130   2.561  10.013
 2280SOL    HW1 7727   1.179   2.641   9.998
 2280SOL    HW2 7728   1.083   2.575  10.095
 2281SOL     OW 7729   1.777   2.462   9.538
 2281SOL    HW1 7730   1.748   2.458   9.446
 2281SOL    HW2 7731   1.727   2.393   9.582
 2282SOL     OW 7732   0.759   3.006  10.350
 2282SOL    HW1 7733   0.688   3.040  10.405
 2282SOL    HW2 7734   0.792   3.083  10.304
 2283SOL     OW 7735   0.850   2.644   0.020
 2283SOL    HW1 7736   0.860   2.700   0.097
 2283SOL    HW2 7737   0.884   2.696  11.048
 2284SOL     OW 7738   0.686   2.868   9.958
 2284SOL    HW1 7739   0.750   2.854  10.028
 2284SOL    HW2 7740   0.616   2.918  10.000
 2285SOL     OW 7741   0.337   3.284  10.379
 2285SOL    HW1 7742   0.255   3.265  10.333
 2285SOL    HW2 7743   0.386   3.339  10.318
 2286SOL     OW 7744   1.464   3.362  10.658
 2286SOL    HW1 7745   1.516   3.441  10.668
 2286SOL    HW2 7746   1.413   3.356  10.739
 2287SOL     OW 7747   0.448   2.264  10.791
 2287SOL    HW1 7748   0.525   2.209  10.801
 2287SOL    HW2 7749   0.374   2.207  10.813
 2288SOL     OW 7750   1.599   2.314  10.056
 2288SOL    HW1 7751   1.522   2.337  10.005
 2288SOL    HW2 7752   1.619   2.393  10.106
 2289SOL     OW 7753   0.246   3.553   9.789
 2289SOL    HW1 7754   0.232   3.638   9.831
 2289SOL    HW2 7755   0.310   3.571   9.720
 2290SOL     OW 7756   0.247   3.289   9.838
 2290SOL    HW1 7757   0.238   3.384   9.842
 2290SOL    HW2 7758   0.182   3.257   9.901
 2291SOL     OW 7759   0.247   2.944  10.194
 2291SOL    HW1 7760   0.263   2.855  10.225
 2291SOL    HW2 7761   0.188   2.982  10.259
 2292SOL     OW 7762   0.614   3.652  10.740
 2292SOL    HW1 7763   0.533   3.632  10.787
 2292SOL    HW2 7764   0.635   3.742  10.764
 2293SOL     OW 7765   0.582   2.846   9.446
 2293SOL    HW1 7766   0.628   2.892   9.376
 2293SOL    HW2 7767   0.627   2.874   9.526
 2294SOL     OW 7768   1.584   1.977  10.782
 2294SOL    HW1 7769   1.600   2.050  10.723
 2294SOL    HW2 7770   1.604   2.011  10.869
 2295SOL     OW 7771   0.136   2.506   9.884
 2295SOL    HW1 7772   0.087   2.426   9.899
 2295SOL    HW2 7773   0.106   2.566   9.952
 2296SOL     OW 7774   1.842   3.622   9.646
 2296SOL    HW1 7775   1.902   3.593   9.714
 2296SOL    HW2 7776   1.868   3.713   9.627
 2297SOL     OW 7777   0.033   3.463   9.447
 2297SOL    HW1 7778   0.021   3.368   9.448
 2297SOL    HW2 7779   0.014   3.490   9.537
 2298SOL     OW 7780   1.690   2.781   9.949
 2298SOL    HW1 7781   1.773   2.739   9.929
 2298SOL    HW2 7782   1.669   2.831   9.870
 2299SOL     OW 7783   1.645   2.969   9.740
 2299SOL    HW1 7784   1.730   2.977   9.697
 2299SOL    HW2 7785   1.650   3.030   9.814
 2300SOL     OW 7786   0.101   2.620  10.911
 2300SOL    HW1 7787   0.193   2.606  10.889
 2300SOL    HW2 7788   0.089   2.714  10.902
 2301SOL     OW 7789   0.613   3.245  10.046
 2301SOL    HW1 7790   0.566   3.162  10.055
 2301SOL    HW2 7791   0.597   3.272   9.956
 2302SOL     OW 7792   1.296   3.099  10.751
 2302SOL    HW1 7793   1.321   3.039  10.681
 2302SOL    HW2 7794   1.351   3.075  10.825
 2303SOL     OW 7795   0.814   1.861   9.816
 2303SOL    HW1 7796   0.854   1.946   9.800
 2303SOL    HW2 7797   0.721   1.880   9.827
 2304SOL     OW 7798   0.181   2.804  10.590
 2304SOL    HW1 7799   0.272   2.786  10.568
 2304SOL    HW2 7800   0.133   2.783  10.509
 2305SOL     OW 7801   1.532   2.854   9.507
 2305SOL    HW1 7802   1.462   2.796   9.537
 2305SOL    HW2 7803   1.571   2.888   9.588
 2306SOL     OW 7804   1.196   3.668  10.927
 2306SOL    HW1 7805   1.196   3.730  10.854
 2306SOL    HW2 7806   1.204   3.582  10.885
 2307SOL     OW 7807   0.339   2.125   0.004
 2307SOL    HW1 7808   0.387   2.199   0.043
 2307SOL    HW2 7809   0.247   2.145   0.021
 2308SOL     OW 7810   1.467   3.281  10.262
 2308SOL    HW1 7811   1.397   3.297  10.327
 2308SOL    HW2 7812   1.454   3.190  10.235
 2309SOL     OW 7813   1.661   3.597   9.888
 2309SOL    HW1 7814   1.638   3.569   9.799
 2309SOL    HW2 7815   1.635   3.524   9.944
 2310SOL     OW 7816   0.598   2.584   9.575
 2310SOL    HW1 7817   0.601   2.664   9.523
 2310SOL    HW2 7818   0.532   2.601   9.642
 2311SOL     OW 7819   1.279   2.213  10.243
 2311SOL    HW1 7820   1.190   2.178  10.250
 2311SOL    HW2 7821   1.330   2.160  10.303
 2312SOL     OW 7822   1.581   3.531   9.619
 2312SOL    HW1 7823   1.671   3.565   9.612
 2312SOL    HW2 7824   1.555   3.514   9.528
 2313SOL     OW 7825   0.795   2.477  10.763
 2313SOL    HW1 7826   0.767   2.454  10.851
 2313SOL    HW2 7827   0.752   2.413  10.707
 2314SOL     OW 7828   0.966   2.760  10.900
 2314SOL    HW1 7829   1.014   2.687  10.861
 2314SOL    HW2 7830   0.916   2.797  10.827
 2315SOL     OW 7831   0.992   2.276  10.550
 2315SOL    HW1 7832   0.908   2.298  10.588
 2315SOL    HW2 7833   0.970   2.228  10.470
 2316SOL     OW 7834   1.050   2.560   9.737
 2316SOL    HW1 7835   1.065   2.553   9.831
 2316SOL    HW2 7836   0.968   2.513   9.721
 2317SOL     OW 7837   0.097   2.688  10.093
 2317SOL    HW1 7838   0.184   2.668  10.130
 2317SOL    HW2 7839   0.049   2.726  10.167
 2318SOL     OW 7840   0.120   3.711  10.899
 2318SOL    HW1 7841   0.115   3.652  10.974
 2318SOL    HW2 7842   0.051   3.681  10.839
 2319SOL     OW 7843   0.889   2.209   9.504
 2319SOL    HW1 7844   0.931   2.270   9.444
 2319SOL    HW2 7845   0.906   2.123   9.467
 2320SOL     OW 7846   1.376   3.004   9.852
 2320SOL    HW1 7847   1.454   2.990   9.799
 2320SOL    HW2 7848   1.323   3.066   9.802
 2321SOL     OW 7849   0.551   2.045  10.203
 2321SOL    HW1 7850   0.553   2.074  10.294
 2321SOL    HW2 7851   0.552   2.126  10.152
 2322SOL     OW 7852   1.008   3.307   9.783
 2322SOL    HW1 7853   0.968   3.379   9.734
 2322SOL    HW2 7854   0.991   3.329   9.875
 2323SOL     OW 7855   0.355   3.670  10.167
 2323SOL    HW1 7856   0.397   3.586  10.177
 2323SOL    HW2 7857   0.424   3.734  10.181
 2324SOL     OW 7858   1.799   2.920  10.177
 2324SOL    HW1 7859   1.742   2.903  10.101
 2324SOL    HW2 7860   1.738   2.926  10.251
 2325SOL     OW 7861   1.227   3.401  10.824
 2325SOL    HW1 7862   1.235   3.314  10.863
 2325SOL    HW2 7863   1.167   3.390  10.751
 2326SOL     OW 7864   0.317   2.816   9.561
 2326SOL    HW1 7865   0.401   2.838   9.521
 2326SOL    HW2 7866   0.299   2.727   9.532
 2327SOL     OW 7867   1.478   2.601  10.037
 2327SOL    HW1 7868   1.465   2.559  10.122
 2327SOL    HW2 7869   1.554   2.658  10.049
 2328SOL     OW 7870   0.455   3.130  11.052
 2328SOL    HW1 7871   0.426   3.140  10.961
 2328SOL    HW2 7872   0.387   3.077  11.093
 2329SOL     OW 7873   1.121   3.640   9.541
 2329SOL    HW1 7874   1.049   3.597   9.588
 2329SOL    HW2 7875   1.143   3.579   9.471
 2330SOL     OW 7876   0.193   2.139  10.797
 2330SOL    HW1 7877   0.137   2.216  10.804
 2330SOL    HW2 7878   0.190   2.098  10.883
 2331SOL     OW 7879   1.629   3.241   9.397
 2331SOL    HW1 7880   1.588   3.327   9.382
 2331SOL    HW2 7881   1.560   3.178   9.378
 2332SOL     OW 7882   0.469   3.606   9.624
 2332SOL    HW1 7883   0.509   3.659   9.693
 2332SOL    HW2 7884   0.543   3.573   9.573
 2333SOL     OW 7885   1.400   1.971   9.741
 2333SOL    HW1 7886   1.389   1.944   9.649
 2333SOL    HW2 7887   1.495   1.973   9.754
 2334SOL     OW 7888   0.256   3.655  10.545
 2334SOL    HW1 7889   0.305   3.583  10.585
 2334SOL    HW2 7890   0.229   3.620  10.460
 2335SOL     OW 7891   0.938   3.560  10.210
 2335SOL    HW1 7892   1.016   3.507  10.230
 2335SOL    HW2 7893   0.893   3.511  10.141
 2336SOL     OW 7894   0.393   2.557   9.784
 2336SOL    HW1 7895   0.417   2.465   9.794
 2336SOL    HW2 7896   0.301   2.561   9.810
 2337SOL     OW 7897   0.632   1.988   9.414
 2337SOL    HW1 7898   0.703   1.926   9.429
 2337SOL    HW2 7899   0.585   1.954   9.338
 2338SOL     OW 7900   0.770   2.134  11.046
 2338SOL    HW1 7901   0.835   2.077  11.087
 2338SOL    HW2 7902   0.709   2.156   0.016
 2339SOL     OW 7903   0.876   3.383  10.503
 2339SOL    HW1 7904   0.861   3.348  10.415
 2339SOL    HW2 7905   0.948   3.330  10.538
 2340SOL     OW 7906   1.343   2.451  10.752
 2340SOL    HW1 7907   1.393   2.429  10.831
 2340SOL    HW2 7908   1.371   2.540  10.730
 2341SOL     OW 7909   0.814   3.259  10.247
 2341SOL    HW1 7910   0.898   3.248  10.202
 2341SOL    HW2 7911   0.749   3.258  10.177
 2342SOL     OW 7912   0.927   2.371  10.214
 2342SOL    HW1 7913   0.904   2.363  10.121
 2342SOL    HW2 7914   0.959   2.284  10.238
 2343SOL     OW 7915   0.551   1.924   9.813
 2343SOL    HW1 7916   0.470   1.923   9.864
 2343SOL    HW2 7917   0.544   2.002   9.759
 2344SOL     OW 7918   1.429   3.060   9.351
 2344SOL    HW1 7919   1.459   2.984   9.401
 2344SOL    HW2 7920   1.342   3.080   9.388
 2345SOL     OW 7921   0.295   1.908   9.488
 2345SOL    HW1 7922   0.357   1.975   9.461
 2345SOL    HW2 7923   0.348   1.842   9.532
 2346SOL     OW 7924   0.937   2.107   9.773
 2346SOL    HW1 7925   0.909   2.149   9.691
 2346SOL    HW2 7926   1.032   2.120   9.775
 2347SOL     OW 7927   1.079   2.546  10.771
 2347SOL    HW1 7928   1.008   2.482  10.776
 2347SOL    HW2 7929   1.158   2.493  10.767
 2348SOL     OW 7930   1.224   3.431  10.104
 2348SOL    HW1 7931   1.241   3.499  10.038
 2348SOL    HW2 7932   1.292   3.445  10.170
 2349SOL     OW 7933   0.466   3.010  10.047
 2349SOL    HW1 7934   0.394   2.991  10.108
 2349SOL    HW2 7935   0.428   2.994   9.960
 2350SOL     OW 7936   1.270   3.656   9.917
 2350SOL    HW1 7937   1.315   3.718   9.858
 2350SOL    HW2 7938   1.205   3.710   9.962
 2351SOL     OW 7939   1.024   2.406   9.330
 2351SOL    HW1 7940   0.982   2.489   9.310
 2351SOL    HW2 7941   1.089   2.428   9.398
 2352SOL     OW 7942   0.075   2.393  10.715
 2352SOL    HW1 7943   0.148   2.394  10.653
 2352SOL    HW2 7944   0.069   2.483  10.747
 2353SOL     OW 7945   0.561   2.089  10.475
 2353SOL    HW1 7946   0.601   2.010  10.509
 2353SOL    HW2 7947   0.469   2.084  10.502
 2354SOL     OW 7948   0.870   2.322   9.950
 2354SOL    HW1 7949   0.822   2.375   9.887
 2354SOL    HW2 7950   0.889   2.241   9.903
 2355SOL     OW 7951   1.014   1.915  10.063
 2355SOL    HW1 7952   0.956   1.907   9.987
 2355SOL    HW2 7953   0.994   1.839  10.117
 2356SOL     OW 7954   1.436   3.025  10.167
 2356SOL    HW1 7955   1.368   2.958  10.166
 2356SOL    HW2 7956   1.459   3.038  10.075
 2357SOL     OW 7957   1.465   2.467  10.290
 2357SOL    HW1 7958   1.418   2.384  10.292
 2357SOL    HW2 7959   1.526   2.462  10.364
 2358SOL     OW 7960   1.847   2.678   9.692
 2358SOL    HW1 7961   1.902   2.626   9.751
 2358SOL    HW2 7962   1.822   2.616   9.623
 2359SOL     OW 7963   0.492   3.277   9.471
 2359SOL    HW1 7964   0.416   3.248   9.520
 2359SOL    HW2 7965   0.472   3.254   9.380
 2360SOL     OW 7966   1.669   3.127   9.957
 2360SOL    HW1 7967   1.763   3.132   9.970
 2360SOL    HW2 7968   1.637   3.215   9.978
 2361SOL     OW 7969   1.394   2.434   9.381
 2361SOL    HW1 7970   1.333   2.415   9.453
 2361SOL    HW2 7971   1.477   2.398   9.410
 2362SOL     OW 7972   0.525   2.122   9.629
 2362SOL    HW1 7973   0.569   2.075   9.558
 2362SOL    HW2 7974   0.507   2.209   9.592
 2363SOL     OW 7975   1.760   3.091  10.871
 2363SOL    HW1 7976   1.851   3.062  10.874
 2363SOL    HW2 7977   1.760   3.177  10.912
 2364SOL     OW 7978   1.064   3.216  10.650
 2364SOL    HW1 7979   0.986   3.183  10.694
 2364SOL    HW2 7980   1.137   3.168  10.690
 2365SOL     OW 7981   1.127   3.067  10.417
 2365SOL    HW1 7982   1.063   3.102  10.479
 2365SOL    HW2 7983   1.095   3.095  10.331
 2366SOL     OW 7984   1.631   2.962  10.388
 2366SOL    HW1 7985   1.627   3.023  10.461
 2366SOL    HW2 7986   1.550   2.978  10.339
 2367SOL     OW 7987   0.917   1.961  10.707
 2367SOL    HW1 7988   0.941   1.941  10.617
 2367SOL    HW2 7989   0.996   2.002  10.744
 2368SOL     OW 7990   0.708   2.923   9.682
 2368SOL    HW1 7991   0.695   2.908   9.776
 2368SOL    HW2 7992   0.784   2.869   9.660
 2369SOL     OW 7993   0.428   2.684  10.550
 2369SOL    HW1 7994   0.497   2.694  10.616
 2369SOL    HW2 7995   0.368   2.620  10.588
 2370SOL     OW 7996   1.267   2.241  10.586
 2370SOL    HW1 7997   1.299   2.319  10.632
 2370SOL    HW2 7998   1.178   2.263  10.559
 2371SOL     OW 7999   0.062   3.440  10.654
 2371SOL    HW1 8000   0.037   3.526  10.621
 2371SOL    HW2 8001   0.158   3.442  10.656
 2372SOL     OW 8002   0.350   2.969   9.803
 2372SOL    HW1 8003   0.358   3.043   9.742
 2372SOL    HW2 8004   0.351   2.891   9.747
 2373SOL     OW 8005   0.562   2.396  10.166
 2373SOL    HW1 8006   0.575   2.456  10.093
 2373SOL    HW2 8007   0.621   2.428  10.234
 2374SOL     OW 8008   1.248   3.210   9.699
 2374SOL    HW1 8009   1.303   3.282   9.730
 2374SOL    HW2 8010   1.161   3.231   9.733
 2375SOL     OW 8011   1.277   3.319  10.454
 2375SOL    HW1 8012   1.334   3.322  10.532
 2375SOL    HW2 8013   1.224   3.241  10.466
 2376SOL     OW 8014   1.581   2.488   9.782
 2376SOL    HW1 8015   1.536   2.538   9.851
 2376SOL    HW2 8016   1.630   2.554   9.733
 2377SOL     OW 8017   0.347   3.389  10.626
 2377SOL    HW1 8018   0.334   3.343  10.543
 2377SOL    HW2 8019   0.441   3.402  10.631
 2378SOL     OW 8020   0.482   2.609  10.966
 2378SOL    HW1 8021   0.515   2.646  10.885
 2378SOL    HW2 8022   0.515   2.519  10.967
 2379SOL     OW 8023   1.593   2.623  10.967
 2379SOL    HW1 8024   1.515   2.679  10.965
 2379SOL    HW2 8025   1.661   2.676  10.925
 2380SOL     OW 8026   0.589   2.735  10.335
 2380SOL    HW1 8027   0.616   2.827  10.336
 2380SOL    HW2 8028   0.532   2.725  10.411
 2381SOL     OW 8029   1.359   2.723  10.345
 2381SOL    HW1 8030   1.278   2.715  10.295
 2381SOL    HW2 8031   1.398   2.635  10.341
 2382SOL     OW 8032   1.207   2.391   9.579
 2382SOL    HW1 8033   1.214   2.313   9.633
 2382SOL    HW2 8034   1.164   2.455   9.635
 2383SOL     OW 8035   0.302   2.055  10.551
 2383SOL    HW1 8036   0.265   2.090  10.632
 2383SOL    HW2 8037   0.284   1.961  10.555
 2384SOL     OW 8038   0.046   3.177  10.594
 2384SOL    HW1 8039   0.077   3.128  10.670
 2384SOL    HW2 8040   0.046   3.268  10.622
 2385SOL     OW 8041   0.726   2.494  10.370
 2385SOL    HW1 8042   0.799   2.476  10.311
 2385SOL    HW2 8043   0.698   2.583  10.346
 2386SOL     OW 8044   0.309   1.932   9.929
 2386SOL    HW1 8045   0.287   2.021   9.957
 2386SOL    HW2 8046   0.305   1.880  10.009
 2387SOL     OW 8047   1.620   2.234   9.680
 2387SOL    HW1 8048   1.640   2.172   9.751
 2387SOL    HW2 8049   1.594   2.314   9.726
 2388SOL     OW 8050   1.027   2.621  10.271
 2388SOL    HW1 8051   1.026   2.639  10.366
 2388SOL    HW2 8052   1.001   2.530  10.264
 2389SOL     OW 8053   0.974   3.434  11.004
 2389SOL    HW1 8054   0.960   3.484  10.923
 2389SOL    HW2 8055   1.005   3.348  10.975
 2390SOL     OW 8056   1.858   3.357  10.911
 2390SOL    HW1 8057   1.873   3.392  10.824
 2390SOL    HW2 8058   1.925   3.400  10.966
 2391SOL     OW 8059   0.348   2.795  11.095
 2391SOL    HW1 8060   0.423   2.823   0.048
 2391SOL    HW2 8061   0.383   2.723  11.043
 2392SOL     OW 8062   1.529   2.136   9.440
 2392SOL    HW1 8063   1.464   2.070   9.464
 2392SOL    HW2 8064   1.560   2.171   9.523
 2393SOL     OW 8065   1.294   2.689   9.342
 2393SOL    HW1 8066   1.336   2.603   9.346
 2393SOL    HW2 8067   1.324   2.728   9.260
 2394SOL     OW 8068   1.066   3.197  10.163
 2394SOL    HW1 8069   1.068   3.124  10.101
 2394SOL    HW2 8070   1.128   3.261  10.128
 2395SOL     OW 8071   0.317   2.674  10.259
 2395SOL    HW1 8072   0.411   2.690  10.255
 2395SOL    HW2 8073   0.310   2.583  10.289
 2396SOL     OW 8074   0.333   2.386  10.302
 2396SOL    HW1 8075   0.294   2.300  10.287
 2396SOL    HW2 8076   0.410   2.387  10.246
 2397SOL     OW 8077   1.156   2.072  10.781
 2397SOL    HW1 8078   1.169   2.128  10.858
 2397SOL    HW2 8079   1.196   2.119  10.709
 2398SOL     OW 8080   4.492   3.185   9.513
 2398SOL    HW1 8081   4.399   3.200   9.495
 2398SOL    HW2 8082   4.497   3.092   9.536
 2399SOL     OW 8083   0.095   3.640  10.250
 2399SOL    HW1 8084   0.058   3.583  10.183
 2399SOL    HW2 8085   0.183   3.661  10.217
 2400SOL     OW 8086   0.498   3.435  10.217
 2400SOL    HW1 8087   0.566   3.498  10.240
 2400SOL    HW2 8088   0.542   3.372  10.161
 2401SOL     OW 8089   0.986   2.657  10.537
 2401SOL    HW1 8090   1.039   2.633  10.613
 2401SOL    HW2 8091   0.900   2.620  10.556
 2402SOL     OW 8092   0.034   2.422  10.414
 2402SOL    HW1 8093   0.119   2.389  10.384
 2402SOL    HW2 8094   0.025   2.389  10.503
 2403SOL     OW 8095   0.816   2.431   9.667
 2403SOL    HW1 8096   0.819   2.356   9.607
 2403SOL    HW2 8097   0.742   2.483   9.636
 2404SOL     OW 8098   1.642   2.465  10.497
 2404SOL    HW1 8099   1.635   2.404  10.571
 2404SOL    HW2 8100   1.730   2.450  10.462
 2405SOL     OW 8101   0.264   3.434  11.057
 2405SOL    HW1 8102   0.211   3.462   0.031
 2405SOL    HW2 8103   0.244   3.341  11.047
 2406SOL     OW 8104   0.694   2.316  10.572
 2406SOL    HW1 8105   0.645   2.240  10.541
 2406SOL    HW2 8106   0.693   2.378  10.499
 2407SOL     OW 8107   0.941   3.544  10.759
 2407SOL    HW1 8108   0.902   3.512  10.678
 2407SOL    HW2 8109   0.926   3.639  10.757
 2408SOL     OW 8110   0.472   2.352   9.497
 2408SOL    HW1 8111   0.531   2.425   9.519
 2408SOL    HW2 8112   0.388   2.394   9.482
 2409SOL     OW 8113   0.163   3.004  10.770
 2409SOL    HW1 8114   0.140   2.961  10.853
 2409SOL    HW2 8115   0.169   2.932  10.707
 2410SOL     OW 8116   1.326   2.915  10.538
 2410SOL    HW1 8117   1.353   2.850  10.473
 2410SOL    HW2 8118   1.255   2.963  10.496
 2411SOL     OW 8119   1.310   2.719   9.617
 2411SOL    HW1 8120   1.233   2.689   9.666
 2411SOL    HW2 8121   1.286   2.705   9.525
 2412SOL     OW 8122   1.770   3.609  10.460
 2412SOL    HW1 8123   1.830   3.634  10.390
 2412SOL    HW2 8124   1.746   3.518  10.440
 2413SOL     OW 8125   1.241   3.596  10.425
 2413SOL    HW1 8126   1.323   3.615  10.380
 2413SOL    HW2 8127   1.245   3.502  10.442
 2414SOL     OW 8128   0.067   3.049  10.359
 2414SOL    HW1 8129   0.071   3.082  10.448
 2414SOL    HW2 8130   0.016   3.113  10.311
 2415SOL     OW 8131   1.713   2.004   9.833
 2415SOL    HW1 8132   1.773   1.987   9.761
 2415SOL    HW2 8133   1.697   1.918   9.872
 2416SOL     OW 8134   1.390   3.430   9.794
 2416SOL    HW1 8135   1.451   3.461   9.726
 2416SOL    HW2 8136   1.342   3.508   9.821
 2417SOL     OW 8137   1.278   2.787   9.981
 2417SOL    HW1 8138   1.351   2.725   9.986
 2417SOL    HW2 8139   1.311   2.860   9.929
 2418SOL     OW 8140   0.820   3.135  10.739
 2418SOL    HW1 8141   0.790   3.169  10.823
 2418SOL    HW2 8142   0.749   3.156  10.678
 2419SOL     OW 8143   0.673   3.479   9.465
 2419SOL    HW1 8144   0.681   3.491   9.370
 2419SOL    HW2 8145   0.619   3.401   9.475
 2420SOL     OW 8146   1.625   3.582  10.698
 2420SOL    HW1 8147   1.678   3.596  10.620
 2420SOL    HW2 8148   1.611   3.669  10.734
 2421SOL     OW 8149   1.825   2.038  10.282
 2421SOL    HW1 8150   1.868   1.956  10.258
 2421SOL    HW2 8151   1.742   2.037  10.233
 2422SOL     OW 8152   0.266   2.182  10.029
 2422SOL    HW1 8153   0.183   2.221  10.001
 2422SOL    HW2 8154   0.255   2.170  10.123
 2423SOL     OW 8155   1.206   3.469   9.341
 2423SOL    HW1 8156   1.198   3.378   9.369
 2423SOL    HW2 8157   1.141   3.480   9.272
 2424SOL     OW 8158   0.826   2.868  10.685
 2424SOL    HW1 8159   0.868   2.863  10.599
 2424SOL    HW2 8160   0.826   2.961  10.706
 2425SOL     OW 8161   0.916   2.773   9.600
 2425SOL    HW1 8162   0.977   2.804   9.533
 2425SOL    HW2 8163   0.962   2.702   9.644
 2426SOL     OW 8164   1.493   3.486   9.352
 2426SOL    HW1 8165   1.399   3.482   9.340
 2426SOL    HW2 8166   1.529   3.493   9.264
 2427SOL     OW 8167   0.369   3.171  10.805
 2427SOL    HW1 8168   0.355   3.246  10.748
 2427SOL    HW2 8169   0.296   3.112  10.785
 2428SOL     OW 8170   1.613   3.144  10.593
 2428SOL    HW1 8171   1.669   3.133  10.670
 2428SOL    HW2 8172   1.556   3.217  10.616
 2429SOL     OW 8173   1.050   2.968  10.016
 2429SOL    HW1 8174   0.979   2.917  10.055
 2429SOL    HW2 8175   1.111   2.902   9.982
 2430SOL     OW 8176   1.020   2.102  10.276
 2430SOL    HW1 8177   1.015   2.054  10.193
 2430SOL    HW2 8178   1.015   2.034  10.343
 2431SOL     OW 8179   0.604   3.352   9.793
 2431SOL    HW1 8180   0.643   3.301   9.722
 2431SOL    HW2 8181   0.531   3.398   9.752
 2432SOL     OW 8182   1.719   2.259  10.687
 2432SOL    HW1 8183   1.798   2.313  10.687
 2432SOL    HW2 8184   1.741   2.184  10.631
 2433SOL     OW 8185   0.252   3.207   9.587
 2433SOL    HW1 8186   0.157   3.207   9.573
 2433SOL    HW2 8187   0.262   3.239   9.677
 2434SOL     OW 8188   0.110   2.880  11.004
 2434SOL    HW1 8189   0.051   2.882  11.079
 2434SOL    HW2 8190   0.196   2.862  11.043
 2435SOL     OW 8191   0.673   2.059  10.803
 2435SOL    HW1 8192   0.755   2.037  10.758
 2435SOL    HW2 8193   0.701   2.091  10.889
 2436SOL     OW 8194   0.072   2.188   9.343
 2436SOL    HW1 8195   4.477   2.198   9.344
 2436SOL    HW2 8196   0.104   2.269   9.305
 2437SOL     OW 8197   1.430   2.711  10.710
 2437SOL    HW1 8198   1.382   2.779  10.662
 2437SOL    HW2 8199   1.521   2.720  10.680
 2438SOL     OW 8200   0.085   2.039   9.616
 2438SOL    HW1 8201   0.079   2.111   9.553
 2438SOL    HW2 8202   0.161   1.988   9.587
 2439SOL     OW 8203   1.179   3.203   9.427
 2439SOL    HW1 8204   1.088   3.173   9.429
 2439SOL    HW2 8205   1.208   3.202   9.518
 2440SOL     OW 8206   0.623   2.692  10.738
 2440SOL    HW1 8207   0.677   2.769  10.725
 2440SOL    HW2 8208   0.685   2.619  10.747
 2441SOL     OW 8209   1.484   3.637  10.286
 2441SOL    HW1 8210   1.510   3.695  10.215
 2441SOL    HW2 8211   1.566   3.620  10.334
 2442SOL     OW 8212   0.716   2.424  11.015
 2442SOL    HW1 8213   0.747   2.498  11.068
 2442SOL    HW2 8214   0.769   2.350  11.044
 2443SOL     OW 8215   0.384   3.598  10.871
 2443SOL    HW1 8216   0.306   3.654  10.865
 2443SOL    HW2 8217   0.357   3.527  10.930
 2444SOL     OW 8218   1.673   2.745  10.567
 2444SOL    HW1 8219   1.661   2.659  10.525
 2444SOL    HW2 8220   1.663   2.808  10.496
 2445SOL     OW 8221   1.218   2.182   9.767
 2445SOL    HW1 8222   1.281   2.110   9.759
 2445SOL    HW2 8223   1.247   2.230   9.845
 2446SOL     OW 8224   0.591   2.601   9.978
 2446SOL    HW1 8225   0.629   2.687   9.961
 2446SOL    HW2 8226   0.521   2.593   9.913
 2447SOL     OW 8227   1.739   2.167  10.948
 2447SOL    HW1 8228   1.732   2.211  10.863
 2447SOL    HW2 8229   1.663   2.198  10.997
 2448SOL     OW 8230   1.753   2.797  10.825
 2448SOL    HW1 8231   1.743   2.891  10.839
 2448SOL    HW2 8232   1.732   2.785  10.732
 2449SOL     OW 8233   0.864   3.230   9.342
 2449SOL    HW1 8234   0.823   3.256   9.425
 2449SOL    HW2 8235   0.881   3.313   9.297
 2450SOL     OW 8236   0.660   3.655  10.257
 2450SOL    HW1 8237   0.638   3.745  10.233
 2450SOL    HW2 8238   0.755   3.650  10.248
 2451SOL     OW 8239   0.867   2.828  10.166
 2451SOL    HW1 8240   0.916   2.757  10.205
 2451SOL    HW2 8241   0.833   2.878  10.240
 2452SOL     OW 8242   1.080   2.851   9.399
 2452SOL    HW1 8243   1.058   2.900   9.320
 2452SOL    HW2 8244   1.155   2.797   9.373
 2453SOL     OW 8245   1.856   3.417  10.154
 2453SOL    HW1 8246   1.778   3.406  10.100
 2453SOL    HW2 8247   1.846   3.351  10.223
 2454SOL     OW 8248   0.104   3.100   9.977
 2454SOL    HW1 8249   0.110   3.050  10.059
 2454SOL    HW2 8250   0.163   3.056   9.917
 2455SOL     OW 8251   0.680   3.257  10.937
 2455SOL    HW1 8252   0.607   3.206  10.973
 2455SOL    HW2 8253   0.648   3.347  10.936
 2456SOL     OW 8254   1.783   2.040  10.544
 2456SOL    HW1 8255   1.808   1.949  10.561
 2456SOL    HW2 8256   1.802   2.053  10.452
 2457SOL     OW 8257   0.435   2.295   9.835
 2457SOL    HW1 8258   0.459   2.222   9.779
 2457SOL    HW2 8259   0.384   2.256   9.906
 2458SOL     OW 8260   1.702   3.353  10.408
 2458SOL    HW1 8261   1.620   3.327  10.365
 2458SOL    HW2 8262   1.717   3.285  10.474
 2459SOL     OW 8263   0.302   2.353  10.567
 2459SOL    HW1 8264   0.373   2.311  10.616
 2459SOL    HW2 8265   0.337   2.364  10.478
 2460SOL     OW 8266   0.826   3.440   9.989
 2460SOL    HW1 8267   0.817   3.489   9.907
 2460SOL    HW2 8268   0.748   3.384   9.992
 2461SOL     OW 8269   1.433   2.086  10.427
 2461SOL    HW1 8270   1.466   2.010  10.474
 2461SOL    HW2 8271   1.381   2.133  10.492
 2462SOL     OW 8272   1.008   1.882  10.455
 2462SOL    HW1 8273   0.954   1.814  10.415
 2462SOL    HW2 8274   1.096   1.844  10.456
 2463SOL     OW 8275   0.772   3.194   9.621
 2463SOL    HW1 8276   0.739   3.105   9.628
 2463SOL    HW2 8277   0.854   3.193   9.671
 2464SOL     OW 8278   0.620   3.418  10.596
 2464SOL    HW1 8279   0.621   3.501  10.644
 2464SOL    HW2 8280   0.707   3.413  10.556
 2465SOL     OW 8281   1.352   1.915   9.474
 2465SOL    HW1 8282   1.379   1.855   9.405
 2465SOL    HW2 8283   1.265   1.885   9.501
 2466SOL     OW 8284   1.298   2.323   9.993
 2466SOL    HW1 8285   1.242   2.401  10.000
 2466SOL    HW2 8286   1.293   2.282  10.079
 2467SOL     OW 8287   1.576   2.062  10.181
 2467SOL    HW1 8288   1.521   2.081  10.256
 2467SOL    HW2 8289   1.579   2.144  10.131
 2468SOL     OW 8290   0.041   2.915   9.597
 2468SOL    HW1 8291   0.136   2.901   9.589
 2468SOL    HW2 8292   0.019   2.878   9.683
 2469SOL     OW 8293   0.883   3.513   9.654
 2469SOL    HW1 8294   0.811   3.495   9.593
 2469SOL    HW2 8295   0.853   3.588   9.704
 2470SOL     OW 8296   0.207   4.283   0.084
 2470SOL    HW1 8297   0.156   4.314   0.158
 2470SOL    HW2 8298   0.228   4.362   0.034
 2471SOL     OW 8299   0.209   3.997   0.992
 2471SOL    HW1 8300   0.246   3.969   1.076
 2471SOL    HW2 8301   0.134   3.938   0.978
 2472SOL     OW 8302   4.500   4.100   0.629
 2472SOL    HW1 8303   4.420   4.127   0.675
 2472SOL    HW2 8304   4.478   4.014   0.592
 2473SOL     OW 8305   1.732   4.332   0.229
 2473SOL    HW1 8306   1.749   4.307   0.139
 2473SOL    HW2 8307   1.727   4.250   0.277
 2474SOL     OW 8308   0.732   0.268   0.684
 2474SOL    HW1 8309   0.722   0.204   0.754
 2474SOL    HW2 8310   0.642   0.288   0.657
 2475SOL     OW 8311   0.444   4.120   1.489
 2475SOL    HW1 8312   0.525   4.069   1.492
 2475SOL    HW2 8313   0.374   4.055   1.499
 2476SOL     OW 8314   1.615   4.173   0.740
 2476SOL    HW1 8315   1.546   4.198   0.680
 2476SOL    HW2 8316   1.620   4.244   0.803
 2477SOL     OW 8317   1.597   3.846   1.469
 2477SOL    HW1 8318   1.596   3.925   1.416
 2477SOL    HW2 8319   1.583   3.877   1.559
 2478SOL     OW 8320   0.166   4.320   0.632
 2478SOL    HW1 8321   0.104   4.249   0.616
 2478SOL    HW2 8322   0.119   4.399   0.606
 2479SOL     OW 8323   0.119   0.000   1.589
 2479SOL    HW1 8324   0.213   4.484   1.590
 2479SOL    HW2 8325   0.109   0.085   1.546
 2480SOL     OW 8326   0.815   3.724   0.506
 2480SOL    HW1 8327   0.853   3.811   0.491
 2480SOL    HW2 8328   0.721   3.741   0.516
 2481SOL     OW 8329   0.329   3.979   1.797
 2481SOL    HW1 8330   0.375   4.057   1.828
 2481SOL    HW2 8331   0.241   3.988   1.833
 2482SOL     OW 8332   1.278   4.071   0.933
 2482SOL    HW1 8333   1.189   4.038   0.942
 2482SOL    HW2 8334   1.329   4.020   0.994
 2483SOL     OW 8335   0.825   4.307   1.449
 2483SOL    HW1 8336   0.785   4.312   1.536
 2483SOL    HW2 8337   0.758   4.267   1.394
 2484SOL     OW 8338   1.396   4.199   1.676
 2484SOL    HW1 8339   1.396   4.243   1.762
 2484SOL    HW2 8340   1.455   4.125   1.687
 2485SOL     OW 8341   0.997   4.149   1.234
 2485SOL    HW1 8342   0.924   4.169   1.292
 2485SOL    HW2 8343   0.960   4.089   1.168
 2486SOL     OW 8344   1.060   4.403   0.423
 2486SOL    HW1 8345   1.057   4.454   0.504
 2486SOL    HW2 8346   0.968   4.383   0.405
 2487SOL     OW 8347   0.053   0.047   0.841
 2487SOL    HW1 8348   0.145   0.024   0.852
 2487SOL    HW2 8349   0.052   0.112   0.771
 2488SOL     OW 8350   0.885   4.073   0.209
 2488SOL    HW1 8351   0.931   4.130   0.148
 2488SOL    HW2 8352   0.900   3.984   0.175
 2489SOL     OW 8353   1.706   4.298   1.829
 2489SOL    HW1 8354   1.718   4.387   1.795
 2489SOL    HW2 8355   1.730   4.242   1.755
 2490SOL     OW 8356   0.552   3.906   0.893
 2490SOL    HW1 8357   0.554   3.936   0.983
 2490SOL    HW2 8358   0.548   3.987   0.841
 2491SOL     OW 8359   1.487   4.462   0.738
 2491SOL    HW1 8360   1.469   4.408   0.815
 2491SOL    HW2 8361   1.528   0.041   0.772
 2492SOL     OW 8362   0.190   4.000   1.486
 2492SOL    HW1 8363   0.137   4.079   1.494
 2492SOL    HW2 8364   0.184   3.959   1.572
 2493SOL     OW 8365   1.402   3.830   0.430
 2493SOL    HW1 8366   1.392   3.808   0.337
 2493SOL    HW2 8367   1.496   3.840   0.443
 2494SOL     OW 8368   0.350   4.376   0.405
 2494SOL    HW1 8369   0.396   4.304   0.448
 2494SOL    HW2 8370   0.298   4.416   0.475
 2495SOL     OW 8371   1.537   3.950   1.725
 2495SOL    HW1 8372   1.545   3.971   1.818
 2495SOL    HW2 8373   1.469   3.883   1.722
 2496SOL     OW 8374   0.616   3.833   0.122
 2496SOL    HW1 8375   0.705   3.799   0.121
 2496SOL    HW2 8376   0.582   3.814   0.035
 2497SOL     OW 8377   0.767   4.002   1.754
 2497SOL    HW1 8378   0.842   3.941   1.756
 2497SOL    HW2 8379   0.717   3.980   1.833
 2498SOL     OW 8380   1.344   4.311   1.429
 2498SOL    HW1 8381   1.367   4.274   1.514
 2498SOL    HW2 8382   1.384   4.398   1.429
 2499SOL     OW 8383   0.922   4.236   0.900
 2499SOL    HW1 8384   0.900   4.220   0.808
 2499SOL    HW2 8385   0.962   4.154   0.929
 2500SOL     OW 8386   0.552   3.786   0.505
 2500SOL    HW1 8387   0.470   3.783   0.554
 2500SOL    HW2 8388   0.544   3.864   0.450
 2501SOL     OW 8389   0.285   3.772   0.192
 2501SOL    HW1 8390   0.333   3.824   0.128
 2501SOL    HW2 8391   0.349   3.707   0.223
 2502SOL     OW 8392   0.938   3.971   0.465
 2502SOL    HW1 8393   0.910   4.012   0.383
 2502SOL    HW2 8394   1.033   3.984   0.467
 2503SOL     OW 8395   1.076   4.396   1.517
 2503SOL    HW1 8396   0.993   4.365   1.481
 2503SOL    HW2 8397   1.142   4.354   1.461
 2504SOL     OW 8398   1.009   4.264   0.040
 2504SOL    HW1 8399   1.018   4.326  11.067
 2504SOL    HW2 8400   1.090   4.275   0.090
 2505SOL     OW 8401   0.086   4.258   1.410
 2505SOL    HW1 8402   0.158   4.271   1.349
 2505SOL    HW2 8403   0.053   4.347   1.427
 2506SOL     OW 8404   0.561   3.951   1.165
 2506SOL    HW1 8405   0.600   3.870   1.198
 2506SOL    HW2 8406   0.470   3.946   1.193
 2507SOL     OW 8407   0.869   4.188   0.640
 2507SOL    HW1 8408   0.837   4.250   0.574
 2507SOL    HW2 8409   0.887   4.108   0.591
 2508SOL     OW 8410   1.014   3.777   0.753
 2508SOL    HW1 8411   0.956   3.769   0.677
 2508SOL    HW2 8412   0.994   3.701   0.807
 2509SOL     OW 8413   1.477   4.313   0.969
 2509SOL    HW1 8414   1.420   4.238   0.987
 2509SOL    HW2 8415   1.528   4.325   1.048
 2510SOL     OW 8416   1.400   4.294   0.072
 2510SOL    HW1 8417   1.335   4.277   0.141
 2510SOL    HW2 8418   1.469   4.229   0.088
 2511SOL     OW 8419   0.527   3.989   0.326
 2511SOL    HW1 8420   0.554   3.929   0.256
 2511SOL    HW2 8421   0.512   4.072   0.281
 2512SOL     OW 8422   0.917   3.823   1.397
 2512SOL    HW1 8423   0.941   3.802   1.307
 2512SOL    HW2 8424   0.997   3.861   1.435
 2513SOL     OW 8425   0.440   0.004   1.260
 2513SOL    HW1 8426   0.497   0.005   1.337
 2513SOL    HW2 8427   0.402   4.416   1.259
 2514SOL     OW 8428   1.266   4.100   1.274
 2514SOL    HW1 8429   1.300   4.178   1.319
 2514SOL    HW2 8430   1.177   4.124   1.248
 2515SOL     OW 8431   0.556   4.255   0.864
 2515SOL    HW1 8432   0.577   4.298   0.781
 2515SOL    HW2 8433   0.621   4.290   0.925
 2516SOL     OW 8434   1.580   4.341   0.480
 2516SOL    HW1 8435   1.536   4.405   0.535
 2516SOL    HW2 8436   1.624   4.392   0.412
 2517SOL     OW 8437   0.996   3.844   1.756
 2517SOL    HW1 8438   1.051   3.917   1.726
 2517SOL    HW2 8439   1.045   3.766   1.730
 2518SOL     OW 8440   0.498   3.768   1.746
 2518SOL    HW1 8441   0.457   3.711   1.681
 2518SOL    HW2 8442   0.437   3.841   1.756
 2519SOL     OW 8443   1.212   4.251   0.266
 2519SOL    HW1 8444   1.222   4.172   0.319
 2519SOL    HW2 8445   1.163   4.312   0.322
 2520SOL     OW 8446   0.300   3.923   1.244
 2520SOL    HW1 8447   0.261   3.952   1.327
 2520SOL    HW2 8448   0.287   3.829   1.242
 2521SOL     OW 8449   0.733   4.360   1.048
 2521SOL    HW1 8450   0.805   4.323   0.997
 2521SOL    HW2 8451   0.738   4.454   1.033
 2522SOL     OW 8452   1.750   0.134   1.856
 2522SOL    HW1 8453   1.687   0.148   1.785
 2522SOL    HW2 8454   1.705   0.163   1.934
 2523SOL     OW 8455   0.310   3.794   0.619
 2523SOL    HW1 8456   0.286   3.882   0.647
 2523SOL    HW2 8457   0.304   3.741   0.699
 2524SOL     OW 8458   1.613   4.092   0.369
 2524SOL    HW1 8459   1.642   4.029   0.435
 2524SOL    HW2 8460   1.591   4.171   0.418
 2525SOL     OW 8461   1.536   4.011   0.117
 2525SOL    HW1 8462   1.475   3.938   0.133
 2525SOL    HW2 8463   1.567   4.036   0.204
 2526SOL     OW 8464   0.317   0.018   0.919
 2526SOL    HW1 8465   0.400   0.066   0.926
 2526SOL    HW2 8466   0.330   4.439   0.972
 2527SOL     OW 8467   0.335   4.237   1.011
 2527SOL    HW1 8468   0.291   4.156   0.987
 2527SOL    HW2 8469   0.409   4.243   0.951
 2528SOL     OW 8470   1.138   4.095   1.684
 2528SOL    HW1 8471   1.086   4.154   1.739
 2528SOL    HW2 8472   1.222   4.139   1.675
 2529SOL     OW 8473   1.160   3.927   1.469
 2529SOL    HW1 8474   1.151   3.989   1.542
 2529SOL    HW2 8475   1.199   3.979   1.399
 2530SOL     OW 8476   0.027   4.280   1.108
 2530SOL    HW1 8477   0.111   4.256   1.069
 2530SOL    HW2 8478   0.029   4.242   1.196
 2531SOL     OW 8479   0.176   4.236   1.695
 2531SOL    HW1 8480   0.263   4.217   1.658
 2531SOL    HW2 8481   0.148   4.316   1.651
 2532SOL     OW 8482   0.814   4.308   0.328
 2532SOL    HW1 8483   0.824   4.222   0.287
 2532SOL    HW2 8484   0.720   4.317   0.343
 2533SOL     OW 8485   1.638   4.319   1.189
 2533SOL    HW1 8486   1.632   4.260   1.264
 2533SOL    HW2 8487   1.725   4.304   1.153
 2534SOL     OW 8488   0.675   4.186   1.259
 2534SOL    HW1 8489   0.638   4.105   1.225
 2534SOL    HW2 8490   0.685   4.242   1.182
 2535SOL     OW 8491   0.476   4.218   0.184
 2535SOL    HW1 8492   0.520   4.302   0.195
 2535SOL    HW2 8493   0.383   4.239   0.187
 2536SOL     OW 8494   0.917   3.814   0.109
 2536SOL    HW1 8495   0.968   3.779   0.036
 2536SOL    HW2 8496   0.953   3.771   0.186
 2537SOL     OW 8497   1.719   3.868   0.512
 2537SOL    HW1 8498   1.792   3.854   0.451
 2537SOL    HW2 8499   1.704   3.782   0.551
 2538SOL     OW 8500   1.278   0.138   0.682
 2538SOL    HW1 8501   1.335   0.061   0.688
 2538SOL    HW2 8502   1.327   0.199   0.626
 2539SOL     OW 8503   1.839   3.897   0.968
 2539SOL    HW1 8504   1.868   3.810   0.938
 2539SOL    HW2 8505   1.753   3.908   0.927
 2540SOL     OW 8506   0.268   4.042   0.721
 2540SOL    HW1 8507   0.192   4.091   0.692
 2540SOL    HW2 8508   0.254   4.030   0.815
 2541SOL     OW 8509   1.062   0.303   0.726
 2541SOL    HW1 8510   0.979   0.268   0.695
 2541SOL    HW2 8511   1.127   0.237   0.700
 2542SOL     OW 8512   1.019   3.964   0.965
 2542SOL    HW1 8513   1.014   3.916   0.883
 2542SOL    HW2 8514   1.015   3.896   1.033
 2543SOL     OW 8515   1.720   4.114   1.380
 2543SOL    HW1 8516   1.791   4.178   1.377
 2543SOL    HW2 8517   1.750   4.043   1.324
 2544SOL     OW 8518   0.673   3.922   1.499
 2544SOL    HW1 8519   0.756   3.902   1.457
 2544SOL    HW2 8520   0.697   3.951   1.587
 2545SOL     OW 8521   0.060   4.061   0.003
 2545SOL    HW1 8522   4.468   4.071   0.030
 2545SOL    HW2 8523   0.100   4.146   0.022
 2546SOL     OW 8524   0.081   3.898   0.310
 2546SOL    HW1 8525   0.078   3.973   0.250
 2546SOL    HW2 8526   0.155   3.846   0.280
 2547SOL     OW 8527   0.725   4.285   1.701
 2547SOL    HW1 8528   0.730   4.334   1.783
 2547SOL    HW2 8529   0.751   4.196   1.725
 2548SOL     OW 8530   1.217   4.040   0.456
 2548SOL    HW1 8531   1.282   3.970   0.447
 2548SOL    HW2 8532   1.247   4.089   0.533
 2549SOL     OW 8533   1.762   4.089   1.648
 2549SOL    HW1 8534   1.744   4.099   1.554
 2549SOL    HW2 8535   1.692   4.030   1.679
 2550SOL     OW 8536   1.099   0.203   0.051
 2550SOL    HW1 8537   1.096   0.288   0.008
 2550SOL    HW2 8538   1.191   0.176   0.045
 2551SOL     OW 8539   1.815   3.909   1.238
 2551SOL    HW1 8540   1.823   3.814   1.253
 2551SOL    HW2 8541   1.822   3.919   1.143
 2552SOL     OW 8542   0.450   4.154   0.536
 2552SOL    HW1 8543   0.467   4.080   0.478
 2552SOL    HW2 8544   0.391   4.118   0.603
 2553SOL     OW 8545   0.322   4.259   1.276
 2553SOL    HW1 8546   0.375   4.192   1.320
 2553SOL    HW2 8547   0.334   4.242   1.183
 2554SOL     OW 8548   1.432   3.948   1.118
 2554SOL    HW1 8549   1.458   3.869   1.164
 2554SOL    HW2 8550   1.380   3.997   1.181
 2555SOL     OW 8551   1.008   3.744   1.145
 2555SOL    HW1 8552   0.954   3.676   1.106
 2555SOL    HW2 8553   1.096   3.706   1.146
 2556SOL     OW 8554   1.351   3.778   0.164
 2556SOL    HW1 8555   1.373   3.727   0.086
 2556SOL    HW2 8556   1.264   3.745   0.189
 2557SOL     OW 8557   1.300   4.175   0.681
 2557SOL    HW1 8558   1.259   4.261   0.694
 2557SOL    HW2 8559   1.300   4.135   0.768
 2558SOL     OW 8560   1.587   3.928   0.877
 2558SOL    HW1 8561   1.525   3.948   0.947
 2558SOL    HW2 8562   1.587   4.007   0.822
 2559SOL     OW 8563   0.232   4.284   1.973
 2559SOL    HW1 8564   0.165   4.318   2.032
 2559SOL    HW2 8565   0.214   4.327   1.889
 2560SOL     OW 8566   0.210   3.997   2.853
 2560SOL    HW1 8567   0.246   3.969   2.938
 2560SOL    HW2 8568   0.134   3.940   2.840
 2561SOL     OW 8569   0.001   4.099   2.493
 2561SOL    HW1 8570   4.421   4.130   2.536
 2561SOL    HW2 8571   4.475   4.016   2.451
 2562SOL     OW 8572   1.732   4.335   2.099
 2562SOL    HW1 8573   1.732   4.321   2.004
 2562SOL    HW2 8574   1.732   4.246   2.136
 2563SOL     OW 8575   0.727   0.267   2.544
 2563SOL    HW1 8576   0.720   0.208   2.619
 2563SOL    HW2 8577   0.636   0.288   2.522
 2564SOL     OW 8578   0.443   4.120   3.351
 2564SOL    HW1 8579   0.525   4.069   3.354
 2564SOL    HW2 8580   0.374   4.055   3.361
 2565SOL     OW 8581   1.615   4.173   2.601
 2565SOL    HW1 8582   1.544   4.199   2.542
 2565SOL    HW2 8583   1.620   4.243   2.666
 2566SOL     OW 8584   1.597   3.846   3.331
 2566SOL    HW1 8585   1.597   3.926   3.279
 2566SOL    HW2 8586   1.583   3.876   3.421
 2567SOL     OW 8587   0.165   4.323   2.495
 2567SOL    HW1 8588   0.105   4.251   2.474
 2567SOL    HW2 8589   0.119   4.401   2.466
 2568SOL     OW 8590   0.119   0.000   3.451
 2568SOL    HW1 8591   0.213   4.484   3.452
 2568SOL    HW2 8592   0.109   0.085   3.408
 2569SOL     OW 8593   0.814   3.723   2.369
 2569SOL    HW1 8594   0.854   3.809   2.352
 2569SOL    HW2 8595   0.721   3.742   2.379
 2570SOL     OW 8596   0.329   3.979   3.659
 2570SOL    HW1 8597   0.375   4.057   3.690
 2570SOL    HW2 8598   0.241   3.988   3.695
 2571SOL     OW 8599   1.278   4.071   2.794
 2571SOL    HW1 8600   1.189   4.037   2.804
 2571SOL    HW2 8601   1.329   4.020   2.856
 2572SOL     OW 8602   0.825   4.307   3.311
 2572SOL    HW1 8603   0.785   4.312   3.398
 2572SOL    HW2 8604   0.758   4.267   3.255
 2573SOL     OW 8605   1.396   4.199   3.538
 2573SOL    HW1 8606   1.396   4.243   3.624
 2573SOL    HW2 8607   1.455   4.125   3.549
 2574SOL     OW 8608   0.997   4.149   3.096
 2574SOL    HW1 8609   0.924   4.169   3.154
 2574SOL    HW2 8610   0.959   4.089   3.031
 2575SOL     OW 8611   1.057   4.410   2.281
 2575SOL    HW1 8612   1.056   4.447   2.369
 2575SOL    HW2 8613   0.969   4.373   2.269
 2576SOL     OW 8614   0.053   0.055   2.710
 2576SOL    HW1 8615   0.144   0.025   2.715
 2576SOL    HW2 8616   0.049   0.105   2.628
 2577SOL     OW 8617   0.888   4.063   2.053
 2577SOL    HW1 8618   0.931   4.126   1.994
 2577SOL    HW2 8619   0.906   3.978   2.014
 2578SOL     OW 8620   1.706   4.298   3.691
 2578SOL    HW1 8621   1.718   4.387   3.658
 2578SOL    HW2 8622   1.730   4.242   3.617
 2579SOL     OW 8623   0.552   3.906   2.754
 2579SOL    HW1 8624   0.554   3.936   2.845
 2579SOL    HW2 8625   0.548   3.987   2.703
 2580SOL     OW 8626   1.489   4.463   2.599
 2580SOL    HW1 8627   1.470   4.409   2.675
 2580SOL    HW2 8628   1.529   0.042   2.635
 2581SOL     OW 8629   0.189   4.000   3.348
 2581SOL    HW1 8630   0.137   4.080   3.356
 2581SOL    HW2 8631   0.184   3.959   3.435
 2582SOL     OW 8632   1.401   3.831   2.293
 2582SOL    HW1 8633   1.390   3.806   2.201
 2582SOL    HW2 8634   1.495   3.840   2.304
 2583SOL     OW 8635   0.350   4.378   2.268
 2583SOL    HW1 8636   0.396   4.306   2.310
 2583SOL    HW2 8637   0.298   4.417   2.338
 2584SOL     OW 8638   1.537   3.950   3.587
 2584SOL    HW1 8639   1.545   3.971   3.680
 2584SOL    HW2 8640   1.469   3.883   3.584
 2585SOL     OW 8641   0.633   3.850   1.965
 2585SOL    HW1 8642   0.702   3.787   1.981
 2585SOL    HW2 8643   0.585   3.816   1.890
 2586SOL     OW 8644   0.767   4.001   3.616
 2586SOL    HW1 8645   0.842   3.941   3.618
 2586SOL    HW2 8646   0.717   3.980   3.695
 2587SOL     OW 8647   1.344   4.311   3.291
 2587SOL    HW1 8648   1.367   4.274   3.376
 2587SOL    HW2 8649   1.384   4.398   3.291
 2588SOL     OW 8650   0.922   4.236   2.761
 2588SOL    HW1 8651   0.901   4.220   2.669
 2588SOL    HW2 8652   0.962   4.154   2.791
 2589SOL     OW 8653   0.551   3.786   2.365
 2589SOL    HW1 8654   0.470   3.784   2.416
 2589SOL    HW2 8655   0.543   3.865   2.311
 2590SOL     OW 8656   0.294   3.770   2.040
 2590SOL    HW1 8657   0.355   3.838   2.012
 2590SOL    HW2 8658   0.349   3.705   2.084
 2591SOL     OW 8659   0.936   3.971   2.325
 2591SOL    HW1 8660   0.909   4.009   2.242
 2591SOL    HW2 8661   1.031   3.982   2.327
 2592SOL     OW 8662   1.076   4.396   3.379
 2592SOL    HW1 8663   0.993   4.365   3.343
 2592SOL    HW2 8664   1.142   4.354   3.323
 2593SOL     OW 8665   1.025   4.268   1.887
 2593SOL    HW1 8666   1.007   4.356   1.853
 2593SOL    HW2 8667   1.088   4.282   1.957
 2594SOL     OW 8668   0.086   4.258   3.272
 2594SOL    HW1 8669   0.159   4.271   3.211
 2594SOL    HW2 8670   0.053   4.347   3.289
 2595SOL     OW 8671   0.561   3.950   3.026
 2595SOL    HW1 8672   0.600   3.870   3.061
 2595SOL    HW2 8673   0.470   3.947   3.055
 2596SOL     OW 8674   0.871   4.189   2.500
 2596SOL    HW1 8675   0.833   4.247   2.434
 2596SOL    HW2 8676   0.888   4.108   2.453
 2597SOL     OW 8677   1.014   3.777   2.614
 2597SOL    HW1 8678   0.956   3.769   2.539
 2597SOL    HW2 8679   0.994   3.701   2.669
 2598SOL     OW 8680   1.477   4.312   2.829
 2598SOL    HW1 8681   1.420   4.238   2.849
 2598SOL    HW2 8682   1.529   4.325   2.909
 2599SOL     OW 8683   1.401   4.296   1.935
 2599SOL    HW1 8684   1.340   4.269   2.003
 2599SOL    HW2 8685   1.484   4.255   1.960
 2600SOL     OW 8686   0.523   3.985   2.179
 2600SOL    HW1 8687   0.567   3.936   2.109
 2600SOL    HW2 8688   0.511   4.073   2.144
 2601SOL     OW 8689   0.917   3.823   3.259
 2601SOL    HW1 8690   0.941   3.802   3.169
 2601SOL    HW2 8691   0.997   3.861   3.297
 2602SOL     OW 8692   0.440   0.004   3.121
 2602SOL    HW1 8693   0.497   0.005   3.199
 2602SOL    HW2 8694   0.402   4.416   3.121
 2603SOL     OW 8695   1.266   4.100   3.135
 2603SOL    HW1 8696   1.300   4.178   3.181
 2603SOL    HW2 8697   1.177   4.125   3.110
 2604SOL     OW 8698   0.557   4.254   2.726
 2604SOL    HW1 8699   0.575   4.299   2.643
 2604SOL    HW2 8700   0.621   4.290   2.787
 2605SOL     OW 8701   1.571   4.340   2.338
 2605SOL    HW1 8702   1.541   4.406   2.401
 2605SOL    HW2 8703   1.630   4.388   2.279
 2606SOL     OW 8704   0.996   3.844   3.618
 2606SOL    HW1 8705   1.051   3.917   3.588
 2606SOL    HW2 8706   1.045   3.766   3.592
 2607SOL     OW 8707   0.498   3.768   3.608
 2607SOL    HW1 8708   0.457   3.711   3.543
 2607SOL    HW2 8709   0.437   3.841   3.618
 2608SOL     OW 8710   1.211   4.255   2.127
 2608SOL    HW1 8711   1.221   4.175   2.180
 2608SOL    HW2 8712   1.162   4.314   2.184
 2609SOL     OW 8713   0.300   3.924   3.106
 2609SOL    HW1 8714   0.261   3.952   3.189
 2609SOL    HW2 8715   0.287   3.829   3.104
 2610SOL     OW 8716   0.732   4.360   2.910
 2610SOL    HW1 8717   0.805   4.324   2.859
 2610SOL    HW2 8718   0.738   4.454   2.896
 2611SOL     OW 8719   1.750   0.133   3.717
 2611SOL    HW1 8720   1.687   0.149   3.647
 2611SOL    HW2 8721   1.705   0.163   3.796
 2612SOL     OW 8722   0.309   3.793   2.481
 2612SOL    HW1 8723   0.286   3.882   2.508
 2612SOL    HW2 8724   0.305   3.741   2.561
 2613SOL     OW 8725   1.613   4.091   2.231
 2613SOL    HW1 8726   1.642   4.030   2.300
 2613SOL    HW2 8727   1.590   4.171   2.278
 2614SOL     OW 8728   1.528   3.999   1.989
 2614SOL    HW1 8729   1.465   3.932   2.015
 2614SOL    HW2 8730   1.562   4.033   2.072
 2615SOL     OW 8731   0.319   0.017   2.781
 2615SOL    HW1 8732   0.401   0.066   2.788
 2615SOL    HW2 8733   0.332   4.439   2.835
 2616SOL     OW 8734   0.335   4.237   2.873
 2616SOL    HW1 8735   0.291   4.156   2.849
 2616SOL    HW2 8736   0.410   4.243   2.813
 2617SOL     OW 8737   1.138   4.095   3.546
 2617SOL    HW1 8738   1.086   4.154   3.601
 2617SOL    HW2 8739   1.222   4.138   3.537
 2618SOL     OW 8740   1.160   3.927   3.331
 2618SOL    HW1 8741   1.151   3.988   3.404
 2618SOL    HW2 8742   1.199   3.980   3.261
 2619SOL     OW 8743   0.026   4.279   2.970
 2619SOL    HW1 8744   0.111   4.257   2.931
 2619SOL    HW2 8745   0.029   4.242   3.058
 2620SOL     OW 8746   0.176   4.236   3.557
 2620SOL    HW1 8747   0.263   4.217   3.520
 2620SOL    HW2 8748   0.148   4.316   3.513
 2621SOL     OW 8749   0.819   4.286   2.205
 2621SOL    HW1 8750   0.818   4.209   2.149
 2621SOL    HW2 8751   0.730   4.320   2.201
 2622SOL     OW 8752   1.637   4.319   3.050
 2622SOL    HW1 8753   1.632   4.260   3.126
 2622SOL    HW2 8754   1.725   4.304   3.015
 2623SOL     OW 8755   0.675   4.186   3.121
 2623SOL    HW1 8756   0.638   4.105   3.087
 2623SOL    HW2 8757   0.685   4.242   3.044
 2624SOL     OW 8758   0.486   4.222   2.051
 2624SOL    HW1 8759   0.518   4.309   2.076
 2624SOL    HW2 8760   0.392   4.235   2.036
 2625SOL     OW 8761   1.720   3.867   2.374
 2625SOL    HW1 8762   1.792   3.853   2.313
 2625SOL    HW2 8763   1.704   3.781   2.413
 2626SOL     OW 8764   1.280   0.137   2.541
 2626SOL    HW1 8765   1.338   0.062   2.549
 2626SOL    HW2 8766   1.330   0.201   2.490
 2627SOL     OW 8767   1.839   3.897   2.829
 2627SOL    HW1 8768   1.868   3.810   2.800
 2627SOL    HW2 8769   1.753   3.908   2.789
 2628SOL     OW 8770   0.268   4.042   2.583
 2628SOL    HW1 8771   0.191   4.089   2.553
 2628SOL    HW2 8772   0.255   4.030   2.677
 2629SOL     OW 8773   0.908   0.093   2.085
 2629SOL    HW1 8774   0.990   0.133   2.055
 2629SOL    HW2 8775   0.930   0.051   2.168
 2630SOL     OW 8776   1.066   0.302   2.601
 2630SOL    HW1 8777   0.986   0.286   2.553
 2630SOL    HW2 8778   1.128   0.238   2.568
 2631SOL     OW 8779   1.019   3.964   2.827
 2631SOL    HW1 8780   1.014   3.915   2.745
 2631SOL    HW2 8781   1.015   3.896   2.895
 2632SOL     OW 8782   1.720   4.114   3.242
 2632SOL    HW1 8783   1.791   4.178   3.239
 2632SOL    HW2 8784   1.750   4.043   3.186
 2633SOL     OW 8785   0.673   3.922   3.361
 2633SOL    HW1 8786   0.756   3.902   3.319
 2633SOL    HW2 8787   0.697   3.951   3.449
 2634SOL     OW 8788   0.068   4.045   1.895
 2634SOL    HW1 8789   4.474   4.063   1.888
 2634SOL    HW2 8790   0.109   4.130   1.881
 2635SOL     OW 8791   0.086   3.902   2.169
 2635SOL    HW1 8792   0.076   3.970   2.102
 2635SOL    HW2 8793   0.161   3.850   2.139
 2636SOL     OW 8794   0.725   4.285   3.563
 2636SOL    HW1 8795   0.730   4.334   3.645
 2636SOL    HW2 8796   0.751   4.196   3.587
 2637SOL     OW 8797   1.219   4.043   2.317
 2637SOL    HW1 8798   1.282   3.971   2.308
 2637SOL    HW2 8799   1.248   4.090   2.395
 2638SOL     OW 8800   1.762   4.089   3.510
 2638SOL    HW1 8801   1.744   4.099   3.416
 2638SOL    HW2 8802   1.692   4.030   3.541
 2639SOL     OW 8803   1.110   0.229   1.966
 2639SOL    HW1 8804   1.092   0.270   1.881
 2639SOL    HW2 8805   1.192   0.180   1.952
 2640SOL     OW 8806   1.815   3.909   3.100
 2640SOL    HW1 8807   1.823   3.815   3.115
 2640SOL    HW2 8808   1.823   3.919   3.005
 2641SOL     OW 8809   0.451   4.152   2.398
 2641SOL    HW1 8810   0.463   4.079   2.338
 2641SOL    HW2 8811   0.391   4.119   2.465
 2642SOL     OW 8812   0.322   4.259   3.138
 2642SOL    HW1 8813   0.375   4.192   3.182
 2642SOL    HW2 8814   0.334   4.242   3.045
 2643SOL     OW 8815   1.432   3.948   2.980
 2643SOL    HW1 8816   1.459   3.869   3.027
 2643SOL    HW2 8817   1.380   3.997   3.043
 2644SOL     OW 8818   1.008   3.744   3.007
 2644SOL    HW1 8819   0.954   3.676   2.968
 2644SOL    HW2 8820   1.096   3.706   3.008
 2645SOL     OW 8821   1.352   3.777   2.026
 2645SOL    HW1 8822   1.378   3.716   1.957
 2645SOL    HW2 8823   1.265   3.747   2.053
 2646SOL     OW 8824   1.300   4.176   2.544
 2646SOL    HW1 8825   1.259   4.261   2.558
 2646SOL    HW2 8826   1.299   4.135   2.630
 2647SOL     OW 8827   1.587   3.928   2.739
 2647SOL    HW1 8828   1.525   3.948   2.809
 2647SOL    HW2 8829   1.587   4.007   2.684
 2648SOL     OW 8830   0.231   4.284   3.834
 2648SOL    HW1 8831   0.165   4.318   3.894
 2648SOL    HW2 8832   0.214   4.327   3.751
 2649SOL     OW 8833   0.210   3.997   4.715
 2649SOL    HW1 8834   0.246   3.969   4.800
 2649SOL    HW2 8835   0.134   3.940   4.702
 2650SOL     OW 8836   0.001   4.099   4.355
 2650SOL    HW1 8837   4.421   4.130   4.398
 2650SOL    HW2 8838   4.474   4.017   4.313
 2651SOL     OW 8839   1.732   4.335   3.961
 2651SOL    HW1 8840   1.732   4.322   3.866
 2651SOL    HW2 8841   1.733   4.246   3.998
 2652SOL     OW 8842   0.727   0.267   4.406
 2652SOL    HW1 8843   0.720   0.208   4.481
 2652SOL    HW2 8844   0.636   0.288   4.383
 2653SOL     OW 8845   0.443   4.120   5.213
 2653SOL    HW1 8846   0.525   4.069   5.216
 2653SOL    HW2 8847   0.374   4.055   5.223
 2654SOL     OW 8848   1.615   4.173   4.463
 2654SOL    HW1 8849   1.544   4.198   4.404
 2654SOL    HW2 8850   1.620   4.244   4.527
 2655SOL     OW 8851   1.597   3.846   5.193
 2655SOL    HW1 8852   1.596   3.926   5.141
 2655SOL    HW2 8853   1.584   3.876   5.283
 2656SOL     OW 8854   0.165   4.323   4.357
 2656SOL    HW1 8855   0.105   4.251   4.336
 2656SOL    HW2 8856   0.119   4.401   4.328
 2657SOL     OW 8857   0.119   0.000   5.313
 2657SOL    HW1 8858   0.213   4.484   5.315
 2657SOL    HW2 8859   0.109   0.085   5.270
 2658SOL     OW 8860   0.814   3.723   4.231
 2658SOL    HW1 8861   0.854   3.809   4.214
 2658SOL    HW2 8862   0.721   3.742   4.241
 2659SOL     OW 8863   0.329   3.979   5.521
 2659SOL    HW1 8864   0.375   4.057   5.552
 2659SOL    HW2 8865   0.241   3.988   5.557
 2660SOL     OW 8866   1.278   4.071   4.656
 2660SOL    HW1 8867   1.189   4.037   4.666
 2660SOL    HW2 8868   1.329   4.019   4.719
 2661SOL     OW 8869   0.825   4.307   5.173
 2661SOL    HW1 8870   0.785   4.312   5.260
 2661SOL    HW2 8871   0.758   4.267   5.117
 2662SOL     OW 8872   1.396   4.199   5.400
 2662SOL    HW1 8873   1.396   4.243   5.486
 2662SOL    HW2 8874   1.455   4.125   5.411
 2663SOL     OW 8875   0.997   4.148   4.958
 2663SOL    HW1 8876   0.924   4.169   5.016
 2663SOL    HW2 8877   0.959   4.089   4.893
 2664SOL     OW 8878   1.057   4.410   4.143
 2664SOL    HW1 8879   1.056   4.447   4.231
 2664SOL    HW2 8880   0.969   4.373   4.131
 2665SOL     OW 8881   0.053   0.055   4.572
 2665SOL    HW1 8882   0.144   0.025   4.577
 2665SOL    HW2 8883   0.049   0.105   4.490
 2666SOL     OW 8884   0.888   4.063   3.915
 2666SOL    HW1 8885   0.931   4.126   3.856
 2666SOL    HW2 8886   0.906   3.978   3.876
 2667SOL     OW 8887   1.706   4.298   5.552
 2667SOL    HW1 8888   1.718   4.387   5.519
 2667SOL    HW2 8889   1.730   4.242   5.479
 2668SOL     OW 8890   0.552   3.906   4.616
 2668SOL    HW1 8891   0.554   3.936   4.707
 2668SOL    HW2 8892   0.548   3.987   4.565
 2669SOL     OW 8893   1.489   4.463   4.461
 2669SOL    HW1 8894   1.470   4.409   4.537
 2669SOL    HW2 8895   1.529   0.042   4.497
 2670SOL     OW 8896   0.189   4.000   5.210
 2670SOL    HW1 8897   0.137   4.080   5.218
 2670SOL    HW2 8898   0.184   3.959   5.297
 2671SOL     OW 8899   1.401   3.831   4.155
 2671SOL    HW1 8900   1.390   3.806   4.063
 2671SOL    HW2 8901   1.495   3.841   4.166
 2672SOL     OW 8902   0.350   4.378   4.130
 2672SOL    HW1 8903   0.396   4.306   4.172
 2672SOL    HW2 8904   0.298   4.417   4.200
 2673SOL     OW 8905   1.537   3.950   5.449
 2673SOL    HW1 8906   1.545   3.971   5.542
 2673SOL    HW2 8907   1.468   3.883   5.446
 2674SOL     OW 8908   0.633   3.850   3.827
 2674SOL    HW1 8909   0.702   3.787   3.843
 2674SOL    HW2 8910   0.585   3.816   3.752
 2675SOL     OW 8911   0.767   4.001   5.478
 2675SOL    HW1 8912   0.842   3.941   5.480
 2675SOL    HW2 8913   0.717   3.981   5.557
 2676SOL     OW 8914   1.344   4.311   5.153
 2676SOL    HW1 8915   1.367   4.274   5.238
 2676SOL    HW2 8916   1.384   4.398   5.153
 2677SOL     OW 8917   0.922   4.236   4.623
 2677SOL    HW1 8918   0.901   4.220   4.531
 2677SOL    HW2 8919   0.962   4.154   4.653
 2678SOL     OW 8920   0.551   3.786   4.227
 2678SOL    HW1 8921   0.470   3.784   4.278
 2678SOL    HW2 8922   0.543   3.865   4.173
 2679SOL     OW 8923   0.294   3.770   3.902
 2679SOL    HW1 8924   0.355   3.838   3.874
 2679SOL    HW2 8925   0.349   3.705   3.946
 2680SOL     OW 8926   0.936   3.971   4.187
 2680SOL    HW1 8927   0.909   4.009   4.104
 2680SOL    HW2 8928   1.031   3.982   4.189
 2681SOL     OW 8929   1.076   4.396   5.241
 2681SOL    HW1 8930   0.993   4.365   5.205
 2681SOL    HW2 8931   1.142   4.354   5.185
 2682SOL     OW 8932   1.025   4.268   3.749
 2682SOL    HW1 8933   1.007   4.356   3.715
 2682SOL    HW2 8934   1.088   4.282   3.819
 2683SOL     OW 8935   0.086   4.258   5.134
 2683SOL    HW1 8936   0.158   4.271   5.073
 2683SOL    HW2 8937   0.053   4.346   5.151
 2684SOL     OW 8938   0.561   3.950   4.888
 2684SOL    HW1 8939   0.600   3.870   4.922
 2684SOL    HW2 8940   0.470   3.947   4.917
 2685SOL     OW 8941   0.871   4.189   4.362
 2685SOL    HW1 8942   0.833   4.247   4.296
 2685SOL    HW2 8943   0.888   4.108   4.315
 2686SOL     OW 8944   1.014   3.777   4.476
 2686SOL    HW1 8945   0.956   3.769   4.401
 2686SOL    HW2 8946   0.994   3.701   4.531
 2687SOL     OW 8947   1.477   4.312   4.691
 2687SOL    HW1 8948   1.420   4.238   4.712
 2687SOL    HW2 8949   1.528   4.325   4.771
 2688SOL     OW 8950   1.401   4.296   3.796
 2688SOL    HW1 8951   1.340   4.269   3.865
 2688SOL    HW2 8952   1.484   4.256   3.822
 2689SOL     OW 8953   0.523   3.985   4.041
 2689SOL    HW1 8954   0.567   3.936   3.971
 2689SOL    HW2 8955   0.511   4.073   4.006
 2690SOL     OW 8956   0.917   3.823   5.121
 2690SOL    HW1 8957   0.941   3.802   5.031
 2690SOL    HW2 8958   0.997   3.861   5.159
 2691SOL     OW 8959   0.440   0.004   4.983
 2691SOL    HW1 8960   0.496   0.005   5.061
 2691SOL    HW2 8961   0.401   4.416   4.983
 2692SOL     OW 8962   1.266   4.100   4.997
 2692SOL    HW1 8963   1.300   4.178   5.043
 2692SOL    HW2 8964   1.177   4.124   4.972
 2693SOL     OW 8965   0.557   4.254   4.588
 2693SOL    HW1 8966   0.575   4.299   4.505
 2693SOL    HW2 8967   0.621   4.290   4.649
 2694SOL     OW 8968   1.571   4.340   4.200
 2694SOL    HW1 8969   1.541   4.406   4.262
 2694SOL    HW2 8970   1.630   4.387   4.141
 2695SOL     OW 8971   0.996   3.844   5.480
 2695SOL    HW1 8972   1.050   3.917   5.450
 2695SOL    HW2 8973   1.045   3.766   5.454
 2696SOL     OW 8974   0.498   3.767   5.470
 2696SOL    HW1 8975   0.457   3.711   5.405
 2696SOL    HW2 8976   0.437   3.841   5.480
 2697SOL     OW 8977   1.211   4.255   3.989
 2697SOL    HW1 8978   1.221   4.175   4.042
 2697SOL    HW2 8979   1.162   4.314   4.046
 2698SOL     OW 8980   0.300   3.924   4.968
 2698SOL    HW1 8981   0.261   3.952   5.051
 2698SOL    HW2 8982   0.287   3.829   4.966
 2699SOL     OW 8983   0.732   4.360   4.772
 2699SOL    HW1 8984   0.805   4.324   4.721
 2699SOL    HW2 8985   0.738   4.454   4.757
 2700SOL     OW 8986   1.750   0.134   5.579
 2700SOL    HW1 8987   1.687   0.148   5.509
 2700SOL    HW2 8988   1.705   0.164   5.658
 2701SOL     OW 8989   0.309   3.793   4.343
 2701SOL    HW1 8990   0.286   3.882   4.370
 2701SOL    HW2 8991   0.305   3.741   4.423
 2702SOL     OW 8992   1.612   4.091   4.093
 2702SOL    HW1 8993   1.641   4.030   4.162
 2702SOL    HW2 8994   1.590   4.171   4.140
 2703SOL     OW 8995   1.528   3.999   3.851
 2703SOL    HW1 8996   1.465   3.932   3.877
 2703SOL    HW2 8997   1.562   4.033   3.933
 2704SOL     OW 8998   0.319   0.017   4.643
 2704SOL    HW1 8999   0.401   0.065   4.650
 2704SOL    HW2 9000   0.332   4.439   4.697
 2705SOL     OW 9001   0.335   4.237   4.735
 2705SOL    HW1 9002   0.291   4.156   4.711
 2705SOL    HW2 9003   0.410   4.242   4.675
 2706SOL     OW 9004   1.138   4.095   5.408
 2706SOL    HW1 9005   1.086   4.154   5.463
 2706SOL    HW2 9006   1.222   4.139   5.399
 2707SOL     OW 9007   1.160   3.928   5.193
 2707SOL    HW1 9008   1.151   3.988   5.266
 2707SOL    HW2 9009   1.199   3.980   5.123
 2708SOL     OW 9010   0.026   4.279   4.832
 2708SOL    HW1 9011   0.111   4.257   4.793
 2708SOL    HW2 9012   0.029   4.241   4.920
 2709SOL     OW 9013   0.176   4.236   5.419
 2709SOL    HW1 9014   0.263   4.217   5.382
 2709SOL    HW2 9015   0.148   4.316   5.375
 2710SOL     OW 9016   0.819   4.286   4.068
 2710SOL    HW1 9017   0.818   4.209   4.011
 2710SOL    HW2 9018   0.730   4.320   4.063
 2711SOL     OW 9019   1.637   4.318   4.912
 2711SOL    HW1 9020   1.632   4.260   4.988
 2711SOL    HW2 9021   1.725   4.304   4.877
 2712SOL     OW 9022   0.676   4.186   4.983
 2712SOL    HW1 9023   0.638   4.105   4.949
 2712SOL    HW2 9024   0.685   4.242   4.906
 2713SOL     OW 9025   0.486   4.222   3.913
 2713SOL    HW1 9026   0.518   4.309   3.938
 2713SOL    HW2 9027   0.392   4.235   3.898
 2714SOL     OW 9028   1.720   3.867   4.237
 2714SOL    HW1 9029   1.792   3.854   4.175
 2714SOL    HW2 9030   1.704   3.781   4.275
 2715SOL     OW 9031   1.280   0.138   4.403
 2715SOL    HW1 9032   1.338   0.062   4.411
 2715SOL    HW2 9033   1.330   0.201   4.352
 2716SOL     OW 9034   1.839   3.895   4.692
 2716SOL    HW1 9035   1.868   3.809   4.661
 2716SOL    HW2 9036   1.754   3.908   4.652
 2717SOL     OW 9037   0.268   4.041   4.445
 2717SOL    HW1 9038   0.191   4.089   4.415
 2717SOL    HW2 9039   0.255   4.030   4.539
 2718SOL     OW 9040   0.908   0.093   3.947
 2718SOL    HW1 9041   0.990   0.133   3.917
 2718SOL    HW2 9042   0.930   0.051   4.030
 2719SOL     OW 9043   1.066   0.302   4.464
 2719SOL    HW1 9044   0.986   0.286   4.415
 2719SOL    HW2 9045   1.128   0.238   4.430
 2720SOL     OW 9046   1.019   3.964   4.689
 2720SOL    HW1 9047   1.014   3.915   4.607
 2720SOL    HW2 9048   1.015   3.896   4.757
 2721SOL     OW 9049   1.720   4.114   5.104
 2721SOL    HW1 9050   1.791   4.179   5.102
 2721SOL    HW2 9051   1.750   4.043   5.048
 2722SOL     OW 9052   0.673   3.922   5.223
 2722SOL    HW1 9053   0.757   3.902   5.181
 2722SOL    HW2 9054   0.697   3.951   5.311
 2723SOL     OW 9055   0.068   4.045   3.757
 2723SOL    HW1 9056   4.474   4.063   3.750
 2723SOL    HW2 9057   0.109   4.130   3.743
 2724SOL     OW 9058   0.086   3.902   4.030
 2724SOL    HW1 9059   0.076   3.970   3.964
 2724SOL    HW2 9060   0.161   3.850   4.001
 2725SOL     OW 9061   0.725   4.285   5.425
 2725SOL    HW1 9062   0.730   4.334   5.507
 2725SOL    HW2 9063   0.751   4.196   5.449
 2726SOL     OW 9064   1.219   4.043   4.179
 2726SOL    HW1 9065   1.282   3.971   4.170
 2726SOL    HW2 9066   1.248   4.090   4.257
 2727SOL     OW 9067   1.762   4.089   5.372
 2727SOL    HW1 9068   1.744   4.099   5.278
 2727SOL    HW2 9069   1.692   4.030   5.403
 2728SOL     OW 9070   1.110   0.228   3.828
 2728SOL    HW1 9071   1.092   0.270   3.743
 2728SOL    HW2 9072   1.192   0.181   3.814
 2729SOL     OW 9073   1.815   3.909   4.962
 2729SOL    HW1 9074   1.823   3.815   4.977
 2729SOL    HW2 9075   1.823   3.919   4.867
 2730SOL     OW 9076   0.451   4.152   4.260
 2730SOL    HW1 9077   0.463   4.079   4.200
 2730SOL    HW2 9078   0.391   4.119   4.327
 2731SOL     OW 9079   0.322   4.259   5.000
 2731SOL    HW1 9080   0.375   4.192   5.044
 2731SOL    HW2 9081   0.334   4.242   4.907
 2732SOL     OW 9082   1.432   3.947   4.842
 2732SOL    HW1 9083   1.458   3.869   4.890
 2732SOL    HW2 9084   1.380   3.997   4.905
 2733SOL     OW 9085   1.008   3.744   4.869
 2733SOL    HW1 9086   0.954   3.676   4.830
 2733SOL    HW2 9087   1.096   3.706   4.870
 2734SOL     OW 9088   1.352   3.777   3.888
 2734SOL    HW1 9089   1.379   3.716   3.819
 2734SOL    HW2 9090   1.265   3.747   3.915
 2735SOL     OW 9091   1.299   4.176   4.406
 2735SOL    HW1 9092   1.259   4.261   4.420
 2735SOL    HW2 9093   1.299   4.135   4.493
 2736SOL     OW 9094   1.587   3.928   4.601
 2736SOL    HW1 9095   1.525   3.948   4.671
 2736SOL    HW2 9096   1.588   4.007   4.546
 2737SOL     OW 9097   0.231   4.284   5.696
 2737SOL    HW1 9098   0.165   4.318   5.756
 2737SOL    HW2 9099   0.214   4.327   5.613
 2738SOL     OW 9100   0.210   3.997   6.577
 2738SOL    HW1 9101   0.246   3.969   6.662
 2738SOL    HW2 9102   0.134   3.940   6.564
 2739SOL     OW 9103   0.001   4.099   6.217
 2739SOL    HW1 9104   4.421   4.130   6.260
 2739SOL    HW2 9105   4.475   4.016   6.175
 2740SOL     OW 9106   1.732   4.335   5.823
 2740SOL    HW1 9107   1.732   4.321   5.728
 2740SOL    HW2 9108   1.733   4.247   5.860
 2741SOL     OW 9109   0.727   0.267   6.268
 2741SOL    HW1 9110   0.720   0.208   6.343
 2741SOL    HW2 9111   0.636   0.287   6.245
 2742SOL     OW 9112   0.444   4.120   7.075
 2742SOL    HW1 9113   0.525   4.069   7.078
 2742SOL    HW2 9114   0.374   4.055   7.085
 2743SOL     OW 9115   1.615   4.173   6.325
 2743SOL    HW1 9116   1.544   4.199   6.266
 2743SOL    HW2 9117   1.620   4.243   6.390
 2744SOL     OW 9118   1.597   3.846   7.055
 2744SOL    HW1 9119   1.596   3.926   7.003
 2744SOL    HW2 9120   1.583   3.876   7.145
 2745SOL     OW 9121   0.165   4.323   6.219
 2745SOL    HW1 9122   0.105   4.251   6.198
 2745SOL    HW2 9123   0.119   4.401   6.190
 2746SOL     OW 9124   0.119   0.000   7.175
 2746SOL    HW1 9125   0.213   4.484   7.177
 2746SOL    HW2 9126   0.109   0.085   7.132
 2747SOL     OW 9127   0.814   3.723   6.092
 2747SOL    HW1 9128   0.854   3.809   6.076
 2747SOL    HW2 9129   0.721   3.741   6.103
 2748SOL     OW 9130   0.329   3.979   7.383
 2748SOL    HW1 9131   0.375   4.057   7.414
 2748SOL    HW2 9132   0.241   3.988   7.419
 2749SOL     OW 9133   1.278   4.071   6.518
 2749SOL    HW1 9134   1.189   4.037   6.528
 2749SOL    HW2 9135   1.330   4.020   6.580
 2750SOL     OW 9136   0.825   4.307   7.035
 2750SOL    HW1 9137   0.785   4.312   7.122
 2750SOL    HW2 9138   0.758   4.267   6.980
 2751SOL     OW 9139   1.396   4.199   7.262
 2751SOL    HW1 9140   1.397   4.243   7.348
 2751SOL    HW2 9141   1.455   4.125   7.273
 2752SOL     OW 9142   0.997   4.149   6.819
 2752SOL    HW1 9143   0.924   4.169   6.878
 2752SOL    HW2 9144   0.959   4.089   6.755
 2753SOL     OW 9145   1.057   4.410   6.005
 2753SOL    HW1 9146   1.056   4.447   6.093
 2753SOL    HW2 9147   0.969   4.373   5.993
 2754SOL     OW 9148   0.053   0.054   6.433
 2754SOL    HW1 9149   0.144   0.025   6.439
 2754SOL    HW2 9150   0.049   0.105   6.352
 2755SOL     OW 9151   0.888   4.063   5.777
 2755SOL    HW1 9152   0.931   4.126   5.719
 2755SOL    HW2 9153   0.906   3.978   5.738
 2756SOL     OW 9154   1.706   4.298   7.415
 2756SOL    HW1 9155   1.718   4.387   7.381
 2756SOL    HW2 9156   1.730   4.241   7.341
 2757SOL     OW 9157   0.552   3.906   6.478
 2757SOL    HW1 9158   0.554   3.936   6.569
 2757SOL    HW2 9159   0.548   3.987   6.427
 2758SOL     OW 9160   1.489   4.463   6.323
 2758SOL    HW1 9161   1.470   4.409   6.399
 2758SOL    HW2 9162   1.529   0.042   6.359
 2759SOL     OW 9163   0.189   4.000   7.072
 2759SOL    HW1 9164   0.137   4.080   7.080
 2759SOL    HW2 9165   0.184   3.959   7.159
 2760SOL     OW 9166   1.401   3.831   6.017
 2760SOL    HW1 9167   1.391   3.806   5.925
 2760SOL    HW2 9168   1.495   3.841   6.029
 2761SOL     OW 9169   0.351   4.378   5.992
 2761SOL    HW1 9170   0.396   4.306   6.035
 2761SOL    HW2 9171   0.298   4.417   6.062
 2762SOL     OW 9172   1.537   3.950   7.311
 2762SOL    HW1 9173   1.545   3.972   7.404
 2762SOL    HW2 9174   1.469   3.882   7.308
 2763SOL     OW 9175   0.633   3.851   5.689
 2763SOL    HW1 9176   0.702   3.787   5.705
 2763SOL    HW2 9177   0.585   3.816   5.614
 2764SOL     OW 9178   0.767   4.002   7.340
 2764SOL    HW1 9179   0.842   3.941   7.342
 2764SOL    HW2 9180   0.717   3.980   7.419
 2765SOL     OW 9181   1.344   4.311   7.015
 2765SOL    HW1 9182   1.367   4.274   7.100
 2765SOL    HW2 9183   1.384   4.398   7.015
 2766SOL     OW 9184   0.922   4.236   6.485
 2766SOL    HW1 9185   0.901   4.220   6.393
 2766SOL    HW2 9186   0.962   4.154   6.515
 2767SOL     OW 9187   0.551   3.786   6.089
 2767SOL    HW1 9188   0.470   3.784   6.141
 2767SOL    HW2 9189   0.543   3.865   6.035
 2768SOL     OW 9190   0.294   3.770   5.764
 2768SOL    HW1 9191   0.355   3.838   5.736
 2768SOL    HW2 9192   0.349   3.705   5.808
 2769SOL     OW 9193   0.936   3.971   6.049
 2769SOL    HW1 9194   0.909   4.009   5.966
 2769SOL    HW2 9195   1.031   3.982   6.051
 2770SOL     OW 9196   1.076   4.396   7.102
 2770SOL    HW1 9197   0.993   4.365   7.067
 2770SOL    HW2 9198   1.142   4.354   7.047
 2771SOL     OW 9199   1.025   4.268   5.611
 2771SOL    HW1 9200   1.007   4.356   5.577
 2771SOL    HW2 9201   1.088   4.282   5.681
 2772SOL     OW 9202   0.086   4.258   6.996
 2772SOL    HW1 9203   0.158   4.271   6.935
 2772SOL    HW2 9204   0.053   4.347   7.013
 2773SOL     OW 9205   0.561   3.950   6.750
 2773SOL    HW1 9206   0.600   3.870   6.785
 2773SOL    HW2 9207   0.470   3.946   6.779
 2774SOL     OW 9208   0.871   4.189   6.224
 2774SOL    HW1 9209   0.833   4.247   6.158
 2774SOL    HW2 9210   0.888   4.108   6.177
 2775SOL     OW 9211   1.014   3.777   6.338
 2775SOL    HW1 9212   0.956   3.768   6.263
 2775SOL    HW2 9213   0.994   3.701   6.393
 2776SOL     OW 9214   1.477   4.312   6.553
 2776SOL    HW1 9215   1.420   4.238   6.573
 2776SOL    HW2 9216   1.529   4.325   6.633
 2777SOL     OW 9217   1.401   4.296   5.658
 2777SOL    HW1 9218   1.340   4.269   5.727
 2777SOL    HW2 9219   1.484   4.256   5.684
 2778SOL     OW 9220   0.523   3.985   5.903
 2778SOL    HW1 9221   0.567   3.937   5.833
 2778SOL    HW2 9222   0.511   4.073   5.868
 2779SOL     OW 9223   0.917   3.823   6.983
 2779SOL    HW1 9224   0.941   3.802   6.893
 2779SOL    HW2 9225   0.997   3.861   7.021
 2780SOL     OW 9226   0.440   0.004   6.845
 2780SOL    HW1 9227   0.497   0.005   6.923
 2780SOL    HW2 9228   0.402   4.416   6.845
 2781SOL     OW 9229   1.266   4.100   6.859
 2781SOL    HW1 9230   1.300   4.178   6.905
 2781SOL    HW2 9231   1.177   4.125   6.834
 2782SOL     OW 9232   0.557   4.254   6.450
 2782SOL    HW1 9233   0.575   4.299   6.367
 2782SOL    HW2 9234   0.621   4.290   6.512
 2783SOL     OW 9235   1.571   4.340   6.062
 2783SOL    HW1 9236   1.541   4.406   6.125
 2783SOL    HW2 9237   1.630   4.388   6.004
 2784SOL     OW 9238   0.996   3.844   7.342
 2784SOL    HW1 9239   1.051   3.917   7.312
 2784SOL    HW2 9240   1.045   3.766   7.316
 2785SOL     OW 9241   0.498   3.768   7.332
 2785SOL    HW1 9242   0.457   3.711   7.267
 2785SOL    HW2 9243   0.437   3.841   7.342
 2786SOL     OW 9244   1.211   4.255   5.851
 2786SOL    HW1 9245   1.221   4.175   5.904
 2786SOL    HW2 9246   1.162   4.314   5.908
 2787SOL     OW 9247   0.300   3.924   6.830
 2787SOL    HW1 9248   0.261   3.952   6.913
 2787SOL    HW2 9249   0.287   3.829   6.828
 2788SOL     OW 9250   0.732   4.360   6.633
 2788SOL    HW1 9251   0.805   4.324   6.583
 2788SOL    HW2 9252   0.738   4.454   6.620
 2789SOL     OW 9253   1.750   0.135   7.441
 2789SOL    HW1 9254   1.687   0.148   7.371
 2789SOL    HW2 9255   1.705   0.164   7.520
 2790SOL     OW 9256   0.309   3.794   6.205
 2790SOL    HW1 9257   0.286   3.882   6.232
 2790SOL    HW2 9258   0.305   3.741   6.285
 2791SOL     OW 9259   1.613   4.091   5.955
 2791SOL    HW1 9260   1.642   4.030   6.023
 2791SOL    HW2 9261   1.590   4.171   6.002
 2792SOL     OW 9262   1.528   3.999   5.713
 2792SOL    HW1 9263   1.465   3.932   5.739
 2792SOL    HW2 9264   1.562   4.033   5.795
 2793SOL     OW 9265   0.319   0.017   6.505
 2793SOL    HW1 9266   0.401   0.065   6.512
 2793SOL    HW2 9267   0.332   4.439   6.559
 2794SOL     OW 9268   0.335   4.237   6.597
 2794SOL    HW1 9269   0.291   4.156   6.573
 2794SOL    HW2 9270   0.410   4.242   6.537
 2795SOL     OW 9271   1.138   4.095   7.270
 2795SOL    HW1 9272   1.086   4.154   7.325
 2795SOL    HW2 9273   1.222   4.139   7.261
 2796SOL     OW 9274   1.160   3.928   7.055
 2796SOL    HW1 9275   1.151   3.989   7.128
 2796SOL    HW2 9276   1.199   3.980   6.985
 2797SOL     OW 9277   0.026   4.279   6.694
 2797SOL    HW1 9278   0.111   4.257   6.655
 2797SOL    HW2 9279   0.029   4.242   6.782
 2798SOL     OW 9280   0.176   4.236   7.281
 2798SOL    HW1 9281   0.263   4.217   7.245
 2798SOL    HW2 9282   0.148   4.316   7.237
 2799SOL     OW 9283   0.819   4.286   5.929
 2799SOL    HW1 9284   0.818   4.209   5.873
 2799SOL    HW2 9285   0.730   4.320   5.926
 2800SOL     OW 9286   1.637   4.319   6.774
 2800SOL    HW1 9287   1.632   4.260   6.850
 2800SOL    HW2 9288   1.725   4.304   6.739
 2801SOL     OW 9289   0.675   4.186   6.845
 2801SOL    HW1 9290   0.638   4.105   6.811
 2801SOL    HW2 9291   0.685   4.242   6.768
 2802SOL     OW 9292   0.486   4.223   5.775
 2802SOL    HW1 9293   0.518   4.309   5.800
 2802SOL    HW2 9294   0.392   4.235   5.760
 2803SOL     OW 9295   1.719   3.867   6.098
 2803SOL    HW1 9296   1.792   3.853   6.038
 2803SOL    HW2 9297   1.704   3.782   6.137
 2804SOL     OW 9298   1.280   0.137   6.265
 2804SOL    HW1 9299   1.337   0.062   6.273
 2804SOL    HW2 9300   1.330   0.201   6.214
 2805SOL     OW 9301   1.839   3.897   6.553
 2805SOL    HW1 9302   1.868   3.810   6.525
 2805SOL    HW2 9303   1.753   3.908   6.513
 2806SOL     OW 9304   0.268   4.042   6.307
 2806SOL    HW1 9305   0.190   4.089   6.277
 2806SOL    HW2 9306   0.255   4.030   6.401
 2807SOL     OW 9307   0.908   0.093   5.808
 2807SOL    HW1 9308   0.990   0.133   5.780
 2807SOL    HW2 9309   0.930   0.051   5.892
 2808SOL     OW 9310   1.067   0.302   6.325
 2808SOL    HW1 9311   0.986   0.286   6.277
 2808SOL    HW2 9312   1.128   0.238   6.292
 2809SOL     OW 9313   1.019   3.964   6.551
 2809SOL    HW1 9314   1.014   3.915   6.469
 2809SOL    HW2 9315   1.015   3.896   6.619
 2810SOL     OW 9316   1.720   4.114   6.966
 2810SOL    HW1 9317   1.791   4.178   6.963
 2810SOL    HW2 9318   1.750   4.043   6.910
 2811SOL     OW 9319   0.673   3.922   7.085
 2811SOL    HW1 9320   0.756   3.902   7.043
 2811SOL    HW2 9321   0.697   3.951   7.173
 2812SOL     OW 9322   0.068   4.045   5.619
 2812SOL    HW1 9323   4.474   4.063   5.612
 2812SOL    HW2 9324   0.109   4.130   5.605
 2813SOL     OW 9325   0.086   3.902   5.892
 2813SOL    HW1 9326   0.076   3.970   5.826
 2813SOL    HW2 9327   0.161   3.850   5.863
 2814SOL     OW 9328   0.725   4.285   7.287
 2814SOL    HW1 9329   0.730   4.334   7.369
 2814SOL    HW2 9330   0.751   4.196   7.311
 2815SOL     OW 9331   1.219   4.043   6.041
 2815SOL    HW1 9332   1.282   3.971   6.032
 2815SOL    HW2 9333   1.248   4.090   6.119
 2816SOL     OW 9334   1.762   4.089   7.234
 2816SOL    HW1 9335   1.744   4.099   7.140
 2816SOL    HW2 9336   1.693   4.030   7.265
 2817SOL     OW 9337   1.110   0.229   5.690
 2817SOL    HW1 9338   1.092   0.269   5.605
 2817SOL    HW2 9339   1.192   0.180   5.676
 2818SOL     OW 9340   1.815   3.909   6.824
 2818SOL    HW1 9341   1.823   3.815   6.839
 2818SOL    HW2 9342   1.823   3.919   6.729
 2819SOL     OW 9343   0.451   4.152   6.122
 2819SOL    HW1 9344   0.463   4.079   6.062
 2819SOL    HW2 9345   0.391   4.119   6.189
 2820SOL     OW 9346   0.322   4.259   6.862
 2820SOL    HW1 9347   0.374   4.192   6.906
 2820SOL    HW2 9348   0.334   4.242   6.769
 2821SOL     OW 9349   1.432   3.948   6.704
 2821SOL    HW1 9350   1.458   3.868   6.750
 2821SOL    HW2 9351   1.380   3.997   6.767
 2822SOL     OW 9352   1.008   3.744   6.731
 2822SOL    HW1 9353   0.954   3.676   6.692
 2822SOL    HW2 9354   1.096   3.706   6.732
 2823SOL     OW 9355   1.352   3.777   5.750
 2823SOL    HW1 9356   1.378   3.716   5.680
 2823SOL    HW2 9357   1.266   3.747   5.777
 2824SOL     OW 9358   1.300   4.176   6.268
 2824SOL    HW1 9359   1.258   4.261   6.282
 2824SOL    HW2 9360   1.299   4.134   6.354
 2825SOL     OW 9361   1.587   3.928   6.463
 2825SOL    HW1 9362   1.525   3.948   6.533
 2825SOL    HW2 9363   1.587   4.007   6.408
 2826SOL     OW 9364   0.232   4.284   7.559
 2826SOL    HW1 9365   0.165   4.318   7.618
 2826SOL    HW2 9366   0.214   4.327   7.475
 2827SOL     OW 9367   0.210   3.997   8.439
 2827SOL    HW1 9368   0.246   3.969   8.524
 2827SOL    HW2 9369   0.134   3.940   8.426
 2828SOL     OW 9370   0.001   4.099   8.079
 2828SOL    HW1 9371   4.421   4.130   8.122
 2828SOL    HW2 9372   4.475   4.016   8.037
 2829SOL     OW 9373   1.733   4.335   7.685
 2829SOL    HW1 9374   1.732   4.321   7.590
 2829SOL    HW2 9375   1.732   4.246   7.722
 2830SOL     OW 9376   0.727   0.267   8.130
 2830SOL    HW1 9377   0.720   0.208   8.205
 2830SOL    HW2 9378   0.636   0.288   8.108
 2831SOL     OW 9379   0.444   4.120   8.937
 2831SOL    HW1 9380   0.525   4.069   8.940
 2831SOL    HW2 9381   0.374   4.055   8.947
 2832SOL     OW 9382   1.615   4.173   8.187
 2832SOL    HW1 9383   1.544   4.198   8.128
 2832SOL    HW2 9384   1.620   4.243   8.252
 2833SOL     OW 9385   1.597   3.846   8.917
 2833SOL    HW1 9386   1.596   3.926   8.865
 2833SOL    HW2 9387   1.583   3.876   9.007
 2834SOL     OW 9388   0.165   4.323   8.081
 2834SOL    HW1 9389   0.105   4.251   8.060
 2834SOL    HW2 9390   0.119   4.401   8.052
 2835SOL     OW 9391   0.119   0.000   9.037
 2835SOL    HW1 9392   0.213   4.484   9.039
 2835SOL    HW2 9393   0.109   0.085   8.994
 2836SOL     OW 9394   0.814   3.723   7.954
 2836SOL    HW1 9395   0.854   3.809   7.938
 2836SOL    HW2 9396   0.721   3.742   7.965
 2837SOL     OW 9397   0.329   3.979   9.245
 2837SOL    HW1 9398   0.375   4.057   9.276
 2837SOL    HW2 9399   0.241   3.988   9.281
 2838SOL     OW 9400   1.278   4.071   8.380
 2838SOL    HW1 9401   1.189   4.037   8.390
 2838SOL    HW2 9402   1.329   4.020   8.442
 2839SOL     OW 9403   0.825   4.307   8.897
 2839SOL    HW1 9404   0.785   4.312   8.984
 2839SOL    HW2 9405   0.758   4.267   8.842
 2840SOL     OW 9406   1.396   4.199   9.124
 2840SOL    HW1 9407   1.396   4.243   9.210
 2840SOL    HW2 9408   1.455   4.125   9.135
 2841SOL     OW 9409   0.997   4.149   8.681
 2841SOL    HW1 9410   0.924   4.169   8.740
 2841SOL    HW2 9411   0.959   4.089   8.617
 2842SOL     OW 9412   1.057   4.410   7.867
 2842SOL    HW1 9413   1.056   4.447   7.955
 2842SOL    HW2 9414   0.969   4.373   7.855
 2843SOL     OW 9415   0.053   0.055   8.295
 2843SOL    HW1 9416   0.144   0.025   8.301
 2843SOL    HW2 9417   0.049   0.105   8.214
 2844SOL     OW 9418   0.888   4.063   7.639
 2844SOL    HW1 9419   0.931   4.126   7.580
 2844SOL    HW2 9420   0.906   3.978   7.600
 2845SOL     OW 9421   1.706   4.298   9.277
 2845SOL    HW1 9422   1.718   4.387   9.243
 2845SOL    HW2 9423   1.730   4.242   9.203
 2846SOL     OW 9424   0.552   3.906   8.340
 2846SOL    HW1 9425   0.554   3.936   8.431
 2846SOL    HW2 9426   0.548   3.987   8.289
 2847SOL     OW 9427   1.489   4.463   8.185
 2847SOL    HW1 9428   1.470   4.409   8.261
 2847SOL    HW2 9429   1.529   0.042   8.221
 2848SOL     OW 9430   0.189   4.000   8.934
 2848SOL    HW1 9431   0.137   4.080   8.942
 2848SOL    HW2 9432   0.184   3.959   9.021
 2849SOL     OW 9433   1.401   3.831   7.879
 2849SOL    HW1 9434   1.390   3.806   7.787
 2849SOL    HW2 9435   1.495   3.840   7.891
 2850SOL     OW 9436   0.350   4.378   7.854
 2850SOL    HW1 9437   0.396   4.306   7.896
 2850SOL    HW2 9438   0.298   4.417   7.924
 2851SOL     OW 9439   1.537   3.950   9.173
 2851SOL    HW1 9440   1.545   3.972   9.266
 2851SOL    HW2 9441   1.469   3.883   9.170
 2852SOL     OW 9442   0.633   3.850   7.551
 2852SOL    HW1 9443   0.702   3.786   7.567
 2852SOL    HW2 9444   0.585   3.816   7.476
 2853SOL     OW 9445   0.767   4.001   9.202
 2853SOL    HW1 9446   0.842   3.941   9.204
 2853SOL    HW2 9447   0.717   3.981   9.281
 2854SOL     OW 9448   1.344   4.311   8.877
 2854SOL    HW1 9449   1.367   4.274   8.962
 2854SOL    HW2 9450   1.383   4.398   8.877
 2855SOL     OW 9451   0.922   4.236   8.347
 2855SOL    HW1 9452   0.901   4.220   8.255
 2855SOL    HW2 9453   0.962   4.154   8.377
 2856SOL     OW 9454   0.551   3.786   7.951
 2856SOL    HW1 9455   0.470   3.784   8.002
 2856SOL    HW2 9456   0.543   3.865   7.897
 2857SOL     OW 9457   0.294   3.770   7.626
 2857SOL    HW1 9458   0.355   3.838   7.598
 2857SOL    HW2 9459   0.349   3.705   7.670
 2858SOL     OW 9460   0.936   3.971   7.911
 2858SOL    HW1 9461   0.909   4.009   7.828
 2858SOL    HW2 9462   1.031   3.982   7.913
 2859SOL     OW 9463   1.076   4.396   8.965
 2859SOL    HW1 9464   0.993   4.365   8.929
 2859SOL    HW2 9465   1.142   4.354   8.909
 2860SOL     OW 9466   1.025   4.268   7.473
 2860SOL    HW1 9467   1.007   4.356   7.439
 2860SOL    HW2 9468   1.088   4.282   7.543
 2861SOL     OW 9469   0.086   4.258   8.858
 2861SOL    HW1 9470   0.158   4.271   8.797
 2861SOL    HW2 9471   0.053   4.347   8.875
 2862SOL     OW 9472   0.561   3.950   8.612
 2862SOL    HW1 9473   0.600   3.870   8.646
 2862SOL    HW2 9474   0.470   3.947   8.641
 2863SOL     OW 9475   0.871   4.189   8.086
 2863SOL    HW1 9476   0.833   4.247   8.020
 2863SOL    HW2 9477   0.888   4.108   8.039
 2864SOL     OW 9478   1.014   3.777   8.200
 2864SOL    HW1 9479   0.956   3.768   8.125
 2864SOL    HW2 9480   0.994   3.701   8.255
 2865SOL     OW 9481   1.477   4.312   8.415
 2865SOL    HW1 9482   1.420   4.238   8.435
 2865SOL    HW2 9483   1.529   4.325   8.495
 2866SOL     OW 9484   1.401   4.296   7.521
 2866SOL    HW1 9485   1.340   4.269   7.589
 2866SOL    HW2 9486   1.484   4.255   7.546
 2867SOL     OW 9487   0.523   3.985   7.765
 2867SOL    HW1 9488   0.567   3.936   7.695
 2867SOL    HW2 9489   0.511   4.073   7.730
 2868SOL     OW 9490   0.917   3.823   8.845
 2868SOL    HW1 9491   0.941   3.802   8.755
 2868SOL    HW2 9492   0.997   3.861   8.883
 2869SOL     OW 9493   0.440   0.004   8.707
 2869SOL    HW1 9494   0.497   0.005   8.785
 2869SOL    HW2 9495   0.402   4.416   8.707
 2870SOL     OW 9496   1.266   4.100   8.721
 2870SOL    HW1 9497   1.300   4.178   8.767
 2870SOL    HW2 9498   1.177   4.125   8.696
 2871SOL     OW 9499   0.557   4.254   8.312
 2871SOL    HW1 9500   0.575   4.299   8.229
 2871SOL    HW2 9501   0.621   4.290   8.373
 2872SOL     OW 9502   1.571   4.340   7.924
 2872SOL    HW1 9503   1.541   4.406   7.987
 2872SOL    HW2 9504   1.630   4.388   7.866
 2873SOL     OW 9505   0.996   3.844   9.204
 2873SOL    HW1 9506   1.051   3.917   9.174
 2873SOL    HW2 9507   1.045   3.766   9.178
 2874SOL     OW 9508   0.498   3.768   9.194
 2874SOL    HW1 9509   0.457   3.711   9.129
 2874SOL    HW2 9510   0.437   3.841   9.204
 2875SOL     OW 9511   1.211   4.255   7.713
 2875SOL    HW1 9512   1.221   4.175   7.765
 2875SOL    HW2 9513   1.162   4.314   7.770
 2876SOL     OW 9514   0.300   3.924   8.692
 2876SOL    HW1 9515   0.261   3.952   8.775
 2876SOL    HW2 9516   0.287   3.829   8.690
 2877SOL     OW 9517   0.732   4.360   8.496
 2877SOL    HW1 9518   0.805   4.324   8.445
 2877SOL    HW2 9519   0.738   4.454   8.482
 2878SOL     OW 9520   1.750   0.134   9.303
 2878SOL    HW1 9521   1.687   0.148   9.233
 2878SOL    HW2 9522   1.705   0.163   9.382
 2879SOL     OW 9523   0.309   3.793   8.067
 2879SOL    HW1 9524   0.286   3.882   8.094
 2879SOL    HW2 9525   0.305   3.741   8.147
 2880SOL     OW 9526   1.613   4.091   7.817
 2880SOL    HW1 9527   1.642   4.030   7.885
 2880SOL    HW2 9528   1.590   4.171   7.865
 2881SOL     OW 9529   1.528   3.999   7.575
 2881SOL    HW1 9530   1.465   3.932   7.601
 2881SOL    HW2 9531   1.562   4.033   7.658
 2882SOL     OW 9532   0.319   0.017   8.367
 2882SOL    HW1 9533   0.401   0.065   8.374
 2882SOL    HW2 9534   0.332   4.439   8.421
 2883SOL     OW 9535   0.335   4.237   8.459
 2883SOL    HW1 9536   0.291   4.156   8.435
 2883SOL    HW2 9537   0.410   4.242   8.399
 2884SOL     OW 9538   1.138   4.095   9.132
 2884SOL    HW1 9539   1.086   4.154   9.187
 2884SOL    HW2 9540   1.222   4.139   9.123
 2885SOL     OW 9541   1.160   3.927   8.917
 2885SOL    HW1 9542   1.151   3.988   8.990
 2885SOL    HW2 9543   1.199   3.980   8.847
 2886SOL     OW 9544   0.026   4.279   8.556
 2886SOL    HW1 9545   0.111   4.257   8.517
 2886SOL    HW2 9546   0.029   4.242   8.644
 2887SOL     OW 9547   0.176   4.236   9.143
 2887SOL    HW1 9548   0.263   4.217   9.106
 2887SOL    HW2 9549   0.148   4.316   9.099
 2888SOL     OW 9550   0.819   4.286   7.791
 2888SOL    HW1 9551   0.818   4.209   7.735
 2888SOL    HW2 9552   0.730   4.320   7.787
 2889SOL     OW 9553   1.637   4.319   8.636
 2889SOL    HW1 9554   1.632   4.260   8.712
 2889SOL    HW2 9555   1.725   4.304   8.601
 2890SOL     OW 9556   0.675   4.186   8.707
 2890SOL    HW1 9557   0.638   4.105   8.673
 2890SOL    HW2 9558   0.685   4.242   8.630
 2891SOL     OW 9559   0.486   4.223   7.637
 2891SOL    HW1 9560   0.518   4.309   7.662
 2891SOL    HW2 9561   0.392   4.235   7.622
 2892SOL     OW 9562   1.720   3.868   7.960
 2892SOL    HW1 9563   1.792   3.853   7.900
 2892SOL    HW2 9564   1.704   3.782   7.999
 2893SOL     OW 9565   1.280   0.137   8.127
 2893SOL    HW1 9566   1.338   0.062   8.135
 2893SOL    HW2 9567   1.330   0.201   8.076
 2894SOL     OW 9568   1.839   3.897   8.415
 2894SOL    HW1 9569   1.868   3.810   8.387
 2894SOL    HW2 9570   1.753   3.908   8.375
 2895SOL     OW 9571   0.268   4.042   8.169
 2895SOL    HW1 9572   0.191   4.089   8.139
 2895SOL    HW2 9573   0.255   4.030   8.263
 2896SOL     OW 9574   0.908   0.093   7.671
 2896SOL    HW1 9575   0.990   0.133   7.641
 2896SOL    HW2 9576   0.930   0.051   7.754
 2897SOL     OW 9577   1.066   0.302   8.187
 2897SOL    HW1 9578   0.986   0.286   8.139
 2897SOL    HW2 9579   1.128   0.238   8.154
 2898SOL     OW 9580   1.019   3.964   8.413
 2898SOL    HW1 9581   1.014   3.915   8.331
 2898SOL    HW2 9582   1.015   3.896   8.481
 2899SOL     OW 9583   1.720   4.114   8.828
 2899SOL    HW1 9584   1.791   4.178   8.825
 2899SOL    HW2 9585   1.750   4.043   8.772
 2900SOL     OW 9586   0.673   3.922   8.947
 2900SOL    HW1 9587   0.757   3.902   8.905
 2900SOL    HW2 9588   0.697   3.951   9.035
 2901SOL     OW 9589   0.068   4.045   7.481
 2901SOL    HW1 9590   4.474   4.063   7.474
 2901SOL    HW2 9591   0.109   4.130   7.467
 2902SOL     OW 9592   0.086   3.902   7.754
 2902SOL    HW1 9593   0.076   3.970   7.688
 2902SOL    HW2 9594   0.161   3.850   7.725
 2903SOL     OW 9595   0.725   4.285   9.149
 2903SOL    HW1 9596   0.730   4.334   9.231
 2903SOL    HW2 9597   0.751   4.196   9.173
 2904SOL     OW 9598   1.219   4.043   7.903
 2904SOL    HW1 9599   1.282   3.971   7.894
 2904SOL    HW2 9600   1.248   4.090   7.981
 2905SOL     OW 9601   1.762   4.089   9.096
 2905SOL    HW1 9602   1.744   4.099   9.002
 2905SOL    HW2 9603   1.692   4.030   9.127
 2906SOL     OW 9604   1.110   0.229   7.552
 2906SOL    HW1 9605   1.092   0.269   7.467
 2906SOL    HW2 9606   1.192   0.180   7.538
 2907SOL     OW 9607   1.815   3.909   8.686
 2907SOL    HW1 9608   1.823   3.815   8.701
 2907SOL    HW2 9609   1.823   3.919   8.591
 2908SOL     OW 9610   0.451   4.152   7.984
 2908SOL    HW1 9611   0.463   4.079   7.924
 2908SOL    HW2 9612   0.391   4.119   8.051
 2909SOL     OW 9613   0.322   4.259   8.724
 2909SOL    HW1 9614   0.374   4.192   8.768
 2909SOL    HW2 9615   0.334   4.242   8.631
 2910SOL     OW 9616   1.432   3.948   8.566
 2910SOL    HW1 9617   1.459   3.869   8.613
 2910SOL    HW2 9618   1.380   3.997   8.629
 2911SOL     OW 9619   1.008   3.744   8.593
 2911SOL    HW1 9620   0.954   3.676   8.554
 2911SOL    HW2 9621   1.096   3.706   8.594
 2912SOL     OW 9622   1.352   3.777   7.612
 2912SOL    HW1 9623   1.379   3.716   7.544
 2912SOL    HW2 9624   1.265   3.747   7.639
 2913SOL     OW 9625   1.300   4.176   8.130
 2913SOL    HW1 9626   1.258   4.261   8.144
 2913SOL    HW2 9627   1.299   4.135   8.216
 2914SOL     OW 9628   1.587   3.928   8.325
 2914SOL    HW1 9629   1.525   3.948   8.395
 2914SOL    HW2 9630   1.587   4.007   8.270
 2915SOL     OW 9631   0.231   4.284   9.420
 2915SOL    HW1 9632   0.165   4.318   9.480
 2915SOL    HW2 9633   0.214   4.327   9.337
 2916SOL     OW 9634   0.212   3.996  10.301
 2916SOL    HW1 9635   0.247   3.971  10.386
 2916SOL    HW2 9636   0.134   3.941  10.289
 2917SOL     OW 9637   0.000   4.099   9.941
 2917SOL    HW1 9638   4.421   4.130   9.984
 2917SOL    HW2 9639   4.475   4.016   9.899
 2918SOL     OW 9640   1.733   4.335   9.547
 2918SOL    HW1 9641   1.732   4.321   9.452
 2918SOL    HW2 9642   1.732   4.246   9.584
 2919SOL     OW 9643   0.727   0.267   9.992
 2919SOL    HW1 9644   0.720   0.208  10.067
 2919SOL    HW2 9645   0.636   0.288   9.970
 2920SOL     OW 9646   0.446   4.124  10.792
 2920SOL    HW1 9647   0.524   4.069  10.800
 2920SOL    HW2 9648   0.374   4.065  10.815
 2921SOL     OW 9649   1.615   4.173  10.049
 2921SOL    HW1 9650   1.544   4.199   9.990
 2921SOL    HW2 9651   1.620   4.244  10.113
 2922SOL     OW 9652   1.589   3.840  10.779
 2922SOL    HW1 9653   1.599   3.920  10.728
 2922SOL    HW2 9654   1.589   3.869  10.870
 2923SOL     OW 9655   0.165   4.322   9.942
 2923SOL    HW1 9656   0.105   4.251   9.922
 2923SOL    HW2 9657   0.119   4.401   9.914
 2924SOL     OW 9658   0.100   4.487  10.937
 2924SOL    HW1 9659   0.195   4.473  10.946
 2924SOL    HW2 9660   0.092   0.070  10.890
 2925SOL     OW 9661   0.814   3.723   9.817
 2925SOL    HW1 9662   0.854   3.809   9.800
 2925SOL    HW2 9663   0.721   3.742   9.827
 2926SOL     OW 9664   0.339   3.984   0.008
 2926SOL    HW1 9665   0.384   4.065   0.035
 2926SOL    HW2 9666   0.246   4.005   0.016
 2927SOL     OW 9667   1.278   4.071  10.243
 2927SOL    HW1 9668   1.189   4.038  10.252
 2927SOL    HW2 9669   1.329   4.019  10.304
 2928SOL     OW 9670   0.824   4.302  10.764
 2928SOL    HW1 9671   0.778   4.315  10.847
 2928SOL    HW2 9672   0.758   4.265  10.705
 2929SOL     OW 9673   0.996   4.147  10.545
 2929SOL    HW1 9674   0.921   4.169  10.601
 2929SOL    HW2 9675   0.960   4.090  10.477
 2930SOL     OW 9676   1.057   4.410   9.729
 2930SOL    HW1 9677   1.056   4.447   9.817
 2930SOL    HW2 9678   0.969   4.373   9.717
 2931SOL     OW 9679   0.053   0.054  10.157
 2931SOL    HW1 9680   0.144   0.024  10.163
 2931SOL    HW2 9681   0.051   0.106  10.076
 2932SOL     OW 9682   0.888   4.063   9.501
 2932SOL    HW1 9683   0.931   4.126   9.443
 2932SOL    HW2 9684   0.906   3.978   9.462
 2933SOL     OW 9685   0.552   3.906  10.202
 2933SOL    HW1 9686   0.553   3.936  10.294
 2933SOL    HW2 9687   0.549   3.987  10.151
 2934SOL     OW 9688   1.489   4.463  10.047
 2934SOL    HW1 9689   1.470   4.409  10.123
 2934SOL    HW2 9690   1.529   0.042  10.083
 2935SOL     OW 9691   0.191   4.001  10.797
 2935SOL    HW1 9692   0.140   4.082  10.805
 2935SOL    HW2 9693   0.186   3.961  10.884
 2936SOL     OW 9694   1.401   3.831   9.741
 2936SOL    HW1 9695   1.390   3.806   9.649
 2936SOL    HW2 9696   1.495   3.840   9.753
 2937SOL     OW 9697   0.350   4.378   9.716
 2937SOL    HW1 9698   0.396   4.306   9.758
 2937SOL    HW2 9699   0.298   4.417   9.786
 2938SOL     OW 9700   0.633   3.850   9.413
 2938SOL    HW1 9701   0.702   3.787   9.429
 2938SOL    HW2 9702   0.585   3.816   9.338
 2939SOL     OW 9703   0.770   3.999  11.045
 2939SOL    HW1 9704   0.835   3.940  11.083
 2939SOL    HW2 9705   0.708   4.016   0.016
 2940SOL     OW 9706   1.352   4.308  10.744
 2940SOL    HW1 9707   1.374   4.287  10.835
 2940SOL    HW2 9708   1.376   4.400  10.733
 2941SOL     OW 9709   0.923   4.236  10.209
 2941SOL    HW1 9710   0.901   4.221  10.117
 2941SOL    HW2 9711   0.962   4.154  10.239
 2942SOL     OW 9712   0.551   3.786   9.813
 2942SOL    HW1 9713   0.470   3.784   9.865
 2942SOL    HW2 9714   0.543   3.865   9.759
 2943SOL     OW 9715   0.294   3.770   9.488
 2943SOL    HW1 9716   0.355   3.838   9.460
 2943SOL    HW2 9717   0.349   3.705   9.532
 2944SOL     OW 9718   0.936   3.971   9.773
 2944SOL    HW1 9719   0.909   4.009   9.690
 2944SOL    HW2 9720   1.031   3.982   9.775
 2945SOL     OW 9721   1.079   4.385  10.817
 2945SOL    HW1 9722   0.992   4.363  10.783
 2945SOL    HW2 9723   1.140   4.343  10.756
 2946SOL     OW 9724   1.025   4.268   9.335
 2946SOL    HW1 9725   1.007   4.356   9.301
 2946SOL    HW2 9726   1.088   4.282   9.405
 2947SOL     OW 9727   0.082   4.256  10.720
 2947SOL    HW1 9728   0.155   4.263  10.659
 2947SOL    HW2 9729   0.053   4.346  10.734
 2948SOL     OW 9730   0.561   3.950  10.474
 2948SOL    HW1 9731   0.600   3.870  10.509
 2948SOL    HW2 9732   0.469   3.946  10.503
 2949SOL     OW 9733   0.872   4.189   9.948
 2949SOL    HW1 9734   0.833   4.247   9.882
 2949SOL    HW2 9735   0.888   4.108   9.901
 2950SOL     OW 9736   1.014   3.777  10.063
 2950SOL    HW1 9737   0.956   3.769   9.987
 2950SOL    HW2 9738   0.994   3.701  10.117
 2951SOL     OW 9739   1.477   4.312  10.277
 2951SOL    HW1 9740   1.420   4.237  10.297
 2951SOL    HW2 9741   1.528   4.325  10.357
 2952SOL     OW 9742   1.401   4.296   9.383
 2952SOL    HW1 9743   1.340   4.269   9.451
 2952SOL    HW2 9744   1.484   4.255   9.408
 2953SOL     OW 9745   0.523   3.984   9.627
 2953SOL    HW1 9746   0.567   3.937   9.557
 2953SOL    HW2 9747   0.511   4.073   9.592
 2954SOL     OW 9748   0.918   3.823  10.707
 2954SOL    HW1 9749   0.941   3.802  10.617
 2954SOL    HW2 9750   0.996   3.863  10.744
 2955SOL     OW 9751   0.446   4.499  10.556
 2955SOL    HW1 9752   0.498   0.009  10.636
 2955SOL    HW2 9753   0.390   4.423  10.574
 2956SOL     OW 9754   1.266   4.100  10.585
 2956SOL    HW1 9755   1.302   4.177  10.629
 2956SOL    HW2 9756   1.178   4.125  10.559
 2957SOL     OW 9757   0.561   4.251  10.171
 2957SOL    HW1 9758   0.578   4.300  10.091
 2957SOL    HW2 9759   0.621   4.289  10.235
 2958SOL     OW 9760   1.571   4.340   9.786
 2958SOL    HW1 9761   1.541   4.406   9.849
 2958SOL    HW2 9762   1.630   4.388   9.728
 2959SOL     OW 9763   0.488   0.000  10.998
 2959SOL    HW1 9764   0.479   0.048  10.915
 2959SOL    HW2 9765   0.485   4.408  10.972
 2960SOL     OW 9766   1.211   4.255   9.575
 2960SOL    HW1 9767   1.221   4.175   9.628
 2960SOL    HW2 9768   1.162   4.314   9.632
 2961SOL     OW 9769   0.300   3.921  10.553
 2961SOL    HW1 9770   0.263   3.952  10.636
 2961SOL    HW2 9771   0.285   3.827  10.554
 2962SOL     OW 9772   0.732   4.359  10.357
 2962SOL    HW1 9773   0.805   4.325  10.306
 2962SOL    HW2 9774   0.737   4.454  10.344
 2963SOL     OW 9775   0.309   3.793   9.929
 2963SOL    HW1 9776   0.286   3.882   9.956
 2963SOL    HW2 9777   0.305   3.741  10.009
 2964SOL     OW 9778   1.613   4.091   9.679
 2964SOL    HW1 9779   1.642   4.030   9.747
 2964SOL    HW2 9780   1.590   4.171   9.726
 2965SOL     OW 9781   1.528   3.999   9.437
 2965SOL    HW1 9782   1.465   3.932   9.463
 2965SOL    HW2 9783   1.562   4.033   9.519
 2966SOL     OW 9784   0.318   0.017  10.229
 2966SOL    HW1 9785   0.400   0.066  10.238
 2966SOL    HW2 9786   0.331   4.438  10.282
 2967SOL     OW 9787   0.336   4.239  10.312
 2967SOL    HW1 9788   0.292   4.156  10.290
 2967SOL    HW2 9789   0.411   4.242  10.253
 2968SOL     OW 9790   1.157   3.933  10.781
 2968SOL    HW1 9791   1.165   3.992  10.856
 2968SOL    HW2 9792   1.197   3.980  10.709
 2969SOL     OW 9793   0.025   4.276  10.415
 2969SOL    HW1 9794   0.112   4.259  10.379
 2969SOL    HW2 9795   0.030   4.244  10.505
 2970SOL     OW 9796   1.351   0.187  10.988
 2970SOL    HW1 9797   1.415   0.257  11.003
 2970SOL    HW2 9798   1.370   0.154  10.901
 2971SOL     OW 9799   0.820   4.286   9.653
 2971SOL    HW1 9800   0.818   4.209   9.596
 2971SOL    HW2 9801   0.730   4.320   9.650
 2972SOL     OW 9802   1.637   4.318  10.498
 2972SOL    HW1 9803   1.633   4.259  10.573
 2972SOL    HW2 9804   1.726   4.306  10.462
 2973SOL     OW 9805   0.681   4.184  10.568
 2973SOL    HW1 9806   0.639   4.105  10.535
 2973SOL    HW2 9807   0.684   4.243  10.493
 2974SOL     OW 9808   0.486   4.222   9.499
 2974SOL    HW1 9809   0.518   4.309   9.524
 2974SOL    HW2 9810   0.392   4.235   9.484
 2975SOL     OW 9811   1.719   3.868   9.822
 2975SOL    HW1 9812   1.792   3.853   9.762
 2975SOL    HW2 9813   1.704   3.782   9.861
 2976SOL     OW 9814   1.280   0.137   9.989
 2976SOL    HW1 9815   1.338   0.062   9.997
 2976SOL    HW2 9816   1.330   0.201   9.938
 2977SOL     OW 9817   1.839   3.897  10.277
 2977SOL    HW1 9818   1.868   3.810  10.249
 2977SOL    HW2 9819   1.753   3.908  10.237
 2978SOL     OW 9820   0.268   4.041  10.030
 2978SOL    HW1 9821   0.191   4.090  10.002
 2978SOL    HW2 9822   0.255   4.029  10.124
 2979SOL     OW 9823   0.908   0.093   9.532
 2979SOL    HW1 9824   0.990   0.133   9.503
 2979SOL    HW2 9825   0.930   0.051   9.616
 2980SOL     OW 9826   1.067   0.303  10.049
 2980SOL    HW1 9827   0.986   0.285  10.001
 2980SOL    HW2 9828   1.128   0.238  10.016
 2981SOL     OW 9829   1.020   3.964  10.275
 2981SOL    HW1 9830   1.014   3.916  10.193
 2981SOL    HW2 9831   1.015   3.896  10.343
 2982SOL     OW 9832   1.717   4.116  10.690
 2982SOL    HW1 9833   1.788   4.179  10.690
 2982SOL    HW2 9834   1.747   4.046  10.633
 2983SOL     OW 9835   0.673   3.920  10.804
 2983SOL    HW1 9836   0.754   3.899  10.758
 2983SOL    HW2 9837   0.701   3.955  10.888
 2984SOL     OW 9838   0.068   4.045   9.343
 2984SOL    HW1 9839   4.474   4.063   9.336
 2984SOL    HW2 9840   0.109   4.130   9.329
 2985SOL     OW 9841   0.086   3.902   9.616
 2985SOL    HW1 9842   0.076   3.970   9.550
 2985SOL    HW2 9843   0.161   3.850   9.587
 2986SOL     OW 9844   0.719   4.290  11.022
 2986SOL    HW1 9845   0.752   4.344  11.094
 2986SOL    HW2 9846   0.768   4.208  11.030
 2987SOL     OW 9847   1.219   4.043   9.765
 2987SOL    HW1 9848   1.282   3.971   9.756
 2987SOL    HW2 9849   1.248   4.090   9.843
 2988SOL     OW 9850   1.754   4.051  10.954
 2988SOL    HW1 9851   1.733   4.081  10.865
 2988SOL    HW2 9852   1.671   4.055  11.001
 2989SOL     OW 9853   1.110   0.229   9.414
 2989SOL    HW1 9854   1.092   0.269   9.329
 2989SOL    HW2 9855   1.192   0.180   9.400
 2990SOL     OW 9856   1.810   3.909  10.548
 2990SOL    HW1 9857   1.823   3.815  10.563
 2990SOL    HW2 9858   1.821   3.919  10.453
 2991SOL     OW 9859   0.451   4.152   9.846
 2991SOL    HW1 9860   0.463   4.079   9.786
 2991SOL    HW2 9861   0.391   4.119   9.913
 2992SOL     OW 9862   0.313   4.239  10.575
 2992SOL    HW1 9863   0.373   4.178  10.619
 2992SOL    HW2 9864   0.335   4.231  10.483
 2993SOL     OW 9865   1.431   3.947  10.428
 2993SOL    HW1 9866   1.461   3.869  10.475
 2993SOL    HW2 9867   1.380   3.996  10.492
 2994SOL     OW 9868   1.008   3.744  10.455
 2994SOL    HW1 9869   0.954   3.676  10.415
 2994SOL    HW2 9870   1.096   3.706  10.456
 2995SOL     OW 9871   1.352   3.777   9.474
 2995SOL    HW1 9872   1.379   3.716   9.405
 2995SOL    HW2 9873   1.265   3.747   9.501
 2996SOL     OW 9874   1.299   4.176   9.992
 2996SOL    HW1 9875   1.258   4.261  10.006
 2996SOL    HW2 9876   1.299   4.135  10.079
 2997SOL     OW 9877   1.587   3.928  10.187
 2997SOL    HW1 9878   1.525   3.948  10.257
 2997SOL    HW2 9879   1.587   4.007  10.132
 2998SOL     OW 9880   2.088   0.615   0.119
 2998SOL    HW1 9881   2.002   0.620   0.159
 2998SOL    HW2 9882   2.074   0.636   0.027
 2999SOL     OW 9883   2.071   0.297   0.989
 2999SOL    HW1 9884   2.102   0.269   1.075
 2999SOL    HW2 9885   1.989   0.249   0.976
 3000SOL     OW 9886   1.870   0.384   0.639
 3000SOL    HW1 9887   1.784   0.405   0.676
 3000SOL    HW2 9888   1.853   0.309   0.582
 3001SOL     OW 9889   2.429   1.284   1.173
 3001SOL    HW1 9890   2.341   1.287   1.135
 3001SOL    HW2 9891   2.443   1.373   1.207
 3002SOL     OW 9892   3.421   1.512   0.706
 3002SOL    HW1 9893   3.377   1.492   0.789
 3002SOL    HW2 9894   3.350   1.515   0.642
 3003SOL     OW 9895   2.995   0.700   0.700
 3003SOL    HW1 9896   3.042   0.782   0.690
 3003SOL    HW2 9897   2.945   0.711   0.781
 3004SOL     OW 9898   3.637   0.603   0.219
 3004SOL    HW1 9899   3.585   0.604   0.138
 3004SOL    HW2 9900   3.597   0.533   0.272
 3005SOL     OW 9901   2.620   1.144   1.039
 3005SOL    HW1 9902   2.550   1.177   1.095
 3005SOL    HW2 9903   2.654   1.221   0.994
 3006SOL     OW 9904   2.726   0.778   1.822
 3006SOL    HW1 9905   2.713   0.849   1.884
 3006SOL    HW2 9906   2.750   0.822   1.740
 3007SOL     OW 9907   2.549   1.005   0.647
 3007SOL    HW1 9908   2.613   0.991   0.717
 3007SOL    HW2 9909   2.479   1.055   0.689
 3008SOL     OW 9910   2.571   1.151   1.810
 3008SOL    HW1 9911   2.618   1.231   1.835
 3008SOL    HW2 9912   2.487   1.183   1.776
 3009SOL     OW 9913   2.193   1.427   1.069
 3009SOL    HW1 9914   2.120   1.392   1.019
 3009SOL    HW2 9915   2.243   1.478   1.005
 3010SOL     OW 9916   3.323   1.498   1.352
 3010SOL    HW1 9917   3.370   1.581   1.362
 3010SOL    HW2 9918   3.265   1.494   1.428
 3011SOL     OW 9919   2.303   0.395   1.491
 3011SOL    HW1 9920   2.385   0.346   1.492
 3011SOL    HW2 9921   2.235   0.330   1.504
 3012SOL     OW 9922   3.474   0.448   0.738
 3012SOL    HW1 9923   3.392   0.469   0.693
 3012SOL    HW2 9924   3.494   0.525   0.791
 3013SOL     OW 9925   2.081   1.720   0.473
 3013SOL    HW1 9926   2.125   1.758   0.550
 3013SOL    HW2 9927   2.151   1.706   0.410
 3014SOL     OW 9928   2.998   1.341   1.692
 3014SOL    HW1 9929   3.038   1.337   1.779
 3014SOL    HW2 9930   2.945   1.262   1.686
 3015SOL     OW 9931   2.086   1.443   0.534
 3015SOL    HW1 9932   2.064   1.535   0.544
 3015SOL    HW2 9933   2.029   1.397   0.596
 3016SOL     OW 9934   2.117   1.090   0.890
 3016SOL    HW1 9935   2.114   1.004   0.933
 3016SOL    HW2 9936   2.060   1.145   0.943
 3017SOL     OW 9937   2.475   1.791   1.429
 3017SOL    HW1 9938   2.392   1.773   1.475
 3017SOL    HW2 9939   2.497   1.881   1.454
 3018SOL     OW 9940   2.447   0.986   0.139
 3018SOL    HW1 9941   2.485   1.044   0.072
 3018SOL    HW2 9942   2.491   1.012   0.220
 3019SOL     OW 9943   3.446   0.115   1.473
 3019SOL    HW1 9944   3.462   0.183   1.408
 3019SOL    HW2 9945   3.435   0.162   1.556
 3020SOL     OW 9946   1.977   0.651   0.559
 3020SOL    HW1 9947   1.947   0.563   0.581
 3020SOL    HW2 9948   1.969   0.701   0.641
 3021SOL     OW 9949   3.703   1.760   0.335
 3021SOL    HW1 9950   3.765   1.730   0.402
 3021SOL    HW2 9951   3.731   1.850   0.317
 3022SOL     OW 9952   1.896   1.601   0.120
 3022SOL    HW1 9953   1.877   1.509   0.139
 3022SOL    HW2 9954   1.869   1.648   0.199
 3023SOL     OW 9955   3.552   0.919   0.640
 3023SOL    HW1 9956   3.637   0.880   0.620
 3023SOL    HW2 9957   3.531   0.970   0.561
 3024SOL     OW 9958   3.508   1.106   0.432
 3024SOL    HW1 9959   3.590   1.119   0.384
 3024SOL    HW2 9960   3.512   1.168   0.505
 3025SOL     OW 9961   1.984   0.744   1.585
 3025SOL    HW1 9962   2.076   0.768   1.597
 3025SOL    HW2 9963   1.936   0.826   1.593
 3026SOL     OW 9964   2.476   1.384   0.735
 3026SOL    HW1 9965   2.430   1.300   0.744
 3026SOL    HW2 9966   2.458   1.410   0.644
 3027SOL     OW 9967   3.152   1.239   1.424
 3027SOL    HW1 9968   3.184   1.171   1.364
 3027SOL    HW2 9969   3.208   1.231   1.501
 3028SOL     OW 9970   2.679   0.010   0.550
 3028SOL    HW1 9971   2.717   0.088   0.510
 3028SOL    HW2 9972   2.584   0.023   0.543
 3029SOL     OW 9973   2.053   0.967   1.270
 3029SOL    HW1 9974   2.137   0.925   1.254
 3029SOL    HW2 9975   1.989   0.912   1.225
 3030SOL     OW 9976   3.382   0.998   0.201
 3030SOL    HW1 9977   3.317   0.937   0.236
 3030SOL    HW2 9978   3.429   1.029   0.279
 3031SOL     OW 9979   3.048   1.804   1.620
 3031SOL    HW1 9980   3.062   1.861   1.544
 3031SOL    HW2 9981   3.062   1.716   1.587
 3032SOL     OW 9982   2.177   0.254   1.781
 3032SOL    HW1 9983   2.241   0.319   1.813
 3032SOL    HW2 9984   2.103   0.262   1.841
 3033SOL     OW 9985   3.328   1.420   0.953
 3033SOL    HW1 9986   3.260   1.434   1.018
 3033SOL    HW2 9987   3.316   1.329   0.925
 3034SOL     OW 9988   3.521   1.736   0.579
 3034SOL    HW1 9989   3.501   1.708   0.490
 3034SOL    HW2 9990   3.496   1.662   0.634
 3035SOL     OW 9991   2.455   0.720   0.262
 3035SOL    HW1 9992   2.465   0.801   0.214
 3035SOL    HW2 9993   2.391   0.740   0.331
 3036SOL     OW 9994   3.150   0.359   0.934
 3036SOL    HW1 9995   3.060   0.327   0.924
 3036SOL    HW2 9996   3.190   0.297   0.996
 3037SOL     OW 9997   3.444   1.669   0.311
 3037SOL    HW1 9998   3.534   1.701   0.305
 3037SOL    HW2 9999   3.418   1.651   0.221
 3038SOL     OW10000   2.658   0.618   1.454
 3038SOL    HW110001   2.629   0.594   1.543
 3038SOL    HW210002   2.616   0.554   1.397
 3039SOL     OW10003   3.251   0.479   1.676
 3039SOL    HW110004   3.254   0.522   1.761
 3039SOL    HW210005   3.317   0.410   1.683
 3040SOL     OW10006   2.819   0.889   1.581
 3040SOL    HW110007   2.872   0.817   1.547
 3040SOL    HW210008   2.771   0.921   1.505
 3041SOL     OW10009   2.857   0.417   1.238
 3041SOL    HW110010   2.772   0.430   1.278
 3041SOL    HW210011   2.839   0.367   1.158
 3042SOL     OW10012   2.911   0.700   0.428
 3042SOL    HW110013   2.927   0.692   0.522
 3042SOL    HW210014   2.829   0.653   0.414
 3043SOL     OW10015   1.952   0.820   0.775
 3043SOL    HW110016   2.032   0.814   0.826
 3043SOL    HW210017   1.907   0.898   0.810
 3044SOL     OW10018   1.981   1.805   1.575
 3044SOL    HW110019   1.975   1.802   1.670
 3044SOL    HW210020   1.912   1.865   1.548
 3045SOL     OW10021   2.736   0.359   0.197
 3045SOL    HW110022   2.794   0.413   0.143
 3045SOL    HW210023   2.771   0.270   0.188
 3046SOL     OW10024   3.568   0.575   1.828
 3046SOL    HW110025   3.532   0.651   1.782
 3046SOL    HW210026   3.602   0.518   1.758
 3047SOL     OW10027   3.238   1.142   0.542
 3047SOL    HW110028   3.316   1.128   0.488
 3047SOL    HW210029   3.185   1.204   0.491
 3048SOL     OW10030   2.402   0.203   0.900
 3048SOL    HW110031   2.422   0.220   0.992
 3048SOL    HW210032   2.394   0.289   0.860
 3049SOL     OW10033   2.870   1.446   0.474
 3049SOL    HW110034   2.829   1.517   0.425
 3049SOL    HW210035   2.853   1.467   0.566
 3050SOL     OW10036   2.215   1.795   0.838
 3050SOL    HW110037   2.263   1.715   0.860
 3050SOL    HW210038   2.278   1.866   0.855
 3051SOL     OW10039   3.660   1.060   0.868
 3051SOL    HW110040   3.604   1.043   0.792
 3051SOL    HW210041   3.599   1.064   0.942
 3052SOL     OW10042   3.090   1.539   1.513
 3052SOL    HW110043   3.076   1.466   1.573
 3052SOL    HW210044   3.028   1.523   1.441
 3053SOL     OW10045   2.179   0.956   0.274
 3053SOL    HW110046   2.257   0.983   0.226
 3053SOL    HW210047   2.151   0.875   0.233
 3054SOL     OW10048   3.340   0.739   0.724
 3054SOL    HW110049   3.327   0.695   0.808
 3054SOL    HW210050   3.416   0.796   0.739
 3055SOL     OW10051   2.327   1.263   1.738
 3055SOL    HW110052   2.299   1.268   1.647
 3055SOL    HW210053   2.245   1.262   1.788
 3056SOL     OW10054   2.968   1.779   0.226
 3056SOL    HW110055   2.910   1.727   0.281
 3056SOL    HW210056   3.009   1.716   0.167
 3057SOL     OW10057   2.051   0.268   1.510
 3057SOL    HW110058   1.984   0.335   1.493
 3057SOL    HW210059   2.062   0.269   1.605
 3058SOL     OW10060   3.490   1.375   0.088
 3058SOL    HW110061   3.448   1.460   0.076
 3058SOL    HW210062   3.424   1.311   0.061
 3059SOL     OW10063   2.337   1.731   0.339
 3059SOL    HW110064   2.376   1.800   0.393
 3059SOL    HW210065   2.405   1.709   0.276
 3060SOL     OW10066   3.280   0.132   0.424
 3060SOL    HW110067   3.257   0.097   0.338
 3060SOL    HW210068   3.375   0.133   0.426
 3061SOL     OW10069   2.104   1.758   1.229
 3061SOL    HW110070   2.169   1.700   1.269
 3061SOL    HW210071   2.113   1.741   1.135
 3062SOL     OW10072   2.802   1.698   0.900
 3062SOL    HW110073   2.878   1.644   0.920
 3062SOL    HW210074   2.756   1.649   0.831
 3063SOL     OW10075   2.253   0.694   0.475
 3063SOL    HW110076   2.276   0.602   0.488
 3063SOL    HW210077   2.160   0.698   0.496
 3064SOL     OW10078   3.388   0.233   1.722
 3064SOL    HW110079   3.387   0.256   1.815
 3064SOL    HW210080   3.311   0.176   1.711
 3065SOL     OW10081   2.465   0.096   0.123
 3065SOL    HW110082   2.560   0.081   0.129
 3065SOL    HW210083   2.448   0.101   0.029
 3066SOL     OW10084   2.632   0.271   1.753
 3066SOL    HW110085   2.696   0.202   1.767
 3066SOL    HW210086   2.585   0.277   1.836
 3067SOL     OW10087   2.740   1.522   1.193
 3067SOL    HW110088   2.723   1.486   1.106
 3067SOL    HW210089   2.808   1.466   1.230
 3068SOL     OW10090   3.204   0.589   1.429
 3068SOL    HW110091   3.232   0.559   1.516
 3068SOL    HW210092   3.238   0.678   1.422
 3069SOL     OW10093   2.676   1.397   0.937
 3069SOL    HW110094   2.760   1.386   0.892
 3069SOL    HW210095   2.611   1.396   0.867
 3070SOL     OW10096   2.786   0.515   0.901
 3070SOL    HW110097   2.769   0.515   0.807
 3070SOL    HW210098   2.825   0.430   0.918
 3071SOL     OW10099   2.416   0.074   0.522
 3071SOL    HW110100   2.327   0.051   0.548
 3071SOL    HW210101   2.405   0.140   0.454
 3072SOL     OW10102   3.288   1.196   0.031
 3072SOL    HW110103   3.320   1.123   0.085
 3072SOL    HW210104   3.205   1.220   0.071
 3073SOL     OW10105   2.149   0.056   0.198
 3073SOL    HW110106   2.217   0.105   0.152
 3073SOL    HW210107   2.196   0.005   0.263
 3074SOL     OW10108   2.812   0.225   0.443
 3074SOL    HW110109   2.764   0.293   0.395
 3074SOL    HW210110   2.900   0.261   0.453
 3075SOL     OW10111   2.942   0.680   1.461
 3075SOL    HW110112   2.870   0.616   1.462
 3075SOL    HW210113   3.021   0.627   1.450
 3076SOL     OW10114   3.086   1.570   0.794
 3076SOL    HW110115   3.104   1.636   0.728
 3076SOL    HW210116   3.155   1.582   0.860
 3077SOL     OW10117   2.331   1.148   0.738
 3077SOL    HW110118   2.261   1.130   0.800
 3077SOL    HW210119   2.292   1.133   0.652
 3078SOL     OW10120   3.132   1.795   0.605
 3078SOL    HW110121   3.178   1.857   0.548
 3078SOL    HW210122   3.067   1.848   0.651
 3079SOL     OW10123   2.883   0.533   0.034
 3079SOL    HW110124   2.847   0.618   0.009
 3079SOL    HW210125   2.956   0.555   0.092
 3080SOL     OW10126   1.942   0.551   1.394
 3080SOL    HW110127   2.033   0.554   1.364
 3080SOL    HW210128   1.936   0.623   1.457
 3081SOL     OW10129   2.426   0.242   1.165
 3081SOL    HW110130   2.453   0.159   1.204
 3081SOL    HW210131   2.334   0.251   1.190
 3082SOL     OW10132   2.725   0.508   0.628
 3082SOL    HW110133   2.679   0.544   0.551
 3082SOL    HW210134   2.703   0.415   0.627
 3083SOL     OW10135   2.827   0.035   0.777
 3083SOL    HW110136   2.778   0.027   0.695
 3083SOL    HW210137   2.845   4.444   0.803
 3084SOL     OW10138   3.298   1.163   0.857
 3084SOL    HW110139   3.230   1.096   0.856
 3084SOL    HW210140   3.322   1.176   0.765
 3085SOL     OW10141   3.329   0.603   0.977
 3085SOL    HW110142   3.277   0.523   0.980
 3085SOL    HW210143   3.387   0.597   1.053
 3086SOL     OW10144   3.712   0.815   0.378
 3086SOL    HW110145   3.764   0.764   0.440
 3086SOL    HW210146   3.683   0.751   0.313
 3087SOL     OW10147   2.356   1.422   0.174
 3087SOL    HW110148   2.278   1.396   0.223
 3087SOL    HW210149   2.349   1.374   0.091
 3088SOL     OW10150   3.531   1.265   0.648
 3088SOL    HW110151   3.626   1.269   0.661
 3088SOL    HW210152   3.500   1.353   0.669
 3089SOL     OW10153   3.252   0.575   0.076
 3089SOL    HW110154   3.191   0.556   0.148
 3089SOL    HW210155   3.325   0.514   0.090
 3090SOL     OW10156   2.387   0.263   0.325
 3090SOL    HW110157   2.419   0.204   0.257
 3090SOL    HW210158   2.372   0.346   0.280
 3091SOL     OW10159   3.615   1.237   1.575
 3091SOL    HW110160   3.703   1.198   1.572
 3091SOL    HW210161   3.630   1.327   1.605
 3092SOL     OW10162   2.922   1.354   1.335
 3092SOL    HW110163   2.847   1.323   1.386
 3092SOL    HW210164   2.998   1.312   1.376
 3093SOL     OW10165   3.469   1.626   1.652
 3093SOL    HW110166   3.465   1.659   1.563
 3093SOL    HW210167   3.552   1.578   1.656
 3094SOL     OW10168   2.990   1.203   1.107
 3094SOL    HW110169   2.929   1.240   1.172
 3094SOL    HW210170   2.955   1.233   1.023
 3095SOL     OW10171   3.492   1.099   1.079
 3095SOL    HW110172   3.487   1.161   1.151
 3095SOL    HW210173   3.412   1.115   1.028
 3096SOL     OW10174   2.766   0.131   1.389
 3096SOL    HW110175   2.788   0.088   1.307
 3096SOL    HW210176   2.850   0.145   1.433
 3097SOL     OW10177   2.846   1.115   1.722
 3097SOL    HW110178   2.754   1.130   1.742
 3097SOL    HW210179   2.846   1.037   1.666
 3098SOL     OW10180   2.571   1.059   0.372
 3098SOL    HW110181   2.557   1.045   0.466
 3098SOL    HW210182   2.648   1.005   0.351
 3099SOL     OW10183   2.280   0.815   1.251
 3099SOL    HW110184   2.349   0.824   1.317
 3099SOL    HW210185   2.245   0.727   1.265
 3100SOL     OW10186   3.131   0.376   1.272
 3100SOL    HW110187   3.163   0.455   1.317
 3100SOL    HW210188   3.042   0.399   1.245
 3101SOL     OW10189   1.926   1.568   1.348
 3101SOL    HW110190   1.891   1.643   1.300
 3101SOL    HW210191   2.020   1.582   1.350
 3102SOL     OW10192   2.214   1.114   0.496
 3102SOL    HW110193   2.215   1.187   0.435
 3102SOL    HW210194   2.208   1.036   0.441
 3103SOL     OW10195   2.419   0.531   0.859
 3103SOL    HW110196   2.434   0.590   0.784
 3103SOL    HW210197   2.482   0.560   0.925
 3104SOL     OW10198   3.110   1.346   0.394
 3104SOL    HW110199   3.165   1.419   0.421
 3104SOL    HW210200   3.022   1.369   0.426
 3105SOL     OW10201   3.140   1.456   1.146
 3105SOL    HW110202   3.195   1.458   1.224
 3105SOL    HW210203   3.085   1.379   1.157
 3106SOL     OW10204   3.447   0.628   0.474
 3106SOL    HW110205   3.398   0.672   0.544
 3106SOL    HW210206   3.484   0.699   0.422
 3107SOL     OW10207   2.216   1.516   1.321
 3107SOL    HW110208   2.199   1.478   1.234
 3107SOL    HW210209   2.310   1.531   1.322
 3108SOL     OW10210   2.276   0.743   1.602
 3108SOL    HW110211   2.335   0.790   1.543
 3108SOL    HW210212   2.320   0.660   1.619
 3109SOL     OW10213   3.461   0.778   1.680
 3109SOL    HW110214   3.375   0.818   1.673
 3109SOL    HW210215   3.513   0.820   1.611
 3110SOL     OW10216   2.869   0.085   1.724
 3110SOL    HW110217   2.893   0.169   1.685
 3110SOL    HW210218   2.894   0.020   1.658
 3111SOL     OW10219   2.361   0.048   1.757
 3111SOL    HW110220   2.353   0.003   1.673
 3111SOL    HW210221   2.293   0.115   1.755
 3112SOL     OW10222   2.444   0.873   1.031
 3112SOL    HW110223   2.474   0.964   1.029
 3112SOL    HW210224   2.388   0.868   1.108
 3113SOL     OW10225   3.222   0.858   1.032
 3113SOL    HW110226   3.139   0.851   0.984
 3113SOL    HW210227   3.260   0.771   1.027
 3114SOL     OW10228   3.063   0.531   0.267
 3114SOL    HW110229   3.073   0.453   0.321
 3114SOL    HW210230   3.022   0.596   0.324
 3115SOL     OW10231   2.153   0.235   1.240
 3115SOL    HW110232   2.110   0.251   1.325
 3115SOL    HW210233   2.184   0.145   1.246
 3116SOL     OW10234   1.907   1.309   1.277
 3116SOL    HW110235   1.942   1.257   1.349
 3116SOL    HW210236   1.915   1.399   1.306
 3117SOL     OW10237   2.586   0.632   1.059
 3117SOL    HW110238   2.659   0.612   1.000
 3117SOL    HW210239   2.559   0.720   1.035
 3118SOL     OW10240   3.595   0.959   1.851
 3118SOL    HW110241   3.548   0.902   1.791
 3118SOL    HW210242   3.536   0.971   1.925
 3119SOL     OW10243   2.163   0.060   0.653
 3119SOL    HW110244   2.151   0.154   0.658
 3119SOL    HW210245   2.172   0.032   0.744
 3120SOL     OW10246   3.477   0.376   0.365
 3120SOL    HW110247   3.506   0.311   0.431
 3120SOL    HW210248   3.453   0.453   0.417
 3121SOL     OW10249   2.890   0.761   0.962
 3121SOL    HW110250   2.888   0.777   1.056
 3121SOL    HW210251   2.862   0.670   0.953
 3122SOL     OW10252   2.845   1.567   1.715
 3122SOL    HW110253   2.829   1.610   1.632
 3122SOL    HW210254   2.887   1.484   1.691
 3123SOL     OW10255   3.717   1.508   1.606
 3123SOL    HW110256   3.734   1.534   1.515
 3123SOL    HW210257   3.799   1.528   1.652
 3124SOL     OW10258   2.216   0.916   1.808
 3124SOL    HW110259   2.298   0.934   1.853
 3124SOL    HW210260   2.240   0.854   1.739
 3125SOL     OW10261   3.398   0.293   0.113
 3125SOL    HW110262   3.339   0.220   0.126
 3125SOL    HW210263   3.428   0.316   0.201
 3126SOL     OW10264   3.151   0.824   0.032
 3126SOL    HW110265   3.194   0.739   0.042
 3126SOL    HW210266   3.183   0.858  11.049
 3127SOL     OW10267   2.927   1.335   0.852
 3127SOL    HW110268   2.930   1.262   0.790
 3127SOL    HW210269   2.989   1.398   0.818
 3128SOL     OW10270   2.172   0.810   0.948
 3128SOL    HW110271   2.264   0.832   0.941
 3128SOL    HW210272   2.171   0.720   0.982
 3129SOL     OW10273   2.199   0.530   1.013
 3129SOL    HW110274   2.157   0.446   0.994
 3129SOL    HW210275   2.274   0.533   0.954
 3130SOL     OW10276   2.997   0.375   1.693
 3130SOL    HW110277   2.949   0.439   1.745
 3130SOL    HW210278   3.083   0.414   1.680
 3131SOL     OW10279   3.022   0.211   1.473
 3131SOL    HW110280   3.014   0.275   1.544
 3131SOL    HW210281   3.058   0.261   1.400
 3132SOL     OW10282   1.869   1.328   0.196
 3132SOL    HW110283   1.782   1.340   0.158
 3132SOL    HW210284   1.870   1.237   0.225
 3133SOL     OW10285   1.953   1.787   0.930
 3133SOL    HW110286   1.924   1.705   0.891
 3133SOL    HW210287   2.040   1.802   0.893
 3134SOL     OW10288   2.361   1.571   0.906
 3134SOL    HW110289   2.429   1.633   0.930
 3134SOL    HW210290   2.405   1.506   0.851
 3135SOL     OW10291   2.848   0.794   1.228
 3135SOL    HW110292   2.902   0.770   1.304
 3135SOL    HW210293   2.762   0.756   1.246
 3136SOL     OW10294   1.896   0.542   1.118
 3136SOL    HW110295   1.974   0.523   1.067
 3136SOL    HW210296   1.927   0.548   1.208
 3137SOL     OW10297   2.047   0.518   1.720
 3137SOL    HW110298   2.120   0.497   1.662
 3137SOL    HW210299   2.005   0.594   1.679
 3138SOL     OW10300   3.239   0.940   1.659
 3138SOL    HW110301   3.259   1.034   1.658
 3138SOL    HW210302   3.236   0.916   1.567
 3139SOL     OW10303   2.673   0.575   0.357
 3139SOL    HW110304   2.679   0.499   0.298
 3139SOL    HW210305   2.599   0.625   0.323
 3140SOL     OW10306   3.503   0.601   1.188
 3140SOL    HW110307   3.493   0.541   1.262
 3140SOL    HW210308   3.590   0.582   1.154
 3141SOL     OW10309   2.114   1.550   1.732
 3141SOL    HW110310   2.081   1.611   1.798
 3141SOL    HW210311   2.109   1.464   1.774
 3142SOL     OW10312   2.557   0.459   1.265
 3142SOL    HW110313   2.512   0.382   1.232
 3142SOL    HW210314   2.559   0.520   1.191
 3143SOL     OW10315   2.791   1.679   1.467
 3143SOL    HW110316   2.765   1.646   1.381
 3143SOL    HW210317   2.789   1.774   1.458
 3144SOL     OW10318   2.327   0.487   0.181
 3144SOL    HW110319   2.386   0.560   0.202
 3144SOL    HW210320   2.241   0.529   0.175
 3145SOL     OW10321   2.009   1.140   1.472
 3145SOL    HW110322   2.013   1.087   1.552
 3145SOL    HW210323   2.026   1.078   1.401
 3146SOL     OW10324   3.190   1.048   1.224
 3146SOL    HW110325   3.213   0.985   1.156
 3146SOL    HW210326   3.118   1.099   1.186
 3147SOL     OW10327   3.170   0.852   0.310
 3147SOL    HW110328   3.093   0.823   0.358
 3147SOL    HW210329   3.147   0.840   0.218
 3148SOL     OW10330   3.632   1.746   1.149
 3148SOL    HW110331   3.692   1.772   1.079
 3148SOL    HW210332   3.608   1.656   1.128
 3149SOL     OW10333   3.104   1.733   1.116
 3149SOL    HW110334   3.185   1.752   1.069
 3149SOL    HW210335   3.107   1.639   1.133
 3150SOL     OW10336   1.946   1.265   1.013
 3150SOL    HW110337   1.933   1.278   1.107
 3150SOL    HW210338   1.871   1.213   0.985
 3151SOL     OW10339   2.540   1.664   1.726
 3151SOL    HW110340   2.488   1.744   1.725
 3151SOL    HW210341   2.603   1.675   1.655
 3152SOL     OW10342   2.742   0.064   0.126
 3152SOL    HW110343   2.826   0.092   0.091
 3152SOL    HW210344   2.764   0.015   0.206
 3153SOL     OW10345   3.581   0.133   0.499
 3153SOL    HW110346   3.655   0.137   0.437
 3153SOL    HW210347   3.598   0.056   0.552
 3154SOL     OW10348   3.252   1.568   0.484
 3154SOL    HW110349   3.313   1.599   0.417
 3154SOL    HW210350   3.205   1.647   0.512
 3155SOL     OW10351   1.990   1.789   1.850
 3155SOL    HW110352   1.939   1.719   1.892
 3155SOL    HW210353   2.047   1.821   1.920
 3156SOL     OW10354   3.141   0.927   0.673
 3156SOL    HW110355   3.213   0.864   0.676
 3156SOL    HW210356   3.174   0.999   0.620
 3157SOL     OW10357   2.679   1.273   1.431
 3157SOL    HW110358   2.652   1.311   1.514
 3157SOL    HW210359   2.608   1.294   1.370
 3158SOL     OW10360   2.535   1.620   0.167
 3158SOL    HW110361   2.543   1.632   0.072
 3158SOL    HW210362   2.479   1.543   0.177
 3159SOL     OW10363   3.492   1.727   1.392
 3159SOL    HW110364   3.540   1.734   1.309
 3159SOL    HW210365   3.479   1.817   1.420
 3160SOL     OW10366   3.701   0.155   0.967
 3160SOL    HW110367   3.731   0.078   0.918
 3160SOL    HW210368   3.614   0.174   0.931
 3161SOL     OW10369   2.127   0.324   0.719
 3161SOL    HW110370   2.042   0.357   0.691
 3161SOL    HW210371   2.120   0.315   0.813
 3162SOL     OW10372   3.084   1.603   0.051
 3162SOL    HW110373   3.071   1.510   0.072
 3162SOL    HW210374   3.018   1.622  11.085
 3163SOL     OW10375   2.686   1.006   1.372
 3163SOL    HW110376   2.729   1.002   1.286
 3163SOL    HW210377   2.687   1.099   1.395
 3164SOL     OW10378   2.776   0.907   0.282
 3164SOL    HW110379   2.843   0.946   0.226
 3164SOL    HW210380   2.823   0.841   0.334
 3165SOL     OW10381   3.361   1.622   0.046
 3165SOL    HW110382   3.266   1.618   0.043
 3165SOL    HW210383   3.388   1.635  11.055
 3166SOL     OW10384   2.232   1.299   1.493
 3166SOL    HW110385   2.220   1.377   1.439
 3166SOL    HW210386   2.154   1.246   1.476
 3167SOL     OW10387   3.474   1.283   1.281
 3167SOL    HW110388   3.532   1.274   1.356
 3167SOL    HW210389   3.413   1.353   1.306
 3168SOL     OW10390   2.911   1.106   0.705
 3168SOL    HW110391   2.841   1.054   0.745
 3168SOL    HW210392   2.974   1.040   0.673
 3169SOL     OW10393   2.875   0.240   0.992
 3169SOL    HW110394   2.875   0.205   0.903
 3169SOL    HW210395   2.865   0.163   1.048
 3170SOL     OW10396   2.463   1.491   0.482
 3170SOL    HW110397   2.504   1.438   0.413
 3170SOL    HW210398   2.398   1.544   0.436
 3171SOL     OW10399   3.582   0.393   1.377
 3171SOL    HW110400   3.655   0.456   1.376
 3171SOL    HW210401   3.611   0.322   1.321
 3172SOL     OW10402   2.127   1.337   0.292
 3172SOL    HW110403   2.039   1.340   0.254
 3172SOL    HW210404   2.117   1.379   0.377
 3173SOL     OW10405   1.974   1.019   1.719
 3173SOL    HW110406   1.898   0.997   1.773
 3173SOL    HW210407   2.049   0.983   1.767
 3174SOL     OW10408   2.521   0.203   1.497
 3174SOL    HW110409   2.601   0.179   1.451
 3174SOL    HW210410   2.550   0.224   1.586
 3175SOL     OW10411   1.939   0.346   0.053
 3175SOL    HW110412   1.863   0.311   0.006
 3175SOL    HW210413   1.958   0.429   0.009
 3176SOL     OW10414   3.293   0.858   1.401
 3176SOL    HW110415   3.244   0.918   1.345
 3176SOL    HW210416   3.383   0.861   1.367
 3177SOL     OW10417   1.929   0.179   0.326
 3177SOL    HW110418   1.922   0.247   0.258
 3177SOL    HW210419   2.001   0.124   0.298
 3178SOL     OW10420   3.044   1.341   0.122
 3178SOL    HW110421   2.950   1.322   0.116
 3178SOL    HW210422   3.064   1.334   0.215
 3179SOL     OW10423   2.481   0.831   1.433
 3179SOL    HW110424   2.536   0.907   1.418
 3179SOL    HW210425   2.542   0.758   1.441
 3180SOL     OW10426   3.346   1.775   0.977
 3180SOL    HW110427   3.372   1.833   0.904
 3180SOL    HW210428   3.428   1.758   1.023
 3181SOL     OW10429   2.578   0.564   1.706
 3181SOL    HW110430   2.615   0.628   1.767
 3181SOL    HW210431   2.613   0.480   1.737
 3182SOL     OW10432   3.332   1.202   1.633
 3182SOL    HW110433   3.319   1.215   1.727
 3182SOL    HW210434   3.425   1.215   1.619
 3183SOL     OW10435   2.245   1.741   1.566
 3183SOL    HW110436   2.158   1.776   1.546
 3183SOL    HW210437   2.228   1.656   1.606
 3184SOL     OW10438   3.533   0.882   1.256
 3184SOL    HW110439   3.524   0.796   1.213
 3184SOL    HW210440   3.524   0.945   1.185
 3185SOL     OW10441   3.081   0.327   0.447
 3185SOL    HW110442   3.146   0.257   0.438
 3185SOL    HW210443   3.104   0.372   0.527
 3186SOL     OW10444   2.450   0.739   0.669
 3186SOL    HW110445   2.491   0.824   0.653
 3186SOL    HW210446   2.381   0.733   0.602
 3187SOL     OW10447   3.627   0.363   1.643
 3187SOL    HW110448   3.610   0.377   1.550
 3187SOL    HW210449   3.549   0.318   1.675
 3188SOL     OW10450   3.607   0.933   1.512
 3188SOL    HW110451   3.606   1.028   1.526
 3188SOL    HW210452   3.591   0.922   1.419
 3189SOL     OW10453   2.762   1.359   0.065
 3189SOL    HW110454   2.690   1.359   0.128
 3189SOL    HW210455   2.752   1.440   0.016
 3190SOL     OW10456   2.528   1.779   0.945
 3190SOL    HW110457   2.508   1.869   0.921
 3190SOL    HW210458   2.624   1.774   0.942
 3191SOL     OW10459   2.728   0.966   0.856
 3191SOL    HW110460   2.779   0.895   0.895
 3191SOL    HW210461   2.695   1.016   0.930
 3192SOL     OW10462   2.942   0.990   0.086
 3192SOL    HW110463   2.917   1.024   0.000
 3192SOL    HW210464   3.018   0.934   0.068
 3193SOL     OW10465   3.717   1.556   0.846
 3193SOL    HW110466   3.641   1.544   0.789
 3193SOL    HW210467   3.710   1.487   0.911
 3194SOL     OW10468   2.086   1.303   1.856
 3194SOL    HW110469   2.018   1.243   1.826
 3194SOL    HW210470   2.069   1.315   1.949
 3195SOL     OW10471   1.947   1.235   0.663
 3195SOL    HW110472   1.948   1.187   0.746
 3195SOL    HW210473   2.016   1.194   0.611
 3196SOL     OW10474   2.542   1.401   1.626
 3196SOL    HW110475   2.462   1.358   1.656
 3196SOL    HW210476   2.537   1.489   1.664
 3197SOL     OW10477   3.671   0.183   1.239
 3197SOL    HW110478   3.671   0.089   1.259
 3197SOL    HW210479   3.687   0.186   1.144
 3198SOL     OW10480   2.296   0.433   0.528
 3198SOL    HW110481   2.320   0.362   0.468
 3198SOL    HW210482   2.242   0.390   0.594
 3199SOL     OW10483   3.562   1.491   1.099
 3199SOL    HW110484   3.482   1.466   1.054
 3199SOL    HW210485   3.576   1.421   1.164
 3200SOL     OW10486   2.190   0.556   1.291
 3200SOL    HW110487   2.246   0.499   1.345
 3200SOL    HW210488   2.210   0.529   1.201
 3201SOL     OW10489   2.688   1.578   0.679
 3201SOL    HW110490   2.678   1.623   0.595
 3201SOL    HW210491   2.611   1.522   0.685
 3202SOL     OW10492   3.294   0.216   1.117
 3202SOL    HW110493   3.330   0.145   1.170
 3202SOL    HW210494   3.243   0.269   1.179
 3203SOL     OW10495   2.859   0.012   1.148
 3203SOL    HW110496   2.814   4.428   1.140
 3203SOL    HW210497   2.951   4.489   1.161
 3204SOL     OW10498   2.629   1.328   0.316
 3204SOL    HW110499   2.599   1.238   0.328
 3204SOL    HW210500   2.715   1.331   0.358
 3205SOL     OW10501   2.483   1.557   1.284
 3205SOL    HW110502   2.485   1.639   1.334
 3205SOL    HW210503   2.571   1.551   1.245
 3206SOL     OW10504   3.210   0.059   0.169
 3206SOL    HW110505   3.246   0.005   0.099
 3206SOL    HW210506   3.132   0.012   0.198
 3207SOL     OW10507   3.178   0.463   0.680
 3207SOL    HW110508   3.115   0.535   0.680
 3207SOL    HW210509   3.164   0.420   0.764
 3208SOL     OW10510   3.448   0.201   0.867
 3208SOL    HW110511   3.387   0.216   0.940
 3208SOL    HW210512   3.450   0.285   0.821
 3209SOL     OW10513   1.904   1.072   0.300
 3209SOL    HW110514   2.000   1.065   0.296
 3209SOL    HW210515   1.876   0.984   0.327
 3210SOL     OW10516   2.745   1.652   0.348
 3210SOL    HW110517   2.675   1.631   0.286
 3210SOL    HW210518   2.712   1.727   0.397
 3211SOL     OW10519   2.092   0.627   1.982
 3211SOL    HW110520   2.004   0.620   2.020
 3211SOL    HW210521   2.081   0.595   1.892
 3212SOL     OW10522   2.071   0.297   2.851
 3212SOL    HW110523   2.102   0.270   2.937
 3212SOL    HW210524   1.989   0.249   2.838
 3213SOL     OW10525   1.870   0.385   2.501
 3213SOL    HW110526   1.784   0.404   2.537
 3213SOL    HW210527   1.855   0.310   2.443
 3214SOL     OW10528   2.429   1.285   3.034
 3214SOL    HW110529   2.341   1.287   2.998
 3214SOL    HW210530   2.443   1.373   3.070
 3215SOL     OW10531   3.421   1.512   2.568
 3215SOL    HW110532   3.377   1.492   2.651
 3215SOL    HW210533   3.350   1.516   2.504
 3216SOL     OW10534   2.995   0.699   2.562
 3216SOL    HW110535   3.042   0.782   2.551
 3216SOL    HW210536   2.945   0.710   2.643
 3217SOL     OW10537   3.628   0.608   2.091
 3217SOL    HW110538   3.608   0.597   1.998
 3217SOL    HW210539   3.595   0.528   2.132
 3218SOL     OW10540   2.620   1.144   2.901
 3218SOL    HW110541   2.550   1.177   2.957
 3218SOL    HW210542   2.654   1.222   2.856
 3219SOL     OW10543   2.725   0.778   3.684
 3219SOL    HW110544   2.713   0.849   3.747
 3219SOL    HW210545   2.749   0.822   3.602
 3220SOL     OW10546   2.549   1.006   2.510
 3220SOL    HW110547   2.613   0.991   2.580
 3220SOL    HW210548   2.478   1.056   2.551
 3221SOL     OW10549   2.571   1.151   3.671
 3221SOL    HW110550   2.618   1.230   3.698
 3221SOL    HW210551   2.487   1.184   3.638
 3222SOL     OW10552   2.194   1.426   2.931
 3222SOL    HW110553   2.119   1.391   2.881
 3222SOL    HW210554   2.243   1.477   2.866
 3223SOL     OW10555   3.323   1.498   3.214
 3223SOL    HW110556   3.370   1.581   3.225
 3223SOL    HW210557   3.264   1.494   3.289
 3224SOL     OW10558   2.303   0.395   3.352
 3224SOL    HW110559   2.385   0.346   3.354
 3224SOL    HW210560   2.235   0.329   3.366
 3225SOL     OW10561   3.474   0.447   2.600
 3225SOL    HW110562   3.393   0.470   2.554
 3225SOL    HW210563   3.494   0.524   2.653
 3226SOL     OW10564   2.083   1.725   2.338
 3226SOL    HW110565   2.124   1.765   2.414
 3226SOL    HW210566   2.154   1.711   2.276
 3227SOL     OW10567   2.998   1.341   3.553
 3227SOL    HW110568   3.037   1.338   3.641
 3227SOL    HW210569   2.945   1.261   3.548
 3228SOL     OW10570   2.089   1.443   2.396
 3228SOL    HW110571   2.066   1.535   2.407
 3228SOL    HW210572   2.031   1.397   2.457
 3229SOL     OW10573   2.117   1.090   2.752
 3229SOL    HW110574   2.114   1.004   2.795
 3229SOL    HW210575   2.060   1.145   2.805
 3230SOL     OW10576   2.477   1.782   3.295
 3230SOL    HW110577   2.392   1.770   3.339
 3230SOL    HW210578   2.499   1.873   3.312
 3231SOL     OW10579   2.450   0.980   1.995
 3231SOL    HW110580   2.494   1.031   1.926
 3231SOL    HW210581   2.490   1.010   2.076
 3232SOL     OW10582   3.446   0.114   3.335
 3232SOL    HW110583   3.462   0.183   3.270
 3232SOL    HW210584   3.435   0.162   3.418
 3233SOL     OW10585   1.977   0.652   2.421
 3233SOL    HW110586   1.948   0.563   2.443
 3233SOL    HW210587   1.969   0.701   2.503
 3234SOL     OW10588   3.704   1.760   2.198
 3234SOL    HW110589   3.764   1.731   2.266
 3234SOL    HW210590   3.729   1.851   2.180
 3235SOL     OW10591   1.892   1.587   1.985
 3235SOL    HW110592   1.875   1.494   2.003
 3235SOL    HW210593   1.867   1.631   2.067
 3236SOL     OW10594   3.553   0.921   2.502
 3236SOL    HW110595   3.637   0.879   2.482
 3236SOL    HW210596   3.531   0.969   2.422
 3237SOL     OW10597   3.507   1.108   2.291
 3237SOL    HW110598   3.593   1.115   2.249
 3237SOL    HW210599   3.512   1.168   2.365
 3238SOL     OW10600   1.984   0.744   3.447
 3238SOL    HW110601   2.076   0.768   3.459
 3238SOL    HW210602   1.936   0.826   3.456
 3239SOL     OW10603   2.475   1.383   2.596
 3239SOL    HW110604   2.429   1.300   2.606
 3239SOL    HW210605   2.458   1.410   2.506
 3240SOL     OW10606   3.152   1.239   3.285
 3240SOL    HW110607   3.185   1.171   3.226
 3240SOL    HW210608   3.208   1.232   3.363
 3241SOL     OW10609   2.678   0.013   2.410
 3241SOL    HW110610   2.712   0.098   2.386
 3241SOL    HW210611   2.583   0.022   2.403
 3242SOL     OW10612   2.053   0.968   3.132
 3242SOL    HW110613   2.137   0.925   3.116
 3242SOL    HW210614   1.989   0.912   3.087
 3243SOL     OW10615   3.394   0.992   2.059
 3243SOL    HW110616   3.323   0.935   2.090
 3243SOL    HW210617   3.433   1.026   2.139
 3244SOL     OW10618   3.050   1.805   3.482
 3244SOL    HW110619   3.062   1.861   3.406
 3244SOL    HW210620   3.063   1.716   3.450
 3245SOL     OW10621   2.177   0.255   3.643
 3245SOL    HW110622   2.241   0.319   3.675
 3245SOL    HW210623   2.103   0.262   3.703
 3246SOL     OW10624   3.328   1.420   2.814
 3246SOL    HW110625   3.260   1.434   2.880
 3246SOL    HW210626   3.316   1.329   2.787
 3247SOL     OW10627   3.522   1.736   2.440
 3247SOL    HW110628   3.500   1.707   2.351
 3247SOL    HW210629   3.496   1.662   2.496
 3248SOL     OW10630   2.456   0.723   2.127
 3248SOL    HW110631   2.463   0.804   2.076
 3248SOL    HW210632   2.390   0.743   2.194
 3249SOL     OW10633   3.152   0.360   2.796
 3249SOL    HW110634   3.063   0.330   2.781
 3249SOL    HW210635   3.189   0.297   2.858
 3250SOL     OW10636   3.443   1.669   2.171
 3250SOL    HW110637   3.533   1.702   2.164
 3250SOL    HW210638   3.417   1.652   2.080
 3251SOL     OW10639   2.658   0.618   3.317
 3251SOL    HW110640   2.629   0.594   3.405
 3251SOL    HW210641   2.616   0.554   3.259
 3252SOL     OW10642   3.251   0.479   3.538
 3252SOL    HW110643   3.253   0.522   3.623
 3252SOL    HW210644   3.317   0.410   3.545
 3253SOL     OW10645   2.819   0.889   3.443
 3253SOL    HW110646   2.872   0.817   3.409
 3253SOL    HW210647   2.771   0.921   3.367
 3254SOL     OW10648   2.858   0.417   3.100
 3254SOL    HW110649   2.771   0.429   3.139
 3254SOL    HW210650   2.841   0.365   3.020
 3255SOL     OW10651   2.911   0.698   2.289
 3255SOL    HW110652   2.927   0.690   2.384
 3255SOL    HW210653   2.829   0.651   2.275
 3256SOL     OW10654   1.951   0.820   2.638
 3256SOL    HW110655   2.032   0.814   2.688
 3256SOL    HW210656   1.908   0.898   2.673
 3257SOL     OW10657   1.969   1.797   3.428
 3257SOL    HW110658   1.974   1.793   3.524
 3257SOL    HW210659   1.884   1.836   3.409
 3258SOL     OW10660   2.716   0.368   2.043
 3258SOL    HW110661   2.790   0.403   1.993
 3258SOL    HW210662   2.732   0.274   2.047
 3259SOL     OW10663   3.568   0.575   3.690
 3259SOL    HW110664   3.532   0.651   3.644
 3259SOL    HW210665   3.602   0.518   3.620
 3260SOL     OW10666   3.238   1.143   2.404
 3260SOL    HW110667   3.316   1.129   2.351
 3260SOL    HW210668   3.185   1.204   2.353
 3261SOL     OW10669   2.401   0.203   2.763
 3261SOL    HW110670   2.421   0.220   2.855
 3261SOL    HW210671   2.392   0.289   2.723
 3262SOL     OW10672   2.870   1.445   2.335
 3262SOL    HW110673   2.830   1.517   2.286
 3262SOL    HW210674   2.854   1.467   2.427
 3263SOL     OW10675   2.214   1.792   2.695
 3263SOL    HW110676   2.253   1.706   2.713
 3263SOL    HW210677   2.282   1.854   2.721
 3264SOL     OW10678   3.660   1.061   2.729
 3264SOL    HW110679   3.605   1.041   2.654
 3264SOL    HW210680   3.599   1.065   2.803
 3265SOL     OW10681   3.091   1.539   3.374
 3265SOL    HW110682   3.076   1.467   3.436
 3265SOL    HW210683   3.026   1.524   3.305
 3266SOL     OW10684   2.183   0.956   2.111
 3266SOL    HW110685   2.265   0.975   2.065
 3266SOL    HW210686   2.152   0.874   2.072
 3267SOL     OW10687   3.340   0.740   2.587
 3267SOL    HW110688   3.326   0.695   2.670
 3267SOL    HW210689   3.416   0.796   2.603
 3268SOL     OW10690   2.327   1.263   3.599
 3268SOL    HW110691   2.299   1.268   3.508
 3268SOL    HW210692   2.246   1.262   3.649
 3269SOL     OW10693   2.983   1.777   2.094
 3269SOL    HW110694   2.911   1.734   2.140
 3269SOL    HW210695   3.005   1.717   2.023
 3270SOL     OW10696   2.050   0.268   3.372
 3270SOL    HW110697   1.985   0.335   3.355
 3270SOL    HW210698   2.062   0.269   3.467
 3271SOL     OW10699   3.491   1.379   1.949
 3271SOL    HW110700   3.450   1.464   1.934
 3271SOL    HW210701   3.422   1.316   1.931
 3272SOL     OW10702   2.328   1.724   2.200
 3272SOL    HW110703   2.368   1.795   2.250
 3272SOL    HW210704   2.388   1.710   2.126
 3273SOL     OW10705   3.280   0.135   2.280
 3273SOL    HW110706   3.263   0.085   2.199
 3273SOL    HW210707   3.375   0.130   2.292
 3274SOL     OW10708   2.097   1.771   3.104
 3274SOL    HW110709   2.168   1.716   3.138
 3274SOL    HW210710   2.108   1.767   3.009
 3275SOL     OW10711   2.797   1.697   2.763
 3275SOL    HW110712   2.875   1.646   2.784
 3275SOL    HW210713   2.755   1.649   2.692
 3276SOL     OW10714   2.253   0.695   2.338
 3276SOL    HW110715   2.277   0.603   2.350
 3276SOL    HW210716   2.159   0.698   2.357
 3277SOL     OW10717   3.388   0.233   3.584
 3277SOL    HW110718   3.387   0.256   3.677
 3277SOL    HW210719   3.311   0.177   3.573
 3278SOL     OW10720   2.487   0.122   1.983
 3278SOL    HW110721   2.576   0.086   1.992
 3278SOL    HW210722   2.455   0.087   1.900
 3279SOL     OW10723   2.631   0.270   3.615
 3279SOL    HW110724   2.696   0.202   3.630
 3279SOL    HW210725   2.586   0.279   3.699
 3280SOL     OW10726   2.740   1.523   3.054
 3280SOL    HW110727   2.723   1.484   2.968
 3280SOL    HW210728   2.808   1.467   3.093
 3281SOL     OW10729   3.204   0.589   3.291
 3281SOL    HW110730   3.232   0.559   3.378
 3281SOL    HW210731   3.238   0.678   3.284
 3282SOL     OW10732   2.676   1.398   2.799
 3282SOL    HW110733   2.760   1.386   2.755
 3282SOL    HW210734   2.611   1.395   2.729
 3283SOL     OW10735   2.785   0.517   2.763
 3283SOL    HW110736   2.768   0.515   2.668
 3283SOL    HW210737   2.824   0.431   2.782
 3284SOL     OW10738   2.415   0.074   2.382
 3284SOL    HW110739   2.326   0.048   2.406
 3284SOL    HW210740   2.404   0.141   2.314
 3285SOL     OW10741   3.291   1.198   1.904
 3285SOL    HW110742   3.321   1.122   1.953
 3285SOL    HW210743   3.204   1.218   1.940
 3286SOL     OW10744   2.158   0.070   2.056
 3286SOL    HW110745   2.236   0.122   2.039
 3286SOL    HW210746   2.188   4.500   2.113
 3287SOL     OW10747   2.813   0.240   2.332
 3287SOL    HW110748   2.761   0.292   2.271
 3287SOL    HW210749   2.901   0.276   2.325
 3288SOL     OW10750   2.942   0.680   3.323
 3288SOL    HW110751   2.870   0.617   3.324
 3288SOL    HW210752   3.020   0.626   3.311
 3289SOL     OW10753   3.086   1.570   2.656
 3289SOL    HW110754   3.105   1.637   2.590
 3289SOL    HW210755   3.154   1.581   2.722
 3290SOL     OW10756   2.330   1.149   2.598
 3290SOL    HW110757   2.260   1.130   2.660
 3290SOL    HW210758   2.291   1.131   2.512
 3291SOL     OW10759   3.133   1.795   2.468
 3291SOL    HW110760   3.177   1.856   2.409
 3291SOL    HW210761   3.068   1.849   2.514
 3292SOL     OW10762   2.892   0.549   1.877
 3292SOL    HW110763   2.844   0.630   1.862
 3292SOL    HW210764   2.950   0.569   1.951
 3293SOL     OW10765   1.942   0.551   3.256
 3293SOL    HW110766   2.033   0.554   3.226
 3293SOL    HW210767   1.936   0.623   3.319
 3294SOL     OW10768   2.426   0.242   3.027
 3294SOL    HW110769   2.453   0.159   3.066
 3294SOL    HW210770   2.334   0.251   3.053
 3295SOL     OW10771   2.728   0.503   2.488
 3295SOL    HW110772   2.679   0.544   2.417
 3295SOL    HW210773   2.704   0.410   2.483
 3296SOL     OW10774   2.829   0.029   2.639
 3296SOL    HW110775   2.780   0.026   2.558
 3296SOL    HW210776   2.840   4.438   2.665
 3297SOL     OW10777   3.298   1.164   2.719
 3297SOL    HW110778   3.230   1.096   2.719
 3297SOL    HW210779   3.321   1.175   2.627
 3298SOL     OW10780   3.329   0.603   2.839
 3298SOL    HW110781   3.277   0.523   2.842
 3298SOL    HW210782   3.387   0.597   2.915
 3299SOL     OW10783   3.709   0.818   2.244
 3299SOL    HW110784   3.764   0.766   2.302
 3299SOL    HW210785   3.680   0.756   2.177
 3300SOL     OW10786   2.354   1.416   2.020
 3300SOL    HW110787   2.279   1.387   2.073
 3300SOL    HW210788   2.335   1.383   1.933
 3301SOL     OW10789   3.531   1.265   2.508
 3301SOL    HW110790   3.626   1.269   2.523
 3301SOL    HW210791   3.500   1.353   2.531
 3302SOL     OW10792   3.256   0.570   1.932
 3302SOL    HW110793   3.195   0.554   2.004
 3302SOL    HW210794   3.342   0.549   1.969
 3303SOL     OW10795   2.385   0.266   2.186
 3303SOL    HW110796   2.430   0.214   2.119
 3303SOL    HW210797   2.369   0.350   2.144
 3304SOL     OW10798   3.615   1.237   3.437
 3304SOL    HW110799   3.703   1.198   3.434
 3304SOL    HW210800   3.629   1.326   3.467
 3305SOL     OW10801   2.921   1.354   3.196
 3305SOL    HW110802   2.847   1.323   3.247
 3305SOL    HW210803   2.998   1.313   3.237
 3306SOL     OW10804   3.469   1.626   3.514
 3306SOL    HW110805   3.465   1.659   3.425
 3306SOL    HW210806   3.551   1.578   3.519
 3307SOL     OW10807   2.990   1.203   2.969
 3307SOL    HW110808   2.930   1.239   3.034
 3307SOL    HW210809   2.954   1.232   2.885
 3308SOL     OW10810   3.492   1.099   2.940
 3308SOL    HW110811   3.488   1.161   3.013
 3308SOL    HW210812   3.411   1.114   2.891
 3309SOL     OW10813   2.766   0.131   3.251
 3309SOL    HW110814   2.788   0.088   3.169
 3309SOL    HW210815   2.850   0.145   3.295
 3310SOL     OW10816   2.846   1.115   3.584
 3310SOL    HW110817   2.754   1.131   3.605
 3310SOL    HW210818   2.845   1.037   3.528
 3311SOL     OW10819   2.570   1.061   2.234
 3311SOL    HW110820   2.557   1.046   2.327
 3311SOL    HW210821   2.646   1.007   2.211
 3312SOL     OW10822   2.280   0.815   3.113
 3312SOL    HW110823   2.349   0.824   3.179
 3312SOL    HW210824   2.245   0.727   3.128
 3313SOL     OW10825   3.131   0.376   3.134
 3313SOL    HW110826   3.163   0.455   3.179
 3313SOL    HW210827   3.042   0.399   3.107
 3314SOL     OW10828   1.927   1.568   3.209
 3314SOL    HW110829   1.894   1.645   3.163
 3314SOL    HW210830   2.021   1.581   3.213
 3315SOL     OW10831   2.214   1.108   2.353
 3315SOL    HW110832   2.218   1.180   2.291
 3315SOL    HW210833   2.212   1.029   2.298
 3316SOL     OW10834   2.419   0.531   2.721
 3316SOL    HW110835   2.434   0.590   2.647
 3316SOL    HW210836   2.482   0.560   2.787
 3317SOL     OW10837   3.110   1.348   2.251
 3317SOL    HW110838   3.166   1.420   2.282
 3317SOL    HW210839   3.023   1.369   2.285
 3318SOL     OW10840   3.140   1.456   3.008
 3318SOL    HW110841   3.195   1.458   3.087
 3318SOL    HW210842   3.085   1.379   3.019
 3319SOL     OW10843   3.445   0.624   2.338
 3319SOL    HW110844   3.399   0.676   2.404
 3319SOL    HW210845   3.489   0.689   2.283
 3320SOL     OW10846   2.214   1.518   3.182
 3320SOL    HW110847   2.197   1.480   3.096
 3320SOL    HW210848   2.309   1.533   3.184
 3321SOL     OW10849   2.276   0.743   3.464
 3321SOL    HW110850   2.335   0.790   3.405
 3321SOL    HW210851   2.321   0.660   3.482
 3322SOL     OW10852   3.461   0.777   3.542
 3322SOL    HW110853   3.375   0.818   3.535
 3322SOL    HW210854   3.513   0.820   3.473
 3323SOL     OW10855   2.869   0.085   3.586
 3323SOL    HW110856   2.892   0.169   3.547
 3323SOL    HW210857   2.894   0.020   3.520
 3324SOL     OW10858   2.361   0.048   3.619
 3324SOL    HW110859   2.353   0.003   3.535
 3324SOL    HW210860   2.293   0.115   3.617
 3325SOL     OW10861   2.444   0.873   2.893
 3325SOL    HW110862   2.474   0.964   2.891
 3325SOL    HW210863   2.388   0.867   2.970
 3326SOL     OW10864   3.222   0.859   2.894
 3326SOL    HW110865   3.139   0.851   2.846
 3326SOL    HW210866   3.260   0.771   2.889
 3327SOL     OW10867   3.068   0.535   2.127
 3327SOL    HW110868   3.074   0.454   2.178
 3327SOL    HW210869   3.025   0.597   2.185
 3328SOL     OW10870   2.152   0.235   3.102
 3328SOL    HW110871   2.110   0.251   3.187
 3328SOL    HW210872   2.184   0.144   3.108
 3329SOL     OW10873   1.906   1.308   3.139
 3329SOL    HW110874   1.942   1.257   3.211
 3329SOL    HW210875   1.915   1.399   3.167
 3330SOL     OW10876   2.586   0.632   2.921
 3330SOL    HW110877   2.659   0.612   2.863
 3330SOL    HW210878   2.559   0.721   2.897
 3331SOL     OW10879   3.595   0.959   3.713
 3331SOL    HW110880   3.547   0.902   3.654
 3331SOL    HW210881   3.537   0.971   3.787
 3332SOL     OW10882   2.160   0.058   2.516
 3332SOL    HW110883   2.150   0.153   2.519
 3332SOL    HW210884   2.172   0.032   2.607
 3333SOL     OW10885   3.474   0.376   2.227
 3333SOL    HW110886   3.505   0.313   2.292
 3333SOL    HW210887   3.452   0.454   2.277
 3334SOL     OW10888   2.890   0.761   2.824
 3334SOL    HW110889   2.888   0.777   2.918
 3334SOL    HW210890   2.861   0.670   2.815
 3335SOL     OW10891   2.846   1.567   3.577
 3335SOL    HW110892   2.830   1.611   3.494
 3335SOL    HW210893   2.887   1.484   3.554
 3336SOL     OW10894   3.717   1.508   3.468
 3336SOL    HW110895   3.734   1.533   3.377
 3336SOL    HW210896   3.799   1.528   3.514
 3337SOL     OW10897   2.216   0.916   3.669
 3337SOL    HW110898   2.297   0.935   3.716
 3337SOL    HW210899   2.240   0.854   3.601
 3338SOL     OW10900   3.393   0.266   1.990
 3338SOL    HW110901   3.321   0.210   2.018
 3338SOL    HW210902   3.422   0.311   2.070
 3339SOL     OW10903   3.155   0.827   1.894
 3339SOL    HW110904   3.197   0.741   1.896
 3339SOL    HW210905   3.186   0.866   1.812
 3340SOL     OW10906   2.926   1.335   2.714
 3340SOL    HW110907   2.929   1.262   2.653
 3340SOL    HW210908   2.989   1.398   2.680
 3341SOL     OW10909   2.172   0.810   2.810
 3341SOL    HW110910   2.265   0.832   2.804
 3341SOL    HW210911   2.171   0.721   2.844
 3342SOL     OW10912   2.199   0.530   2.875
 3342SOL    HW110913   2.157   0.446   2.855
 3342SOL    HW210914   2.274   0.533   2.816
 3343SOL     OW10915   2.997   0.374   3.556
 3343SOL    HW110916   2.949   0.439   3.607
 3343SOL    HW210917   3.083   0.414   3.543
 3344SOL     OW10918   3.022   0.211   3.335
 3344SOL    HW110919   3.013   0.275   3.406
 3344SOL    HW210920   3.058   0.261   3.262
 3345SOL     OW10921   1.867   1.320   2.056
 3345SOL    HW110922   1.779   1.334   2.020
 3345SOL    HW210923   1.865   1.231   2.090
 3346SOL     OW10924   1.948   1.783   2.793
 3346SOL    HW110925   1.917   1.701   2.754
 3346SOL    HW210926   2.036   1.794   2.759
 3347SOL     OW10927   2.360   1.571   2.766
 3347SOL    HW110928   2.429   1.634   2.786
 3347SOL    HW210929   2.404   1.504   2.712
 3348SOL     OW10930   2.848   0.794   3.090
 3348SOL    HW110931   2.902   0.770   3.166
 3348SOL    HW210932   2.762   0.756   3.108
 3349SOL     OW10933   1.896   0.542   2.980
 3349SOL    HW110934   1.974   0.524   2.929
 3349SOL    HW210935   1.927   0.548   3.070
 3350SOL     OW10936   2.046   0.518   3.582
 3350SOL    HW110937   2.121   0.498   3.525
 3350SOL    HW210938   2.005   0.594   3.541
 3351SOL     OW10939   3.239   0.940   3.521
 3351SOL    HW110940   3.259   1.034   3.521
 3351SOL    HW210941   3.236   0.916   3.429
 3352SOL     OW10942   2.673   0.574   2.216
 3352SOL    HW110943   2.677   0.502   2.153
 3352SOL    HW210944   2.599   0.627   2.187
 3353SOL     OW10945   3.503   0.602   3.050
 3353SOL    HW110946   3.493   0.542   3.124
 3353SOL    HW210947   3.590   0.582   3.016
 3354SOL     OW10948   2.112   1.549   3.593
 3354SOL    HW110949   2.084   1.612   3.659
 3354SOL    HW210950   2.109   1.464   3.637
 3355SOL     OW10951   2.557   0.459   3.127
 3355SOL    HW110952   2.512   0.382   3.094
 3355SOL    HW210953   2.559   0.520   3.053
 3356SOL     OW10954   2.794   1.678   3.328
 3356SOL    HW110955   2.763   1.646   3.243
 3356SOL    HW210956   2.790   1.773   3.321
 3357SOL     OW10957   2.328   0.493   2.047
 3357SOL    HW110958   2.386   0.566   2.068
 3357SOL    HW210959   2.242   0.533   2.037
 3358SOL     OW10960   2.009   1.140   3.334
 3358SOL    HW110961   2.013   1.087   3.414
 3358SOL    HW210962   2.026   1.078   3.263
 3359SOL     OW10963   3.190   1.048   3.086
 3359SOL    HW110964   3.213   0.985   3.018
 3359SOL    HW210965   3.118   1.099   3.048
 3360SOL     OW10966   3.172   0.857   2.169
 3360SOL    HW110967   3.096   0.827   2.219
 3360SOL    HW210968   3.147   0.843   2.077
 3361SOL     OW10969   3.632   1.746   3.011
 3361SOL    HW110970   3.692   1.771   2.941
 3361SOL    HW210971   3.608   1.656   2.990
 3362SOL     OW10972   3.104   1.733   2.977
 3362SOL    HW110973   3.186   1.752   2.931
 3362SOL    HW210974   3.107   1.639   2.996
 3363SOL     OW10975   1.947   1.265   2.875
 3363SOL    HW110976   1.933   1.278   2.969
 3363SOL    HW210977   1.872   1.213   2.847
 3364SOL     OW10978   2.539   1.664   3.587
 3364SOL    HW110979   2.488   1.744   3.590
 3364SOL    HW210980   2.600   1.676   3.515
 3365SOL     OW10981   3.580   0.130   2.357
 3365SOL    HW110982   3.653   0.136   2.296
 3365SOL    HW210983   3.603   0.057   2.415
 3366SOL     OW10984   3.252   1.568   2.346
 3366SOL    HW110985   3.313   1.599   2.278
 3366SOL    HW210986   3.204   1.646   2.373
 3367SOL     OW10987   1.995   1.796   3.698
 3367SOL    HW110988   1.953   1.733   3.756
 3367SOL    HW210989   2.041   1.856   3.756
 3368SOL     OW10990   3.140   0.927   2.534
 3368SOL    HW110991   3.213   0.864   2.538
 3368SOL    HW210992   3.174   0.999   2.482
 3369SOL     OW10993   2.679   1.273   3.292
 3369SOL    HW110994   2.652   1.311   3.376
 3369SOL    HW210995   2.607   1.293   3.233
 3370SOL     OW10996   2.535   1.618   2.015
 3370SOL    HW110997   2.543   1.628   1.920
 3370SOL    HW210998   2.480   1.540   2.026
 3371SOL     OW10999   3.493   1.727   3.254
 3371SOL    HW111000   3.540   1.734   3.171
 3371SOL    HW211001   3.479   1.817   3.282
 3372SOL     OW11002   3.701   0.155   2.829
 3372SOL    HW111003   3.732   0.079   2.779
 3372SOL    HW211004   3.614   0.173   2.792
 3373SOL     OW11005   2.128   0.324   2.581
 3373SOL    HW111006   2.042   0.358   2.553
 3373SOL    HW211007   2.120   0.314   2.676
 3374SOL     OW11008   3.068   1.607   1.893
 3374SOL    HW111009   3.060   1.516   1.921
 3374SOL    HW211010   3.003   1.618   1.824
 3375SOL     OW11011   2.686   1.006   3.234
 3375SOL    HW111012   2.729   1.002   3.149
 3375SOL    HW211013   2.687   1.099   3.257
 3376SOL     OW11014   2.778   0.910   2.152
 3376SOL    HW111015   2.840   0.942   2.086
 3376SOL    HW211016   2.824   0.840   2.197
 3377SOL     OW11017   3.356   1.625   1.904
 3377SOL    HW111018   3.261   1.620   1.892
 3377SOL    HW211019   3.391   1.631   1.816
 3378SOL     OW11020   2.232   1.299   3.354
 3378SOL    HW111021   2.220   1.378   3.301
 3378SOL    HW211022   2.153   1.247   3.338
 3379SOL     OW11023   3.474   1.284   3.143
 3379SOL    HW111024   3.532   1.273   3.219
 3379SOL    HW211025   3.413   1.353   3.168
 3380SOL     OW11026   2.912   1.106   2.568
 3380SOL    HW111027   2.841   1.055   2.607
 3380SOL    HW211028   2.973   1.040   2.535
 3381SOL     OW11029   2.869   0.242   2.862
 3381SOL    HW111030   2.875   0.215   2.770
 3381SOL    HW211031   2.862   0.160   2.910
 3382SOL     OW11032   2.463   1.490   2.343
 3382SOL    HW111033   2.505   1.438   2.274
 3382SOL    HW211034   2.400   1.545   2.297
 3383SOL     OW11035   3.582   0.393   3.239
 3383SOL    HW111036   3.655   0.456   3.238
 3383SOL    HW211037   3.611   0.322   3.183
 3384SOL     OW11038   2.121   1.347   2.150
 3384SOL    HW111039   2.027   1.343   2.128
 3384SOL    HW211040   2.123   1.384   2.238
 3385SOL     OW11041   1.974   1.018   3.581
 3385SOL    HW111042   1.898   0.996   3.635
 3385SOL    HW211043   2.049   0.983   3.629
 3386SOL     OW11044   2.521   0.203   3.359
 3386SOL    HW111045   2.601   0.179   3.313
 3386SOL    HW211046   2.550   0.223   3.448
 3387SOL     OW11047   1.943   0.341   1.909
 3387SOL    HW111048   1.871   0.289   1.872
 3387SOL    HW211049   1.958   0.410   1.844
 3388SOL     OW11050   3.293   0.858   3.263
 3388SOL    HW111051   3.244   0.918   3.206
 3388SOL    HW211052   3.383   0.861   3.229
 3389SOL     OW11053   1.927   0.181   2.183
 3389SOL    HW111054   1.925   0.248   2.115
 3389SOL    HW211055   2.002   0.126   2.161
 3390SOL     OW11056   3.041   1.341   1.979
 3390SOL    HW111057   2.951   1.311   1.981
 3390SOL    HW211058   3.070   1.340   2.070
 3391SOL     OW11059   2.481   0.831   3.295
 3391SOL    HW111060   2.536   0.907   3.280
 3391SOL    HW211061   2.542   0.758   3.303
 3392SOL     OW11062   3.346   1.776   2.839
 3392SOL    HW111063   3.372   1.833   2.766
 3392SOL    HW211064   3.428   1.757   2.885
 3393SOL     OW11065   2.578   0.564   3.568
 3393SOL    HW111066   2.614   0.629   3.628
 3393SOL    HW211067   2.613   0.480   3.599
 3394SOL     OW11068   3.331   1.202   3.495
 3394SOL    HW111069   3.319   1.215   3.589
 3394SOL    HW211070   3.425   1.215   3.481
 3395SOL     OW11071   2.240   1.741   3.426
 3395SOL    HW111072   2.152   1.770   3.403
 3395SOL    HW211073   2.227   1.656   3.469
 3396SOL     OW11074   3.533   0.882   3.117
 3396SOL    HW111075   3.524   0.796   3.075
 3396SOL    HW211076   3.524   0.945   3.047
 3397SOL     OW11077   3.080   0.328   2.310
 3397SOL    HW111078   3.145   0.259   2.300
 3397SOL    HW211079   3.107   0.376   2.389
 3398SOL     OW11080   2.450   0.739   2.531
 3398SOL    HW111081   2.492   0.824   2.515
 3398SOL    HW211082   2.382   0.732   2.465
 3399SOL     OW11083   3.627   0.362   3.505
 3399SOL    HW111084   3.610   0.376   3.412
 3399SOL    HW211085   3.548   0.318   3.537
 3400SOL     OW11086   3.607   0.933   3.374
 3400SOL    HW111087   3.605   1.028   3.388
 3400SOL    HW211088   3.591   0.922   3.281
 3401SOL     OW11089   2.725   1.368   1.894
 3401SOL    HW111090   2.685   1.395   1.977
 3401SOL    HW211091   2.743   1.451   1.849
 3402SOL     OW11092   2.521   1.798   2.795
 3402SOL    HW111093   2.518   1.886   2.833
 3402SOL    HW211094   2.614   1.775   2.798
 3403SOL     OW11095   2.728   0.966   2.718
 3403SOL    HW111096   2.779   0.895   2.757
 3403SOL    HW211097   2.695   1.016   2.792
 3404SOL     OW11098   2.942   0.989   1.951
 3404SOL    HW111099   2.920   1.038   1.872
 3404SOL    HW211100   3.017   0.935   1.925
 3405SOL     OW11101   3.717   1.556   2.707
 3405SOL    HW111102   3.640   1.544   2.652
 3405SOL    HW211103   3.710   1.488   2.774
 3406SOL     OW11104   2.087   1.303   3.719
 3406SOL    HW111105   2.018   1.243   3.690
 3406SOL    HW211106   2.071   1.315   3.812
 3407SOL     OW11107   1.948   1.235   2.525
 3407SOL    HW111108   1.948   1.187   2.608
 3407SOL    HW211109   2.015   1.192   2.472
 3408SOL     OW11110   2.541   1.402   3.487
 3408SOL    HW111111   2.463   1.358   3.519
 3408SOL    HW211112   2.537   1.489   3.525
 3409SOL     OW11113   3.671   0.183   3.101
 3409SOL    HW111114   3.671   0.089   3.121
 3409SOL    HW211115   3.687   0.186   3.007
 3410SOL     OW11116   2.297   0.433   2.391
 3410SOL    HW111117   2.320   0.364   2.329
 3410SOL    HW211118   2.242   0.390   2.456
 3411SOL     OW11119   3.562   1.491   2.961
 3411SOL    HW111120   3.482   1.466   2.916
 3411SOL    HW211121   3.576   1.422   3.026
 3412SOL     OW11122   2.190   0.555   3.153
 3412SOL    HW111123   2.246   0.500   3.207
 3412SOL    HW211124   2.210   0.529   3.063
 3413SOL     OW11125   2.687   1.578   2.541
 3413SOL    HW111126   2.678   1.623   2.456
 3413SOL    HW211127   2.610   1.521   2.546
 3414SOL     OW11128   3.294   0.215   2.980
 3414SOL    HW111129   3.331   0.145   3.034
 3414SOL    HW211130   3.243   0.269   3.041
 3415SOL     OW11131   2.859   0.010   3.011
 3415SOL    HW111132   2.814   4.426   3.002
 3415SOL    HW211133   2.951   4.488   3.023
 3416SOL     OW11134   2.633   1.332   2.174
 3416SOL    HW111135   2.600   1.243   2.180
 3416SOL    HW211136   2.716   1.330   2.223
 3417SOL     OW11137   2.483   1.557   3.143
 3417SOL    HW111138   2.484   1.636   3.197
 3417SOL    HW211139   2.571   1.550   3.108
 3418SOL     OW11140   3.204   0.053   2.014
 3418SOL    HW111141   3.243   4.478   1.970
 3418SOL    HW211142   3.128   0.017   2.061
 3419SOL     OW11143   3.177   0.463   2.541
 3419SOL    HW111144   3.115   0.536   2.541
 3419SOL    HW211145   3.164   0.420   2.626
 3420SOL     OW11146   3.447   0.201   2.729
 3420SOL    HW111147   3.387   0.216   2.802
 3420SOL    HW211148   3.450   0.285   2.683
 3421SOL     OW11149   1.906   1.072   2.167
 3421SOL    HW111150   2.000   1.063   2.150
 3421SOL    HW211151   1.877   0.984   2.190
 3422SOL     OW11152   2.744   1.651   2.206
 3422SOL    HW111153   2.673   1.632   2.145
 3422SOL    HW211154   2.713   1.726   2.256
 3423SOL     OW11155   2.092   0.626   3.844
 3423SOL    HW111156   2.004   0.621   3.882
 3423SOL    HW211157   2.081   0.595   3.754
 3424SOL     OW11158   2.071   0.297   4.713
 3424SOL    HW111159   2.102   0.270   4.799
 3424SOL    HW211160   1.989   0.249   4.700
 3425SOL     OW11161   1.870   0.384   4.363
 3425SOL    HW111162   1.784   0.404   4.400
 3425SOL    HW211163   1.855   0.310   4.305
 3426SOL     OW11164   2.425   1.257   4.897
 3426SOL    HW111165   2.338   1.257   4.858
 3426SOL    HW211166   2.451   1.349   4.898
 3427SOL     OW11167   3.422   1.513   4.428
 3427SOL    HW111168   3.381   1.495   4.512
 3427SOL    HW211169   3.348   1.517   4.366
 3428SOL     OW11170   2.995   0.699   4.425
 3428SOL    HW111171   3.042   0.781   4.413
 3428SOL    HW211172   2.945   0.711   4.505
 3429SOL     OW11173   3.629   0.608   3.953
 3429SOL    HW111174   3.608   0.597   3.860
 3429SOL    HW211175   3.595   0.528   3.994
 3430SOL     OW11176   2.627   1.140   4.760
 3430SOL    HW111177   2.558   1.176   4.816
 3430SOL    HW211178   2.656   1.214   4.706
 3431SOL     OW11179   2.725   0.778   5.545
 3431SOL    HW111180   2.712   0.850   5.607
 3431SOL    HW211181   2.749   0.822   5.463
 3432SOL     OW11182   2.548   1.003   4.371
 3432SOL    HW111183   2.613   0.991   4.440
 3432SOL    HW211184   2.479   1.056   4.412
 3433SOL     OW11185   2.570   1.149   5.532
 3433SOL    HW111186   2.618   1.227   5.560
 3433SOL    HW211187   2.486   1.182   5.502
 3434SOL     OW11188   3.326   1.499   5.078
 3434SOL    HW111189   3.370   1.583   5.088
 3434SOL    HW211190   3.276   1.488   5.158
 3435SOL     OW11191   2.303   0.395   5.215
 3435SOL    HW111192   2.385   0.347   5.216
 3435SOL    HW211193   2.235   0.329   5.228
 3436SOL     OW11194   3.474   0.447   4.462
 3436SOL    HW111195   3.393   0.470   4.416
 3436SOL    HW211196   3.494   0.525   4.515
 3437SOL     OW11197   2.084   1.726   4.196
 3437SOL    HW111198   2.129   1.763   4.273
 3437SOL    HW211199   2.154   1.706   4.134
 3438SOL     OW11200   2.999   1.341   5.420
 3438SOL    HW111201   3.033   1.334   5.509
 3438SOL    HW211202   2.945   1.262   5.409
 3439SOL     OW11203   2.082   1.442   4.259
 3439SOL    HW111204   2.061   1.535   4.274
 3439SOL    HW211205   2.025   1.395   4.319
 3440SOL     OW11206   2.118   1.090   4.615
 3440SOL    HW111207   2.112   1.003   4.655
 3440SOL    HW211208   2.060   1.145   4.668
 3441SOL     OW11209   2.450   0.981   3.856
 3441SOL    HW111210   2.494   1.032   3.788
 3441SOL    HW211211   2.490   1.010   3.938
 3442SOL     OW11212   3.446   0.114   5.197
 3442SOL    HW111213   3.462   0.183   5.132
 3442SOL    HW211214   3.435   0.162   5.280
 3443SOL     OW11215   1.977   0.652   4.284
 3443SOL    HW111216   1.948   0.564   4.306
 3443SOL    HW211217   1.968   0.701   4.365
 3444SOL     OW11218   3.704   1.761   4.059
 3444SOL    HW111219   3.763   1.731   4.128
 3444SOL    HW211220   3.730   1.851   4.042
 3445SOL     OW11221   1.897   1.597   3.850
 3445SOL    HW111222   1.880   1.504   3.863
 3445SOL    HW211223   1.865   1.639   3.930
 3446SOL     OW11224   3.553   0.920   4.363
 3446SOL    HW111225   3.637   0.879   4.343
 3446SOL    HW211226   3.530   0.969   4.284
 3447SOL     OW11227   3.507   1.108   4.153
 3447SOL    HW111228   3.593   1.116   4.111
 3447SOL    HW211229   3.511   1.168   4.227
 3448SOL     OW11230   1.984   0.744   5.310
 3448SOL    HW111231   2.076   0.767   5.321
 3448SOL    HW211232   1.937   0.827   5.315
 3449SOL     OW11233   2.486   1.369   4.443
 3449SOL    HW111234   2.431   1.292   4.456
 3449SOL    HW211235   2.460   1.403   4.358
 3450SOL     OW11236   3.160   1.254   5.142
 3450SOL    HW111237   3.179   1.179   5.085
 3450SOL    HW211238   3.208   1.235   5.222
 3451SOL     OW11239   2.678   0.012   4.271
 3451SOL    HW111240   2.712   0.098   4.248
 3451SOL    HW211241   2.583   0.022   4.265
 3452SOL     OW11242   2.052   0.967   4.995
 3452SOL    HW111243   2.137   0.926   4.980
 3452SOL    HW211244   1.990   0.915   4.945
 3453SOL     OW11245   3.394   0.991   3.921
 3453SOL    HW111246   3.324   0.935   3.952
 3453SOL    HW211247   3.433   1.026   4.001
 3454SOL     OW11248   3.026   1.783   5.314
 3454SOL    HW111249   3.083   1.839   5.261
 3454SOL    HW211250   3.059   1.694   5.299
 3455SOL     OW11251   2.177   0.254   5.505
 3455SOL    HW111252   2.241   0.319   5.537
 3455SOL    HW211253   2.104   0.262   5.566
 3456SOL     OW11254   3.341   1.416   4.671
 3456SOL    HW111255   3.273   1.432   4.736
 3456SOL    HW211256   3.326   1.326   4.643
 3457SOL     OW11257   3.523   1.736   4.301
 3457SOL    HW111258   3.499   1.707   4.213
 3457SOL    HW211259   3.496   1.664   4.358
 3458SOL     OW11260   2.456   0.723   3.988
 3458SOL    HW111261   2.464   0.804   3.938
 3458SOL    HW211262   2.391   0.743   4.056
 3459SOL     OW11263   3.153   0.360   4.658
 3459SOL    HW111264   3.063   0.330   4.642
 3459SOL    HW211265   3.189   0.297   4.720
 3460SOL     OW11266   3.443   1.671   4.033
 3460SOL    HW111267   3.533   1.703   4.026
 3460SOL    HW211268   3.417   1.653   3.942
 3461SOL     OW11269   2.658   0.618   5.179
 3461SOL    HW111270   2.629   0.594   5.267
 3461SOL    HW211271   2.616   0.554   5.121
 3462SOL     OW11272   3.251   0.478   5.400
 3462SOL    HW111273   3.253   0.522   5.485
 3462SOL    HW211274   3.318   0.410   5.406
 3463SOL     OW11275   2.818   0.888   5.305
 3463SOL    HW111276   2.872   0.817   5.270
 3463SOL    HW211277   2.772   0.923   5.229
 3464SOL     OW11278   2.858   0.416   4.962
 3464SOL    HW111279   2.771   0.430   5.000
 3464SOL    HW211280   2.841   0.366   4.882
 3465SOL     OW11281   2.911   0.697   4.151
 3465SOL    HW111282   2.927   0.691   4.246
 3465SOL    HW211283   2.829   0.651   4.137
 3466SOL     OW11284   1.950   0.820   4.500
 3466SOL    HW111285   2.032   0.814   4.550
 3466SOL    HW211286   1.907   0.899   4.534
 3467SOL     OW11287   2.716   0.368   3.903
 3467SOL    HW111288   2.790   0.403   3.855
 3467SOL    HW211289   2.733   0.274   3.909
 3468SOL     OW11290   3.568   0.575   5.552
 3468SOL    HW111291   3.532   0.651   5.506
 3468SOL    HW211292   3.602   0.519   5.482
 3469SOL     OW11293   3.238   1.142   4.266
 3469SOL    HW111294   3.316   1.130   4.212
 3469SOL    HW211295   3.184   1.205   4.218
 3470SOL     OW11296   2.401   0.203   4.625
 3470SOL    HW111297   2.421   0.220   4.717
 3470SOL    HW211298   2.392   0.289   4.585
 3471SOL     OW11299   2.869   1.446   4.197
 3471SOL    HW111300   2.831   1.519   4.148
 3471SOL    HW211301   2.848   1.464   4.288
 3472SOL     OW11302   3.660   1.060   4.591
 3472SOL    HW111303   3.603   1.042   4.516
 3472SOL    HW211304   3.599   1.065   4.665
 3473SOL     OW11305   3.091   1.529   5.243
 3473SOL    HW111306   3.077   1.456   5.304
 3473SOL    HW211307   3.067   1.494   5.157
 3474SOL     OW11308   2.183   0.956   3.973
 3474SOL    HW111309   2.266   0.975   3.927
 3474SOL    HW211310   2.153   0.874   3.933
 3475SOL     OW11311   3.341   0.739   4.449
 3475SOL    HW111312   3.327   0.695   4.533
 3475SOL    HW211313   3.415   0.797   4.464
 3476SOL     OW11314   2.330   1.255   5.453
 3476SOL    HW111315   2.295   1.266   5.365
 3476SOL    HW211316   2.253   1.260   5.510
 3477SOL     OW11317   2.984   1.777   3.956
 3477SOL    HW111318   2.912   1.736   4.003
 3477SOL    HW211319   3.005   1.717   3.885
 3478SOL     OW11320   2.050   0.267   5.234
 3478SOL    HW111321   1.985   0.335   5.217
 3478SOL    HW211322   2.062   0.269   5.329
 3479SOL     OW11323   3.492   1.379   3.809
 3479SOL    HW111324   3.450   1.464   3.796
 3479SOL    HW211325   3.422   1.316   3.793
 3480SOL     OW11326   2.328   1.721   4.061
 3480SOL    HW111327   2.364   1.794   4.112
 3480SOL    HW211328   2.389   1.711   3.988
 3481SOL     OW11329   3.280   0.134   4.142
 3481SOL    HW111330   3.264   0.086   4.061
 3481SOL    HW211331   3.375   0.131   4.153
 3482SOL     OW11332   2.807   1.689   4.593
 3482SOL    HW111333   2.866   1.623   4.630
 3482SOL    HW211334   2.756   1.641   4.527
 3483SOL     OW11335   2.253   0.695   4.200
 3483SOL    HW111336   2.277   0.603   4.212
 3483SOL    HW211337   2.159   0.698   4.219
 3484SOL     OW11338   3.388   0.233   5.446
 3484SOL    HW111339   3.387   0.256   5.539
 3484SOL    HW211340   3.311   0.177   5.435
 3485SOL     OW11341   2.487   0.121   3.846
 3485SOL    HW111342   2.576   0.087   3.854
 3485SOL    HW211343   2.455   0.087   3.762
 3486SOL     OW11344   2.631   0.270   5.477
 3486SOL    HW111345   2.696   0.202   5.491
 3486SOL    HW211346   2.586   0.278   5.561
 3487SOL     OW11347   3.204   0.589   5.153
 3487SOL    HW111348   3.232   0.560   5.240
 3487SOL    HW211349   3.238   0.678   5.145
 3488SOL     OW11350   2.785   0.516   4.625
 3488SOL    HW111351   2.768   0.515   4.531
 3488SOL    HW211352   2.824   0.431   4.644
 3489SOL     OW11353   2.415   0.073   4.243
 3489SOL    HW111354   2.326   0.049   4.268
 3489SOL    HW211355   2.404   0.140   4.176
 3490SOL     OW11356   3.290   1.198   3.766
 3490SOL    HW111357   3.320   1.122   3.816
 3490SOL    HW211358   3.205   1.219   3.803
 3491SOL     OW11359   2.158   0.070   3.918
 3491SOL    HW111360   2.236   0.122   3.901
 3491SOL    HW211361   2.189   4.500   3.976
 3492SOL     OW11362   2.813   0.240   4.194
 3492SOL    HW111363   2.761   0.293   4.134
 3492SOL    HW211364   2.902   0.276   4.187
 3493SOL     OW11365   2.942   0.680   5.185
 3493SOL    HW111366   2.870   0.616   5.186
 3493SOL    HW211367   3.021   0.627   5.173
 3494SOL     OW11368   3.092   1.565   4.518
 3494SOL    HW111369   3.104   1.636   4.455
 3494SOL    HW211370   3.152   1.584   4.589
 3495SOL     OW11371   2.328   1.145   4.459
 3495SOL    HW111372   2.257   1.128   4.521
 3495SOL    HW211373   2.289   1.129   4.373
 3496SOL     OW11374   3.133   1.794   4.330
 3496SOL    HW111375   3.173   1.860   4.274
 3496SOL    HW211376   3.059   1.838   4.371
 3497SOL     OW11377   2.892   0.549   3.740
 3497SOL    HW111378   2.844   0.630   3.724
 3497SOL    HW211379   2.950   0.569   3.813
 3498SOL     OW11380   1.943   0.551   5.119
 3498SOL    HW111381   2.033   0.554   5.088
 3498SOL    HW211382   1.936   0.623   5.182
 3499SOL     OW11383   2.426   0.242   4.889
 3499SOL    HW111384   2.453   0.159   4.928
 3499SOL    HW211385   2.334   0.251   4.915
 3500SOL     OW11386   2.728   0.502   4.350
 3500SOL    HW111387   2.679   0.545   4.280
 3500SOL    HW211388   2.704   0.410   4.343
 3501SOL     OW11389   2.829   0.029   4.501
 3501SOL    HW111390   2.780   0.026   4.420
 3501SOL    HW211391   2.840   4.437   4.526
 3502SOL     OW11392   3.301   1.159   4.581
 3502SOL    HW111393   3.228   1.098   4.581
 3502SOL    HW211394   3.319   1.175   4.488
 3503SOL     OW11395   3.329   0.603   4.701
 3503SOL    HW111396   3.277   0.523   4.704
 3503SOL    HW211397   3.387   0.597   4.777
 3504SOL     OW11398   3.710   0.818   4.105
 3504SOL    HW111399   3.765   0.766   4.164
 3504SOL    HW211400   3.680   0.756   4.039
 3505SOL     OW11401   2.354   1.416   3.882
 3505SOL    HW111402   2.280   1.387   3.936
 3505SOL    HW211403   2.334   1.383   3.794
 3506SOL     OW11404   3.531   1.266   4.369
 3506SOL    HW111405   3.626   1.271   4.385
 3506SOL    HW211406   3.498   1.353   4.392
 3507SOL     OW11407   3.256   0.570   3.794
 3507SOL    HW111408   3.195   0.555   3.865
 3507SOL    HW211409   3.342   0.550   3.831
 3508SOL     OW11410   2.385   0.265   4.048
 3508SOL    HW111411   2.430   0.213   3.982
 3508SOL    HW211412   2.369   0.350   4.006
 3509SOL     OW11413   3.615   1.237   5.299
 3509SOL    HW111414   3.703   1.198   5.296
 3509SOL    HW211415   3.630   1.327   5.329
 3510SOL     OW11416   3.468   1.626   5.375
 3510SOL    HW111417   3.466   1.660   5.286
 3510SOL    HW211418   3.551   1.577   5.381
 3511SOL     OW11419   2.984   1.210   4.842
 3511SOL    HW111420   2.903   1.226   4.889
 3511SOL    HW211421   2.967   1.240   4.753
 3512SOL     OW11422   3.492   1.099   4.803
 3512SOL    HW111423   3.487   1.162   4.874
 3512SOL    HW211424   3.413   1.115   4.750
 3513SOL     OW11425   2.766   0.130   5.114
 3513SOL    HW111426   2.788   0.088   5.031
 3513SOL    HW211427   2.850   0.145   5.156
 3514SOL     OW11428   2.848   1.113   5.448
 3514SOL    HW111429   2.756   1.131   5.467
 3514SOL    HW211430   2.845   1.036   5.390
 3515SOL     OW11431   2.570   1.060   4.095
 3515SOL    HW111432   2.556   1.046   4.189
 3515SOL    HW211433   2.646   1.007   4.074
 3516SOL     OW11434   2.279   0.816   4.976
 3516SOL    HW111435   2.349   0.824   5.041
 3516SOL    HW211436   2.245   0.727   4.990
 3517SOL     OW11437   3.131   0.376   4.996
 3517SOL    HW111438   3.163   0.455   5.041
 3517SOL    HW211439   3.042   0.398   4.969
 3518SOL     OW11440   2.211   1.107   4.216
 3518SOL    HW111441   2.219   1.181   4.155
 3518SOL    HW211442   2.211   1.030   4.159
 3519SOL     OW11443   2.419   0.531   4.583
 3519SOL    HW111444   2.433   0.590   4.508
 3519SOL    HW211445   2.482   0.561   4.649
 3520SOL     OW11446   3.110   1.348   4.113
 3520SOL    HW111447   3.165   1.420   4.145
 3520SOL    HW211448   3.023   1.368   4.147
 3521SOL     OW11449   3.161   1.426   4.863
 3521SOL    HW111450   3.205   1.438   4.948
 3521SOL    HW211451   3.104   1.350   4.876
 3522SOL     OW11452   3.445   0.624   4.200
 3522SOL    HW111453   3.399   0.675   4.267
 3522SOL    HW211454   3.488   0.690   4.145
 3523SOL     OW11455   2.275   0.743   5.325
 3523SOL    HW111456   2.335   0.790   5.267
 3523SOL    HW211457   2.321   0.661   5.344
 3524SOL     OW11458   3.461   0.778   5.403
 3524SOL    HW111459   3.375   0.819   5.396
 3524SOL    HW211460   3.514   0.820   5.335
 3525SOL     OW11461   2.869   0.085   5.448
 3525SOL    HW111462   2.893   0.169   5.410
 3525SOL    HW211463   2.894   0.020   5.382
 3526SOL     OW11464   2.360   0.047   5.482
 3526SOL    HW111465   2.354   0.004   5.397
 3526SOL    HW211466   2.293   0.115   5.479
 3527SOL     OW11467   2.444   0.872   4.755
 3527SOL    HW111468   2.476   0.962   4.752
 3527SOL    HW211469   2.388   0.869   4.832
 3528SOL     OW11470   3.221   0.858   4.757
 3528SOL    HW111471   3.139   0.852   4.707
 3528SOL    HW211472   3.260   0.771   4.751
 3529SOL     OW11473   3.068   0.535   3.989
 3529SOL    HW111474   3.073   0.454   4.041
 3529SOL    HW211475   3.025   0.598   4.047
 3530SOL     OW11476   2.152   0.234   4.964
 3530SOL    HW111477   2.110   0.250   5.049
 3530SOL    HW211478   2.184   0.144   4.970
 3531SOL     OW11479   1.902   1.318   5.012
 3531SOL    HW111480   1.941   1.257   5.075
 3531SOL    HW211481   1.962   1.392   5.012
 3532SOL     OW11482   2.586   0.631   4.783
 3532SOL    HW111483   2.659   0.612   4.725
 3532SOL    HW211484   2.559   0.720   4.760
 3533SOL     OW11485   3.596   0.959   5.575
 3533SOL    HW111486   3.548   0.902   5.515
 3533SOL    HW211487   3.536   0.971   5.649
 3534SOL     OW11488   2.160   0.057   4.378
 3534SOL    HW111489   2.150   0.152   4.381
 3534SOL    HW211490   2.172   0.031   4.469
 3535SOL     OW11491   3.474   0.376   4.089
 3535SOL    HW111492   3.505   0.313   4.154
 3535SOL    HW211493   3.452   0.454   4.139
 3536SOL     OW11494   2.891   0.761   4.686
 3536SOL    HW111495   2.889   0.777   4.780
 3536SOL    HW211496   2.862   0.670   4.677
 3537SOL     OW11497   2.846   1.568   5.440
 3537SOL    HW111498   2.854   1.619   5.359
 3537SOL    HW211499   2.884   1.482   5.418
 3538SOL     OW11500   3.718   1.508   5.331
 3538SOL    HW111501   3.733   1.533   5.240
 3538SOL    HW211502   3.799   1.528   5.376
 3539SOL     OW11503   2.213   0.916   5.530
 3539SOL    HW111504   2.294   0.938   5.576
 3539SOL    HW211505   2.240   0.853   5.463
 3540SOL     OW11506   3.394   0.266   3.852
 3540SOL    HW111507   3.321   0.210   3.880
 3540SOL    HW211508   3.422   0.311   3.932
 3541SOL     OW11509   3.155   0.827   3.755
 3541SOL    HW111510   3.197   0.741   3.758
 3541SOL    HW211511   3.186   0.866   3.674
 3542SOL     OW11512   2.938   1.322   4.592
 3542SOL    HW111513   2.928   1.259   4.521
 3542SOL    HW211514   2.986   1.395   4.552
 3543SOL     OW11515   2.171   0.810   4.673
 3543SOL    HW111516   2.264   0.833   4.665
 3543SOL    HW211517   2.172   0.720   4.706
 3544SOL     OW11518   2.199   0.530   4.737
 3544SOL    HW111519   2.157   0.446   4.717
 3544SOL    HW211520   2.275   0.533   4.678
 3545SOL     OW11521   2.997   0.374   5.418
 3545SOL    HW111522   2.948   0.439   5.469
 3545SOL    HW211523   3.083   0.414   5.404
 3546SOL     OW11524   3.021   0.211   5.197
 3546SOL    HW111525   3.013   0.275   5.268
 3546SOL    HW211526   3.057   0.261   5.124
 3547SOL     OW11527   1.867   1.323   3.918
 3547SOL    HW111528   1.779   1.336   3.881
 3547SOL    HW211529   1.865   1.233   3.952
 3548SOL     OW11530   2.848   0.794   4.952
 3548SOL    HW111531   2.902   0.770   5.028
 3548SOL    HW211532   2.762   0.756   4.971
 3549SOL     OW11533   1.896   0.541   4.842
 3549SOL    HW111534   1.974   0.524   4.790
 3549SOL    HW211535   1.928   0.548   4.932
 3550SOL     OW11536   2.047   0.518   5.444
 3550SOL    HW111537   2.121   0.497   5.387
 3550SOL    HW211538   2.005   0.593   5.403
 3551SOL     OW11539   3.239   0.940   5.383
 3551SOL    HW111540   3.258   1.034   5.382
 3551SOL    HW211541   3.235   0.915   5.291
 3552SOL     OW11542   2.673   0.573   4.078
 3552SOL    HW111543   2.676   0.502   4.015
 3552SOL    HW211544   2.599   0.627   4.049
 3553SOL     OW11545   3.503   0.601   4.912
 3553SOL    HW111546   3.492   0.541   4.986
 3553SOL    HW211547   3.590   0.581   4.878
 3554SOL     OW11548   2.174   1.555   5.523
 3554SOL    HW111549   2.098   1.601   5.559
 3554SOL    HW211550   2.144   1.465   5.513
 3555SOL     OW11551   2.556   0.460   4.989
 3555SOL    HW111552   2.512   0.382   4.955
 3555SOL    HW211553   2.558   0.520   4.915
 3556SOL     OW11554   2.328   0.493   3.909
 3556SOL    HW111555   2.387   0.565   3.930
 3556SOL    HW211556   2.242   0.533   3.899
 3557SOL     OW11557   2.011   1.141   5.195
 3557SOL    HW111558   2.017   1.090   5.276
 3557SOL    HW211559   2.027   1.078   5.125
 3558SOL     OW11560   3.188   1.048   4.951
 3558SOL    HW111561   3.211   0.987   4.881
 3558SOL    HW211562   3.116   1.101   4.914
 3559SOL     OW11563   3.173   0.855   4.030
 3559SOL    HW111564   3.097   0.829   4.082
 3559SOL    HW211565   3.147   0.843   3.939
 3560SOL     OW11566   3.636   1.745   4.876
 3560SOL    HW111567   3.693   1.771   4.803
 3560SOL    HW211568   3.608   1.656   4.854
 3561SOL     OW11569   1.950   1.250   4.752
 3561SOL    HW111570   1.920   1.269   4.841
 3561SOL    HW211571   1.872   1.220   4.706
 3562SOL     OW11572   2.542   1.649   5.430
 3562SOL    HW111573   2.475   1.715   5.449
 3562SOL    HW211574   2.586   1.682   5.351
 3563SOL     OW11575   3.580   0.130   4.219
 3563SOL    HW111576   3.653   0.136   4.158
 3563SOL    HW211577   3.603   0.057   4.277
 3564SOL     OW11578   3.252   1.567   4.206
 3564SOL    HW111579   3.311   1.602   4.140
 3564SOL    HW211580   3.204   1.644   4.237
 3565SOL     OW11581   3.140   0.925   4.395
 3565SOL    HW111582   3.213   0.864   4.399
 3565SOL    HW211583   3.173   0.999   4.344
 3566SOL     OW11584   2.683   1.272   5.144
 3566SOL    HW111585   2.663   1.309   5.230
 3566SOL    HW211586   2.605   1.290   5.091
 3567SOL     OW11587   2.534   1.618   3.877
 3567SOL    HW111588   2.543   1.628   3.782
 3567SOL    HW211589   2.481   1.539   3.888
 3568SOL     OW11590   3.494   1.727   5.117
 3568SOL    HW111591   3.540   1.733   5.034
 3568SOL    HW211592   3.480   1.818   5.144
 3569SOL     OW11593   3.701   0.155   4.691
 3569SOL    HW111594   3.731   0.079   4.641
 3569SOL    HW211595   3.614   0.174   4.654
 3570SOL     OW11596   2.128   0.323   4.443
 3570SOL    HW111597   2.043   0.358   4.415
 3570SOL    HW211598   2.120   0.314   4.538
 3571SOL     OW11599   3.070   1.607   3.754
 3571SOL    HW111600   3.060   1.516   3.784
 3571SOL    HW211601   3.003   1.617   3.686
 3572SOL     OW11602   2.687   1.006   5.095
 3572SOL    HW111603   2.731   0.999   5.010
 3572SOL    HW211604   2.691   1.099   5.117
 3573SOL     OW11605   2.777   0.909   4.012
 3573SOL    HW111606   2.839   0.942   3.948
 3573SOL    HW211607   2.824   0.840   4.059
 3574SOL     OW11608   3.356   1.625   3.766
 3574SOL    HW111609   3.261   1.619   3.755
 3574SOL    HW211610   3.390   1.631   3.677
 3575SOL     OW11611   2.230   1.307   5.211
 3575SOL    HW111612   2.205   1.389   5.167
 3575SOL    HW211613   2.156   1.248   5.196
 3576SOL     OW11614   3.476   1.284   5.004
 3576SOL    HW111615   3.530   1.274   5.083
 3576SOL    HW211616   3.412   1.351   5.027
 3577SOL     OW11617   2.910   1.104   4.425
 3577SOL    HW111618   2.839   1.054   4.467
 3577SOL    HW211619   2.972   1.038   4.396
 3578SOL     OW11620   2.869   0.242   4.724
 3578SOL    HW111621   2.875   0.216   4.632
 3578SOL    HW211622   2.862   0.160   4.772
 3579SOL     OW11623   2.456   1.491   4.198
 3579SOL    HW111624   2.500   1.440   4.130
 3579SOL    HW211625   2.399   1.551   4.150
 3580SOL     OW11626   3.582   0.393   5.102
 3580SOL    HW111627   3.654   0.456   5.100
 3580SOL    HW211628   3.612   0.322   5.045
 3581SOL     OW11629   2.120   1.348   4.012
 3581SOL    HW111630   2.027   1.344   3.990
 3581SOL    HW211631   2.123   1.384   4.101
 3582SOL     OW11632   1.974   1.026   5.446
 3582SOL    HW111633   1.898   0.998   5.497
 3582SOL    HW211634   2.049   0.985   5.490
 3583SOL     OW11635   2.520   0.203   5.221
 3583SOL    HW111636   2.600   0.179   5.175
 3583SOL    HW211637   2.550   0.224   5.310
 3584SOL     OW11638   1.943   0.341   3.770
 3584SOL    HW111639   1.871   0.290   3.734
 3584SOL    HW211640   1.958   0.410   3.706
 3585SOL     OW11641   3.293   0.858   5.125
 3585SOL    HW111642   3.244   0.918   5.069
 3585SOL    HW211643   3.383   0.861   5.090
 3586SOL     OW11644   1.927   0.181   4.045
 3586SOL    HW111645   1.925   0.248   3.977
 3586SOL    HW211646   2.002   0.126   4.022
 3587SOL     OW11647   3.041   1.341   3.841
 3587SOL    HW111648   2.950   1.311   3.845
 3587SOL    HW211649   3.070   1.341   3.933
 3588SOL     OW11650   2.481   0.831   5.156
 3588SOL    HW111651   2.536   0.908   5.142
 3588SOL    HW211652   2.543   0.759   5.165
 3589SOL     OW11653   3.352   1.774   4.677
 3589SOL    HW111654   3.397   1.832   4.616
 3589SOL    HW211655   3.414   1.762   4.749
 3590SOL     OW11656   2.578   0.564   5.430
 3590SOL    HW111657   2.614   0.630   5.490
 3590SOL    HW211658   2.614   0.481   5.461
 3591SOL     OW11659   3.330   1.201   5.357
 3591SOL    HW111660   3.318   1.215   5.451
 3591SOL    HW211661   3.424   1.215   5.343
 3592SOL     OW11662   3.534   0.882   4.980
 3592SOL    HW111663   3.524   0.797   4.936
 3592SOL    HW211664   3.523   0.946   4.910
 3593SOL     OW11665   3.080   0.328   4.172
 3593SOL    HW111666   3.145   0.259   4.162
 3593SOL    HW211667   3.107   0.376   4.250
 3594SOL     OW11668   2.450   0.738   4.393
 3594SOL    HW111669   2.491   0.824   4.379
 3594SOL    HW211670   2.382   0.733   4.326
 3595SOL     OW11671   3.627   0.362   5.367
 3595SOL    HW111672   3.610   0.376   5.274
 3595SOL    HW211673   3.548   0.318   5.399
 3596SOL     OW11674   3.608   0.933   5.236
 3596SOL    HW111675   3.605   1.028   5.250
 3596SOL    HW211676   3.592   0.922   5.143
 3597SOL     OW11677   2.723   1.368   3.755
 3597SOL    HW111678   2.686   1.391   3.840
 3597SOL    HW211679   2.742   1.452   3.713
 3598SOL     OW11680   2.540   1.811   4.646
 3598SOL    HW111681   2.513   1.893   4.605
 3598SOL    HW211682   2.635   1.809   4.634
 3599SOL     OW11683   2.729   0.963   4.578
 3599SOL    HW111684   2.781   0.893   4.618
 3599SOL    HW211685   2.697   1.014   4.652
 3600SOL     OW11686   2.942   0.988   3.813
 3600SOL    HW111687   2.920   1.039   3.735
 3600SOL    HW211688   3.017   0.935   3.786
 3601SOL     OW11689   3.717   1.555   4.569
 3601SOL    HW111690   3.639   1.545   4.515
 3601SOL    HW211691   3.707   1.490   4.638
 3602SOL     OW11692   2.078   1.298   5.570
 3602SOL    HW111693   2.021   1.224   5.552
 3602SOL    HW211694   2.069   1.313   5.664
 3603SOL     OW11695   1.949   1.220   4.375
 3603SOL    HW111696   1.955   1.189   4.465
 3603SOL    HW211697   2.024   1.182   4.331
 3604SOL     OW11698   2.538   1.398   5.337
 3604SOL    HW111699   2.465   1.351   5.377
 3604SOL    HW211700   2.540   1.482   5.382
 3605SOL     OW11701   3.672   0.182   4.963
 3605SOL    HW111702   3.671   0.089   4.983
 3605SOL    HW211703   3.687   0.187   4.869
 3606SOL     OW11704   2.297   0.433   4.253
 3606SOL    HW111705   2.320   0.363   4.191
 3606SOL    HW211706   2.242   0.390   4.318
 3607SOL     OW11707   3.564   1.491   4.823
 3607SOL    HW111708   3.484   1.469   4.775
 3607SOL    HW211709   3.572   1.421   4.888
 3608SOL     OW11710   2.190   0.555   5.015
 3608SOL    HW111711   2.246   0.500   5.069
 3608SOL    HW211712   2.210   0.530   4.925
 3609SOL     OW11713   2.684   1.561   4.394
 3609SOL    HW111714   2.652   1.599   4.312
 3609SOL    HW211715   2.615   1.500   4.421
 3610SOL     OW11716   3.294   0.215   4.842
 3610SOL    HW111717   3.331   0.145   4.896
 3610SOL    HW211718   3.243   0.269   4.903
 3611SOL     OW11719   2.859   0.010   4.873
 3611SOL    HW111720   2.815   4.426   4.864
 3611SOL    HW211721   2.951   4.488   4.885
 3612SOL     OW11722   2.636   1.332   4.033
 3612SOL    HW111723   2.602   1.242   4.043
 3612SOL    HW211724   2.714   1.334   4.088
 3613SOL     OW11725   3.204   0.053   3.876
 3613SOL    HW111726   3.243   4.478   3.832
 3613SOL    HW211727   3.128   0.018   3.923
 3614SOL     OW11728   3.176   0.462   4.403
 3614SOL    HW111729   3.116   0.536   4.403
 3614SOL    HW211730   3.164   0.421   4.488
 3615SOL     OW11731   3.447   0.201   4.591
 3615SOL    HW111732   3.387   0.216   4.664
 3615SOL    HW211733   3.450   0.285   4.545
 3616SOL     OW11734   1.905   1.072   4.027
 3616SOL    HW111735   1.999   1.064   4.013
 3616SOL    HW211736   1.876   0.984   4.051
 3617SOL     OW11737   2.745   1.652   4.065
 3617SOL    HW111738   2.672   1.634   4.005
 3617SOL    HW211739   2.715   1.725   4.118
 3618SOL     OW11740   2.091   0.627   5.706
 3618SOL    HW111741   2.004   0.620   5.743
 3618SOL    HW211742   2.082   0.595   5.616
 3619SOL     OW11743   2.071   0.297   6.575
 3619SOL    HW111744   2.102   0.270   6.661
 3619SOL    HW211745   1.989   0.249   6.562
 3620SOL     OW11746   1.870   0.385   6.225
 3620SOL    HW111747   1.784   0.404   6.261
 3620SOL    HW211748   1.855   0.310   6.167
 3621SOL     OW11749   2.436   1.280   6.762
 3621SOL    HW111750   2.347   1.271   6.726
 3621SOL    HW211751   2.442   1.371   6.789
 3622SOL     OW11752   3.421   1.512   6.292
 3622SOL    HW111753   3.377   1.493   6.375
 3622SOL    HW211754   3.351   1.516   6.228
 3623SOL     OW11755   2.995   0.699   6.287
 3623SOL    HW111756   3.042   0.782   6.275
 3623SOL    HW211757   2.945   0.711   6.367
 3624SOL     OW11758   3.628   0.608   5.815
 3624SOL    HW111759   3.608   0.598   5.722
 3624SOL    HW211760   3.595   0.528   5.855
 3625SOL     OW11761   2.624   1.145   6.622
 3625SOL    HW111762   2.556   1.178   6.682
 3625SOL    HW211763   2.654   1.222   6.575
 3626SOL     OW11764   2.726   0.778   7.408
 3626SOL    HW111765   2.713   0.850   7.470
 3626SOL    HW211766   2.749   0.822   7.326
 3627SOL     OW11767   2.548   1.004   6.235
 3627SOL    HW111768   2.613   0.991   6.304
 3627SOL    HW211769   2.479   1.055   6.277
 3628SOL     OW11770   2.571   1.151   7.396
 3628SOL    HW111771   2.618   1.230   7.422
 3628SOL    HW211772   2.487   1.184   7.362
 3629SOL     OW11773   3.323   1.498   6.938
 3629SOL    HW111774   3.367   1.582   6.947
 3629SOL    HW211775   3.265   1.494   7.014
 3630SOL     OW11776   2.303   0.396   7.077
 3630SOL    HW111777   2.385   0.346   7.078
 3630SOL    HW211778   2.235   0.330   7.090
 3631SOL     OW11779   3.474   0.447   6.324
 3631SOL    HW111780   3.394   0.470   6.278
 3631SOL    HW211781   3.495   0.525   6.376
 3632SOL     OW11782   2.998   1.341   7.278
 3632SOL    HW111783   3.038   1.337   7.365
 3632SOL    HW211784   2.945   1.261   7.272
 3633SOL     OW11785   2.119   1.088   6.476
 3633SOL    HW111786   2.114   1.002   6.517
 3633SOL    HW211787   2.060   1.143   6.528
 3634SOL     OW11788   2.475   1.781   7.018
 3634SOL    HW111789   2.391   1.770   7.063
 3634SOL    HW211790   2.498   1.873   7.033
 3635SOL     OW11791   2.450   0.980   5.719
 3635SOL    HW111792   2.492   1.033   5.651
 3635SOL    HW211793   2.489   1.011   5.800
 3636SOL     OW11794   3.446   0.114   7.059
 3636SOL    HW111795   3.462   0.183   6.994
 3636SOL    HW211796   3.435   0.162   7.142
 3637SOL     OW11797   1.977   0.652   6.145
 3637SOL    HW111798   1.948   0.564   6.167
 3637SOL    HW211799   1.968   0.701   6.227
 3638SOL     OW11800   3.703   1.760   5.922
 3638SOL    HW111801   3.764   1.731   5.990
 3638SOL    HW211802   3.730   1.850   5.903
 3639SOL     OW11803   1.902   1.592   5.681
 3639SOL    HW111804   1.878   1.506   5.717
 3639SOL    HW211805   1.891   1.653   5.754
 3640SOL     OW11806   3.553   0.921   6.226
 3640SOL    HW111807   3.637   0.879   6.205
 3640SOL    HW211808   3.531   0.969   6.146
 3641SOL     OW11809   3.507   1.107   6.015
 3641SOL    HW111810   3.593   1.115   5.973
 3641SOL    HW211811   3.511   1.168   6.089
 3642SOL     OW11812   1.984   0.744   7.171
 3642SOL    HW111813   2.076   0.768   7.183
 3642SOL    HW211814   1.936   0.826   7.178
 3643SOL     OW11815   2.504   1.354   6.300
 3643SOL    HW111816   2.446   1.280   6.315
 3643SOL    HW211817   2.474   1.393   6.218
 3644SOL     OW11818   3.152   1.238   7.010
 3644SOL    HW111819   3.184   1.171   6.950
 3644SOL    HW211820   3.208   1.231   7.087
 3645SOL     OW11821   2.678   0.013   6.134
 3645SOL    HW111822   2.712   0.098   6.110
 3645SOL    HW211823   2.583   0.022   6.127
 3646SOL     OW11824   2.054   0.968   6.858
 3646SOL    HW111825   2.137   0.924   6.841
 3646SOL    HW211826   1.989   0.915   6.810
 3647SOL     OW11827   3.394   0.991   5.783
 3647SOL    HW111828   3.324   0.934   5.814
 3647SOL    HW211829   3.433   1.026   5.864
 3648SOL     OW11830   3.047   1.805   7.205
 3648SOL    HW111831   3.065   1.860   7.129
 3648SOL    HW211832   3.062   1.715   7.174
 3649SOL     OW11833   2.177   0.254   7.367
 3649SOL    HW111834   2.241   0.319   7.399
 3649SOL    HW211835   2.103   0.262   7.427
 3650SOL     OW11836   3.330   1.418   6.540
 3650SOL    HW111837   3.261   1.433   6.604
 3650SOL    HW211838   3.318   1.328   6.511
 3651SOL     OW11839   3.522   1.736   6.163
 3651SOL    HW111840   3.499   1.707   6.075
 3651SOL    HW211841   3.496   1.663   6.220
 3652SOL     OW11842   2.456   0.723   5.850
 3652SOL    HW111843   2.465   0.804   5.799
 3652SOL    HW211844   2.391   0.744   5.917
 3653SOL     OW11845   3.152   0.360   6.520
 3653SOL    HW111846   3.063   0.330   6.504
 3653SOL    HW211847   3.189   0.297   6.582
 3654SOL     OW11848   3.441   1.676   5.893
 3654SOL    HW111849   3.532   1.703   5.887
 3654SOL    HW211850   3.417   1.653   5.803
 3655SOL     OW11851   2.657   0.619   7.041
 3655SOL    HW111852   2.629   0.594   7.129
 3655SOL    HW211853   2.616   0.554   6.983
 3656SOL     OW11854   3.251   0.479   7.262
 3656SOL    HW111855   3.254   0.522   7.347
 3656SOL    HW211856   3.317   0.410   7.268
 3657SOL     OW11857   2.819   0.889   7.167
 3657SOL    HW111858   2.872   0.817   7.133
 3657SOL    HW211859   2.771   0.921   7.091
 3658SOL     OW11860   2.857   0.417   6.823
 3658SOL    HW111861   2.771   0.429   6.862
 3658SOL    HW211862   2.841   0.365   6.744
 3659SOL     OW11863   2.912   0.697   6.013
 3659SOL    HW111864   2.927   0.690   6.108
 3659SOL    HW211865   2.829   0.651   5.999
 3660SOL     OW11866   1.951   0.820   6.362
 3660SOL    HW111867   2.032   0.813   6.412
 3660SOL    HW211868   1.907   0.898   6.397
 3661SOL     OW11869   1.970   1.795   7.155
 3661SOL    HW111870   1.973   1.793   7.250
 3661SOL    HW211871   1.886   1.837   7.134
 3662SOL     OW11872   2.716   0.368   5.766
 3662SOL    HW111873   2.790   0.404   5.716
 3662SOL    HW211874   2.734   0.274   5.771
 3663SOL     OW11875   3.568   0.575   7.414
 3663SOL    HW111876   3.532   0.651   7.368
 3663SOL    HW211877   3.602   0.518   7.344
 3664SOL     OW11878   3.238   1.143   6.128
 3664SOL    HW111879   3.316   1.129   6.074
 3664SOL    HW211880   3.185   1.205   6.078
 3665SOL     OW11881   2.401   0.203   6.487
 3665SOL    HW111882   2.421   0.220   6.579
 3665SOL    HW211883   2.392   0.289   6.447
 3666SOL     OW11884   2.864   1.444   6.063
 3666SOL    HW111885   2.846   1.527   6.019
 3666SOL    HW211886   2.871   1.467   6.156
 3667SOL     OW11887   3.660   1.061   6.453
 3667SOL    HW111888   3.605   1.041   6.378
 3667SOL    HW211889   3.599   1.065   6.527
 3668SOL     OW11890   3.090   1.539   7.100
 3668SOL    HW111891   3.075   1.465   7.159
 3668SOL    HW211892   3.030   1.525   7.027
 3669SOL     OW11893   2.182   0.956   5.833
 3669SOL    HW111894   2.265   0.976   5.790
 3669SOL    HW211895   2.154   0.874   5.794
 3670SOL     OW11896   3.340   0.740   6.311
 3670SOL    HW111897   3.327   0.695   6.394
 3670SOL    HW211898   3.416   0.796   6.326
 3671SOL     OW11899   2.327   1.264   7.324
 3671SOL    HW111900   2.300   1.267   7.232
 3671SOL    HW211901   2.245   1.262   7.373
 3672SOL     OW11902   2.997   1.682   5.863
 3672SOL    HW111903   2.917   1.734   5.863
 3672SOL    HW211904   3.024   1.679   5.771
 3673SOL     OW11905   2.051   0.268   7.096
 3673SOL    HW111906   1.984   0.335   7.079
 3673SOL    HW211907   2.062   0.269   7.191
 3674SOL     OW11908   3.491   1.379   5.673
 3674SOL    HW111909   3.449   1.464   5.658
 3674SOL    HW211910   3.423   1.315   5.655
 3675SOL     OW11911   3.280   0.134   6.004
 3675SOL    HW111912   3.263   0.086   5.923
 3675SOL    HW211913   3.375   0.131   6.015
 3676SOL     OW11914   2.096   1.768   6.824
 3676SOL    HW111915   2.169   1.726   6.870
 3676SOL    HW211916   2.130   1.785   6.736
 3677SOL     OW11917   2.253   0.695   6.063
 3677SOL    HW111918   2.277   0.603   6.074
 3677SOL    HW211919   2.159   0.698   6.081
 3678SOL     OW11920   3.388   0.233   7.308
 3678SOL    HW111921   3.387   0.256   7.401
 3678SOL    HW211922   3.311   0.176   7.297
 3679SOL     OW11923   2.487   0.121   5.708
 3679SOL    HW111924   2.576   0.087   5.716
 3679SOL    HW211925   2.455   0.087   5.625
 3680SOL     OW11926   2.632   0.271   7.339
 3680SOL    HW111927   2.696   0.202   7.353
 3680SOL    HW211928   2.585   0.277   7.422
 3681SOL     OW11929   2.734   1.516   6.781
 3681SOL    HW111930   2.723   1.485   6.691
 3681SOL    HW211931   2.808   1.465   6.815
 3682SOL     OW11932   3.204   0.589   7.015
 3682SOL    HW111933   3.232   0.559   7.102
 3682SOL    HW211934   3.238   0.678   7.008
 3683SOL     OW11935   2.673   1.401   6.518
 3683SOL    HW111936   2.759   1.388   6.478
 3683SOL    HW211937   2.612   1.396   6.445
 3684SOL     OW11938   2.785   0.517   6.487
 3684SOL    HW111939   2.768   0.515   6.393
 3684SOL    HW211940   2.824   0.431   6.506
 3685SOL     OW11941   2.415   0.074   6.106
 3685SOL    HW111942   2.326   0.048   6.130
 3685SOL    HW211943   2.404   0.140   6.038
 3686SOL     OW11944   3.291   1.198   5.628
 3686SOL    HW111945   3.320   1.122   5.678
 3686SOL    HW211946   3.205   1.219   5.664
 3687SOL     OW11947   2.158   0.070   5.780
 3687SOL    HW111948   2.236   0.122   5.762
 3687SOL    HW211949   2.188   4.500   5.837
 3688SOL     OW11950   2.813   0.240   6.056
 3688SOL    HW111951   2.761   0.292   5.995
 3688SOL    HW211952   2.901   0.276   6.049
 3689SOL     OW11953   2.942   0.680   7.047
 3689SOL    HW111954   2.870   0.616   7.048
 3689SOL    HW211955   3.021   0.627   7.035
 3690SOL     OW11956   3.095   1.561   6.366
 3690SOL    HW111957   3.118   1.631   6.305
 3690SOL    HW211958   3.149   1.577   6.443
 3691SOL     OW11959   2.327   1.149   6.319
 3691SOL    HW111960   2.258   1.129   6.382
 3691SOL    HW211961   2.288   1.130   6.234
 3692SOL     OW11962   3.147   1.794   6.188
 3692SOL    HW111963   3.187   1.853   6.123
 3692SOL    HW211964   3.099   1.853   6.247
 3693SOL     OW11965   2.892   0.549   5.602
 3693SOL    HW111966   2.844   0.630   5.586
 3693SOL    HW211967   2.950   0.569   5.674
 3694SOL     OW11968   1.943   0.551   6.980
 3694SOL    HW111969   2.033   0.554   6.950
 3694SOL    HW211970   1.936   0.623   7.043
 3695SOL     OW11971   2.426   0.242   6.751
 3695SOL    HW111972   2.453   0.159   6.790
 3695SOL    HW211973   2.334   0.251   6.777
 3696SOL     OW11974   2.728   0.503   6.212
 3696SOL    HW111975   2.680   0.544   6.140
 3696SOL    HW211976   2.704   0.410   6.206
 3697SOL     OW11977   2.829   0.029   6.364
 3697SOL    HW111978   2.780   0.026   6.282
 3697SOL    HW211979   2.840   4.437   6.389
 3698SOL     OW11980   3.298   1.163   6.443
 3698SOL    HW111981   3.230   1.096   6.442
 3698SOL    HW211982   3.321   1.176   6.351
 3699SOL     OW11983   3.329   0.603   6.564
 3699SOL    HW111984   3.277   0.523   6.566
 3699SOL    HW211985   3.387   0.597   6.639
 3700SOL     OW11986   3.709   0.818   5.968
 3700SOL    HW111987   3.764   0.766   6.026
 3700SOL    HW211988   3.680   0.756   5.901
 3701SOL     OW11989   2.352   1.369   5.743
 3701SOL    HW111990   2.272   1.368   5.795
 3701SOL    HW211991   2.330   1.422   5.666
 3702SOL     OW11992   3.531   1.265   6.232
 3702SOL    HW111993   3.626   1.270   6.247
 3702SOL    HW211994   3.499   1.353   6.255
 3703SOL     OW11995   3.256   0.570   5.656
 3703SOL    HW111996   3.195   0.554   5.728
 3703SOL    HW211997   3.342   0.550   5.693
 3704SOL     OW11998   2.385   0.266   5.910
 3704SOL    HW111999   2.430   0.213   5.844
 3704SOL    HW212000   2.369   0.350   5.868
 3705SOL     OW12001   3.615   1.237   7.161
 3705SOL    HW112002   3.703   1.198   7.158
 3705SOL    HW212003   3.630   1.327   7.191
 3706SOL     OW12004   2.923   1.354   6.920
 3706SOL    HW112005   2.848   1.323   6.971
 3706SOL    HW212006   2.998   1.312   6.961
 3707SOL     OW12007   3.469   1.626   7.239
 3707SOL    HW112008   3.464   1.659   7.149
 3707SOL    HW212009   3.552   1.578   7.242
 3708SOL     OW12010   2.988   1.202   6.693
 3708SOL    HW112011   2.930   1.240   6.758
 3708SOL    HW212012   2.954   1.232   6.609
 3709SOL     OW12013   3.492   1.099   6.664
 3709SOL    HW112014   3.487   1.161   6.737
 3709SOL    HW212015   3.412   1.115   6.614
 3710SOL     OW12016   2.766   0.131   6.975
 3710SOL    HW112017   2.788   0.088   6.893
 3710SOL    HW212018   2.850   0.145   7.019
 3711SOL     OW12019   2.846   1.114   7.309
 3711SOL    HW112020   2.754   1.130   7.328
 3711SOL    HW212021   2.846   1.037   7.252
 3712SOL     OW12022   2.566   1.055   5.960
 3712SOL    HW112023   2.556   1.041   6.055
 3712SOL    HW212024   2.644   1.005   5.936
 3713SOL     OW12025   2.280   0.815   6.837
 3713SOL    HW112026   2.349   0.824   6.903
 3713SOL    HW212027   2.245   0.727   6.851
 3714SOL     OW12028   3.131   0.376   6.858
 3714SOL    HW112029   3.163   0.455   6.903
 3714SOL    HW212030   3.042   0.399   6.831
 3715SOL     OW12031   1.924   1.570   6.935
 3715SOL    HW112032   1.883   1.639   6.883
 3715SOL    HW212033   2.017   1.592   6.937
 3716SOL     OW12034   2.213   1.113   6.074
 3716SOL    HW112035   2.230   1.176   6.004
 3716SOL    HW212036   2.211   1.028   6.030
 3717SOL     OW12037   2.419   0.531   6.445
 3717SOL    HW112038   2.433   0.590   6.371
 3717SOL    HW212039   2.482   0.560   6.511
 3718SOL     OW12040   3.109   1.347   5.976
 3718SOL    HW112041   3.162   1.420   6.005
 3718SOL    HW212042   3.020   1.368   6.007
 3719SOL     OW12043   3.142   1.453   6.730
 3719SOL    HW112044   3.195   1.457   6.810
 3719SOL    HW212045   3.085   1.378   6.743
 3720SOL     OW12046   3.445   0.624   6.062
 3720SOL    HW112047   3.399   0.676   6.128
 3720SOL    HW212048   3.488   0.689   6.007
 3721SOL     OW12049   2.214   1.517   6.907
 3721SOL    HW112050   2.195   1.466   6.828
 3721SOL    HW212051   2.308   1.532   6.903
 3722SOL     OW12052   2.276   0.743   7.188
 3722SOL    HW112053   2.335   0.790   7.130
 3722SOL    HW212054   2.320   0.660   7.205
 3723SOL     OW12055   3.461   0.778   7.266
 3723SOL    HW112056   3.375   0.818   7.259
 3723SOL    HW212057   3.513   0.820   7.197
 3724SOL     OW12058   2.869   0.085   7.310
 3724SOL    HW112059   2.893   0.169   7.271
 3724SOL    HW212060   2.894   0.020   7.244
 3725SOL     OW12061   2.361   0.048   7.343
 3725SOL    HW112062   2.353   0.003   7.259
 3725SOL    HW212063   2.293   0.115   7.341
 3726SOL     OW12064   2.444   0.873   6.616
 3726SOL    HW112065   2.476   0.963   6.615
 3726SOL    HW212066   2.388   0.868   6.694
 3727SOL     OW12067   3.222   0.858   6.618
 3727SOL    HW112068   3.140   0.851   6.569
 3727SOL    HW212069   3.260   0.771   6.613
 3728SOL     OW12070   3.068   0.535   5.851
 3728SOL    HW112071   3.073   0.454   5.903
 3728SOL    HW212072   3.025   0.597   5.909
 3729SOL     OW12073   2.152   0.235   6.827
 3729SOL    HW112074   2.110   0.250   6.911
 3729SOL    HW212075   2.184   0.145   6.832
 3730SOL     OW12076   1.910   1.310   6.866
 3730SOL    HW112077   1.940   1.259   6.940
 3730SOL    HW212078   1.913   1.401   6.896
 3731SOL     OW12079   2.586   0.632   6.645
 3731SOL    HW112080   2.659   0.612   6.587
 3731SOL    HW212081   2.560   0.720   6.621
 3732SOL     OW12082   3.595   0.959   7.437
 3732SOL    HW112083   3.548   0.902   7.377
 3732SOL    HW212084   3.536   0.971   7.511
 3733SOL     OW12085   2.160   0.058   6.240
 3733SOL    HW112086   2.150   0.153   6.243
 3733SOL    HW212087   2.172   0.032   6.331
 3734SOL     OW12088   3.474   0.376   5.951
 3734SOL    HW112089   3.505   0.313   6.016
 3734SOL    HW212090   3.452   0.454   6.001
 3735SOL     OW12091   2.890   0.761   6.548
 3735SOL    HW112092   2.888   0.777   6.643
 3735SOL    HW212093   2.861   0.670   6.539
 3736SOL     OW12094   2.845   1.566   7.302
 3736SOL    HW112095   2.828   1.609   7.218
 3736SOL    HW212096   2.888   1.484   7.278
 3737SOL     OW12097   3.717   1.508   7.192
 3737SOL    HW112098   3.734   1.533   7.101
 3737SOL    HW212099   3.799   1.528   7.238
 3738SOL     OW12100   2.216   0.917   7.393
 3738SOL    HW112101   2.298   0.934   7.439
 3738SOL    HW212102   2.240   0.854   7.325
 3739SOL     OW12103   3.394   0.266   5.714
 3739SOL    HW112104   3.321   0.210   5.742
 3739SOL    HW212105   3.422   0.311   5.794
 3740SOL     OW12106   3.156   0.827   5.618
 3740SOL    HW112107   3.198   0.741   5.620
 3740SOL    HW212108   3.186   0.866   5.536
 3741SOL     OW12109   2.925   1.336   6.437
 3741SOL    HW112110   2.929   1.262   6.376
 3741SOL    HW212111   2.991   1.397   6.405
 3742SOL     OW12112   2.171   0.809   6.534
 3742SOL    HW112113   2.264   0.832   6.527
 3742SOL    HW212114   2.171   0.720   6.568
 3743SOL     OW12115   2.199   0.530   6.599
 3743SOL    HW112116   2.156   0.446   6.579
 3743SOL    HW212117   2.274   0.533   6.540
 3744SOL     OW12118   2.997   0.374   7.280
 3744SOL    HW112119   2.949   0.439   7.331
 3744SOL    HW212120   3.083   0.414   7.266
 3745SOL     OW12121   3.022   0.211   7.059
 3745SOL    HW112122   3.014   0.275   7.130
 3745SOL    HW212123   3.058   0.261   6.986
 3746SOL     OW12124   1.863   1.327   5.790
 3746SOL    HW112125   1.779   1.338   5.747
 3746SOL    HW212126   1.864   1.235   5.817
 3747SOL     OW12127   2.848   0.795   6.815
 3747SOL    HW112128   2.902   0.770   6.890
 3747SOL    HW212129   2.763   0.755   6.832
 3748SOL     OW12130   1.896   0.542   6.704
 3748SOL    HW112131   1.974   0.523   6.653
 3748SOL    HW212132   1.927   0.548   6.794
 3749SOL     OW12133   2.047   0.518   7.306
 3749SOL    HW112134   2.120   0.497   7.248
 3749SOL    HW212135   2.005   0.594   7.265
 3750SOL     OW12136   3.239   0.940   7.245
 3750SOL    HW112137   3.259   1.034   7.244
 3750SOL    HW212138   3.236   0.916   7.153
 3751SOL     OW12139   2.673   0.574   5.940
 3751SOL    HW112140   2.677   0.502   5.877
 3751SOL    HW212141   2.599   0.628   5.911
 3752SOL     OW12142   3.503   0.601   6.774
 3752SOL    HW112143   3.493   0.541   6.848
 3752SOL    HW212144   3.590   0.582   6.740
 3753SOL     OW12145   2.114   1.549   7.316
 3753SOL    HW112146   2.084   1.613   7.381
 3753SOL    HW212147   2.109   1.465   7.362
 3754SOL     OW12148   2.557   0.460   6.851
 3754SOL    HW112149   2.512   0.382   6.818
 3754SOL    HW212150   2.559   0.520   6.777
 3755SOL     OW12151   2.791   1.676   7.054
 3755SOL    HW112152   2.765   1.644   6.967
 3755SOL    HW212153   2.790   1.771   7.046
 3756SOL     OW12154   2.328   0.493   5.771
 3756SOL    HW112155   2.387   0.566   5.792
 3756SOL    HW212156   2.242   0.534   5.761
 3757SOL     OW12157   2.010   1.140   7.059
 3757SOL    HW112158   2.012   1.087   7.139
 3757SOL    HW212159   2.026   1.078   6.988
 3758SOL     OW12160   3.190   1.048   6.810
 3758SOL    HW112161   3.213   0.985   6.742
 3758SOL    HW212162   3.118   1.099   6.772
 3759SOL     OW12163   3.173   0.855   5.893
 3759SOL    HW112164   3.096   0.828   5.943
 3759SOL    HW212165   3.147   0.844   5.801
 3760SOL     OW12166   3.632   1.746   6.735
 3760SOL    HW112167   3.692   1.771   6.665
 3760SOL    HW212168   3.608   1.656   6.714
 3761SOL     OW12169   3.119   1.732   6.714
 3761SOL    HW112170   3.195   1.747   6.657
 3761SOL    HW212171   3.114   1.637   6.721
 3762SOL     OW12172   1.951   1.249   6.609
 3762SOL    HW112173   1.933   1.270   6.700
 3762SOL    HW212174   1.869   1.212   6.576
 3763SOL     OW12175   2.539   1.664   7.311
 3763SOL    HW112176   2.489   1.745   7.313
 3763SOL    HW212177   2.601   1.675   7.239
 3764SOL     OW12178   3.580   0.130   6.081
 3764SOL    HW112179   3.653   0.136   6.020
 3764SOL    HW212180   3.603   0.057   6.139
 3765SOL     OW12181   3.255   1.564   6.069
 3765SOL    HW112182   3.312   1.596   5.999
 3765SOL    HW212183   3.202   1.640   6.093
 3766SOL     OW12184   1.996   1.791   7.423
 3766SOL    HW112185   1.952   1.730   7.482
 3766SOL    HW212186   2.043   1.851   7.481
 3767SOL     OW12187   3.140   0.926   6.259
 3767SOL    HW112188   3.213   0.864   6.262
 3767SOL    HW212189   3.174   0.999   6.206
 3768SOL     OW12190   2.680   1.272   7.017
 3768SOL    HW112191   2.652   1.311   7.100
 3768SOL    HW212192   2.610   1.294   6.955
 3769SOL     OW12193   3.494   1.726   6.979
 3769SOL    HW112194   3.540   1.734   6.895
 3769SOL    HW212195   3.479   1.817   7.006
 3770SOL     OW12196   3.701   0.155   6.553
 3770SOL    HW112197   3.732   0.079   6.503
 3770SOL    HW212198   3.614   0.173   6.516
 3771SOL     OW12199   2.128   0.324   6.305
 3771SOL    HW112200   2.042   0.358   6.277
 3771SOL    HW212201   2.120   0.314   6.400
 3772SOL     OW12202   3.071   1.607   5.607
 3772SOL    HW112203   3.065   1.517   5.639
 3772SOL    HW212204   3.001   1.613   5.541
 3773SOL     OW12205   2.685   1.006   6.958
 3773SOL    HW112206   2.730   1.001   6.873
 3773SOL    HW212207   2.687   1.098   6.981
 3774SOL     OW12208   2.777   0.910   5.877
 3774SOL    HW112209   2.838   0.943   5.810
 3774SOL    HW212210   2.825   0.840   5.921
 3775SOL     OW12211   3.358   1.622   5.629
 3775SOL    HW112212   3.263   1.626   5.619
 3775SOL    HW212213   3.392   1.630   5.540
 3776SOL     OW12214   2.233   1.298   7.077
 3776SOL    HW112215   2.216   1.381   7.033
 3776SOL    HW212216   2.154   1.246   7.063
 3777SOL     OW12217   3.474   1.283   6.867
 3777SOL    HW112218   3.532   1.274   6.943
 3777SOL    HW212219   3.413   1.352   6.892
 3778SOL     OW12220   2.912   1.106   6.292
 3778SOL    HW112221   2.841   1.055   6.330
 3778SOL    HW212222   2.973   1.040   6.258
 3779SOL     OW12223   2.869   0.242   6.586
 3779SOL    HW112224   2.875   0.216   6.494
 3779SOL    HW212225   2.862   0.160   6.634
 3780SOL     OW12226   3.582   0.393   6.963
 3780SOL    HW112227   3.655   0.456   6.962
 3780SOL    HW212228   3.611   0.322   6.907
 3781SOL     OW12229   2.116   1.357   5.881
 3781SOL    HW112230   2.023   1.348   5.860
 3781SOL    HW212231   2.117   1.390   5.971
 3782SOL     OW12232   1.974   1.020   7.306
 3782SOL    HW112233   1.898   0.997   7.359
 3782SOL    HW212234   2.049   0.983   7.353
 3783SOL     OW12235   2.521   0.203   7.083
 3783SOL    HW112236   2.601   0.179   7.037
 3783SOL    HW212237   2.550   0.224   7.172
 3784SOL     OW12238   1.942   0.342   5.633
 3784SOL    HW112239   1.871   0.289   5.596
 3784SOL    HW212240   1.958   0.410   5.567
 3785SOL     OW12241   3.293   0.859   6.987
 3785SOL    HW112242   3.244   0.918   6.931
 3785SOL    HW212243   3.383   0.861   6.953
 3786SOL     OW12244   1.927   0.181   5.907
 3786SOL    HW112245   1.925   0.248   5.839
 3786SOL    HW212246   2.002   0.126   5.885
 3787SOL     OW12247   3.041   1.341   5.703
 3787SOL    HW112248   2.950   1.312   5.705
 3787SOL    HW212249   3.069   1.342   5.794
 3788SOL     OW12250   2.481   0.831   7.019
 3788SOL    HW112251   2.536   0.907   7.004
 3788SOL    HW212252   2.542   0.758   7.027
 3789SOL     OW12253   3.348   1.774   6.557
 3789SOL    HW112254   3.374   1.835   6.489
 3789SOL    HW212255   3.428   1.758   6.608
 3790SOL     OW12256   2.578   0.564   7.292
 3790SOL    HW112257   2.615   0.628   7.353
 3790SOL    HW212258   2.613   0.480   7.323
 3791SOL     OW12259   3.332   1.202   7.219
 3791SOL    HW112260   3.320   1.215   7.313
 3791SOL    HW212261   3.425   1.215   7.205
 3792SOL     OW12262   2.239   1.740   7.150
 3792SOL    HW112263   2.150   1.770   7.131
 3792SOL    HW212264   2.228   1.656   7.194
 3793SOL     OW12265   3.533   0.882   6.842
 3793SOL    HW112266   3.524   0.797   6.799
 3793SOL    HW212267   3.523   0.945   6.771
 3794SOL     OW12268   3.080   0.328   6.034
 3794SOL    HW112269   3.145   0.259   6.024
 3794SOL    HW212270   3.107   0.376   6.113
 3795SOL     OW12271   2.450   0.739   6.256
 3795SOL    HW112272   2.492   0.823   6.240
 3795SOL    HW212273   2.382   0.732   6.189
 3796SOL     OW12274   3.627   0.363   7.229
 3796SOL    HW112275   3.610   0.377   7.136
 3796SOL    HW212276   3.548   0.318   7.261
 3797SOL     OW12277   3.607   0.933   7.098
 3797SOL    HW112278   3.606   1.028   7.111
 3797SOL    HW212279   3.591   0.922   7.005
 3798SOL     OW12280   2.728   1.361   5.609
 3798SOL    HW112281   2.693   1.373   5.697
 3798SOL    HW212282   2.735   1.450   5.573
 3799SOL     OW12283   2.729   0.965   6.441
 3799SOL    HW112284   2.779   0.894   6.481
 3799SOL    HW212285   2.697   1.016   6.515
 3800SOL     OW12286   2.942   0.987   5.676
 3800SOL    HW112287   2.918   1.038   5.598
 3800SOL    HW212288   3.017   0.935   5.648
 3801SOL     OW12289   3.717   1.556   6.431
 3801SOL    HW112290   3.640   1.545   6.376
 3801SOL    HW212291   3.710   1.488   6.498
 3802SOL     OW12292   2.086   1.303   7.442
 3802SOL    HW112293   2.018   1.242   7.414
 3802SOL    HW212294   2.071   1.314   7.536
 3803SOL     OW12295   1.936   1.213   6.239
 3803SOL    HW112296   1.948   1.175   6.325
 3803SOL    HW212297   2.017   1.194   6.193
 3804SOL     OW12298   2.541   1.402   7.211
 3804SOL    HW112299   2.462   1.358   7.243
 3804SOL    HW212300   2.537   1.490   7.249
 3805SOL     OW12301   3.671   0.183   6.825
 3805SOL    HW112302   3.671   0.089   6.845
 3805SOL    HW212303   3.687   0.186   6.731
 3806SOL     OW12304   2.297   0.433   6.114
 3806SOL    HW112305   2.320   0.364   6.053
 3806SOL    HW212306   2.242   0.390   6.180
 3807SOL     OW12307   3.563   1.491   6.685
 3807SOL    HW112308   3.482   1.467   6.639
 3807SOL    HW212309   3.575   1.421   6.750
 3808SOL     OW12310   2.190   0.556   6.877
 3808SOL    HW112311   2.246   0.500   6.931
 3808SOL    HW212312   2.210   0.529   6.787
 3809SOL     OW12313   3.294   0.215   6.704
 3809SOL    HW112314   3.330   0.145   6.757
 3809SOL    HW212315   3.243   0.268   6.765
 3810SOL     OW12316   2.859   0.010   6.735
 3810SOL    HW112317   2.815   4.426   6.726
 3810SOL    HW212318   2.951   4.488   6.747
 3811SOL     OW12319   2.667   1.313   5.882
 3811SOL    HW112320   2.608   1.240   5.898
 3811SOL    HW212321   2.728   1.312   5.955
 3812SOL     OW12322   2.478   1.558   6.862
 3812SOL    HW112323   2.482   1.636   6.917
 3812SOL    HW212324   2.567   1.547   6.829
 3813SOL     OW12325   3.204   0.053   5.739
 3813SOL    HW112326   3.243   4.478   5.694
 3813SOL    HW212327   3.128   0.017   5.785
 3814SOL     OW12328   3.176   0.462   6.265
 3814SOL    HW112329   3.115   0.536   6.265
 3814SOL    HW212330   3.164   0.421   6.350
 3815SOL     OW12331   3.447   0.201   6.453
 3815SOL    HW112332   3.387   0.216   6.526
 3815SOL    HW212333   3.450   0.285   6.407
 3816SOL     OW12334   1.907   1.072   5.888
 3816SOL    HW112335   2.001   1.062   5.873
 3816SOL    HW212336   1.877   0.985   5.913
 3817SOL     OW12337   2.092   0.627   7.568
 3817SOL    HW112338   2.004   0.620   7.606
 3817SOL    HW212339   2.082   0.595   7.478
 3818SOL     OW12340   2.071   0.297   8.437
 3818SOL    HW112341   2.102   0.270   8.523
 3818SOL    HW212342   1.989   0.249   8.424
 3819SOL     OW12343   1.870   0.385   8.087
 3819SOL    HW112344   1.784   0.404   8.123
 3819SOL    HW212345   1.855   0.310   8.029
 3820SOL     OW12346   2.429   1.285   8.620
 3820SOL    HW112347   2.341   1.286   8.584
 3820SOL    HW212348   2.443   1.373   8.655
 3821SOL     OW12349   3.421   1.512   8.154
 3821SOL    HW112350   3.377   1.492   8.237
 3821SOL    HW212351   3.350   1.516   8.090
 3822SOL     OW12352   2.995   0.699   8.148
 3822SOL    HW112353   3.042   0.782   8.137
 3822SOL    HW212354   2.945   0.711   8.229
 3823SOL     OW12355   3.628   0.608   7.677
 3823SOL    HW112356   3.608   0.597   7.584
 3823SOL    HW212357   3.595   0.528   7.718
 3824SOL     OW12358   2.620   1.144   8.487
 3824SOL    HW112359   2.550   1.178   8.543
 3824SOL    HW212360   2.654   1.221   8.442
 3825SOL     OW12361   2.726   0.778   9.270
 3825SOL    HW112362   2.713   0.849   9.332
 3825SOL    HW212363   2.750   0.822   9.188
 3826SOL     OW12364   2.549   1.006   8.096
 3826SOL    HW112365   2.613   0.991   8.166
 3826SOL    HW212366   2.478   1.056   8.138
 3827SOL     OW12367   2.571   1.152   9.258
 3827SOL    HW112368   2.618   1.231   9.283
 3827SOL    HW212369   2.487   1.184   9.224
 3828SOL     OW12370   2.193   1.427   8.517
 3828SOL    HW112371   2.119   1.391   8.468
 3828SOL    HW212372   2.243   1.477   8.452
 3829SOL     OW12373   3.323   1.498   8.800
 3829SOL    HW112374   3.370   1.581   8.810
 3829SOL    HW212375   3.265   1.494   8.875
 3830SOL     OW12376   2.303   0.396   8.939
 3830SOL    HW112377   2.385   0.346   8.940
 3830SOL    HW212378   2.235   0.330   8.952
 3831SOL     OW12379   3.474   0.447   8.186
 3831SOL    HW112380   3.393   0.470   8.140
 3831SOL    HW212381   3.494   0.524   8.238
 3832SOL     OW12382   2.082   1.721   7.921
 3832SOL    HW112383   2.119   1.760   8.000
 3832SOL    HW212384   2.158   1.707   7.864
 3833SOL     OW12385   2.998   1.341   9.140
 3833SOL    HW112386   3.038   1.337   9.227
 3833SOL    HW212387   2.945   1.261   9.134
 3834SOL     OW12388   2.088   1.442   7.982
 3834SOL    HW112389   2.065   1.534   7.994
 3834SOL    HW212390   2.031   1.395   8.044
 3835SOL     OW12391   2.118   1.090   8.338
 3835SOL    HW112392   2.114   1.004   8.380
 3835SOL    HW212393   2.060   1.145   8.391
 3836SOL     OW12394   2.478   1.785   8.883
 3836SOL    HW112395   2.393   1.772   8.925
 3836SOL    HW212396   2.498   1.878   8.898
 3837SOL     OW12397   2.450   0.980   7.581
 3837SOL    HW112398   2.493   1.031   7.512
 3837SOL    HW212399   2.490   1.010   7.662
 3838SOL     OW12400   3.446   0.114   8.921
 3838SOL    HW112401   3.462   0.183   8.856
 3838SOL    HW212402   3.435   0.162   9.004
 3839SOL     OW12403   1.977   0.652   8.007
 3839SOL    HW112404   1.948   0.563   8.029
 3839SOL    HW212405   1.969   0.701   8.089
 3840SOL     OW12406   3.704   1.760   7.784
 3840SOL    HW112407   3.764   1.731   7.852
 3840SOL    HW212408   3.729   1.851   7.766
 3841SOL     OW12409   1.896   1.598   7.578
 3841SOL    HW112410   1.879   1.504   7.588
 3841SOL    HW212411   1.862   1.637   7.658
 3842SOL     OW12412   3.553   0.921   8.088
 3842SOL    HW112413   3.637   0.879   8.068
 3842SOL    HW212414   3.531   0.969   8.008
 3843SOL     OW12415   3.507   1.108   7.877
 3843SOL    HW112416   3.593   1.115   7.835
 3843SOL    HW212417   3.512   1.168   7.951
 3844SOL     OW12418   1.984   0.744   9.033
 3844SOL    HW112419   2.076   0.768   9.045
 3844SOL    HW212420   1.936   0.826   9.041
 3845SOL     OW12421   2.475   1.383   8.182
 3845SOL    HW112422   2.429   1.300   8.192
 3845SOL    HW212423   2.458   1.410   8.092
 3846SOL     OW12424   3.152   1.239   8.872
 3846SOL    HW112425   3.184   1.171   8.812
 3846SOL    HW212426   3.208   1.231   8.949
 3847SOL     OW12427   2.678   0.013   7.996
 3847SOL    HW112428   2.712   0.098   7.972
 3847SOL    HW212429   2.583   0.022   7.989
 3848SOL     OW12430   2.053   0.967   8.718
 3848SOL    HW112431   2.137   0.925   8.702
 3848SOL    HW212432   1.989   0.912   8.673
 3849SOL     OW12433   3.394   0.992   7.645
 3849SOL    HW112434   3.323   0.935   7.676
 3849SOL    HW212435   3.433   1.026   7.725
 3850SOL     OW12436   3.049   1.805   9.069
 3850SOL    HW112437   3.061   1.862   8.993
 3850SOL    HW212438   3.063   1.716   9.035
 3851SOL     OW12439   2.177   0.254   9.229
 3851SOL    HW112440   2.241   0.319   9.261
 3851SOL    HW212441   2.103   0.262   9.289
 3852SOL     OW12442   3.328   1.420   8.400
 3852SOL    HW112443   3.260   1.434   8.466
 3852SOL    HW212444   3.316   1.329   8.373
 3853SOL     OW12445   3.522   1.735   8.026
 3853SOL    HW112446   3.500   1.707   7.937
 3853SOL    HW212447   3.497   1.662   8.082
 3854SOL     OW12448   2.456   0.723   7.712
 3854SOL    HW112449   2.463   0.804   7.662
 3854SOL    HW212450   2.391   0.743   7.780
 3855SOL     OW12451   3.152   0.360   8.382
 3855SOL    HW112452   3.063   0.329   8.367
 3855SOL    HW212453   3.189   0.297   8.444
 3856SOL     OW12454   3.443   1.669   7.757
 3856SOL    HW112455   3.533   1.702   7.750
 3856SOL    HW212456   3.417   1.652   7.666
 3857SOL     OW12457   2.657   0.619   8.903
 3857SOL    HW112458   2.629   0.594   8.991
 3857SOL    HW212459   2.616   0.554   8.845
 3858SOL     OW12460   3.251   0.479   9.124
 3858SOL    HW112461   3.254   0.522   9.209
 3858SOL    HW212462   3.317   0.410   9.130
 3859SOL     OW12463   2.819   0.889   9.029
 3859SOL    HW112464   2.872   0.817   8.995
 3859SOL    HW212465   2.771   0.921   8.953
 3860SOL     OW12466   2.858   0.417   8.685
 3860SOL    HW112467   2.771   0.429   8.725
 3860SOL    HW212468   2.841   0.365   8.606
 3861SOL     OW12469   2.911   0.698   7.875
 3861SOL    HW112470   2.927   0.690   7.970
 3861SOL    HW212471   2.829   0.651   7.861
 3862SOL     OW12472   1.951   0.820   8.224
 3862SOL    HW112473   2.032   0.813   8.274
 3862SOL    HW212474   1.908   0.898   8.259
 3863SOL     OW12475   1.975   1.797   9.015
 3863SOL    HW112476   1.970   1.795   9.110
 3863SOL    HW212477   1.905   1.856   8.988
 3864SOL     OW12478   2.717   0.368   7.629
 3864SOL    HW112479   2.790   0.403   7.579
 3864SOL    HW212480   2.732   0.274   7.633
 3865SOL     OW12481   3.568   0.575   9.276
 3865SOL    HW112482   3.532   0.651   9.230
 3865SOL    HW212483   3.602   0.518   9.206
 3866SOL     OW12484   3.238   1.143   7.990
 3866SOL    HW112485   3.316   1.129   7.937
 3866SOL    HW212486   3.185   1.205   7.939
 3867SOL     OW12487   2.401   0.203   8.349
 3867SOL    HW112488   2.421   0.220   8.441
 3867SOL    HW212489   2.392   0.289   8.309
 3868SOL     OW12490   2.870   1.445   7.921
 3868SOL    HW112491   2.830   1.517   7.872
 3868SOL    HW212492   2.854   1.467   8.013
 3869SOL     OW12493   2.212   1.790   8.288
 3869SOL    HW112494   2.255   1.706   8.305
 3869SOL    HW212495   2.281   1.855   8.303
 3870SOL     OW12496   3.660   1.061   8.315
 3870SOL    HW112497   3.605   1.041   8.240
 3870SOL    HW212498   3.599   1.065   8.389
 3871SOL     OW12499   3.090   1.539   8.960
 3871SOL    HW112500   3.076   1.466   9.021
 3871SOL    HW212501   3.027   1.524   8.890
 3872SOL     OW12502   2.183   0.956   7.696
 3872SOL    HW112503   2.265   0.975   7.651
 3872SOL    HW212504   2.152   0.874   7.658
 3873SOL     OW12505   3.340   0.741   8.173
 3873SOL    HW112506   3.327   0.695   8.256
 3873SOL    HW212507   3.416   0.796   8.189
 3874SOL     OW12508   2.327   1.263   9.186
 3874SOL    HW112509   2.299   1.268   9.095
 3874SOL    HW212510   2.246   1.262   9.236
 3875SOL     OW12511   2.983   1.777   7.680
 3875SOL    HW112512   2.910   1.734   7.726
 3875SOL    HW212513   3.005   1.717   7.609
 3876SOL     OW12514   2.051   0.268   8.958
 3876SOL    HW112515   1.984   0.335   8.941
 3876SOL    HW212516   2.062   0.269   9.053
 3877SOL     OW12517   3.491   1.379   7.535
 3877SOL    HW112518   3.450   1.464   7.520
 3877SOL    HW212519   3.422   1.316   7.517
 3878SOL     OW12520   2.329   1.722   7.789
 3878SOL    HW112521   2.367   1.795   7.837
 3878SOL    HW212522   2.386   1.712   7.712
 3879SOL     OW12523   3.280   0.135   7.866
 3879SOL    HW112524   3.263   0.085   7.786
 3879SOL    HW212525   3.375   0.130   7.878
 3880SOL     OW12526   2.100   1.758   8.686
 3880SOL    HW112527   2.170   1.706   8.727
 3880SOL    HW212528   2.113   1.744   8.592
 3881SOL     OW12529   2.797   1.697   8.349
 3881SOL    HW112530   2.875   1.646   8.370
 3881SOL    HW212531   2.755   1.649   8.278
 3882SOL     OW12532   2.253   0.695   7.924
 3882SOL    HW112533   2.277   0.603   7.936
 3882SOL    HW212534   2.159   0.698   7.943
 3883SOL     OW12535   3.388   0.233   9.170
 3883SOL    HW112536   3.387   0.256   9.263
 3883SOL    HW212537   3.311   0.176   9.159
 3884SOL     OW12538   2.488   0.122   7.569
 3884SOL    HW112539   2.576   0.086   7.578
 3884SOL    HW212540   2.455   0.087   7.486
 3885SOL     OW12541   2.632   0.271   9.201
 3885SOL    HW112542   2.696   0.202   9.215
 3885SOL    HW212543   2.585   0.277   9.284
 3886SOL     OW12544   2.739   1.522   8.640
 3886SOL    HW112545   2.723   1.484   8.554
 3886SOL    HW212546   2.808   1.467   8.679
 3887SOL     OW12547   3.204   0.589   8.877
 3887SOL    HW112548   3.232   0.559   8.964
 3887SOL    HW212549   3.238   0.678   8.870
 3888SOL     OW12550   2.676   1.398   8.385
 3888SOL    HW112551   2.760   1.386   8.341
 3888SOL    HW212552   2.611   1.395   8.314
 3889SOL     OW12553   2.785   0.517   8.349
 3889SOL    HW112554   2.768   0.515   8.254
 3889SOL    HW212555   2.824   0.431   8.368
 3890SOL     OW12556   2.415   0.074   7.968
 3890SOL    HW112557   2.326   0.048   7.992
 3890SOL    HW212558   2.404   0.141   7.900
 3891SOL     OW12559   3.291   1.198   7.490
 3891SOL    HW112560   3.321   1.122   7.539
 3891SOL    HW212561   3.205   1.218   7.526
 3892SOL     OW12562   2.158   0.071   7.642
 3892SOL    HW112563   2.237   0.122   7.625
 3892SOL    HW212564   2.188   4.500   7.699
 3893SOL     OW12565   2.813   0.240   7.918
 3893SOL    HW112566   2.761   0.292   7.857
 3893SOL    HW212567   2.901   0.276   7.911
 3894SOL     OW12568   2.942   0.680   8.909
 3894SOL    HW112569   2.870   0.616   8.910
 3894SOL    HW212570   3.020   0.627   8.897
 3895SOL     OW12571   3.086   1.570   8.242
 3895SOL    HW112572   3.104   1.637   8.176
 3895SOL    HW212573   3.154   1.582   8.308
 3896SOL     OW12574   2.330   1.149   8.184
 3896SOL    HW112575   2.260   1.130   8.246
 3896SOL    HW212576   2.291   1.131   8.098
 3897SOL     OW12577   3.133   1.795   8.054
 3897SOL    HW112578   3.177   1.856   7.995
 3897SOL    HW212579   3.068   1.849   8.100
 3898SOL     OW12580   2.892   0.549   7.463
 3898SOL    HW112581   2.844   0.630   7.448
 3898SOL    HW212582   2.950   0.569   7.537
 3899SOL     OW12583   1.942   0.551   8.842
 3899SOL    HW112584   2.033   0.554   8.812
 3899SOL    HW212585   1.936   0.623   8.905
 3900SOL     OW12586   2.426   0.242   8.613
 3900SOL    HW112587   2.453   0.159   8.652
 3900SOL    HW212588   2.334   0.251   8.639
 3901SOL     OW12589   2.728   0.503   8.074
 3901SOL    HW112590   2.679   0.544   8.002
 3901SOL    HW212591   2.704   0.410   8.069
 3902SOL     OW12592   2.829   0.029   8.225
 3902SOL    HW112593   2.780   0.026   8.144
 3902SOL    HW212594   2.841   4.438   8.251
 3903SOL     OW12595   3.298   1.163   8.305
 3903SOL    HW112596   3.230   1.096   8.305
 3903SOL    HW212597   3.321   1.175   8.213
 3904SOL     OW12598   3.329   0.603   8.425
 3904SOL    HW112599   3.277   0.523   8.428
 3904SOL    HW212600   3.387   0.597   8.501
 3905SOL     OW12601   3.709   0.818   7.830
 3905SOL    HW112602   3.764   0.766   7.888
 3905SOL    HW212603   3.680   0.756   7.763
 3906SOL     OW12604   2.354   1.416   7.606
 3906SOL    HW112605   2.280   1.387   7.659
 3906SOL    HW212606   2.335   1.383   7.518
 3907SOL     OW12607   3.531   1.265   8.094
 3907SOL    HW112608   3.626   1.269   8.109
 3907SOL    HW212609   3.500   1.353   8.116
 3908SOL     OW12610   3.256   0.570   7.518
 3908SOL    HW112611   3.195   0.554   7.590
 3908SOL    HW212612   3.342   0.549   7.555
 3909SOL     OW12613   2.385   0.266   7.772
 3909SOL    HW112614   2.430   0.214   7.705
 3909SOL    HW212615   2.369   0.350   7.730
 3910SOL     OW12616   3.615   1.237   9.023
 3910SOL    HW112617   3.703   1.198   9.020
 3910SOL    HW212618   3.630   1.327   9.053
 3911SOL     OW12619   2.922   1.354   8.783
 3911SOL    HW112620   2.847   1.323   8.834
 3911SOL    HW212621   2.998   1.313   8.823
 3912SOL     OW12622   3.469   1.625   9.100
 3912SOL    HW112623   3.465   1.659   9.011
 3912SOL    HW212624   3.552   1.578   9.104
 3913SOL     OW12625   2.990   1.203   8.555
 3913SOL    HW112626   2.930   1.240   8.620
 3913SOL    HW212627   2.955   1.232   8.471
 3914SOL     OW12628   3.492   1.099   8.526
 3914SOL    HW112629   3.487   1.161   8.599
 3914SOL    HW212630   3.411   1.115   8.477
 3915SOL     OW12631   2.766   0.131   8.837
 3915SOL    HW112632   2.788   0.088   8.755
 3915SOL    HW212633   2.850   0.145   8.881
 3916SOL     OW12634   2.846   1.115   9.170
 3916SOL    HW112635   2.754   1.130   9.191
 3916SOL    HW212636   2.846   1.037   9.114
 3917SOL     OW12637   2.570   1.061   7.820
 3917SOL    HW112638   2.557   1.046   7.913
 3917SOL    HW212639   2.646   1.007   7.797
 3918SOL     OW12640   2.280   0.815   8.699
 3918SOL    HW112641   2.349   0.824   8.765
 3918SOL    HW212642   2.245   0.727   8.713
 3919SOL     OW12643   3.131   0.376   8.720
 3919SOL    HW112644   3.162   0.455   8.765
 3919SOL    HW212645   3.042   0.399   8.693
 3920SOL     OW12646   1.924   1.566   8.796
 3920SOL    HW112647   1.888   1.642   8.750
 3920SOL    HW212648   2.018   1.583   8.799
 3921SOL     OW12649   2.213   1.108   7.940
 3921SOL    HW112650   2.219   1.180   7.877
 3921SOL    HW212651   2.212   1.029   7.885
 3922SOL     OW12652   2.419   0.531   8.307
 3922SOL    HW112653   2.434   0.590   8.233
 3922SOL    HW212654   2.482   0.560   8.373
 3923SOL     OW12655   3.110   1.348   7.837
 3923SOL    HW112656   3.166   1.420   7.868
 3923SOL    HW212657   3.023   1.369   7.871
 3924SOL     OW12658   3.140   1.456   8.594
 3924SOL    HW112659   3.195   1.458   8.672
 3924SOL    HW212660   3.085   1.379   8.605
 3925SOL     OW12661   3.445   0.624   7.924
 3925SOL    HW112662   3.399   0.676   7.990
 3925SOL    HW212663   3.489   0.689   7.869
 3926SOL     OW12664   2.217   1.514   8.770
 3926SOL    HW112665   2.198   1.478   8.683
 3926SOL    HW212666   2.311   1.530   8.770
 3927SOL     OW12667   2.276   0.743   9.050
 3927SOL    HW112668   2.335   0.790   8.991
 3927SOL    HW212669   2.320   0.660   9.067
 3928SOL     OW12670   3.461   0.778   9.128
 3928SOL    HW112671   3.375   0.818   9.121
 3928SOL    HW212672   3.513   0.820   9.060
 3929SOL     OW12673   2.869   0.085   9.172
 3929SOL    HW112674   2.893   0.169   9.133
 3929SOL    HW212675   2.894   0.020   9.106
 3930SOL     OW12676   2.361   0.048   9.205
 3930SOL    HW112677   2.353   0.003   9.121
 3930SOL    HW212678   2.293   0.115   9.203
 3931SOL     OW12679   2.444   0.873   8.479
 3931SOL    HW112680   2.474   0.964   8.477
 3931SOL    HW212681   2.388   0.868   8.556
 3932SOL     OW12682   3.222   0.859   8.480
 3932SOL    HW112683   3.139   0.851   8.432
 3932SOL    HW212684   3.260   0.771   8.475
 3933SOL     OW12685   3.068   0.535   7.713
 3933SOL    HW112686   3.074   0.454   7.764
 3933SOL    HW212687   3.025   0.597   7.771
 3934SOL     OW12688   2.152   0.235   8.689
 3934SOL    HW112689   2.110   0.250   8.773
 3934SOL    HW212690   2.184   0.145   8.694
 3935SOL     OW12691   1.907   1.308   8.724
 3935SOL    HW112692   1.942   1.256   8.797
 3935SOL    HW212693   1.915   1.399   8.753
 3936SOL     OW12694   2.586   0.632   8.507
 3936SOL    HW112695   2.659   0.612   8.449
 3936SOL    HW212696   2.559   0.721   8.483
 3937SOL     OW12697   3.595   0.959   9.299
 3937SOL    HW112698   3.548   0.902   9.239
 3937SOL    HW212699   3.536   0.971   9.373
 3938SOL     OW12700   2.160   0.058   8.102
 3938SOL    HW112701   2.150   0.153   8.105
 3938SOL    HW212702   2.172   0.032   8.193
 3939SOL     OW12703   3.474   0.376   7.813
 3939SOL    HW112704   3.505   0.313   7.878
 3939SOL    HW212705   3.452   0.454   7.863
 3940SOL     OW12706   2.890   0.761   8.410
 3940SOL    HW112707   2.888   0.777   8.504
 3940SOL    HW212708   2.861   0.670   8.401
 3941SOL     OW12709   2.845   1.567   9.163
 3941SOL    HW112710   2.829   1.611   9.080
 3941SOL    HW212711   2.887   1.484   9.139
 3942SOL     OW12712   3.717   1.508   9.054
 3942SOL    HW112713   3.734   1.534   8.963
 3942SOL    HW212714   3.799   1.528   9.100
 3943SOL     OW12715   2.216   0.916   9.256
 3943SOL    HW112716   2.298   0.935   9.301
 3943SOL    HW212717   2.240   0.854   9.187
 3944SOL     OW12718   3.393   0.266   7.576
 3944SOL    HW112719   3.321   0.210   7.604
 3944SOL    HW212720   3.422   0.311   7.656
 3945SOL     OW12721   3.156   0.827   7.480
 3945SOL    HW112722   3.197   0.741   7.482
 3945SOL    HW212723   3.186   0.866   7.398
 3946SOL     OW12724   2.926   1.335   8.300
 3946SOL    HW112725   2.929   1.262   8.239
 3946SOL    HW212726   2.989   1.398   8.266
 3947SOL     OW12727   2.172   0.810   8.396
 3947SOL    HW112728   2.264   0.832   8.389
 3947SOL    HW212729   2.171   0.721   8.430
 3948SOL     OW12730   2.199   0.530   8.461
 3948SOL    HW112731   2.156   0.446   8.441
 3948SOL    HW212732   2.274   0.533   8.402
 3949SOL     OW12733   2.997   0.375   9.142
 3949SOL    HW112734   2.949   0.439   9.193
 3949SOL    HW212735   3.083   0.414   9.128
 3950SOL     OW12736   3.022   0.211   8.921
 3950SOL    HW112737   3.014   0.275   8.992
 3950SOL    HW212738   3.058   0.261   8.848
 3951SOL     OW12739   1.866   1.322   7.643
 3951SOL    HW112740   1.779   1.336   7.605
 3951SOL    HW212741   1.865   1.233   7.676
 3952SOL     OW12742   1.949   1.783   8.376
 3952SOL    HW112743   1.919   1.701   8.337
 3952SOL    HW212744   2.037   1.796   8.341
 3953SOL     OW12745   2.361   1.570   8.352
 3953SOL    HW112746   2.430   1.634   8.372
 3953SOL    HW212747   2.404   1.504   8.298
 3954SOL     OW12748   2.848   0.795   8.677
 3954SOL    HW112749   2.902   0.770   8.752
 3954SOL    HW212750   2.763   0.755   8.694
 3955SOL     OW12751   1.896   0.542   8.566
 3955SOL    HW112752   1.974   0.523   8.515
 3955SOL    HW212753   1.927   0.548   8.656
 3956SOL     OW12754   2.047   0.518   9.168
 3956SOL    HW112755   2.120   0.497   9.110
 3956SOL    HW212756   2.005   0.594   9.127
 3957SOL     OW12757   3.239   0.940   9.107
 3957SOL    HW112758   3.259   1.034   9.106
 3957SOL    HW212759   3.236   0.916   9.015
 3958SOL     OW12760   2.673   0.574   7.802
 3958SOL    HW112761   2.677   0.502   7.739
 3958SOL    HW212762   2.599   0.627   7.773
 3959SOL     OW12763   3.503   0.602   8.636
 3959SOL    HW112764   3.493   0.541   8.710
 3959SOL    HW212765   3.590   0.582   8.602
 3960SOL     OW12766   2.115   1.549   9.180
 3960SOL    HW112767   2.081   1.611   9.245
 3960SOL    HW212768   2.109   1.463   9.222
 3961SOL     OW12769   2.557   0.459   8.713
 3961SOL    HW112770   2.512   0.382   8.680
 3961SOL    HW212771   2.559   0.520   8.639
 3962SOL     OW12772   2.794   1.679   8.914
 3962SOL    HW112773   2.764   1.647   8.829
 3962SOL    HW212774   2.789   1.774   8.907
 3963SOL     OW12775   2.328   0.493   7.633
 3963SOL    HW112776   2.386   0.566   7.654
 3963SOL    HW212777   2.242   0.534   7.623
 3964SOL     OW12778   2.009   1.140   8.920
 3964SOL    HW112779   2.013   1.086   9.000
 3964SOL    HW212780   2.026   1.078   8.849
 3965SOL     OW12781   3.190   1.048   8.672
 3965SOL    HW112782   3.213   0.985   8.604
 3965SOL    HW212783   3.118   1.099   8.634
 3966SOL     OW12784   3.172   0.857   7.755
 3966SOL    HW112785   3.096   0.827   7.805
 3966SOL    HW212786   3.147   0.843   7.663
 3967SOL     OW12787   3.632   1.746   8.597
 3967SOL    HW112788   3.692   1.772   8.527
 3967SOL    HW212789   3.608   1.656   8.576
 3968SOL     OW12790   3.104   1.733   8.563
 3968SOL    HW112791   3.185   1.752   8.517
 3968SOL    HW212792   3.107   1.639   8.581
 3969SOL     OW12793   1.947   1.265   8.461
 3969SOL    HW112794   1.933   1.278   8.555
 3969SOL    HW212795   1.872   1.213   8.433
 3970SOL     OW12796   2.540   1.665   9.174
 3970SOL    HW112797   2.487   1.744   9.172
 3970SOL    HW212798   2.601   1.675   9.101
 3971SOL     OW12799   3.580   0.130   7.943
 3971SOL    HW112800   3.653   0.136   7.882
 3971SOL    HW212801   3.603   0.057   8.001
 3972SOL     OW12802   3.252   1.568   7.932
 3972SOL    HW112803   3.313   1.599   7.864
 3972SOL    HW212804   3.204   1.646   7.959
 3973SOL     OW12805   1.987   1.787   9.288
 3973SOL    HW112806   1.936   1.720   9.334
 3973SOL    HW212807   2.045   1.823   9.354
 3974SOL     OW12808   3.140   0.927   8.121
 3974SOL    HW112809   3.213   0.864   8.125
 3974SOL    HW212810   3.174   0.999   8.068
 3975SOL     OW12811   2.679   1.273   8.879
 3975SOL    HW112812   2.652   1.311   8.962
 3975SOL    HW212813   2.607   1.293   8.818
 3976SOL     OW12814   2.537   1.616   7.601
 3976SOL    HW112815   2.544   1.628   7.506
 3976SOL    HW212816   2.481   1.539   7.612
 3977SOL     OW12817   3.493   1.727   8.840
 3977SOL    HW112818   3.540   1.734   8.757
 3977SOL    HW212819   3.479   1.817   8.868
 3978SOL     OW12820   3.701   0.155   8.415
 3978SOL    HW112821   3.732   0.079   8.365
 3978SOL    HW212822   3.614   0.173   8.378
 3979SOL     OW12823   2.128   0.324   8.167
 3979SOL    HW112824   2.042   0.358   8.139
 3979SOL    HW212825   2.120   0.314   8.262
 3980SOL     OW12826   3.068   1.607   7.479
 3980SOL    HW112827   3.060   1.516   7.507
 3980SOL    HW212828   3.003   1.618   7.410
 3981SOL     OW12829   2.686   1.006   8.820
 3981SOL    HW112830   2.729   1.001   8.735
 3981SOL    HW212831   2.687   1.099   8.843
 3982SOL     OW12832   2.777   0.910   7.738
 3982SOL    HW112833   2.840   0.942   7.672
 3982SOL    HW212834   2.824   0.840   7.783
 3983SOL     OW12835   3.356   1.625   7.490
 3983SOL    HW112836   3.261   1.619   7.478
 3983SOL    HW212837   3.391   1.631   7.402
 3984SOL     OW12838   2.232   1.298   8.941
 3984SOL    HW112839   2.221   1.377   8.887
 3984SOL    HW212840   2.154   1.246   8.924
 3985SOL     OW12841   3.474   1.283   8.729
 3985SOL    HW112842   3.532   1.274   8.804
 3985SOL    HW212843   3.413   1.353   8.754
 3986SOL     OW12844   2.912   1.106   8.154
 3986SOL    HW112845   2.841   1.055   8.193
 3986SOL    HW212846   2.973   1.041   8.121
 3987SOL     OW12847   2.869   0.242   8.448
 3987SOL    HW112848   2.875   0.216   8.356
 3987SOL    HW212849   2.862   0.160   8.496
 3988SOL     OW12850   2.462   1.490   7.929
 3988SOL    HW112851   2.505   1.438   7.860
 3988SOL    HW212852   2.402   1.547   7.882
 3989SOL     OW12853   3.582   0.393   8.825
 3989SOL    HW112854   3.655   0.456   8.824
 3989SOL    HW212855   3.611   0.322   8.769
 3990SOL     OW12856   2.120   1.347   7.735
 3990SOL    HW112857   2.027   1.344   7.713
 3990SOL    HW212858   2.123   1.384   7.823
 3991SOL     OW12859   1.974   1.019   9.167
 3991SOL    HW112860   1.898   0.996   9.221
 3991SOL    HW212861   2.049   0.983   9.215
 3992SOL     OW12862   2.521   0.203   8.945
 3992SOL    HW112863   2.601   0.179   8.899
 3992SOL    HW212864   2.550   0.224   9.034
 3993SOL     OW12865   1.943   0.342   7.495
 3993SOL    HW112866   1.871   0.289   7.459
 3993SOL    HW212867   1.958   0.410   7.430
 3994SOL     OW12868   3.293   0.859   8.849
 3994SOL    HW112869   3.244   0.918   8.793
 3994SOL    HW212870   3.383   0.861   8.815
 3995SOL     OW12871   1.927   0.181   7.769
 3995SOL    HW112872   1.925   0.248   7.701
 3995SOL    HW212873   2.002   0.126   7.747
 3996SOL     OW12874   3.041   1.341   7.565
 3996SOL    HW112875   2.951   1.310   7.568
 3996SOL    HW212876   3.070   1.340   7.656
 3997SOL     OW12877   2.481   0.831   8.881
 3997SOL    HW112878   2.536   0.907   8.866
 3997SOL    HW212879   2.542   0.758   8.889
 3998SOL     OW12880   3.346   1.775   8.424
 3998SOL    HW112881   3.372   1.833   8.353
 3998SOL    HW212882   3.428   1.758   8.471
 3999SOL     OW12883   2.578   0.564   9.154
 3999SOL    HW112884   2.615   0.628   9.215
 3999SOL    HW212885   2.613   0.480   9.185
 4000SOL     OW12886   3.331   1.202   9.081
 4000SOL    HW112887   3.319   1.215   9.175
 4000SOL    HW212888   3.425   1.215   9.067
 4001SOL     OW12889   2.243   1.743   9.015
 4001SOL    HW112890   2.156   1.774   8.990
 4001SOL    HW212891   2.228   1.657   9.055
 4002SOL     OW12892   3.533   0.882   8.704
 4002SOL    HW112893   3.524   0.796   8.661
 4002SOL    HW212894   3.524   0.945   8.633
 4003SOL     OW12895   3.080   0.328   7.896
 4003SOL    HW112896   3.145   0.259   7.886
 4003SOL    HW212897   3.107   0.376   7.975
 4004SOL     OW12898   2.450   0.739   8.117
 4004SOL    HW112899   2.492   0.824   8.101
 4004SOL    HW212900   2.382   0.732   8.051
 4005SOL     OW12901   3.627   0.363   9.091
 4005SOL    HW112902   3.610   0.377   8.998
 4005SOL    HW212903   3.549   0.318   9.123
 4006SOL     OW12904   3.607   0.933   8.960
 4006SOL    HW112905   3.606   1.028   8.973
 4006SOL    HW212906   3.591   0.922   8.867
 4007SOL     OW12907   2.723   1.368   7.479
 4007SOL    HW112908   2.684   1.395   7.563
 4007SOL    HW212909   2.743   1.451   7.434
 4008SOL     OW12910   2.521   1.797   8.382
 4008SOL    HW112911   2.517   1.887   8.416
 4008SOL    HW212912   2.614   1.775   8.384
 4009SOL     OW12913   2.728   0.966   8.304
 4009SOL    HW112914   2.779   0.894   8.343
 4009SOL    HW212915   2.695   1.016   8.378
 4010SOL     OW12916   2.942   0.988   7.537
 4010SOL    HW112917   2.920   1.038   7.458
 4010SOL    HW212918   3.017   0.935   7.511
 4011SOL     OW12919   3.718   1.556   8.293
 4011SOL    HW112920   3.640   1.544   8.238
 4011SOL    HW212921   3.710   1.488   8.360
 4012SOL     OW12922   2.086   1.303   9.304
 4012SOL    HW112923   2.018   1.243   9.275
 4012SOL    HW212924   2.069   1.315   9.398
 4013SOL     OW12925   1.948   1.235   8.111
 4013SOL    HW112926   1.948   1.187   8.194
 4013SOL    HW212927   2.015   1.191   8.058
 4014SOL     OW12928   2.542   1.402   9.074
 4014SOL    HW112929   2.462   1.358   9.104
 4014SOL    HW212930   2.537   1.489   9.112
 4015SOL     OW12931   3.671   0.183   8.687
 4015SOL    HW112932   3.671   0.089   8.707
 4015SOL    HW212933   3.687   0.186   8.593
 4016SOL     OW12934   2.297   0.433   7.976
 4016SOL    HW112935   2.320   0.364   7.915
 4016SOL    HW212936   2.242   0.390   8.042
 4017SOL     OW12937   3.562   1.491   8.547
 4017SOL    HW112938   3.482   1.466   8.502
 4017SOL    HW212939   3.576   1.422   8.612
 4018SOL     OW12940   2.190   0.555   8.739
 4018SOL    HW112941   2.246   0.500   8.793
 4018SOL    HW212942   2.210   0.529   8.649
 4019SOL     OW12943   2.687   1.578   8.127
 4019SOL    HW112944   2.678   1.623   8.043
 4019SOL    HW212945   2.610   1.521   8.131
 4020SOL     OW12946   3.294   0.216   8.566
 4020SOL    HW112947   3.330   0.145   8.619
 4020SOL    HW212948   3.243   0.268   8.627
 4021SOL     OW12949   2.859   0.010   8.597
 4021SOL    HW112950   2.814   4.426   8.588
 4021SOL    HW212951   2.951   4.488   8.609
 4022SOL     OW12952   2.634   1.332   7.761
 4022SOL    HW112953   2.600   1.242   7.767
 4022SOL    HW212954   2.716   1.330   7.809
 4023SOL     OW12955   2.483   1.559   8.730
 4023SOL    HW112956   2.486   1.638   8.783
 4023SOL    HW212957   2.571   1.551   8.694
 4024SOL     OW12958   3.204   0.053   7.600
 4024SOL    HW112959   3.243   4.478   7.556
 4024SOL    HW212960   3.128   0.017   7.647
 4025SOL     OW12961   3.177   0.463   8.127
 4025SOL    HW112962   3.115   0.536   8.128
 4025SOL    HW212963   3.164   0.420   8.212
 4026SOL     OW12964   3.447   0.201   8.315
 4026SOL    HW112965   3.387   0.216   8.388
 4026SOL    HW212966   3.450   0.285   8.269
 4027SOL     OW12967   1.906   1.073   7.753
 4027SOL    HW112968   2.000   1.063   7.736
 4027SOL    HW212969   1.877   0.984   7.776
 4028SOL     OW12970   2.743   1.651   7.793
 4028SOL    HW112971   2.673   1.633   7.731
 4028SOL    HW212972   2.713   1.727   7.842
 4029SOL     OW12973   2.092   0.627   9.430
 4029SOL    HW112974   2.004   0.620   9.468
 4029SOL    HW212975   2.081   0.595   9.340
 4030SOL     OW12976   2.072   0.296  10.298
 4030SOL    HW112977   2.102   0.269  10.385
 4030SOL    HW212978   1.989   0.249  10.286
 4031SOL     OW12979   1.870   0.385   9.949
 4031SOL    HW112980   1.784   0.404   9.986
 4031SOL    HW212981   1.855   0.310   9.891
 4032SOL     OW12982   2.430   1.285  10.483
 4032SOL    HW112983   2.341   1.285  10.446
 4032SOL    HW212984   2.442   1.373  10.517
 4033SOL     OW12985   3.421   1.512  10.016
 4033SOL    HW112986   3.378   1.492  10.099
 4033SOL    HW212987   3.350   1.516   9.952
 4034SOL     OW12988   2.995   0.699  10.010
 4034SOL    HW112989   3.042   0.782   9.999
 4034SOL    HW212990   2.945   0.711  10.091
 4035SOL     OW12991   3.627   0.608   9.539
 4035SOL    HW112992   3.608   0.597   9.446
 4035SOL    HW212993   3.595   0.528   9.579
 4036SOL     OW12994   2.622   1.145  10.350
 4036SOL    HW112995   2.551   1.178  10.405
 4036SOL    HW212996   2.654   1.222  10.304
 4037SOL     OW12997   2.714   0.780   0.021
 4037SOL    HW112998   2.720   0.837   0.097
 4037SOL    HW212999   2.747   0.833  11.048
 4038SOL     OW13000   2.549   1.006   9.958
 4038SOL    HW113001   2.613   0.992  10.028
 4038SOL    HW213002   2.478   1.055   9.999
 4039SOL     OW13003   2.194   1.425  10.378
 4039SOL    HW113004   2.119   1.391  10.329
 4039SOL    HW213005   2.244   1.476  10.314
 4040SOL     OW13006   3.326   1.500  10.658
 4040SOL    HW113007   3.379   1.579  10.668
 4040SOL    HW213008   3.274   1.495  10.738
 4041SOL     OW13009   2.309   0.395  10.789
 4041SOL    HW113010   2.386   0.339  10.799
 4041SOL    HW213011   2.236   0.341  10.819
 4042SOL     OW13012   3.474   0.447  10.048
 4042SOL    HW113013   3.393   0.470  10.002
 4042SOL    HW213014   3.495   0.525  10.100
 4043SOL     OW13015   2.083   1.722   9.785
 4043SOL    HW113016   2.125   1.759   9.863
 4043SOL    HW213017   2.154   1.709   9.723
 4044SOL     OW13018   2.089   1.443   9.844
 4044SOL    HW113019   2.065   1.535   9.855
 4044SOL    HW213020   2.031   1.396   9.905
 4045SOL     OW13021   2.118   1.090  10.201
 4045SOL    HW113022   2.114   1.004  10.243
 4045SOL    HW213023   2.060   1.145  10.253
 4046SOL     OW13024   2.476   1.780  10.743
 4046SOL    HW113025   2.394   1.766  10.790
 4046SOL    HW213026   2.498   1.872  10.759
 4047SOL     OW13027   2.450   0.980   9.443
 4047SOL    HW113028   2.494   1.031   9.374
 4047SOL    HW213029   2.490   1.010   9.524
 4048SOL     OW13030   3.418   0.133  10.780
 4048SOL    HW113031   3.466   0.191  10.721
 4048SOL    HW213032   3.472   0.129  10.859
 4049SOL     OW13033   1.977   0.652   9.869
 4049SOL    HW113034   1.948   0.563   9.891
 4049SOL    HW213035   1.969   0.701   9.951
 4050SOL     OW13036   3.704   1.760   9.646
 4050SOL    HW113037   3.764   1.731   9.714
 4050SOL    HW213038   3.729   1.851   9.628
 4051SOL     OW13039   1.892   1.590   9.434
 4051SOL    HW113040   1.876   1.497   9.451
 4051SOL    HW213041   1.867   1.634   9.515
 4052SOL     OW13042   3.553   0.921   9.950
 4052SOL    HW113043   3.637   0.879   9.930
 4052SOL    HW213044   3.531   0.969   9.870
 4053SOL     OW13045   3.507   1.108   9.739
 4053SOL    HW113046   3.593   1.115   9.697
 4053SOL    HW213047   3.512   1.168   9.813
 4054SOL     OW13048   1.987   0.726  10.913
 4054SOL    HW113049   2.080   0.747  10.908
 4054SOL    HW213050   1.943   0.811  10.908
 4055SOL     OW13051   2.476   1.383  10.044
 4055SOL    HW113052   2.429   1.300  10.054
 4055SOL    HW213053   2.458   1.410   9.954
 4056SOL     OW13054   3.158   1.237  10.751
 4056SOL    HW113055   3.182   1.176  10.681
 4056SOL    HW213056   3.213   1.213  10.825
 4057SOL     OW13057   2.678   0.013   9.858
 4057SOL    HW113058   2.712   0.098   9.834
 4057SOL    HW213059   2.583   0.022   9.851
 4058SOL     OW13060   2.053   0.967  10.578
 4058SOL    HW113061   2.137   0.923  10.562
 4058SOL    HW213062   1.988   0.910  10.536
 4059SOL     OW13063   3.394   0.992   9.507
 4059SOL    HW113064   3.323   0.935   9.538
 4059SOL    HW213065   3.433   1.026   9.587
 4060SOL     OW13066   3.060   1.806  10.927
 4060SOL    HW113067   3.058   1.868  10.854
 4060SOL    HW213068   3.066   1.720  10.885
 4061SOL     OW13069   2.196   0.275  11.088
 4061SOL    HW113070   2.252   0.339   0.032
 4061SOL    HW213071   2.112   0.281   0.035
 4062SOL     OW13072   3.328   1.420  10.262
 4062SOL    HW113073   3.259   1.435  10.327
 4062SOL    HW213074   3.316   1.329  10.235
 4063SOL     OW13075   3.522   1.736   9.888
 4063SOL    HW113076   3.500   1.707   9.799
 4063SOL    HW213077   3.497   1.662   9.944
 4064SOL     OW13078   2.456   0.723   9.575
 4064SOL    HW113079   2.463   0.804   9.524
 4064SOL    HW213080   2.390   0.743   9.642
 4065SOL     OW13081   3.153   0.360  10.244
 4065SOL    HW113082   3.063   0.329  10.228
 4065SOL    HW213083   3.189   0.297  10.306
 4066SOL     OW13084   3.443   1.669   9.619
 4066SOL    HW113085   3.533   1.702   9.612
 4066SOL    HW213086   3.417   1.652   9.528
 4067SOL     OW13087   2.658   0.617  10.766
 4067SOL    HW113088   2.626   0.593  10.853
 4067SOL    HW213089   2.618   0.553  10.707
 4068SOL     OW13090   2.828   0.898  10.900
 4068SOL    HW113091   2.876   0.825  10.861
 4068SOL    HW213092   2.777   0.935  10.828
 4069SOL     OW13093   2.857   0.418  10.547
 4069SOL    HW113094   2.770   0.429  10.585
 4069SOL    HW213095   2.843   0.365  10.469
 4070SOL     OW13096   2.911   0.698   9.737
 4070SOL    HW113097   2.927   0.690   9.832
 4070SOL    HW213098   2.829   0.651   9.723
 4071SOL     OW13099   1.951   0.820  10.086
 4071SOL    HW113100   2.032   0.813  10.136
 4071SOL    HW213101   1.908   0.898  10.121
 4072SOL     OW13102   1.970   1.794  10.892
 4072SOL    HW113103   1.962   1.793  10.988
 4072SOL    HW213104   1.888   1.834  10.862
 4073SOL     OW13105   2.717   0.368   9.491
 4073SOL    HW113106   2.790   0.403   9.441
 4073SOL    HW213107   2.732   0.274   9.495
 4074SOL     OW13108   3.238   1.143   9.852
 4074SOL    HW113109   3.316   1.129   9.799
 4074SOL    HW213110   3.185   1.205   9.801
 4075SOL     OW13111   2.402   0.203  10.211
 4075SOL    HW113112   2.422   0.221  10.303
 4075SOL    HW213113   2.393   0.289  10.171
 4076SOL     OW13114   2.870   1.445   9.783
 4076SOL    HW113115   2.830   1.517   9.734
 4076SOL    HW213116   2.854   1.468   9.875
 4077SOL     OW13117   2.217   1.786  10.149
 4077SOL    HW113118   2.256   1.700  10.165
 4077SOL    HW213119   2.283   1.849  10.176
 4078SOL     OW13120   3.660   1.061  10.177
 4078SOL    HW113121   3.605   1.041  10.102
 4078SOL    HW213122   3.599   1.065  10.251
 4079SOL     OW13123   3.090   1.539  10.823
 4079SOL    HW113124   3.096   1.452  10.863
 4079SOL    HW213125   3.028   1.528  10.751
 4080SOL     OW13126   2.183   0.956   9.559
 4080SOL    HW113127   2.265   0.975   9.513
 4080SOL    HW213128   2.152   0.874   9.520
 4081SOL     OW13129   3.340   0.741  10.035
 4081SOL    HW113130   3.327   0.695  10.118
 4081SOL    HW213131   3.416   0.796  10.050
 4082SOL     OW13132   2.316   1.266  11.053
 4082SOL    HW113133   2.288   1.277  10.962
 4082SOL    HW213134   2.249   1.211  11.093
 4083SOL     OW13135   2.983   1.777   9.543
 4083SOL    HW113136   2.910   1.734   9.588
 4083SOL    HW213137   3.005   1.717   9.471
 4084SOL     OW13138   2.056   0.267  10.814
 4084SOL    HW113139   1.987   0.333  10.806
 4084SOL    HW213140   2.071   0.259  10.908
 4085SOL     OW13141   3.491   1.379   9.397
 4085SOL    HW113142   3.450   1.464   9.382
 4085SOL    HW213143   3.422   1.316   9.379
 4086SOL     OW13144   2.329   1.721   9.650
 4086SOL    HW113145   2.367   1.794   9.700
 4086SOL    HW213146   2.388   1.711   9.575
 4087SOL     OW13147   3.280   0.135   9.728
 4087SOL    HW113148   3.263   0.086   9.648
 4087SOL    HW213149   3.375   0.130   9.740
 4088SOL     OW13150   2.095   1.762  10.543
 4088SOL    HW113151   2.166   1.714  10.585
 4088SOL    HW213152   2.114   1.757  10.450
 4089SOL     OW13153   2.798   1.697  10.211
 4089SOL    HW113154   2.876   1.646  10.231
 4089SOL    HW213155   2.755   1.649  10.140
 4090SOL     OW13156   2.253   0.695   9.787
 4090SOL    HW113157   2.277   0.603   9.798
 4090SOL    HW213158   2.160   0.698   9.805
 4091SOL     OW13159   2.488   0.122   9.431
 4091SOL    HW113160   2.576   0.086   9.440
 4091SOL    HW213161   2.455   0.087   9.348
 4092SOL     OW13162   2.624   0.266  11.045
 4092SOL    HW113163   2.692   0.207  11.077
 4092SOL    HW213164   2.584   0.302   0.024
 4093SOL     OW13165   2.739   1.522  10.502
 4093SOL    HW113166   2.723   1.485  10.415
 4093SOL    HW213167   2.809   1.469  10.539
 4094SOL     OW13168   3.206   0.589  10.752
 4094SOL    HW113169   3.255   0.572  10.833
 4094SOL    HW213170   3.232   0.678  10.727
 4095SOL     OW13171   2.676   1.398  10.247
 4095SOL    HW113172   2.760   1.386  10.202
 4095SOL    HW213173   2.611   1.395  10.177
 4096SOL     OW13174   2.785   0.517  10.211
 4096SOL    HW113175   2.768   0.515  10.116
 4096SOL    HW213176   2.824   0.432  10.230
 4097SOL     OW13177   2.416   0.074   9.830
 4097SOL    HW113178   2.326   0.049   9.854
 4097SOL    HW213179   2.404   0.141   9.762
 4098SOL     OW13180   3.291   1.198   9.351
 4098SOL    HW113181   3.321   1.122   9.401
 4098SOL    HW213182   3.204   1.218   9.388
 4099SOL     OW13183   2.158   0.070   9.504
 4099SOL    HW113184   2.236   0.122   9.487
 4099SOL    HW213185   2.188   4.500   9.561
 4100SOL     OW13186   2.813   0.240   9.780
 4100SOL    HW113187   2.761   0.292   9.719
 4100SOL    HW213188   2.901   0.276   9.773
 4101SOL     OW13189   2.940   0.683  10.773
 4101SOL    HW113190   2.867   0.621  10.772
 4101SOL    HW213191   3.018   0.628  10.765
 4102SOL     OW13192   3.085   1.570  10.104
 4102SOL    HW113193   3.104   1.637  10.038
 4102SOL    HW213194   3.154   1.582  10.170
 4103SOL     OW13195   2.330   1.149  10.046
 4103SOL    HW113196   2.260   1.130  10.108
 4103SOL    HW213197   2.291   1.131   9.960
 4104SOL     OW13198   3.133   1.795   9.916
 4104SOL    HW113199   3.177   1.855   9.857
 4104SOL    HW213200   3.068   1.849   9.962
 4105SOL     OW13201   2.892   0.549   9.325
 4105SOL    HW113202   2.844   0.630   9.310
 4105SOL    HW213203   2.950   0.569   9.399
 4106SOL     OW13204   1.941   0.550  10.706
 4106SOL    HW113205   2.032   0.554  10.676
 4106SOL    HW213206   1.936   0.615  10.777
 4107SOL     OW13207   2.425   0.242  10.476
 4107SOL    HW113208   2.449   0.156  10.510
 4107SOL    HW213209   2.333   0.253  10.502
 4108SOL     OW13210   2.728   0.503   9.936
 4108SOL    HW113211   2.679   0.544   9.865
 4108SOL    HW213212   2.704   0.410   9.931
 4109SOL     OW13213   2.829   0.029  10.087
 4109SOL    HW113214   2.780   0.026  10.006
 4109SOL    HW213215   2.840   4.437  10.113
 4110SOL     OW13216   3.297   1.164  10.167
 4110SOL    HW113217   3.230   1.095  10.166
 4110SOL    HW213218   3.321   1.176  10.075
 4111SOL     OW13219   3.328   0.604  10.287
 4111SOL    HW113220   3.277   0.523  10.290
 4111SOL    HW213221   3.387   0.597  10.362
 4112SOL     OW13222   3.709   0.818   9.692
 4112SOL    HW113223   3.764   0.766   9.750
 4112SOL    HW213224   3.680   0.756   9.625
 4113SOL     OW13225   2.354   1.416   9.468
 4113SOL    HW113226   2.280   1.387   9.521
 4113SOL    HW213227   2.335   1.383   9.380
 4114SOL     OW13228   3.531   1.265   9.957
 4114SOL    HW113229   3.626   1.269   9.971
 4114SOL    HW213230   3.500   1.353   9.978
 4115SOL     OW13231   3.256   0.570   9.380
 4115SOL    HW113232   3.195   0.554   9.452
 4115SOL    HW213233   3.342   0.549   9.417
 4116SOL     OW13234   2.385   0.266   9.634
 4116SOL    HW113235   2.430   0.214   9.567
 4116SOL    HW213236   2.369   0.350   9.592
 4117SOL     OW13237   3.622   1.229  10.871
 4117SOL    HW113238   3.713   1.200  10.875
 4117SOL    HW213239   3.622   1.316  10.912
 4118SOL     OW13240   2.926   1.354  10.650
 4118SOL    HW113241   2.848   1.321  10.695
 4118SOL    HW213242   2.999   1.306  10.690
 4119SOL     OW13243   2.990   1.206  10.417
 4119SOL    HW113244   2.925   1.239  10.479
 4119SOL    HW213245   2.957   1.232  10.331
 4120SOL     OW13246   3.492   1.099  10.389
 4120SOL    HW113247   3.488   1.161  10.462
 4120SOL    HW213248   3.412   1.116  10.339
 4121SOL     OW13249   2.762   0.127  10.699
 4121SOL    HW113250   2.789   0.089  10.616
 4121SOL    HW213251   2.844   0.141  10.746
 4122SOL     OW13252   2.570   1.061   9.682
 4122SOL    HW113253   2.557   1.046   9.775
 4122SOL    HW213254   2.646   1.007   9.659
 4123SOL     OW13255   2.280   0.814  10.561
 4123SOL    HW113256   2.349   0.823  10.627
 4123SOL    HW213257   2.245   0.726  10.575
 4124SOL     OW13258   3.132   0.381  10.581
 4124SOL    HW113259   3.162   0.459  10.628
 4124SOL    HW213260   3.043   0.403  10.552
 4125SOL     OW13261   1.925   1.568  10.656
 4125SOL    HW113262   1.894   1.645  10.608
 4125SOL    HW213263   2.020   1.579  10.660
 4126SOL     OW13264   2.214   1.108   9.801
 4126SOL    HW113265   2.218   1.180   9.739
 4126SOL    HW213266   2.212   1.029   9.746
 4127SOL     OW13267   2.419   0.531  10.169
 4127SOL    HW113268   2.434   0.590  10.095
 4127SOL    HW213269   2.482   0.561  10.235
 4128SOL     OW13270   3.110   1.348   9.699
 4128SOL    HW113271   3.166   1.420   9.730
 4128SOL    HW213272   3.023   1.369   9.733
 4129SOL     OW13273   3.139   1.458  10.454
 4129SOL    HW113274   3.195   1.460  10.532
 4129SOL    HW213275   3.086   1.379  10.465
 4130SOL     OW13276   3.445   0.624   9.786
 4130SOL    HW113277   3.399   0.677   9.852
 4130SOL    HW213278   3.489   0.689   9.731
 4131SOL     OW13279   2.214   1.514  10.630
 4131SOL    HW113280   2.197   1.477  10.543
 4131SOL    HW213281   2.308   1.532  10.631
 4132SOL     OW13282   2.275   0.736  10.905
 4132SOL    HW113283   2.337   0.781  10.848
 4132SOL    HW213284   2.314   0.649  10.919
 4133SOL     OW13285   3.455   0.761  10.970
 4133SOL    HW113286   3.377   0.817  10.965
 4133SOL    HW213287   3.523   0.811  10.926
 4134SOL     OW13288   2.445   0.873  10.341
 4134SOL    HW113289   2.473   0.964  10.339
 4134SOL    HW213290   2.388   0.867  10.418
 4135SOL     OW13291   3.221   0.860  10.345
 4135SOL    HW113292   3.140   0.853  10.295
 4135SOL    HW213293   3.261   0.773  10.339
 4136SOL     OW13294   3.068   0.535   9.575
 4136SOL    HW113295   3.074   0.454   9.626
 4136SOL    HW213296   3.025   0.597   9.633
 4137SOL     OW13297   2.152   0.233  10.549
 4137SOL    HW113298   2.114   0.251  10.635
 4137SOL    HW213299   2.183   0.143  10.554
 4138SOL     OW13300   1.909   1.309  10.585
 4138SOL    HW113301   1.940   1.257  10.660
 4138SOL    HW213302   1.914   1.399  10.616
 4139SOL     OW13303   2.586   0.632  10.370
 4139SOL    HW113304   2.659   0.612  10.310
 4139SOL    HW213305   2.559   0.721  10.345
 4140SOL     OW13306   2.160   0.058   9.964
 4140SOL    HW113307   2.150   0.153   9.967
 4140SOL    HW213308   2.172   0.032  10.055
 4141SOL     OW13309   3.474   0.376   9.675
 4141SOL    HW113310   3.505   0.313   9.740
 4141SOL    HW213311   3.452   0.454   9.725
 4142SOL     OW13312   2.890   0.761  10.272
 4142SOL    HW113313   2.888   0.777  10.366
 4142SOL    HW213314   2.861   0.670  10.262
 4143SOL     OW13315   2.837   1.572  11.004
 4143SOL    HW113316   2.822   1.621  10.923
 4143SOL    HW213317   2.866   1.486  10.974
 4144SOL     OW13318   3.720   1.495  10.912
 4144SOL    HW113319   3.734   1.530  10.824
 4144SOL    HW213320   3.788   1.537  10.965
 4145SOL     OW13321   2.222   0.918  11.095
 4145SOL    HW113322   2.307   0.933   0.037
 4145SOL    HW213323   2.239   0.852  11.028
 4146SOL     OW13324   3.393   0.266   9.438
 4146SOL    HW113325   3.321   0.210   9.466
 4146SOL    HW213326   3.422   0.311   9.518
 4147SOL     OW13327   3.156   0.827   9.342
 4147SOL    HW113328   3.197   0.741   9.344
 4147SOL    HW213329   3.186   0.866   9.260
 4148SOL     OW13330   2.927   1.335  10.163
 4148SOL    HW113331   2.930   1.262  10.101
 4148SOL    HW213332   2.989   1.398  10.128
 4149SOL     OW13333   2.172   0.810  10.258
 4149SOL    HW113334   2.265   0.831  10.251
 4149SOL    HW213335   2.170   0.720  10.292
 4150SOL     OW13336   2.199   0.530  10.322
 4150SOL    HW113337   2.156   0.446  10.303
 4150SOL    HW213338   2.274   0.532  10.264
 4151SOL     OW13339   3.017   0.216  10.771
 4151SOL    HW113340   3.026   0.271  10.849
 4151SOL    HW213341   3.054   0.269  10.700
 4152SOL     OW13342   1.867   1.321   9.505
 4152SOL    HW113343   1.779   1.334   9.468
 4152SOL    HW213344   1.865   1.231   9.538
 4153SOL     OW13345   1.948   1.790  10.241
 4153SOL    HW113346   1.917   1.708  10.202
 4153SOL    HW213347   2.038   1.800  10.210
 4154SOL     OW13348   2.363   1.568  10.216
 4154SOL    HW113349   2.432   1.632  10.234
 4154SOL    HW213350   2.406   1.503  10.160
 4155SOL     OW13351   2.848   0.796  10.538
 4155SOL    HW113352   2.901   0.771  10.615
 4155SOL    HW213353   2.763   0.756  10.555
 4156SOL     OW13354   1.896   0.543  10.428
 4156SOL    HW113355   1.975   0.524  10.378
 4156SOL    HW213356   1.926   0.548  10.519
 4157SOL     OW13357   2.673   0.574   9.664
 4157SOL    HW113358   2.677   0.502   9.601
 4157SOL    HW213359   2.599   0.627   9.635
 4158SOL     OW13360   3.503   0.601  10.497
 4158SOL    HW113361   3.494   0.542  10.572
 4158SOL    HW213362   3.590   0.583  10.463
 4159SOL     OW13363   2.126   1.559  11.054
 4159SOL    HW113364   2.092   1.617   0.022
 4159SOL    HW213365   2.102   1.471  11.083
 4160SOL     OW13366   2.561   0.458  10.575
 4160SOL    HW113367   2.513   0.382  10.543
 4160SOL    HW213368   2.560   0.519  10.501
 4161SOL     OW13369   2.804   1.681  10.759
 4161SOL    HW113370   2.762   1.649  10.679
 4161SOL    HW213371   2.792   1.776  10.757
 4162SOL     OW13372   2.328   0.493   9.495
 4162SOL    HW113373   2.386   0.566   9.516
 4162SOL    HW213374   2.242   0.534   9.485
 4163SOL     OW13375   2.015   1.138  10.780
 4163SOL    HW113376   2.009   1.082  10.858
 4163SOL    HW213377   2.028   1.077  10.708
 4164SOL     OW13378   3.188   1.053  10.538
 4164SOL    HW113379   3.215   0.988  10.474
 4164SOL    HW213380   3.117   1.101  10.496
 4165SOL     OW13381   3.172   0.857   9.617
 4165SOL    HW113382   3.096   0.827   9.667
 4165SOL    HW213383   3.147   0.843   9.525
 4166SOL     OW13384   3.634   1.746  10.461
 4166SOL    HW113385   3.692   1.772  10.389
 4166SOL    HW213386   3.608   1.656  10.440
 4167SOL     OW13387   3.104   1.734  10.425
 4167SOL    HW113388   3.185   1.753  10.380
 4167SOL    HW213389   3.107   1.640  10.442
 4168SOL     OW13390   1.947   1.266  10.322
 4168SOL    HW113391   1.934   1.279  10.417
 4168SOL    HW213392   1.872   1.213  10.295
 4169SOL     OW13393   3.580   0.130   9.805
 4169SOL    HW113394   3.653   0.136   9.744
 4169SOL    HW213395   3.604   0.057   9.863
 4170SOL     OW13396   3.252   1.568   9.794
 4170SOL    HW113397   3.313   1.599   9.726
 4170SOL    HW213398   3.204   1.646   9.821
 4171SOL     OW13399   3.140   0.927   9.983
 4171SOL    HW113400   3.213   0.864   9.986
 4171SOL    HW213401   3.174   0.999   9.930
 4172SOL     OW13402   2.682   1.273  10.739
 4172SOL    HW113403   2.651   1.307  10.823
 4172SOL    HW213404   2.611   1.294  10.678
 4173SOL     OW13405   2.536   1.617   9.463
 4173SOL    HW113406   2.544   1.628   9.368
 4173SOL    HW213407   2.481   1.540   9.474
 4174SOL     OW13408   3.488   1.720  10.699
 4174SOL    HW113409   3.540   1.734  10.620
 4174SOL    HW213410   3.473   1.808  10.734
 4175SOL     OW13411   3.701   0.155  10.277
 4175SOL    HW113412   3.732   0.079  10.228
 4175SOL    HW213413   3.614   0.173  10.240
 4176SOL     OW13414   2.128   0.324  10.029
 4176SOL    HW113415   2.042   0.358  10.001
 4176SOL    HW213416   2.120   0.314  10.124
 4177SOL     OW13417   3.068   1.607   9.341
 4177SOL    HW113418   3.060   1.516   9.368
 4177SOL    HW213419   3.003   1.618   9.272
 4178SOL     OW13420   2.687   1.005  10.686
 4178SOL    HW113421   2.728   0.999  10.599
 4178SOL    HW213422   2.688   1.099  10.706
 4179SOL     OW13423   2.778   0.910   9.600
 4179SOL    HW113424   2.840   0.942   9.534
 4179SOL    HW213425   2.824   0.840   9.644
 4180SOL     OW13426   3.356   1.624   9.352
 4180SOL    HW113427   3.261   1.620   9.340
 4180SOL    HW213428   3.391   1.631   9.264
 4181SOL     OW13429   2.231   1.301  10.806
 4181SOL    HW113430   2.219   1.378  10.750
 4181SOL    HW213431   2.155   1.246  10.787
 4182SOL     OW13432   3.475   1.282  10.593
 4182SOL    HW113433   3.531   1.270  10.670
 4182SOL    HW213434   3.418   1.355  10.616
 4183SOL     OW13435   2.912   1.106  10.016
 4183SOL    HW113436   2.841   1.055  10.055
 4183SOL    HW213437   2.973   1.041   9.983
 4184SOL     OW13438   2.869   0.243  10.310
 4184SOL    HW113439   2.875   0.217  10.219
 4184SOL    HW213440   2.862   0.160  10.358
 4185SOL     OW13441   2.463   1.490   9.791
 4185SOL    HW113442   2.504   1.439   9.722
 4185SOL    HW213443   2.401   1.546   9.745
 4186SOL     OW13444   3.580   0.394  10.689
 4186SOL    HW113445   3.652   0.457  10.689
 4186SOL    HW213446   3.609   0.324  10.630
 4187SOL     OW13447   2.121   1.347   9.598
 4187SOL    HW113448   2.027   1.344   9.576
 4187SOL    HW213449   2.123   1.384   9.686
 4188SOL     OW13450   1.976   1.009  11.019
 4188SOL    HW113451   1.906   0.998  11.083
 4188SOL    HW213452   2.055   0.981  11.065
 4189SOL     OW13453   2.516   0.187  10.808
 4189SOL    HW113454   2.594   0.167  10.757
 4189SOL    HW213455   2.550   0.223  10.891
 4190SOL     OW13456   1.943   0.341   9.357
 4190SOL    HW113457   1.871   0.289   9.320
 4190SOL    HW213458   1.958   0.410   9.292
 4191SOL     OW13459   3.292   0.849  10.710
 4191SOL    HW113460   3.244   0.916  10.662
 4191SOL    HW213461   3.382   0.858  10.679
 4192SOL     OW13462   1.927   0.181   9.631
 4192SOL    HW113463   1.925   0.248   9.563
 4192SOL    HW213464   2.002   0.126   9.609
 4193SOL     OW13465   3.041   1.341   9.427
 4193SOL    HW113466   2.951   1.311   9.429
 4193SOL    HW213467   3.070   1.340   9.518
 4194SOL     OW13468   2.481   0.830  10.743
 4194SOL    HW113469   2.537   0.907  10.728
 4194SOL    HW213470   2.543   0.757  10.751
 4195SOL     OW13471   3.346   1.776  10.287
 4195SOL    HW113472   3.372   1.833  10.215
 4195SOL    HW213473   3.427   1.757  10.334
 4196SOL     OW13474   2.576   0.565  11.018
 4196SOL    HW113475   2.610   0.637  11.069
 4196SOL    HW213476   2.629   0.489  11.044
 4197SOL     OW13477   2.244   1.731  10.872
 4197SOL    HW113478   2.159   1.773  10.856
 4197SOL    HW213479   2.224   1.658  10.930
 4198SOL     OW13480   3.534   0.882  10.567
 4198SOL    HW113481   3.524   0.797  10.524
 4198SOL    HW213482   3.525   0.946  10.496
 4199SOL     OW13483   3.080   0.328   9.758
 4199SOL    HW113484   3.145   0.259   9.748
 4199SOL    HW213485   3.107   0.376   9.837
 4200SOL     OW13486   2.450   0.739   9.980
 4200SOL    HW113487   2.492   0.824   9.962
 4200SOL    HW213488   2.382   0.732   9.913
 4201SOL     OW13489   3.616   0.314  10.950
 4201SOL    HW113490   3.597   0.354  10.865
 4201SOL    HW213491   3.537   0.331  11.002
 4202SOL     OW13492   3.611   0.935  10.825
 4202SOL    HW113493   3.604   1.029  10.839
 4202SOL    HW213494   3.593   0.923  10.732
 4203SOL     OW13495   2.725   1.368   9.342
 4203SOL    HW113496   2.685   1.395   9.424
 4203SOL    HW213497   2.743   1.451   9.296
 4204SOL     OW13498   2.521   1.798  10.244
 4204SOL    HW113499   2.517   1.887  10.279
 4204SOL    HW213500   2.614   1.776  10.246
 4205SOL     OW13501   2.728   0.966  10.166
 4205SOL    HW113502   2.778   0.894  10.205
 4205SOL    HW213503   2.695   1.016  10.241
 4206SOL     OW13504   2.942   0.988   9.399
 4206SOL    HW113505   2.920   1.038   9.320
 4206SOL    HW213506   3.017   0.935   9.373
 4207SOL     OW13507   3.718   1.556  10.155
 4207SOL    HW113508   3.640   1.544  10.100
 4207SOL    HW213509   3.711   1.488  10.222
 4208SOL     OW13510   1.948   1.235   9.973
 4208SOL    HW113511   1.948   1.188  10.056
 4208SOL    HW213512   2.015   1.192   9.920
 4209SOL     OW13513   2.542   1.395  10.938
 4209SOL    HW113514   2.468   1.344  10.973
 4209SOL    HW213515   2.508   1.485  10.934
 4210SOL     OW13516   3.667   0.181  10.550
 4210SOL    HW113517   3.676   0.088  10.569
 4210SOL    HW213518   3.685   0.188  10.456
 4211SOL     OW13519   2.297   0.433   9.839
 4211SOL    HW113520   2.320   0.363   9.777
 4211SOL    HW213521   2.242   0.390   9.904
 4212SOL     OW13522   3.563   1.491  10.409
 4212SOL    HW113523   3.482   1.465  10.365
 4212SOL    HW213524   3.578   1.422  10.474
 4213SOL     OW13525   2.189   0.556  10.601
 4213SOL    HW113526   2.243   0.499  10.656
 4213SOL    HW213527   2.209   0.529  10.511
 4214SOL     OW13528   2.687   1.578   9.989
 4214SOL    HW113529   2.679   1.624   9.905
 4214SOL    HW213530   2.610   1.521   9.993
 4215SOL     OW13531   3.293   0.215  10.429
 4215SOL    HW113532   3.333   0.147  10.483
 4215SOL    HW213533   3.244   0.269  10.490
 4216SOL     OW13534   2.858   0.011  10.459
 4216SOL    HW113535   2.814   4.427  10.449
 4216SOL    HW213536   2.950   4.488  10.472
 4217SOL     OW13537   2.633   1.332   9.623
 4217SOL    HW113538   2.600   1.243   9.629
 4217SOL    HW213539   2.716   1.330   9.671
 4218SOL     OW13540   2.483   1.555  10.593
 4218SOL    HW113541   2.483   1.636  10.644
 4218SOL    HW213542   2.571   1.550  10.555
 4219SOL     OW13543   3.204   0.053   9.462
 4219SOL    HW113544   3.243   4.478   9.418
 4219SOL    HW213545   3.128   0.017   9.509
 4220SOL     OW13546   3.176   0.463   9.989
 4220SOL    HW113547   3.115   0.536   9.990
 4220SOL    HW213548   3.164   0.420  10.074
 4221SOL     OW13549   3.447   0.201  10.177
 4221SOL    HW113550   3.387   0.215  10.250
 4221SOL    HW213551   3.450   0.285  10.131
 4222SOL     OW13552   1.906   1.072   9.615
 4222SOL    HW113553   2.000   1.063   9.598
 4222SOL    HW213554   1.877   0.984   9.638
 4223SOL     OW13555   2.744   1.650   9.654
 4223SOL    HW113556   2.673   1.632   9.593
 4223SOL    HW213557   2.713   1.727   9.704
 4224SOL     OW13558   2.046   2.526   0.080
 4224SOL    HW113559   1.985   2.502   0.149
 4224SOL    HW213560   2.087   2.444   0.054
 4225SOL     OW13561   1.845   2.263   0.639
 4225SOL    HW113562   1.762   2.282   0.683
 4225SOL    HW213563   1.835   2.172   0.609
 4226SOL     OW13564   2.428   3.146   1.174
 4226SOL    HW113565   2.341   3.149   1.134
 4226SOL    HW213566   2.443   3.235   1.207
 4227SOL     OW13567   3.421   3.373   0.706
 4227SOL    HW113568   3.377   3.354   0.789
 4227SOL    HW213569   3.350   3.377   0.642
 4228SOL     OW13570   2.990   2.562   0.701
 4228SOL    HW113571   3.041   2.643   0.690
 4228SOL    HW213572   2.945   2.573   0.784
 4229SOL     OW13573   3.635   2.465   0.220
 4229SOL    HW113574   3.585   2.465   0.138
 4229SOL    HW213575   3.596   2.394   0.271
 4230SOL     OW13576   2.620   3.005   1.041
 4230SOL    HW113577   2.549   3.039   1.095
 4230SOL    HW213578   2.654   3.081   0.995
 4231SOL     OW13579   2.726   2.643   1.819
 4231SOL    HW113580   2.719   2.714   1.883
 4231SOL    HW213581   2.752   2.687   1.737
 4232SOL     OW13582   2.559   2.901   0.651
 4232SOL    HW113583   2.618   2.877   0.723
 4232SOL    HW213584   2.483   2.940   0.694
 4233SOL     OW13585   2.572   3.016   1.806
 4233SOL    HW113586   2.620   3.094   1.833
 4233SOL    HW213587   2.488   3.049   1.773
 4234SOL     OW13588   2.193   3.289   1.068
 4234SOL    HW113589   2.120   3.253   1.017
 4234SOL    HW213590   2.244   3.340   1.004
 4235SOL     OW13591   3.323   3.360   1.352
 4235SOL    HW113592   3.370   3.443   1.361
 4235SOL    HW213593   3.266   3.356   1.428
 4236SOL     OW13594   3.475   2.311   0.739
 4236SOL    HW113595   3.398   2.335   0.688
 4236SOL    HW213596   3.493   2.388   0.793
 4237SOL     OW13597   2.081   3.574   0.475
 4237SOL    HW113598   2.104   3.652   0.526
 4237SOL    HW213599   2.149   3.569   0.408
 4238SOL     OW13600   2.998   3.203   1.692
 4238SOL    HW113601   3.038   3.199   1.778
 4238SOL    HW213602   2.946   3.124   1.686
 4239SOL     OW13603   2.090   3.302   0.534
 4239SOL    HW113604   2.076   3.396   0.537
 4239SOL    HW213605   2.028   3.266   0.597
 4240SOL     OW13606   2.115   2.955   0.889
 4240SOL    HW113607   2.111   2.868   0.930
 4240SOL    HW213608   2.057   3.009   0.943
 4241SOL     OW13609   2.476   3.652   1.431
 4241SOL    HW113610   2.393   3.635   1.476
 4241SOL    HW213611   2.498   3.742   1.455
 4242SOL     OW13612   2.439   2.860   0.133
 4242SOL    HW113613   2.485   2.914   0.069
 4242SOL    HW213614   2.484   2.875   0.216
 4243SOL     OW13615   3.458   1.984   1.469
 4243SOL    HW113616   3.459   2.064   1.416
 4243SOL    HW213617   3.446   2.014   1.559
 4244SOL     OW13618   1.968   2.507   0.561
 4244SOL    HW113619   1.933   2.421   0.586
 4244SOL    HW213620   1.965   2.559   0.641
 4245SOL     OW13621   3.704   3.623   0.335
 4245SOL    HW113622   3.765   3.592   0.402
 4245SOL    HW213623   3.731   3.712   0.316
 4246SOL     OW13624   1.905   3.464   0.120
 4246SOL    HW113625   1.878   3.375   0.143
 4246SOL    HW213626   1.878   3.518   0.194
 4247SOL     OW13627   3.550   2.780   0.639
 4247SOL    HW113628   3.636   2.741   0.621
 4247SOL    HW213629   3.530   2.831   0.561
 4248SOL     OW13630   3.508   2.968   0.432
 4248SOL    HW113631   3.590   2.980   0.384
 4248SOL    HW213632   3.513   3.030   0.505
 4249SOL     OW13633   1.998   2.606   1.579
 4249SOL    HW113634   2.037   2.607   1.666
 4249SOL    HW213635   1.940   2.682   1.577
 4250SOL     OW13636   2.475   3.247   0.735
 4250SOL    HW113637   2.428   3.164   0.745
 4250SOL    HW213638   2.459   3.273   0.645
 4251SOL     OW13639   3.151   3.100   1.424
 4251SOL    HW113640   3.184   3.033   1.364
 4251SOL    HW213641   3.208   3.093   1.501
 4252SOL     OW13642   2.671   1.864   0.504
 4252SOL    HW113643   2.712   1.949   0.489
 4252SOL    HW213644   2.578   1.885   0.513
 4253SOL     OW13645   2.049   2.834   1.269
 4253SOL    HW113646   2.133   2.792   1.254
 4253SOL    HW213647   1.985   2.777   1.227
 4254SOL     OW13648   3.382   2.861   0.201
 4254SOL    HW113649   3.317   2.799   0.236
 4254SOL    HW213650   3.430   2.891   0.278
 4255SOL     OW13651   3.047   3.666   1.621
 4255SOL    HW113652   3.060   3.725   1.546
 4255SOL    HW213653   3.063   3.579   1.586
 4256SOL     OW13654   3.328   3.282   0.953
 4256SOL    HW113655   3.259   3.296   1.018
 4256SOL    HW213656   3.316   3.191   0.925
 4257SOL     OW13657   3.522   3.598   0.579
 4257SOL    HW113658   3.501   3.570   0.490
 4257SOL    HW213659   3.496   3.524   0.634
 4258SOL     OW13660   2.497   2.638   0.304
 4258SOL    HW113661   2.487   2.681   0.219
 4258SOL    HW213662   2.407   2.626   0.335
 4259SOL     OW13663   3.142   2.211   0.932
 4259SOL    HW113664   3.052   2.178   0.940
 4259SOL    HW213665   3.192   2.158   0.994
 4260SOL     OW13666   3.444   3.531   0.311
 4260SOL    HW113667   3.534   3.564   0.305
 4260SOL    HW213668   3.419   3.513   0.221
 4261SOL     OW13669   2.669   2.472   1.467
 4261SOL    HW113670   2.661   2.473   1.563
 4261SOL    HW213671   2.613   2.399   1.439
 4262SOL     OW13672   3.256   2.336   1.678
 4262SOL    HW113673   3.257   2.380   1.763
 4262SOL    HW213674   3.318   2.264   1.688
 4263SOL     OW13675   2.818   2.749   1.580
 4263SOL    HW113676   2.875   2.681   1.545
 4263SOL    HW213677   2.776   2.787   1.502
 4264SOL     OW13678   2.864   2.273   1.236
 4264SOL    HW113679   2.782   2.290   1.284
 4264SOL    HW213680   2.835   2.232   1.154
 4265SOL     OW13681   2.911   2.563   0.430
 4265SOL    HW113682   2.935   2.560   0.523
 4265SOL    HW213683   2.825   2.522   0.427
 4266SOL     OW13684   1.950   2.683   0.774
 4266SOL    HW113685   2.032   2.680   0.824
 4266SOL    HW213686   1.905   2.760   0.808
 4267SOL     OW13687   1.990   3.704   1.576
 4267SOL    HW113688   1.988   3.684   1.670
 4267SOL    HW213689   1.898   3.704   1.550
 4268SOL     OW13690   2.751   2.215   0.216
 4268SOL    HW113691   2.801   2.274   0.160
 4268SOL    HW213692   2.761   2.129   0.176
 4269SOL     OW13693   3.572   2.438   1.828
 4269SOL    HW113694   3.535   2.513   1.781
 4269SOL    HW213695   3.598   2.377   1.758
 4270SOL     OW13696   3.238   3.004   0.542
 4270SOL    HW113697   3.316   2.990   0.488
 4270SOL    HW213698   3.185   3.066   0.492
 4271SOL     OW13699   2.449   2.031   0.872
 4271SOL    HW113700   2.441   2.040   0.967
 4271SOL    HW213701   2.452   2.121   0.839
 4272SOL     OW13702   2.870   3.308   0.474
 4272SOL    HW113703   2.829   3.379   0.425
 4272SOL    HW213704   2.853   3.329   0.566
 4273SOL     OW13705   2.216   3.669   0.860
 4273SOL    HW113706   2.260   3.584   0.868
 4273SOL    HW213707   2.286   3.733   0.876
 4274SOL     OW13708   3.660   2.921   0.868
 4274SOL    HW113709   3.604   2.905   0.792
 4274SOL    HW213710   3.599   2.926   0.942
 4275SOL     OW13711   3.090   3.401   1.513
 4275SOL    HW113712   3.076   3.328   1.573
 4275SOL    HW213713   3.029   3.386   1.441
 4276SOL     OW13714   2.186   2.810   0.270
 4276SOL    HW113715   2.264   2.838   0.222
 4276SOL    HW213716   2.148   2.741   0.216
 4277SOL     OW13717   3.339   2.600   0.727
 4277SOL    HW113718   3.329   2.557   0.812
 4277SOL    HW213719   3.415   2.657   0.737
 4278SOL     OW13720   2.326   3.124   1.737
 4278SOL    HW113721   2.299   3.130   1.646
 4278SOL    HW213722   2.245   3.125   1.787
 4279SOL     OW13723   2.969   3.641   0.227
 4279SOL    HW113724   2.911   3.588   0.282
 4279SOL    HW213725   3.010   3.577   0.168
 4280SOL     OW13726   3.490   3.237   0.089
 4280SOL    HW113727   3.448   3.322   0.077
 4280SOL    HW213728   3.424   3.173   0.061
 4281SOL     OW13729   2.331   3.596   0.326
 4281SOL    HW113730   2.368   3.657   0.389
 4281SOL    HW213731   2.404   3.574   0.269
 4282SOL     OW13732   3.263   1.970   0.430
 4282SOL    HW113733   3.254   1.947   0.338
 4282SOL    HW213734   3.358   1.976   0.444
 4283SOL     OW13735   2.117   3.654   1.233
 4283SOL    HW113736   2.169   3.588   1.279
 4283SOL    HW213737   2.106   3.618   1.145
 4284SOL     OW13738   2.800   3.560   0.900
 4284SOL    HW113739   2.878   3.508   0.920
 4284SOL    HW213740   2.755   3.511   0.831
 4285SOL     OW13741   3.399   2.088   1.725
 4285SOL    HW113742   3.407   2.109   1.818
 4285SOL    HW213743   3.331   2.021   1.722
 4286SOL     OW13744   2.476   1.970   0.131
 4286SOL    HW113745   2.567   1.943   0.128
 4286SOL    HW213746   2.443   1.952   0.043
 4287SOL     OW13747   2.634   2.116   1.744
 4287SOL    HW113748   2.712   2.061   1.753
 4287SOL    HW213749   2.590   2.108   1.829
 4288SOL     OW13750   2.738   3.383   1.194
 4288SOL    HW113751   2.723   3.347   1.106
 4288SOL    HW213752   2.808   3.329   1.230
 4289SOL     OW13753   3.203   2.451   1.433
 4289SOL    HW113754   3.235   2.419   1.517
 4289SOL    HW213755   3.241   2.539   1.425
 4290SOL     OW13756   2.676   3.258   0.937
 4290SOL    HW113757   2.760   3.247   0.893
 4290SOL    HW213758   2.611   3.258   0.867
 4291SOL     OW13759   2.794   2.364   0.913
 4291SOL    HW113760   2.769   2.360   0.821
 4291SOL    HW213761   2.828   2.276   0.932
 4292SOL     OW13762   2.405   1.938   0.507
 4292SOL    HW113763   2.354   1.941   0.588
 4292SOL    HW213764   2.377   2.015   0.458
 4293SOL     OW13765   3.288   3.058   0.031
 4293SOL    HW113766   3.321   2.986   0.085
 4293SOL    HW213767   3.205   3.082   0.072
 4294SOL     OW13768   2.160   1.806   0.132
 4294SOL    HW113769   2.170   1.894   0.097
 4294SOL    HW213770   2.229   1.798   0.198
 4295SOL     OW13771   2.797   2.110   0.463
 4295SOL    HW113772   2.772   2.151   0.380
 4295SOL    HW213773   2.892   2.120   0.467
 4296SOL     OW13774   2.946   2.544   1.459
 4296SOL    HW113775   2.879   2.476   1.468
 4296SOL    HW213776   3.029   2.496   1.452
 4297SOL     OW13777   3.086   3.432   0.794
 4297SOL    HW113778   3.104   3.498   0.728
 4297SOL    HW213779   3.155   3.444   0.860
 4298SOL     OW13780   2.328   3.013   0.738
 4298SOL    HW113781   2.257   2.994   0.800
 4298SOL    HW213782   2.290   2.996   0.652
 4299SOL     OW13783   3.132   3.657   0.605
 4299SOL    HW113784   3.178   3.718   0.548
 4299SOL    HW213785   3.068   3.711   0.651
 4300SOL     OW13786   2.903   2.382   0.053
 4300SOL    HW113787   2.866   2.450  11.097
 4300SOL    HW213788   2.974   2.426   0.101
 4301SOL     OW13789   1.943   2.424   1.379
 4301SOL    HW113790   2.037   2.406   1.383
 4301SOL    HW213791   1.928   2.489   1.448
 4302SOL     OW13792   2.419   2.027   1.143
 4302SOL    HW113793   2.446   1.972   1.217
 4302SOL    HW213794   2.334   2.062   1.168
 4303SOL     OW13795   2.744   2.315   0.649
 4303SOL    HW113796   2.689   2.375   0.599
 4303SOL    HW213797   2.758   2.240   0.591
 4304SOL     OW13798   2.877   1.914   0.752
 4304SOL    HW113799   2.817   1.906   0.678
 4304SOL    HW213800   2.857   1.839   0.808
 4305SOL     OW13801   3.298   3.025   0.858
 4305SOL    HW113802   3.230   2.958   0.856
 4305SOL    HW213803   3.322   3.038   0.766
 4306SOL     OW13804   3.329   2.466   0.979
 4306SOL    HW113805   3.280   2.383   0.983
 4306SOL    HW213806   3.390   2.461   1.053
 4307SOL     OW13807   3.712   2.677   0.378
 4307SOL    HW113808   3.764   2.626   0.440
 4307SOL    HW213809   3.683   2.613   0.313
 4308SOL     OW13810   2.355   3.286   0.173
 4308SOL    HW113811   2.278   3.259   0.223
 4308SOL    HW213812   2.350   3.234   0.092
 4309SOL     OW13813   3.531   3.126   0.649
 4309SOL    HW113814   3.626   3.131   0.661
 4309SOL    HW213815   3.500   3.215   0.669
 4310SOL     OW13816   3.254   2.440   0.081
 4310SOL    HW113817   3.196   2.419   0.153
 4310SOL    HW213818   3.323   2.373   0.084
 4311SOL     OW13819   3.615   3.099   1.575
 4311SOL    HW113820   3.702   3.060   1.572
 4311SOL    HW213821   3.630   3.189   1.605
 4312SOL     OW13822   2.922   3.216   1.335
 4312SOL    HW113823   2.847   3.185   1.386
 4312SOL    HW213824   2.998   3.174   1.375
 4313SOL     OW13825   3.468   3.487   1.652
 4313SOL    HW113826   3.464   3.521   1.563
 4313SOL    HW213827   3.552   3.440   1.656
 4314SOL     OW13828   2.989   3.064   1.107
 4314SOL    HW113829   2.930   3.103   1.172
 4314SOL    HW213830   2.955   3.095   1.023
 4315SOL     OW13831   3.491   2.961   1.078
 4315SOL    HW113832   3.487   3.023   1.151
 4315SOL    HW213833   3.412   2.977   1.028
 4316SOL     OW13834   2.784   1.959   1.398
 4316SOL    HW113835   2.806   1.939   1.306
 4316SOL    HW213836   2.865   1.997   1.433
 4317SOL     OW13837   2.846   2.976   1.721
 4317SOL    HW113838   2.754   2.992   1.742
 4317SOL    HW213839   2.845   2.899   1.666
 4318SOL     OW13840   2.571   2.928   0.370
 4318SOL    HW113841   2.559   2.919   0.464
 4318SOL    HW213842   2.644   2.869   0.349
 4319SOL     OW13843   2.277   2.686   1.251
 4319SOL    HW113844   2.344   2.702   1.317
 4319SOL    HW213845   2.265   2.591   1.251
 4320SOL     OW13846   3.132   2.239   1.275
 4320SOL    HW113847   3.163   2.318   1.320
 4320SOL    HW213848   3.043   2.261   1.248
 4321SOL     OW13849   1.931   3.435   1.351
 4321SOL    HW113850   1.899   3.507   1.297
 4321SOL    HW213851   2.026   3.441   1.346
 4322SOL     OW13852   2.215   2.972   0.494
 4322SOL    HW113853   2.216   3.049   0.437
 4322SOL    HW213854   2.208   2.897   0.434
 4323SOL     OW13855   3.110   3.208   0.394
 4323SOL    HW113856   3.165   3.281   0.421
 4323SOL    HW213857   3.022   3.231   0.426
 4324SOL     OW13858   3.140   3.318   1.146
 4324SOL    HW113859   3.196   3.320   1.224
 4324SOL    HW213860   3.086   3.241   1.158
 4325SOL     OW13861   3.447   2.490   0.476
 4325SOL    HW113862   3.399   2.537   0.543
 4325SOL    HW213863   3.485   2.558   0.420
 4326SOL     OW13864   2.210   3.387   1.317
 4326SOL    HW113865   2.196   3.345   1.232
 4326SOL    HW213866   2.304   3.400   1.323
 4327SOL     OW13867   3.461   2.640   1.681
 4327SOL    HW113868   3.375   2.681   1.673
 4327SOL    HW213869   3.513   2.682   1.612
 4328SOL     OW13870   2.866   1.978   1.759
 4328SOL    HW113871   2.917   2.052   1.725
 4328SOL    HW213872   2.915   1.900   1.730
 4329SOL     OW13873   2.364   1.899   1.750
 4329SOL    HW113874   2.322   1.848   1.681
 4329SOL    HW213875   2.309   1.976   1.761
 4330SOL     OW13876   2.423   2.747   1.021
 4330SOL    HW113877   2.483   2.821   1.025
 4330SOL    HW213878   2.386   2.742   1.110
 4331SOL     OW13879   3.221   2.721   1.032
 4331SOL    HW113880   3.139   2.713   0.984
 4331SOL    HW213881   3.260   2.633   1.028
 4332SOL     OW13882   3.077   2.394   0.280
 4332SOL    HW113883   3.077   2.312   0.329
 4332SOL    HW213884   3.028   2.455   0.335
 4333SOL     OW13885   1.909   3.173   1.277
 4333SOL    HW113886   1.942   3.120   1.350
 4333SOL    HW213887   1.915   3.263   1.308
 4334SOL     OW13888   3.595   2.821   1.851
 4334SOL    HW113889   3.549   2.763   1.792
 4334SOL    HW213890   3.536   2.833   1.925
 4335SOL     OW13891   3.478   2.235   0.367
 4335SOL    HW113892   3.504   2.171   0.433
 4335SOL    HW213893   3.454   2.313   0.418
 4336SOL     OW13894   2.887   2.619   0.959
 4336SOL    HW113895   2.888   2.637   1.053
 4336SOL    HW213896   2.851   2.530   0.953
 4337SOL     OW13897   2.844   3.428   1.715
 4337SOL    HW113898   2.829   3.473   1.632
 4337SOL    HW213899   2.887   3.346   1.692
 4338SOL     OW13900   3.717   3.370   1.606
 4338SOL    HW113901   3.734   3.396   1.515
 4338SOL    HW213902   3.799   3.390   1.652
 4339SOL     OW13903   2.222   2.768   1.798
 4339SOL    HW113904   2.293   2.799   1.855
 4339SOL    HW213905   2.267   2.726   1.725
 4340SOL     OW13906   3.400   2.148   0.117
 4340SOL    HW113907   3.338   2.077   0.133
 4340SOL    HW213908   3.430   2.174   0.204
 4341SOL     OW13909   3.150   2.685   0.032
 4341SOL    HW113910   3.195   2.602   0.044
 4341SOL    HW213911   3.187   2.721  11.051
 4342SOL     OW13912   2.927   3.197   0.853
 4342SOL    HW113913   2.930   3.124   0.791
 4342SOL    HW213914   2.989   3.261   0.818
 4343SOL     OW13915   2.169   2.678   0.943
 4343SOL    HW113916   2.260   2.707   0.947
 4343SOL    HW213917   2.166   2.603   1.003
 4344SOL     OW13918   2.996   2.242   1.678
 4344SOL    HW113919   2.950   2.294   1.744
 4344SOL    HW213920   3.084   2.278   1.676
 4345SOL     OW13921   3.023   2.067   1.469
 4345SOL    HW113922   3.014   2.129   1.541
 4345SOL    HW213923   3.064   2.117   1.399
 4346SOL     OW13924   1.869   3.190   0.195
 4346SOL    HW113925   1.782   3.202   0.157
 4346SOL    HW213926   1.869   3.099   0.225
 4347SOL     OW13927   1.952   3.650   0.938
 4347SOL    HW113928   1.922   3.571   0.894
 4347SOL    HW213929   2.042   3.662   0.906
 4348SOL     OW13930   2.360   3.435   0.906
 4348SOL    HW113931   2.429   3.497   0.930
 4348SOL    HW213932   2.404   3.371   0.850
 4349SOL     OW13933   2.853   2.658   1.227
 4349SOL    HW113934   2.907   2.631   1.301
 4349SOL    HW213935   2.764   2.629   1.250
 4350SOL     OW13936   1.900   2.418   1.113
 4350SOL    HW113937   1.963   2.356   1.076
 4350SOL    HW213938   1.919   2.419   1.206
 4351SOL     OW13939   3.238   2.803   1.659
 4351SOL    HW113940   3.259   2.896   1.658
 4351SOL    HW213941   3.237   2.778   1.566
 4352SOL     OW13942   3.505   2.463   1.188
 4352SOL    HW113943   3.494   2.403   1.262
 4352SOL    HW213944   3.591   2.443   1.153
 4353SOL     OW13945   2.109   3.414   1.730
 4353SOL    HW113946   2.083   3.479   1.796
 4353SOL    HW213947   2.107   3.330   1.776
 4354SOL     OW13948   2.791   3.541   1.467
 4354SOL    HW113949   2.765   3.509   1.381
 4354SOL    HW213950   2.789   3.636   1.458
 4355SOL     OW13951   2.009   3.003   1.474
 4355SOL    HW113952   2.011   2.948   1.553
 4355SOL    HW213953   2.024   2.942   1.402
 4356SOL     OW13954   3.190   2.910   1.224
 4356SOL    HW113955   3.214   2.847   1.157
 4356SOL    HW213956   3.118   2.961   1.186
 4357SOL     OW13957   3.170   2.716   0.309
 4357SOL    HW113958   3.093   2.685   0.357
 4357SOL    HW213959   3.149   2.701   0.217
 4358SOL     OW13960   3.632   3.608   1.150
 4358SOL    HW113961   3.692   3.634   1.079
 4358SOL    HW213962   3.608   3.518   1.128
 4359SOL     OW13963   3.104   3.595   1.116
 4359SOL    HW113964   3.185   3.615   1.069
 4359SOL    HW213965   3.108   3.501   1.133
 4360SOL     OW13966   1.945   3.128   1.013
 4360SOL    HW113967   1.931   3.140   1.107
 4360SOL    HW213968   1.871   3.075   0.985
 4361SOL     OW13969   2.539   3.526   1.726
 4361SOL    HW113970   2.487   3.606   1.723
 4361SOL    HW213971   2.603   3.537   1.655
 4362SOL     OW13972   2.777   1.956   0.109
 4362SOL    HW113973   2.828   1.922   0.036
 4362SOL    HW213974   2.814   1.913   0.186
 4363SOL     OW13975   3.580   2.006   0.511
 4363SOL    HW113976   3.653   1.992   0.451
 4363SOL    HW213977   3.565   1.920   0.551
 4364SOL     OW13978   3.252   3.430   0.484
 4364SOL    HW113979   3.313   3.461   0.417
 4364SOL    HW213980   3.205   3.509   0.512
 4365SOL     OW13981   1.998   3.658   1.843
 4365SOL    HW113982   1.947   3.593   1.892
 4365SOL    HW213983   2.045   3.707   1.910
 4366SOL     OW13984   3.140   2.786   0.671
 4366SOL    HW113985   3.213   2.725   0.676
 4366SOL    HW213986   3.173   2.860   0.619
 4367SOL     OW13987   2.678   3.135   1.431
 4367SOL    HW113988   2.651   3.174   1.514
 4367SOL    HW213989   2.609   3.159   1.370
 4368SOL     OW13990   2.537   3.482   0.167
 4368SOL    HW113991   2.546   3.491   0.072
 4368SOL    HW213992   2.479   3.406   0.177
 4369SOL     OW13993   3.492   3.588   1.392
 4369SOL    HW113994   3.540   3.596   1.309
 4369SOL    HW213995   3.479   3.679   1.420
 4370SOL     OW13996   3.702   2.035   0.968
 4370SOL    HW113997   3.731   1.949   0.939
 4370SOL    HW213998   3.616   2.046   0.928
 4371SOL     OW13999   3.084   3.465   0.051
 4371SOL    HW114000   3.071   3.373   0.072
 4371SOL    HW214001   3.018   3.484  11.084
 4372SOL     OW14002   2.696   2.873   1.369
 4372SOL    HW114003   2.735   2.873   1.282
 4372SOL    HW214004   2.692   2.965   1.394
 4373SOL     OW14005   2.785   2.780   0.288
 4373SOL    HW114006   2.853   2.816   0.231
 4373SOL    HW214007   2.828   2.711   0.336
 4374SOL     OW14008   3.361   3.484   0.046
 4374SOL    HW114009   3.266   3.480   0.042
 4374SOL    HW214010   3.389   3.497  11.055
 4375SOL     OW14011   2.231   3.164   1.492
 4375SOL    HW114012   2.218   3.241   1.437
 4375SOL    HW214013   2.154   3.110   1.476
 4376SOL     OW14014   3.473   3.145   1.281
 4376SOL    HW114015   3.533   3.136   1.355
 4376SOL    HW214016   3.413   3.215   1.306
 4377SOL     OW14017   2.913   2.968   0.706
 4377SOL    HW114018   2.842   2.917   0.745
 4377SOL    HW214019   2.974   2.903   0.672
 4378SOL     OW14020   2.883   2.100   0.967
 4378SOL    HW114021   2.877   2.053   0.884
 4378SOL    HW214022   2.878   2.032   1.034
 4379SOL     OW14023   2.464   3.352   0.483
 4379SOL    HW114024   2.504   3.300   0.413
 4379SOL    HW214025   2.396   3.404   0.438
 4380SOL     OW14026   3.582   2.254   1.380
 4380SOL    HW114027   3.654   2.317   1.378
 4380SOL    HW214028   3.612   2.182   1.324
 4381SOL     OW14029   2.127   3.199   0.290
 4381SOL    HW114030   2.039   3.203   0.253
 4381SOL    HW214031   2.118   3.240   0.376
 4382SOL     OW14032   1.975   2.881   1.721
 4382SOL    HW114033   1.898   2.858   1.772
 4382SOL    HW214034   2.048   2.840   1.769
 4383SOL     OW14035   2.543   2.052   1.487
 4383SOL    HW114036   2.630   2.026   1.456
 4383SOL    HW214037   2.558   2.083   1.577
 4384SOL     OW14038   1.887   2.266   0.063
 4384SOL    HW114039   1.826   2.200   0.029
 4384SOL    HW214040   1.944   2.287  11.089
 4385SOL     OW14041   3.293   2.721   1.401
 4385SOL    HW114042   3.245   2.781   1.345
 4385SOL    HW214043   3.383   2.723   1.368
 4386SOL     OW14044   3.043   3.204   0.122
 4386SOL    HW114045   2.950   3.182   0.117
 4386SOL    HW214046   3.065   3.196   0.215
 4387SOL     OW14047   2.491   2.709   1.424
 4387SOL    HW114048   2.548   2.785   1.411
 4387SOL    HW214049   2.550   2.638   1.447
 4388SOL     OW14050   3.346   3.637   0.977
 4388SOL    HW114051   3.371   3.695   0.904
 4388SOL    HW214052   3.428   3.620   1.023
 4389SOL     OW14053   3.332   3.064   1.633
 4389SOL    HW114054   3.320   3.077   1.727
 4389SOL    HW214055   3.425   3.077   1.618
 4390SOL     OW14056   2.243   3.601   1.564
 4390SOL    HW114057   2.158   3.642   1.550
 4390SOL    HW214058   2.224   3.517   1.606
 4391SOL     OW14059   3.532   2.744   1.256
 4391SOL    HW114060   3.526   2.658   1.213
 4391SOL    HW214061   3.524   2.807   1.184
 4392SOL     OW14062   3.078   2.179   0.460
 4392SOL    HW114063   3.143   2.110   0.449
 4392SOL    HW214064   3.108   2.228   0.537
 4393SOL     OW14065   2.524   2.640   0.617
 4393SOL    HW114066   2.544   2.734   0.622
 4393SOL    HW214067   2.430   2.636   0.602
 4394SOL     OW14068   3.626   2.222   1.649
 4394SOL    HW114069   3.609   2.237   1.556
 4394SOL    HW214070   3.555   2.166   1.679
 4395SOL     OW14071   3.606   2.796   1.513
 4395SOL    HW114072   3.606   2.890   1.525
 4395SOL    HW214073   3.591   2.784   1.419
 4396SOL     OW14074   2.760   3.219   0.063
 4396SOL    HW114075   2.691   3.221   0.129
 4396SOL    HW214076   2.752   3.302   0.017
 4397SOL     OW14077   2.522   3.655   0.947
 4397SOL    HW114078   2.501   3.745   0.923
 4397SOL    HW214079   2.617   3.649   0.939
 4398SOL     OW14080   2.729   2.830   0.856
 4398SOL    HW114081   2.774   2.754   0.893
 4398SOL    HW214082   2.697   2.878   0.932
 4399SOL     OW14083   2.945   2.854   0.085
 4399SOL    HW114084   2.920   2.888  11.099
 4399SOL    HW214085   3.020   2.797   0.067
 4400SOL     OW14086   3.718   3.418   0.846
 4400SOL    HW114087   3.641   3.406   0.789
 4400SOL    HW214088   3.710   3.349   0.911
 4401SOL     OW14089   2.087   3.166   1.856
 4401SOL    HW114090   2.017   3.108   1.826
 4401SOL    HW214091   2.068   3.180   1.949
 4402SOL     OW14092   1.944   3.098   0.665
 4402SOL    HW114093   1.947   3.047   0.746
 4402SOL    HW214094   2.014   3.060   0.611
 4403SOL     OW14095   2.541   3.264   1.626
 4403SOL    HW114096   2.461   3.221   1.656
 4403SOL    HW214097   2.537   3.352   1.663
 4404SOL     OW14098   3.675   2.047   1.238
 4404SOL    HW114099   3.685   1.953   1.253
 4404SOL    HW214100   3.685   2.057   1.144
 4405SOL     OW14101   3.562   3.353   1.100
 4405SOL    HW114102   3.482   3.328   1.054
 4405SOL    HW214103   3.576   3.283   1.164
 4406SOL     OW14104   2.687   3.440   0.679
 4406SOL    HW114105   2.678   3.487   0.596
 4406SOL    HW214106   2.610   3.384   0.683
 4407SOL     OW14107   3.295   2.086   1.118
 4407SOL    HW114108   3.321   2.007   1.165
 4407SOL    HW214109   3.243   2.135   1.182
 4408SOL     OW14110   2.871   1.881   1.145
 4408SOL    HW114111   2.816   1.814   1.106
 4408SOL    HW214112   2.959   1.843   1.146
 4409SOL     OW14113   2.630   3.192   0.314
 4409SOL    HW114114   2.600   3.102   0.325
 4409SOL    HW214115   2.715   3.195   0.358
 4410SOL     OW14116   2.482   3.420   1.285
 4410SOL    HW114117   2.485   3.501   1.335
 4410SOL    HW214118   2.569   3.412   1.246
 4411SOL     OW14119   3.213   1.916   0.164
 4411SOL    HW114120   3.235   1.866   0.085
 4411SOL    HW214121   3.126   1.884   0.189
 4412SOL     OW14122   3.159   2.322   0.682
 4412SOL    HW114123   3.105   2.401   0.690
 4412SOL    HW214124   3.156   2.282   0.769
 4413SOL     OW14125   3.449   2.066   0.877
 4413SOL    HW114126   3.386   2.085   0.946
 4413SOL    HW214127   3.449   2.145   0.822
 4414SOL     OW14128   1.904   2.934   0.301
 4414SOL    HW114129   1.999   2.929   0.297
 4414SOL    HW214130   1.876   2.846   0.327
 4415SOL     OW14131   2.745   3.514   0.348
 4415SOL    HW114132   2.674   3.493   0.287
 4415SOL    HW214133   2.713   3.589   0.398
 4416SOL     OW14134   2.074   2.518   1.982
 4416SOL    HW114135   1.985   2.492   2.007
 4416SOL    HW214136   2.103   2.449   1.922
 4417SOL     OW14137   2.428   3.146   3.035
 4417SOL    HW114138   2.340   3.150   2.997
 4417SOL    HW214139   2.443   3.234   3.069
 4418SOL     OW14140   3.421   3.373   2.568
 4418SOL    HW114141   3.377   3.355   2.651
 4418SOL    HW214142   3.350   3.378   2.504
 4419SOL     OW14143   2.992   2.561   2.564
 4419SOL    HW114144   3.042   2.641   2.550
 4419SOL    HW214145   2.949   2.575   2.649
 4420SOL     OW14146   3.628   2.468   2.092
 4420SOL    HW114147   3.608   2.460   1.998
 4420SOL    HW214148   3.592   2.389   2.131
 4421SOL     OW14149   2.618   3.005   2.900
 4421SOL    HW114150   2.549   3.040   2.957
 4421SOL    HW214151   2.654   3.082   2.856
 4422SOL     OW14152   2.734   2.644   3.685
 4422SOL    HW114153   2.711   2.716   3.744
 4422SOL    HW214154   2.754   2.687   3.602
 4423SOL     OW14155   2.558   2.891   2.509
 4423SOL    HW114156   2.619   2.869   2.579
 4423SOL    HW214157   2.484   2.934   2.552
 4424SOL     OW14158   2.572   3.015   3.669
 4424SOL    HW114159   2.619   3.093   3.696
 4424SOL    HW214160   2.488   3.047   3.637
 4425SOL     OW14161   2.193   3.289   2.930
 4425SOL    HW114162   2.120   3.253   2.879
 4425SOL    HW214163   2.244   3.340   2.866
 4426SOL     OW14164   3.323   3.360   3.214
 4426SOL    HW114165   3.370   3.443   3.223
 4426SOL    HW214166   3.266   3.356   3.290
 4427SOL     OW14167   3.475   2.311   2.602
 4427SOL    HW114168   3.399   2.336   2.548
 4427SOL    HW214169   3.493   2.389   2.654
 4428SOL     OW14170   2.082   3.575   2.336
 4428SOL    HW114171   2.104   3.652   2.388
 4428SOL    HW214172   2.153   3.569   2.272
 4429SOL     OW14173   2.997   3.203   3.554
 4429SOL    HW114174   3.038   3.199   3.640
 4429SOL    HW214175   2.945   3.123   3.548
 4430SOL     OW14176   2.092   3.302   2.397
 4430SOL    HW114177   2.076   3.396   2.401
 4430SOL    HW214178   2.030   3.264   2.459
 4431SOL     OW14179   2.117   2.955   2.751
 4431SOL    HW114180   2.113   2.869   2.792
 4431SOL    HW214181   2.058   3.009   2.805
 4432SOL     OW14182   2.476   3.652   3.293
 4432SOL    HW114183   2.393   3.635   3.338
 4432SOL    HW214184   2.498   3.742   3.317
 4433SOL     OW14185   2.443   2.853   1.986
 4433SOL    HW114186   2.490   2.903   1.919
 4433SOL    HW214187   2.484   2.880   2.069
 4434SOL     OW14188   3.459   1.984   3.331
 4434SOL    HW114189   3.459   2.064   3.279
 4434SOL    HW214190   3.445   2.014   3.421
 4435SOL     OW14191   1.974   2.512   2.422
 4435SOL    HW114192   1.932   2.431   2.451
 4435SOL    HW214193   1.974   2.568   2.499
 4436SOL     OW14194   3.704   3.622   2.198
 4436SOL    HW114195   3.765   3.593   2.266
 4436SOL    HW214196   3.729   3.713   2.179
 4437SOL     OW14197   1.893   3.458   1.986
 4437SOL    HW114198   1.874   3.366   2.006
 4437SOL    HW214199   1.869   3.505   2.066
 4438SOL     OW14200   3.551   2.781   2.501
 4438SOL    HW114201   3.636   2.740   2.483
 4438SOL    HW214202   3.531   2.831   2.422
 4439SOL     OW14203   3.507   2.970   2.291
 4439SOL    HW114204   3.593   2.977   2.249
 4439SOL    HW214205   3.512   3.030   2.365
 4440SOL     OW14206   1.979   2.597   3.446
 4440SOL    HW114207   2.068   2.618   3.474
 4440SOL    HW214208   1.930   2.679   3.458
 4441SOL     OW14209   2.475   3.246   2.598
 4441SOL    HW114210   2.428   3.163   2.607
 4441SOL    HW214211   2.459   3.272   2.507
 4442SOL     OW14212   3.151   3.100   3.286
 4442SOL    HW114213   3.184   3.033   3.226
 4442SOL    HW214214   3.208   3.093   3.363
 4443SOL     OW14215   2.673   1.861   2.368
 4443SOL    HW114216   2.714   1.946   2.350
 4443SOL    HW214217   2.580   1.881   2.376
 4444SOL     OW14218   2.039   2.839   3.129
 4444SOL    HW114219   2.126   2.803   3.110
 4444SOL    HW214220   1.979   2.777   3.089
 4445SOL     OW14221   3.394   2.854   2.059
 4445SOL    HW114222   3.324   2.796   2.090
 4445SOL    HW214223   3.433   2.888   2.139
 4446SOL     OW14224   3.047   3.666   3.483
 4446SOL    HW114225   3.060   3.725   3.408
 4446SOL    HW214226   3.063   3.579   3.448
 4447SOL     OW14227   3.328   3.282   2.815
 4447SOL    HW114228   3.260   3.296   2.880
 4447SOL    HW214229   3.316   3.191   2.787
 4448SOL     OW14230   3.522   3.597   2.440
 4448SOL    HW114231   3.500   3.569   2.351
 4448SOL    HW214232   3.497   3.524   2.496
 4449SOL     OW14233   2.524   2.636   2.146
 4449SOL    HW114234   2.517   2.689   2.067
 4449SOL    HW214235   2.439   2.647   2.190
 4450SOL     OW14236   3.141   2.211   2.794
 4450SOL    HW114237   3.052   2.178   2.802
 4450SOL    HW214238   3.192   2.159   2.856
 4451SOL     OW14239   3.443   3.531   2.171
 4451SOL    HW114240   3.533   3.564   2.165
 4451SOL    HW214241   3.418   3.514   2.080
 4452SOL     OW14242   3.257   2.336   3.539
 4452SOL    HW114243   3.258   2.380   3.624
 4452SOL    HW214244   3.317   2.263   3.550
 4453SOL     OW14245   2.819   2.748   3.439
 4453SOL    HW114246   2.873   2.677   3.404
 4453SOL    HW214247   2.776   2.786   3.362
 4454SOL     OW14248   2.858   2.273   3.098
 4454SOL    HW114249   2.774   2.295   3.138
 4454SOL    HW214250   2.835   2.228   3.017
 4455SOL     OW14251   2.919   2.565   2.289
 4455SOL    HW114252   2.933   2.558   2.384
 4455SOL    HW214253   2.838   2.516   2.273
 4456SOL     OW14254   1.953   2.684   2.634
 4456SOL    HW114255   2.034   2.681   2.685
 4456SOL    HW214256   1.905   2.759   2.670
 4457SOL     OW14257   1.990   3.704   3.438
 4457SOL    HW114258   1.989   3.684   3.532
 4457SOL    HW214259   1.898   3.704   3.413
 4458SOL     OW14260   2.752   2.210   2.056
 4458SOL    HW114261   2.795   2.269   1.994
 4458SOL    HW214262   2.763   2.123   2.018
 4459SOL     OW14263   3.573   2.439   3.690
 4459SOL    HW114264   3.535   2.513   3.643
 4459SOL    HW214265   3.598   2.377   3.621
 4460SOL     OW14266   3.238   3.004   2.404
 4460SOL    HW114267   3.316   2.991   2.351
 4460SOL    HW214268   3.185   3.066   2.353
 4461SOL     OW14269   2.870   3.307   2.335
 4461SOL    HW114270   2.830   3.379   2.286
 4461SOL    HW214271   2.854   3.329   2.427
 4462SOL     OW14272   2.216   3.669   2.721
 4462SOL    HW114273   2.260   3.584   2.730
 4462SOL    HW214274   2.285   3.734   2.739
 4463SOL     OW14275   3.660   2.922   2.730
 4463SOL    HW114276   3.604   2.904   2.654
 4463SOL    HW214277   3.599   2.927   2.803
 4464SOL     OW14278   3.090   3.401   3.375
 4464SOL    HW114279   3.076   3.328   3.435
 4464SOL    HW214280   3.028   3.386   3.303
 4465SOL     OW14281   2.190   2.807   2.114
 4465SOL    HW114282   2.267   2.831   2.063
 4465SOL    HW214283   2.152   2.732   2.066
 4466SOL     OW14284   3.339   2.602   2.589
 4466SOL    HW114285   3.328   2.557   2.674
 4466SOL    HW214286   3.416   2.657   2.601
 4467SOL     OW14287   2.327   3.125   3.599
 4467SOL    HW114288   2.299   3.131   3.508
 4467SOL    HW214289   2.246   3.123   3.649
 4468SOL     OW14290   2.983   3.640   2.093
 4468SOL    HW114291   2.911   3.597   2.140
 4468SOL    HW214292   3.005   3.579   2.023
 4469SOL     OW14293   3.491   3.241   1.949
 4469SOL    HW114294   3.450   3.326   1.934
 4469SOL    HW214295   3.422   3.178   1.930
 4470SOL     OW14296   2.329   3.600   2.183
 4470SOL    HW114297   2.369   3.657   2.248
 4470SOL    HW214298   2.401   3.571   2.128
 4471SOL     OW14299   3.263   1.970   2.293
 4471SOL    HW114300   3.252   1.945   2.201
 4471SOL    HW214301   3.358   1.976   2.305
 4472SOL     OW14302   2.117   3.654   3.095
 4472SOL    HW114303   2.169   3.588   3.142
 4472SOL    HW214304   2.106   3.617   3.007
 4473SOL     OW14305   2.800   3.560   2.762
 4473SOL    HW114306   2.878   3.508   2.782
 4473SOL    HW214307   2.755   3.511   2.693
 4474SOL     OW14308   3.398   2.087   3.587
 4474SOL    HW114309   3.407   2.108   3.680
 4474SOL    HW214310   3.330   2.020   3.584
 4475SOL     OW14311   2.503   1.988   1.968
 4475SOL    HW114312   2.568   1.921   1.988
 4475SOL    HW214313   2.451   1.950   1.897
 4476SOL     OW14314   2.630   2.124   3.607
 4476SOL    HW114315   2.703   2.066   3.628
 4476SOL    HW214316   2.583   2.134   3.690
 4477SOL     OW14317   2.738   3.383   3.056
 4477SOL    HW114318   2.724   3.347   2.968
 4477SOL    HW214319   2.808   3.329   3.092
 4478SOL     OW14320   3.197   2.457   3.297
 4478SOL    HW114321   3.231   2.421   3.379
 4478SOL    HW214322   3.241   2.541   3.288
 4479SOL     OW14323   2.676   3.258   2.799
 4479SOL    HW114324   2.760   3.248   2.755
 4479SOL    HW214325   2.611   3.258   2.729
 4480SOL     OW14326   2.788   2.368   2.768
 4480SOL    HW114327   2.774   2.363   2.674
 4480SOL    HW214328   2.824   2.282   2.791
 4481SOL     OW14329   2.406   1.931   2.366
 4481SOL    HW114330   2.345   1.938   2.440
 4481SOL    HW214331   2.397   2.015   2.320
 4482SOL     OW14332   3.290   3.060   1.903
 4482SOL    HW114333   3.321   2.984   1.953
 4482SOL    HW214334   3.205   3.080   1.941
 4483SOL     OW14335   2.798   2.105   2.321
 4483SOL    HW114336   2.772   2.148   2.239
 4483SOL    HW214337   2.894   2.116   2.324
 4484SOL     OW14338   2.932   2.527   3.316
 4484SOL    HW114339   2.892   2.447   3.350
 4484SOL    HW214340   3.025   2.506   3.308
 4485SOL     OW14341   3.086   3.432   2.656
 4485SOL    HW114342   3.104   3.499   2.590
 4485SOL    HW214343   3.154   3.444   2.722
 4486SOL     OW14344   2.329   3.011   2.597
 4486SOL    HW114345   2.258   2.993   2.660
 4486SOL    HW214346   2.290   2.993   2.512
 4487SOL     OW14347   3.132   3.656   2.468
 4487SOL    HW114348   3.177   3.717   2.410
 4487SOL    HW214349   3.068   3.710   2.514
 4488SOL     OW14350   2.887   2.406   1.882
 4488SOL    HW114351   2.839   2.486   1.863
 4488SOL    HW214352   2.950   2.430   1.949
 4489SOL     OW14353   1.950   2.420   3.243
 4489SOL    HW114354   2.035   2.384   3.267
 4489SOL    HW214355   1.932   2.486   3.310
 4490SOL     OW14356   2.755   2.315   2.499
 4490SOL    HW114357   2.718   2.375   2.435
 4490SOL    HW214358   2.771   2.234   2.450
 4491SOL     OW14359   2.874   1.915   2.616
 4491SOL    HW114360   2.819   1.903   2.538
 4491SOL    HW214361   2.855   1.839   2.670
 4492SOL     OW14362   3.298   3.025   2.720
 4492SOL    HW114363   3.230   2.958   2.718
 4492SOL    HW214364   3.321   3.038   2.628
 4493SOL     OW14365   3.329   2.466   2.842
 4493SOL    HW114366   3.281   2.383   2.845
 4493SOL    HW214367   3.390   2.461   2.916
 4494SOL     OW14368   3.709   2.680   2.244
 4494SOL    HW114369   3.765   2.628   2.302
 4494SOL    HW214370   3.680   2.617   2.177
 4495SOL     OW14371   2.353   3.278   2.022
 4495SOL    HW114372   2.279   3.248   2.074
 4495SOL    HW214373   2.335   3.247   1.933
 4496SOL     OW14374   3.531   3.127   2.509
 4496SOL    HW114375   3.626   3.131   2.523
 4496SOL    HW214376   3.500   3.215   2.531
 4497SOL     OW14377   3.256   2.434   1.933
 4497SOL    HW114378   3.195   2.415   2.005
 4497SOL    HW214379   3.340   2.401   1.964
 4498SOL     OW14380   3.615   3.099   3.437
 4498SOL    HW114381   3.702   3.060   3.434
 4498SOL    HW214382   3.630   3.189   3.467
 4499SOL     OW14383   2.922   3.216   3.197
 4499SOL    HW114384   2.847   3.185   3.248
 4499SOL    HW214385   2.998   3.174   3.237
 4500SOL     OW14386   3.468   3.487   3.514
 4500SOL    HW114387   3.464   3.521   3.425
 4500SOL    HW214388   3.552   3.440   3.518
 4501SOL     OW14389   2.989   3.065   2.969
 4501SOL    HW114390   2.930   3.102   3.034
 4501SOL    HW214391   2.955   3.095   2.884
 4502SOL     OW14392   3.491   2.961   2.940
 4502SOL    HW114393   3.487   3.023   3.013
 4502SOL    HW214394   3.412   2.977   2.890
 4503SOL     OW14395   2.790   1.955   3.260
 4503SOL    HW114396   2.810   1.938   3.168
 4503SOL    HW214397   2.869   1.995   3.295
 4504SOL     OW14398   2.846   2.975   3.584
 4504SOL    HW114399   2.754   2.991   3.604
 4504SOL    HW214400   2.845   2.897   3.527
 4505SOL     OW14401   2.569   2.927   2.231
 4505SOL    HW114402   2.560   2.918   2.326
 4505SOL    HW214403   2.644   2.871   2.208
 4506SOL     OW14404   2.272   2.701   3.115
 4506SOL    HW114405   2.345   2.715   3.175
 4506SOL    HW214406   2.227   2.624   3.149
 4507SOL     OW14407   3.130   2.242   3.136
 4507SOL    HW114408   3.160   2.320   3.183
 4507SOL    HW214409   3.040   2.262   3.111
 4508SOL     OW14410   1.931   3.435   3.213
 4508SOL    HW114411   1.899   3.508   3.160
 4508SOL    HW214412   2.026   3.441   3.208
 4509SOL     OW14413   2.215   2.967   2.351
 4509SOL    HW114414   2.220   3.045   2.297
 4509SOL    HW214415   2.211   2.895   2.288
 4510SOL     OW14416   3.110   3.210   2.251
 4510SOL    HW114417   3.166   3.282   2.282
 4510SOL    HW214418   3.023   3.231   2.285
 4511SOL     OW14419   3.140   3.318   3.008
 4511SOL    HW114420   3.196   3.320   3.086
 4511SOL    HW214421   3.086   3.241   3.019
 4512SOL     OW14422   3.444   2.486   2.339
 4512SOL    HW114423   3.399   2.541   2.403
 4512SOL    HW214424   3.489   2.548   2.282
 4513SOL     OW14425   2.209   3.388   3.179
 4513SOL    HW114426   2.196   3.345   3.094
 4513SOL    HW214427   2.304   3.400   3.185
 4514SOL     OW14428   2.264   2.627   3.444
 4514SOL    HW114429   2.332   2.679   3.400
 4514SOL    HW214430   2.289   2.536   3.426
 4515SOL     OW14431   3.461   2.640   3.543
 4515SOL    HW114432   3.375   2.680   3.535
 4515SOL    HW214433   3.513   2.682   3.474
 4516SOL     OW14434   2.862   1.978   3.623
 4516SOL    HW114435   2.910   2.052   3.586
 4516SOL    HW214436   2.912   1.901   3.594
 4517SOL     OW14437   2.363   1.895   3.614
 4517SOL    HW114438   2.324   1.847   3.541
 4517SOL    HW214439   2.296   1.958   3.641
 4518SOL     OW14440   2.438   2.743   2.892
 4518SOL    HW114441   2.482   2.828   2.885
 4518SOL    HW214442   2.385   2.749   2.971
 4519SOL     OW14443   3.221   2.721   2.894
 4519SOL    HW114444   3.139   2.712   2.846
 4519SOL    HW214445   3.260   2.633   2.890
 4520SOL     OW14446   3.069   2.391   2.131
 4520SOL    HW114447   3.076   2.312   2.185
 4520SOL    HW214448   3.028   2.456   2.188
 4521SOL     OW14449   1.910   3.173   3.139
 4521SOL    HW114450   1.942   3.120   3.212
 4521SOL    HW214451   1.915   3.263   3.171
 4522SOL     OW14452   2.641   2.541   2.952
 4522SOL    HW114453   2.666   2.480   2.883
 4522SOL    HW214454   2.574   2.597   2.911
 4523SOL     OW14455   3.595   2.822   3.713
 4523SOL    HW114456   3.549   2.762   3.654
 4523SOL    HW214457   3.536   2.834   3.787
 4524SOL     OW14458   3.477   2.235   2.230
 4524SOL    HW114459   3.504   2.171   2.296
 4524SOL    HW214460   3.454   2.313   2.280
 4525SOL     OW14461   2.898   2.622   2.821
 4525SOL    HW114462   2.894   2.645   2.914
 4525SOL    HW214463   2.860   2.534   2.818
 4526SOL     OW14464   2.844   3.428   3.577
 4526SOL    HW114465   2.829   3.473   3.494
 4526SOL    HW214466   2.887   3.346   3.553
 4527SOL     OW14467   3.717   3.370   3.468
 4527SOL    HW114468   3.734   3.396   3.377
 4527SOL    HW214469   3.799   3.390   3.514
 4528SOL     OW14470   2.217   2.781   3.669
 4528SOL    HW114471   2.299   2.796   3.715
 4528SOL    HW214472   2.241   2.725   3.595
 4529SOL     OW14473   3.392   2.135   1.989
 4529SOL    HW114474   3.328   2.070   2.015
 4529SOL    HW214475   3.425   2.171   2.072
 4530SOL     OW14476   3.156   2.689   1.894
 4530SOL    HW114477   3.198   2.603   1.898
 4530SOL    HW214478   3.187   2.727   1.812
 4531SOL     OW14479   2.927   3.197   2.715
 4531SOL    HW114480   2.930   3.124   2.653
 4531SOL    HW214481   2.989   3.261   2.680
 4532SOL     OW14482   2.173   2.682   2.804
 4532SOL    HW114483   2.266   2.702   2.801
 4532SOL    HW214484   2.168   2.596   2.847
 4533SOL     OW14485   2.995   2.245   3.536
 4533SOL    HW114486   2.949   2.295   3.604
 4533SOL    HW214487   3.085   2.280   3.538
 4534SOL     OW14488   3.026   2.067   3.331
 4534SOL    HW114489   3.014   2.129   3.403
 4534SOL    HW214490   3.065   2.119   3.261
 4535SOL     OW14491   1.867   3.184   2.056
 4535SOL    HW114492   1.780   3.198   2.019
 4535SOL    HW214493   1.864   3.094   2.090
 4536SOL     OW14494   1.952   3.650   2.799
 4536SOL    HW114495   1.922   3.570   2.756
 4536SOL    HW214496   2.042   3.662   2.768
 4537SOL     OW14497   2.360   3.435   2.768
 4537SOL    HW114498   2.429   3.498   2.792
 4537SOL    HW214499   2.404   3.371   2.713
 4538SOL     OW14500   2.851   2.667   3.090
 4538SOL    HW114501   2.889   2.622   3.165
 4538SOL    HW214502   2.772   2.617   3.069
 4539SOL     OW14503   1.905   2.422   2.976
 4539SOL    HW114504   1.951   2.345   2.942
 4539SOL    HW214505   1.923   2.421   3.070
 4540SOL     OW14506   3.237   2.803   3.520
 4540SOL    HW114507   3.259   2.896   3.520
 4540SOL    HW214508   3.237   2.778   3.428
 4541SOL     OW14509   2.692   2.430   2.230
 4541SOL    HW114510   2.687   2.359   2.166
 4541SOL    HW214511   2.629   2.495   2.199
 4542SOL     OW14512   3.505   2.463   3.050
 4542SOL    HW114513   3.495   2.403   3.124
 4542SOL    HW214514   3.591   2.443   3.015
 4543SOL     OW14515   2.109   3.414   3.591
 4543SOL    HW114516   2.083   3.478   3.658
 4543SOL    HW214517   2.107   3.330   3.637
 4544SOL     OW14518   2.791   3.541   3.329
 4544SOL    HW114519   2.765   3.509   3.242
 4544SOL    HW214520   2.789   3.636   3.320
 4545SOL     OW14521   2.010   3.004   3.337
 4545SOL    HW114522   2.011   2.949   3.416
 4545SOL    HW214523   2.021   2.943   3.265
 4546SOL     OW14524   3.190   2.910   3.086
 4546SOL    HW114525   3.214   2.847   3.018
 4546SOL    HW214526   3.118   2.961   3.048
 4547SOL     OW14527   3.171   2.718   2.169
 4547SOL    HW114528   3.095   2.688   2.218
 4547SOL    HW214529   3.148   2.705   2.077
 4548SOL     OW14530   3.632   3.608   3.011
 4548SOL    HW114531   3.692   3.634   2.941
 4548SOL    HW214532   3.608   3.518   2.990
 4549SOL     OW14533   3.103   3.595   2.977
 4549SOL    HW114534   3.185   3.614   2.931
 4549SOL    HW214535   3.108   3.501   2.995
 4550SOL     OW14536   1.945   3.128   2.875
 4550SOL    HW114537   1.933   3.140   2.969
 4550SOL    HW214538   1.870   3.075   2.848
 4551SOL     OW14539   2.539   3.527   3.588
 4551SOL    HW114540   2.487   3.606   3.585
 4551SOL    HW214541   2.603   3.537   3.517
 4552SOL     OW14542   3.580   2.006   2.373
 4552SOL    HW114543   3.654   1.992   2.314
 4552SOL    HW214544   3.565   1.920   2.413
 4553SOL     OW14545   3.252   3.430   2.345
 4553SOL    HW114546   3.313   3.461   2.278
 4553SOL    HW214547   3.204   3.508   2.373
 4554SOL     OW14548   1.998   3.658   3.705
 4554SOL    HW114549   1.947   3.593   3.754
 4554SOL    HW214550   2.045   3.707   3.772
 4555SOL     OW14551   3.139   2.787   2.533
 4555SOL    HW114552   3.213   2.725   2.538
 4555SOL    HW214553   3.173   2.860   2.481
 4556SOL     OW14554   2.679   3.134   3.293
 4556SOL    HW114555   2.652   3.173   3.376
 4556SOL    HW214556   2.609   3.158   3.232
 4557SOL     OW14557   2.534   3.480   2.017
 4557SOL    HW114558   2.544   3.491   1.923
 4557SOL    HW214559   2.480   3.401   2.027
 4558SOL     OW14560   3.492   3.588   3.254
 4558SOL    HW114561   3.540   3.596   3.171
 4558SOL    HW214562   3.478   3.679   3.282
 4559SOL     OW14563   3.702   2.035   2.830
 4559SOL    HW114564   3.731   1.948   2.801
 4559SOL    HW214565   3.616   2.045   2.790
 4560SOL     OW14566   3.068   3.469   1.893
 4560SOL    HW114567   3.059   3.378   1.920
 4560SOL    HW214568   3.004   3.480   1.824
 4561SOL     OW14569   2.685   2.868   3.234
 4561SOL    HW114570   2.732   2.860   3.151
 4561SOL    HW214571   2.688   2.962   3.254
 4562SOL     OW14572   2.784   2.782   2.154
 4562SOL    HW114573   2.845   2.809   2.086
 4562SOL    HW214574   2.827   2.707   2.197
 4563SOL     OW14575   3.356   3.486   1.904
 4563SOL    HW114576   3.261   3.482   1.892
 4563SOL    HW214577   3.391   3.493   1.816
 4564SOL     OW14578   2.233   3.163   3.353
 4564SOL    HW114579   2.218   3.241   3.300
 4564SOL    HW214580   2.155   3.109   3.339
 4565SOL     OW14581   3.473   3.145   3.143
 4565SOL    HW114582   3.533   3.136   3.217
 4565SOL    HW214583   3.413   3.215   3.168
 4566SOL     OW14584   2.912   2.968   2.568
 4566SOL    HW114585   2.842   2.916   2.607
 4566SOL    HW214586   2.973   2.903   2.534
 4567SOL     OW14587   2.881   2.101   2.828
 4567SOL    HW114588   2.878   2.053   2.745
 4567SOL    HW214589   2.878   2.033   2.895
 4568SOL     OW14590   2.464   3.350   2.344
 4568SOL    HW114591   2.506   3.300   2.274
 4568SOL    HW214592   2.397   3.402   2.299
 4569SOL     OW14593   3.582   2.255   3.242
 4569SOL    HW114594   3.654   2.317   3.241
 4569SOL    HW214595   3.612   2.182   3.186
 4570SOL     OW14596   2.120   3.207   2.150
 4570SOL    HW114597   2.027   3.206   2.127
 4570SOL    HW214598   2.123   3.245   2.238
 4571SOL     OW14599   1.974   2.881   3.582
 4571SOL    HW114600   1.897   2.858   3.634
 4571SOL    HW214601   2.048   2.844   3.630
 4572SOL     OW14602   2.551   2.037   3.359
 4572SOL    HW114603   2.638   2.015   3.325
 4572SOL    HW214604   2.568   2.069   3.448
 4573SOL     OW14605   3.293   2.721   3.263
 4573SOL    HW114606   3.245   2.781   3.206
 4573SOL    HW214607   3.383   2.723   3.230
 4574SOL     OW14608   1.870   1.998   2.188
 4574SOL    HW114609   1.845   2.080   2.146
 4574SOL    HW214610   1.960   2.012   2.217
 4575SOL     OW14611   3.041   3.203   1.979
 4575SOL    HW114612   2.951   3.172   1.983
 4575SOL    HW214613   3.070   3.203   2.070
 4576SOL     OW14614   2.480   2.701   3.290
 4576SOL    HW114615   2.538   2.775   3.275
 4576SOL    HW214616   2.538   2.627   3.306
 4577SOL     OW14617   3.346   3.637   2.838
 4577SOL    HW114618   3.371   3.696   2.767
 4577SOL    HW214619   3.428   3.620   2.885
 4578SOL     OW14620   3.332   3.064   3.495
 4578SOL    HW114621   3.320   3.077   3.589
 4578SOL    HW214622   3.425   3.077   3.480
 4579SOL     OW14623   2.243   3.601   3.426
 4579SOL    HW114624   2.158   3.642   3.412
 4579SOL    HW214625   2.224   3.518   3.468
 4580SOL     OW14626   3.532   2.743   3.118
 4580SOL    HW114627   3.526   2.658   3.075
 4580SOL    HW214628   3.524   2.807   3.046
 4581SOL     OW14629   3.079   2.181   2.320
 4581SOL    HW114630   3.143   2.110   2.311
 4581SOL    HW214631   3.108   2.230   2.397
 4582SOL     OW14632   2.475   2.638   2.544
 4582SOL    HW114633   2.513   2.723   2.518
 4582SOL    HW214634   2.389   2.637   2.502
 4583SOL     OW14635   3.626   2.222   3.511
 4583SOL    HW114636   3.608   2.237   3.418
 4583SOL    HW214637   3.555   2.166   3.541
 4584SOL     OW14638   3.605   2.796   3.375
 4584SOL    HW114639   3.606   2.891   3.387
 4584SOL    HW214640   3.591   2.784   3.281
 4585SOL     OW14641   2.723   3.230   1.893
 4585SOL    HW114642   2.686   3.257   1.977
 4585SOL    HW214643   2.743   3.312   1.848
 4586SOL     OW14644   2.521   3.655   2.808
 4586SOL    HW114645   2.501   3.745   2.785
 4586SOL    HW214646   2.617   3.649   2.801
 4587SOL     OW14647   2.728   2.828   2.718
 4587SOL    HW114648   2.777   2.755   2.757
 4587SOL    HW214649   2.696   2.878   2.793
 4588SOL     OW14650   2.943   2.850   1.948
 4588SOL    HW114651   2.922   2.901   1.870
 4588SOL    HW214652   3.018   2.797   1.923
 4589SOL     OW14653   3.718   3.418   2.707
 4589SOL    HW114654   3.641   3.406   2.652
 4589SOL    HW214655   3.710   3.349   2.773
 4590SOL     OW14656   2.086   3.166   3.718
 4590SOL    HW114657   2.020   3.104   3.689
 4590SOL    HW214658   2.069   3.178   3.811
 4591SOL     OW14659   1.945   3.097   2.527
 4591SOL    HW114660   1.947   3.048   2.609
 4591SOL    HW214661   2.014   3.058   2.473
 4592SOL     OW14662   2.542   3.264   3.488
 4592SOL    HW114663   2.462   3.220   3.518
 4592SOL    HW214664   2.537   3.352   3.525
 4593SOL     OW14665   3.676   2.047   3.100
 4593SOL    HW114666   3.684   1.953   3.116
 4593SOL    HW214667   3.685   2.057   3.006
 4594SOL     OW14668   3.562   3.353   2.961
 4594SOL    HW114669   3.482   3.328   2.916
 4594SOL    HW214670   3.577   3.283   3.026
 4595SOL     OW14671   2.688   3.440   2.541
 4595SOL    HW114672   2.679   3.488   2.458
 4595SOL    HW214673   2.610   3.384   2.544
 4596SOL     OW14674   3.294   2.086   2.980
 4596SOL    HW114675   3.321   2.007   3.027
 4596SOL    HW214676   3.243   2.135   3.044
 4597SOL     OW14677   2.872   1.882   3.004
 4597SOL    HW114678   2.817   1.811   2.970
 4597SOL    HW214679   2.960   1.845   3.007
 4598SOL     OW14680   2.634   3.195   2.174
 4598SOL    HW114681   2.602   3.105   2.180
 4598SOL    HW214682   2.716   3.194   2.223
 4599SOL     OW14683   2.482   3.420   3.146
 4599SOL    HW114684   2.485   3.501   3.197
 4599SOL    HW214685   2.569   3.412   3.108
 4600SOL     OW14686   3.214   1.916   2.026
 4600SOL    HW114687   3.241   1.854   1.958
 4600SOL    HW214688   3.127   1.885   2.053
 4601SOL     OW14689   3.159   2.322   2.544
 4601SOL    HW114690   3.105   2.401   2.552
 4601SOL    HW214691   3.156   2.282   2.631
 4602SOL     OW14692   3.449   2.066   2.739
 4602SOL    HW114693   3.386   2.085   2.809
 4602SOL    HW214694   3.449   2.145   2.684
 4603SOL     OW14695   1.904   2.934   2.168
 4603SOL    HW114696   1.998   2.926   2.152
 4603SOL    HW214697   1.876   2.846   2.190
 4604SOL     OW14698   2.744   3.513   2.206
 4604SOL    HW114699   2.673   3.495   2.145
 4604SOL    HW214700   2.715   3.589   2.256
 4605SOL     OW14701   2.064   2.523   3.840
 4605SOL    HW114702   1.982   2.496   3.883
 4605SOL    HW214703   2.065   2.474   3.758
 4606SOL     OW14704   1.854   2.263   4.356
 4606SOL    HW114705   1.768   2.297   4.379
 4606SOL    HW214706   1.840   2.168   4.347
 4607SOL     OW14707   2.440   3.183   4.848
 4607SOL    HW114708   2.366   3.133   4.882
 4607SOL    HW214709   2.466   3.240   4.919
 4608SOL     OW14710   3.420   3.373   4.430
 4608SOL    HW114711   3.376   3.357   4.513
 4608SOL    HW214712   3.349   3.379   4.366
 4609SOL     OW14713   2.996   2.564   4.419
 4609SOL    HW114714   3.042   2.648   4.419
 4609SOL    HW214715   2.940   2.568   4.497
 4610SOL     OW14716   3.625   2.468   3.955
 4610SOL    HW114717   3.607   2.460   3.861
 4610SOL    HW214718   3.592   2.387   3.993
 4611SOL     OW14719   2.562   2.912   4.376
 4611SOL    HW114720   2.602   2.863   4.447
 4611SOL    HW214721   2.468   2.911   4.395
 4612SOL     OW14722   2.582   3.024   5.522
 4612SOL    HW114723   2.626   3.106   5.546
 4612SOL    HW214724   2.494   3.051   5.496
 4613SOL     OW14725   2.174   3.302   4.787
 4613SOL    HW114726   2.114   3.281   4.715
 4613SOL    HW214727   2.250   3.341   4.744
 4614SOL     OW14728   3.323   3.361   5.073
 4614SOL    HW114729   3.370   3.444   5.087
 4614SOL    HW214730   3.267   3.353   5.151
 4615SOL     OW14731   3.472   2.310   4.464
 4615SOL    HW114732   3.404   2.340   4.404
 4615SOL    HW214733   3.497   2.388   4.513
 4616SOL     OW14734   2.082   3.575   4.198
 4616SOL    HW114735   2.104   3.652   4.250
 4616SOL    HW214736   2.152   3.569   4.133
 4617SOL     OW14737   2.996   3.202   5.417
 4617SOL    HW114738   3.036   3.197   5.504
 4617SOL    HW214739   2.945   3.121   5.410
 4618SOL     OW14740   2.095   3.304   4.259
 4618SOL    HW114741   2.077   3.398   4.261
 4618SOL    HW214742   2.030   3.267   4.319
 4619SOL     OW14743   2.478   3.655   5.158
 4619SOL    HW114744   2.395   3.636   5.202
 4619SOL    HW214745   2.498   3.745   5.182
 4620SOL     OW14746   2.447   2.844   3.849
 4620SOL    HW114747   2.492   2.898   3.784
 4620SOL    HW214748   2.486   2.870   3.933
 4621SOL     OW14749   3.458   1.983   5.196
 4621SOL    HW114750   3.453   2.059   5.139
 4621SOL    HW214751   3.446   2.017   5.284
 4622SOL     OW14752   1.981   2.504   4.287
 4622SOL    HW114753   1.941   2.419   4.306
 4622SOL    HW214754   1.965   2.556   4.366
 4623SOL     OW14755   3.704   3.622   4.060
 4623SOL    HW114756   3.765   3.594   4.128
 4623SOL    HW214757   3.729   3.713   4.041
 4624SOL     OW14758   1.893   3.458   3.848
 4624SOL    HW114759   1.875   3.366   3.868
 4624SOL    HW214760   1.868   3.505   3.928
 4625SOL     OW14761   3.549   2.779   4.363
 4625SOL    HW114762   3.635   2.740   4.347
 4625SOL    HW214763   3.531   2.830   4.284
 4626SOL     OW14764   3.507   2.969   4.155
 4626SOL    HW114765   3.592   2.977   4.111
 4626SOL    HW214766   3.512   3.030   4.228
 4627SOL     OW14767   2.472   3.244   4.457
 4627SOL    HW114768   2.439   3.154   4.455
 4627SOL    HW214769   2.458   3.277   4.368
 4628SOL     OW14770   3.155   3.110   5.141
 4628SOL    HW114771   3.183   3.037   5.086
 4628SOL    HW214772   3.204   3.099   5.222
 4629SOL     OW14773   2.668   1.863   4.221
 4629SOL    HW114774   2.709   1.949   4.210
 4629SOL    HW214775   2.575   1.882   4.236
 4630SOL     OW14776   3.394   2.855   3.921
 4630SOL    HW114777   3.325   2.796   3.951
 4630SOL    HW214778   3.434   2.888   4.001
 4631SOL     OW14779   3.047   3.667   5.346
 4631SOL    HW114780   3.061   3.724   5.270
 4631SOL    HW214781   3.064   3.579   5.313
 4632SOL     OW14782   3.325   3.283   4.679
 4632SOL    HW114783   3.258   3.297   4.745
 4632SOL    HW214784   3.313   3.192   4.651
 4633SOL     OW14785   3.522   3.597   4.302
 4633SOL    HW114786   3.501   3.569   4.213
 4633SOL    HW214787   3.497   3.523   4.358
 4634SOL     OW14788   2.484   2.635   4.041
 4634SOL    HW114789   2.477   2.676   3.955
 4634SOL    HW214790   2.394   2.635   4.074
 4635SOL     OW14791   3.443   3.530   4.033
 4635SOL    HW114792   3.533   3.564   4.027
 4635SOL    HW214793   3.418   3.514   3.942
 4636SOL     OW14794   3.269   2.342   5.395
 4636SOL    HW114795   3.251   2.375   5.483
 4636SOL    HW214796   3.314   2.259   5.410
 4637SOL     OW14797   2.913   2.561   4.153
 4637SOL    HW114798   2.938   2.558   4.245
 4637SOL    HW214799   2.832   2.511   4.148
 4638SOL     OW14800   1.954   2.678   4.497
 4638SOL    HW114801   2.034   2.676   4.550
 4638SOL    HW214802   1.894   2.735   4.546
 4639SOL     OW14803   1.990   3.705   5.302
 4639SOL    HW114804   1.988   3.684   5.395
 4639SOL    HW214805   1.898   3.702   5.275
 4640SOL     OW14806   2.758   2.203   3.932
 4640SOL    HW114807   2.782   2.272   3.870
 4640SOL    HW214808   2.759   2.123   3.880
 4641SOL     OW14809   3.570   2.438   5.552
 4641SOL    HW114810   3.533   2.514   5.506
 4641SOL    HW214811   3.594   2.377   5.483
 4642SOL     OW14812   3.233   3.004   4.265
 4642SOL    HW114813   3.314   2.988   4.216
 4642SOL    HW214814   3.185   3.067   4.211
 4643SOL     OW14815   2.440   2.045   4.564
 4643SOL    HW114816   2.422   2.037   4.657
 4643SOL    HW214817   2.444   2.140   4.549
 4644SOL     OW14818   2.870   3.308   4.202
 4644SOL    HW114819   2.831   3.377   4.147
 4644SOL    HW214820   2.851   3.336   4.291
 4645SOL     OW14821   2.216   3.669   4.584
 4645SOL    HW114822   2.260   3.585   4.592
 4645SOL    HW214823   2.284   3.734   4.601
 4646SOL     OW14824   3.660   2.922   4.592
 4646SOL    HW114825   3.604   2.905   4.516
 4646SOL    HW214826   3.599   2.926   4.666
 4647SOL     OW14827   3.093   3.402   5.242
 4647SOL    HW114828   3.078   3.326   5.298
 4647SOL    HW214829   3.034   3.390   5.167
 4648SOL     OW14830   2.177   2.824   3.968
 4648SOL    HW114831   2.260   2.838   3.923
 4648SOL    HW214832   2.146   2.740   3.936
 4649SOL     OW14833   3.341   2.602   4.454
 4649SOL    HW114834   3.336   2.558   4.539
 4649SOL    HW214835   3.419   2.657   4.460
 4650SOL     OW14836   2.326   3.127   5.462
 4650SOL    HW114837   2.297   3.130   5.371
 4650SOL    HW214838   2.246   3.124   5.513
 4651SOL     OW14839   2.983   3.639   3.956
 4651SOL    HW114840   2.911   3.597   4.002
 4651SOL    HW214841   3.005   3.579   3.884
 4652SOL     OW14842   3.491   3.241   3.811
 4652SOL    HW114843   3.450   3.326   3.796
 4652SOL    HW214844   3.422   3.178   3.792
 4653SOL     OW14845   2.329   3.600   4.046
 4653SOL    HW114846   2.369   3.657   4.110
 4653SOL    HW214847   2.401   3.571   3.990
 4654SOL     OW14848   3.263   1.974   4.154
 4654SOL    HW114849   3.250   1.945   4.063
 4654SOL    HW214850   3.358   1.971   4.166
 4655SOL     OW14851   2.118   3.654   4.956
 4655SOL    HW114852   2.176   3.593   5.003
 4655SOL    HW214853   2.111   3.617   4.868
 4656SOL     OW14854   2.799   3.564   4.623
 4656SOL    HW114855   2.872   3.509   4.652
 4656SOL    HW214856   2.754   3.512   4.557
 4657SOL     OW14857   2.224   2.587   4.173
 4657SOL    HW114858   2.261   2.503   4.144
 4657SOL    HW214859   2.138   2.564   4.208
 4658SOL     OW14860   3.399   2.088   5.450
 4658SOL    HW114861   3.407   2.110   5.543
 4658SOL    HW214862   3.327   2.023   5.448
 4659SOL     OW14863   2.501   1.991   3.833
 4659SOL    HW114864   2.567   1.925   3.853
 4659SOL    HW214865   2.454   1.955   3.757
 4660SOL     OW14866   2.734   3.388   4.912
 4660SOL    HW114867   2.711   3.358   4.824
 4660SOL    HW214868   2.789   3.318   4.948
 4661SOL     OW14869   3.228   2.449   5.145
 4661SOL    HW114870   3.237   2.414   5.234
 4661SOL    HW214871   3.241   2.543   5.155
 4662SOL     OW14872   2.685   3.282   4.662
 4662SOL    HW114873   2.761   3.249   4.614
 4662SOL    HW214874   2.610   3.255   4.609
 4663SOL     OW14875   2.397   1.931   4.229
 4663SOL    HW114876   2.367   1.946   4.319
 4663SOL    HW214877   2.378   2.014   4.184
 4664SOL     OW14878   3.290   3.060   3.765
 4664SOL    HW114879   3.321   2.984   3.815
 4664SOL    HW214880   3.204   3.079   3.802
 4665SOL     OW14881   2.792   2.112   4.188
 4665SOL    HW114882   2.772   2.145   4.100
 4665SOL    HW214883   2.888   2.113   4.193
 4666SOL     OW14884   3.087   3.427   4.519
 4666SOL    HW114885   3.100   3.495   4.452
 4666SOL    HW214886   3.154   3.445   4.584
 4667SOL     OW14887   3.131   3.656   4.331
 4667SOL    HW114888   3.177   3.717   4.272
 4667SOL    HW214889   3.067   3.710   4.376
 4668SOL     OW14890   2.891   2.409   3.738
 4668SOL    HW114891   2.839   2.488   3.723
 4668SOL    HW214892   2.950   2.433   3.809
 4669SOL     OW14893   2.403   2.024   4.837
 4669SOL    HW114894   2.457   1.969   4.893
 4669SOL    HW214895   2.340   2.065   4.896
 4670SOL     OW14896   2.750   2.328   4.360
 4670SOL    HW114897   2.683   2.366   4.303
 4670SOL    HW214898   2.765   2.241   4.324
 4671SOL     OW14899   2.896   1.902   4.454
 4671SOL    HW114900   2.820   1.906   4.396
 4671SOL    HW214901   2.874   1.834   4.518
 4672SOL     OW14902   3.294   3.026   4.581
 4672SOL    HW114903   3.237   2.950   4.573
 4672SOL    HW214904   3.325   3.042   4.491
 4673SOL     OW14905   3.335   2.471   4.704
 4673SOL    HW114906   3.283   2.393   4.724
 4673SOL    HW214907   3.400   2.474   4.775
 4674SOL     OW14908   3.709   2.680   4.105
 4674SOL    HW114909   3.764   2.628   4.164
 4674SOL    HW214910   3.679   2.617   4.039
 4675SOL     OW14911   2.354   3.278   3.883
 4675SOL    HW114912   2.279   3.249   3.935
 4675SOL    HW214913   2.335   3.246   3.795
 4676SOL     OW14914   3.530   3.126   4.374
 4676SOL    HW114915   3.624   3.129   4.385
 4676SOL    HW214916   3.499   3.215   4.393
 4677SOL     OW14917   3.257   2.434   3.795
 4677SOL    HW114918   3.195   2.415   3.865
 4677SOL    HW214919   3.340   2.399   3.825
 4678SOL     OW14920   3.615   3.099   5.298
 4678SOL    HW114921   3.702   3.059   5.297
 4678SOL    HW214922   3.629   3.189   5.329
 4679SOL     OW14923   3.469   3.488   5.376
 4679SOL    HW114924   3.465   3.521   5.287
 4679SOL    HW214925   3.552   3.440   5.381
 4680SOL     OW14926   2.984   3.074   4.836
 4680SOL    HW114927   2.904   3.071   4.888
 4680SOL    HW214928   2.955   3.105   4.750
 4681SOL     OW14929   3.491   2.961   4.802
 4681SOL    HW114930   3.490   3.023   4.875
 4681SOL    HW214931   3.410   2.978   4.754
 4682SOL     OW14932   2.846   2.964   5.443
 4682SOL    HW114933   2.755   2.982   5.465
 4682SOL    HW214934   2.842   2.895   5.378
 4683SOL     OW14935   2.572   2.929   4.092
 4683SOL    HW114936   2.561   2.918   4.186
 4683SOL    HW214937   2.644   2.870   4.069
 4684SOL     OW14938   1.935   3.448   5.071
 4684SOL    HW114939   1.906   3.524   5.021
 4684SOL    HW214940   2.031   3.455   5.071
 4685SOL     OW14941   2.211   2.970   4.219
 4685SOL    HW114942   2.221   3.042   4.156
 4685SOL    HW214943   2.212   2.891   4.164
 4686SOL     OW14944   3.109   3.211   4.114
 4686SOL    HW114945   3.166   3.282   4.143
 4686SOL    HW214946   3.022   3.235   4.147
 4687SOL     OW14947   3.134   3.313   4.875
 4687SOL    HW114948   3.192   3.315   4.952
 4687SOL    HW214949   3.091   3.227   4.880
 4688SOL     OW14950   3.445   2.485   4.204
 4688SOL    HW114951   3.400   2.544   4.265
 4688SOL    HW214952   3.490   2.543   4.143
 4689SOL     OW14953   2.212   3.380   5.042
 4689SOL    HW114954   2.197   3.345   4.954
 4689SOL    HW214955   2.307   3.395   5.046
 4690SOL     OW14956   3.464   2.644   5.408
 4690SOL    HW114957   3.375   2.677   5.397
 4690SOL    HW214958   3.514   2.684   5.337
 4691SOL     OW14959   2.972   2.011   5.457
 4691SOL    HW114960   2.887   2.040   5.425
 4691SOL    HW214961   2.980   1.921   5.427
 4692SOL     OW14962   3.218   2.722   4.756
 4692SOL    HW114963   3.151   2.710   4.689
 4692SOL    HW214964   3.261   2.637   4.763
 4693SOL     OW14965   3.071   2.393   3.992
 4693SOL    HW114966   3.075   2.312   4.043
 4693SOL    HW214967   3.029   2.456   4.051
 4694SOL     OW14968   1.873   3.186   5.065
 4694SOL    HW114969   1.934   3.134   5.013
 4694SOL    HW214970   1.904   3.276   5.057
 4695SOL     OW14971   3.596   2.822   5.576
 4695SOL    HW114972   3.550   2.762   5.517
 4695SOL    HW214973   3.536   2.835   5.649
 4696SOL     OW14974   3.479   2.236   4.091
 4696SOL    HW114975   3.503   2.170   4.157
 4696SOL    HW214976   3.455   2.313   4.142
 4697SOL     OW14977   2.844   3.429   5.438
 4697SOL    HW114978   2.829   3.472   5.354
 4697SOL    HW214979   2.886   3.346   5.416
 4698SOL     OW14980   3.717   3.370   5.330
 4698SOL    HW114981   3.735   3.396   5.239
 4698SOL    HW214982   3.799   3.390   5.376
 4699SOL     OW14983   3.392   2.136   3.851
 4699SOL    HW114984   3.327   2.070   3.877
 4699SOL    HW214985   3.425   2.171   3.934
 4700SOL     OW14986   3.157   2.689   3.757
 4700SOL    HW114987   3.198   2.603   3.760
 4700SOL    HW214988   3.187   2.728   3.675
 4701SOL     OW14989   2.934   3.192   4.572
 4701SOL    HW114990   2.953   3.131   4.500
 4701SOL    HW214991   2.987   3.269   4.553
 4702SOL     OW14992   1.867   3.184   3.920
 4702SOL    HW114993   1.780   3.197   3.882
 4702SOL    HW214994   1.865   3.094   3.952
 4703SOL     OW14995   1.951   3.648   4.659
 4703SOL    HW114996   1.924   3.566   4.616
 4703SOL    HW214997   2.041   3.662   4.630
 4704SOL     OW14998   2.360   3.435   4.632
 4704SOL    HW114999   2.429   3.497   4.658
 4704SOL    HW215000   2.406   3.367   4.583
 4705SOL     OW15001   1.911   2.401   4.827
 4705SOL    HW115002   1.997   2.361   4.816
 4705SOL    HW215003   1.913   2.440   4.915
 4706SOL     OW15004   3.235   2.804   5.383
 4706SOL    HW115005   3.258   2.897   5.382
 4706SOL    HW215006   3.238   2.777   5.292
 4707SOL     OW15007   3.506   2.468   4.911
 4707SOL    HW115008   3.489   2.413   4.987
 4707SOL    HW215009   3.593   2.441   4.881
 4708SOL     OW15010   2.110   3.414   5.453
 4708SOL    HW115011   2.084   3.478   5.520
 4708SOL    HW215012   2.105   3.329   5.497
 4709SOL     OW15013   2.797   3.540   5.186
 4709SOL    HW115014   2.761   3.512   5.102
 4709SOL    HW215015   2.792   3.636   5.183
 4710SOL     OW15016   3.190   2.911   4.948
 4710SOL    HW115017   3.211   2.848   4.880
 4710SOL    HW215018   3.120   2.965   4.910
 4711SOL     OW15019   3.171   2.718   4.032
 4711SOL    HW115020   3.093   2.689   4.078
 4711SOL    HW215021   3.150   2.705   3.939
 4712SOL     OW15022   3.631   3.608   4.873
 4712SOL    HW115023   3.692   3.634   4.803
 4712SOL    HW215024   3.608   3.518   4.852
 4713SOL     OW15025   3.103   3.593   4.839
 4713SOL    HW115026   3.185   3.613   4.794
 4713SOL    HW215027   3.108   3.500   4.858
 4714SOL     OW15028   2.539   3.530   5.455
 4714SOL    HW115029   2.487   3.610   5.447
 4714SOL    HW215030   2.601   3.534   5.383
 4715SOL     OW15031   3.581   2.006   4.237
 4715SOL    HW115032   3.654   1.992   4.176
 4715SOL    HW215033   3.565   1.919   4.275
 4716SOL     OW15034   3.252   3.430   4.207
 4716SOL    HW115035   3.313   3.461   4.140
 4716SOL    HW215036   3.204   3.508   4.235
 4717SOL     OW15037   1.997   3.655   5.569
 4717SOL    HW115038   1.948   3.590   5.619
 4717SOL    HW215039   2.044   3.706   5.635
 4718SOL     OW15040   3.145   2.792   4.415
 4718SOL    HW115041   3.217   2.729   4.407
 4718SOL    HW215042   3.167   2.861   4.353
 4719SOL     OW15043   2.534   3.480   3.879
 4719SOL    HW115044   2.543   3.491   3.785
 4719SOL    HW215045   2.480   3.402   3.889
 4720SOL     OW15046   3.492   3.588   5.116
 4720SOL    HW115047   3.540   3.596   5.033
 4720SOL    HW215048   3.478   3.679   5.144
 4721SOL     OW15049   3.704   2.035   4.691
 4721SOL    HW115050   3.731   1.948   4.663
 4721SOL    HW215051   3.616   2.046   4.656
 4722SOL     OW15052   3.068   3.469   3.755
 4722SOL    HW115053   3.059   3.378   3.782
 4722SOL    HW215054   3.003   3.480   3.685
 4723SOL     OW15055   2.784   2.779   4.018
 4723SOL    HW115056   2.842   2.808   3.948
 4723SOL    HW215057   2.829   2.704   4.057
 4724SOL     OW15058   3.356   3.486   3.766
 4724SOL    HW115059   3.261   3.482   3.754
 4724SOL    HW215060   3.391   3.493   3.678
 4725SOL     OW15061   2.220   3.157   5.218
 4725SOL    HW115062   2.216   3.238   5.168
 4725SOL    HW215063   2.148   3.104   5.183
 4726SOL     OW15064   3.474   3.145   5.004
 4726SOL    HW115065   3.532   3.135   5.080
 4726SOL    HW215066   3.413   3.214   5.030
 4727SOL     OW15067   2.463   3.350   4.206
 4727SOL    HW115068   2.506   3.300   4.136
 4727SOL    HW215069   2.396   3.402   4.162
 4728SOL     OW15070   3.584   2.254   5.104
 4728SOL    HW115071   3.655   2.317   5.101
 4728SOL    HW215072   3.614   2.181   5.049
 4729SOL     OW15073   2.121   3.210   4.011
 4729SOL    HW115074   2.028   3.207   3.990
 4729SOL    HW215075   2.124   3.246   4.100
 4730SOL     OW15076   1.969   2.918   5.472
 4730SOL    HW115077   1.890   2.880   5.509
 4730SOL    HW215078   2.028   2.843   5.461
 4731SOL     OW15079   1.880   2.231   3.773
 4731SOL    HW115080   1.808   2.186   3.729
 4731SOL    HW215081   1.922   2.282   3.704
 4732SOL     OW15082   3.295   2.728   5.130
 4732SOL    HW115083   3.247   2.786   5.071
 4732SOL    HW215084   3.383   2.724   5.093
 4733SOL     OW15085   3.041   3.203   3.841
 4733SOL    HW115086   2.951   3.172   3.843
 4733SOL    HW215087   3.070   3.202   3.932
 4734SOL     OW15088   3.347   3.635   4.700
 4734SOL    HW115089   3.371   3.696   4.629
 4734SOL    HW215090   3.428   3.621   4.748
 4735SOL     OW15091   3.329   3.065   5.356
 4735SOL    HW115092   3.318   3.077   5.450
 4735SOL    HW215093   3.423   3.077   5.341
 4736SOL     OW15094   2.243   3.602   5.287
 4736SOL    HW115095   2.157   3.642   5.275
 4736SOL    HW215096   2.225   3.518   5.329
 4737SOL     OW15097   3.532   2.744   4.980
 4737SOL    HW115098   3.527   2.658   4.939
 4737SOL    HW215099   3.525   2.806   4.907
 4738SOL     OW15100   3.081   2.183   4.179
 4738SOL    HW115101   3.142   2.109   4.168
 4738SOL    HW215102   3.113   2.230   4.255
 4739SOL     OW15103   3.626   2.221   5.373
 4739SOL    HW115104   3.608   2.238   5.281
 4739SOL    HW215105   3.553   2.166   5.402
 4740SOL     OW15106   3.609   2.796   5.236
 4740SOL    HW115107   3.605   2.890   5.249
 4740SOL    HW215108   3.591   2.784   5.143
 4741SOL     OW15109   2.725   3.230   3.756
 4741SOL    HW115110   2.684   3.258   3.838
 4741SOL    HW215111   2.744   3.312   3.710
 4742SOL     OW15112   2.521   3.656   4.671
 4742SOL    HW115113   2.501   3.746   4.647
 4742SOL    HW215114   2.616   3.649   4.663
 4743SOL     OW15115   2.945   2.853   3.813
 4743SOL    HW115116   2.921   2.901   3.734
 4743SOL    HW215117   3.018   2.797   3.787
 4744SOL     OW15118   3.718   3.417   4.569
 4744SOL    HW115119   3.641   3.406   4.514
 4744SOL    HW215120   3.711   3.350   4.636
 4745SOL     OW15121   2.084   3.168   5.580
 4745SOL    HW115122   2.026   3.096   5.555
 4745SOL    HW215123   2.079   3.170   5.676
 4746SOL     OW15124   1.950   3.101   4.388
 4746SOL    HW115125   1.945   3.037   4.458
 4746SOL    HW215126   2.013   3.064   4.326
 4747SOL     OW15127   2.535   3.272   5.349
 4747SOL    HW115128   2.458   3.224   5.380
 4747SOL    HW215129   2.527   3.358   5.391
 4748SOL     OW15130   3.679   2.047   4.962
 4748SOL    HW115131   3.681   1.953   4.977
 4748SOL    HW215132   3.689   2.056   4.867
 4749SOL     OW15133   3.563   3.353   4.822
 4749SOL    HW115134   3.482   3.328   4.779
 4749SOL    HW215135   3.577   3.284   4.888
 4750SOL     OW15136   2.692   3.440   4.398
 4750SOL    HW115137   2.677   3.489   4.317
 4750SOL    HW215138   2.613   3.387   4.409
 4751SOL     OW15139   2.633   3.196   4.036
 4751SOL    HW115140   2.600   3.106   4.040
 4751SOL    HW215141   2.716   3.193   4.083
 4752SOL     OW15142   2.479   3.427   5.008
 4752SOL    HW115143   2.486   3.507   5.062
 4752SOL    HW215144   2.565   3.417   4.969
 4753SOL     OW15145   3.214   1.915   3.888
 4753SOL    HW115146   3.240   1.853   3.820
 4753SOL    HW215147   3.127   1.885   3.915
 4754SOL     OW15148   3.168   2.325   4.399
 4754SOL    HW115149   3.113   2.404   4.403
 4754SOL    HW215150   3.157   2.284   4.484
 4755SOL     OW15151   3.450   2.074   4.609
 4755SOL    HW115152   3.359   2.072   4.639
 4755SOL    HW215153   3.454   2.149   4.550
 4756SOL     OW15154   1.908   2.934   4.031
 4756SOL    HW115155   2.000   2.923   4.010
 4756SOL    HW215156   1.878   2.846   4.053
 4757SOL     OW15157   2.744   3.511   4.067
 4757SOL    HW115158   2.673   3.494   4.006
 4757SOL    HW215159   2.716   3.588   4.118
 4758SOL     OW15160   2.431   3.148   6.757
 4758SOL    HW115161   2.341   3.149   6.726
 4758SOL    HW215162   2.445   3.236   6.792
 4759SOL     OW15163   3.421   3.374   6.292
 4759SOL    HW115164   3.378   3.354   6.375
 4759SOL    HW215165   3.349   3.377   6.228
 4760SOL     OW15166   3.628   2.469   5.815
 4760SOL    HW115167   3.608   2.461   5.722
 4760SOL    HW215168   3.594   2.389   5.854
 4761SOL     OW15169   2.644   3.014   6.639
 4761SOL    HW115170   2.563   3.031   6.686
 4761SOL    HW215171   2.665   3.097   6.596
 4762SOL     OW15172   2.732   2.643   7.409
 4762SOL    HW115173   2.717   2.715   7.471
 4762SOL    HW215174   2.753   2.687   7.326
 4763SOL     OW15175   2.571   3.014   7.394
 4763SOL    HW115176   2.619   3.092   7.421
 4763SOL    HW215177   2.487   3.047   7.361
 4764SOL     OW15178   2.191   3.283   6.655
 4764SOL    HW115179   2.118   3.253   6.601
 4764SOL    HW215180   2.242   3.340   6.596
 4765SOL     OW15181   3.323   3.360   6.938
 4765SOL    HW115182   3.370   3.443   6.948
 4765SOL    HW215183   3.265   3.356   7.014
 4766SOL     OW15184   3.488   2.318   6.331
 4766SOL    HW115185   3.429   2.360   6.269
 4766SOL    HW215186   3.513   2.388   6.392
 4767SOL     OW15187   2.081   3.577   6.059
 4767SOL    HW115188   2.104   3.654   6.112
 4767SOL    HW215189   2.152   3.570   5.995
 4768SOL     OW15190   2.998   3.203   7.278
 4768SOL    HW115191   3.038   3.199   7.365
 4768SOL    HW215192   2.945   3.123   7.272
 4769SOL     OW15193   2.098   3.304   6.114
 4769SOL    HW115194   2.079   3.398   6.118
 4769SOL    HW215195   2.041   3.266   6.180
 4770SOL     OW15196   2.476   3.653   7.017
 4770SOL    HW115197   2.393   3.635   7.062
 4770SOL    HW215198   2.498   3.742   7.041
 4771SOL     OW15199   2.452   2.830   5.664
 4771SOL    HW115200   2.509   2.899   5.629
 4771SOL    HW215201   2.488   2.810   5.750
 4772SOL     OW15202   3.459   1.983   7.056
 4772SOL    HW115203   3.457   2.061   7.001
 4772SOL    HW215204   3.446   2.016   7.145
 4773SOL     OW15205   2.038   2.472   6.182
 4773SOL    HW115206   1.973   2.402   6.177
 4773SOL    HW215207   1.988   2.550   6.208
 4774SOL     OW15208   3.703   3.622   5.922
 4774SOL    HW115209   3.765   3.593   5.990
 4774SOL    HW215210   3.729   3.713   5.903
 4775SOL     OW15211   1.891   3.448   5.712
 4775SOL    HW115212   1.826   3.378   5.709
 4775SOL    HW215213   1.868   3.498   5.791
 4776SOL     OW15214   3.551   2.784   6.226
 4776SOL    HW115215   3.635   2.741   6.206
 4776SOL    HW215216   3.530   2.833   6.146
 4777SOL     OW15217   3.507   2.968   6.015
 4777SOL    HW115218   3.592   2.977   5.974
 4777SOL    HW215219   3.509   3.029   6.089
 4778SOL     OW15220   1.991   2.604   7.169
 4778SOL    HW115221   2.042   2.615   7.249
 4778SOL    HW215222   1.934   2.681   7.166
 4779SOL     OW15223   2.439   3.276   6.310
 4779SOL    HW115224   2.429   3.181   6.308
 4779SOL    HW215225   2.431   3.304   6.219
 4780SOL     OW15226   3.152   3.100   7.010
 4780SOL    HW115227   3.185   3.033   6.950
 4780SOL    HW215228   3.208   3.093   7.087
 4781SOL     OW15229   2.039   2.838   6.861
 4781SOL    HW115230   2.123   2.795   6.848
 4781SOL    HW215231   1.977   2.785   6.809
 4782SOL     OW15232   3.394   2.854   5.783
 4782SOL    HW115233   3.326   2.794   5.813
 4782SOL    HW215234   3.433   2.889   5.864
 4783SOL     OW15235   3.047   3.667   7.207
 4783SOL    HW115236   3.061   3.724   7.132
 4783SOL    HW215237   3.063   3.579   7.172
 4784SOL     OW15238   3.328   3.282   6.538
 4784SOL    HW115239   3.260   3.296   6.604
 4784SOL    HW215240   3.317   3.192   6.510
 4785SOL     OW15241   3.522   3.597   6.164
 4785SOL    HW115242   3.501   3.569   6.075
 4785SOL    HW215243   3.496   3.524   6.220
 4786SOL     OW15244   3.443   3.531   5.895
 4786SOL    HW115245   3.533   3.564   5.889
 4786SOL    HW215246   3.418   3.514   5.804
 4787SOL     OW15247   3.256   2.335   7.264
 4787SOL    HW115248   3.257   2.380   7.348
 4787SOL    HW215249   3.318   2.263   7.273
 4788SOL     OW15250   2.819   2.748   7.164
 4788SOL    HW115251   2.873   2.677   7.129
 4788SOL    HW215252   2.777   2.786   7.087
 4789SOL     OW15253   2.855   2.277   6.817
 4789SOL    HW115254   2.781   2.300   6.873
 4789SOL    HW215255   2.818   2.216   6.753
 4790SOL     OW15256   1.990   3.705   7.163
 4790SOL    HW115257   1.989   3.685   7.256
 4790SOL    HW215258   1.898   3.702   7.136
 4791SOL     OW15259   3.572   2.438   7.414
 4791SOL    HW115260   3.534   2.513   7.367
 4791SOL    HW215261   3.598   2.377   7.344
 4792SOL     OW15262   3.230   3.014   6.141
 4792SOL    HW115263   3.303   2.977   6.091
 4792SOL    HW215264   3.188   3.074   6.080
 4793SOL     OW15265   2.866   3.303   6.060
 4793SOL    HW115266   2.829   3.376   6.011
 4793SOL    HW215267   2.857   3.328   6.152
 4794SOL     OW15268   2.215   3.672   6.445
 4794SOL    HW115269   2.258   3.587   6.459
 4794SOL    HW215270   2.284   3.736   6.462
 4795SOL     OW15271   3.660   2.923   6.453
 4795SOL    HW115272   3.605   2.903   6.377
 4795SOL    HW215273   3.599   2.927   6.527
 4796SOL     OW15274   3.090   3.401   7.099
 4796SOL    HW115275   3.076   3.328   7.159
 4796SOL    HW215276   3.028   3.385   7.027
 4797SOL     OW15277   3.354   2.576   6.312
 4797SOL    HW115278   3.325   2.556   6.401
 4797SOL    HW215279   3.397   2.661   6.320
 4798SOL     OW15280   2.326   3.124   7.323
 4798SOL    HW115281   2.299   3.130   7.231
 4798SOL    HW215282   2.244   3.125   7.373
 4799SOL     OW15283   2.983   3.640   5.817
 4799SOL    HW115284   2.911   3.596   5.863
 4799SOL    HW215285   3.005   3.579   5.746
 4800SOL     OW15286   3.491   3.242   5.673
 4800SOL    HW115287   3.450   3.326   5.658
 4800SOL    HW215288   3.423   3.178   5.655
 4801SOL     OW15289   2.329   3.599   5.908
 4801SOL    HW115290   2.369   3.657   5.972
 4801SOL    HW215291   2.402   3.573   5.851
 4802SOL     OW15292   3.264   1.969   6.012
 4802SOL    HW115293   3.246   1.917   5.934
 4802SOL    HW215294   3.360   1.971   6.018
 4803SOL     OW15295   2.118   3.654   6.819
 4803SOL    HW115296   2.169   3.588   6.866
 4803SOL    HW215297   2.105   3.617   6.731
 4804SOL     OW15298   2.801   3.560   6.484
 4804SOL    HW115299   2.877   3.507   6.506
 4804SOL    HW215300   2.755   3.510   6.417
 4805SOL     OW15301   3.399   2.088   7.311
 4805SOL    HW115302   3.407   2.109   7.404
 4805SOL    HW215303   3.332   2.019   7.308
 4806SOL     OW15304   2.625   2.122   7.321
 4806SOL    HW115305   2.699   2.068   7.348
 4806SOL    HW215306   2.582   2.147   7.403
 4807SOL     OW15307   2.739   3.385   6.782
 4807SOL    HW115308   2.723   3.349   6.695
 4807SOL    HW215309   2.808   3.329   6.818
 4808SOL     OW15310   3.197   2.456   7.021
 4808SOL    HW115311   3.232   2.421   7.103
 4808SOL    HW215312   3.241   2.541   7.012
 4809SOL     OW15313   2.677   3.269   6.531
 4809SOL    HW115314   2.761   3.258   6.487
 4809SOL    HW215315   2.615   3.288   6.460
 4810SOL     OW15316   3.291   3.060   5.627
 4810SOL    HW115317   3.322   2.984   5.676
 4810SOL    HW215318   3.204   3.078   5.663
 4811SOL     OW15319   2.933   2.523   7.045
 4811SOL    HW115320   2.895   2.445   7.086
 4811SOL    HW215321   3.026   2.503   7.037
 4812SOL     OW15322   3.089   3.433   6.378
 4812SOL    HW115323   3.107   3.501   6.314
 4812SOL    HW215324   3.156   3.445   6.445
 4813SOL     OW15325   3.132   3.656   6.192
 4813SOL    HW115326   3.177   3.717   6.134
 4813SOL    HW215327   3.068   3.711   6.238
 4814SOL     OW15328   1.955   2.422   6.965
 4814SOL    HW115329   2.041   2.386   6.987
 4814SOL    HW215330   1.940   2.490   7.030
 4815SOL     OW15331   3.299   3.027   6.443
 4815SOL    HW115332   3.229   2.961   6.446
 4815SOL    HW215333   3.318   3.038   6.350
 4816SOL     OW15334   3.326   2.462   6.577
 4816SOL    HW115335   3.292   2.373   6.582
 4816SOL    HW215336   3.392   2.467   6.646
 4817SOL     OW15337   3.709   2.680   5.968
 4817SOL    HW115338   3.765   2.628   6.026
 4817SOL    HW215339   3.680   2.618   5.901
 4818SOL     OW15340   2.353   3.274   5.749
 4818SOL    HW115341   2.275   3.246   5.796
 4818SOL    HW215342   2.339   3.245   5.659
 4819SOL     OW15343   3.531   3.128   6.231
 4819SOL    HW115344   3.626   3.131   6.246
 4819SOL    HW215345   3.500   3.215   6.254
 4820SOL     OW15346   3.254   2.433   5.659
 4820SOL    HW115347   3.206   2.409   5.738
 4820SOL    HW215348   3.344   2.405   5.676
 4821SOL     OW15349   3.615   3.099   7.161
 4821SOL    HW115350   3.702   3.060   7.158
 4821SOL    HW215351   3.630   3.189   7.191
 4822SOL     OW15352   2.922   3.216   6.922
 4822SOL    HW115353   2.847   3.185   6.972
 4822SOL    HW215354   2.998   3.174   6.962
 4823SOL     OW15355   3.468   3.487   7.238
 4823SOL    HW115356   3.465   3.521   7.149
 4823SOL    HW215357   3.551   3.440   7.243
 4824SOL     OW15358   2.990   3.065   6.694
 4824SOL    HW115359   2.930   3.100   6.760
 4824SOL    HW215360   2.952   3.091   6.611
 4825SOL     OW15361   3.491   2.961   6.664
 4825SOL    HW115362   3.487   3.023   6.737
 4825SOL    HW215363   3.413   2.978   6.613
 4826SOL     OW15364   2.791   1.953   6.979
 4826SOL    HW115365   2.815   1.932   6.889
 4826SOL    HW215366   2.870   1.994   7.016
 4827SOL     OW15367   2.846   2.975   7.307
 4827SOL    HW115368   2.754   2.992   7.327
 4827SOL    HW215369   2.845   2.898   7.251
 4828SOL     OW15370   2.259   2.688   6.850
 4828SOL    HW115371   2.339   2.710   6.899
 4828SOL    HW215372   2.233   2.602   6.884
 4829SOL     OW15373   3.127   2.243   6.857
 4829SOL    HW115374   3.160   2.320   6.905
 4829SOL    HW215375   3.037   2.266   6.834
 4830SOL     OW15376   1.930   3.436   6.939
 4830SOL    HW115377   1.898   3.507   6.883
 4830SOL    HW215378   2.026   3.441   6.932
 4831SOL     OW15379   3.108   3.210   5.975
 4831SOL    HW115380   3.165   3.281   6.004
 4831SOL    HW215381   3.021   3.234   6.009
 4832SOL     OW15382   3.140   3.318   6.732
 4832SOL    HW115383   3.195   3.320   6.810
 4832SOL    HW215384   3.085   3.241   6.743
 4833SOL     OW15385   3.443   2.485   6.061
 4833SOL    HW115386   3.403   2.537   6.131
 4833SOL    HW215387   3.489   2.549   6.006
 4834SOL     OW15388   2.209   3.389   6.902
 4834SOL    HW115389   2.195   3.343   6.819
 4834SOL    HW215390   2.304   3.400   6.908
 4835SOL     OW15391   3.461   2.640   7.266
 4835SOL    HW115392   3.375   2.681   7.259
 4835SOL    HW215393   3.513   2.682   7.198
 4836SOL     OW15394   2.862   1.979   7.348
 4836SOL    HW115395   2.910   2.053   7.310
 4836SOL    HW215396   2.911   1.902   7.319
 4837SOL     OW15397   2.358   1.898   7.338
 4837SOL    HW115398   2.321   1.848   7.265
 4837SOL    HW215399   2.290   1.962   7.360
 4838SOL     OW15400   3.218   2.720   6.614
 4838SOL    HW115401   3.130   2.706   6.581
 4838SOL    HW215402   3.258   2.633   6.615
 4839SOL     OW15403   1.920   3.175   6.857
 4839SOL    HW115404   1.943   3.120   6.932
 4839SOL    HW215405   1.917   3.264   6.893
 4840SOL     OW15406   2.646   2.535   6.663
 4840SOL    HW115407   2.636   2.473   6.591
 4840SOL    HW215408   2.589   2.608   6.640
 4841SOL     OW15409   3.595   2.822   7.437
 4841SOL    HW115410   3.548   2.763   7.378
 4841SOL    HW215411   3.536   2.833   7.511
 4842SOL     OW15412   3.478   2.236   5.954
 4842SOL    HW115413   3.503   2.171   6.020
 4842SOL    HW215414   3.458   2.315   6.004
 4843SOL     OW15415   2.925   2.625   6.585
 4843SOL    HW115416   2.906   2.649   6.676
 4843SOL    HW215417   2.875   2.545   6.570
 4844SOL     OW15418   2.844   3.428   7.301
 4844SOL    HW115419   2.829   3.473   7.218
 4844SOL    HW215420   2.887   3.346   7.278
 4845SOL     OW15421   3.717   3.370   7.192
 4845SOL    HW115422   3.735   3.396   7.101
 4845SOL    HW215423   3.799   3.390   7.238
 4846SOL     OW15424   2.224   2.762   7.381
 4846SOL    HW115425   2.293   2.797   7.438
 4846SOL    HW215426   2.271   2.732   7.303
 4847SOL     OW15427   3.395   2.139   5.715
 4847SOL    HW115428   3.335   2.073   5.749
 4847SOL    HW215429   3.433   2.180   5.793
 4848SOL     OW15430   3.152   2.690   5.617
 4848SOL    HW115431   3.193   2.603   5.619
 4848SOL    HW215432   3.184   2.729   5.536
 4849SOL     OW15433   2.922   3.214   6.440
 4849SOL    HW115434   2.937   3.131   6.394
 4849SOL    HW215435   2.990   3.273   6.407
 4850SOL     OW15436   2.995   2.247   7.260
 4850SOL    HW115437   2.950   2.296   7.329
 4850SOL    HW215438   3.085   2.279   7.262
 4851SOL     OW15439   3.023   2.069   7.053
 4851SOL    HW115440   3.014   2.131   7.126
 4851SOL    HW215441   3.068   2.119   6.985
 4852SOL     OW15442   1.952   3.651   6.523
 4852SOL    HW115443   1.921   3.571   6.481
 4852SOL    HW215444   2.041   3.663   6.491
 4853SOL     OW15445   2.353   3.442   6.504
 4853SOL    HW115446   2.425   3.502   6.523
 4853SOL    HW215447   2.388   3.384   6.436
 4854SOL     OW15448   2.847   2.669   6.832
 4854SOL    HW115449   2.888   2.623   6.905
 4854SOL    HW215450   2.766   2.620   6.815
 4855SOL     OW15451   1.888   2.380   6.706
 4855SOL    HW115452   1.970   2.354   6.664
 4855SOL    HW215453   1.912   2.402   6.796
 4856SOL     OW15454   3.238   2.802   7.244
 4856SOL    HW115455   3.259   2.896   7.245
 4856SOL    HW215456   3.238   2.778   7.151
 4857SOL     OW15457   3.507   2.465   6.776
 4857SOL    HW115458   3.496   2.403   6.848
 4857SOL    HW215459   3.594   2.444   6.740
 4858SOL     OW15460   2.109   3.414   7.316
 4858SOL    HW115461   2.083   3.478   7.382
 4858SOL    HW215462   2.107   3.330   7.361
 4859SOL     OW15463   2.791   3.541   7.053
 4859SOL    HW115464   2.765   3.508   6.967
 4859SOL    HW215465   2.789   3.636   7.044
 4860SOL     OW15466   2.007   3.006   7.064
 4860SOL    HW115467   2.011   2.951   7.142
 4860SOL    HW215468   2.020   2.945   6.991
 4861SOL     OW15469   3.190   2.909   6.810
 4861SOL    HW115470   3.214   2.848   6.740
 4861SOL    HW215471   3.119   2.961   6.772
 4862SOL     OW15472   3.179   2.711   5.891
 4862SOL    HW115473   3.102   2.698   5.945
 4862SOL    HW215474   3.147   2.705   5.801
 4863SOL     OW15475   3.632   3.608   6.735
 4863SOL    HW115476   3.692   3.634   6.665
 4863SOL    HW215477   3.608   3.518   6.714
 4864SOL     OW15478   3.103   3.595   6.701
 4864SOL    HW115479   3.185   3.614   6.655
 4864SOL    HW215480   3.108   3.501   6.719
 4865SOL     OW15481   1.930   3.118   6.590
 4865SOL    HW115482   1.942   3.136   6.683
 4865SOL    HW215483   1.849   3.067   6.586
 4866SOL     OW15484   2.539   3.526   7.312
 4866SOL    HW115485   2.487   3.606   7.309
 4866SOL    HW215486   2.603   3.537   7.241
 4867SOL     OW15487   3.580   2.006   6.096
 4867SOL    HW115488   3.655   1.991   6.038
 4867SOL    HW215489   3.565   1.921   6.137
 4868SOL     OW15490   3.251   3.429   6.068
 4868SOL    HW115491   3.313   3.461   6.002
 4868SOL    HW215492   3.205   3.508   6.097
 4869SOL     OW15493   1.998   3.658   7.429
 4869SOL    HW115494   1.947   3.593   7.478
 4869SOL    HW215495   2.045   3.707   7.496
 4870SOL     OW15496   2.679   3.136   7.017
 4870SOL    HW115497   2.651   3.174   7.100
 4870SOL    HW215498   2.608   3.156   6.956
 4871SOL     OW15499   2.533   3.480   5.741
 4871SOL    HW115500   2.542   3.492   5.647
 4871SOL    HW215501   2.479   3.401   5.750
 4872SOL     OW15502   3.492   3.588   6.978
 4872SOL    HW115503   3.540   3.596   6.895
 4872SOL    HW215504   3.479   3.679   7.006
 4873SOL     OW15505   3.701   2.035   6.553
 4873SOL    HW115506   3.731   1.948   6.525
 4873SOL    HW215507   3.614   2.044   6.513
 4874SOL     OW15508   3.068   3.469   5.617
 4874SOL    HW115509   3.060   3.378   5.643
 4874SOL    HW215510   3.004   3.480   5.547
 4875SOL     OW15511   2.686   2.871   6.961
 4875SOL    HW115512   2.729   2.865   6.875
 4875SOL    HW215513   2.687   2.964   6.981
 4876SOL     OW15514   3.355   3.487   5.628
 4876SOL    HW115515   3.261   3.482   5.616
 4876SOL    HW215516   3.391   3.493   5.540
 4877SOL     OW15517   2.232   3.164   7.077
 4877SOL    HW115518   2.217   3.242   7.023
 4877SOL    HW215519   2.155   3.110   7.062
 4878SOL     OW15520   3.473   3.145   6.867
 4878SOL    HW115521   3.533   3.136   6.941
 4878SOL    HW215522   3.413   3.215   6.892
 4879SOL     OW15523   2.934   2.967   6.340
 4879SOL    HW115524   2.853   2.919   6.356
 4879SOL    HW215525   2.968   2.931   6.258
 4880SOL     OW15526   2.460   3.359   6.058
 4880SOL    HW115527   2.507   3.310   5.990
 4880SOL    HW215528   2.394   3.409   6.011
 4881SOL     OW15529   3.582   2.255   6.966
 4881SOL    HW115530   3.655   2.317   6.964
 4881SOL    HW215531   3.611   2.183   6.910
 4882SOL     OW15532   2.101   3.210   5.860
 4882SOL    HW115533   2.006   3.212   5.859
 4882SOL    HW215534   2.125   3.237   5.948
 4883SOL     OW15535   1.976   2.882   7.309
 4883SOL    HW115536   1.897   2.859   7.359
 4883SOL    HW215537   2.047   2.838   7.357
 4884SOL     OW15538   2.550   2.037   7.074
 4884SOL    HW115539   2.638   2.014   7.043
 4884SOL    HW215540   2.564   2.070   7.163
 4885SOL     OW15541   3.293   2.721   6.986
 4885SOL    HW115542   3.245   2.781   6.930
 4885SOL    HW215543   3.383   2.723   6.954
 4886SOL     OW15544   3.042   3.203   5.702
 4886SOL    HW115545   2.951   3.172   5.704
 4886SOL    HW215546   3.070   3.202   5.793
 4887SOL     OW15547   2.479   2.700   7.005
 4887SOL    HW115548   2.542   2.772   6.995
 4887SOL    HW215549   2.530   2.629   7.044
 4888SOL     OW15550   3.346   3.637   6.562
 4888SOL    HW115551   3.371   3.696   6.491
 4888SOL    HW215552   3.428   3.620   6.609
 4889SOL     OW15553   3.332   3.064   7.219
 4889SOL    HW115554   3.320   3.077   7.313
 4889SOL    HW215555   3.425   3.077   7.204
 4890SOL     OW15556   2.243   3.601   7.150
 4890SOL    HW115557   2.158   3.642   7.136
 4890SOL    HW215558   2.224   3.518   7.192
 4891SOL     OW15559   3.532   2.744   6.842
 4891SOL    HW115560   3.527   2.659   6.800
 4891SOL    HW215561   3.524   2.807   6.770
 4892SOL     OW15562   3.626   2.222   7.235
 4892SOL    HW115563   3.608   2.236   7.142
 4892SOL    HW215564   3.555   2.166   7.265
 4893SOL     OW15565   3.605   2.796   7.099
 4893SOL    HW115566   3.606   2.891   7.111
 4893SOL    HW215567   3.591   2.784   7.005
 4894SOL     OW15568   2.730   3.235   5.619
 4894SOL    HW115569   2.688   3.266   5.700
 4894SOL    HW215570   2.747   3.315   5.569
 4895SOL     OW15571   2.523   3.656   6.530
 4895SOL    HW115572   2.502   3.746   6.508
 4895SOL    HW215573   2.619   3.652   6.525
 4896SOL     OW15574   2.712   2.781   6.493
 4896SOL    HW115575   2.793   2.744   6.527
 4896SOL    HW215576   2.696   2.858   6.548
 4897SOL     OW15577   2.945   2.859   5.682
 4897SOL    HW115578   2.915   2.899   5.601
 4897SOL    HW215579   3.013   2.797   5.655
 4898SOL     OW15580   3.718   3.418   6.431
 4898SOL    HW115581   3.641   3.406   6.376
 4898SOL    HW215582   3.711   3.349   6.497
 4899SOL     OW15583   2.087   3.166   7.442
 4899SOL    HW115584   2.018   3.107   7.412
 4899SOL    HW215585   2.068   3.179   7.535
 4900SOL     OW15586   1.949   3.136   6.273
 4900SOL    HW115587   1.952   3.091   6.358
 4900SOL    HW215588   1.989   3.074   6.212
 4901SOL     OW15589   2.541   3.264   7.212
 4901SOL    HW115590   2.461   3.220   7.242
 4901SOL    HW215591   2.537   3.351   7.250
 4902SOL     OW15592   3.677   2.048   6.824
 4902SOL    HW115593   3.683   1.953   6.839
 4902SOL    HW215594   3.685   2.058   6.730
 4903SOL     OW15595   3.562   3.353   6.685
 4903SOL    HW115596   3.482   3.328   6.640
 4903SOL    HW215597   3.577   3.283   6.750
 4904SOL     OW15598   2.681   3.437   6.266
 4904SOL    HW115599   2.685   3.489   6.186
 4904SOL    HW215600   2.597   3.392   6.262
 4905SOL     OW15601   3.301   2.099   6.696
 4905SOL    HW115602   3.308   2.012   6.735
 4905SOL    HW215603   3.237   2.145   6.751
 4906SOL     OW15604   2.635   3.209   5.896
 4906SOL    HW115605   2.598   3.121   5.894
 4906SOL    HW215606   2.715   3.200   5.948
 4907SOL     OW15607   2.482   3.420   6.870
 4907SOL    HW115608   2.484   3.501   6.921
 4907SOL    HW215609   2.570   3.412   6.833
 4908SOL     OW15610   3.446   2.066   6.462
 4908SOL    HW115611   3.387   2.086   6.535
 4908SOL    HW215612   3.449   2.148   6.412
 4909SOL     OW15613   2.745   3.512   5.931
 4909SOL    HW115614   2.674   3.494   5.870
 4909SOL    HW215615   2.715   3.589   5.981
 4910SOL     OW15616   2.057   2.532   7.559
 4910SOL    HW115617   1.983   2.503   7.612
 4910SOL    HW215618   2.071   2.460   7.497
 4911SOL     OW15619   1.848   2.254   8.083
 4911SOL    HW115620   1.766   2.278   8.127
 4911SOL    HW215621   1.835   2.163   8.056
 4912SOL     OW15622   2.428   3.146   8.621
 4912SOL    HW115623   2.341   3.150   8.583
 4912SOL    HW215624   2.443   3.235   8.655
 4913SOL     OW15625   3.421   3.374   8.154
 4913SOL    HW115626   3.377   3.354   8.237
 4913SOL    HW215627   3.350   3.378   8.090
 4914SOL     OW15628   2.993   2.560   8.152
 4914SOL    HW115629   3.042   2.641   8.137
 4914SOL    HW215630   2.949   2.574   8.236
 4915SOL     OW15631   3.628   2.468   7.677
 4915SOL    HW115632   3.608   2.459   7.584
 4915SOL    HW215633   3.592   2.390   7.718
 4916SOL     OW15634   2.618   3.005   8.486
 4916SOL    HW115635   2.549   3.039   8.543
 4916SOL    HW215636   2.653   3.082   8.442
 4917SOL     OW15637   2.728   2.643   9.267
 4917SOL    HW115638   2.718   2.714   9.330
 4917SOL    HW215639   2.752   2.686   9.186
 4918SOL     OW15640   2.562   2.905   8.096
 4918SOL    HW115641   2.621   2.878   8.167
 4918SOL    HW215642   2.486   2.942   8.140
 4919SOL     OW15643   2.572   3.015   9.255
 4919SOL    HW115644   2.620   3.094   9.282
 4919SOL    HW215645   2.488   3.048   9.221
 4920SOL     OW15646   2.193   3.290   8.516
 4920SOL    HW115647   2.120   3.253   8.465
 4920SOL    HW215648   2.244   3.340   8.452
 4921SOL     OW15649   3.323   3.360   8.800
 4921SOL    HW115650   3.370   3.443   8.810
 4921SOL    HW215651   3.265   3.356   8.876
 4922SOL     OW15652   3.475   2.311   8.187
 4922SOL    HW115653   3.399   2.336   8.135
 4922SOL    HW215654   3.493   2.388   8.241
 4923SOL     OW15655   2.082   3.575   7.922
 4923SOL    HW115656   2.104   3.652   7.974
 4923SOL    HW215657   2.153   3.569   7.858
 4924SOL     OW15658   2.998   3.203   9.140
 4924SOL    HW115659   3.038   3.199   9.227
 4924SOL    HW215660   2.945   3.123   9.134
 4925SOL     OW15661   2.092   3.302   7.983
 4925SOL    HW115662   2.075   3.396   7.987
 4925SOL    HW215663   2.031   3.264   8.045
 4926SOL     OW15664   2.117   2.953   8.338
 4926SOL    HW115665   2.112   2.867   8.381
 4926SOL    HW215666   2.058   3.008   8.391
 4927SOL     OW15667   2.476   3.653   8.879
 4927SOL    HW115668   2.393   3.635   8.924
 4927SOL    HW215669   2.498   3.743   8.903
 4928SOL     OW15670   2.446   2.846   7.576
 4928SOL    HW115671   2.492   2.897   7.509
 4928SOL    HW215672   2.486   2.873   7.658
 4929SOL     OW15673   3.458   1.984   8.917
 4929SOL    HW115674   3.459   2.064   8.865
 4929SOL    HW215675   3.446   2.014   9.007
 4930SOL     OW15676   1.970   2.506   8.009
 4930SOL    HW115677   1.936   2.420   8.033
 4930SOL    HW215678   1.966   2.557   8.090
 4931SOL     OW15679   3.704   3.622   7.784
 4931SOL    HW115680   3.764   3.593   7.852
 4931SOL    HW215681   3.729   3.713   7.765
 4932SOL     OW15682   1.893   3.458   7.572
 4932SOL    HW115683   1.874   3.366   7.592
 4932SOL    HW215684   1.869   3.505   7.652
 4933SOL     OW15685   3.551   2.781   8.087
 4933SOL    HW115686   3.636   2.741   8.069
 4933SOL    HW215687   3.531   2.831   8.008
 4934SOL     OW15688   3.507   2.970   7.877
 4934SOL    HW115689   3.593   2.977   7.835
 4934SOL    HW215690   3.512   3.030   7.951
 4935SOL     OW15691   1.998   2.606   9.026
 4935SOL    HW115692   2.039   2.606   9.112
 4935SOL    HW215693   1.941   2.683   9.028
 4936SOL     OW15694   2.474   3.246   8.184
 4936SOL    HW115695   2.428   3.163   8.193
 4936SOL    HW215696   2.459   3.272   8.093
 4937SOL     OW15697   3.152   3.101   8.872
 4937SOL    HW115698   3.184   3.033   8.812
 4937SOL    HW215699   3.208   3.093   8.949
 4938SOL     OW15700   2.671   1.863   7.954
 4938SOL    HW115701   2.712   1.948   7.936
 4938SOL    HW215702   2.578   1.883   7.962
 4939SOL     OW15703   2.042   2.839   8.715
 4939SOL    HW115704   2.129   2.802   8.699
 4939SOL    HW215705   1.981   2.776   8.674
 4940SOL     OW15706   3.394   2.854   7.645
 4940SOL    HW115707   3.323   2.797   7.676
 4940SOL    HW215708   3.433   2.888   7.725
 4941SOL     OW15709   3.047   3.666   9.069
 4941SOL    HW115710   3.060   3.724   8.994
 4941SOL    HW215711   3.063   3.579   9.034
 4942SOL     OW15712   3.328   3.282   8.400
 4942SOL    HW115713   3.260   3.296   8.466
 4942SOL    HW215714   3.316   3.191   8.373
 4943SOL     OW15715   3.522   3.597   8.026
 4943SOL    HW115716   3.500   3.569   7.937
 4943SOL    HW215717   3.496   3.524   8.082
 4944SOL     OW15718   2.491   2.619   7.739
 4944SOL    HW115719   2.485   2.682   7.667
 4944SOL    HW215720   2.400   2.603   7.765
 4945SOL     OW15721   3.142   2.211   8.380
 4945SOL    HW115722   3.052   2.178   8.389
 4945SOL    HW215723   3.192   2.159   8.442
 4946SOL     OW15724   3.443   3.531   7.757
 4946SOL    HW115725   3.533   3.565   7.751
 4946SOL    HW215726   3.418   3.514   7.666
 4947SOL     OW15727   2.668   2.462   8.907
 4947SOL    HW115728   2.668   2.464   9.003
 4947SOL    HW215729   2.595   2.405   8.884
 4948SOL     OW15730   3.256   2.336   9.126
 4948SOL    HW115731   3.257   2.380   9.211
 4948SOL    HW215732   3.318   2.264   9.136
 4949SOL     OW15733   2.818   2.749   9.028
 4949SOL    HW115734   2.875   2.681   8.992
 4949SOL    HW215735   2.773   2.785   8.951
 4950SOL     OW15736   2.862   2.273   8.687
 4950SOL    HW115737   2.784   2.308   8.729
 4950SOL    HW215738   2.830   2.232   8.607
 4951SOL     OW15739   2.933   2.572   7.878
 4951SOL    HW115740   2.940   2.562   7.973
 4951SOL    HW215741   2.852   2.526   7.855
 4952SOL     OW15742   1.951   2.682   8.223
 4952SOL    HW115743   2.033   2.678   8.273
 4952SOL    HW215744   1.906   2.759   8.257
 4953SOL     OW15745   1.990   3.704   9.024
 4953SOL    HW115746   1.989   3.684   9.118
 4953SOL    HW215747   1.898   3.704   8.999
 4954SOL     OW15748   2.754   2.210   7.645
 4954SOL    HW115749   2.796   2.268   7.581
 4954SOL    HW215750   2.760   2.123   7.606
 4955SOL     OW15751   3.573   2.438   9.276
 4955SOL    HW115752   3.535   2.513   9.230
 4955SOL    HW215753   3.597   2.377   9.206
 4956SOL     OW15754   3.238   3.005   7.990
 4956SOL    HW115755   3.316   2.990   7.937
 4956SOL    HW215756   3.185   3.066   7.939
 4957SOL     OW15757   2.870   3.307   7.921
 4957SOL    HW115758   2.830   3.379   7.872
 4957SOL    HW215759   2.854   3.329   8.013
 4958SOL     OW15760   2.216   3.669   8.307
 4958SOL    HW115761   2.260   3.584   8.316
 4958SOL    HW215762   2.285   3.733   8.325
 4959SOL     OW15763   3.660   2.922   8.315
 4959SOL    HW115764   3.604   2.904   8.240
 4959SOL    HW215765   3.599   2.927   8.389
 4960SOL     OW15766   3.090   3.401   8.961
 4960SOL    HW115767   3.076   3.328   9.021
 4960SOL    HW215768   3.029   3.385   8.889
 4961SOL     OW15769   2.186   2.810   7.698
 4961SOL    HW115770   2.267   2.829   7.650
 4961SOL    HW215771   2.148   2.735   7.652
 4962SOL     OW15772   3.339   2.601   8.175
 4962SOL    HW115773   3.328   2.558   8.259
 4962SOL    HW215774   3.415   2.658   8.187
 4963SOL     OW15775   2.326   3.125   9.185
 4963SOL    HW115776   2.299   3.130   9.094
 4963SOL    HW215777   2.245   3.125   9.235
 4964SOL     OW15778   2.983   3.640   7.679
 4964SOL    HW115779   2.911   3.597   7.726
 4964SOL    HW215780   3.005   3.579   7.609
 4965SOL     OW15781   3.491   3.241   7.534
 4965SOL    HW115782   3.450   3.326   7.520
 4965SOL    HW215783   3.422   3.178   7.516
 4966SOL     OW15784   2.329   3.600   7.769
 4966SOL    HW115785   2.369   3.657   7.834
 4966SOL    HW215786   2.401   3.571   7.714
 4967SOL     OW15787   3.263   1.970   7.879
 4967SOL    HW115788   3.252   1.945   7.787
 4967SOL    HW215789   3.358   1.976   7.891
 4968SOL     OW15790   2.117   3.654   8.681
 4968SOL    HW115791   2.169   3.589   8.728
 4968SOL    HW215792   2.106   3.617   8.593
 4969SOL     OW15793   2.800   3.560   8.348
 4969SOL    HW115794   2.877   3.508   8.368
 4969SOL    HW215795   2.755   3.511   8.279
 4970SOL     OW15796   3.399   2.087   9.173
 4970SOL    HW115797   3.408   2.108   9.266
 4970SOL    HW215798   3.330   2.021   9.170
 4971SOL     OW15799   2.498   1.983   7.560
 4971SOL    HW115800   2.572   1.923   7.568
 4971SOL    HW215801   2.451   1.953   7.482
 4972SOL     OW15802   2.634   2.117   9.198
 4972SOL    HW115803   2.712   2.062   9.206
 4972SOL    HW215804   2.589   2.107   9.282
 4973SOL     OW15805   2.738   3.383   8.642
 4973SOL    HW115806   2.723   3.347   8.554
 4973SOL    HW215807   2.808   3.329   8.678
 4974SOL     OW15808   3.203   2.451   8.880
 4974SOL    HW115809   3.234   2.419   8.965
 4974SOL    HW215810   3.240   2.539   8.873
 4975SOL     OW15811   2.676   3.259   8.385
 4975SOL    HW115812   2.760   3.248   8.341
 4975SOL    HW215813   2.611   3.258   8.315
 4976SOL     OW15814   2.788   2.369   8.356
 4976SOL    HW115815   2.765   2.363   8.263
 4976SOL    HW215816   2.825   2.283   8.377
 4977SOL     OW15817   2.401   1.933   7.952
 4977SOL    HW115818   2.341   1.942   8.026
 4977SOL    HW215819   2.387   2.012   7.900
 4978SOL     OW15820   3.290   3.060   7.489
 4978SOL    HW115821   3.321   2.984   7.539
 4978SOL    HW215822   3.204   3.080   7.527
 4979SOL     OW15823   2.797   2.109   7.908
 4979SOL    HW115824   2.775   2.148   7.823
 4979SOL    HW215825   2.892   2.118   7.915
 4980SOL     OW15826   2.942   2.542   8.905
 4980SOL    HW115827   2.875   2.474   8.910
 4980SOL    HW215828   3.025   2.494   8.899
 4981SOL     OW15829   3.086   3.432   8.242
 4981SOL    HW115830   3.104   3.499   8.176
 4981SOL    HW215831   3.154   3.444   8.308
 4982SOL     OW15832   2.328   3.011   8.184
 4982SOL    HW115833   2.258   2.992   8.246
 4982SOL    HW215834   2.289   2.993   8.098
 4983SOL     OW15835   3.132   3.656   8.054
 4983SOL    HW115836   3.177   3.718   7.996
 4983SOL    HW215837   3.068   3.710   8.100
 4984SOL     OW15838   2.888   2.406   7.467
 4984SOL    HW115839   2.837   2.485   7.449
 4984SOL    HW215840   2.949   2.432   7.536
 4985SOL     OW15841   1.944   2.425   8.827
 4985SOL    HW115842   2.035   2.397   8.839
 4985SOL    HW215843   1.930   2.491   8.895
 4986SOL     OW15844   2.736   2.316   8.092
 4986SOL    HW115845   2.698   2.381   8.033
 4986SOL    HW215846   2.755   2.241   8.036
 4987SOL     OW15847   2.875   1.914   8.201
 4987SOL    HW115848   2.818   1.904   8.125
 4987SOL    HW215849   2.855   1.838   8.256
 4988SOL     OW15850   3.298   3.025   8.305
 4988SOL    HW115851   3.230   2.958   8.305
 4988SOL    HW215852   3.320   3.037   8.213
 4989SOL     OW15853   3.329   2.465   8.427
 4989SOL    HW115854   3.280   2.383   8.432
 4989SOL    HW215855   3.390   2.461   8.501
 4990SOL     OW15856   3.709   2.680   7.829
 4990SOL    HW115857   3.765   2.628   7.888
 4990SOL    HW215858   3.680   2.617   7.763
 4991SOL     OW15859   2.353   3.278   7.608
 4991SOL    HW115860   2.279   3.248   7.660
 4991SOL    HW215861   2.335   3.246   7.519
 4992SOL     OW15862   3.531   3.127   8.094
 4992SOL    HW115863   3.626   3.131   8.109
 4992SOL    HW215864   3.500   3.215   8.117
 4993SOL     OW15865   3.256   2.434   7.519
 4993SOL    HW115866   3.195   2.415   7.590
 4993SOL    HW215867   3.340   2.401   7.550
 4994SOL     OW15868   3.615   3.099   9.023
 4994SOL    HW115869   3.702   3.060   9.020
 4994SOL    HW215870   3.630   3.189   9.053
 4995SOL     OW15871   2.922   3.217   8.783
 4995SOL    HW115872   2.847   3.185   8.834
 4995SOL    HW215873   2.998   3.174   8.823
 4996SOL     OW15874   3.468   3.487   9.100
 4996SOL    HW115875   3.465   3.521   9.011
 4996SOL    HW215876   3.552   3.440   9.105
 4997SOL     OW15877   2.990   3.066   8.555
 4997SOL    HW115878   2.930   3.102   8.620
 4997SOL    HW215879   2.955   3.095   8.470
 4998SOL     OW15880   3.492   2.961   8.526
 4998SOL    HW115881   3.487   3.023   8.599
 4998SOL    HW215882   3.411   2.977   8.477
 4999SOL     OW15883   2.785   1.957   8.846
 4999SOL    HW115884   2.807   1.940   8.754
 4999SOL    HW215885   2.865   1.998   8.882
 5000SOL     OW15886   2.846   2.976   9.169
 5000SOL    HW115887   2.754   2.992   9.189
 5000SOL    HW215888   2.846   2.899   9.113
 5001SOL     OW15889   2.569   2.925   7.816
 5001SOL    HW115890   2.561   2.919   7.911
 5001SOL    HW215891   2.644   2.869   7.794
 5002SOL     OW15892   2.275   2.704   8.698
 5002SOL    HW115893   2.345   2.714   8.763
 5002SOL    HW215894   2.243   2.615   8.710
 5003SOL     OW15895   3.132   2.240   8.722
 5003SOL    HW115896   3.163   2.318   8.768
 5003SOL    HW215897   3.042   2.260   8.697
 5004SOL     OW15898   1.931   3.435   8.799
 5004SOL    HW115899   1.899   3.508   8.746
 5004SOL    HW215900   2.026   3.441   8.794
 5005SOL     OW15901   2.215   2.967   7.938
 5005SOL    HW115902   2.219   3.045   7.882
 5005SOL    HW215903   2.211   2.894   7.876
 5006SOL     OW15904   3.110   3.210   7.837
 5006SOL    HW115905   3.166   3.282   7.868
 5006SOL    HW215906   3.023   3.231   7.871
 5007SOL     OW15907   3.140   3.318   8.594
 5007SOL    HW115908   3.195   3.320   8.672
 5007SOL    HW215909   3.086   3.241   8.604
 5008SOL     OW15910   3.444   2.486   7.925
 5008SOL    HW115911   3.399   2.540   7.990
 5008SOL    HW215912   3.489   2.550   7.868
 5009SOL     OW15913   2.209   3.388   8.765
 5009SOL    HW115914   2.196   3.345   8.680
 5009SOL    HW215915   2.304   3.400   8.771
 5010SOL     OW15916   3.461   2.640   9.129
 5010SOL    HW115917   3.375   2.680   9.121
 5010SOL    HW215918   3.513   2.682   9.060
 5011SOL     OW15919   2.866   1.978   9.208
 5011SOL    HW115920   2.915   2.052   9.174
 5011SOL    HW215921   2.915   1.901   9.178
 5012SOL     OW15922   2.359   1.905   9.201
 5012SOL    HW115923   2.319   1.853   9.131
 5012SOL    HW215924   2.308   1.986   9.203
 5013SOL     OW15925   2.434   2.738   8.473
 5013SOL    HW115926   2.481   2.822   8.470
 5013SOL    HW215927   2.386   2.741   8.556
 5014SOL     OW15928   3.221   2.721   8.479
 5014SOL    HW115929   3.137   2.712   8.434
 5014SOL    HW215930   3.259   2.634   8.476
 5015SOL     OW15931   3.070   2.391   7.717
 5015SOL    HW115932   3.075   2.312   7.771
 5015SOL    HW215933   3.032   2.457   7.774
 5016SOL     OW15934   1.909   3.173   8.725
 5016SOL    HW115935   1.942   3.120   8.797
 5016SOL    HW215936   1.915   3.263   8.756
 5017SOL     OW15937   2.640   2.552   8.532
 5017SOL    HW115938   2.665   2.492   8.462
 5017SOL    HW215939   2.568   2.603   8.495
 5018SOL     OW15940   3.595   2.822   9.299
 5018SOL    HW115941   3.549   2.763   9.240
 5018SOL    HW215942   3.536   2.833   9.373
 5019SOL     OW15943   3.477   2.235   7.816
 5019SOL    HW115944   3.504   2.171   7.883
 5019SOL    HW215945   3.454   2.313   7.866
 5020SOL     OW15946   2.901   2.621   8.409
 5020SOL    HW115947   2.895   2.646   8.501
 5020SOL    HW215948   2.862   2.534   8.404
 5021SOL     OW15949   2.844   3.428   9.163
 5021SOL    HW115950   2.829   3.472   9.080
 5021SOL    HW215951   2.887   3.346   9.140
 5022SOL     OW15952   3.717   3.370   9.054
 5022SOL    HW115953   3.734   3.396   8.963
 5022SOL    HW215954   3.799   3.390   9.100
 5023SOL     OW15955   2.223   2.769   9.246
 5023SOL    HW115956   2.294   2.801   9.301
 5023SOL    HW215957   2.267   2.719   9.177
 5024SOL     OW15958   3.392   2.135   7.575
 5024SOL    HW115959   3.328   2.070   7.601
 5024SOL    HW215960   3.425   2.171   7.658
 5025SOL     OW15961   3.155   2.689   7.480
 5025SOL    HW115962   3.198   2.603   7.484
 5025SOL    HW215963   3.187   2.727   7.398
 5026SOL     OW15964   2.926   3.197   8.300
 5026SOL    HW115965   2.929   3.124   8.239
 5026SOL    HW215966   2.989   3.260   8.266
 5027SOL     OW15967   2.175   2.672   8.391
 5027SOL    HW115968   2.266   2.701   8.390
 5027SOL    HW215969   2.176   2.590   8.440
 5028SOL     OW15970   2.996   2.241   9.127
 5028SOL    HW115971   2.949   2.294   9.191
 5028SOL    HW215972   3.084   2.278   9.124
 5029SOL     OW15973   3.024   2.066   8.918
 5029SOL    HW115974   3.014   2.129   8.989
 5029SOL    HW215975   3.063   2.118   8.847
 5030SOL     OW15976   1.867   3.183   7.642
 5030SOL    HW115977   1.780   3.198   7.605
 5030SOL    HW215978   1.864   3.094   7.676
 5031SOL     OW15979   1.952   3.650   8.385
 5031SOL    HW115980   1.922   3.570   8.342
 5031SOL    HW215981   2.042   3.662   8.354
 5032SOL     OW15982   2.360   3.435   8.354
 5032SOL    HW115983   2.429   3.497   8.378
 5032SOL    HW215984   2.404   3.371   8.299
 5033SOL     OW15985   2.854   2.669   8.675
 5033SOL    HW115986   2.892   2.630   8.754
 5033SOL    HW215987   2.773   2.620   8.662
 5034SOL     OW15988   1.901   2.414   8.560
 5034SOL    HW115989   1.967   2.356   8.523
 5034SOL    HW215990   1.921   2.417   8.653
 5035SOL     OW15991   3.238   2.803   9.107
 5035SOL    HW115992   3.259   2.896   9.106
 5035SOL    HW215993   3.236   2.778   9.014
 5036SOL     OW15994   2.714   2.452   7.794
 5036SOL    HW115995   2.705   2.375   7.738
 5036SOL    HW215996   2.638   2.506   7.772
 5037SOL     OW15997   3.505   2.464   8.636
 5037SOL    HW115998   3.494   2.404   8.710
 5037SOL    HW215999   3.591   2.443   8.601
 5038SOL     OW16000   2.108   3.414   9.177
 5038SOL    HW116001   2.083   3.478   9.244
 5038SOL    HW216002   2.107   3.330   9.223
 5039SOL     OW16003   2.791   3.541   8.915
 5039SOL    HW116004   2.765   3.508   8.829
 5039SOL    HW216005   2.788   3.636   8.906
 5040SOL     OW16006   2.009   3.004   8.923
 5040SOL    HW116007   2.012   2.949   9.001
 5040SOL    HW216008   2.022   2.943   8.850
 5041SOL     OW16009   3.190   2.911   8.672
 5041SOL    HW116010   3.214   2.847   8.604
 5041SOL    HW216011   3.118   2.961   8.634
 5042SOL     OW16012   3.171   2.718   7.756
 5042SOL    HW116013   3.096   2.687   7.806
 5042SOL    HW216014   3.146   2.705   7.664
 5043SOL     OW16015   3.632   3.608   8.597
 5043SOL    HW116016   3.692   3.634   8.527
 5043SOL    HW216017   3.608   3.518   8.576
 5044SOL     OW16018   3.103   3.595   8.564
 5044SOL    HW116019   3.185   3.614   8.517
 5044SOL    HW216020   3.107   3.501   8.581
 5045SOL     OW16021   1.946   3.128   8.461
 5045SOL    HW116022   1.932   3.140   8.555
 5045SOL    HW216023   1.871   3.075   8.433
 5046SOL     OW16024   2.539   3.527   9.174
 5046SOL    HW116025   2.487   3.607   9.171
 5046SOL    HW216026   2.603   3.537   9.104
 5047SOL     OW16027   3.580   2.006   7.959
 5047SOL    HW116028   3.654   1.992   7.900
 5047SOL    HW216029   3.565   1.920   7.999
 5048SOL     OW16030   3.252   3.430   7.931
 5048SOL    HW116031   3.313   3.461   7.864
 5048SOL    HW216032   3.204   3.508   7.959
 5049SOL     OW16033   1.998   3.658   9.291
 5049SOL    HW116034   1.947   3.594   9.340
 5049SOL    HW216035   2.045   3.707   9.358
 5050SOL     OW16036   3.139   2.786   8.119
 5050SOL    HW116037   3.213   2.725   8.124
 5050SOL    HW216038   3.173   2.860   8.067
 5051SOL     OW16039   2.679   3.136   8.878
 5051SOL    HW116040   2.652   3.174   8.962
 5051SOL    HW216041   2.608   3.157   8.818
 5052SOL     OW16042   2.534   3.480   7.604
 5052SOL    HW116043   2.543   3.491   7.509
 5052SOL    HW216044   2.480   3.402   7.613
 5053SOL     OW16045   3.492   3.588   8.840
 5053SOL    HW116046   3.540   3.596   8.757
 5053SOL    HW216047   3.479   3.679   8.868
 5054SOL     OW16048   3.702   2.035   8.416
 5054SOL    HW116049   3.731   1.948   8.387
 5054SOL    HW216050   3.616   2.046   8.376
 5055SOL     OW16051   3.068   3.469   7.479
 5055SOL    HW116052   3.059   3.378   7.507
 5055SOL    HW216053   3.003   3.480   7.410
 5056SOL     OW16054   2.688   2.870   8.821
 5056SOL    HW116055   2.734   2.861   8.737
 5056SOL    HW216056   2.691   2.964   8.840
 5057SOL     OW16057   2.779   2.776   7.737
 5057SOL    HW116058   2.841   2.807   7.671
 5057SOL    HW216059   2.826   2.706   7.783
 5058SOL     OW16060   3.356   3.486   7.490
 5058SOL    HW116061   3.261   3.482   7.478
 5058SOL    HW216062   3.391   3.493   7.402
 5059SOL     OW16063   2.232   3.164   8.940
 5059SOL    HW116064   2.218   3.241   8.885
 5059SOL    HW216065   2.154   3.110   8.924
 5060SOL     OW16066   3.474   3.145   8.729
 5060SOL    HW116067   3.532   3.136   8.804
 5060SOL    HW216068   3.413   3.215   8.754
 5061SOL     OW16069   2.913   2.968   8.154
 5061SOL    HW116070   2.842   2.917   8.194
 5061SOL    HW216071   2.974   2.902   8.120
 5062SOL     OW16072   2.881   2.101   8.414
 5062SOL    HW116073   2.877   2.053   8.331
 5062SOL    HW216074   2.878   2.033   8.481
 5063SOL     OW16075   2.464   3.351   7.930
 5063SOL    HW116076   2.506   3.300   7.860
 5063SOL    HW216077   2.396   3.401   7.885
 5064SOL     OW16078   3.582   2.254   8.828
 5064SOL    HW116079   3.654   2.317   8.826
 5064SOL    HW216080   3.612   2.182   8.772
 5065SOL     OW16081   2.120   3.208   7.736
 5065SOL    HW116082   2.027   3.206   7.713
 5065SOL    HW216083   2.123   3.245   7.824
 5066SOL     OW16084   1.975   2.880   9.169
 5066SOL    HW116085   1.898   2.858   9.221
 5066SOL    HW216086   2.048   2.841   9.216
 5067SOL     OW16087   2.544   2.046   8.943
 5067SOL    HW116088   2.629   2.025   8.906
 5067SOL    HW216089   2.563   2.078   9.032
 5068SOL     OW16090   1.880   2.234   7.489
 5068SOL    HW116091   1.807   2.190   7.447
 5068SOL    HW216092   1.924   2.281   7.417
 5069SOL     OW16093   3.293   2.721   8.849
 5069SOL    HW116094   3.244   2.780   8.793
 5069SOL    HW216095   3.383   2.723   8.815
 5070SOL     OW16096   3.041   3.203   7.565
 5070SOL    HW116097   2.951   3.171   7.568
 5070SOL    HW216098   3.070   3.203   7.656
 5071SOL     OW16099   2.485   2.700   8.872
 5071SOL    HW116100   2.541   2.777   8.860
 5071SOL    HW216101   2.547   2.627   8.882
 5072SOL     OW16102   3.346   3.637   8.424
 5072SOL    HW116103   3.371   3.696   8.353
 5072SOL    HW216104   3.428   3.620   8.471
 5073SOL     OW16105   3.332   3.064   9.081
 5073SOL    HW116106   3.320   3.077   9.175
 5073SOL    HW216107   3.425   3.077   9.066
 5074SOL     OW16108   2.243   3.601   9.012
 5074SOL    HW116109   2.158   3.642   8.999
 5074SOL    HW216110   2.224   3.517   9.054
 5075SOL     OW16111   3.533   2.744   8.704
 5075SOL    HW116112   3.525   2.658   8.661
 5075SOL    HW216113   3.524   2.807   8.632
 5076SOL     OW16114   3.079   2.181   7.906
 5076SOL    HW116115   3.143   2.110   7.897
 5076SOL    HW216116   3.108   2.230   7.983
 5077SOL     OW16117   2.507   2.646   8.111
 5077SOL    HW116118   2.531   2.737   8.092
 5077SOL    HW216119   2.421   2.635   8.073
 5078SOL     OW16120   3.626   2.222   9.097
 5078SOL    HW116121   3.608   2.236   9.004
 5078SOL    HW216122   3.555   2.166   9.127
 5079SOL     OW16123   3.607   2.796   8.960
 5079SOL    HW116124   3.606   2.890   8.973
 5079SOL    HW216125   3.591   2.784   8.867
 5080SOL     OW16126   2.723   3.230   7.479
 5080SOL    HW116127   2.686   3.256   7.563
 5080SOL    HW216128   2.743   3.312   7.435
 5081SOL     OW16129   2.521   3.655   8.395
 5081SOL    HW116130   2.501   3.745   8.371
 5081SOL    HW216131   2.617   3.649   8.387
 5082SOL     OW16132   2.729   2.829   8.305
 5082SOL    HW116133   2.776   2.755   8.343
 5082SOL    HW216134   2.696   2.878   8.380
 5083SOL     OW16135   2.944   2.853   7.537
 5083SOL    HW116136   2.921   2.901   7.457
 5083SOL    HW216137   3.017   2.797   7.511
 5084SOL     OW16138   3.718   3.418   8.293
 5084SOL    HW116139   3.640   3.406   8.238
 5084SOL    HW216140   3.710   3.349   8.360
 5085SOL     OW16141   2.087   3.166   9.304
 5085SOL    HW116142   2.017   3.107   9.275
 5085SOL    HW216143   2.069   3.180   9.397
 5086SOL     OW16144   1.945   3.098   8.113
 5086SOL    HW116145   1.946   3.047   8.194
 5086SOL    HW216146   2.013   3.057   8.059
 5087SOL     OW16147   2.541   3.264   9.073
 5087SOL    HW116148   2.462   3.220   9.104
 5087SOL    HW216149   2.537   3.352   9.112
 5088SOL     OW16150   3.676   2.047   8.686
 5088SOL    HW116151   3.685   1.953   8.701
 5088SOL    HW216152   3.685   2.057   8.592
 5089SOL     OW16153   3.562   3.353   8.547
 5089SOL    HW116154   3.482   3.328   8.502
 5089SOL    HW216155   3.576   3.283   8.612
 5090SOL     OW16156   2.688   3.440   8.127
 5090SOL    HW116157   2.679   3.487   8.044
 5090SOL    HW216158   2.610   3.384   8.131
 5091SOL     OW16159   3.294   2.086   8.566
 5091SOL    HW116160   3.322   2.007   8.613
 5091SOL    HW216161   3.243   2.135   8.629
 5092SOL     OW16162   2.871   1.882   8.591
 5092SOL    HW116163   2.817   1.811   8.555
 5092SOL    HW216164   2.960   1.845   8.594
 5093SOL     OW16165   2.634   3.194   7.759
 5093SOL    HW116166   2.601   3.105   7.765
 5093SOL    HW216167   2.716   3.193   7.809
 5094SOL     OW16168   2.482   3.420   8.732
 5094SOL    HW116169   2.485   3.501   8.783
 5094SOL    HW216170   2.569   3.412   8.694
 5095SOL     OW16171   3.214   1.916   7.612
 5095SOL    HW116172   3.241   1.854   7.544
 5095SOL    HW216173   3.127   1.885   7.639
 5096SOL     OW16174   3.159   2.322   8.130
 5096SOL    HW116175   3.106   2.401   8.138
 5096SOL    HW216176   3.156   2.282   8.217
 5097SOL     OW16177   3.449   2.066   8.325
 5097SOL    HW116178   3.386   2.085   8.395
 5097SOL    HW216179   3.449   2.145   8.270
 5098SOL     OW16180   1.905   2.934   7.754
 5098SOL    HW116181   1.999   2.925   7.738
 5098SOL    HW216182   1.876   2.846   7.777
 5099SOL     OW16183   2.744   3.513   7.792
 5099SOL    HW116184   2.673   3.495   7.731
 5099SOL    HW216185   2.715   3.589   7.842
 5100SOL     OW16186   2.066   2.522   9.417
 5100SOL    HW116187   1.981   2.498   9.454
 5100SOL    HW216188   2.083   2.456   9.351
 5101SOL     OW16189   1.839   2.268   9.937
 5101SOL    HW116190   1.759   2.289   9.985
 5101SOL    HW216191   1.831   2.176   9.914
 5102SOL     OW16192   2.429   3.146  10.484
 5102SOL    HW116193   2.341   3.149  10.445
 5102SOL    HW216194   2.443   3.235  10.517
 5103SOL     OW16195   3.421   3.374  10.016
 5103SOL    HW116196   3.378   3.355  10.099
 5103SOL    HW216197   3.350   3.378   9.952
 5104SOL     OW16198   2.991   2.560  10.013
 5104SOL    HW116199   3.041   2.641   9.997
 5104SOL    HW216200   2.949   2.575  10.097
 5105SOL     OW16201   3.628   2.468   9.540
 5105SOL    HW116202   3.608   2.460   9.446
 5105SOL    HW216203   3.592   2.389   9.579
 5106SOL     OW16204   2.620   3.006  10.349
 5106SOL    HW116205   2.550   3.039  10.405
 5106SOL    HW216206   2.654   3.083  10.304
 5107SOL     OW16207   2.692   2.675   0.031
 5107SOL    HW116208   2.721   2.722   0.109
 5107SOL    HW216209   2.743   2.713  11.059
 5108SOL     OW16210   2.553   2.883   9.958
 5108SOL    HW116211   2.615   2.862  10.027
 5108SOL    HW216212   2.482   2.929  10.002
 5109SOL     OW16213   2.194   3.288  10.377
 5109SOL    HW116214   2.120   3.253  10.327
 5109SOL    HW216215   2.243   3.340  10.313
 5110SOL     OW16216   3.325   3.362  10.658
 5110SOL    HW116217   3.378   3.441  10.667
 5110SOL    HW216218   3.276   3.356  10.740
 5111SOL     OW16219   3.475   2.311  10.050
 5111SOL    HW116220   3.399   2.336   9.996
 5111SOL    HW216221   3.494   2.389  10.102
 5112SOL     OW16222   2.082   3.575   9.784
 5112SOL    HW116223   2.104   3.652   9.836
 5112SOL    HW216224   2.153   3.569   9.720
 5113SOL     OW16225   2.092   3.302   9.845
 5113SOL    HW116226   2.075   3.396   9.849
 5113SOL    HW216227   2.030   3.264   9.907
 5114SOL     OW16228   2.117   2.956  10.200
 5114SOL    HW116229   2.113   2.869  10.240
 5114SOL    HW216230   2.058   3.009  10.253
 5115SOL     OW16231   2.475   3.651  10.740
 5115SOL    HW116232   2.394   3.633  10.788
 5115SOL    HW216233   2.497   3.741  10.764
 5116SOL     OW16234   2.444   2.852   9.435
 5116SOL    HW116235   2.491   2.901   9.368
 5116SOL    HW216236   2.484   2.879   9.517
 5117SOL     OW16237   3.451   1.978  10.779
 5117SOL    HW116238   3.461   2.058  10.728
 5117SOL    HW216239   3.453   2.007  10.870
 5118SOL     OW16240   1.969   2.508   9.868
 5118SOL    HW116241   1.934   2.423   9.893
 5118SOL    HW216242   1.969   2.559   9.949
 5119SOL     OW16243   3.704   3.622   9.646
 5119SOL    HW116244   3.765   3.593   9.714
 5119SOL    HW216245   3.729   3.713   9.627
 5120SOL     OW16246   1.893   3.458   9.434
 5120SOL    HW116247   1.874   3.366   9.454
 5120SOL    HW216248   1.869   3.505   9.514
 5121SOL     OW16249   3.551   2.781   9.949
 5121SOL    HW116250   3.636   2.741   9.931
 5121SOL    HW216251   3.531   2.831   9.870
 5122SOL     OW16252   3.507   2.970   9.739
 5122SOL    HW116253   3.593   2.977   9.697
 5122SOL    HW216254   3.512   3.030   9.814
 5123SOL     OW16255   1.996   2.604  10.891
 5123SOL    HW116256   2.031   2.604  10.980
 5123SOL    HW216257   1.937   2.679  10.887
 5124SOL     OW16258   2.475   3.246  10.046
 5124SOL    HW116259   2.428   3.163  10.055
 5124SOL    HW216260   2.459   3.272   9.955
 5125SOL     OW16261   3.158   3.099  10.751
 5125SOL    HW116262   3.182   3.039  10.681
 5125SOL    HW216263   3.214   3.075  10.825
 5126SOL     OW16264   2.673   1.862   9.817
 5126SOL    HW116265   2.713   1.946   9.798
 5126SOL    HW216266   2.579   1.881   9.825
 5127SOL     OW16267   2.044   2.838  10.572
 5127SOL    HW116268   2.129   2.794  10.564
 5127SOL    HW216269   1.981   2.775  10.539
 5128SOL     OW16270   3.394   2.854   9.507
 5128SOL    HW116271   3.324   2.796   9.537
 5128SOL    HW216272   3.433   2.888   9.587
 5129SOL     OW16273   3.057   3.667  10.927
 5129SOL    HW116274   3.058   3.730  10.854
 5129SOL    HW216275   3.065   3.582  10.885
 5130SOL     OW16276   3.328   3.282  10.262
 5130SOL    HW116277   3.259   3.297  10.327
 5130SOL    HW216278   3.316   3.191  10.235
 5131SOL     OW16279   3.522   3.597   9.888
 5131SOL    HW116280   3.500   3.569   9.799
 5131SOL    HW216281   3.497   3.524   9.944
 5132SOL     OW16282   2.515   2.641   9.606
 5132SOL    HW116283   2.510   2.690   9.524
 5132SOL    HW216284   2.426   2.646   9.643
 5133SOL     OW16285   3.142   2.212  10.243
 5133SOL    HW116286   3.052   2.178  10.250
 5133SOL    HW216287   3.192   2.159  10.304
 5134SOL     OW16288   3.443   3.531   9.619
 5134SOL    HW116289   3.533   3.564   9.613
 5134SOL    HW216290   3.418   3.514   9.528
 5135SOL     OW16291   2.829   2.756  10.901
 5135SOL    HW116292   2.873   2.682  10.860
 5135SOL    HW216293   2.781   2.798  10.830
 5136SOL     OW16294   2.859   2.270  10.548
 5136SOL    HW116295   2.777   2.303  10.585
 5136SOL    HW216296   2.832   2.229  10.465
 5137SOL     OW16297   2.918   2.564   9.736
 5137SOL    HW116298   2.930   2.557   9.831
 5137SOL    HW216299   2.837   2.516   9.719
 5138SOL     OW16300   1.951   2.685  10.083
 5138SOL    HW116301   2.033   2.680  10.132
 5138SOL    HW216302   1.906   2.761  10.119
 5139SOL     OW16303   1.990   3.702  10.895
 5139SOL    HW116304   1.971   3.670  10.983
 5139SOL    HW216305   1.905   3.707  10.852
 5140SOL     OW16306   2.753   2.208   9.504
 5140SOL    HW116307   2.794   2.269   9.443
 5140SOL    HW216308   2.764   2.122   9.463
 5141SOL     OW16309   3.238   3.004   9.852
 5141SOL    HW116310   3.316   2.990   9.799
 5141SOL    HW216311   3.185   3.066   9.801
 5142SOL     OW16312   2.870   3.307   9.783
 5142SOL    HW116313   2.830   3.379   9.734
 5142SOL    HW216314   2.854   3.329   9.875
 5143SOL     OW16315   2.216   3.669  10.169
 5143SOL    HW116316   2.260   3.584  10.178
 5143SOL    HW216317   2.285   3.733  10.187
 5144SOL     OW16318   3.660   2.922  10.177
 5144SOL    HW116319   3.604   2.904  10.102
 5144SOL    HW216320   3.599   2.926  10.251
 5145SOL     OW16321   3.088   3.401  10.825
 5145SOL    HW116322   3.097   3.314  10.862
 5145SOL    HW216323   3.029   3.389  10.751
 5146SOL     OW16324   2.190   2.807   9.561
 5146SOL    HW116325   2.268   2.831   9.511
 5146SOL    HW216326   2.151   2.735   9.512
 5147SOL     OW16327   3.339   2.601  10.037
 5147SOL    HW116328   3.328   2.558  10.122
 5147SOL    HW216329   3.416   2.657  10.049
 5148SOL     OW16330   2.315   3.130  11.053
 5148SOL    HW116331   2.287   3.139  10.962
 5148SOL    HW216332   2.248   3.074  11.092
 5149SOL     OW16333   2.983   3.640   9.541
 5149SOL    HW116334   2.911   3.597   9.588
 5149SOL    HW216335   3.005   3.579   9.471
 5150SOL     OW16336   3.491   3.241   9.397
 5150SOL    HW116337   3.450   3.326   9.382
 5150SOL    HW216338   3.422   3.178   9.379
 5151SOL     OW16339   2.329   3.600   9.631
 5151SOL    HW116340   2.369   3.657   9.696
 5151SOL    HW216341   2.401   3.571   9.576
 5152SOL     OW16342   3.263   1.970   9.741
 5152SOL    HW116343   3.252   1.945   9.649
 5152SOL    HW216344   3.358   1.976   9.753
 5153SOL     OW16345   2.116   3.654  10.543
 5153SOL    HW116346   2.168   3.591  10.593
 5153SOL    HW216347   2.107   3.615  10.457
 5154SOL     OW16348   2.800   3.560  10.210
 5154SOL    HW116349   2.878   3.508  10.229
 5154SOL    HW216350   2.755   3.511  10.141
 5155SOL     OW16351   2.501   1.987   9.418
 5155SOL    HW116352   2.568   1.920   9.435
 5155SOL    HW216353   2.448   1.951   9.347
 5156SOL     OW16354   2.626   2.143  11.048
 5156SOL    HW116355   2.691   2.085  11.088
 5156SOL    HW216356   2.560   2.155   0.016
 5157SOL     OW16357   2.737   3.383  10.504
 5157SOL    HW116358   2.723   3.348  10.416
 5157SOL    HW216359   2.810   3.331  10.539
 5158SOL     OW16360   3.200   2.456  10.755
 5158SOL    HW116361   3.253   2.431  10.831
 5158SOL    HW216362   3.232   2.543  10.731
 5159SOL     OW16363   2.676   3.259  10.247
 5159SOL    HW116364   2.760   3.248  10.203
 5159SOL    HW216365   2.611   3.258  10.177
 5160SOL     OW16366   2.785   2.366  10.218
 5160SOL    HW116367   2.770   2.361  10.124
 5160SOL    HW216368   2.823   2.281  10.241
 5161SOL     OW16369   2.404   1.931   9.817
 5161SOL    HW116370   2.349   1.946   9.894
 5161SOL    HW216371   2.400   2.013   9.768
 5162SOL     OW16372   3.290   3.060   9.351
 5162SOL    HW116373   3.321   2.984   9.401
 5162SOL    HW216374   3.204   3.080   9.389
 5163SOL     OW16375   2.797   2.107   9.769
 5163SOL    HW116376   2.772   2.148   9.686
 5163SOL    HW216377   2.892   2.117   9.773
 5164SOL     OW16378   2.930   2.533  10.766
 5164SOL    HW116379   2.881   2.463  10.808
 5164SOL    HW216380   3.020   2.501  10.763
 5165SOL     OW16381   3.086   3.432  10.104
 5165SOL    HW116382   3.104   3.499  10.038
 5165SOL    HW216383   3.154   3.444  10.170
 5166SOL     OW16384   2.329   3.011  10.046
 5166SOL    HW116385   2.258   2.994  10.108
 5166SOL    HW216386   2.290   2.993   9.960
 5167SOL     OW16387   3.132   3.656   9.916
 5167SOL    HW116388   3.177   3.717   9.858
 5167SOL    HW216389   3.068   3.710   9.962
 5168SOL     OW16390   2.887   2.406   9.329
 5168SOL    HW116391   2.839   2.486   9.310
 5168SOL    HW216392   2.950   2.431   9.397
 5169SOL     OW16393   1.955   2.416  10.691
 5169SOL    HW116394   2.042   2.381  10.710
 5169SOL    HW216395   1.943   2.486  10.755
 5170SOL     OW16396   2.750   2.313   9.952
 5170SOL    HW116397   2.714   2.377   9.891
 5170SOL    HW216398   2.767   2.236   9.899
 5171SOL     OW16399   2.874   1.915  10.064
 5171SOL    HW116400   2.819   1.904   9.986
 5171SOL    HW216401   2.854   1.839  10.118
 5172SOL     OW16402   3.297   3.026  10.167
 5172SOL    HW116403   3.230   2.957  10.166
 5172SOL    HW216404   3.321   3.038  10.075
 5173SOL     OW16405   3.328   2.466  10.289
 5173SOL    HW116406   3.281   2.383  10.292
 5173SOL    HW216407   3.390   2.461  10.363
 5174SOL     OW16408   3.709   2.680   9.691
 5174SOL    HW116409   3.765   2.628   9.750
 5174SOL    HW216410   3.680   2.617   9.625
 5175SOL     OW16411   2.353   3.278   9.470
 5175SOL    HW116412   2.278   3.248   9.522
 5175SOL    HW216413   2.335   3.246   9.381
 5176SOL     OW16414   3.531   3.127   9.957
 5176SOL    HW116415   3.626   3.131   9.971
 5176SOL    HW216416   3.500   3.215   9.979
 5177SOL     OW16417   3.256   2.434   9.381
 5177SOL    HW116418   3.195   2.415   9.453
 5177SOL    HW216419   3.340   2.400   9.412
 5178SOL     OW16420   3.622   3.091  10.872
 5178SOL    HW116421   3.713   3.062  10.875
 5178SOL    HW216422   3.623   3.178  10.912
 5179SOL     OW16423   2.926   3.216  10.650
 5179SOL    HW116424   2.848   3.183  10.695
 5179SOL    HW216425   2.999   3.168  10.690
 5180SOL     OW16426   2.990   3.068  10.417
 5180SOL    HW116427   2.925   3.101  10.478
 5180SOL    HW216428   2.958   3.095  10.331
 5181SOL     OW16429   3.492   2.961  10.388
 5181SOL    HW116430   3.488   3.023  10.462
 5181SOL    HW216431   3.412   2.978  10.339
 5182SOL     OW16432   2.791   1.956  10.708
 5182SOL    HW116433   2.811   1.939  10.616
 5182SOL    HW216434   2.870   1.998  10.742
 5183SOL     OW16435   2.570   2.928   9.680
 5183SOL    HW116436   2.558   2.915   9.774
 5183SOL    HW216437   2.644   2.872   9.656
 5184SOL     OW16438   2.268   2.688  10.577
 5184SOL    HW116439   2.342   2.706  10.634
 5184SOL    HW216440   2.232   2.605  10.611
 5185SOL     OW16441   3.131   2.242  10.587
 5185SOL    HW116442   3.160   2.322  10.632
 5185SOL    HW216443   3.041   2.262  10.559
 5186SOL     OW16444   1.931   3.437  10.659
 5186SOL    HW116445   1.901   3.510  10.605
 5186SOL    HW216446   2.026   3.442  10.655
 5187SOL     OW16447   2.215   2.967   9.799
 5187SOL    HW116448   2.220   3.045   9.744
 5187SOL    HW216449   2.211   2.894   9.738
 5188SOL     OW16450   3.110   3.210   9.699
 5188SOL    HW116451   3.166   3.282   9.730
 5188SOL    HW216452   3.023   3.231   9.733
 5189SOL     OW16453   3.139   3.320  10.454
 5189SOL    HW116454   3.196   3.322  10.531
 5189SOL    HW216455   3.087   3.240  10.466
 5190SOL     OW16456   3.445   2.486   9.787
 5190SOL    HW116457   3.399   2.541   9.851
 5190SOL    HW216458   3.489   2.549   9.730
 5191SOL     OW16459   2.209   3.385  10.626
 5191SOL    HW116460   2.196   3.343  10.541
 5191SOL    HW216461   2.303   3.400  10.632
 5192SOL     OW16462   3.454   2.624  10.970
 5192SOL    HW116463   3.377   2.680  10.964
 5192SOL    HW216464   3.524   2.673  10.927
 5193SOL     OW16465   2.432   2.738  10.343
 5193SOL    HW116466   2.479   2.821  10.335
 5193SOL    HW216467   2.386   2.744  10.426
 5194SOL     OW16468   3.221   2.722  10.345
 5194SOL    HW116469   3.139   2.714  10.296
 5194SOL    HW216470   3.260   2.635  10.340
 5195SOL     OW16471   3.070   2.391   9.579
 5195SOL    HW116472   3.076   2.312   9.633
 5195SOL    HW216473   3.028   2.456   9.635
 5196SOL     OW16474   1.912   3.174  10.586
 5196SOL    HW116475   1.939   3.120  10.660
 5196SOL    HW216476   1.914   3.263  10.619
 5197SOL     OW16477   2.640   2.539  10.398
 5197SOL    HW116478   2.662   2.475  10.330
 5197SOL    HW216479   2.570   2.592  10.359
 5198SOL     OW16480   3.477   2.235   9.678
 5198SOL    HW116481   3.504   2.171   9.745
 5198SOL    HW216482   3.454   2.313   9.728
 5199SOL     OW16483   2.897   2.621  10.269
 5199SOL    HW116484   2.894   2.645  10.362
 5199SOL    HW216485   2.857   2.534  10.265
 5200SOL     OW16486   2.835   3.434  11.004
 5200SOL    HW116487   2.822   3.484  10.924
 5200SOL    HW216488   2.868   3.349  10.975
 5201SOL     OW16489   3.720   3.357  10.912
 5201SOL    HW116490   3.734   3.392  10.824
 5201SOL    HW216491   3.787   3.400  10.966
 5202SOL     OW16492   2.229   2.768  11.082
 5202SOL    HW116493   2.308   2.797   0.028
 5202SOL    HW216494   2.262   2.718  11.007
 5203SOL     OW16495   3.393   2.135   9.437
 5203SOL    HW116496   3.328   2.070   9.463
 5203SOL    HW216497   3.425   2.171   9.520
 5204SOL     OW16498   3.156   2.689   9.342
 5204SOL    HW116499   3.198   2.603   9.346
 5204SOL    HW216500   3.187   2.727   9.260
 5205SOL     OW16501   2.927   3.197  10.163
 5205SOL    HW116502   2.930   3.124  10.101
 5205SOL    HW216503   2.989   3.260  10.128
 5206SOL     OW16504   2.171   2.681  10.253
 5206SOL    HW116505   2.264   2.703  10.255
 5206SOL    HW216506   2.164   2.602  10.306
 5207SOL     OW16507   3.023   2.072  10.782
 5207SOL    HW116508   3.032   2.129  10.859
 5207SOL    HW216509   3.062   2.122  10.710
 5208SOL     OW16510   1.867   3.183   9.504
 5208SOL    HW116511   1.780   3.198   9.467
 5208SOL    HW216512   1.864   3.094   9.538
 5209SOL     OW16513   1.951   3.651  10.246
 5209SOL    HW116514   1.922   3.570  10.203
 5209SOL    HW216515   2.041   3.662  10.216
 5210SOL     OW16516   2.360   3.436  10.215
 5210SOL    HW116517   2.429   3.498  10.239
 5210SOL    HW216518   2.404   3.371  10.160
 5211SOL     OW16519   2.851   2.668  10.536
 5211SOL    HW116520   2.888   2.627  10.614
 5211SOL    HW216521   2.771   2.619  10.518
 5212SOL     OW16522   1.902   2.421  10.424
 5212SOL    HW116523   1.950   2.348  10.384
 5212SOL    HW216524   1.926   2.417  10.517
 5213SOL     OW16525   2.693   2.431   9.672
 5213SOL    HW116526   2.683   2.358   9.611
 5213SOL    HW216527   2.623   2.492   9.647
 5214SOL     OW16528   3.505   2.463  10.497
 5214SOL    HW116529   3.496   2.404  10.572
 5214SOL    HW216530   3.591   2.444  10.462
 5215SOL     OW16531   2.117   3.426  11.054
 5215SOL    HW116532   2.063   3.464   0.023
 5215SOL    HW216533   2.118   3.332  11.073
 5216SOL     OW16534   2.802   3.544  10.760
 5216SOL    HW116535   2.764   3.512  10.678
 5216SOL    HW216536   2.788   3.639  10.757
 5217SOL     OW16537   2.016   3.001  10.782
 5217SOL    HW116538   2.010   2.944  10.859
 5217SOL    HW216539   2.025   2.941  10.708
 5218SOL     OW16540   3.188   2.915  10.538
 5218SOL    HW116541   3.215   2.850  10.473
 5218SOL    HW216542   3.116   2.963  10.496
 5219SOL     OW16543   3.171   2.718   9.617
 5219SOL    HW116544   3.095   2.688   9.666
 5219SOL    HW216545   3.148   2.705   9.526
 5220SOL     OW16546   3.634   3.608  10.461
 5220SOL    HW116547   3.692   3.634  10.390
 5220SOL    HW216548   3.608   3.518  10.440
 5221SOL     OW16549   3.103   3.596  10.425
 5221SOL    HW116550   3.185   3.616  10.380
 5221SOL    HW216551   3.107   3.502  10.442
 5222SOL     OW16552   1.945   3.129  10.322
 5222SOL    HW116553   1.934   3.141  10.417
 5222SOL    HW216554   1.871   3.075  10.296
 5223SOL     OW16555   3.581   2.006   9.821
 5223SOL    HW116556   3.654   1.992   9.762
 5223SOL    HW216557   3.565   1.920   9.861
 5224SOL     OW16558   3.252   3.430   9.794
 5224SOL    HW116559   3.313   3.461   9.726
 5224SOL    HW216560   3.204   3.508   9.821
 5225SOL     OW16561   3.139   2.786   9.981
 5225SOL    HW116562   3.213   2.725   9.986
 5225SOL    HW216563   3.173   2.860   9.929
 5226SOL     OW16564   2.682   3.135  10.738
 5226SOL    HW116565   2.652   3.169  10.822
 5226SOL    HW216566   2.612   3.156  10.677
 5227SOL     OW16567   2.534   3.480   9.466
 5227SOL    HW116568   2.544   3.491   9.371
 5227SOL    HW216569   2.480   3.402   9.475
 5228SOL     OW16570   3.487   3.581  10.698
 5228SOL    HW116571   3.540   3.595  10.620
 5228SOL    HW216572   3.473   3.669  10.734
 5229SOL     OW16573   3.702   2.035  10.278
 5229SOL    HW116574   3.731   1.949  10.249
 5229SOL    HW216575   3.616   2.046  10.238
 5230SOL     OW16576   3.068   3.469   9.341
 5230SOL    HW116577   3.060   3.378   9.368
 5230SOL    HW216578   3.004   3.480   9.272
 5231SOL     OW16579   2.689   2.867  10.688
 5231SOL    HW116580   2.733   2.857  10.604
 5231SOL    HW216581   2.690   2.961  10.704
 5232SOL     OW16582   2.782   2.781   9.600
 5232SOL    HW116583   2.845   2.808   9.533
 5232SOL    HW216584   2.824   2.706   9.643
 5233SOL     OW16585   3.355   3.486   9.352
 5233SOL    HW116586   3.261   3.482   9.340
 5233SOL    HW216587   3.391   3.493   9.264
 5234SOL     OW16588   2.229   3.167  10.805
 5234SOL    HW116589   2.217   3.242  10.747
 5234SOL    HW216590   2.155   3.110  10.787
 5235SOL     OW16591   3.475   3.144  10.593
 5235SOL    HW116592   3.531   3.133  10.669
 5235SOL    HW216593   3.418   3.217  10.616
 5236SOL     OW16594   2.912   2.968  10.017
 5236SOL    HW116595   2.841   2.916  10.055
 5236SOL    HW216596   2.973   2.903   9.982
 5237SOL     OW16597   2.882   2.101  10.276
 5237SOL    HW116598   2.878   2.054  10.193
 5237SOL    HW216599   2.879   2.033  10.343
 5238SOL     OW16600   2.464   3.351   9.792
 5238SOL    HW116601   2.506   3.300   9.723
 5238SOL    HW216602   2.397   3.401   9.747
 5239SOL     OW16603   3.578   2.256  10.688
 5239SOL    HW116604   3.651   2.318  10.689
 5239SOL    HW216605   3.609   2.184  10.633
 5240SOL     OW16606   2.120   3.207   9.598
 5240SOL    HW116607   2.027   3.206   9.575
 5240SOL    HW216608   2.123   3.245   9.686
 5241SOL     OW16609   1.978   2.874  11.024
 5241SOL    HW116610   1.907   2.856  11.085
 5241SOL    HW216611   2.055   2.835  11.066
 5242SOL     OW16612   2.552   2.038  10.803
 5242SOL    HW116613   2.637   2.015  10.766
 5242SOL    HW216614   2.573   2.081  10.886
 5243SOL     OW16615   3.292   2.711  10.710
 5243SOL    HW116616   3.244   2.779  10.661
 5243SOL    HW216617   3.383   2.720  10.680
 5244SOL     OW16618   1.876   2.006   9.615
 5244SOL    HW116619   1.844   2.090   9.582
 5244SOL    HW216620   1.971   2.016   9.620
 5245SOL     OW16621   3.041   3.203   9.427
 5245SOL    HW116622   2.951   3.171   9.430
 5245SOL    HW216623   3.070   3.203   9.518
 5246SOL     OW16624   2.481   2.700  10.737
 5246SOL    HW116625   2.546   2.769  10.723
 5246SOL    HW216626   2.532   2.625  10.768
 5247SOL     OW16627   3.346   3.637  10.286
 5247SOL    HW116628   3.372   3.695  10.215
 5247SOL    HW216629   3.427   3.620  10.334
 5248SOL     OW16630   2.701   2.445  10.979
 5248SOL    HW116631   2.676   2.512  11.043
 5248SOL    HW216632   2.678   2.363  11.021
 5249SOL     OW16633   2.246   3.594  10.870
 5249SOL    HW116634   2.166   3.647  10.864
 5249SOL    HW216635   2.221   3.521  10.927
 5250SOL     OW16636   3.533   2.744  10.567
 5250SOL    HW116637   3.525   2.659  10.524
 5250SOL    HW216638   3.525   2.808  10.496
 5251SOL     OW16639   3.079   2.180   9.768
 5251SOL    HW116640   3.143   2.110   9.759
 5251SOL    HW216641   3.108   2.230   9.845
 5252SOL     OW16642   2.474   2.625   9.967
 5252SOL    HW116643   2.504   2.715   9.950
 5252SOL    HW216644   2.382   2.626   9.941
 5253SOL     OW16645   3.615   2.182  10.952
 5253SOL    HW116646   3.596   2.219  10.865
 5253SOL    HW216647   3.534   2.196  11.002
 5254SOL     OW16648   3.611   2.798  10.825
 5254SOL    HW116649   3.604   2.892  10.838
 5254SOL    HW216650   3.593   2.785  10.732
 5255SOL     OW16651   2.723   3.230   9.341
 5255SOL    HW116652   2.686   3.257   9.425
 5255SOL    HW216653   2.743   3.313   9.297
 5256SOL     OW16654   2.522   3.655  10.257
 5256SOL    HW116655   2.501   3.745  10.233
 5256SOL    HW216656   2.617   3.650  10.248
 5257SOL     OW16657   2.727   2.827  10.166
 5257SOL    HW116658   2.777   2.755  10.205
 5257SOL    HW216659   2.696   2.878  10.241
 5258SOL     OW16660   2.944   2.851   9.397
 5258SOL    HW116661   2.922   2.900   9.318
 5258SOL    HW216662   3.018   2.797   9.371
 5259SOL     OW16663   3.718   3.418  10.155
 5259SOL    HW116664   3.640   3.406  10.100
 5259SOL    HW216665   3.711   3.350  10.222
 5260SOL     OW16666   1.945   3.097   9.974
 5260SOL    HW116667   1.947   3.048  10.057
 5260SOL    HW216668   2.014   3.057   9.921
 5261SOL     OW16669   2.541   3.256  10.936
 5261SOL    HW116670   2.467   3.206  10.972
 5261SOL    HW216671   2.511   3.347  10.938
 5262SOL     OW16672   3.673   2.046  10.549
 5262SOL    HW116673   3.683   1.952  10.563
 5262SOL    HW216674   3.684   2.058  10.455
 5263SOL     OW16675   3.563   3.353  10.409
 5263SOL    HW116676   3.482   3.327  10.365
 5263SOL    HW216677   3.579   3.284  10.474
 5264SOL     OW16678   2.688   3.440   9.989
 5264SOL    HW116679   2.679   3.488   9.906
 5264SOL    HW216680   2.610   3.384   9.992
 5265SOL     OW16681   3.293   2.086  10.428
 5265SOL    HW116682   3.322   2.007  10.475
 5265SOL    HW216683   3.243   2.135  10.493
 5266SOL     OW16684   2.872   1.882  10.453
 5266SOL    HW116685   2.817   1.812  10.417
 5266SOL    HW216686   2.960   1.845  10.455
 5267SOL     OW16687   2.634   3.195   9.622
 5267SOL    HW116688   2.602   3.105   9.628
 5267SOL    HW216689   2.717   3.194   9.670
 5268SOL     OW16690   2.481   3.419  10.596
 5268SOL    HW116691   2.483   3.501  10.644
 5268SOL    HW216692   2.568   3.412  10.556
 5269SOL     OW16693   3.214   1.916   9.474
 5269SOL    HW116694   3.240   1.855   9.405
 5269SOL    HW216695   3.127   1.885   9.501
 5270SOL     OW16696   3.159   2.322   9.992
 5270SOL    HW116697   3.105   2.401   9.999
 5270SOL    HW216698   3.156   2.283  10.079
 5271SOL     OW16699   3.449   2.066  10.187
 5271SOL    HW116700   3.386   2.085  10.256
 5271SOL    HW216701   3.449   2.145  10.132
 5272SOL     OW16702   1.904   2.934   9.616
 5272SOL    HW116703   1.998   2.926   9.601
 5272SOL    HW216704   1.876   2.845   9.638
 5273SOL     OW16705   2.744   3.513   9.654
 5273SOL    HW116706   2.673   3.495   9.593
 5273SOL    HW216707   2.715   3.589   9.704
 5274SOL     OW16708   2.065   4.295   0.088
 5274SOL    HW116709   2.039   4.353   0.161
 5274SOL    HW216710   2.081   4.355   0.015
 5275SOL     OW16711   2.086   4.001   0.990
 5275SOL    HW116712   2.114   3.968   1.076
 5275SOL    HW216713   1.996   3.970   0.981
 5276SOL     OW16714   1.867   4.102   0.643
 5276SOL    HW116715   1.784   4.129   0.681
 5276SOL    HW216716   1.846   4.025   0.590
 5277SOL     OW16717   3.598   4.332   0.229
 5277SOL    HW116718   3.608   4.305   0.138
 5277SOL    HW216719   3.590   4.250   0.278
 5278SOL     OW16720   2.594   0.269   0.685
 5278SOL    HW116721   2.586   0.204   0.755
 5278SOL    HW216722   2.504   0.285   0.657
 5279SOL     OW16723   2.309   4.118   1.487
 5279SOL    HW116724   2.386   4.061   1.494
 5279SOL    HW216725   2.235   4.060   1.502
 5280SOL     OW16726   3.477   4.172   0.740
 5280SOL    HW116727   3.407   4.199   0.680
 5280SOL    HW216728   3.483   4.244   0.803
 5281SOL     OW16729   3.458   3.846   1.470
 5281SOL    HW116730   3.459   3.925   1.416
 5281SOL    HW216731   3.445   3.877   1.559
 5282SOL     OW16732   1.950   4.366   0.561
 5282SOL    HW116733   1.933   4.276   0.589
 5282SOL    HW216734   2.001   4.404   0.633
 5283SOL     OW16735   1.981   4.474   1.584
 5283SOL    HW116736   2.051   4.490   1.648
 5283SOL    HW216737   1.948   0.061   1.562
 5284SOL     OW16738   2.675   3.725   0.506
 5284SOL    HW116739   2.714   3.811   0.491
 5284SOL    HW216740   2.582   3.742   0.516
 5285SOL     OW16741   2.194   3.975   1.808
 5285SOL    HW116742   2.236   4.059   1.824
 5285SOL    HW216743   2.104   3.987   1.839
 5286SOL     OW16744   3.140   4.071   0.932
 5286SOL    HW116745   3.050   4.038   0.942
 5286SOL    HW216746   3.191   4.020   0.994
 5287SOL     OW16747   2.687   4.308   1.450
 5287SOL    HW116748   2.646   4.313   1.536
 5287SOL    HW216749   2.621   4.266   1.394
 5288SOL     OW16750   3.258   4.199   1.676
 5288SOL    HW116751   3.258   4.243   1.762
 5288SOL    HW216752   3.317   4.125   1.687
 5289SOL     OW16753   2.858   4.148   1.234
 5289SOL    HW116754   2.785   4.169   1.292
 5289SOL    HW216755   2.821   4.090   1.168
 5290SOL     OW16756   2.921   4.403   0.423
 5290SOL    HW116757   2.920   4.454   0.504
 5290SOL    HW216758   2.829   4.383   0.405
 5291SOL     OW16759   2.747   4.073   0.208
 5291SOL    HW116760   2.793   4.130   0.147
 5291SOL    HW216761   2.762   3.984   0.174
 5292SOL     OW16762   3.569   4.298   1.828
 5292SOL    HW116763   3.579   4.387   1.795
 5292SOL    HW216764   3.591   4.241   1.755
 5293SOL     OW16765   2.412   3.906   0.892
 5293SOL    HW116766   2.414   3.934   0.984
 5293SOL    HW216767   2.411   3.988   0.842
 5294SOL     OW16768   3.349   4.462   0.738
 5294SOL    HW116769   3.331   4.408   0.815
 5294SOL    HW216770   3.390   0.041   0.772
 5295SOL     OW16771   2.060   4.005   1.502
 5295SOL    HW116772   1.976   4.051   1.494
 5295SOL    HW216773   2.045   3.940   1.570
 5296SOL     OW16774   3.264   3.831   0.430
 5296SOL    HW116775   3.255   3.808   0.337
 5296SOL    HW216776   3.358   3.840   0.444
 5297SOL     OW16777   2.217   4.382   0.407
 5297SOL    HW116778   2.257   4.309   0.455
 5297SOL    HW216779   2.146   4.412   0.464
 5298SOL     OW16780   3.399   3.950   1.725
 5298SOL    HW116781   3.407   3.972   1.818
 5298SOL    HW216782   3.331   3.883   1.722
 5299SOL     OW16783   2.477   3.830   0.125
 5299SOL    HW116784   2.568   3.799   0.120
 5299SOL    HW216785   2.442   3.817   0.037
 5300SOL     OW16786   2.629   4.001   1.753
 5300SOL    HW116787   2.703   3.941   1.757
 5300SOL    HW216788   2.579   3.983   1.833
 5301SOL     OW16789   3.206   4.311   1.429
 5301SOL    HW116790   3.229   4.274   1.514
 5301SOL    HW216791   3.245   4.398   1.429
 5302SOL     OW16792   2.785   4.236   0.899
 5302SOL    HW116793   2.762   4.220   0.808
 5302SOL    HW216794   2.824   4.155   0.929
 5303SOL     OW16795   2.411   3.787   0.506
 5303SOL    HW116796   2.329   3.786   0.555
 5303SOL    HW216797   2.405   3.866   0.451
 5304SOL     OW16798   2.148   3.771   0.199
 5304SOL    HW116799   2.189   3.825   0.132
 5304SOL    HW216800   2.216   3.708   0.224
 5305SOL     OW16801   2.800   3.971   0.465
 5305SOL    HW116802   2.772   4.012   0.383
 5305SOL    HW216803   2.895   3.984   0.467
 5306SOL     OW16804   2.938   4.396   1.517
 5306SOL    HW116805   2.854   4.365   1.482
 5306SOL    HW216806   3.004   4.354   1.461
 5307SOL     OW16807   2.871   4.265   0.040
 5307SOL    HW116808   2.881   4.325  11.066
 5307SOL    HW216809   2.952   4.275   0.090
 5308SOL     OW16810   1.937   4.280   1.392
 5308SOL    HW116811   2.028   4.272   1.364
 5308SOL    HW216812   1.937   4.353   1.454
 5309SOL     OW16813   2.422   3.950   1.163
 5309SOL    HW116814   2.462   3.872   1.202
 5309SOL    HW216815   2.331   3.948   1.194
 5310SOL     OW16816   2.731   4.188   0.639
 5310SOL    HW116817   2.699   4.250   0.573
 5310SOL    HW216818   2.749   4.108   0.590
 5311SOL     OW16819   2.876   3.777   0.753
 5311SOL    HW116820   2.818   3.769   0.677
 5311SOL    HW216821   2.856   3.701   0.807
 5312SOL     OW16822   3.338   4.313   0.968
 5312SOL    HW116823   3.282   4.238   0.988
 5312SOL    HW216824   3.390   4.325   1.048
 5313SOL     OW16825   3.262   4.293   0.073
 5313SOL    HW116826   3.197   4.277   0.141
 5313SOL    HW216827   3.330   4.228   0.088
 5314SOL     OW16828   2.390   3.991   0.327
 5314SOL    HW116829   2.415   3.930   0.258
 5314SOL    HW216830   2.372   4.073   0.281
 5315SOL     OW16831   2.780   3.822   1.398
 5315SOL    HW116832   2.803   3.802   1.307
 5315SOL    HW216833   2.859   3.861   1.435
 5316SOL     OW16834   2.295   0.008   1.270
 5316SOL    HW116835   2.362   0.005   1.339
 5316SOL    HW216836   2.253   4.423   1.274
 5317SOL     OW16837   3.128   4.100   1.274
 5317SOL    HW116838   3.162   4.177   1.319
 5317SOL    HW216839   3.039   4.124   1.248
 5318SOL     OW16840   2.416   4.255   0.865
 5318SOL    HW116841   2.437   4.300   0.783
 5318SOL    HW216842   2.480   4.289   0.928
 5319SOL     OW16843   3.441   4.341   0.479
 5319SOL    HW116844   3.398   4.405   0.535
 5319SOL    HW216845   3.487   4.394   0.413
 5320SOL     OW16846   2.858   3.844   1.757
 5320SOL    HW116847   2.912   3.917   1.727
 5320SOL    HW216848   2.907   3.766   1.730
 5321SOL     OW16849   2.360   3.766   1.747
 5321SOL    HW116850   2.318   3.712   1.680
 5321SOL    HW216851   2.300   3.840   1.759
 5322SOL     OW16852   3.074   4.251   0.266
 5322SOL    HW116853   3.084   4.172   0.319
 5322SOL    HW216854   3.025   4.312   0.322
 5323SOL     OW16855   2.162   3.923   1.246
 5323SOL    HW116856   2.125   3.956   1.328
 5323SOL    HW216857   2.142   3.830   1.246
 5324SOL     OW16858   2.593   4.360   1.047
 5324SOL    HW116859   2.667   4.324   0.997
 5324SOL    HW216860   2.599   4.455   1.034
 5325SOL     OW16861   3.613   0.135   1.855
 5325SOL    HW116862   3.549   0.148   1.785
 5325SOL    HW216863   3.567   0.164   1.935
 5326SOL     OW16864   2.165   3.790   0.623
 5326SOL    HW116865   2.145   3.880   0.647
 5326SOL    HW216866   2.170   3.743   0.707
 5327SOL     OW16867   3.476   4.092   0.368
 5327SOL    HW116868   3.505   4.030   0.435
 5327SOL    HW216869   3.453   4.171   0.418
 5328SOL     OW16870   3.397   4.011   0.117
 5328SOL    HW116871   3.337   3.939   0.133
 5328SOL    HW216872   3.429   4.036   0.204
 5329SOL     OW16873   2.180   0.012   0.920
 5329SOL    HW116874   2.256   0.068   0.933
 5329SOL    HW216875   2.192   4.440   0.982
 5330SOL     OW16876   2.199   4.240   1.021
 5330SOL    HW116877   2.159   4.155   1.000
 5330SOL    HW216878   2.272   4.247   0.960
 5331SOL     OW16879   3.000   4.095   1.685
 5331SOL    HW116880   2.948   4.154   1.739
 5331SOL    HW216881   3.084   4.138   1.675
 5332SOL     OW16882   3.022   3.927   1.469
 5332SOL    HW116883   3.013   3.989   1.542
 5332SOL    HW216884   3.061   3.979   1.399
 5333SOL     OW16885   1.898   4.271   1.115
 5333SOL    HW116886   1.979   4.253   1.068
 5333SOL    HW216887   1.924   4.274   1.207
 5334SOL     OW16888   2.054   4.243   1.717
 5334SOL    HW116889   2.111   4.199   1.654
 5334SOL    HW216890   2.000   4.302   1.664
 5335SOL     OW16891   2.676   4.307   0.328
 5335SOL    HW116892   2.686   4.221   0.287
 5335SOL    HW216893   2.582   4.317   0.342
 5336SOL     OW16894   3.500   4.319   1.188
 5336SOL    HW116895   3.494   4.260   1.264
 5336SOL    HW216896   3.587   4.304   1.153
 5337SOL     OW16897   2.546   4.182   1.257
 5337SOL    HW116898   2.501   4.104   1.224
 5337SOL    HW216899   2.549   4.241   1.181
 5338SOL     OW16900   2.336   4.219   0.185
 5338SOL    HW116901   2.376   4.304   0.201
 5338SOL    HW216902   2.242   4.237   0.185
 5339SOL     OW16903   2.779   3.814   0.108
 5339SOL    HW116904   2.830   3.779   0.035
 5339SOL    HW216905   2.815   3.771   0.186
 5340SOL     OW16906   3.581   3.868   0.512
 5340SOL    HW116907   3.654   3.855   0.451
 5340SOL    HW216908   3.566   3.782   0.551
 5341SOL     OW16909   3.140   0.137   0.682
 5341SOL    HW116910   3.197   0.061   0.688
 5341SOL    HW216911   3.189   0.199   0.627
 5342SOL     OW16912   3.701   3.896   0.968
 5342SOL    HW116913   3.731   3.810   0.939
 5342SOL    HW216914   3.615   3.908   0.927
 5343SOL     OW16915   2.125   4.042   0.718
 5343SOL    HW116916   2.038   4.073   0.693
 5343SOL    HW216917   2.120   4.031   0.813
 5344SOL     OW16918   2.925   0.304   0.723
 5344SOL    HW116919   2.840   0.266   0.697
 5344SOL    HW216920   2.989   0.237   0.699
 5345SOL     OW16921   2.881   3.964   0.965
 5345SOL    HW116922   2.877   3.915   0.883
 5345SOL    HW216923   2.877   3.897   1.033
 5346SOL     OW16924   3.582   4.114   1.380
 5346SOL    HW116925   3.653   4.178   1.377
 5346SOL    HW216926   3.612   4.043   1.324
 5347SOL     OW16927   2.535   3.919   1.499
 5347SOL    HW116928   2.619   3.901   1.457
 5347SOL    HW216929   2.558   3.951   1.587
 5348SOL     OW16930   1.940   4.051   0.054
 5348SOL    HW116931   1.872   4.046  11.087
 5348SOL    HW216932   1.969   4.142   0.053
 5349SOL     OW16933   1.931   3.883   0.315
 5349SOL    HW116934   1.916   3.958   0.257
 5349SOL    HW216935   2.013   3.846   0.285
 5350SOL     OW16936   2.589   4.287   1.703
 5350SOL    HW116937   2.593   4.334   1.786
 5350SOL    HW216938   2.613   4.197   1.725
 5351SOL     OW16939   3.079   4.040   0.456
 5351SOL    HW116940   3.144   3.970   0.447
 5351SOL    HW216941   3.108   4.089   0.533
 5352SOL     OW16942   3.624   4.089   1.648
 5352SOL    HW116943   3.607   4.099   1.554
 5352SOL    HW216944   3.555   4.030   1.679
 5353SOL     OW16945   2.961   0.204   0.051
 5353SOL    HW116946   2.960   0.289   0.007
 5353SOL    HW216947   3.052   0.176   0.047
 5354SOL     OW16948   3.676   3.908   1.238
 5354SOL    HW116949   3.685   3.814   1.253
 5354SOL    HW216950   3.685   3.919   1.144
 5355SOL     OW16951   2.305   4.155   0.538
 5355SOL    HW116952   2.327   4.085   0.476
 5355SOL    HW216953   2.249   4.113   0.603
 5356SOL     OW16954   2.185   4.264   1.294
 5356SOL    HW116955   2.242   4.210   1.348
 5356SOL    HW216956   2.206   4.238   1.204
 5357SOL     OW16957   3.294   3.948   1.118
 5357SOL    HW116958   3.321   3.869   1.165
 5357SOL    HW216959   3.242   3.997   1.181
 5358SOL     OW16960   2.870   3.744   1.144
 5358SOL    HW116961   2.816   3.676   1.105
 5358SOL    HW216962   2.959   3.706   1.146
 5359SOL     OW16963   3.213   3.778   0.164
 5359SOL    HW116964   3.235   3.727   0.086
 5359SOL    HW216965   3.126   3.746   0.189
 5360SOL     OW16966   3.162   4.175   0.681
 5360SOL    HW116967   3.121   4.261   0.695
 5360SOL    HW216968   3.161   4.135   0.768
 5361SOL     OW16969   3.449   3.928   0.877
 5361SOL    HW116970   3.387   3.948   0.947
 5361SOL    HW216971   3.449   4.007   0.822
 5362SOL     OW16972   2.087   4.289   1.986
 5362SOL    HW116973   2.030   4.357   2.022
 5362SOL    HW216974   2.078   4.298   1.891
 5363SOL     OW16975   2.086   4.000   2.852
 5363SOL    HW116976   2.114   3.968   2.938
 5363SOL    HW216977   1.996   3.970   2.843
 5364SOL     OW16978   1.868   4.101   2.505
 5364SOL    HW116979   1.785   4.130   2.544
 5364SOL    HW216980   1.844   4.024   2.453
 5365SOL     OW16981   3.596   4.335   2.099
 5365SOL    HW116982   3.594   4.321   2.004
 5365SOL    HW216983   3.594   4.247   2.136
 5366SOL     OW16984   2.590   0.268   2.547
 5366SOL    HW116985   2.584   0.208   2.621
 5366SOL    HW216986   2.499   0.285   2.522
 5367SOL     OW16987   2.309   4.118   3.348
 5367SOL    HW116988   2.386   4.061   3.356
 5367SOL    HW216989   2.235   4.059   3.364
 5368SOL     OW16990   3.477   4.173   2.601
 5368SOL    HW116991   3.406   4.199   2.543
 5368SOL    HW216992   3.482   4.243   2.665
 5369SOL     OW16993   3.458   3.846   3.331
 5369SOL    HW116994   3.459   3.925   3.278
 5369SOL    HW216995   3.445   3.877   3.421
 5370SOL     OW16996   1.941   4.371   2.430
 5370SOL    HW116997   1.933   4.278   2.452
 5370SOL    HW216998   2.003   4.405   2.494
 5371SOL     OW16999   1.981   4.474   3.446
 5371SOL    HW117000   2.051   4.490   3.510
 5371SOL    HW217001   1.949   0.061   3.424
 5372SOL     OW17002   2.675   3.724   2.368
 5372SOL    HW117003   2.715   3.809   2.352
 5372SOL    HW217004   2.582   3.743   2.379
 5373SOL     OW17005   2.194   3.975   3.670
 5373SOL    HW117006   2.236   4.059   3.686
 5373SOL    HW217007   2.104   3.987   3.700
 5374SOL     OW17008   3.140   4.071   2.794
 5374SOL    HW117009   3.050   4.038   2.804
 5374SOL    HW217010   3.191   4.020   2.856
 5375SOL     OW17011   2.687   4.307   3.312
 5375SOL    HW117012   2.646   4.313   3.398
 5375SOL    HW217013   2.621   4.266   3.256
 5376SOL     OW17014   3.258   4.199   3.538
 5376SOL    HW117015   3.258   4.243   3.624
 5376SOL    HW217016   3.317   4.125   3.549
 5377SOL     OW17017   2.858   4.148   3.096
 5377SOL    HW117018   2.785   4.170   3.154
 5377SOL    HW217019   2.820   4.090   3.030
 5378SOL     OW17020   2.918   4.410   2.281
 5378SOL    HW117021   2.918   4.447   2.369
 5378SOL    HW217022   2.830   4.373   2.271
 5379SOL     OW17023   2.750   4.063   2.052
 5379SOL    HW117024   2.793   4.126   1.994
 5379SOL    HW217025   2.770   3.978   2.014
 5380SOL     OW17026   3.569   4.298   3.690
 5380SOL    HW117027   3.579   4.387   3.657
 5380SOL    HW217028   3.592   4.242   3.616
 5381SOL     OW17029   2.412   3.906   2.754
 5381SOL    HW117030   2.413   3.933   2.845
 5381SOL    HW217031   2.411   3.989   2.704
 5382SOL     OW17032   3.351   4.463   2.599
 5382SOL    HW117033   3.332   4.409   2.675
 5382SOL    HW217034   3.391   0.042   2.635
 5383SOL     OW17035   2.060   4.005   3.364
 5383SOL    HW117036   1.976   4.051   3.356
 5383SOL    HW217037   2.045   3.940   3.432
 5384SOL     OW17038   3.263   3.831   2.293
 5384SOL    HW117039   3.253   3.806   2.201
 5384SOL    HW217040   3.357   3.840   2.305
 5385SOL     OW17041   2.217   4.385   2.271
 5385SOL    HW117042   2.257   4.311   2.317
 5385SOL    HW217043   2.147   4.414   2.329
 5386SOL     OW17044   3.399   3.950   3.587
 5386SOL    HW117045   3.407   3.972   3.680
 5386SOL    HW217046   3.331   3.883   3.584
 5387SOL     OW17047   2.493   3.848   1.969
 5387SOL    HW117048   2.566   3.787   1.979
 5387SOL    HW217049   2.446   3.816   1.892
 5388SOL     OW17050   2.629   4.001   3.615
 5388SOL    HW117051   2.703   3.941   3.619
 5388SOL    HW217052   2.579   3.984   3.695
 5389SOL     OW17053   3.207   4.311   3.290
 5389SOL    HW117054   3.229   4.274   3.376
 5389SOL    HW217055   3.245   4.399   3.291
 5390SOL     OW17056   2.784   4.236   2.761
 5390SOL    HW117057   2.762   4.220   2.669
 5390SOL    HW217058   2.824   4.155   2.791
 5391SOL     OW17059   2.410   3.787   2.366
 5391SOL    HW117060   2.330   3.787   2.418
 5391SOL    HW217061   2.404   3.866   2.311
 5392SOL     OW17062   2.154   3.771   2.046
 5392SOL    HW117063   2.212   3.836   2.008
 5392SOL    HW217064   2.213   3.707   2.087
 5393SOL     OW17065   2.798   3.970   2.325
 5393SOL    HW117066   2.771   4.010   2.242
 5393SOL    HW217067   2.893   3.982   2.327
 5394SOL     OW17068   2.939   4.395   3.379
 5394SOL    HW117069   2.855   4.366   3.344
 5394SOL    HW217070   3.004   4.354   3.323
 5395SOL     OW17071   2.887   4.268   1.887
 5395SOL    HW117072   2.869   4.355   1.852
 5395SOL    HW217073   2.950   4.282   1.957
 5396SOL     OW17074   1.937   4.280   3.254
 5396SOL    HW117075   2.028   4.272   3.226
 5396SOL    HW217076   1.937   4.353   3.316
 5397SOL     OW17077   2.422   3.950   3.025
 5397SOL    HW117078   2.462   3.873   3.065
 5397SOL    HW217079   2.331   3.948   3.056
 5398SOL     OW17080   2.732   4.189   2.499
 5398SOL    HW117081   2.696   4.248   2.433
 5398SOL    HW217082   2.750   4.108   2.452
 5399SOL     OW17083   2.876   3.777   2.615
 5399SOL    HW117084   2.818   3.768   2.539
 5399SOL    HW217085   2.855   3.701   2.670
 5400SOL     OW17086   3.339   4.312   2.829
 5400SOL    HW117087   3.282   4.238   2.850
 5400SOL    HW217088   3.391   4.325   2.909
 5401SOL     OW17089   3.263   4.295   1.935
 5401SOL    HW117090   3.202   4.269   2.003
 5401SOL    HW217091   3.346   4.255   1.961
 5402SOL     OW17092   2.387   3.987   2.182
 5402SOL    HW117093   2.428   3.937   2.111
 5402SOL    HW217094   2.371   4.074   2.144
 5403SOL     OW17095   2.780   3.821   3.260
 5403SOL    HW117096   2.804   3.802   3.169
 5403SOL    HW217097   2.859   3.861   3.297
 5404SOL     OW17098   2.295   0.008   3.132
 5404SOL    HW117099   2.362   0.006   3.201
 5404SOL    HW217100   2.253   4.423   3.136
 5405SOL     OW17101   3.128   4.100   3.135
 5405SOL    HW117102   3.162   4.177   3.181
 5405SOL    HW217103   3.039   4.124   3.110
 5406SOL     OW17104   2.416   4.255   2.727
 5406SOL    HW117105   2.436   4.300   2.645
 5406SOL    HW217106   2.480   4.289   2.790
 5407SOL     OW17107   3.433   4.340   2.338
 5407SOL    HW117108   3.403   4.406   2.401
 5407SOL    HW217109   3.492   4.388   2.280
 5408SOL     OW17110   2.858   3.844   3.619
 5408SOL    HW117111   2.912   3.917   3.589
 5408SOL    HW217112   2.908   3.766   3.592
 5409SOL     OW17113   2.360   3.766   3.609
 5409SOL    HW117114   2.318   3.712   3.542
 5409SOL    HW217115   2.300   3.840   3.621
 5410SOL     OW17116   3.073   4.255   2.128
 5410SOL    HW117117   3.083   4.175   2.180
 5410SOL    HW217118   3.024   4.314   2.184
 5411SOL     OW17119   2.162   3.924   3.108
 5411SOL    HW117120   2.125   3.957   3.190
 5411SOL    HW217121   2.142   3.830   3.109
 5412SOL     OW17122   2.593   4.360   2.908
 5412SOL    HW117123   2.666   4.325   2.858
 5412SOL    HW217124   2.599   4.455   2.897
 5413SOL     OW17125   3.612   0.134   3.717
 5413SOL    HW117126   3.549   0.148   3.647
 5413SOL    HW217127   3.567   0.163   3.797
 5414SOL     OW17128   2.164   3.790   2.485
 5414SOL    HW117129   2.145   3.880   2.509
 5414SOL    HW217130   2.170   3.743   2.568
 5415SOL     OW17131   3.475   4.091   2.231
 5415SOL    HW117132   3.504   4.030   2.299
 5415SOL    HW217133   3.452   4.171   2.278
 5416SOL     OW17134   3.390   3.999   1.989
 5416SOL    HW117135   3.327   3.932   2.015
 5416SOL    HW217136   3.424   4.033   2.071
 5417SOL     OW17137   2.180   0.012   2.783
 5417SOL    HW117138   2.256   0.069   2.795
 5417SOL    HW217139   2.193   4.441   2.845
 5418SOL     OW17140   2.199   4.239   2.883
 5418SOL    HW117141   2.160   4.154   2.862
 5418SOL    HW217142   2.272   4.247   2.822
 5419SOL     OW17143   3.000   4.094   3.547
 5419SOL    HW117144   2.948   4.154   3.601
 5419SOL    HW217145   3.084   4.138   3.537
 5420SOL     OW17146   3.022   3.927   3.331
 5420SOL    HW117147   3.013   3.988   3.404
 5420SOL    HW217148   3.061   3.979   3.261
 5421SOL     OW17149   1.898   4.270   2.977
 5421SOL    HW117150   1.980   4.253   2.930
 5421SOL    HW217151   1.924   4.274   3.069
 5422SOL     OW17152   2.054   4.243   3.579
 5422SOL    HW117153   2.111   4.200   3.515
 5422SOL    HW217154   2.000   4.302   3.526
 5423SOL     OW17155   2.681   4.283   2.209
 5423SOL    HW117156   2.680   4.208   2.149
 5423SOL    HW217157   2.594   4.322   2.199
 5424SOL     OW17158   3.499   4.318   3.050
 5424SOL    HW117159   3.494   4.260   3.126
 5424SOL    HW217160   3.587   4.304   3.015
 5425SOL     OW17161   2.546   4.182   3.118
 5425SOL    HW117162   2.501   4.104   3.086
 5425SOL    HW217163   2.549   4.241   3.043
 5426SOL     OW17164   2.343   4.222   2.053
 5426SOL    HW117165   2.376   4.310   2.071
 5426SOL    HW217166   2.248   4.234   2.042
 5427SOL     OW17167   3.581   3.867   2.374
 5427SOL    HW117168   3.654   3.854   2.314
 5427SOL    HW217169   3.565   3.782   2.413
 5428SOL     OW17170   3.141   0.137   2.541
 5428SOL    HW117171   3.200   0.061   2.549
 5428SOL    HW217172   3.192   0.201   2.491
 5429SOL     OW17173   3.701   3.896   2.830
 5429SOL    HW117174   3.730   3.810   2.801
 5429SOL    HW217175   3.615   3.908   2.789
 5430SOL     OW17176   2.125   4.042   2.580
 5430SOL    HW117177   2.038   4.073   2.555
 5430SOL    HW217178   2.120   4.030   2.675
 5431SOL     OW17179   2.771   0.091   2.084
 5431SOL    HW117180   2.853   0.133   2.055
 5431SOL    HW217181   2.793   0.052   2.168
 5432SOL     OW17182   2.929   0.303   2.600
 5432SOL    HW117183   2.847   0.285   2.553
 5432SOL    HW217184   2.990   0.237   2.567
 5433SOL     OW17185   2.881   3.964   2.827
 5433SOL    HW117186   2.877   3.915   2.745
 5433SOL    HW217187   2.877   3.897   2.895
 5434SOL     OW17188   3.582   4.114   3.242
 5434SOL    HW117189   3.653   4.178   3.239
 5434SOL    HW217190   3.612   4.043   3.186
 5435SOL     OW17191   2.535   3.919   3.361
 5435SOL    HW117192   2.619   3.901   3.319
 5435SOL    HW217193   2.558   3.951   3.448
 5436SOL     OW17194   1.937   4.045   1.891
 5436SOL    HW117195   1.849   4.038   1.854
 5436SOL    HW217196   1.969   4.130   1.862
 5437SOL     OW17197   1.932   3.881   2.175
 5437SOL    HW117198   1.916   3.961   2.124
 5437SOL    HW217199   2.016   3.849   2.143
 5438SOL     OW17200   2.589   4.287   3.565
 5438SOL    HW117201   2.593   4.335   3.648
 5438SOL    HW217202   2.614   4.198   3.587
 5439SOL     OW17203   3.081   4.043   2.317
 5439SOL    HW117204   3.144   3.971   2.308
 5439SOL    HW217205   3.109   4.090   2.395
 5440SOL     OW17206   3.624   4.089   3.510
 5440SOL    HW117207   3.607   4.099   3.416
 5440SOL    HW217208   3.555   4.031   3.541
 5441SOL     OW17209   2.972   0.229   1.966
 5441SOL    HW117210   2.953   0.270   1.881
 5441SOL    HW217211   3.053   0.180   1.951
 5442SOL     OW17212   3.676   3.908   3.100
 5442SOL    HW117213   3.685   3.814   3.115
 5442SOL    HW217214   3.684   3.919   3.006
 5443SOL     OW17215   2.305   4.154   2.400
 5443SOL    HW117216   2.324   4.085   2.337
 5443SOL    HW217217   2.249   4.112   2.465
 5444SOL     OW17218   2.185   4.264   3.156
 5444SOL    HW117219   2.242   4.210   3.210
 5444SOL    HW217220   2.206   4.238   3.066
 5445SOL     OW17221   3.294   3.948   2.980
 5445SOL    HW117222   3.322   3.869   3.027
 5445SOL    HW217223   3.242   3.997   3.043
 5446SOL     OW17224   2.871   3.744   3.006
 5446SOL    HW117225   2.816   3.676   2.967
 5446SOL    HW217226   2.959   3.707   3.008
 5447SOL     OW17227   3.214   3.778   2.026
 5447SOL    HW117228   3.241   3.716   1.958
 5447SOL    HW217229   3.127   3.747   2.053
 5448SOL     OW17230   3.161   4.176   2.544
 5448SOL    HW117231   3.121   4.262   2.558
 5448SOL    HW217232   3.161   4.135   2.630
 5449SOL     OW17233   3.449   3.928   2.739
 5449SOL    HW117234   3.387   3.948   2.809
 5449SOL    HW217235   3.449   4.007   2.684
 5450SOL     OW17236   2.086   4.288   3.848
 5450SOL    HW117237   2.031   4.357   3.884
 5450SOL    HW217238   2.078   4.298   3.753
 5451SOL     OW17239   2.086   4.000   4.714
 5451SOL    HW117240   2.114   3.969   4.800
 5451SOL    HW217241   1.996   3.970   4.705
 5452SOL     OW17242   1.868   4.101   4.367
 5452SOL    HW117243   1.785   4.130   4.406
 5452SOL    HW217244   1.844   4.024   4.315
 5453SOL     OW17245   3.596   4.335   3.961
 5453SOL    HW117246   3.594   4.321   3.866
 5453SOL    HW217247   3.595   4.247   3.998
 5454SOL     OW17248   2.590   0.267   4.408
 5454SOL    HW117249   2.583   0.209   4.484
 5454SOL    HW217250   2.499   0.287   4.384
 5455SOL     OW17251   2.309   4.118   5.210
 5455SOL    HW117252   2.386   4.061   5.218
 5455SOL    HW217253   2.235   4.059   5.226
 5456SOL     OW17254   3.477   4.173   4.463
 5456SOL    HW117255   3.406   4.199   4.404
 5456SOL    HW217256   3.482   4.243   4.528
 5457SOL     OW17257   3.458   3.846   5.193
 5457SOL    HW117258   3.459   3.926   5.141
 5457SOL    HW217259   3.445   3.876   5.283
 5458SOL     OW17260   1.940   4.371   4.292
 5458SOL    HW117261   1.933   4.278   4.314
 5458SOL    HW217262   2.004   4.406   4.355
 5459SOL     OW17263   1.981   4.474   5.309
 5459SOL    HW117264   2.052   4.490   5.372
 5459SOL    HW217265   1.949   0.061   5.286
 5460SOL     OW17266   2.675   3.723   4.229
 5460SOL    HW117267   2.715   3.808   4.213
 5460SOL    HW217268   2.582   3.743   4.240
 5461SOL     OW17269   2.194   3.975   5.531
 5461SOL    HW117270   2.236   4.059   5.548
 5461SOL    HW217271   2.104   3.987   5.562
 5462SOL     OW17272   3.140   4.071   4.656
 5462SOL    HW117273   3.050   4.038   4.666
 5462SOL    HW217274   3.191   4.019   4.718
 5463SOL     OW17275   2.687   4.307   5.174
 5463SOL    HW117276   2.646   4.313   5.260
 5463SOL    HW217277   2.621   4.266   5.118
 5464SOL     OW17278   3.258   4.199   5.400
 5464SOL    HW117279   3.258   4.243   5.486
 5464SOL    HW217280   3.317   4.125   5.411
 5465SOL     OW17281   2.858   4.148   4.958
 5465SOL    HW117282   2.785   4.170   5.016
 5465SOL    HW217283   2.820   4.090   4.892
 5466SOL     OW17284   2.919   4.409   4.144
 5466SOL    HW117285   2.918   4.448   4.231
 5466SOL    HW217286   2.831   4.373   4.133
 5467SOL     OW17287   2.750   4.063   3.913
 5467SOL    HW117288   2.793   4.126   3.856
 5467SOL    HW217289   2.771   3.978   3.876
 5468SOL     OW17290   3.569   4.298   5.553
 5468SOL    HW117291   3.579   4.387   5.519
 5468SOL    HW217292   3.591   4.242   5.478
 5469SOL     OW17293   2.411   3.907   4.615
 5469SOL    HW117294   2.413   3.934   4.707
 5469SOL    HW217295   2.411   3.989   4.566
 5470SOL     OW17296   3.351   4.463   4.461
 5470SOL    HW117297   3.332   4.409   4.538
 5470SOL    HW217298   3.391   0.042   4.497
 5471SOL     OW17299   2.060   4.005   5.226
 5471SOL    HW117300   1.977   4.051   5.218
 5471SOL    HW217301   2.046   3.940   5.294
 5472SOL     OW17302   3.263   3.830   4.155
 5472SOL    HW117303   3.253   3.806   4.063
 5472SOL    HW217304   3.357   3.841   4.167
 5473SOL     OW17305   2.217   4.385   4.133
 5473SOL    HW117306   2.257   4.311   4.178
 5473SOL    HW217307   2.147   4.415   4.191
 5474SOL     OW17308   3.399   3.950   5.449
 5474SOL    HW117309   3.407   3.972   5.542
 5474SOL    HW217310   3.331   3.883   5.446
 5475SOL     OW17311   2.492   3.848   3.831
 5475SOL    HW117312   2.566   3.788   3.841
 5475SOL    HW217313   2.446   3.815   3.754
 5476SOL     OW17314   2.629   4.001   5.477
 5476SOL    HW117315   2.703   3.941   5.481
 5476SOL    HW217316   2.579   3.983   5.557
 5477SOL     OW17317   3.207   4.311   5.152
 5477SOL    HW117318   3.229   4.274   5.238
 5477SOL    HW217319   3.245   4.399   5.153
 5478SOL     OW17320   2.784   4.236   4.623
 5478SOL    HW117321   2.762   4.220   4.531
 5478SOL    HW217322   2.824   4.155   4.653
 5479SOL     OW17323   2.410   3.787   4.228
 5479SOL    HW117324   2.330   3.788   4.280
 5479SOL    HW217325   2.404   3.866   4.173
 5480SOL     OW17326   2.154   3.771   3.908
 5480SOL    HW117327   2.212   3.836   3.870
 5480SOL    HW217328   2.213   3.707   3.949
 5481SOL     OW17329   2.798   3.970   4.187
 5481SOL    HW117330   2.771   4.010   4.105
 5481SOL    HW217331   2.893   3.982   4.189
 5482SOL     OW17332   2.939   4.395   5.242
 5482SOL    HW117333   2.855   4.366   5.207
 5482SOL    HW217334   3.004   4.354   5.185
 5483SOL     OW17335   2.886   4.268   3.749
 5483SOL    HW117336   2.869   4.356   3.714
 5483SOL    HW217337   2.950   4.282   3.819
 5484SOL     OW17338   1.937   4.280   5.116
 5484SOL    HW117339   2.028   4.272   5.088
 5484SOL    HW217340   1.937   4.353   5.178
 5485SOL     OW17341   2.422   3.950   4.887
 5485SOL    HW117342   2.463   3.873   4.927
 5485SOL    HW217343   2.332   3.948   4.918
 5486SOL     OW17344   2.731   4.189   4.361
 5486SOL    HW117345   2.696   4.248   4.295
 5486SOL    HW217346   2.750   4.107   4.314
 5487SOL     OW17347   2.877   3.778   4.476
 5487SOL    HW117348   2.819   3.770   4.400
 5487SOL    HW217349   2.856   3.702   4.531
 5488SOL     OW17350   3.339   4.312   4.691
 5488SOL    HW117351   3.282   4.238   4.712
 5488SOL    HW217352   3.391   4.325   4.771
 5489SOL     OW17353   3.263   4.295   3.797
 5489SOL    HW117354   3.201   4.269   3.865
 5489SOL    HW217355   3.346   4.255   3.823
 5490SOL     OW17356   2.386   3.987   4.044
 5490SOL    HW117357   2.428   3.937   3.974
 5490SOL    HW217358   2.371   4.074   4.006
 5491SOL     OW17359   2.780   3.822   5.122
 5491SOL    HW117360   2.803   3.802   5.031
 5491SOL    HW217361   2.859   3.861   5.159
 5492SOL     OW17362   2.295   0.008   4.995
 5492SOL    HW117363   2.362   0.006   5.063
 5492SOL    HW217364   2.253   4.423   4.999
 5493SOL     OW17365   3.128   4.100   4.997
 5493SOL    HW117366   3.162   4.177   5.042
 5493SOL    HW217367   3.039   4.124   4.972
 5494SOL     OW17368   2.416   4.255   4.589
 5494SOL    HW117369   2.436   4.300   4.507
 5494SOL    HW217370   2.480   4.289   4.652
 5495SOL     OW17371   3.433   4.340   4.200
 5495SOL    HW117372   3.403   4.406   4.263
 5495SOL    HW217373   3.492   4.388   4.142
 5496SOL     OW17374   2.858   3.844   5.481
 5496SOL    HW117375   2.912   3.917   5.451
 5496SOL    HW217376   2.907   3.766   5.455
 5497SOL     OW17377   2.360   3.767   5.470
 5497SOL    HW117378   2.318   3.712   5.404
 5497SOL    HW217379   2.300   3.840   5.482
 5498SOL     OW17380   3.073   4.255   3.990
 5498SOL    HW117381   3.083   4.175   4.042
 5498SOL    HW217382   3.024   4.314   4.046
 5499SOL     OW17383   2.162   3.924   4.970
 5499SOL    HW117384   2.125   3.957   5.052
 5499SOL    HW217385   2.142   3.830   4.971
 5500SOL     OW17386   2.593   4.360   4.770
 5500SOL    HW117387   2.666   4.325   4.720
 5500SOL    HW217388   2.599   4.455   4.759
 5501SOL     OW17389   3.612   0.134   5.580
 5501SOL    HW117390   3.549   0.148   5.509
 5501SOL    HW217391   3.567   0.163   5.658
 5502SOL     OW17392   2.164   3.789   4.347
 5502SOL    HW117393   2.145   3.880   4.371
 5502SOL    HW217394   2.171   3.743   4.431
 5503SOL     OW17395   3.474   4.091   4.093
 5503SOL    HW117396   3.504   4.031   4.161
 5503SOL    HW217397   3.452   4.171   4.140
 5504SOL     OW17398   3.390   3.999   3.851
 5504SOL    HW117399   3.327   3.932   3.877
 5504SOL    HW217400   3.424   4.033   3.933
 5505SOL     OW17401   2.180   0.012   4.645
 5505SOL    HW117402   2.256   0.069   4.656
 5505SOL    HW217403   2.193   4.441   4.707
 5506SOL     OW17404   2.199   4.239   4.745
 5506SOL    HW117405   2.160   4.154   4.724
 5506SOL    HW217406   2.272   4.247   4.684
 5507SOL     OW17407   3.000   4.094   5.409
 5507SOL    HW117408   2.948   4.154   5.463
 5507SOL    HW217409   3.084   4.138   5.399
 5508SOL     OW17410   3.022   3.928   5.193
 5508SOL    HW117411   3.013   3.988   5.266
 5508SOL    HW217412   3.061   3.980   5.123
 5509SOL     OW17413   1.898   4.270   4.839
 5509SOL    HW117414   1.980   4.254   4.792
 5509SOL    HW217415   1.924   4.274   4.931
 5510SOL     OW17416   2.054   4.243   5.441
 5510SOL    HW117417   2.112   4.200   5.378
 5510SOL    HW217418   2.000   4.302   5.388
 5511SOL     OW17419   2.681   4.282   4.071
 5511SOL    HW117420   2.679   4.208   4.011
 5511SOL    HW217421   2.594   4.323   4.061
 5512SOL     OW17422   3.499   4.318   4.912
 5512SOL    HW117423   3.494   4.260   4.988
 5512SOL    HW217424   3.587   4.304   4.877
 5513SOL     OW17425   2.546   4.182   4.980
 5513SOL    HW117426   2.501   4.104   4.948
 5513SOL    HW217427   2.549   4.241   4.905
 5514SOL     OW17428   2.343   4.222   3.914
 5514SOL    HW117429   2.376   4.310   3.933
 5514SOL    HW217430   2.248   4.234   3.905
 5515SOL     OW17431   3.581   3.867   4.236
 5515SOL    HW117432   3.654   3.854   4.176
 5515SOL    HW217433   3.566   3.782   4.275
 5516SOL     OW17434   3.141   0.136   4.403
 5516SOL    HW117435   3.200   0.062   4.410
 5516SOL    HW217436   3.191   0.202   4.355
 5517SOL     OW17437   3.701   3.896   4.692
 5517SOL    HW117438   3.730   3.810   4.663
 5517SOL    HW217439   3.615   3.908   4.651
 5518SOL     OW17440   2.125   4.041   4.442
 5518SOL    HW117441   2.038   4.073   4.417
 5518SOL    HW217442   2.120   4.031   4.537
 5519SOL     OW17443   2.771   0.091   3.946
 5519SOL    HW117444   2.853   0.133   3.917
 5519SOL    HW217445   2.793   0.053   4.031
 5520SOL     OW17446   2.928   0.302   4.463
 5520SOL    HW117447   2.847   0.286   4.415
 5520SOL    HW217448   2.990   0.237   4.429
 5521SOL     OW17449   2.881   3.964   4.689
 5521SOL    HW117450   2.877   3.915   4.607
 5521SOL    HW217451   2.877   3.897   4.757
 5522SOL     OW17452   3.582   4.114   5.104
 5522SOL    HW117453   3.653   4.178   5.101
 5522SOL    HW217454   3.612   4.043   5.048
 5523SOL     OW17455   2.535   3.920   5.223
 5523SOL    HW117456   2.619   3.902   5.181
 5523SOL    HW217457   2.559   3.951   5.311
 5524SOL     OW17458   1.937   4.045   3.753
 5524SOL    HW117459   1.849   4.038   3.716
 5524SOL    HW217460   1.969   4.130   3.725
 5525SOL     OW17461   1.932   3.881   4.037
 5525SOL    HW117462   1.916   3.961   3.986
 5525SOL    HW217463   2.017   3.849   4.005
 5526SOL     OW17464   2.588   4.287   5.427
 5526SOL    HW117465   2.594   4.335   5.510
 5526SOL    HW217466   2.614   4.198   5.449
 5527SOL     OW17467   3.081   4.042   4.179
 5527SOL    HW117468   3.144   3.971   4.170
 5527SOL    HW217469   3.109   4.090   4.257
 5528SOL     OW17470   3.624   4.089   5.372
 5528SOL    HW117471   3.606   4.099   5.278
 5528SOL    HW217472   3.555   4.030   5.403
 5529SOL     OW17473   2.972   0.229   3.828
 5529SOL    HW117474   2.954   0.271   3.744
 5529SOL    HW217475   3.053   0.180   3.813
 5530SOL     OW17476   3.676   3.908   4.962
 5530SOL    HW117477   3.686   3.814   4.977
 5530SOL    HW217478   3.684   3.919   4.868
 5531SOL     OW17479   2.305   4.154   4.262
 5531SOL    HW117480   2.325   4.085   4.199
 5531SOL    HW217481   2.249   4.112   4.327
 5532SOL     OW17482   2.185   4.264   5.018
 5532SOL    HW117483   2.242   4.210   5.072
 5532SOL    HW217484   2.206   4.238   4.928
 5533SOL     OW17485   3.294   3.947   4.842
 5533SOL    HW117486   3.323   3.870   4.890
 5533SOL    HW217487   3.242   3.997   4.905
 5534SOL     OW17488   2.870   3.744   4.869
 5534SOL    HW117489   2.816   3.676   4.830
 5534SOL    HW217490   2.958   3.707   4.870
 5535SOL     OW17491   3.214   3.778   3.888
 5535SOL    HW117492   3.240   3.717   3.819
 5535SOL    HW217493   3.127   3.747   3.915
 5536SOL     OW17494   3.161   4.176   4.406
 5536SOL    HW117495   3.122   4.262   4.420
 5536SOL    HW217496   3.161   4.135   4.492
 5537SOL     OW17497   3.448   3.928   4.601
 5537SOL    HW117498   3.387   3.948   4.671
 5537SOL    HW217499   3.449   4.007   4.546
 5538SOL     OW17500   2.087   4.289   5.710
 5538SOL    HW117501   2.030   4.357   5.746
 5538SOL    HW217502   2.078   4.298   5.615
 5539SOL     OW17503   2.086   4.000   6.576
 5539SOL    HW117504   2.114   3.968   6.662
 5539SOL    HW217505   1.996   3.970   6.567
 5540SOL     OW17506   1.868   4.101   6.229
 5540SOL    HW117507   1.785   4.130   6.268
 5540SOL    HW217508   1.844   4.024   6.177
 5541SOL     OW17509   3.596   4.335   5.823
 5541SOL    HW117510   3.594   4.321   5.728
 5541SOL    HW217511   3.594   4.246   5.860
 5542SOL     OW17512   2.590   0.268   6.271
 5542SOL    HW117513   2.584   0.208   6.345
 5542SOL    HW217514   2.499   0.285   6.246
 5543SOL     OW17515   2.309   4.118   7.072
 5543SOL    HW117516   2.386   4.061   7.080
 5543SOL    HW217517   2.235   4.060   7.088
 5544SOL     OW17518   3.477   4.173   6.325
 5544SOL    HW117519   3.406   4.199   6.266
 5544SOL    HW217520   3.482   4.243   6.389
 5545SOL     OW17521   3.458   3.846   7.055
 5545SOL    HW117522   3.459   3.925   7.003
 5545SOL    HW217523   3.445   3.877   7.145
 5546SOL     OW17524   1.941   4.371   6.154
 5546SOL    HW117525   1.933   4.278   6.176
 5546SOL    HW217526   2.003   4.406   6.218
 5547SOL     OW17527   1.981   4.474   7.170
 5547SOL    HW117528   2.051   4.489   7.234
 5547SOL    HW217529   1.949   0.061   7.148
 5548SOL     OW17530   2.675   3.723   6.093
 5548SOL    HW117531   2.716   3.808   6.076
 5548SOL    HW217532   2.582   3.742   6.103
 5549SOL     OW17533   2.194   3.975   7.393
 5549SOL    HW117534   2.236   4.059   7.410
 5549SOL    HW217535   2.104   3.987   7.424
 5550SOL     OW17536   3.140   4.071   6.518
 5550SOL    HW117537   3.050   4.038   6.528
 5550SOL    HW217538   3.192   4.020   6.580
 5551SOL     OW17539   2.687   4.308   7.036
 5551SOL    HW117540   2.646   4.313   7.122
 5551SOL    HW217541   2.621   4.266   6.980
 5552SOL     OW17542   3.258   4.199   7.262
 5552SOL    HW117543   3.258   4.243   7.348
 5552SOL    HW217544   3.317   4.125   7.273
 5553SOL     OW17545   2.858   4.148   6.820
 5553SOL    HW117546   2.785   4.170   6.878
 5553SOL    HW217547   2.821   4.090   6.754
 5554SOL     OW17548   2.918   4.409   6.006
 5554SOL    HW117549   2.918   4.448   6.093
 5554SOL    HW217550   2.830   4.373   5.995
 5555SOL     OW17551   2.750   4.063   5.775
 5555SOL    HW117552   2.793   4.127   5.718
 5555SOL    HW217553   2.771   3.978   5.738
 5556SOL     OW17554   3.569   4.298   7.414
 5556SOL    HW117555   3.579   4.387   7.381
 5556SOL    HW217556   3.591   4.241   7.341
 5557SOL     OW17557   2.412   3.907   6.478
 5557SOL    HW117558   2.413   3.933   6.570
 5557SOL    HW217559   2.411   3.989   6.429
 5558SOL     OW17560   3.351   4.463   6.323
 5558SOL    HW117561   3.332   4.409   6.400
 5558SOL    HW217562   3.391   0.042   6.359
 5559SOL     OW17563   2.060   4.005   7.088
 5559SOL    HW117564   1.976   4.050   7.080
 5559SOL    HW217565   2.046   3.939   7.156
 5560SOL     OW17566   3.263   3.831   6.017
 5560SOL    HW117567   3.253   3.806   5.925
 5560SOL    HW217568   3.357   3.840   6.029
 5561SOL     OW17569   2.217   4.385   5.995
 5561SOL    HW117570   2.257   4.311   6.040
 5561SOL    HW217571   2.147   4.415   6.053
 5562SOL     OW17572   3.399   3.950   7.311
 5562SOL    HW117573   3.407   3.972   7.404
 5562SOL    HW217574   3.331   3.883   7.308
 5563SOL     OW17575   2.492   3.847   5.693
 5563SOL    HW117576   2.567   3.787   5.702
 5563SOL    HW217577   2.446   3.815   5.616
 5564SOL     OW17578   2.629   4.001   7.339
 5564SOL    HW117579   2.703   3.941   7.343
 5564SOL    HW217580   2.579   3.983   7.419
 5565SOL     OW17581   3.207   4.311   7.014
 5565SOL    HW117582   3.229   4.274   7.100
 5565SOL    HW217583   3.245   4.398   7.015
 5566SOL     OW17584   2.784   4.236   6.485
 5566SOL    HW117585   2.762   4.220   6.393
 5566SOL    HW217586   2.824   4.155   6.515
 5567SOL     OW17587   2.410   3.787   6.089
 5567SOL    HW117588   2.330   3.788   6.141
 5567SOL    HW217589   2.404   3.866   6.035
 5568SOL     OW17590   2.154   3.771   5.770
 5568SOL    HW117591   2.213   3.836   5.732
 5568SOL    HW217592   2.213   3.707   5.811
 5569SOL     OW17593   2.798   3.970   6.049
 5569SOL    HW117594   2.771   4.010   5.966
 5569SOL    HW217595   2.893   3.982   6.051
 5570SOL     OW17596   2.939   4.395   7.103
 5570SOL    HW117597   2.855   4.366   7.068
 5570SOL    HW217598   3.004   4.354   7.047
 5571SOL     OW17599   2.886   4.268   5.611
 5571SOL    HW117600   2.869   4.356   5.576
 5571SOL    HW217601   2.950   4.282   5.681
 5572SOL     OW17602   1.937   4.280   6.978
 5572SOL    HW117603   2.028   4.272   6.950
 5572SOL    HW217604   1.937   4.353   7.040
 5573SOL     OW17605   2.422   3.949   6.749
 5573SOL    HW117606   2.462   3.873   6.790
 5573SOL    HW217607   2.331   3.948   6.780
 5574SOL     OW17608   2.731   4.189   6.223
 5574SOL    HW117609   2.696   4.247   6.156
 5574SOL    HW217610   2.750   4.107   6.176
 5575SOL     OW17611   2.876   3.778   6.339
 5575SOL    HW117612   2.818   3.769   6.264
 5575SOL    HW217613   2.856   3.702   6.393
 5576SOL     OW17614   3.339   4.312   6.554
 5576SOL    HW117615   3.282   4.238   6.574
 5576SOL    HW217616   3.391   4.325   6.633
 5577SOL     OW17617   3.263   4.295   5.659
 5577SOL    HW117618   3.201   4.269   5.727
 5577SOL    HW217619   3.346   4.255   5.684
 5578SOL     OW17620   2.387   3.987   5.906
 5578SOL    HW117621   2.428   3.937   5.835
 5578SOL    HW217622   2.371   4.074   5.868
 5579SOL     OW17623   2.780   3.822   6.983
 5579SOL    HW117624   2.804   3.802   6.893
 5579SOL    HW217625   2.859   3.861   7.021
 5580SOL     OW17626   2.295   0.008   6.856
 5580SOL    HW117627   2.362   0.005   6.925
 5580SOL    HW217628   2.253   4.423   6.860
 5581SOL     OW17629   3.128   4.100   6.859
 5581SOL    HW117630   3.162   4.177   6.905
 5581SOL    HW217631   3.039   4.124   6.834
 5582SOL     OW17632   2.416   4.255   6.451
 5582SOL    HW117633   2.436   4.300   6.369
 5582SOL    HW217634   2.480   4.289   6.514
 5583SOL     OW17635   3.433   4.340   6.062
 5583SOL    HW117636   3.403   4.406   6.125
 5583SOL    HW217637   3.492   4.388   6.004
 5584SOL     OW17638   2.858   3.844   7.342
 5584SOL    HW117639   2.912   3.917   7.313
 5584SOL    HW217640   2.907   3.766   7.316
 5585SOL     OW17641   2.360   3.766   7.333
 5585SOL    HW117642   2.318   3.712   7.266
 5585SOL    HW217643   2.300   3.840   7.345
 5586SOL     OW17644   3.073   4.255   5.852
 5586SOL    HW117645   3.083   4.175   5.904
 5586SOL    HW217646   3.024   4.314   5.908
 5587SOL     OW17647   2.162   3.924   6.832
 5587SOL    HW117648   2.125   3.957   6.914
 5587SOL    HW217649   2.143   3.830   6.832
 5588SOL     OW17650   2.593   4.360   6.632
 5588SOL    HW117651   2.666   4.325   6.582
 5588SOL    HW217652   2.599   4.455   6.621
 5589SOL     OW17653   3.613   0.135   7.441
 5589SOL    HW117654   3.549   0.148   7.371
 5589SOL    HW217655   3.567   0.164   7.520
 5590SOL     OW17656   2.165   3.790   6.208
 5590SOL    HW117657   2.145   3.881   6.233
 5590SOL    HW217658   2.170   3.744   6.292
 5591SOL     OW17659   3.474   4.091   5.955
 5591SOL    HW117660   3.504   4.030   6.023
 5591SOL    HW217661   3.452   4.171   6.002
 5592SOL     OW17662   3.390   3.999   5.713
 5592SOL    HW117663   3.327   3.932   5.739
 5592SOL    HW217664   3.424   4.033   5.795
 5593SOL     OW17665   2.180   0.012   6.507
 5593SOL    HW117666   2.256   0.069   6.519
 5593SOL    HW217667   2.193   4.441   6.569
 5594SOL     OW17668   2.199   4.239   6.607
 5594SOL    HW117669   2.160   4.154   6.586
 5594SOL    HW217670   2.272   4.247   6.546
 5595SOL     OW17671   3.000   4.095   7.271
 5595SOL    HW117672   2.948   4.154   7.325
 5595SOL    HW217673   3.084   4.138   7.261
 5596SOL     OW17674   3.022   3.927   7.055
 5596SOL    HW117675   3.013   3.988   7.128
 5596SOL    HW217676   3.061   3.980   6.985
 5597SOL     OW17677   1.898   4.271   6.701
 5597SOL    HW117678   1.980   4.253   6.654
 5597SOL    HW217679   1.924   4.274   6.793
 5598SOL     OW17680   2.054   4.243   7.303
 5598SOL    HW117681   2.111   4.199   7.240
 5598SOL    HW217682   2.000   4.302   7.250
 5599SOL     OW17683   2.681   4.282   5.933
 5599SOL    HW117684   2.680   4.208   5.873
 5599SOL    HW217685   2.594   4.322   5.923
 5600SOL     OW17686   3.499   4.318   6.774
 5600SOL    HW117687   3.494   4.260   6.850
 5600SOL    HW217688   3.587   4.304   6.739
 5601SOL     OW17689   2.546   4.182   6.842
 5601SOL    HW117690   2.501   4.104   6.810
 5601SOL    HW217691   2.549   4.241   6.767
 5602SOL     OW17692   2.343   4.222   5.777
 5602SOL    HW117693   2.377   4.310   5.795
 5602SOL    HW217694   2.248   4.235   5.767
 5603SOL     OW17695   3.581   3.867   6.098
 5603SOL    HW117696   3.654   3.853   6.038
 5603SOL    HW217697   3.565   3.782   6.137
 5604SOL     OW17698   3.141   0.137   6.265
 5604SOL    HW117699   3.200   0.062   6.273
 5604SOL    HW217700   3.192   0.201   6.215
 5605SOL     OW17701   3.701   3.896   6.554
 5605SOL    HW117702   3.730   3.810   6.525
 5605SOL    HW217703   3.615   3.908   6.513
 5606SOL     OW17704   2.125   4.042   6.304
 5606SOL    HW117705   2.038   4.073   6.279
 5606SOL    HW217706   2.120   4.031   6.399
 5607SOL     OW17707   2.771   0.091   5.808
 5607SOL    HW117708   2.853   0.133   5.779
 5607SOL    HW217709   2.794   0.052   5.893
 5608SOL     OW17710   2.928   0.303   6.325
 5608SOL    HW117711   2.847   0.286   6.277
 5608SOL    HW217712   2.990   0.238   6.291
 5609SOL     OW17713   2.881   3.964   6.551
 5609SOL    HW117714   2.877   3.915   6.469
 5609SOL    HW217715   2.877   3.897   6.619
 5610SOL     OW17716   3.582   4.114   6.966
 5610SOL    HW117717   3.653   4.178   6.963
 5610SOL    HW217718   3.612   4.043   6.910
 5611SOL     OW17719   2.535   3.919   7.085
 5611SOL    HW117720   2.619   3.901   7.043
 5611SOL    HW217721   2.558   3.951   7.173
 5612SOL     OW17722   1.937   4.045   5.615
 5612SOL    HW117723   1.849   4.038   5.578
 5612SOL    HW217724   1.969   4.130   5.586
 5613SOL     OW17725   1.932   3.881   5.899
 5613SOL    HW117726   1.916   3.961   5.848
 5613SOL    HW217727   2.016   3.849   5.868
 5614SOL     OW17728   2.589   4.287   7.289
 5614SOL    HW117729   2.593   4.334   7.372
 5614SOL    HW217730   2.613   4.197   7.311
 5615SOL     OW17731   3.081   4.042   6.041
 5615SOL    HW117732   3.144   3.971   6.032
 5615SOL    HW217733   3.109   4.090   6.119
 5616SOL     OW17734   3.624   4.089   7.234
 5616SOL    HW117735   3.607   4.099   7.140
 5616SOL    HW217736   3.555   4.030   7.265
 5617SOL     OW17737   2.972   0.229   5.690
 5617SOL    HW117738   2.954   0.271   5.606
 5617SOL    HW217739   3.053   0.180   5.675
 5618SOL     OW17740   3.676   3.908   6.824
 5618SOL    HW117741   3.685   3.814   6.839
 5618SOL    HW217742   3.685   3.919   6.730
 5619SOL     OW17743   2.305   4.155   6.124
 5619SOL    HW117744   2.324   4.085   6.061
 5619SOL    HW217745   2.249   4.113   6.189
 5620SOL     OW17746   2.185   4.264   6.880
 5620SOL    HW117747   2.242   4.210   6.934
 5620SOL    HW217748   2.206   4.238   6.790
 5621SOL     OW17749   3.294   3.948   6.704
 5621SOL    HW117750   3.322   3.869   6.751
 5621SOL    HW217751   3.242   3.997   6.767
 5622SOL     OW17752   2.871   3.744   6.730
 5622SOL    HW117753   2.816   3.675   6.693
 5622SOL    HW217754   2.959   3.707   6.732
 5623SOL     OW17755   3.214   3.778   5.750
 5623SOL    HW117756   3.241   3.716   5.682
 5623SOL    HW217757   3.127   3.747   5.777
 5624SOL     OW17758   3.161   4.176   6.268
 5624SOL    HW117759   3.122   4.262   6.282
 5624SOL    HW217760   3.161   4.135   6.354
 5625SOL     OW17761   3.448   3.928   6.463
 5625SOL    HW117762   3.387   3.948   6.533
 5625SOL    HW217763   3.449   4.007   6.408
 5626SOL     OW17764   2.087   4.289   7.572
 5626SOL    HW117765   2.029   4.356   7.608
 5626SOL    HW217766   2.078   4.298   7.477
 5627SOL     OW17767   2.086   4.000   8.438
 5627SOL    HW117768   2.114   3.968   8.524
 5627SOL    HW217769   1.996   3.970   8.429
 5628SOL     OW17770   1.868   4.101   8.091
 5628SOL    HW117771   1.785   4.130   8.130
 5628SOL    HW217772   1.845   4.024   8.039
 5629SOL     OW17773   3.596   4.335   7.685
 5629SOL    HW117774   3.594   4.321   7.590
 5629SOL    HW217775   3.594   4.247   7.722
 5630SOL     OW17776   2.590   0.268   8.133
 5630SOL    HW117777   2.584   0.207   8.207
 5630SOL    HW217778   2.499   0.284   8.108
 5631SOL     OW17779   2.309   4.118   8.935
 5631SOL    HW117780   2.386   4.061   8.942
 5631SOL    HW217781   2.235   4.059   8.950
 5632SOL     OW17782   3.477   4.173   8.187
 5632SOL    HW117783   3.406   4.199   8.129
 5632SOL    HW217784   3.482   4.243   8.251
 5633SOL     OW17785   3.458   3.846   8.917
 5633SOL    HW117786   3.459   3.925   8.864
 5633SOL    HW217787   3.445   3.877   9.007
 5634SOL     OW17788   1.941   4.371   8.016
 5634SOL    HW117789   1.933   4.278   8.038
 5634SOL    HW217790   2.003   4.405   8.080
 5635SOL     OW17791   1.981   4.474   9.032
 5635SOL    HW117792   2.051   4.489   9.096
 5635SOL    HW217793   1.948   0.061   9.011
 5636SOL     OW17794   2.675   3.724   7.954
 5636SOL    HW117795   2.715   3.809   7.938
 5636SOL    HW217796   2.582   3.743   7.965
 5637SOL     OW17797   2.194   3.975   9.255
 5637SOL    HW117798   2.236   4.059   9.272
 5637SOL    HW217799   2.104   3.987   9.286
 5638SOL     OW17800   3.140   4.071   8.380
 5638SOL    HW117801   3.050   4.038   8.390
 5638SOL    HW217802   3.191   4.020   8.442
 5639SOL     OW17803   2.687   4.308   8.898
 5639SOL    HW117804   2.646   4.313   8.984
 5639SOL    HW217805   2.621   4.266   8.842
 5640SOL     OW17806   3.258   4.199   9.124
 5640SOL    HW117807   3.258   4.243   9.210
 5640SOL    HW217808   3.317   4.125   9.135
 5641SOL     OW17809   2.858   4.148   8.682
 5641SOL    HW117810   2.785   4.170   8.740
 5641SOL    HW217811   2.821   4.090   8.616
 5642SOL     OW17812   2.918   4.410   7.867
 5642SOL    HW117813   2.918   4.447   7.955
 5642SOL    HW217814   2.830   4.373   7.856
 5643SOL     OW17815   2.750   4.064   7.638
 5643SOL    HW117816   2.793   4.126   7.580
 5643SOL    HW217817   2.770   3.978   7.600
 5644SOL     OW17818   3.569   4.298   9.276
 5644SOL    HW117819   3.579   4.387   9.242
 5644SOL    HW217820   3.591   4.241   9.203
 5645SOL     OW17821   2.412   3.907   8.340
 5645SOL    HW117822   2.413   3.933   8.431
 5645SOL    HW217823   2.411   3.989   8.291
 5646SOL     OW17824   3.351   4.463   8.185
 5646SOL    HW117825   3.332   4.409   8.261
 5646SOL    HW217826   3.391   0.042   8.221
 5647SOL     OW17827   2.060   4.005   8.950
 5647SOL    HW117828   1.976   4.051   8.942
 5647SOL    HW217829   2.046   3.940   9.018
 5648SOL     OW17830   3.263   3.831   7.879
 5648SOL    HW117831   3.253   3.806   7.787
 5648SOL    HW217832   3.357   3.840   7.891
 5649SOL     OW17833   2.218   4.386   7.857
 5649SOL    HW117834   2.257   4.311   7.903
 5649SOL    HW217835   2.147   4.414   7.915
 5650SOL     OW17836   3.399   3.950   9.173
 5650SOL    HW117837   3.407   3.972   9.266
 5650SOL    HW217838   3.331   3.883   9.170
 5651SOL     OW17839   2.493   3.848   7.554
 5651SOL    HW117840   2.566   3.787   7.566
 5651SOL    HW217841   2.446   3.816   7.478
 5652SOL     OW17842   2.629   4.001   9.201
 5652SOL    HW117843   2.703   3.941   9.205
 5652SOL    HW217844   2.579   3.983   9.281
 5653SOL     OW17845   3.207   4.311   8.876
 5653SOL    HW117846   3.229   4.274   8.962
 5653SOL    HW217847   3.245   4.398   8.877
 5654SOL     OW17848   2.784   4.236   8.347
 5654SOL    HW117849   2.762   4.220   8.255
 5654SOL    HW217850   2.824   4.155   8.377
 5655SOL     OW17851   2.410   3.787   7.952
 5655SOL    HW117852   2.330   3.787   8.004
 5655SOL    HW217853   2.404   3.866   7.897
 5656SOL     OW17854   2.154   3.771   7.632
 5656SOL    HW117855   2.213   3.836   7.594
 5656SOL    HW217856   2.213   3.707   7.673
 5657SOL     OW17857   2.798   3.971   7.911
 5657SOL    HW117858   2.771   4.010   7.828
 5657SOL    HW217859   2.893   3.982   7.913
 5658SOL     OW17860   2.939   4.395   8.965
 5658SOL    HW117861   2.854   4.366   8.930
 5658SOL    HW217862   3.004   4.354   8.909
 5659SOL     OW17863   2.887   4.268   7.473
 5659SOL    HW117864   2.869   4.355   7.438
 5659SOL    HW217865   2.950   4.282   7.543
 5660SOL     OW17866   1.937   4.280   8.840
 5660SOL    HW117867   2.028   4.272   8.812
 5660SOL    HW217868   1.937   4.353   8.902
 5661SOL     OW17869   2.422   3.950   8.611
 5661SOL    HW117870   2.462   3.872   8.650
 5661SOL    HW217871   2.331   3.948   8.642
 5662SOL     OW17872   2.732   4.189   8.085
 5662SOL    HW117873   2.696   4.247   8.018
 5662SOL    HW217874   2.750   4.108   8.039
 5663SOL     OW17875   2.876   3.777   8.201
 5663SOL    HW117876   2.818   3.768   8.125
 5663SOL    HW217877   2.856   3.701   8.256
 5664SOL     OW17878   3.339   4.312   8.416
 5664SOL    HW117879   3.282   4.238   8.436
 5664SOL    HW217880   3.391   4.325   8.495
 5665SOL     OW17881   3.263   4.295   7.521
 5665SOL    HW117882   3.201   4.269   7.589
 5665SOL    HW217883   3.346   4.255   7.547
 5666SOL     OW17884   2.387   3.987   7.768
 5666SOL    HW117885   2.428   3.937   7.697
 5666SOL    HW217886   2.371   4.074   7.730
 5667SOL     OW17887   2.780   3.822   8.845
 5667SOL    HW117888   2.804   3.802   8.755
 5667SOL    HW217889   2.859   3.861   8.883
 5668SOL     OW17890   2.295   0.008   8.718
 5668SOL    HW117891   2.362   0.005   8.787
 5668SOL    HW217892   2.253   4.423   8.722
 5669SOL     OW17893   3.128   4.100   8.721
 5669SOL    HW117894   3.162   4.177   8.767
 5669SOL    HW217895   3.039   4.124   8.696
 5670SOL     OW17896   2.416   4.255   8.313
 5670SOL    HW117897   2.436   4.300   8.231
 5670SOL    HW217898   2.480   4.289   8.376
 5671SOL     OW17899   3.433   4.341   7.924
 5671SOL    HW117900   3.403   4.406   7.987
 5671SOL    HW217901   3.492   4.388   7.866
 5672SOL     OW17902   2.858   3.844   9.204
 5672SOL    HW117903   2.912   3.917   9.175
 5672SOL    HW217904   2.907   3.766   9.178
 5673SOL     OW17905   2.360   3.766   9.195
 5673SOL    HW117906   2.318   3.712   9.128
 5673SOL    HW217907   2.300   3.840   9.207
 5674SOL     OW17908   3.073   4.255   7.713
 5674SOL    HW117909   3.083   4.175   7.766
 5674SOL    HW217910   3.024   4.314   7.770
 5675SOL     OW17911   2.162   3.924   8.694
 5675SOL    HW117912   2.125   3.957   8.776
 5675SOL    HW217913   2.142   3.830   8.695
 5676SOL     OW17914   2.593   4.360   8.494
 5676SOL    HW117915   2.666   4.325   8.445
 5676SOL    HW217916   2.599   4.455   8.483
 5677SOL     OW17917   3.613   0.135   9.303
 5677SOL    HW117918   3.549   0.148   9.233
 5677SOL    HW217919   3.567   0.164   9.382
 5678SOL     OW17920   2.164   3.790   8.071
 5678SOL    HW117921   2.145   3.880   8.095
 5678SOL    HW217922   2.170   3.743   8.154
 5679SOL     OW17923   3.475   4.091   7.817
 5679SOL    HW117924   3.504   4.030   7.885
 5679SOL    HW217925   3.452   4.171   7.864
 5680SOL     OW17926   3.390   3.999   7.575
 5680SOL    HW117927   3.327   3.932   7.601
 5680SOL    HW217928   3.424   4.033   7.657
 5681SOL     OW17929   2.180   0.012   8.369
 5681SOL    HW117930   2.256   0.069   8.381
 5681SOL    HW217931   2.193   4.440   8.431
 5682SOL     OW17932   2.199   4.239   8.469
 5682SOL    HW117933   2.160   4.154   8.448
 5682SOL    HW217934   2.272   4.247   8.408
 5683SOL     OW17935   3.000   4.095   9.133
 5683SOL    HW117936   2.948   4.154   9.187
 5683SOL    HW217937   3.084   4.139   9.123
 5684SOL     OW17938   3.022   3.927   8.917
 5684SOL    HW117939   3.013   3.988   8.990
 5684SOL    HW217940   3.061   3.980   8.847
 5685SOL     OW17941   1.898   4.271   8.563
 5685SOL    HW117942   1.980   4.253   8.516
 5685SOL    HW217943   1.924   4.274   8.655
 5686SOL     OW17944   2.054   4.243   9.165
 5686SOL    HW117945   2.111   4.199   9.102
 5686SOL    HW217946   2.000   4.302   9.112
 5687SOL     OW17947   2.681   4.283   7.794
 5687SOL    HW117948   2.680   4.208   7.735
 5687SOL    HW217949   2.593   4.322   7.785
 5688SOL     OW17950   3.499   4.318   8.636
 5688SOL    HW117951   3.494   4.260   8.712
 5688SOL    HW217952   3.587   4.304   8.601
 5689SOL     OW17953   2.546   4.182   8.705
 5689SOL    HW117954   2.501   4.104   8.672
 5689SOL    HW217955   2.549   4.241   8.629
 5690SOL     OW17956   2.343   4.222   7.639
 5690SOL    HW117957   2.376   4.310   7.658
 5690SOL    HW217958   2.248   4.235   7.628
 5691SOL     OW17959   3.581   3.867   7.960
 5691SOL    HW117960   3.654   3.853   7.900
 5691SOL    HW217961   3.565   3.782   7.999
 5692SOL     OW17962   3.141   0.137   8.127
 5692SOL    HW117963   3.200   0.062   8.135
 5692SOL    HW217964   3.192   0.201   8.076
 5693SOL     OW17965   3.701   3.896   8.416
 5693SOL    HW117966   3.730   3.810   8.387
 5693SOL    HW217967   3.615   3.908   8.375
 5694SOL     OW17968   2.125   4.042   8.166
 5694SOL    HW117969   2.038   4.073   8.141
 5694SOL    HW217970   2.120   4.030   8.261
 5695SOL     OW17971   2.771   0.091   7.670
 5695SOL    HW117972   2.853   0.133   7.641
 5695SOL    HW217973   2.794   0.052   7.754
 5696SOL     OW17974   2.929   0.303   8.186
 5696SOL    HW117975   2.847   0.285   8.139
 5696SOL    HW217976   2.990   0.238   8.153
 5697SOL     OW17977   2.881   3.964   8.413
 5697SOL    HW117978   2.877   3.915   8.331
 5697SOL    HW217979   2.877   3.897   8.481
 5698SOL     OW17980   3.582   4.114   8.828
 5698SOL    HW117981   3.653   4.178   8.825
 5698SOL    HW217982   3.612   4.043   8.772
 5699SOL     OW17983   2.535   3.919   8.947
 5699SOL    HW117984   2.619   3.901   8.905
 5699SOL    HW217985   2.558   3.951   9.035
 5700SOL     OW17986   1.937   4.045   7.478
 5700SOL    HW117987   1.849   4.038   7.441
 5700SOL    HW217988   1.968   4.130   7.447
 5701SOL     OW17989   1.932   3.881   7.761
 5701SOL    HW117990   1.917   3.961   7.710
 5701SOL    HW217991   2.016   3.849   7.729
 5702SOL     OW17992   2.589   4.287   9.151
 5702SOL    HW117993   2.593   4.334   9.234
 5702SOL    HW217994   2.613   4.197   9.173
 5703SOL     OW17995   3.081   4.043   7.903
 5703SOL    HW117996   3.144   3.971   7.894
 5703SOL    HW217997   3.109   4.090   7.981
 5704SOL     OW17998   3.624   4.089   9.096
 5704SOL    HW117999   3.607   4.099   9.002
 5704SOL    HW218000   3.555   4.030   9.127
 5705SOL     OW18001   2.972   0.229   7.552
 5705SOL    HW118002   2.954   0.270   7.467
 5705SOL    HW218003   3.053   0.180   7.537
 5706SOL     OW18004   3.676   3.908   8.686
 5706SOL    HW118005   3.685   3.814   8.701
 5706SOL    HW218006   3.685   3.919   8.592
 5707SOL     OW18007   2.305   4.155   7.986
 5707SOL    HW118008   2.325   4.085   7.923
 5707SOL    HW218009   2.249   4.112   8.051
 5708SOL     OW18010   2.185   4.264   8.742
 5708SOL    HW118011   2.242   4.210   8.796
 5708SOL    HW218012   2.206   4.238   8.652
 5709SOL     OW18013   3.294   3.948   8.566
 5709SOL    HW118014   3.321   3.869   8.613
 5709SOL    HW218015   3.242   3.997   8.629
 5710SOL     OW18016   2.871   3.744   8.592
 5710SOL    HW118017   2.816   3.676   8.553
 5710SOL    HW218018   2.959   3.707   8.594
 5711SOL     OW18019   3.214   3.778   7.612
 5711SOL    HW118020   3.241   3.716   7.544
 5711SOL    HW218021   3.127   3.747   7.639
 5712SOL     OW18022   3.161   4.176   8.130
 5712SOL    HW118023   3.121   4.262   8.145
 5712SOL    HW218024   3.161   4.135   8.216
 5713SOL     OW18025   3.449   3.928   8.325
 5713SOL    HW118026   3.387   3.948   8.395
 5713SOL    HW218027   3.449   4.007   8.270
 5714SOL     OW18028   2.087   4.289   9.434
 5714SOL    HW118029   2.030   4.357   9.470
 5714SOL    HW218030   2.077   4.298   9.339
 5715SOL     OW18031   2.086   4.000  10.300
 5715SOL    HW118032   2.114   3.969  10.386
 5715SOL    HW218033   1.996   3.970  10.291
 5716SOL     OW18034   1.868   4.101   9.953
 5716SOL    HW118035   1.785   4.130   9.992
 5716SOL    HW218036   1.844   4.024   9.901
 5717SOL     OW18037   3.596   4.335   9.547
 5717SOL    HW118038   3.594   4.321   9.452
 5717SOL    HW218039   3.594   4.247   9.584
 5718SOL     OW18040   2.590   0.268   9.995
 5718SOL    HW118041   2.583   0.207  10.069
 5718SOL    HW218042   2.499   0.285   9.969
 5719SOL     OW18043   2.315   4.119  10.793
 5719SOL    HW118044   2.385   4.054  10.800
 5719SOL    HW218045   2.235   4.071  10.816
 5720SOL     OW18046   3.477   4.173  10.049
 5720SOL    HW118047   3.406   4.199   9.990
 5720SOL    HW218048   3.483   4.244  10.113
 5721SOL     OW18049   3.451   3.840  10.779
 5721SOL    HW118050   3.461   3.920  10.728
 5721SOL    HW218051   3.451   3.869  10.870
 5722SOL     OW18052   1.941   4.371   9.878
 5722SOL    HW118053   1.933   4.278   9.900
 5722SOL    HW218054   2.003   4.405   9.942
 5723SOL     OW18055   1.990   4.459  10.906
 5723SOL    HW118056   2.085   4.464  10.909
 5723SOL    HW218057   1.961   0.049  10.893
 5724SOL     OW18058   2.675   3.724   9.816
 5724SOL    HW118059   2.715   3.809   9.800
 5724SOL    HW218060   2.582   3.743   9.827
 5725SOL     OW18061   2.203   3.978   0.016
 5725SOL    HW118062   2.246   4.062   0.033
 5725SOL    HW218063   2.110   3.996   0.033
 5726SOL     OW18064   3.140   4.071  10.243
 5726SOL    HW118065   3.051   4.037  10.252
 5726SOL    HW218066   3.192   4.019  10.304
 5727SOL     OW18067   2.685   4.303  10.766
 5727SOL    HW118068   2.638   4.317  10.847
 5727SOL    HW218069   2.621   4.264  10.707
 5728SOL     OW18070   2.858   4.147  10.546
 5728SOL    HW118071   2.782   4.169  10.599
 5728SOL    HW218072   2.823   4.090  10.477
 5729SOL     OW18073   2.918   4.410   9.729
 5729SOL    HW118074   2.918   4.447   9.817
 5729SOL    HW218075   2.830   4.373   9.718
 5730SOL     OW18076   2.750   4.064   9.500
 5730SOL    HW118077   2.793   4.126   9.442
 5730SOL    HW218078   2.770   3.978   9.462
 5731SOL     OW18079   2.412   3.907  10.202
 5731SOL    HW118080   2.413   3.934  10.294
 5731SOL    HW218081   2.411   3.989  10.153
 5732SOL     OW18082   3.351   4.463  10.047
 5732SOL    HW118083   3.332   4.409  10.123
 5732SOL    HW218084   3.392   0.042  10.083
 5733SOL     OW18085   2.063   4.004  10.807
 5733SOL    HW118086   1.983   4.057  10.807
 5733SOL    HW218087   2.052   3.943  10.880
 5734SOL     OW18088   3.263   3.831   9.741
 5734SOL    HW118089   3.253   3.806   9.649
 5734SOL    HW218090   3.357   3.840   9.753
 5735SOL     OW18091   2.218   4.386   9.719
 5735SOL    HW118092   2.257   4.311   9.765
 5735SOL    HW218093   2.147   4.415   9.777
 5736SOL     OW18094   2.493   3.848   9.416
 5736SOL    HW118095   2.566   3.787   9.427
 5736SOL    HW218096   2.446   3.816   9.340
 5737SOL     OW18097   2.629   4.000  11.046
 5737SOL    HW118098   2.696   3.942  11.083
 5737SOL    HW218099   2.570   4.018   0.018
 5738SOL     OW18100   3.214   4.308  10.743
 5738SOL    HW118101   3.235   4.288  10.835
 5738SOL    HW218102   3.238   4.400  10.733
 5739SOL     OW18103   2.785   4.236  10.209
 5739SOL    HW118104   2.762   4.220  10.117
 5739SOL    HW218105   2.824   4.154  10.238
 5740SOL     OW18106   2.410   3.787   9.814
 5740SOL    HW118107   2.330   3.787   9.866
 5740SOL    HW218108   2.404   3.866   9.759
 5741SOL     OW18109   2.154   3.771   9.494
 5741SOL    HW118110   2.213   3.836   9.456
 5741SOL    HW218111   2.213   3.707   9.535
 5742SOL     OW18112   2.798   3.970   9.773
 5742SOL    HW118113   2.771   4.010   9.690
 5742SOL    HW218114   2.893   3.982   9.775
 5743SOL     OW18115   2.941   4.384  10.818
 5743SOL    HW118116   2.854   4.363  10.784
 5743SOL    HW218117   3.002   4.344  10.756
 5744SOL     OW18118   2.887   4.268   9.335
 5744SOL    HW118119   2.869   4.355   9.300
 5744SOL    HW218120   2.950   4.282   9.405
 5745SOL     OW18121   1.935   4.281  10.704
 5745SOL    HW118122   2.026   4.273  10.677
 5745SOL    HW218123   1.937   4.341  10.779
 5746SOL     OW18124   2.422   3.950  10.474
 5746SOL    HW118125   2.461   3.872  10.513
 5746SOL    HW218126   2.331   3.949  10.504
 5747SOL     OW18127   2.732   4.189   9.947
 5747SOL    HW118128   2.696   4.248   9.881
 5747SOL    HW218129   2.750   4.108   9.901
 5748SOL     OW18130   2.876   3.777  10.063
 5748SOL    HW118131   2.818   3.769   9.987
 5748SOL    HW218132   2.855   3.701  10.117
 5749SOL     OW18133   3.338   4.312  10.277
 5749SOL    HW118134   3.282   4.237  10.297
 5749SOL    HW218135   3.390   4.325  10.357
 5750SOL     OW18136   3.263   4.296   9.383
 5750SOL    HW118137   3.202   4.269   9.451
 5750SOL    HW218138   3.346   4.255   9.408
 5751SOL     OW18139   2.387   3.987   9.630
 5751SOL    HW118140   2.428   3.937   9.559
 5751SOL    HW218141   2.371   4.074   9.592
 5752SOL     OW18142   2.780   3.823  10.707
 5752SOL    HW118143   2.804   3.802  10.617
 5752SOL    HW218144   2.859   3.863  10.744
 5753SOL     OW18145   2.297   0.006  10.574
 5753SOL    HW118146   2.356   0.008  10.649
 5753SOL    HW218147   2.251   4.423  10.582
 5754SOL     OW18148   3.128   4.100  10.585
 5754SOL    HW118149   3.163   4.177  10.629
 5754SOL    HW218150   3.040   4.125  10.559
 5755SOL     OW18151   2.417   4.254  10.175
 5755SOL    HW118152   2.436   4.301  10.093
 5755SOL    HW218153   2.480   4.289  10.238
 5756SOL     OW18154   3.433   4.340   9.786
 5756SOL    HW118155   3.403   4.406   9.849
 5756SOL    HW218156   3.492   4.388   9.728
 5757SOL     OW18157   2.266   4.463  10.906
 5757SOL    HW118158   2.332   0.030  10.887
 5757SOL    HW218159   2.317   4.383  10.920
 5758SOL     OW18160   3.073   4.255   9.576
 5758SOL    HW118161   3.083   4.175   9.628
 5758SOL    HW218162   3.024   4.314   9.632
 5759SOL     OW18163   2.162   3.924  10.555
 5759SOL    HW118164   2.127   3.958  10.637
 5759SOL    HW218165   2.142   3.830  10.557
 5760SOL     OW18166   2.593   4.360  10.356
 5760SOL    HW118167   2.666   4.325  10.306
 5760SOL    HW218168   2.598   4.455  10.344
 5761SOL     OW18169   2.164   3.790   9.933
 5761SOL    HW118170   2.145   3.880   9.957
 5761SOL    HW218171   2.170   3.743  10.016
 5762SOL     OW18172   3.475   4.091   9.679
 5762SOL    HW118173   3.504   4.030   9.747
 5762SOL    HW218174   3.452   4.171   9.726
 5763SOL     OW18175   3.390   3.999   9.437
 5763SOL    HW118176   3.327   3.932   9.463
 5763SOL    HW218177   3.424   4.033   9.519
 5764SOL     OW18178   2.181   0.012  10.230
 5764SOL    HW118179   2.256   0.069  10.244
 5764SOL    HW218180   2.192   4.441  10.293
 5765SOL     OW18181   2.199   4.239  10.330
 5765SOL    HW118182   2.160   4.154  10.310
 5765SOL    HW218183   2.272   4.246  10.269
 5766SOL     OW18184   3.019   3.933  10.781
 5766SOL    HW118185   3.027   3.992  10.856
 5766SOL    HW218186   3.059   3.980  10.709
 5767SOL     OW18187   1.899   4.272  10.426
 5767SOL    HW118188   1.981   4.254  10.380
 5767SOL    HW218189   1.924   4.275  10.518
 5768SOL     OW18190   3.215   0.185  10.990
 5768SOL    HW118191   3.276   0.258  11.000
 5768SOL    HW218192   3.228   0.154  10.900
 5769SOL     OW18193   2.681   4.284   9.656
 5769SOL    HW118194   2.680   4.208   9.597
 5769SOL    HW218195   2.593   4.322   9.647
 5770SOL     OW18196   3.499   4.318  10.498
 5770SOL    HW118197   3.495   4.259  10.573
 5770SOL    HW218198   3.587   4.306  10.462
 5771SOL     OW18199   2.552   4.181  10.566
 5771SOL    HW118200   2.502   4.104  10.536
 5771SOL    HW218201   2.549   4.241  10.492
 5772SOL     OW18202   2.343   4.222   9.501
 5772SOL    HW118203   2.376   4.310   9.520
 5772SOL    HW218204   2.248   4.234   9.490
 5773SOL     OW18205   3.581   3.867   9.822
 5773SOL    HW118206   3.654   3.853   9.762
 5773SOL    HW218207   3.565   3.782   9.861
 5774SOL     OW18208   3.142   0.137   9.989
 5774SOL    HW118209   3.200   0.062   9.997
 5774SOL    HW218210   3.192   0.201   9.938
 5775SOL     OW18211   3.701   3.896  10.278
 5775SOL    HW118212   3.731   3.810  10.249
 5775SOL    HW218213   3.615   3.908  10.237
 5776SOL     OW18214   2.125   4.042  10.028
 5776SOL    HW118215   2.038   4.073  10.003
 5776SOL    HW218216   2.120   4.030  10.123
 5777SOL     OW18217   2.772   0.091   9.532
 5777SOL    HW118218   2.853   0.133   9.503
 5777SOL    HW218219   2.794   0.052   9.616
 5778SOL     OW18220   2.929   0.303  10.049
 5778SOL    HW118221   2.847   0.286  10.001
 5778SOL    HW218222   2.990   0.237  10.015
 5779SOL     OW18223   2.882   3.964  10.275
 5779SOL    HW118224   2.876   3.916  10.193
 5779SOL    HW218225   2.877   3.897  10.343
 5780SOL     OW18226   3.579   4.116  10.690
 5780SOL    HW118227   3.651   4.180  10.690
 5780SOL    HW218228   3.609   4.045  10.633
 5781SOL     OW18229   2.535   3.917  10.804
 5781SOL    HW118230   2.617   3.898  10.759
 5781SOL    HW218231   2.562   3.954  10.888
 5782SOL     OW18232   1.937   4.045   9.339
 5782SOL    HW118233   1.849   4.038   9.302
 5782SOL    HW218234   1.968   4.130   9.309
 5783SOL     OW18235   1.932   3.881   9.623
 5783SOL    HW118236   1.917   3.961   9.572
 5783SOL    HW218237   2.016   3.849   9.591
 5784SOL     OW18238   2.580   4.299  11.025
 5784SOL    HW118239   2.619   4.344  11.099
 5784SOL    HW218240   2.621   4.212  11.026
 5785SOL     OW18241   3.081   4.043   9.765
 5785SOL    HW118242   3.144   3.971   9.756
 5785SOL    HW218243   3.109   4.090   9.843
 5786SOL     OW18244   3.616   4.051  10.954
 5786SOL    HW118245   3.595   4.081  10.865
 5786SOL    HW218246   3.533   4.055  11.001
 5787SOL     OW18247   2.972   0.229   9.414
 5787SOL    HW118248   2.953   0.270   9.329
 5787SOL    HW218249   3.053   0.180   9.399
 5788SOL     OW18250   3.673   3.908  10.549
 5788SOL    HW118251   3.684   3.814  10.562
 5788SOL    HW218252   3.683   3.920  10.454
 5789SOL     OW18253   2.305   4.155   9.848
 5789SOL    HW118254   2.324   4.085   9.785
 5789SOL    HW218255   2.249   4.113   9.913
 5790SOL     OW18256   2.183   4.264  10.603
 5790SOL    HW118257   2.239   4.210  10.659
 5790SOL    HW218258   2.205   4.237  10.514
 5791SOL     OW18259   3.293   3.947  10.428
 5791SOL    HW118260   3.323   3.869  10.474
 5791SOL    HW218261   3.242   3.996  10.492
 5792SOL     OW18262   2.870   3.744  10.455
 5792SOL    HW118263   2.816   3.676  10.415
 5792SOL    HW218264   2.958   3.706  10.456
 5793SOL     OW18265   3.214   3.778   9.474
 5793SOL    HW118266   3.241   3.716   9.406
 5793SOL    HW218267   3.127   3.747   9.501
 5794SOL     OW18268   3.161   4.176   9.992
 5794SOL    HW118269   3.121   4.262  10.006
 5794SOL    HW218270   3.161   4.135  10.079
 5795SOL     OW18271   3.449   3.928  10.186
 5795SOL    HW118272   3.387   3.948  10.257
 5795SOL    HW218273   3.450   4.007  10.132
 5796SOL     OW18274   3.950   0.613   0.117
 5796SOL    HW118275   3.864   0.620   0.160
 5796SOL    HW218276   3.932   0.636   0.026
 5797SOL     OW18277   3.931   0.300   0.988
 5797SOL    HW118278   3.965   0.271   1.073
 5797SOL    HW218279   3.851   0.250   0.976
 5798SOL     OW18280   3.731   0.385   0.638
 5798SOL    HW118281   3.645   0.405   0.675
 5798SOL    HW218282   3.716   0.308   0.582
 5799SOL     OW18283   4.267   1.248   1.147
 5799SOL    HW118284   4.195   1.306   1.123
 5799SOL    HW218285   4.331   1.306   1.190
 5800SOL     OW18286   0.023   0.779   1.857
 5800SOL    HW118287   0.070   0.829   1.924
 5800SOL    HW218288   0.064   0.806   1.775
 5801SOL     OW18289   4.397   0.992   0.641
 5801SOL    HW118290   4.472   0.992   0.700
 5801SOL    HW218291   4.334   1.052   0.682
 5802SOL     OW18292   4.419   1.161   1.814
 5802SOL    HW118293   4.461   1.242   1.785
 5802SOL    HW218294   4.327   1.171   1.787
 5803SOL     OW18295   4.060   1.433   1.069
 5803SOL    HW118296   3.987   1.391   1.022
 5803SOL    HW218297   4.107   1.481   1.001
 5804SOL     OW18298   4.163   0.396   1.488
 5804SOL    HW118299   4.242   0.342   1.489
 5804SOL    HW218300   4.092   0.334   1.501
 5805SOL     OW18301   3.942   1.713   0.476
 5805SOL    HW118302   3.964   1.790   0.527
 5805SOL    HW218303   4.011   1.707   0.410
 5806SOL     OW18304   3.951   1.440   0.532
 5806SOL    HW118305   3.936   1.534   0.538
 5806SOL    HW218306   3.891   1.402   0.596
 5807SOL     OW18307   3.974   1.089   0.887
 5807SOL    HW118308   3.978   1.004   0.932
 5807SOL    HW218309   3.921   1.144   0.944
 5808SOL     OW18310   4.360   1.798   1.453
 5808SOL    HW118311   4.274   1.764   1.477
 5808SOL    HW218312   4.349   1.893   1.453
 5809SOL     OW18313   4.300   1.002   0.138
 5809SOL    HW118314   4.316   1.067   0.070
 5809SOL    HW218315   4.380   1.003   0.190
 5810SOL     OW18316   3.838   0.651   0.560
 5810SOL    HW118317   3.809   0.563   0.582
 5810SOL    HW218318   3.830   0.700   0.641
 5811SOL     OW18319   3.768   1.602   0.120
 5811SOL    HW118320   3.740   1.513   0.143
 5811SOL    HW218321   3.740   1.656   0.195
 5812SOL     OW18322   3.845   0.743   1.585
 5812SOL    HW118323   3.937   0.768   1.598
 5812SOL    HW218324   3.797   0.826   1.592
 5813SOL     OW18325   4.312   1.387   0.738
 5813SOL    HW118326   4.276   1.298   0.741
 5813SOL    HW218327   4.312   1.408   0.644
 5814SOL     OW18328   0.016   0.009   0.503
 5814SOL    HW118329   0.047   0.077   0.444
 5814SOL    HW218330   4.428   0.037   0.528
 5815SOL     OW18331   3.913   0.967   1.271
 5815SOL    HW118332   3.998   0.927   1.253
 5815SOL    HW218333   3.850   0.912   1.223
 5816SOL     OW18334   4.039   0.253   1.784
 5816SOL    HW118335   4.101   0.319   1.814
 5816SOL    HW218336   3.964   0.261   1.844
 5817SOL     OW18337   4.308   0.719   0.269
 5817SOL    HW118338   4.330   0.794   0.215
 5817SOL    HW218339   4.244   0.752   0.332
 5818SOL     OW18340   3.813   0.821   0.775
 5818SOL    HW118341   3.894   0.813   0.825
 5818SOL    HW218342   3.770   0.899   0.810
 5819SOL     OW18343   3.853   1.842   1.576
 5819SOL    HW118344   3.851   1.823   1.670
 5819SOL    HW218345   3.761   1.841   1.550
 5820SOL     OW18346   4.249   0.202   0.894
 5820SOL    HW118347   4.285   0.219   0.982
 5820SOL    HW218348   4.263   0.284   0.847
 5821SOL     OW18349   4.082   1.810   0.861
 5821SOL    HW118350   4.130   1.728   0.868
 5821SOL    HW218351   4.148   1.878   0.872
 5822SOL     OW18352   4.041   0.958   0.274
 5822SOL    HW118353   4.120   0.983   0.225
 5822SOL    HW218354   4.014   0.875   0.234
 5823SOL     OW18355   4.178   1.253   1.735
 5823SOL    HW118356   4.151   1.264   1.644
 5823SOL    HW218357   4.098   1.263   1.785
 5824SOL     OW18358   3.913   0.269   1.510
 5824SOL    HW118359   3.846   0.335   1.492
 5824SOL    HW218360   3.922   0.269   1.606
 5825SOL     OW18361   4.192   1.733   0.326
 5825SOL    HW118362   4.223   1.795   0.392
 5825SOL    HW218363   4.266   1.723   0.266
 5826SOL     OW18364   3.979   1.793   1.233
 5826SOL    HW118365   4.027   1.724   1.279
 5826SOL    HW218366   3.966   1.758   1.145
 5827SOL     OW18367   4.108   0.694   0.476
 5827SOL    HW118368   4.135   0.603   0.488
 5827SOL    HW218369   4.015   0.695   0.498
 5828SOL     OW18370   4.343   0.131   0.103
 5828SOL    HW118371   4.427   0.096   0.134
 5828SOL    HW218372   4.321   0.077   0.027
 5829SOL     OW18373   0.019   1.422   0.913
 5829SOL    HW118374   0.086   1.462   0.857
 5829SOL    HW218375   4.445   1.406   0.855
 5830SOL     OW18376   4.272   0.108   0.538
 5830SOL    HW118377   4.187   0.072   0.564
 5830SOL    HW218378   4.253   0.157   0.458
 5831SOL     OW18379   4.012   0.056   0.198
 5831SOL    HW118380   4.077   0.110   0.154
 5831SOL    HW218381   4.061   0.007   0.264
 5832SOL     OW18382   0.322   0.679   1.458
 5832SOL    HW118383   0.249   0.619   1.445
 5832SOL    HW218384   0.400   0.626   1.439
 5833SOL     OW18385   4.191   1.145   0.737
 5833SOL    HW118386   4.121   1.126   0.800
 5833SOL    HW218387   4.151   1.130   0.651
 5834SOL     OW18388   3.805   0.551   1.394
 5834SOL    HW118389   3.896   0.554   1.363
 5834SOL    HW218390   3.798   0.623   1.457
 5835SOL     OW18391   4.295   0.235   1.158
 5835SOL    HW118392   4.305   0.143   1.180
 5835SOL    HW218393   4.207   0.258   1.188
 5836SOL     OW18394   4.235   1.401   0.190
 5836SOL    HW118395   4.150   1.386   0.231
 5836SOL    HW218396   4.220   1.385   0.097
 5837SOL     OW18397   4.244   0.266   0.318
 5837SOL    HW118398   4.286   0.213   0.249
 5837SOL    HW218399   4.226   0.350   0.276
 5838SOL     OW18400   4.140   0.813   1.249
 5838SOL    HW118401   4.207   0.824   1.317
 5838SOL    HW218402   4.105   0.725   1.263
 5839SOL     OW18403   3.793   1.573   1.351
 5839SOL    HW118404   3.759   1.644   1.297
 5839SOL    HW218405   3.888   1.580   1.345
 5840SOL     OW18406   4.073   1.114   0.496
 5840SOL    HW118407   4.074   1.187   0.435
 5840SOL    HW218408   4.068   1.036   0.441
 5841SOL     OW18409   4.301   0.538   0.862
 5841SOL    HW118410   4.302   0.605   0.793
 5841SOL    HW218411   4.363   0.571   0.927
 5842SOL     OW18412   4.073   1.532   1.317
 5842SOL    HW118413   4.066   1.488   1.232
 5842SOL    HW218414   4.167   1.534   1.336
 5843SOL     OW18415   4.136   0.742   1.604
 5843SOL    HW118416   4.194   0.788   1.543
 5843SOL    HW218417   4.182   0.660   1.623
 5844SOL     OW18418   4.237   0.069   1.727
 5844SOL    HW118419   4.203   4.487   1.693
 5844SOL    HW218420   4.159   0.122   1.745
 5845SOL     OW18421   4.291   0.887   1.026
 5845SOL    HW118422   4.322   0.977   1.040
 5845SOL    HW218423   4.243   0.866   1.106
 5846SOL     OW18424   4.014   0.238   1.240
 5846SOL    HW118425   3.972   0.250   1.325
 5846SOL    HW218426   4.048   0.148   1.243
 5847SOL     OW18427   3.770   1.310   1.277
 5847SOL    HW118428   3.803   1.257   1.349
 5847SOL    HW218429   3.777   1.400   1.309
 5848SOL     OW18430   4.018   0.059   0.656
 5848SOL    HW118431   4.009   0.155   0.660
 5848SOL    HW218432   4.031   0.032   0.746
 5849SOL     OW18433   4.077   0.916   1.807
 5849SOL    HW118434   4.158   0.931   1.855
 5849SOL    HW218435   4.099   0.852   1.740
 5850SOL     OW18436   4.032   0.809   0.946
 5850SOL    HW118437   4.123   0.837   0.946
 5850SOL    HW218438   4.034   0.719   0.979
 5851SOL     OW18439   4.067   0.530   1.010
 5851SOL    HW118440   4.024   0.447   0.991
 5851SOL    HW218441   4.145   0.530   0.954
 5852SOL     OW18442   3.731   1.328   0.195
 5852SOL    HW118443   3.644   1.339   0.157
 5852SOL    HW218444   3.732   1.237   0.225
 5853SOL     OW18445   3.816   1.789   0.938
 5853SOL    HW118446   3.785   1.709   0.894
 5853SOL    HW218447   3.905   1.801   0.906
 5854SOL     OW18448   4.232   1.582   0.906
 5854SOL    HW118449   4.317   1.617   0.932
 5854SOL    HW218450   4.253   1.511   0.845
 5855SOL     OW18451   3.757   0.543   1.118
 5855SOL    HW118452   3.834   0.519   1.065
 5855SOL    HW218453   3.790   0.548   1.207
 5856SOL     OW18454   3.909   0.518   1.720
 5856SOL    HW118455   3.982   0.497   1.662
 5856SOL    HW218456   3.866   0.593   1.679
 5857SOL     OW18457   0.028   0.548   0.268
 5857SOL    HW118458   0.016   0.483   0.337
 5857SOL    HW218459   4.464   0.617   0.287
 5858SOL     OW18460   3.971   1.553   1.729
 5858SOL    HW118461   3.944   1.616   1.796
 5858SOL    HW218462   3.968   1.469   1.774
 5859SOL     OW18463   4.190   0.490   0.177
 5859SOL    HW118464   4.247   0.562   0.205
 5859SOL    HW218465   4.103   0.529   0.171
 5860SOL     OW18466   3.871   1.140   1.472
 5860SOL    HW118467   3.874   1.087   1.552
 5860SOL    HW218468   3.887   1.077   1.401
 5861SOL     OW18469   3.808   1.268   1.013
 5861SOL    HW118470   3.793   1.278   1.107
 5861SOL    HW218471   3.736   1.213   0.984
 5862SOL     OW18472   4.390   1.652   1.702
 5862SOL    HW118473   4.356   1.738   1.726
 5862SOL    HW218474   4.437   1.666   1.620
 5863SOL     OW18475   3.860   1.797   1.844
 5863SOL    HW118476   3.809   1.732   1.892
 5863SOL    HW218477   3.908   1.845   1.911
 5864SOL     OW18478   3.989   0.327   0.717
 5864SOL    HW118479   3.902   0.358   0.692
 5864SOL    HW218480   3.984   0.315   0.812
 5865SOL     OW18481   4.089   1.305   1.491
 5865SOL    HW118482   4.071   1.382   1.436
 5865SOL    HW218483   4.016   1.246   1.474
 5866SOL     OW18484   4.324   1.490   0.482
 5866SOL    HW118485   4.344   1.434   0.407
 5866SOL    HW218486   4.258   1.550   0.449
 5867SOL     OW18487   3.989   1.343   0.287
 5867SOL    HW118488   3.901   1.343   0.251
 5867SOL    HW218489   3.980   1.381   0.374
 5868SOL     OW18490   3.836   1.020   1.719
 5868SOL    HW118491   3.759   0.997   1.772
 5868SOL    HW218492   3.910   0.984   1.767
 5869SOL     OW18493   4.372   0.205   1.489
 5869SOL    HW118494   4.462   0.220   1.460
 5869SOL    HW218495   4.380   0.179   1.581
 5870SOL     OW18496   3.801   0.345   0.053
 5870SOL    HW118497   3.725   0.310   0.008
 5870SOL    HW218498   3.819   0.429   0.010
 5871SOL     OW18499   3.790   0.180   0.326
 5871SOL    HW118500   3.784   0.247   0.258
 5871SOL    HW218501   3.863   0.123   0.298
 5872SOL     OW18502   4.337   0.840   1.434
 5872SOL    HW118503   4.379   0.924   1.419
 5872SOL    HW218504   4.410   0.779   1.449
 5873SOL     OW18505   4.400   0.559   1.732
 5873SOL    HW118506   4.424   0.634   1.786
 5873SOL    HW218507   4.483   0.518   1.709
 5874SOL     OW18508   4.108   1.739   1.560
 5874SOL    HW118509   4.022   1.779   1.548
 5874SOL    HW218510   4.090   1.657   1.606
 5875SOL     OW18511   4.311   0.730   0.664
 5875SOL    HW118512   4.352   0.816   0.655
 5875SOL    HW218513   4.239   0.731   0.600
 5876SOL     OW18514   3.944   1.307   1.855
 5876SOL    HW118515   3.878   1.243   1.827
 5876SOL    HW218516   3.929   1.318   1.949
 5877SOL     OW18517   3.807   1.234   0.665
 5877SOL    HW118518   3.811   1.185   0.747
 5877SOL    HW218519   3.878   1.198   0.612
 5878SOL     OW18520   4.414   1.387   1.655
 5878SOL    HW118521   4.325   1.353   1.654
 5878SOL    HW218522   4.404   1.480   1.671
 5879SOL     OW18523   4.162   0.433   0.529
 5879SOL    HW118524   4.181   0.360   0.469
 5879SOL    HW218525   4.108   0.394   0.597
 5880SOL     OW18526   4.053   0.555   1.289
 5880SOL    HW118527   4.105   0.496   1.343
 5880SOL    HW218528   4.072   0.529   1.199
 5881SOL     OW18529   0.036   1.596   0.686
 5881SOL    HW118530   0.061   1.654   0.615
 5881SOL    HW218531   4.464   1.544   0.650
 5882SOL     OW18532   3.766   1.071   0.300
 5882SOL    HW118533   3.862   1.065   0.296
 5882SOL    HW218534   3.738   0.984   0.327
 5883SOL     OW18535   3.955   0.627   1.981
 5883SOL    HW118536   3.867   0.620   2.020
 5883SOL    HW218537   3.944   0.595   1.892
 5884SOL     OW18538   3.931   0.301   2.851
 5884SOL    HW118539   3.965   0.271   2.935
 5884SOL    HW218540   3.851   0.250   2.838
 5885SOL     OW18541   3.732   0.385   2.501
 5885SOL    HW118542   3.645   0.404   2.537
 5885SOL    HW218543   3.718   0.310   2.443
 5886SOL     OW18544   4.269   1.249   3.007
 5886SOL    HW118545   4.195   1.305   2.986
 5886SOL    HW218546   4.331   1.306   3.052
 5887SOL     OW18547   0.024   0.779   3.719
 5887SOL    HW118548   0.070   0.829   3.786
 5887SOL    HW218549   0.064   0.805   3.637
 5888SOL     OW18550   4.398   0.994   2.502
 5888SOL    HW118551   4.471   0.988   2.564
 5888SOL    HW218552   4.335   1.052   2.544
 5889SOL     OW18553   4.419   1.161   3.676
 5889SOL    HW118554   4.461   1.242   3.647
 5889SOL    HW218555   4.327   1.171   3.649
 5890SOL     OW18556   4.059   1.433   2.931
 5890SOL    HW118557   3.987   1.391   2.885
 5890SOL    HW218558   4.107   1.481   2.863
 5891SOL     OW18559   4.163   0.396   3.350
 5891SOL    HW118560   4.242   0.342   3.351
 5891SOL    HW218561   4.092   0.334   3.363
 5892SOL     OW18562   3.943   1.714   2.336
 5892SOL    HW118563   3.965   1.790   2.389
 5892SOL    HW218564   4.015   1.706   2.275
 5893SOL     OW18565   3.954   1.440   2.396
 5893SOL    HW118566   3.936   1.534   2.402
 5893SOL    HW218567   3.894   1.400   2.458
 5894SOL     OW18568   3.974   1.089   2.749
 5894SOL    HW118569   3.978   1.004   2.793
 5894SOL    HW218570   3.921   1.144   2.806
 5895SOL     OW18571   4.360   1.798   3.315
 5895SOL    HW118572   4.274   1.764   3.339
 5895SOL    HW218573   4.349   1.893   3.315
 5896SOL     OW18574   4.310   0.985   1.999
 5896SOL    HW118575   4.339   1.038   1.925
 5896SOL    HW218576   4.378   0.997   2.066
 5897SOL     OW18577   3.839   0.652   2.422
 5897SOL    HW118578   3.810   0.563   2.443
 5897SOL    HW218579   3.831   0.701   2.503
 5898SOL     OW18580   3.755   1.596   1.986
 5898SOL    HW118581   3.737   1.504   2.005
 5898SOL    HW218582   3.731   1.642   2.066
 5899SOL     OW18583   3.845   0.743   3.447
 5899SOL    HW118584   3.937   0.768   3.460
 5899SOL    HW218585   3.797   0.826   3.454
 5900SOL     OW18586   4.312   1.386   2.599
 5900SOL    HW118587   4.276   1.298   2.603
 5900SOL    HW218588   4.312   1.408   2.506
 5901SOL     OW18589   0.019   0.017   2.375
 5901SOL    HW118590   0.048   0.080   2.308
 5901SOL    HW218591   4.428   0.042   2.393
 5902SOL     OW18592   3.913   0.967   3.133
 5902SOL    HW118593   3.998   0.927   3.115
 5902SOL    HW218594   3.850   0.912   3.086
 5903SOL     OW18595   4.039   0.253   3.646
 5903SOL    HW118596   4.101   0.319   3.676
 5903SOL    HW218597   3.964   0.261   3.706
 5904SOL     OW18598   4.312   0.729   2.132
 5904SOL    HW118599   4.311   0.805   2.074
 5904SOL    HW218600   4.244   0.746   2.197
 5905SOL     OW18601   3.813   0.821   2.638
 5905SOL    HW118602   3.894   0.813   2.688
 5905SOL    HW218603   3.771   0.899   2.672
 5906SOL     OW18604   3.853   1.842   3.438
 5906SOL    HW118605   3.851   1.823   3.532
 5906SOL    HW218606   3.761   1.841   3.412
 5907SOL     OW18607   4.247   0.202   2.758
 5907SOL    HW118608   4.285   0.219   2.844
 5907SOL    HW218609   4.263   0.281   2.707
 5908SOL     OW18610   4.082   1.810   2.723
 5908SOL    HW118611   4.130   1.728   2.730
 5908SOL    HW218612   4.148   1.878   2.734
 5909SOL     OW18613   4.044   0.957   2.111
 5909SOL    HW118614   4.126   0.975   2.066
 5909SOL    HW218615   4.013   0.875   2.073
 5910SOL     OW18616   4.178   1.253   3.597
 5910SOL    HW118617   4.151   1.264   3.506
 5910SOL    HW218618   4.098   1.263   3.647
 5911SOL     OW18619   3.913   0.269   3.372
 5911SOL    HW118620   3.846   0.335   3.354
 5911SOL    HW218621   3.921   0.269   3.468
 5912SOL     OW18622   4.192   1.735   2.187
 5912SOL    HW118623   4.224   1.795   2.255
 5912SOL    HW218624   4.262   1.734   2.122
 5913SOL     OW18625   3.979   1.793   3.095
 5913SOL    HW118626   4.027   1.724   3.141
 5913SOL    HW218627   3.965   1.758   3.007
 5914SOL     OW18628   4.111   0.694   2.335
 5914SOL    HW118629   4.137   0.603   2.349
 5914SOL    HW218630   4.017   0.696   2.357
 5915SOL     OW18631   4.327   0.122   1.979
 5915SOL    HW118632   4.413   0.082   1.991
 5915SOL    HW218633   4.304   0.099   1.889
 5916SOL     OW18634   0.018   1.424   2.776
 5916SOL    HW118635   0.086   1.460   2.719
 5916SOL    HW218636   4.445   1.407   2.718
 5917SOL     OW18637   4.271   0.108   2.401
 5917SOL    HW118638   4.186   0.067   2.420
 5917SOL    HW218639   4.255   0.159   2.321
 5918SOL     OW18640   4.023   0.073   2.056
 5918SOL    HW118641   4.103   0.123   2.038
 5918SOL    HW218642   4.052   4.500   2.111
 5919SOL     OW18643   0.322   0.679   3.320
 5919SOL    HW118644   0.249   0.619   3.306
 5919SOL    HW218645   0.400   0.626   3.301
 5920SOL     OW18646   4.189   1.145   2.597
 5920SOL    HW118647   4.120   1.127   2.660
 5920SOL    HW218648   4.149   1.127   2.511
 5921SOL     OW18649   3.805   0.551   3.256
 5921SOL    HW118650   3.896   0.554   3.225
 5921SOL    HW218651   3.798   0.623   3.319
 5922SOL     OW18652   4.296   0.236   3.021
 5922SOL    HW118653   4.305   0.143   3.041
 5922SOL    HW218654   4.207   0.258   3.050
 5923SOL     OW18655   4.230   1.387   2.034
 5923SOL    HW118656   4.146   1.372   2.077
 5923SOL    HW218657   4.208   1.403   1.943
 5924SOL     OW18658   4.245   0.270   2.185
 5924SOL    HW118659   4.285   0.214   2.118
 5924SOL    HW218660   4.226   0.352   2.140
 5925SOL     OW18661   4.140   0.814   3.111
 5925SOL    HW118662   4.207   0.824   3.179
 5925SOL    HW218663   4.105   0.725   3.125
 5926SOL     OW18664   3.793   1.573   3.213
 5926SOL    HW118665   3.759   1.645   3.160
 5926SOL    HW218666   3.888   1.580   3.207
 5927SOL     OW18667   4.074   1.108   2.352
 5927SOL    HW118668   4.075   1.180   2.290
 5927SOL    HW218669   4.072   1.029   2.298
 5928SOL     OW18670   4.301   0.539   2.725
 5928SOL    HW118671   4.301   0.605   2.655
 5928SOL    HW218672   4.363   0.572   2.789
 5929SOL     OW18673   4.073   1.532   3.179
 5929SOL    HW118674   4.066   1.489   3.094
 5929SOL    HW218675   4.166   1.534   3.198
 5930SOL     OW18676   4.136   0.742   3.466
 5930SOL    HW118677   4.194   0.788   3.406
 5930SOL    HW218678   4.182   0.660   3.485
 5931SOL     OW18679   4.237   0.069   3.590
 5931SOL    HW118680   4.203   4.487   3.554
 5931SOL    HW218681   4.159   0.122   3.607
 5932SOL     OW18682   4.291   0.888   2.888
 5932SOL    HW118683   4.322   0.977   2.903
 5932SOL    HW218684   4.243   0.866   2.968
 5933SOL     OW18685   4.014   0.238   3.102
 5933SOL    HW118686   3.972   0.249   3.187
 5933SOL    HW218687   4.048   0.148   3.105
 5934SOL     OW18688   3.771   1.310   3.139
 5934SOL    HW118689   3.803   1.256   3.211
 5934SOL    HW218690   3.777   1.400   3.172
 5935SOL     OW18691   4.013   0.057   2.520
 5935SOL    HW118692   4.009   0.153   2.521
 5935SOL    HW218693   4.029   0.032   2.611
 5936SOL     OW18694   4.077   0.916   3.669
 5936SOL    HW118695   4.159   0.931   3.717
 5936SOL    HW218696   4.099   0.852   3.602
 5937SOL     OW18697   4.032   0.809   2.809
 5937SOL    HW118698   4.123   0.836   2.808
 5937SOL    HW218699   4.034   0.719   2.841
 5938SOL     OW18700   4.067   0.530   2.872
 5938SOL    HW118701   4.024   0.447   2.853
 5938SOL    HW218702   4.145   0.530   2.816
 5939SOL     OW18703   3.729   1.322   2.057
 5939SOL    HW118704   3.642   1.335   2.019
 5939SOL    HW218705   3.727   1.232   2.091
 5940SOL     OW18706   3.815   1.789   2.799
 5940SOL    HW118707   3.785   1.709   2.756
 5940SOL    HW218708   3.905   1.801   2.768
 5941SOL     OW18709   4.232   1.582   2.767
 5941SOL    HW118710   4.317   1.616   2.795
 5941SOL    HW218711   4.253   1.510   2.707
 5942SOL     OW18712   3.757   0.543   2.980
 5942SOL    HW118713   3.834   0.519   2.927
 5942SOL    HW218714   3.790   0.548   3.069
 5943SOL     OW18715   3.909   0.518   3.582
 5943SOL    HW118716   3.982   0.497   3.524
 5943SOL    HW218717   3.866   0.593   3.541
 5944SOL     OW18718   0.031   0.552   2.126
 5944SOL    HW118719   0.020   0.484   2.192
 5944SOL    HW218720   4.464   0.617   2.148
 5945SOL     OW18721   3.971   1.553   3.592
 5945SOL    HW118722   3.944   1.616   3.658
 5945SOL    HW218723   3.968   1.469   3.636
 5946SOL     OW18724   4.192   0.494   2.047
 5946SOL    HW118725   4.249   0.568   2.068
 5946SOL    HW218726   4.105   0.534   2.036
 5947SOL     OW18727   3.872   1.140   3.334
 5947SOL    HW118728   3.874   1.086   3.414
 5947SOL    HW218729   3.888   1.077   3.263
 5948SOL     OW18730   3.808   1.269   2.875
 5948SOL    HW118731   3.794   1.278   2.969
 5948SOL    HW218732   3.736   1.213   2.845
 5949SOL     OW18733   4.390   1.652   3.564
 5949SOL    HW118734   4.356   1.738   3.587
 5949SOL    HW218735   4.437   1.666   3.482
 5950SOL     OW18736   3.860   1.797   3.706
 5950SOL    HW118737   3.809   1.732   3.754
 5950SOL    HW218738   3.908   1.845   3.773
 5951SOL     OW18739   3.990   0.327   2.580
 5951SOL    HW118740   3.903   0.359   2.554
 5951SOL    HW218741   3.984   0.315   2.674
 5952SOL     OW18742   4.089   1.305   3.352
 5952SOL    HW118743   4.070   1.382   3.298
 5952SOL    HW218744   4.016   1.246   3.337
 5953SOL     OW18745   4.325   1.490   2.343
 5953SOL    HW118746   4.343   1.431   2.270
 5953SOL    HW218747   4.260   1.551   2.309
 5954SOL     OW18748   3.983   1.350   2.147
 5954SOL    HW118749   3.890   1.346   2.126
 5954SOL    HW218750   3.985   1.385   2.236
 5955SOL     OW18751   3.836   1.020   3.581
 5955SOL    HW118752   3.759   0.997   3.634
 5955SOL    HW218753   3.910   0.984   3.629
 5956SOL     OW18754   4.371   0.205   3.351
 5956SOL    HW118755   4.461   0.220   3.322
 5956SOL    HW218756   4.380   0.179   3.443
 5957SOL     OW18757   3.805   0.342   1.909
 5957SOL    HW118758   3.733   0.289   1.873
 5957SOL    HW218759   3.819   0.410   1.844
 5958SOL     OW18760   3.789   0.181   2.183
 5958SOL    HW118761   3.787   0.247   2.114
 5958SOL    HW218762   3.865   0.126   2.161
 5959SOL     OW18763   4.337   0.840   3.296
 5959SOL    HW118764   4.380   0.924   3.281
 5959SOL    HW218765   4.409   0.779   3.311
 5960SOL     OW18766   4.400   0.558   3.594
 5960SOL    HW118767   4.424   0.634   3.648
 5960SOL    HW218768   4.483   0.518   3.571
 5961SOL     OW18769   4.108   1.739   3.422
 5961SOL    HW118770   4.022   1.779   3.410
 5961SOL    HW218771   4.090   1.657   3.468
 5962SOL     OW18772   4.310   0.732   2.527
 5962SOL    HW118773   4.352   0.817   2.516
 5962SOL    HW218774   4.240   0.730   2.462
 5963SOL     OW18775   3.944   1.307   3.717
 5963SOL    HW118776   3.878   1.243   3.689
 5963SOL    HW218777   3.929   1.318   3.810
 5964SOL     OW18778   3.808   1.235   2.527
 5964SOL    HW118779   3.810   1.186   2.609
 5964SOL    HW218780   3.877   1.195   2.473
 5965SOL     OW18781   4.414   1.387   3.517
 5965SOL    HW118782   4.325   1.353   3.516
 5965SOL    HW218783   4.404   1.480   3.534
 5966SOL     OW18784   4.164   0.435   2.393
 5966SOL    HW118785   4.183   0.365   2.331
 5966SOL    HW218786   4.109   0.393   2.460
 5967SOL     OW18787   4.053   0.555   3.151
 5967SOL    HW118788   4.105   0.496   3.205
 5967SOL    HW218789   4.072   0.529   3.061
 5968SOL     OW18790   0.037   1.596   2.547
 5968SOL    HW118791   0.058   1.656   2.475
 5968SOL    HW218792   4.465   1.543   2.514
 5969SOL     OW18793   3.768   1.072   2.167
 5969SOL    HW118794   3.862   1.062   2.150
 5969SOL    HW218795   3.738   0.984   2.190
 5970SOL     OW18796   3.955   0.627   3.843
 5970SOL    HW118797   3.867   0.620   3.882
 5970SOL    HW218798   3.944   0.595   3.754
 5971SOL     OW18799   3.931   0.301   4.712
 5971SOL    HW118800   3.965   0.271   4.797
 5971SOL    HW218801   3.851   0.250   4.700
 5972SOL     OW18802   3.732   0.385   4.363
 5972SOL    HW118803   3.645   0.405   4.399
 5972SOL    HW218804   3.717   0.310   4.306
 5973SOL     OW18805   4.270   1.249   4.868
 5973SOL    HW118806   4.194   1.304   4.847
 5973SOL    HW218807   4.330   1.307   4.914
 5974SOL     OW18808   0.024   0.779   5.581
 5974SOL    HW118809   0.070   0.830   5.648
 5974SOL    HW218810   0.064   0.805   5.499
 5975SOL     OW18811   4.399   0.995   4.364
 5975SOL    HW118812   4.470   0.987   4.427
 5975SOL    HW218813   4.335   1.052   4.406
 5976SOL     OW18814   4.419   1.161   5.538
 5976SOL    HW118815   4.460   1.243   5.509
 5976SOL    HW218816   4.327   1.171   5.511
 5977SOL     OW18817   4.059   1.433   4.793
 5977SOL    HW118818   3.987   1.390   4.747
 5977SOL    HW218819   4.106   1.481   4.725
 5978SOL     OW18820   4.163   0.396   5.212
 5978SOL    HW118821   4.242   0.342   5.213
 5978SOL    HW218822   4.091   0.334   5.225
 5979SOL     OW18823   3.943   1.714   4.198
 5979SOL    HW118824   3.965   1.790   4.251
 5979SOL    HW218825   4.015   1.706   4.137
 5980SOL     OW18826   3.954   1.440   4.258
 5980SOL    HW118827   3.935   1.534   4.265
 5980SOL    HW218828   3.894   1.399   4.320
 5981SOL     OW18829   3.976   1.089   4.611
 5981SOL    HW118830   3.977   1.004   4.656
 5981SOL    HW218831   3.921   1.144   4.667
 5982SOL     OW18832   4.360   1.798   5.178
 5982SOL    HW118833   4.274   1.763   5.201
 5982SOL    HW218834   4.349   1.893   5.177
 5983SOL     OW18835   4.310   0.985   3.861
 5983SOL    HW118836   4.339   1.038   3.787
 5983SOL    HW218837   4.378   0.997   3.928
 5984SOL     OW18838   3.839   0.652   4.284
 5984SOL    HW118839   3.810   0.563   4.306
 5984SOL    HW218840   3.831   0.701   4.365
 5985SOL     OW18841   3.756   1.596   3.848
 5985SOL    HW118842   3.737   1.504   3.867
 5985SOL    HW218843   3.731   1.642   3.928
 5986SOL     OW18844   3.845   0.743   5.310
 5986SOL    HW118845   3.936   0.769   5.322
 5986SOL    HW218846   3.796   0.826   5.315
 5987SOL     OW18847   4.313   1.386   4.461
 5987SOL    HW118848   4.276   1.298   4.465
 5987SOL    HW218849   4.312   1.408   4.368
 5988SOL     OW18850   0.019   0.018   4.237
 5988SOL    HW118851   0.048   0.080   4.170
 5988SOL    HW218852   4.428   0.042   4.255
 5989SOL     OW18853   3.913   0.966   4.996
 5989SOL    HW118854   3.998   0.926   4.977
 5989SOL    HW218855   3.850   0.914   4.947
 5990SOL     OW18856   4.039   0.253   5.509
 5990SOL    HW118857   4.101   0.320   5.538
 5990SOL    HW218858   3.964   0.261   5.568
 5991SOL     OW18859   4.312   0.729   3.994
 5991SOL    HW118860   4.310   0.805   3.936
 5991SOL    HW218861   4.244   0.746   4.059
 5992SOL     OW18862   3.813   0.820   4.499
 5992SOL    HW118863   3.894   0.813   4.550
 5992SOL    HW218864   3.770   0.898   4.534
 5993SOL     OW18865   3.854   1.843   5.300
 5993SOL    HW118866   3.851   1.824   5.394
 5993SOL    HW218867   3.762   1.840   5.272
 5994SOL     OW18868   4.247   0.202   4.620
 5994SOL    HW118869   4.285   0.220   4.706
 5994SOL    HW218870   4.263   0.281   4.569
 5995SOL     OW18871   4.082   1.810   4.584
 5995SOL    HW118872   4.130   1.728   4.592
 5995SOL    HW218873   4.148   1.878   4.596
 5996SOL     OW18874   4.044   0.957   3.973
 5996SOL    HW118875   4.126   0.975   3.927
 5996SOL    HW218876   4.013   0.875   3.935
 5997SOL     OW18877   4.178   1.253   5.459
 5997SOL    HW118878   4.151   1.264   5.368
 5997SOL    HW218879   4.098   1.263   5.509
 5998SOL     OW18880   3.913   0.270   5.234
 5998SOL    HW118881   3.846   0.335   5.216
 5998SOL    HW218882   3.921   0.270   5.329
 5999SOL     OW18883   4.192   1.735   4.049
 5999SOL    HW118884   4.224   1.795   4.117
 5999SOL    HW218885   4.262   1.734   3.984
 6000SOL     OW18886   3.982   1.794   4.956
 6000SOL    HW118887   4.027   1.723   5.003
 6000SOL    HW218888   3.964   1.757   4.870
 6001SOL     OW18889   4.111   0.694   4.197
 6001SOL    HW118890   4.137   0.603   4.211
 6001SOL    HW218891   4.018   0.696   4.219
 6002SOL     OW18892   4.328   0.122   3.841
 6002SOL    HW118893   4.413   0.082   3.853
 6002SOL    HW218894   4.303   0.099   3.751
 6003SOL     OW18895   0.019   1.424   4.638
 6003SOL    HW118896   0.087   1.459   4.580
 6003SOL    HW218897   4.444   1.407   4.580
 6004SOL     OW18898   4.271   0.108   4.262
 6004SOL    HW118899   4.186   0.067   4.282
 6004SOL    HW218900   4.255   0.159   4.183
 6005SOL     OW18901   4.023   0.072   3.918
 6005SOL    HW118902   4.102   0.123   3.900
 6005SOL    HW218903   4.053   4.500   3.974
 6006SOL     OW18904   0.323   0.678   5.183
 6006SOL    HW118905   0.248   0.620   5.169
 6006SOL    HW218906   0.400   0.625   5.162
 6007SOL     OW18907   4.190   1.145   4.459
 6007SOL    HW118908   4.121   1.127   4.522
 6007SOL    HW218909   4.150   1.127   4.374
 6008SOL     OW18910   3.805   0.550   5.118
 6008SOL    HW118911   3.896   0.555   5.087
 6008SOL    HW218912   3.798   0.623   5.181
 6009SOL     OW18913   4.296   0.236   4.884
 6009SOL    HW118914   4.305   0.142   4.902
 6009SOL    HW218915   4.207   0.258   4.912
 6010SOL     OW18916   4.230   1.387   3.896
 6010SOL    HW118917   4.146   1.372   3.939
 6010SOL    HW218918   4.208   1.403   3.805
 6011SOL     OW18919   4.245   0.270   4.047
 6011SOL    HW118920   4.285   0.214   3.980
 6011SOL    HW218921   4.226   0.352   4.002
 6012SOL     OW18922   4.140   0.813   4.973
 6012SOL    HW118923   4.207   0.824   5.041
 6012SOL    HW218924   4.105   0.725   4.987
 6013SOL     OW18925   3.792   1.573   5.076
 6013SOL    HW118926   3.756   1.642   5.020
 6013SOL    HW218927   3.887   1.582   5.068
 6014SOL     OW18928   4.075   1.108   4.214
 6014SOL    HW118929   4.074   1.180   4.152
 6014SOL    HW218930   4.072   1.029   4.159
 6015SOL     OW18931   4.301   0.539   4.586
 6015SOL    HW118932   4.301   0.605   4.517
 6015SOL    HW218933   4.363   0.573   4.651
 6016SOL     OW18934   4.073   1.533   5.041
 6016SOL    HW118935   4.065   1.489   4.956
 6016SOL    HW218936   4.166   1.534   5.059
 6017SOL     OW18937   4.136   0.742   5.329
 6017SOL    HW118938   4.194   0.788   5.268
 6017SOL    HW218939   4.182   0.660   5.347
 6018SOL     OW18940   4.237   0.069   5.452
 6018SOL    HW118941   4.203   4.487   5.416
 6018SOL    HW218942   4.159   0.122   5.469
 6019SOL     OW18943   4.292   0.888   4.750
 6019SOL    HW118944   4.321   0.978   4.764
 6019SOL    HW218945   4.243   0.866   4.830
 6020SOL     OW18946   4.014   0.238   4.964
 6020SOL    HW118947   3.972   0.249   5.049
 6020SOL    HW218948   4.048   0.148   4.967
 6021SOL     OW18949   3.775   1.311   5.000
 6021SOL    HW118950   3.804   1.257   5.074
 6021SOL    HW218951   3.777   1.400   5.034
 6022SOL     OW18952   4.013   0.057   4.381
 6022SOL    HW118953   4.009   0.153   4.383
 6022SOL    HW218954   4.029   0.032   4.472
 6023SOL     OW18955   4.077   0.916   5.532
 6023SOL    HW118956   4.159   0.931   5.579
 6023SOL    HW218957   4.099   0.852   5.464
 6024SOL     OW18958   4.032   0.809   4.671
 6024SOL    HW118959   4.123   0.836   4.670
 6024SOL    HW218960   4.034   0.719   4.703
 6025SOL     OW18961   4.067   0.530   4.734
 6025SOL    HW118962   4.024   0.447   4.715
 6025SOL    HW218963   4.145   0.530   4.678
 6026SOL     OW18964   3.729   1.322   3.918
 6026SOL    HW118965   3.642   1.335   3.881
 6026SOL    HW218966   3.727   1.232   3.953
 6027SOL     OW18967   3.815   1.788   4.660
 6027SOL    HW118968   3.785   1.708   4.617
 6027SOL    HW218969   3.905   1.800   4.629
 6028SOL     OW18970   4.232   1.582   4.629
 6028SOL    HW118971   4.317   1.616   4.657
 6028SOL    HW218972   4.253   1.510   4.569
 6029SOL     OW18973   3.757   0.542   4.842
 6029SOL    HW118974   3.834   0.519   4.789
 6029SOL    HW218975   3.790   0.548   4.931
 6030SOL     OW18976   3.909   0.518   5.444
 6030SOL    HW118977   3.982   0.497   5.386
 6030SOL    HW218978   3.866   0.593   5.403
 6031SOL     OW18979   0.031   0.552   3.988
 6031SOL    HW118980   0.019   0.484   4.054
 6031SOL    HW218981   4.464   0.618   4.010
 6032SOL     OW18982   3.972   1.553   5.454
 6032SOL    HW118983   3.944   1.616   5.520
 6032SOL    HW218984   3.968   1.469   5.498
 6033SOL     OW18985   4.192   0.494   3.909
 6033SOL    HW118986   4.249   0.568   3.930
 6033SOL    HW218987   4.105   0.534   3.898
 6034SOL     OW18988   3.872   1.140   5.197
 6034SOL    HW118989   3.873   1.086   5.276
 6034SOL    HW218990   3.887   1.078   5.126
 6035SOL     OW18991   3.809   1.267   4.737
 6035SOL    HW118992   3.795   1.278   4.831
 6035SOL    HW218993   3.735   1.214   4.708
 6036SOL     OW18994   4.391   1.652   5.426
 6036SOL    HW118995   4.355   1.738   5.449
 6036SOL    HW218996   4.435   1.666   5.343
 6037SOL     OW18997   3.860   1.797   5.568
 6037SOL    HW118998   3.809   1.732   5.616
 6037SOL    HW218999   3.908   1.845   5.635
 6038SOL     OW19000   3.990   0.327   4.441
 6038SOL    HW119001   3.903   0.359   4.416
 6038SOL    HW219002   3.984   0.315   4.536
 6039SOL     OW19003   4.089   1.306   5.214
 6039SOL    HW119004   4.070   1.382   5.160
 6039SOL    HW219005   4.016   1.246   5.199
 6040SOL     OW19006   4.326   1.490   4.205
 6040SOL    HW119007   4.342   1.430   4.132
 6040SOL    HW219008   4.259   1.550   4.171
 6041SOL     OW19009   3.983   1.350   4.010
 6041SOL    HW119010   3.890   1.346   3.988
 6041SOL    HW219011   3.985   1.385   4.099
 6042SOL     OW19012   3.836   1.021   5.444
 6042SOL    HW119013   3.759   0.997   5.496
 6042SOL    HW219014   3.910   0.983   5.492
 6043SOL     OW19015   4.371   0.205   5.213
 6043SOL    HW119016   4.461   0.220   5.184
 6043SOL    HW219017   4.380   0.179   5.305
 6044SOL     OW19018   3.805   0.341   3.771
 6044SOL    HW119019   3.733   0.289   3.735
 6044SOL    HW219020   3.819   0.410   3.706
 6045SOL     OW19021   3.789   0.180   4.045
 6045SOL    HW119022   3.787   0.247   3.977
 6045SOL    HW219023   3.865   0.126   4.023
 6046SOL     OW19024   4.337   0.840   5.159
 6046SOL    HW119025   4.379   0.924   5.143
 6046SOL    HW219026   4.409   0.779   5.173
 6047SOL     OW19027   4.400   0.558   5.456
 6047SOL    HW119028   4.424   0.633   5.510
 6047SOL    HW219029   4.483   0.518   5.433
 6048SOL     OW19030   4.108   1.739   5.285
 6048SOL    HW119031   4.023   1.779   5.272
 6048SOL    HW219032   4.089   1.657   5.330
 6049SOL     OW19033   4.310   0.732   4.389
 6049SOL    HW119034   4.352   0.817   4.377
 6049SOL    HW219035   4.240   0.730   4.324
 6050SOL     OW19036   3.944   1.307   5.579
 6050SOL    HW119037   3.878   1.243   5.550
 6050SOL    HW219038   3.928   1.318   5.672
 6051SOL     OW19039   3.809   1.235   4.389
 6051SOL    HW119040   3.809   1.186   4.471
 6051SOL    HW219041   3.878   1.194   4.336
 6052SOL     OW19042   4.414   1.387   5.379
 6052SOL    HW119043   4.325   1.353   5.377
 6052SOL    HW219044   4.405   1.481   5.396
 6053SOL     OW19045   4.164   0.435   4.256
 6053SOL    HW119046   4.183   0.365   4.193
 6053SOL    HW219047   4.109   0.393   4.322
 6054SOL     OW19048   4.053   0.555   5.013
 6054SOL    HW119049   4.105   0.496   5.067
 6054SOL    HW219050   4.071   0.529   4.923
 6055SOL     OW19051   0.037   1.596   4.409
 6055SOL    HW119052   0.058   1.655   4.337
 6055SOL    HW219053   4.465   1.543   4.376
 6056SOL     OW19054   3.769   1.072   4.029
 6056SOL    HW119055   3.862   1.062   4.012
 6056SOL    HW219056   3.738   0.985   4.052
 6057SOL     OW19057   3.955   0.627   5.706
 6057SOL    HW119058   3.867   0.620   5.744
 6057SOL    HW219059   3.944   0.595   5.616
 6058SOL     OW19060   3.931   0.301   6.575
 6058SOL    HW119061   3.965   0.271   6.659
 6058SOL    HW219062   3.851   0.250   6.562
 6059SOL     OW19063   3.732   0.385   6.225
 6059SOL    HW119064   3.645   0.404   6.261
 6059SOL    HW219065   3.717   0.310   6.167
 6060SOL     OW19066   4.269   1.249   6.731
 6060SOL    HW119067   4.195   1.305   6.709
 6060SOL    HW219068   4.331   1.306   6.776
 6061SOL     OW19069   0.023   0.779   7.443
 6061SOL    HW119070   0.071   0.829   7.510
 6061SOL    HW219071   0.064   0.805   7.361
 6062SOL     OW19072   4.399   0.994   6.226
 6062SOL    HW119073   4.470   0.987   6.289
 6062SOL    HW219074   4.335   1.052   6.268
 6063SOL     OW19075   4.419   1.161   7.400
 6063SOL    HW119076   4.461   1.242   7.371
 6063SOL    HW219077   4.327   1.171   7.373
 6064SOL     OW19078   4.059   1.433   6.655
 6064SOL    HW119079   3.987   1.391   6.609
 6064SOL    HW219080   4.106   1.481   6.587
 6065SOL     OW19081   4.163   0.396   7.074
 6065SOL    HW119082   4.242   0.342   7.075
 6065SOL    HW219083   4.092   0.334   7.087
 6066SOL     OW19084   3.942   1.714   6.060
 6066SOL    HW119085   3.965   1.790   6.113
 6066SOL    HW219086   4.015   1.706   5.998
 6067SOL     OW19087   3.954   1.440   6.120
 6067SOL    HW119088   3.935   1.534   6.127
 6067SOL    HW219089   3.894   1.400   6.182
 6068SOL     OW19090   3.975   1.089   6.473
 6068SOL    HW119091   3.978   1.004   6.517
 6068SOL    HW219092   3.921   1.144   6.530
 6069SOL     OW19093   4.360   1.798   7.039
 6069SOL    HW119094   4.274   1.764   7.063
 6069SOL    HW219095   4.349   1.893   7.039
 6070SOL     OW19096   4.310   0.985   5.723
 6070SOL    HW119097   4.340   1.038   5.649
 6070SOL    HW219098   4.378   0.997   5.790
 6071SOL     OW19099   3.839   0.652   6.146
 6071SOL    HW119100   3.810   0.563   6.167
 6071SOL    HW219101   3.831   0.701   6.227
 6072SOL     OW19102   3.756   1.596   5.710
 6072SOL    HW119103   3.737   1.504   5.729
 6072SOL    HW219104   3.731   1.642   5.790
 6073SOL     OW19105   3.845   0.743   7.171
 6073SOL    HW119106   3.937   0.768   7.184
 6073SOL    HW219107   3.797   0.826   7.178
 6074SOL     OW19108   4.312   1.386   6.323
 6074SOL    HW119109   4.276   1.298   6.327
 6074SOL    HW219110   4.312   1.408   6.230
 6075SOL     OW19111   0.019   0.017   6.099
 6075SOL    HW119112   0.048   0.080   6.032
 6075SOL    HW219113   4.428   0.042   6.117
 6076SOL     OW19114   3.913   0.967   6.857
 6076SOL    HW119115   3.998   0.927   6.839
 6076SOL    HW219116   3.850   0.912   6.809
 6077SOL     OW19117   4.039   0.253   7.370
 6077SOL    HW119118   4.101   0.319   7.400
 6077SOL    HW219119   3.964   0.261   7.430
 6078SOL     OW19120   4.313   0.729   5.856
 6078SOL    HW119121   4.310   0.805   5.798
 6078SOL    HW219122   4.244   0.746   5.921
 6079SOL     OW19123   3.813   0.820   6.362
 6079SOL    HW119124   3.894   0.813   6.412
 6079SOL    HW219125   3.770   0.899   6.396
 6080SOL     OW19126   3.853   1.842   7.162
 6080SOL    HW119127   3.851   1.823   7.256
 6080SOL    HW219128   3.761   1.841   7.135
 6081SOL     OW19129   4.247   0.202   6.482
 6081SOL    HW119130   4.285   0.220   6.568
 6081SOL    HW219131   4.263   0.281   6.431
 6082SOL     OW19132   4.082   1.810   6.446
 6082SOL    HW119133   4.130   1.728   6.454
 6082SOL    HW219134   4.148   1.878   6.458
 6083SOL     OW19135   4.044   0.957   5.835
 6083SOL    HW119136   4.126   0.975   5.789
 6083SOL    HW219137   4.013   0.875   5.797
 6084SOL     OW19138   4.178   1.253   7.321
 6084SOL    HW119139   4.151   1.264   7.230
 6084SOL    HW219140   4.098   1.263   7.371
 6085SOL     OW19141   3.913   0.269   7.096
 6085SOL    HW119142   3.846   0.335   7.078
 6085SOL    HW219143   3.921   0.269   7.192
 6086SOL     OW19144   4.192   1.735   5.911
 6086SOL    HW119145   4.224   1.795   5.979
 6086SOL    HW219146   4.262   1.734   5.846
 6087SOL     OW19147   3.980   1.793   6.819
 6087SOL    HW119148   4.027   1.724   6.865
 6087SOL    HW219149   3.965   1.757   6.731
 6088SOL     OW19150   4.111   0.694   6.060
 6088SOL    HW119151   4.137   0.603   6.073
 6088SOL    HW219152   4.018   0.696   6.081
 6089SOL     OW19153   4.328   0.122   5.703
 6089SOL    HW119154   4.413   0.082   5.715
 6089SOL    HW219155   4.303   0.100   5.613
 6090SOL     OW19156   0.018   1.424   6.500
 6090SOL    HW119157   0.086   1.460   6.443
 6090SOL    HW219158   4.445   1.407   6.442
 6091SOL     OW19159   4.271   0.108   6.125
 6091SOL    HW119160   4.186   0.067   6.144
 6091SOL    HW219161   4.255   0.159   6.045
 6092SOL     OW19162   4.023   0.072   5.780
 6092SOL    HW119163   4.102   0.123   5.762
 6092SOL    HW219164   4.053   4.500   5.835
 6093SOL     OW19165   0.323   0.679   7.044
 6093SOL    HW119166   0.249   0.620   7.031
 6093SOL    HW219167   0.400   0.626   7.025
 6094SOL     OW19168   4.189   1.145   6.321
 6094SOL    HW119169   4.120   1.127   6.384
 6094SOL    HW219170   4.150   1.127   6.235
 6095SOL     OW19171   3.805   0.550   6.980
 6095SOL    HW119172   3.896   0.554   6.949
 6095SOL    HW219173   3.798   0.623   7.043
 6096SOL     OW19174   4.296   0.236   6.746
 6096SOL    HW119175   4.305   0.143   6.764
 6096SOL    HW219176   4.207   0.258   6.774
 6097SOL     OW19177   4.230   1.387   5.758
 6097SOL    HW119178   4.146   1.372   5.801
 6097SOL    HW219179   4.208   1.403   5.666
 6098SOL     OW19180   4.245   0.270   5.909
 6098SOL    HW119181   4.285   0.214   5.842
 6098SOL    HW219182   4.226   0.352   5.864
 6099SOL     OW19183   4.140   0.813   6.835
 6099SOL    HW119184   4.207   0.824   6.903
 6099SOL    HW219185   4.105   0.725   6.849
 6100SOL     OW19186   3.792   1.572   6.937
 6100SOL    HW119187   3.759   1.644   6.884
 6100SOL    HW219188   3.888   1.581   6.931
 6101SOL     OW19189   4.074   1.108   6.076
 6101SOL    HW119190   4.074   1.180   6.014
 6101SOL    HW219191   4.072   1.029   6.022
 6102SOL     OW19192   4.301   0.539   6.449
 6102SOL    HW119193   4.301   0.605   6.379
 6102SOL    HW219194   4.363   0.572   6.513
 6103SOL     OW19195   4.073   1.532   6.903
 6103SOL    HW119196   4.066   1.489   6.818
 6103SOL    HW219197   4.167   1.534   6.922
 6104SOL     OW19198   4.136   0.742   7.190
 6104SOL    HW119199   4.194   0.788   7.129
 6104SOL    HW219200   4.182   0.660   7.209
 6105SOL     OW19201   4.237   0.069   7.314
 6105SOL    HW119202   4.203   4.487   7.279
 6105SOL    HW219203   4.159   0.122   7.331
 6106SOL     OW19204   4.292   0.888   6.612
 6106SOL    HW119205   4.322   0.977   6.627
 6106SOL    HW219206   4.243   0.866   6.692
 6107SOL     OW19207   4.014   0.238   6.826
 6107SOL    HW119208   3.972   0.249   6.911
 6107SOL    HW219209   4.049   0.148   6.829
 6108SOL     OW19210   3.771   1.310   6.863
 6108SOL    HW119211   3.803   1.257   6.935
 6108SOL    HW219212   3.777   1.400   6.896
 6109SOL     OW19213   4.013   0.057   6.244
 6109SOL    HW119214   4.009   0.153   6.245
 6109SOL    HW219215   4.029   0.032   6.335
 6110SOL     OW19216   4.077   0.916   7.393
 6110SOL    HW119217   4.159   0.931   7.441
 6110SOL    HW219218   4.099   0.852   7.326
 6111SOL     OW19219   4.032   0.809   6.533
 6111SOL    HW119220   4.123   0.836   6.532
 6111SOL    HW219221   4.034   0.719   6.565
 6112SOL     OW19222   4.067   0.530   6.596
 6112SOL    HW119223   4.024   0.447   6.577
 6112SOL    HW219224   4.145   0.530   6.540
 6113SOL     OW19225   3.729   1.322   5.781
 6113SOL    HW119226   3.642   1.335   5.743
 6113SOL    HW219227   3.727   1.232   5.815
 6114SOL     OW19228   3.815   1.789   6.523
 6114SOL    HW119229   3.785   1.709   6.480
 6114SOL    HW219230   3.905   1.801   6.492
 6115SOL     OW19231   4.232   1.582   6.491
 6115SOL    HW119232   4.317   1.616   6.519
 6115SOL    HW219233   4.253   1.510   6.431
 6116SOL     OW19234   3.757   0.543   6.704
 6116SOL    HW119235   3.834   0.519   6.651
 6116SOL    HW219236   3.790   0.548   6.793
 6117SOL     OW19237   3.909   0.518   7.306
 6117SOL    HW119238   3.982   0.497   7.248
 6117SOL    HW219239   3.866   0.593   7.265
 6118SOL     OW19240   0.031   0.552   5.850
 6118SOL    HW119241   0.019   0.484   5.916
 6118SOL    HW219242   4.464   0.618   5.872
 6119SOL     OW19243   3.971   1.553   7.315
 6119SOL    HW119244   3.944   1.617   7.382
 6119SOL    HW219245   3.968   1.469   7.360
 6120SOL     OW19246   4.192   0.495   5.771
 6120SOL    HW119247   4.249   0.568   5.792
 6120SOL    HW219248   4.105   0.534   5.760
 6121SOL     OW19249   3.872   1.140   7.058
 6121SOL    HW119250   3.874   1.087   7.138
 6121SOL    HW219251   3.887   1.077   6.987
 6122SOL     OW19252   3.808   1.268   6.599
 6122SOL    HW119253   3.794   1.278   6.693
 6122SOL    HW219254   3.736   1.213   6.569
 6123SOL     OW19255   4.390   1.652   7.288
 6123SOL    HW119256   4.355   1.738   7.312
 6123SOL    HW219257   4.437   1.666   7.206
 6124SOL     OW19258   3.860   1.797   7.429
 6124SOL    HW119259   3.809   1.732   7.478
 6124SOL    HW219260   3.908   1.845   7.497
 6125SOL     OW19261   3.990   0.327   6.304
 6125SOL    HW119262   3.903   0.359   6.278
 6125SOL    HW219263   3.984   0.315   6.398
 6126SOL     OW19264   4.089   1.305   7.076
 6126SOL    HW119265   4.070   1.382   7.022
 6126SOL    HW219266   4.016   1.246   7.060
 6127SOL     OW19267   4.325   1.490   6.067
 6127SOL    HW119268   4.343   1.431   5.994
 6127SOL    HW219269   4.259   1.551   6.033
 6128SOL     OW19270   3.983   1.350   5.872
 6128SOL    HW119271   3.890   1.346   5.850
 6128SOL    HW219272   3.985   1.385   5.961
 6129SOL     OW19273   3.836   1.021   7.306
 6129SOL    HW119274   3.759   0.997   7.358
 6129SOL    HW219275   3.910   0.984   7.353
 6130SOL     OW19276   4.371   0.205   7.075
 6130SOL    HW119277   4.461   0.220   7.046
 6130SOL    HW219278   4.380   0.179   7.167
 6131SOL     OW19279   3.805   0.341   5.633
 6131SOL    HW119280   3.733   0.289   5.597
 6131SOL    HW219281   3.819   0.410   5.568
 6132SOL     OW19282   3.789   0.181   5.907
 6132SOL    HW119283   3.787   0.247   5.838
 6132SOL    HW219284   3.865   0.126   5.885
 6133SOL     OW19285   4.337   0.840   7.021
 6133SOL    HW119286   4.380   0.924   7.005
 6133SOL    HW219287   4.409   0.779   7.035
 6134SOL     OW19288   4.400   0.559   7.318
 6134SOL    HW119289   4.424   0.634   7.372
 6134SOL    HW219290   4.483   0.518   7.295
 6135SOL     OW19291   4.108   1.739   7.146
 6135SOL    HW119292   4.022   1.779   7.134
 6135SOL    HW219293   4.090   1.657   7.192
 6136SOL     OW19294   4.310   0.732   6.251
 6136SOL    HW119295   4.352   0.817   6.239
 6136SOL    HW219296   4.240   0.730   6.186
 6137SOL     OW19297   3.944   1.307   7.441
 6137SOL    HW119298   3.878   1.243   7.413
 6137SOL    HW219299   3.929   1.318   7.535
 6138SOL     OW19300   3.808   1.235   6.251
 6138SOL    HW119301   3.810   1.186   6.333
 6138SOL    HW219302   3.877   1.195   6.197
 6139SOL     OW19303   4.414   1.387   7.241
 6139SOL    HW119304   4.325   1.353   7.240
 6139SOL    HW219305   4.404   1.480   7.257
 6140SOL     OW19306   4.164   0.435   6.118
 6140SOL    HW119307   4.183   0.365   6.055
 6140SOL    HW219308   4.109   0.393   6.184
 6141SOL     OW19309   4.053   0.555   6.875
 6141SOL    HW119310   4.105   0.496   6.929
 6141SOL    HW219311   4.072   0.529   6.785
 6142SOL     OW19312   0.037   1.596   6.271
 6142SOL    HW119313   0.058   1.656   6.199
 6142SOL    HW219314   4.465   1.543   6.238
 6143SOL     OW19315   3.768   1.072   5.891
 6143SOL    HW119316   3.862   1.062   5.874
 6143SOL    HW219317   3.738   0.985   5.914
 6144SOL     OW19318   3.955   0.627   7.567
 6144SOL    HW119319   3.867   0.620   7.606
 6144SOL    HW219320   3.944   0.595   7.478
 6145SOL     OW19321   3.931   0.301   8.437
 6145SOL    HW119322   3.965   0.271   8.521
 6145SOL    HW219323   3.851   0.250   8.424
 6146SOL     OW19324   3.732   0.385   8.087
 6146SOL    HW119325   3.645   0.404   8.123
 6146SOL    HW219326   3.718   0.310   8.029
 6147SOL     OW19327   4.269   1.249   8.593
 6147SOL    HW119328   4.195   1.306   8.571
 6147SOL    HW219329   4.331   1.306   8.638
 6148SOL     OW19330   0.023   0.780   9.305
 6148SOL    HW119331   0.071   0.829   9.372
 6148SOL    HW219332   0.064   0.805   9.223
 6149SOL     OW19333   4.398   0.994   8.088
 6149SOL    HW119334   4.471   0.988   8.150
 6149SOL    HW219335   4.335   1.052   8.130
 6150SOL     OW19336   4.419   1.161   9.262
 6150SOL    HW119337   4.461   1.242   9.233
 6150SOL    HW219338   4.327   1.171   9.235
 6151SOL     OW19339   4.059   1.433   8.517
 6151SOL    HW119340   3.987   1.391   8.471
 6151SOL    HW219341   4.107   1.481   8.449
 6152SOL     OW19342   4.163   0.396   8.936
 6152SOL    HW119343   4.242   0.342   8.937
 6152SOL    HW219344   4.092   0.334   8.949
 6153SOL     OW19345   3.943   1.714   7.922
 6153SOL    HW119346   3.965   1.790   7.976
 6153SOL    HW219347   4.015   1.706   7.861
 6154SOL     OW19348   3.954   1.440   7.982
 6154SOL    HW119349   3.936   1.534   7.988
 6154SOL    HW219350   3.893   1.400   8.045
 6155SOL     OW19351   3.974   1.089   8.335
 6155SOL    HW119352   3.978   1.004   8.379
 6155SOL    HW219353   3.921   1.144   8.392
 6156SOL     OW19354   4.360   1.798   8.901
 6156SOL    HW119355   4.274   1.764   8.925
 6156SOL    HW219356   4.349   1.893   8.901
 6157SOL     OW19357   4.310   0.985   7.585
 6157SOL    HW119358   4.339   1.038   7.511
 6157SOL    HW219359   4.378   0.997   7.652
 6158SOL     OW19360   3.839   0.652   8.008
 6158SOL    HW119361   3.810   0.563   8.029
 6158SOL    HW219362   3.831   0.700   8.089
 6159SOL     OW19363   3.755   1.596   7.572
 6159SOL    HW119364   3.737   1.504   7.591
 6159SOL    HW219365   3.731   1.642   7.652
 6160SOL     OW19366   3.845   0.743   9.033
 6160SOL    HW119367   3.937   0.768   9.046
 6160SOL    HW219368   3.797   0.826   9.040
 6161SOL     OW19369   4.312   1.386   8.185
 6161SOL    HW119370   4.276   1.298   8.189
 6161SOL    HW219371   4.312   1.408   8.092
 6162SOL     OW19372   0.019   0.017   7.961
 6162SOL    HW119373   0.048   0.080   7.894
 6162SOL    HW219374   4.428   0.042   7.979
 6163SOL     OW19375   3.913   0.967   8.719
 6163SOL    HW119376   3.998   0.927   8.701
 6163SOL    HW219377   3.850   0.912   8.672
 6164SOL     OW19378   4.039   0.253   9.232
 6164SOL    HW119379   4.101   0.319   9.262
 6164SOL    HW219380   3.964   0.261   9.292
 6165SOL     OW19381   4.312   0.729   7.718
 6165SOL    HW119382   4.311   0.805   7.660
 6165SOL    HW219383   4.244   0.746   7.783
 6166SOL     OW19384   3.813   0.820   8.224
 6166SOL    HW119385   3.894   0.813   8.274
 6166SOL    HW219386   3.771   0.899   8.258
 6167SOL     OW19387   3.853   1.841   9.024
 6167SOL    HW119388   3.851   1.822   9.118
 6167SOL    HW219389   3.761   1.842   8.998
 6168SOL     OW19390   4.247   0.202   8.344
 6168SOL    HW119391   4.285   0.219   8.430
 6168SOL    HW219392   4.263   0.281   8.293
 6169SOL     OW19393   4.082   1.810   8.309
 6169SOL    HW119394   4.130   1.728   8.316
 6169SOL    HW219395   4.148   1.878   8.320
 6170SOL     OW19396   4.044   0.957   7.697
 6170SOL    HW119397   4.126   0.975   7.652
 6170SOL    HW219398   4.013   0.875   7.659
 6171SOL     OW19399   4.178   1.253   9.183
 6171SOL    HW119400   4.151   1.264   9.092
 6171SOL    HW219401   4.098   1.263   9.233
 6172SOL     OW19402   3.913   0.269   8.958
 6172SOL    HW119403   3.846   0.335   8.940
 6172SOL    HW219404   3.922   0.269   9.054
 6173SOL     OW19405   4.192   1.735   7.773
 6173SOL    HW119406   4.224   1.795   7.841
 6173SOL    HW219407   4.262   1.734   7.708
 6174SOL     OW19408   3.979   1.793   8.681
 6174SOL    HW119409   4.027   1.724   8.727
 6174SOL    HW219410   3.965   1.758   8.593
 6175SOL     OW19411   4.111   0.694   7.921
 6175SOL    HW119412   4.137   0.603   7.935
 6175SOL    HW219413   4.017   0.696   7.943
 6176SOL     OW19414   4.327   0.122   7.565
 6176SOL    HW119415   4.413   0.082   7.577
 6176SOL    HW219416   4.303   0.100   7.475
 6177SOL     OW19417   0.018   1.424   8.362
 6177SOL    HW119418   0.086   1.460   8.305
 6177SOL    HW219419   4.445   1.407   8.304
 6178SOL     OW19420   4.271   0.108   7.987
 6178SOL    HW119421   4.186   0.067   8.006
 6178SOL    HW219422   4.255   0.159   7.907
 6179SOL     OW19423   4.023   0.073   7.642
 6179SOL    HW119424   4.103   0.123   7.624
 6179SOL    HW219425   4.053   4.500   7.697
 6180SOL     OW19426   0.322   0.679   8.906
 6180SOL    HW119427   0.249   0.619   8.892
 6180SOL    HW219428   0.400   0.627   8.887
 6181SOL     OW19429   4.189   1.145   8.183
 6181SOL    HW119430   4.120   1.127   8.246
 6181SOL    HW219431   4.149   1.127   8.097
 6182SOL     OW19432   3.805   0.551   8.842
 6182SOL    HW119433   3.896   0.554   8.811
 6182SOL    HW219434   3.798   0.623   8.905
 6183SOL     OW19435   4.296   0.236   8.608
 6183SOL    HW119436   4.305   0.143   8.626
 6183SOL    HW219437   4.207   0.257   8.636
 6184SOL     OW19438   4.230   1.387   7.620
 6184SOL    HW119439   4.146   1.372   7.663
 6184SOL    HW219440   4.208   1.403   7.529
 6185SOL     OW19441   4.245   0.270   7.771
 6185SOL    HW119442   4.285   0.214   7.704
 6185SOL    HW219443   4.226   0.352   7.726
 6186SOL     OW19444   4.140   0.814   8.697
 6186SOL    HW119445   4.207   0.824   8.765
 6186SOL    HW219446   4.105   0.725   8.711
 6187SOL     OW19447   3.792   1.573   8.799
 6187SOL    HW119448   3.759   1.645   8.746
 6187SOL    HW219449   3.888   1.580   8.793
 6188SOL     OW19450   4.074   1.108   7.938
 6188SOL    HW119451   4.075   1.180   7.876
 6188SOL    HW219452   4.072   1.029   7.884
 6189SOL     OW19453   4.301   0.539   8.311
 6189SOL    HW119454   4.301   0.605   8.241
 6189SOL    HW219455   4.363   0.572   8.375
 6190SOL     OW19456   4.073   1.532   8.765
 6190SOL    HW119457   4.066   1.489   8.680
 6190SOL    HW219458   4.166   1.534   8.784
 6191SOL     OW19459   4.136   0.742   9.052
 6191SOL    HW119460   4.194   0.788   8.991
 6191SOL    HW219461   4.182   0.660   9.071
 6192SOL     OW19462   4.237   0.069   9.176
 6192SOL    HW119463   4.203   4.487   9.141
 6192SOL    HW219464   4.159   0.122   9.193
 6193SOL     OW19465   4.291   0.888   8.474
 6193SOL    HW119466   4.322   0.977   8.489
 6193SOL    HW219467   4.243   0.866   8.554
 6194SOL     OW19468   4.014   0.238   8.688
 6194SOL    HW119469   3.972   0.249   8.773
 6194SOL    HW219470   4.049   0.148   8.691
 6195SOL     OW19471   3.771   1.310   8.725
 6195SOL    HW119472   3.803   1.256   8.797
 6195SOL    HW219473   3.777   1.400   8.758
 6196SOL     OW19474   4.013   0.057   8.106
 6196SOL    HW119475   4.009   0.153   8.107
 6196SOL    HW219476   4.029   0.032   8.197
 6197SOL     OW19477   4.077   0.916   9.255
 6197SOL    HW119478   4.158   0.931   9.303
 6197SOL    HW219479   4.099   0.852   9.188
 6198SOL     OW19480   4.032   0.809   8.395
 6198SOL    HW119481   4.123   0.836   8.394
 6198SOL    HW219482   4.034   0.719   8.427
 6199SOL     OW19483   4.067   0.530   8.458
 6199SOL    HW119484   4.024   0.448   8.439
 6199SOL    HW219485   4.145   0.531   8.402
 6200SOL     OW19486   3.729   1.322   7.643
 6200SOL    HW119487   3.642   1.335   7.605
 6200SOL    HW219488   3.727   1.232   7.677
 6201SOL     OW19489   3.815   1.789   8.386
 6201SOL    HW119490   3.785   1.709   8.342
 6201SOL    HW219491   3.905   1.801   8.354
 6202SOL     OW19492   4.232   1.582   8.353
 6202SOL    HW119493   4.317   1.616   8.381
 6202SOL    HW219494   4.253   1.510   8.293
 6203SOL     OW19495   3.757   0.543   8.566
 6203SOL    HW119496   3.834   0.519   8.513
 6203SOL    HW219497   3.790   0.548   8.655
 6204SOL     OW19498   3.909   0.518   9.168
 6204SOL    HW119499   3.982   0.497   9.110
 6204SOL    HW219500   3.866   0.593   9.127
 6205SOL     OW19501   0.031   0.552   7.712
 6205SOL    HW119502   0.020   0.484   7.778
 6205SOL    HW219503   4.464   0.617   7.734
 6206SOL     OW19504   3.971   1.553   9.177
 6206SOL    HW119505   3.944   1.617   9.244
 6206SOL    HW219506   3.968   1.469   9.222
 6207SOL     OW19507   4.192   0.494   7.633
 6207SOL    HW119508   4.249   0.568   7.654
 6207SOL    HW219509   4.105   0.534   7.622
 6208SOL     OW19510   3.872   1.140   8.920
 6208SOL    HW119511   3.874   1.087   9.000
 6208SOL    HW219512   3.887   1.077   8.849
 6209SOL     OW19513   3.808   1.268   8.461
 6209SOL    HW119514   3.793   1.278   8.555
 6209SOL    HW219515   3.736   1.213   8.431
 6210SOL     OW19516   4.389   1.652   9.150
 6210SOL    HW119517   4.356   1.738   9.174
 6210SOL    HW219518   4.437   1.666   9.068
 6211SOL     OW19519   3.860   1.797   9.291
 6211SOL    HW119520   3.809   1.732   9.340
 6211SOL    HW219521   3.908   1.845   9.359
 6212SOL     OW19522   3.990   0.327   8.166
 6212SOL    HW119523   3.903   0.359   8.140
 6212SOL    HW219524   3.984   0.315   8.260
 6213SOL     OW19525   4.089   1.305   8.939
 6213SOL    HW119526   4.070   1.382   8.884
 6213SOL    HW219527   4.016   1.246   8.922
 6214SOL     OW19528   4.325   1.490   7.929
 6214SOL    HW119529   4.343   1.431   7.856
 6214SOL    HW219530   4.260   1.551   7.895
 6215SOL     OW19531   3.983   1.350   7.734
 6215SOL    HW119532   3.890   1.346   7.712
 6215SOL    HW219533   3.985   1.385   7.823
 6216SOL     OW19534   3.836   1.021   9.167
 6216SOL    HW119535   3.759   0.997   9.220
 6216SOL    HW219536   3.910   0.984   9.215
 6217SOL     OW19537   4.371   0.205   8.937
 6217SOL    HW119538   4.461   0.220   8.908
 6217SOL    HW219539   4.380   0.179   9.029
 6218SOL     OW19540   3.805   0.342   7.495
 6218SOL    HW119541   3.733   0.289   7.459
 6218SOL    HW219542   3.819   0.410   7.430
 6219SOL     OW19543   3.789   0.181   7.769
 6219SOL    HW119544   3.787   0.247   7.700
 6219SOL    HW219545   3.865   0.126   7.747
 6220SOL     OW19546   4.337   0.840   8.882
 6220SOL    HW119547   4.380   0.924   8.867
 6220SOL    HW219548   4.409   0.779   8.897
 6221SOL     OW19549   4.400   0.559   9.180
 6221SOL    HW119550   4.424   0.634   9.234
 6221SOL    HW219551   4.483   0.518   9.157
 6222SOL     OW19552   4.108   1.739   9.008
 6222SOL    HW119553   4.022   1.779   8.996
 6222SOL    HW219554   4.090   1.657   9.054
 6223SOL     OW19555   4.310   0.732   8.113
 6223SOL    HW119556   4.352   0.817   8.101
 6223SOL    HW219557   4.240   0.730   8.048
 6224SOL     OW19558   3.944   1.307   9.303
 6224SOL    HW119559   3.878   1.243   9.275
 6224SOL    HW219560   3.929   1.318   9.397
 6225SOL     OW19561   3.808   1.235   8.113
 6225SOL    HW119562   3.810   1.186   8.195
 6225SOL    HW219563   3.877   1.195   8.059
 6226SOL     OW19564   4.414   1.387   9.103
 6226SOL    HW119565   4.324   1.353   9.102
 6226SOL    HW219566   4.404   1.480   9.119
 6227SOL     OW19567   4.164   0.435   7.979
 6227SOL    HW119568   4.183   0.365   7.917
 6227SOL    HW219569   4.109   0.393   8.046
 6228SOL     OW19570   4.053   0.555   8.737
 6228SOL    HW119571   4.105   0.496   8.791
 6228SOL    HW219572   4.072   0.529   8.647
 6229SOL     OW19573   0.037   1.596   8.133
 6229SOL    HW119574   0.058   1.656   8.061
 6229SOL    HW219575   4.465   1.543   8.100
 6230SOL     OW19576   3.768   1.072   7.753
 6230SOL    HW119577   3.862   1.062   7.736
 6230SOL    HW219578   3.738   0.984   7.776
 6231SOL     OW19579   3.955   0.627   9.429
 6231SOL    HW119580   3.867   0.620   9.468
 6231SOL    HW219581   3.944   0.595   9.340
 6232SOL     OW19582   3.931   0.301  10.298
 6232SOL    HW119583   3.965   0.271  10.383
 6232SOL    HW219584   3.851   0.250  10.286
 6233SOL     OW19585   3.732   0.385   9.949
 6233SOL    HW119586   3.645   0.404   9.985
 6233SOL    HW219587   3.718   0.310   9.891
 6234SOL     OW19588   4.269   1.249  10.456
 6234SOL    HW119589   4.195   1.305  10.433
 6234SOL    HW219590   4.331   1.306  10.501
 6235SOL     OW19591   0.025   0.809   0.079
 6235SOL    HW119592   0.100   0.850   0.122
 6235SOL    HW219593   0.055   0.794  11.089
 6236SOL     OW19594   4.399   0.994   9.950
 6236SOL    HW119595   4.471   0.988  10.012
 6236SOL    HW219596   4.335   1.052   9.992
 6237SOL     OW19597   4.060   1.433  10.379
 6237SOL    HW119598   3.987   1.391  10.333
 6237SOL    HW219599   4.107   1.481  10.311
 6238SOL     OW19600   4.174   0.397  10.796
 6238SOL    HW119601   4.243   0.331  10.797
 6238SOL    HW219602   4.094   0.349  10.819
 6239SOL     OW19603   3.943   1.714   9.784
 6239SOL    HW119604   3.965   1.790   9.837
 6239SOL    HW219605   4.015   1.706   9.723
 6240SOL     OW19606   3.954   1.440   9.844
 6240SOL    HW119607   3.936   1.534   9.850
 6240SOL    HW219608   3.893   1.400   9.906
 6241SOL     OW19609   3.974   1.088  10.197
 6241SOL    HW119610   3.978   1.004  10.242
 6241SOL    HW219611   3.921   1.144  10.254
 6242SOL     OW19612   4.356   1.799  10.756
 6242SOL    HW119613   4.269   1.769  10.782
 6242SOL    HW219614   4.352   1.894  10.765
 6243SOL     OW19615   4.310   0.985   9.447
 6243SOL    HW119616   4.339   1.038   9.373
 6243SOL    HW219617   4.378   0.997   9.514
 6244SOL     OW19618   3.839   0.652   9.870
 6244SOL    HW119619   3.810   0.563   9.891
 6244SOL    HW219620   3.831   0.701   9.951
 6245SOL     OW19621   3.755   1.596   9.434
 6245SOL    HW119622   3.737   1.504   9.453
 6245SOL    HW219623   3.731   1.643   9.514
 6246SOL     OW19624   3.848   0.727  10.914
 6246SOL    HW119625   3.941   0.750  10.909
 6246SOL    HW219626   3.802   0.810  10.906
 6247SOL     OW19627   4.312   1.386  10.047
 6247SOL    HW119628   4.276   1.298  10.051
 6247SOL    HW219629   4.312   1.408   9.954
 6248SOL     OW19630   0.018   0.017   9.822
 6248SOL    HW119631   0.048   0.080   9.756
 6248SOL    HW219632   4.428   0.042   9.841
 6249SOL     OW19633   3.913   0.966  10.579
 6249SOL    HW119634   3.998   0.925  10.560
 6249SOL    HW219635   3.849   0.910  10.533
 6250SOL     OW19636   4.057   0.276  11.088
 6250SOL    HW119637   4.115   0.335   0.036
 6250SOL    HW219638   3.973   0.282   0.034
 6251SOL     OW19639   4.312   0.729   9.580
 6251SOL    HW119640   4.311   0.805   9.522
 6251SOL    HW219641   4.244   0.746   9.645
 6252SOL     OW19642   3.813   0.821  10.086
 6252SOL    HW119643   3.894   0.813  10.136
 6252SOL    HW219644   3.771   0.899  10.120
 6253SOL     OW19645   3.854   1.842  10.895
 6253SOL    HW119646   3.835   1.804  10.982
 6253SOL    HW219647   3.770   1.842  10.850
 6254SOL     OW19648   4.246   0.203  10.209
 6254SOL    HW119649   4.288   0.222  10.293
 6254SOL    HW219650   4.263   0.280  10.156
 6255SOL     OW19651   4.082   1.810  10.171
 6255SOL    HW119652   4.130   1.728  10.178
 6255SOL    HW219653   4.148   1.878  10.182
 6256SOL     OW19654   4.044   0.957   9.559
 6256SOL    HW119655   4.126   0.975   9.514
 6256SOL    HW219656   4.013   0.875   9.521
 6257SOL     OW19657   4.179   1.262  11.054
 6257SOL    HW119658   4.153   1.274  10.962
 6257SOL    HW219659   4.106   1.214  11.093
 6258SOL     OW19660   3.921   0.272  10.813
 6258SOL    HW119661   3.848   0.333  10.805
 6258SOL    HW219662   3.932   0.260  10.908
 6259SOL     OW19663   4.192   1.735   9.635
 6259SOL    HW119664   4.224   1.795   9.703
 6259SOL    HW219665   4.262   1.734   9.570
 6260SOL     OW19666   3.979   1.793  10.544
 6260SOL    HW119667   4.027   1.725  10.590
 6260SOL    HW219668   3.966   1.757  10.456
 6261SOL     OW19669   4.111   0.694   9.783
 6261SOL    HW119670   4.137   0.603   9.797
 6261SOL    HW219671   4.017   0.696   9.805
 6262SOL     OW19672   4.327   0.122   9.427
 6262SOL    HW119673   4.413   0.082   9.440
 6262SOL    HW219674   4.303   0.099   9.337
 6263SOL     OW19675   0.018   1.424  10.224
 6263SOL    HW119676   0.086   1.459  10.167
 6263SOL    HW219677   4.444   1.407  10.166
 6264SOL     OW19678   4.271   0.108   9.849
 6264SOL    HW119679   4.186   0.067   9.868
 6264SOL    HW219680   4.255   0.159   9.769
 6265SOL     OW19681   4.023   0.073   9.504
 6265SOL    HW119682   4.103   0.123   9.486
 6265SOL    HW219683   4.053   4.500   9.559
 6266SOL     OW19684   0.310   0.682  10.770
 6266SOL    HW119685   0.245   0.611  10.771
 6266SOL    HW219686   0.393   0.638  10.751
 6267SOL     OW19687   4.189   1.145  10.045
 6267SOL    HW119688   4.120   1.127  10.108
 6267SOL    HW219689   4.150   1.127   9.959
 6268SOL     OW19690   3.804   0.550  10.706
 6268SOL    HW119691   3.894   0.554  10.676
 6268SOL    HW219692   3.799   0.615  10.776
 6269SOL     OW19693   4.297   0.235  10.476
 6269SOL    HW119694   4.302   0.140  10.482
 6269SOL    HW219695   4.206   0.256  10.497
 6270SOL     OW19696   4.230   1.387   9.482
 6270SOL    HW119697   4.146   1.372   9.525
 6270SOL    HW219698   4.208   1.403   9.391
 6271SOL     OW19699   4.245   0.270   9.633
 6271SOL    HW119700   4.285   0.214   9.566
 6271SOL    HW219701   4.226   0.352   9.588
 6272SOL     OW19702   4.140   0.813  10.559
 6272SOL    HW119703   4.207   0.823  10.626
 6272SOL    HW219704   4.105   0.725  10.573
 6273SOL     OW19705   3.793   1.576  10.661
 6273SOL    HW119706   3.761   1.646  10.604
 6273SOL    HW219707   3.888   1.580  10.653
 6274SOL     OW19708   4.074   1.108   9.800
 6274SOL    HW119709   4.075   1.180   9.738
 6274SOL    HW219710   4.072   1.029   9.746
 6275SOL     OW19711   4.300   0.539  10.173
 6275SOL    HW119712   4.301   0.605  10.104
 6275SOL    HW219713   4.364   0.571  10.237
 6276SOL     OW19714   4.072   1.531  10.627
 6276SOL    HW119715   4.066   1.487  10.542
 6276SOL    HW219716   4.166   1.533  10.646
 6277SOL     OW19717   4.134   0.737  10.905
 6277SOL    HW119718   4.196   0.782  10.848
 6277SOL    HW219719   4.166   0.646  10.907
 6278SOL     OW19720   4.292   0.888  10.336
 6278SOL    HW119721   4.322   0.978  10.350
 6278SOL    HW219722   4.243   0.867  10.415
 6279SOL     OW19723   4.015   0.238  10.549
 6279SOL    HW119724   3.975   0.251  10.635
 6279SOL    HW219725   4.047   0.147  10.552
 6280SOL     OW19726   3.774   1.312  10.586
 6280SOL    HW119727   3.801   1.256  10.659
 6280SOL    HW219728   3.776   1.401  10.621
 6281SOL     OW19729   4.013   0.057   9.968
 6281SOL    HW119730   4.009   0.153   9.969
 6281SOL    HW219731   4.029   0.032  10.059
 6282SOL     OW19732   4.080   0.918  11.095
 6282SOL    HW119733   4.164   0.934   0.038
 6282SOL    HW219734   4.100   0.851  11.029
 6283SOL     OW19735   4.032   0.809  10.257
 6283SOL    HW119736   4.123   0.836  10.255
 6283SOL    HW219737   4.034   0.719  10.288
 6284SOL     OW19738   4.067   0.531  10.321
 6284SOL    HW119739   4.023   0.448  10.301
 6284SOL    HW219740   4.145   0.531  10.265
 6285SOL     OW19741   3.729   1.322   9.505
 6285SOL    HW119742   3.642   1.335   9.467
 6285SOL    HW219743   3.727   1.232   9.539
 6286SOL     OW19744   3.815   1.789  10.248
 6286SOL    HW119745   3.785   1.709  10.204
 6286SOL    HW219746   3.905   1.801  10.216
 6287SOL     OW19747   4.232   1.582  10.215
 6287SOL    HW119748   4.317   1.616  10.243
 6287SOL    HW219749   4.253   1.510  10.155
 6288SOL     OW19750   3.757   0.543  10.428
 6288SOL    HW119751   3.834   0.519  10.376
 6288SOL    HW219752   3.790   0.548  10.518
 6289SOL     OW19753   0.031   0.552   9.574
 6289SOL    HW119754   0.020   0.484   9.640
 6289SOL    HW219755   4.464   0.617   9.596
 6290SOL     OW19756   3.979   1.566  11.054
 6290SOL    HW119757   3.922   1.601   0.023
 6290SOL    HW219758   3.979   1.472  11.069
 6291SOL     OW19759   4.192   0.494   9.495
 6291SOL    HW119760   4.249   0.568   9.516
 6291SOL    HW219761   4.105   0.534   9.484
 6292SOL     OW19762   3.877   1.138  10.780
 6292SOL    HW119763   3.870   1.082  10.858
 6292SOL    HW219764   3.890   1.076  10.708
 6293SOL     OW19765   3.808   1.269  10.322
 6293SOL    HW119766   3.795   1.279  10.417
 6293SOL    HW219767   3.736   1.212  10.294
 6294SOL     OW19768   4.394   1.667  11.005
 6294SOL    HW119769   4.317   1.720  10.988
 6294SOL    HW219770   4.432   1.651  10.919
 6295SOL     OW19771   3.990   0.327  10.028
 6295SOL    HW119772   3.903   0.359  10.002
 6295SOL    HW219773   3.984   0.315  10.122
 6296SOL     OW19774   4.085   1.308  10.809
 6296SOL    HW119775   4.072   1.381  10.748
 6296SOL    HW219776   4.015   1.246  10.788
 6297SOL     OW19777   4.325   1.490   9.791
 6297SOL    HW119778   4.343   1.431   9.718
 6297SOL    HW219779   4.260   1.551   9.757
 6298SOL     OW19780   3.983   1.350   9.595
 6298SOL    HW119781   3.890   1.346   9.574
 6298SOL    HW219782   3.985   1.385   9.685
 6299SOL     OW19783   3.837   1.012  11.020
 6299SOL    HW119784   3.767   0.997  11.083
 6299SOL    HW219785   3.916   0.982  11.064
 6300SOL     OW19786   4.379   0.185  10.814
 6300SOL    HW119787   4.447   0.207  10.751
 6300SOL    HW219788   4.416   0.211  10.899
 6301SOL     OW19789   3.805   0.342   9.357
 6301SOL    HW119790   3.733   0.289   9.321
 6301SOL    HW219791   3.819   0.410   9.292
 6302SOL     OW19792   3.789   0.181   9.631
 6302SOL    HW119793   3.787   0.247   9.562
 6302SOL    HW219794   3.865   0.126   9.609
 6303SOL     OW19795   4.338   0.839  10.745
 6303SOL    HW119796   4.377   0.925  10.729
 6303SOL    HW219797   4.412   0.779  10.752
 6304SOL     OW19798   4.114   1.735  10.871
 6304SOL    HW119799   4.035   1.787  10.863
 6304SOL    HW219800   4.089   1.659  10.924
 6305SOL     OW19801   4.310   0.732   9.975
 6305SOL    HW119802   4.352   0.817   9.963
 6305SOL    HW219803   4.240   0.730   9.910
 6306SOL     OW19804   3.808   1.235   9.975
 6306SOL    HW119805   3.810   1.186  10.057
 6306SOL    HW219806   3.877   1.195   9.921
 6307SOL     OW19807   4.406   1.392  10.941
 6307SOL    HW119808   4.330   1.343  10.974
 6307SOL    HW219809   4.398   1.478  10.983
 6308SOL     OW19810   4.163   0.435   9.841
 6308SOL    HW119811   4.183   0.365   9.779
 6308SOL    HW219812   4.109   0.393   9.908
 6309SOL     OW19813   4.053   0.555  10.600
 6309SOL    HW119814   4.106   0.495  10.652
 6309SOL    HW219815   4.070   0.529  10.509
 6310SOL     OW19816   0.037   1.596   9.995
 6310SOL    HW119817   0.058   1.656   9.923
 6310SOL    HW219818   4.465   1.543   9.962
 6311SOL     OW19819   3.768   1.072   9.615
 6311SOL    HW119820   3.862   1.062   9.598
 6311SOL    HW219821   3.738   0.984   9.638
 6312SOL     OW19822   3.950   2.477   0.117
 6312SOL    HW119823   3.864   2.481   0.160
 6312SOL    HW219824   3.932   2.496   0.025
 6313SOL     OW19825   3.947   2.145   0.991
 6313SOL    HW119826   3.979   2.110   1.074
 6313SOL    HW219827   3.858   2.111   0.983
 6314SOL     OW19828   3.729   2.244   0.638
 6314SOL    HW119829   3.646   2.268   0.679
 6314SOL    HW219830   3.709   2.164   0.589
 6315SOL     OW19831   4.268   3.110   1.147
 6315SOL    HW119832   4.195   3.168   1.123
 6315SOL    HW219833   4.331   3.168   1.190
 6316SOL     OW19834   0.021   2.644   1.857
 6316SOL    HW119835   0.072   2.690   1.924
 6316SOL    HW219836   0.065   2.666   1.774
 6317SOL     OW19837   4.398   2.855   0.639
 6317SOL    HW119838   4.472   2.851   0.700
 6317SOL    HW219839   4.335   2.914   0.682
 6318SOL     OW19840   4.419   3.023   1.814
 6318SOL    HW119841   4.461   3.104   1.785
 6318SOL    HW219842   4.327   3.033   1.787
 6319SOL     OW19843   4.060   3.295   1.069
 6319SOL    HW119844   3.987   3.253   1.022
 6319SOL    HW219845   4.107   3.343   1.001
 6320SOL     OW19846   4.170   2.261   1.487
 6320SOL    HW119847   4.245   2.201   1.490
 6320SOL    HW219848   4.094   2.206   1.500
 6321SOL     OW19849   3.942   3.575   0.476
 6321SOL    HW119850   3.964   3.653   0.527
 6321SOL    HW219851   4.011   3.569   0.410
 6322SOL     OW19852   3.951   3.302   0.532
 6322SOL    HW119853   3.936   3.396   0.537
 6322SOL    HW219854   3.890   3.264   0.596
 6323SOL     OW19855   3.973   2.950   0.886
 6323SOL    HW119856   3.978   2.866   0.931
 6323SOL    HW219857   3.921   3.006   0.944
 6324SOL     OW19858   4.360   3.660   1.452
 6324SOL    HW119859   4.274   3.626   1.477
 6324SOL    HW219860   4.350   3.755   1.454
 6325SOL     OW19861   4.300   2.864   0.138
 6325SOL    HW119862   4.316   2.929   0.070
 6325SOL    HW219863   4.380   2.865   0.190
 6326SOL     OW19864   3.838   2.512   0.559
 6326SOL    HW119865   3.808   2.424   0.581
 6326SOL    HW219866   3.830   2.562   0.641
 6327SOL     OW19867   3.768   3.464   0.120
 6327SOL    HW119868   3.740   3.375   0.143
 6327SOL    HW219869   3.741   3.518   0.194
 6328SOL     OW19870   3.845   2.603   1.587
 6328SOL    HW119871   3.937   2.627   1.599
 6328SOL    HW219872   3.799   2.687   1.593
 6329SOL     OW19873   4.312   3.249   0.737
 6329SOL    HW119874   4.276   3.160   0.741
 6329SOL    HW219875   4.312   3.270   0.644
 6330SOL     OW19876   0.022   1.872   0.531
 6330SOL    HW119877   0.054   1.930   0.462
 6330SOL    HW219878   4.427   1.884   0.530
 6331SOL     OW19879   3.913   2.829   1.271
 6331SOL    HW119880   3.998   2.789   1.253
 6331SOL    HW219881   3.851   2.773   1.224
 6332SOL     OW19882   4.056   2.112   1.808
 6332SOL    HW119883   4.101   2.195   1.824
 6332SOL    HW219884   3.967   2.127   1.841
 6333SOL     OW19885   4.308   2.581   0.269
 6333SOL    HW119886   4.329   2.657   0.214
 6333SOL    HW219887   4.244   2.615   0.332
 6334SOL     OW19888   3.812   2.683   0.775
 6334SOL    HW119889   3.894   2.675   0.825
 6334SOL    HW219890   3.771   2.761   0.810
 6335SOL     OW19891   3.853   3.704   1.576
 6335SOL    HW119892   3.852   3.685   1.670
 6335SOL    HW219893   3.761   3.703   1.550
 6336SOL     OW19894   4.253   2.054   0.881
 6336SOL    HW119895   4.272   2.060   0.974
 6336SOL    HW219896   4.263   2.143   0.849
 6337SOL     OW19897   4.082   3.672   0.861
 6337SOL    HW119898   4.130   3.590   0.868
 6337SOL    HW219899   4.148   3.740   0.872
 6338SOL     OW19900   4.041   2.820   0.274
 6338SOL    HW119901   4.120   2.845   0.226
 6338SOL    HW219902   4.014   2.737   0.234
 6339SOL     OW19903   4.178   3.115   1.735
 6339SOL    HW119904   4.151   3.126   1.644
 6339SOL    HW219905   4.097   3.125   1.785
 6340SOL     OW19906   3.924   2.145   1.501
 6340SOL    HW119907   3.842   2.194   1.493
 6340SOL    HW219908   3.906   2.080   1.569
 6341SOL     OW19909   4.193   3.595   0.327
 6341SOL    HW119910   4.224   3.657   0.393
 6341SOL    HW219911   4.266   3.588   0.265
 6342SOL     OW19912   3.979   3.655   1.233
 6342SOL    HW119913   4.027   3.586   1.279
 6342SOL    HW219914   3.966   3.620   1.145
 6343SOL     OW19915   4.108   2.556   0.476
 6343SOL    HW119916   4.136   2.466   0.488
 6343SOL    HW219917   4.015   2.557   0.498
 6344SOL     OW19918   4.345   1.990   0.111
 6344SOL    HW119919   4.433   1.954   0.125
 6344SOL    HW219920   4.316   1.950   0.029
 6345SOL     OW19921   0.019   3.285   0.913
 6345SOL    HW119922   0.086   3.323   0.857
 6345SOL    HW219923   4.445   3.268   0.856
 6346SOL     OW19924   4.261   1.926   0.501
 6346SOL    HW119925   4.182   1.930   0.554
 6346SOL    HW219926   4.257   2.005   0.447
 6347SOL     OW19927   4.009   1.910   0.199
 6347SOL    HW119928   4.054   1.964   0.133
 6347SOL    HW219929   4.075   1.846   0.225
 6348SOL     OW19930   0.323   2.537   1.449
 6348SOL    HW119931   0.250   2.476   1.444
 6348SOL    HW219932   0.402   2.483   1.442
 6349SOL     OW19933   4.191   3.007   0.737
 6349SOL    HW119934   4.121   2.988   0.800
 6349SOL    HW219935   4.151   2.991   0.651
 6350SOL     OW19936   3.802   2.417   1.392
 6350SOL    HW119937   3.893   2.415   1.364
 6350SOL    HW219938   3.798   2.487   1.456
 6351SOL     OW19939   4.284   2.075   1.149
 6351SOL    HW119940   4.325   2.005   1.201
 6351SOL    HW219941   4.197   2.085   1.188
 6352SOL     OW19942   4.235   3.263   0.190
 6352SOL    HW119943   4.150   3.248   0.231
 6352SOL    HW219944   4.220   3.247   0.096
 6353SOL     OW19945   4.250   2.131   0.324
 6353SOL    HW119946   4.285   2.075   0.255
 6353SOL    HW219947   4.227   2.213   0.280
 6354SOL     OW19948   4.139   2.674   1.250
 6354SOL    HW119949   4.206   2.685   1.317
 6354SOL    HW219950   4.105   2.586   1.264
 6355SOL     OW19951   3.793   3.435   1.351
 6355SOL    HW119952   3.760   3.506   1.297
 6355SOL    HW219953   3.888   3.442   1.345
 6356SOL     OW19954   4.073   2.976   0.496
 6356SOL    HW119955   4.074   3.049   0.435
 6356SOL    HW219956   4.068   2.898   0.441
 6357SOL     OW19957   4.299   2.401   0.863
 6357SOL    HW119958   4.300   2.467   0.794
 6357SOL    HW219959   4.363   2.431   0.928
 6358SOL     OW19960   4.072   3.394   1.317
 6358SOL    HW119961   4.066   3.350   1.232
 6358SOL    HW219962   4.166   3.396   1.336
 6359SOL     OW19963   4.136   2.605   1.604
 6359SOL    HW119964   4.195   2.650   1.544
 6359SOL    HW219965   4.178   2.521   1.621
 6360SOL     OW19966   4.231   1.914   1.734
 6360SOL    HW119967   4.186   1.854   1.675
 6360SOL    HW219968   4.165   1.981   1.755
 6361SOL     OW19969   4.291   2.750   1.026
 6361SOL    HW119970   4.322   2.839   1.040
 6361SOL    HW219971   4.243   2.728   1.106
 6362SOL     OW19972   4.025   2.063   1.247
 6362SOL    HW119973   3.986   2.095   1.328
 6362SOL    HW219974   4.005   1.969   1.246
 6363SOL     OW19975   3.769   3.172   1.277
 6363SOL    HW119976   3.803   3.118   1.349
 6363SOL    HW219977   3.777   3.262   1.309
 6364SOL     OW19978   4.021   1.929   0.625
 6364SOL    HW119979   4.006   2.020   0.650
 6364SOL    HW219980   4.031   1.883   0.709
 6365SOL     OW19981   4.076   2.777   1.808
 6365SOL    HW119982   4.158   2.793   1.854
 6365SOL    HW219983   4.099   2.714   1.740
 6366SOL     OW19984   4.031   2.671   0.946
 6366SOL    HW119985   4.123   2.698   0.946
 6366SOL    HW219986   4.033   2.581   0.979
 6367SOL     OW19987   4.063   2.388   1.009
 6367SOL    HW119988   4.026   2.300   0.993
 6367SOL    HW219989   4.141   2.391   0.954
 6368SOL     OW19990   3.731   3.190   0.195
 6368SOL    HW119991   3.644   3.201   0.157
 6368SOL    HW219992   3.732   3.099   0.225
 6369SOL     OW19993   3.816   3.651   0.938
 6369SOL    HW119994   3.785   3.571   0.894
 6369SOL    HW219995   3.905   3.663   0.906
 6370SOL     OW19996   4.232   3.444   0.906
 6370SOL    HW119997   4.317   3.478   0.932
 6370SOL    HW219998   4.253   3.373   0.845
 6371SOL     OW19999   3.759   2.406   1.116
 6371SOL    HW120000   3.839   2.388   1.066
 6371SOL    HW220001   3.788   2.410   1.207
 6372SOL     OW20002   3.915   2.380   1.727
 6372SOL    HW120003   3.972   2.344   1.659
 6372SOL    HW220004   3.869   2.452   1.683
 6373SOL     OW20005   0.030   2.412   0.268
 6373SOL    HW120006   0.018   2.346   0.336
 6373SOL    HW220007   4.465   2.479   0.288
 6374SOL     OW20008   3.971   3.415   1.729
 6374SOL    HW120009   3.944   3.479   1.795
 6374SOL    HW220010   3.968   3.331   1.774
 6375SOL     OW20011   4.189   2.352   0.179
 6375SOL    HW120012   4.246   2.424   0.206
 6375SOL    HW220013   4.103   2.391   0.172
 6376SOL     OW20014   3.871   3.002   1.472
 6376SOL    HW120015   3.874   2.949   1.551
 6376SOL    HW220016   3.887   2.939   1.401
 6377SOL     OW20017   3.808   3.130   1.013
 6377SOL    HW120018   3.793   3.140   1.108
 6377SOL    HW220019   3.736   3.074   0.984
 6378SOL     OW20020   4.389   3.514   1.702
 6378SOL    HW120021   4.356   3.600   1.726
 6378SOL    HW220022   4.438   3.528   1.621
 6379SOL     OW20023   3.860   3.658   1.843
 6379SOL    HW120024   3.809   3.594   1.892
 6379SOL    HW220025   3.907   3.708   1.910
 6380SOL     OW20026   3.987   2.182   0.717
 6380SOL    HW120027   3.900   2.215   0.694
 6380SOL    HW220028   3.985   2.171   0.811
 6381SOL     OW20029   4.089   3.168   1.491
 6381SOL    HW120030   4.071   3.244   1.436
 6381SOL    HW220031   4.016   3.108   1.474
 6382SOL     OW20032   4.324   3.352   0.482
 6382SOL    HW120033   4.344   3.296   0.407
 6382SOL    HW220034   4.258   3.413   0.449
 6383SOL     OW20035   3.990   3.205   0.287
 6383SOL    HW120036   3.901   3.205   0.251
 6383SOL    HW220037   3.980   3.243   0.374
 6384SOL     OW20038   3.836   2.883   1.719
 6384SOL    HW120039   3.759   2.859   1.772
 6384SOL    HW220040   3.910   2.845   1.767
 6385SOL     OW20041   4.391   2.068   1.494
 6385SOL    HW120042   4.479   2.063   1.456
 6385SOL    HW220043   4.404   2.057   1.588
 6386SOL     OW20044   3.807   2.208   0.048
 6386SOL    HW120045   3.730   2.172   0.006
 6386SOL    HW220046   3.824   2.290   0.001
 6387SOL     OW20047   3.791   2.021   0.315
 6387SOL    HW120048   3.782   2.102   0.265
 6387SOL    HW220049   3.874   1.984   0.284
 6388SOL     OW20050   4.337   2.701   1.434
 6388SOL    HW120051   4.382   2.785   1.420
 6388SOL    HW220052   4.407   2.638   1.446
 6389SOL     OW20053   4.400   2.418   1.737
 6389SOL    HW120054   4.424   2.496   1.788
 6389SOL    HW220055   4.484   2.381   1.709
 6390SOL     OW20056   4.108   3.601   1.560
 6390SOL    HW120057   4.022   3.641   1.548
 6390SOL    HW220058   4.090   3.519   1.606
 6391SOL     OW20059   4.310   2.593   0.665
 6391SOL    HW120060   4.352   2.679   0.655
 6391SOL    HW220061   4.239   2.593   0.601
 6392SOL     OW20062   3.944   3.169   1.855
 6392SOL    HW120063   3.878   3.105   1.827
 6392SOL    HW220064   3.929   3.180   1.949
 6393SOL     OW20065   3.807   3.096   0.665
 6393SOL    HW120066   3.812   3.047   0.747
 6393SOL    HW220067   3.878   3.060   0.612
 6394SOL     OW20068   4.414   3.249   1.655
 6394SOL    HW120069   4.325   3.215   1.654
 6394SOL    HW220070   4.404   3.342   1.671
 6395SOL     OW20071   4.160   2.295   0.531
 6395SOL    HW120072   4.181   2.225   0.469
 6395SOL    HW220073   4.105   2.253   0.597
 6396SOL     OW20074   4.052   2.414   1.289
 6396SOL    HW120075   4.106   2.358   1.344
 6396SOL    HW220076   4.073   2.388   1.199
 6397SOL     OW20077   0.036   3.458   0.686
 6397SOL    HW120078   0.061   3.516   0.614
 6397SOL    HW220079   4.464   3.406   0.650
 6398SOL     OW20080   3.766   2.933   0.300
 6398SOL    HW120081   3.862   2.927   0.296
 6398SOL    HW220082   3.738   2.846   0.327
 6399SOL     OW20083   3.955   2.485   1.984
 6399SOL    HW120084   3.865   2.485   2.018
 6399SOL    HW220085   3.946   2.459   1.892
 6400SOL     OW20086   3.947   2.145   2.853
 6400SOL    HW120087   3.979   2.110   2.936
 6400SOL    HW220088   3.858   2.111   2.845
 6401SOL     OW20089   3.729   2.244   2.500
 6401SOL    HW120090   3.646   2.269   2.541
 6401SOL    HW220091   3.709   2.164   2.452
 6402SOL     OW20092   4.268   3.111   3.008
 6402SOL    HW120093   4.195   3.168   2.985
 6402SOL    HW220094   4.331   3.168   3.052
 6403SOL     OW20095   0.021   2.644   3.719
 6403SOL    HW120096   0.072   2.690   3.786
 6403SOL    HW220097   0.065   2.666   3.636
 6404SOL     OW20098   4.398   2.856   2.502
 6404SOL    HW120099   4.471   2.849   2.564
 6404SOL    HW220100   4.335   2.914   2.545
 6405SOL     OW20101   4.419   3.023   3.676
 6405SOL    HW120102   4.461   3.104   3.647
 6405SOL    HW220103   4.327   3.033   3.649
 6406SOL     OW20104   4.060   3.295   2.931
 6406SOL    HW120105   3.987   3.253   2.884
 6406SOL    HW220106   4.107   3.343   2.863
 6407SOL     OW20107   4.171   2.261   3.348
 6407SOL    HW120108   4.245   2.201   3.352
 6407SOL    HW220109   4.094   2.206   3.362
 6408SOL     OW20110   3.943   3.575   2.336
 6408SOL    HW120111   3.965   3.652   2.389
 6408SOL    HW220112   4.015   3.568   2.275
 6409SOL     OW20113   3.953   3.302   2.396
 6409SOL    HW120114   3.936   3.396   2.402
 6409SOL    HW220115   3.893   3.262   2.459
 6410SOL     OW20116   3.974   2.950   2.748
 6410SOL    HW120117   3.978   2.866   2.793
 6410SOL    HW220118   3.921   3.006   2.806
 6411SOL     OW20119   4.360   3.659   3.314
 6411SOL    HW120120   4.274   3.626   3.339
 6411SOL    HW220121   4.351   3.755   3.316
 6412SOL     OW20122   4.310   2.847   2.000
 6412SOL    HW120123   4.339   2.900   1.925
 6412SOL    HW220124   4.378   2.859   2.066
 6413SOL     OW20125   3.839   2.513   2.422
 6413SOL    HW120126   3.808   2.425   2.443
 6413SOL    HW220127   3.831   2.562   2.503
 6414SOL     OW20128   3.755   3.458   1.986
 6414SOL    HW120129   3.737   3.366   2.006
 6414SOL    HW220130   3.730   3.505   2.066
 6415SOL     OW20131   3.845   2.604   3.449
 6415SOL    HW120132   3.938   2.626   3.461
 6415SOL    HW220133   3.799   2.687   3.455
 6416SOL     OW20134   4.312   3.248   2.599
 6416SOL    HW120135   4.276   3.160   2.603
 6416SOL    HW220136   4.312   3.270   2.506
 6417SOL     OW20137   0.022   1.870   2.388
 6417SOL    HW120138   0.054   1.932   2.323
 6417SOL    HW220139   4.427   1.883   2.391
 6418SOL     OW20140   3.913   2.829   3.132
 6418SOL    HW120141   3.998   2.789   3.115
 6418SOL    HW220142   3.851   2.773   3.086
 6419SOL     OW20143   4.056   2.113   3.670
 6419SOL    HW120144   4.101   2.195   3.686
 6419SOL    HW220145   3.967   2.127   3.703
 6420SOL     OW20146   4.312   2.590   2.131
 6420SOL    HW120147   4.311   2.666   2.073
 6420SOL    HW220148   4.243   2.609   2.196
 6421SOL     OW20149   3.812   2.683   2.637
 6421SOL    HW120150   3.894   2.674   2.687
 6421SOL    HW220151   3.771   2.762   2.672
 6422SOL     OW20152   3.853   3.703   3.438
 6422SOL    HW120153   3.852   3.684   3.532
 6422SOL    HW220154   3.761   3.704   3.412
 6423SOL     OW20155   4.253   2.054   2.743
 6423SOL    HW120156   4.272   2.059   2.836
 6423SOL    HW220157   4.264   2.143   2.710
 6424SOL     OW20158   4.082   3.672   2.723
 6424SOL    HW120159   4.130   3.590   2.730
 6424SOL    HW220160   4.147   3.741   2.734
 6425SOL     OW20161   4.044   2.819   2.111
 6425SOL    HW120162   4.127   2.838   2.066
 6425SOL    HW220163   4.014   2.737   2.073
 6426SOL     OW20164   4.178   3.115   3.597
 6426SOL    HW120165   4.151   3.126   3.506
 6426SOL    HW220166   4.098   3.125   3.647
 6427SOL     OW20167   3.924   2.145   3.363
 6427SOL    HW120168   3.842   2.194   3.356
 6427SOL    HW220169   3.907   2.079   3.430
 6428SOL     OW20170   4.193   3.597   2.187
 6428SOL    HW120171   4.224   3.657   2.255
 6428SOL    HW220172   4.262   3.598   2.121
 6429SOL     OW20173   3.978   3.655   3.095
 6429SOL    HW120174   4.027   3.586   3.141
 6429SOL    HW220175   3.966   3.620   3.007
 6430SOL     OW20176   4.111   2.556   2.336
 6430SOL    HW120177   4.137   2.465   2.349
 6430SOL    HW220178   4.017   2.558   2.357
 6431SOL     OW20179   4.340   1.973   1.979
 6431SOL    HW120180   4.435   1.957   1.979
 6431SOL    HW220181   4.312   1.950   1.891
 6432SOL     OW20182   0.018   3.286   2.776
 6432SOL    HW120183   0.086   3.322   2.719
 6432SOL    HW220184   4.445   3.269   2.717
 6433SOL     OW20185   4.261   1.926   2.364
 6433SOL    HW120186   4.182   1.931   2.418
 6433SOL    HW220187   4.257   2.005   2.309
 6434SOL     OW20188   4.018   1.910   2.046
 6434SOL    HW120189   4.078   1.974   2.009
 6434SOL    HW220190   4.074   1.845   2.089
 6435SOL     OW20191   0.323   2.538   3.311
 6435SOL    HW120192   0.250   2.475   3.306
 6435SOL    HW220193   0.402   2.483   3.305
 6436SOL     OW20194   4.189   3.007   2.597
 6436SOL    HW120195   4.120   2.988   2.660
 6436SOL    HW220196   4.149   2.989   2.511
 6437SOL     OW20197   3.802   2.417   3.253
 6437SOL    HW120198   3.893   2.415   3.226
 6437SOL    HW220199   3.798   2.487   3.318
 6438SOL     OW20200   4.284   2.074   3.011
 6438SOL    HW120201   4.325   2.006   3.063
 6438SOL    HW220202   4.197   2.085   3.050
 6439SOL     OW20203   4.230   3.249   2.034
 6439SOL    HW120204   4.146   3.234   2.077
 6439SOL    HW220205   4.208   3.265   1.943
 6440SOL     OW20206   4.246   2.128   2.184
 6440SOL    HW120207   4.287   2.073   2.117
 6440SOL    HW220208   4.227   2.210   2.140
 6441SOL     OW20209   4.139   2.674   3.112
 6441SOL    HW120210   4.206   2.685   3.179
 6441SOL    HW220211   4.105   2.586   3.126
 6442SOL     OW20212   3.793   3.435   3.213
 6442SOL    HW120213   3.760   3.507   3.159
 6442SOL    HW220214   3.888   3.442   3.208
 6443SOL     OW20215   4.073   2.970   2.353
 6443SOL    HW120216   4.076   3.042   2.290
 6443SOL    HW220217   4.072   2.891   2.298
 6444SOL     OW20218   4.298   2.401   2.726
 6444SOL    HW120219   4.300   2.467   2.656
 6444SOL    HW220220   4.363   2.431   2.790
 6445SOL     OW20221   4.072   3.394   3.179
 6445SOL    HW120222   4.066   3.350   3.094
 6445SOL    HW220223   4.166   3.396   3.198
 6446SOL     OW20224   4.136   2.605   3.466
 6446SOL    HW120225   4.195   2.650   3.406
 6446SOL    HW220226   4.178   2.521   3.483
 6447SOL     OW20227   4.231   1.914   3.596
 6447SOL    HW120228   4.186   1.853   3.537
 6447SOL    HW220229   4.165   1.981   3.617
 6448SOL     OW20230   4.291   2.750   2.888
 6448SOL    HW120231   4.323   2.839   2.903
 6448SOL    HW220232   4.243   2.728   2.968
 6449SOL     OW20233   4.025   2.063   3.109
 6449SOL    HW120234   3.986   2.095   3.190
 6449SOL    HW220235   4.005   1.969   3.108
 6450SOL     OW20236   3.769   3.172   3.139
 6450SOL    HW120237   3.803   3.118   3.211
 6450SOL    HW220238   3.777   3.262   3.171
 6451SOL     OW20239   4.020   1.928   2.487
 6451SOL    HW120240   4.005   2.020   2.512
 6451SOL    HW220241   4.031   1.883   2.570
 6452SOL     OW20242   4.076   2.777   3.670
 6452SOL    HW120243   4.158   2.793   3.716
 6452SOL    HW220244   4.099   2.714   3.602
 6453SOL     OW20245   4.031   2.671   2.808
 6453SOL    HW120246   4.123   2.698   2.808
 6453SOL    HW220247   4.033   2.581   2.841
 6454SOL     OW20248   4.062   2.388   2.871
 6454SOL    HW120249   4.026   2.300   2.855
 6454SOL    HW220250   4.141   2.391   2.816
 6455SOL     OW20251   3.729   3.184   2.057
 6455SOL    HW120252   3.642   3.198   2.020
 6455SOL    HW220253   3.727   3.094   2.091
 6456SOL     OW20254   3.816   3.650   2.800
 6456SOL    HW120255   3.785   3.571   2.756
 6456SOL    HW220256   3.905   3.663   2.768
 6457SOL     OW20257   4.232   3.444   2.767
 6457SOL    HW120258   4.317   3.478   2.795
 6457SOL    HW220259   4.253   3.372   2.707
 6458SOL     OW20260   3.759   2.406   2.978
 6458SOL    HW120261   3.839   2.388   2.928
 6458SOL    HW220262   3.788   2.410   3.069
 6459SOL     OW20263   3.915   2.380   3.589
 6459SOL    HW120264   3.972   2.343   3.521
 6459SOL    HW220265   3.869   2.452   3.545
 6460SOL     OW20266   0.033   2.419   2.127
 6460SOL    HW120267   0.020   2.345   2.186
 6460SOL    HW220268   4.465   2.482   2.150
 6461SOL     OW20269   3.971   3.415   3.591
 6461SOL    HW120270   3.944   3.479   3.657
 6461SOL    HW220271   3.968   3.331   3.636
 6462SOL     OW20272   4.191   2.355   2.051
 6462SOL    HW120273   4.249   2.429   2.070
 6462SOL    HW220274   4.105   2.395   2.037
 6463SOL     OW20275   3.871   3.002   3.334
 6463SOL    HW120276   3.874   2.949   3.413
 6463SOL    HW220277   3.887   2.939   3.263
 6464SOL     OW20278   3.808   3.130   2.875
 6464SOL    HW120279   3.793   3.140   2.969
 6464SOL    HW220280   3.736   3.074   2.845
 6465SOL     OW20281   4.389   3.513   3.564
 6465SOL    HW120282   4.356   3.600   3.588
 6465SOL    HW220283   4.438   3.529   3.483
 6466SOL     OW20284   3.860   3.658   3.705
 6466SOL    HW120285   3.809   3.594   3.754
 6466SOL    HW220286   3.907   3.708   3.772
 6467SOL     OW20287   3.987   2.182   2.578
 6467SOL    HW120288   3.900   2.216   2.556
 6467SOL    HW220289   3.985   2.171   2.673
 6468SOL     OW20290   4.089   3.167   3.353
 6468SOL    HW120291   4.071   3.244   3.298
 6468SOL    HW220292   4.016   3.108   3.336
 6469SOL     OW20293   4.325   3.352   2.343
 6469SOL    HW120294   4.343   3.293   2.270
 6469SOL    HW220295   4.260   3.414   2.309
 6470SOL     OW20296   3.983   3.212   2.147
 6470SOL    HW120297   3.890   3.208   2.126
 6470SOL    HW220298   3.986   3.247   2.236
 6471SOL     OW20299   3.836   2.883   3.581
 6471SOL    HW120300   3.759   2.859   3.634
 6471SOL    HW220301   3.910   2.845   3.629
 6472SOL     OW20302   4.391   2.068   3.356
 6472SOL    HW120303   4.479   2.063   3.318
 6472SOL    HW220304   4.404   2.056   3.450
 6473SOL     OW20305   3.802   2.197   1.898
 6473SOL    HW120306   3.714   2.177   1.864
 6473SOL    HW220307   3.831   2.271   1.845
 6474SOL     OW20308   3.794   2.019   2.174
 6474SOL    HW120309   3.778   2.099   2.123
 6474SOL    HW220310   3.879   1.987   2.144
 6475SOL     OW20311   4.337   2.701   3.296
 6475SOL    HW120312   4.382   2.785   3.282
 6475SOL    HW220313   4.407   2.638   3.308
 6476SOL     OW20314   4.400   2.418   3.598
 6476SOL    HW120315   4.424   2.496   3.650
 6476SOL    HW220316   4.484   2.381   3.571
 6477SOL     OW20317   4.108   3.601   3.422
 6477SOL    HW120318   4.022   3.641   3.410
 6477SOL    HW220319   4.090   3.519   3.468
 6478SOL     OW20320   4.309   2.594   2.528
 6478SOL    HW120321   4.352   2.679   2.516
 6478SOL    HW220322   4.240   2.593   2.462
 6479SOL     OW20323   3.944   3.169   3.717
 6479SOL    HW120324   3.878   3.105   3.689
 6479SOL    HW220325   3.929   3.179   3.811
 6480SOL     OW20326   3.808   3.096   2.526
 6480SOL    HW120327   3.811   3.047   2.609
 6480SOL    HW220328   3.877   3.058   2.473
 6481SOL     OW20329   4.414   3.249   3.517
 6481SOL    HW120330   4.325   3.215   3.516
 6481SOL    HW220331   4.404   3.342   3.533
 6482SOL     OW20332   4.162   2.295   2.394
 6482SOL    HW120333   4.180   2.226   2.329
 6482SOL    HW220334   4.106   2.253   2.459
 6483SOL     OW20335   4.052   2.415   3.151
 6483SOL    HW120336   4.106   2.358   3.206
 6483SOL    HW220337   4.073   2.388   3.061
 6484SOL     OW20338   0.037   3.458   2.547
 6484SOL    HW120339   0.058   3.518   2.475
 6484SOL    HW220340   4.465   3.405   2.514
 6485SOL     OW20341   3.768   2.934   2.167
 6485SOL    HW120342   3.861   2.924   2.150
 6485SOL    HW220343   3.738   2.846   2.190
 6486SOL     OW20344   3.955   2.486   3.846
 6486SOL    HW120345   3.865   2.485   3.879
 6486SOL    HW220346   3.947   2.459   3.754
 6487SOL     OW20347   3.948   2.145   4.715
 6487SOL    HW120348   3.980   2.111   4.799
 6487SOL    HW220349   3.860   2.111   4.706
 6488SOL     OW20350   3.729   2.244   4.362
 6488SOL    HW120351   3.646   2.266   4.404
 6488SOL    HW220352   3.710   2.164   4.313
 6489SOL     OW20353   4.269   3.111   4.869
 6489SOL    HW120354   4.195   3.168   4.848
 6489SOL    HW220355   4.331   3.168   4.914
 6490SOL     OW20356   0.022   2.643   5.581
 6490SOL    HW120357   0.071   2.691   5.648
 6490SOL    HW220358   0.065   2.667   5.498
 6491SOL     OW20359   4.398   2.856   4.364
 6491SOL    HW120360   4.471   2.849   4.426
 6491SOL    HW220361   4.335   2.914   4.407
 6492SOL     OW20362   4.419   3.023   5.537
 6492SOL    HW120363   4.461   3.104   5.509
 6492SOL    HW220364   4.327   3.033   5.511
 6493SOL     OW20365   4.060   3.295   4.793
 6493SOL    HW120366   3.987   3.253   4.746
 6493SOL    HW220367   4.107   3.343   4.725
 6494SOL     OW20368   4.171   2.261   5.210
 6494SOL    HW120369   4.244   2.200   5.214
 6494SOL    HW220370   4.093   2.206   5.224
 6495SOL     OW20371   3.943   3.575   4.198
 6495SOL    HW120372   3.965   3.652   4.251
 6495SOL    HW220373   4.015   3.568   4.136
 6496SOL     OW20374   3.953   3.302   4.258
 6496SOL    HW120375   3.936   3.396   4.264
 6496SOL    HW220376   3.893   3.263   4.321
 6497SOL     OW20377   3.973   2.950   4.610
 6497SOL    HW120378   3.979   2.866   4.655
 6497SOL    HW220379   3.922   3.006   4.669
 6498SOL     OW20380   4.360   3.659   5.176
 6498SOL    HW120381   4.274   3.626   5.201
 6498SOL    HW220382   4.351   3.755   5.178
 6499SOL     OW20383   4.310   2.847   3.862
 6499SOL    HW120384   4.339   2.900   3.787
 6499SOL    HW220385   4.378   2.859   3.928
 6500SOL     OW20386   3.839   2.513   4.283
 6500SOL    HW120387   3.809   2.425   4.305
 6500SOL    HW220388   3.831   2.562   4.366
 6501SOL     OW20389   3.754   3.458   3.848
 6501SOL    HW120390   3.737   3.366   3.868
 6501SOL    HW220391   3.730   3.505   3.928
 6502SOL     OW20392   3.845   2.603   5.310
 6502SOL    HW120393   3.937   2.627   5.323
 6502SOL    HW220394   3.798   2.686   5.316
 6503SOL     OW20395   4.312   3.248   4.461
 6503SOL    HW120396   4.276   3.160   4.465
 6503SOL    HW220397   4.312   3.270   4.368
 6504SOL     OW20398   0.022   1.870   4.250
 6504SOL    HW120399   0.053   1.933   4.185
 6504SOL    HW220400   4.427   1.883   4.253
 6505SOL     OW20401   3.914   2.830   4.993
 6505SOL    HW120402   3.999   2.789   4.976
 6505SOL    HW220403   3.850   2.772   4.950
 6506SOL     OW20404   4.056   2.112   5.533
 6506SOL    HW120405   4.100   2.196   5.548
 6506SOL    HW220406   3.967   2.127   5.565
 6507SOL     OW20407   4.312   2.590   3.993
 6507SOL    HW120408   4.311   2.666   3.935
 6507SOL    HW220409   4.244   2.609   4.058
 6508SOL     OW20410   3.811   2.683   4.500
 6508SOL    HW120411   3.893   2.674   4.549
 6508SOL    HW220412   3.771   2.762   4.535
 6509SOL     OW20413   3.853   3.703   5.300
 6509SOL    HW120414   3.852   3.684   5.394
 6509SOL    HW220415   3.761   3.703   5.274
 6510SOL     OW20416   4.254   2.054   4.605
 6510SOL    HW120417   4.272   2.059   4.698
 6510SOL    HW220418   4.264   2.144   4.573
 6511SOL     OW20419   4.082   3.672   4.585
 6511SOL    HW120420   4.130   3.590   4.592
 6511SOL    HW220421   4.147   3.741   4.596
 6512SOL     OW20422   4.044   2.819   3.973
 6512SOL    HW120423   4.127   2.838   3.928
 6512SOL    HW220424   4.014   2.737   3.935
 6513SOL     OW20425   4.178   3.115   5.459
 6513SOL    HW120426   4.151   3.126   5.368
 6513SOL    HW220427   4.098   3.125   5.509
 6514SOL     OW20428   3.924   2.146   5.226
 6514SOL    HW120429   3.841   2.193   5.217
 6514SOL    HW220430   3.906   2.078   5.291
 6515SOL     OW20431   4.193   3.597   4.050
 6515SOL    HW120432   4.224   3.657   4.117
 6515SOL    HW220433   4.262   3.598   3.983
 6516SOL     OW20434   3.978   3.655   4.957
 6516SOL    HW120435   4.027   3.587   5.004
 6516SOL    HW220436   3.966   3.620   4.869
 6517SOL     OW20437   4.111   2.556   4.198
 6517SOL    HW120438   4.137   2.465   4.211
 6517SOL    HW220439   4.017   2.558   4.219
 6518SOL     OW20440   4.340   1.974   3.841
 6518SOL    HW120441   4.435   1.957   3.841
 6518SOL    HW220442   4.312   1.950   3.753
 6519SOL     OW20443   0.019   3.286   4.638
 6519SOL    HW120444   0.086   3.322   4.581
 6519SOL    HW220445   4.445   3.269   4.580
 6520SOL     OW20446   4.261   1.926   4.226
 6520SOL    HW120447   4.182   1.931   4.280
 6520SOL    HW220448   4.257   2.005   4.171
 6521SOL     OW20449   4.017   1.910   3.908
 6521SOL    HW120450   4.079   1.974   3.871
 6521SOL    HW220451   4.073   1.845   3.951
 6522SOL     OW20452   0.324   2.537   5.175
 6522SOL    HW120453   0.250   2.477   5.169
 6522SOL    HW220454   0.401   2.480   5.165
 6523SOL     OW20455   4.189   3.007   4.459
 6523SOL    HW120456   4.120   2.988   4.522
 6523SOL    HW220457   4.149   2.989   4.373
 6524SOL     OW20458   3.802   2.418   5.114
 6524SOL    HW120459   3.894   2.416   5.087
 6524SOL    HW220460   3.797   2.487   5.180
 6525SOL     OW20461   4.284   2.075   4.873
 6525SOL    HW120462   4.325   2.005   4.925
 6525SOL    HW220463   4.197   2.085   4.912
 6526SOL     OW20464   4.230   3.248   3.896
 6526SOL    HW120465   4.146   3.234   3.939
 6526SOL    HW220466   4.208   3.265   3.805
 6527SOL     OW20467   4.246   2.128   4.046
 6527SOL    HW120468   4.287   2.073   3.979
 6527SOL    HW220469   4.227   2.210   4.002
 6528SOL     OW20470   4.139   2.674   4.974
 6528SOL    HW120471   4.206   2.685   5.041
 6528SOL    HW220472   4.105   2.586   4.988
 6529SOL     OW20473   3.793   3.434   5.075
 6529SOL    HW120474   3.760   3.507   5.022
 6529SOL    HW220475   3.888   3.441   5.070
 6530SOL     OW20476   4.073   2.970   4.215
 6530SOL    HW120477   4.076   3.042   4.152
 6530SOL    HW220478   4.072   2.891   4.160
 6531SOL     OW20479   4.299   2.401   4.587
 6531SOL    HW120480   4.300   2.467   4.518
 6531SOL    HW220481   4.363   2.431   4.652
 6532SOL     OW20482   4.072   3.394   5.041
 6532SOL    HW120483   4.066   3.350   4.956
 6532SOL    HW220484   4.166   3.396   5.060
 6533SOL     OW20485   4.136   2.605   5.328
 6533SOL    HW120486   4.196   2.650   5.268
 6533SOL    HW220487   4.177   2.521   5.345
 6534SOL     OW20488   4.231   1.914   5.458
 6534SOL    HW120489   4.186   1.854   5.399
 6534SOL    HW220490   4.165   1.981   5.479
 6535SOL     OW20491   4.291   2.750   4.750
 6535SOL    HW120492   4.322   2.839   4.765
 6535SOL    HW220493   4.243   2.728   4.830
 6536SOL     OW20494   4.025   2.063   4.971
 6536SOL    HW120495   3.986   2.095   5.052
 6536SOL    HW220496   4.006   1.970   4.970
 6537SOL     OW20497   3.770   3.172   5.001
 6537SOL    HW120498   3.803   3.118   5.073
 6537SOL    HW220499   3.777   3.262   5.034
 6538SOL     OW20500   4.020   1.929   4.349
 6538SOL    HW120501   4.005   2.020   4.374
 6538SOL    HW220502   4.031   1.882   4.432
 6539SOL     OW20503   4.076   2.777   5.532
 6539SOL    HW120504   4.158   2.793   5.579
 6539SOL    HW220505   4.098   2.714   5.464
 6540SOL     OW20506   4.031   2.671   4.670
 6540SOL    HW120507   4.123   2.698   4.670
 6540SOL    HW220508   4.033   2.581   4.703
 6541SOL     OW20509   4.062   2.388   4.732
 6541SOL    HW120510   4.026   2.300   4.717
 6541SOL    HW220511   4.141   2.391   4.678
 6542SOL     OW20512   3.729   3.184   3.920
 6542SOL    HW120513   3.642   3.198   3.882
 6542SOL    HW220514   3.727   3.094   3.953
 6543SOL     OW20515   3.816   3.650   4.662
 6543SOL    HW120516   3.786   3.571   4.618
 6543SOL    HW220517   3.905   3.663   4.630
 6544SOL     OW20518   4.232   3.444   4.629
 6544SOL    HW120519   4.317   3.478   4.657
 6544SOL    HW220520   4.253   3.372   4.570
 6545SOL     OW20521   3.759   2.405   4.840
 6545SOL    HW120522   3.840   2.388   4.791
 6545SOL    HW220523   3.787   2.410   4.931
 6546SOL     OW20524   3.915   2.380   5.451
 6546SOL    HW120525   3.970   2.342   5.382
 6546SOL    HW220526   3.869   2.452   5.408
 6547SOL     OW20527   0.033   2.419   3.989
 6547SOL    HW120528   0.020   2.345   4.048
 6547SOL    HW220529   4.465   2.482   4.012
 6548SOL     OW20530   3.971   3.415   5.453
 6548SOL    HW120531   3.944   3.479   5.519
 6548SOL    HW220532   3.968   3.331   5.498
 6549SOL     OW20533   4.191   2.355   3.913
 6549SOL    HW120534   4.249   2.428   3.932
 6549SOL    HW220535   4.105   2.395   3.899
 6550SOL     OW20536   3.872   3.002   5.195
 6550SOL    HW120537   3.874   2.948   5.275
 6550SOL    HW220538   3.888   2.939   5.125
 6551SOL     OW20539   3.808   3.131   4.737
 6551SOL    HW120540   3.794   3.141   4.831
 6551SOL    HW220541   3.737   3.074   4.708
 6552SOL     OW20542   4.389   3.514   5.426
 6552SOL    HW120543   4.356   3.600   5.450
 6552SOL    HW220544   4.438   3.529   5.345
 6553SOL     OW20545   3.860   3.658   5.567
 6553SOL    HW120546   3.809   3.594   5.616
 6553SOL    HW220547   3.907   3.708   5.634
 6554SOL     OW20548   3.987   2.182   4.440
 6554SOL    HW120549   3.900   2.216   4.419
 6554SOL    HW220550   3.986   2.171   4.535
 6555SOL     OW20551   4.089   3.167   5.214
 6555SOL    HW120552   4.070   3.244   5.160
 6555SOL    HW220553   4.016   3.108   5.199
 6556SOL     OW20554   4.325   3.352   4.205
 6556SOL    HW120555   4.343   3.293   4.132
 6556SOL    HW220556   4.260   3.414   4.170
 6557SOL     OW20557   3.983   3.212   4.009
 6557SOL    HW120558   3.890   3.208   3.987
 6557SOL    HW220559   3.986   3.247   4.098
 6558SOL     OW20560   3.836   2.884   5.444
 6558SOL    HW120561   3.759   2.860   5.496
 6558SOL    HW220562   3.910   2.846   5.491
 6559SOL     OW20563   4.391   2.068   5.218
 6559SOL    HW120564   4.479   2.062   5.180
 6559SOL    HW220565   4.404   2.056   5.312
 6560SOL     OW20566   3.802   2.197   3.760
 6560SOL    HW120567   3.714   2.177   3.727
 6560SOL    HW220568   3.831   2.272   3.707
 6561SOL     OW20569   3.794   2.020   4.036
 6561SOL    HW120570   3.779   2.099   3.985
 6561SOL    HW220571   3.879   1.987   4.006
 6562SOL     OW20572   4.337   2.701   5.158
 6562SOL    HW120573   4.382   2.785   5.144
 6562SOL    HW220574   4.407   2.638   5.171
 6563SOL     OW20575   4.400   2.418   5.460
 6563SOL    HW120576   4.424   2.495   5.512
 6563SOL    HW220577   4.484   2.381   5.434
 6564SOL     OW20578   4.108   3.601   5.284
 6564SOL    HW120579   4.022   3.641   5.272
 6564SOL    HW220580   4.090   3.519   5.330
 6565SOL     OW20581   4.309   2.594   4.390
 6565SOL    HW120582   4.352   2.679   4.378
 6565SOL    HW220583   4.240   2.593   4.324
 6566SOL     OW20584   3.944   3.169   5.579
 6566SOL    HW120585   3.878   3.105   5.551
 6566SOL    HW220586   3.929   3.180   5.672
 6567SOL     OW20587   3.807   3.096   4.388
 6567SOL    HW120588   3.812   3.048   4.471
 6567SOL    HW220589   3.877   3.058   4.334
 6568SOL     OW20590   4.414   3.249   5.379
 6568SOL    HW120591   4.325   3.215   5.378
 6568SOL    HW220592   4.404   3.343   5.395
 6569SOL     OW20593   4.162   2.295   4.255
 6569SOL    HW120594   4.180   2.226   4.191
 6569SOL    HW220595   4.106   2.253   4.321
 6570SOL     OW20596   4.053   2.415   5.013
 6570SOL    HW120597   4.106   2.358   5.069
 6570SOL    HW220598   4.074   2.387   4.924
 6571SOL     OW20599   0.037   3.458   4.409
 6571SOL    HW120600   0.058   3.518   4.337
 6571SOL    HW220601   4.465   3.405   4.376
 6572SOL     OW20602   3.767   2.934   4.029
 6572SOL    HW120603   3.861   2.925   4.012
 6572SOL    HW220604   3.738   2.846   4.052
 6573SOL     OW20605   3.955   2.485   5.708
 6573SOL    HW120606   3.865   2.485   5.741
 6573SOL    HW220607   3.947   2.459   5.616
 6574SOL     OW20608   3.947   2.145   6.577
 6574SOL    HW120609   3.978   2.110   6.660
 6574SOL    HW220610   3.858   2.111   6.569
 6575SOL     OW20611   3.731   2.243   6.223
 6575SOL    HW120612   3.650   2.268   6.266
 6575SOL    HW220613   3.709   2.163   6.175
 6576SOL     OW20614   4.269   3.111   6.731
 6576SOL    HW120615   4.195   3.168   6.710
 6576SOL    HW220616   4.331   3.168   6.776
 6577SOL     OW20617   0.022   2.644   7.443
 6577SOL    HW120618   0.072   2.690   7.510
 6577SOL    HW220619   0.065   2.666   7.360
 6578SOL     OW20620   4.399   2.857   6.225
 6578SOL    HW120621   4.471   2.849   6.288
 6578SOL    HW220622   4.335   2.914   6.268
 6579SOL     OW20623   4.419   3.023   7.400
 6579SOL    HW120624   4.461   3.104   7.371
 6579SOL    HW220625   4.327   3.033   7.373
 6580SOL     OW20626   4.059   3.295   6.655
 6580SOL    HW120627   3.987   3.253   6.608
 6580SOL    HW220628   4.107   3.343   6.587
 6581SOL     OW20629   4.171   2.261   7.072
 6581SOL    HW120630   4.245   2.201   7.076
 6581SOL    HW220631   4.094   2.206   7.086
 6582SOL     OW20632   3.943   3.576   6.060
 6582SOL    HW120633   3.965   3.652   6.113
 6582SOL    HW220634   4.015   3.568   5.999
 6583SOL     OW20635   3.954   3.302   6.120
 6583SOL    HW120636   3.936   3.396   6.126
 6583SOL    HW220637   3.894   3.262   6.182
 6584SOL     OW20638   3.974   2.951   6.473
 6584SOL    HW120639   3.978   2.866   6.517
 6584SOL    HW220640   3.921   3.006   6.530
 6585SOL     OW20641   4.360   3.659   7.038
 6585SOL    HW120642   4.274   3.626   7.063
 6585SOL    HW220643   4.351   3.755   7.040
 6586SOL     OW20644   4.310   2.847   5.723
 6586SOL    HW120645   4.340   2.900   5.649
 6586SOL    HW220646   4.378   2.859   5.790
 6587SOL     OW20647   3.839   2.513   6.145
 6587SOL    HW120648   3.809   2.424   6.167
 6587SOL    HW220649   3.831   2.562   6.227
 6588SOL     OW20650   3.755   3.458   5.710
 6588SOL    HW120651   3.737   3.366   5.730
 6588SOL    HW220652   3.731   3.505   5.790
 6589SOL     OW20653   3.845   2.604   7.172
 6589SOL    HW120654   3.938   2.626   7.185
 6589SOL    HW220655   3.799   2.687   7.179
 6590SOL     OW20656   4.312   3.248   6.323
 6590SOL    HW120657   4.276   3.160   6.327
 6590SOL    HW220658   4.312   3.270   6.230
 6591SOL     OW20659   0.022   1.869   6.112
 6591SOL    HW120660   0.053   1.933   6.047
 6591SOL    HW220661   4.427   1.883   6.115
 6592SOL     OW20662   3.913   2.829   6.856
 6592SOL    HW120663   3.998   2.789   6.839
 6592SOL    HW220664   3.851   2.773   6.810
 6593SOL     OW20665   4.056   2.112   7.394
 6593SOL    HW120666   4.101   2.195   7.410
 6593SOL    HW220667   3.967   2.127   7.427
 6594SOL     OW20668   4.312   2.590   5.856
 6594SOL    HW120669   4.311   2.667   5.798
 6594SOL    HW220670   4.244   2.609   5.920
 6595SOL     OW20671   3.813   2.682   6.361
 6595SOL    HW120672   3.894   2.675   6.412
 6595SOL    HW220673   3.771   2.760   6.395
 6596SOL     OW20674   3.853   3.704   7.162
 6596SOL    HW120675   3.852   3.685   7.256
 6596SOL    HW220676   3.761   3.703   7.136
 6597SOL     OW20677   4.253   2.054   6.466
 6597SOL    HW120678   4.272   2.059   6.560
 6597SOL    HW220679   4.264   2.143   6.435
 6598SOL     OW20680   4.082   3.672   6.447
 6598SOL    HW120681   4.130   3.590   6.454
 6598SOL    HW220682   4.148   3.741   6.458
 6599SOL     OW20683   4.044   2.819   5.835
 6599SOL    HW120684   4.126   2.838   5.790
 6599SOL    HW220685   4.014   2.737   5.797
 6600SOL     OW20686   4.178   3.115   7.321
 6600SOL    HW120687   4.151   3.126   7.230
 6600SOL    HW220688   4.098   3.125   7.371
 6601SOL     OW20689   3.924   2.145   7.087
 6601SOL    HW120690   3.842   2.194   7.079
 6601SOL    HW220691   3.906   2.079   7.154
 6602SOL     OW20692   4.193   3.597   5.911
 6602SOL    HW120693   4.224   3.657   5.979
 6602SOL    HW220694   4.262   3.598   5.845
 6603SOL     OW20695   3.979   3.655   6.819
 6603SOL    HW120696   4.027   3.586   6.865
 6603SOL    HW220697   3.966   3.620   6.731
 6604SOL     OW20698   4.111   2.556   6.060
 6604SOL    HW120699   4.137   2.465   6.073
 6604SOL    HW220700   4.017   2.558   6.081
 6605SOL     OW20701   4.340   1.973   5.703
 6605SOL    HW120702   4.435   1.957   5.702
 6605SOL    HW220703   4.312   1.950   5.615
 6606SOL     OW20704   0.018   3.286   6.500
 6606SOL    HW120705   0.086   3.322   6.443
 6606SOL    HW220706   4.444   3.269   6.442
 6607SOL     OW20707   4.261   1.926   6.088
 6607SOL    HW120708   4.182   1.931   6.142
 6607SOL    HW220709   4.257   2.005   6.033
 6608SOL     OW20710   4.017   1.910   5.771
 6608SOL    HW120711   4.078   1.974   5.733
 6608SOL    HW220712   4.074   1.845   5.813
 6609SOL     OW20713   0.323   2.538   7.034
 6609SOL    HW120714   0.251   2.475   7.030
 6609SOL    HW220715   0.402   2.484   7.029
 6610SOL     OW20716   4.189   3.007   6.321
 6610SOL    HW120717   4.120   2.989   6.384
 6610SOL    HW220718   4.150   2.989   6.235
 6611SOL     OW20719   3.802   2.417   6.977
 6611SOL    HW120720   3.893   2.415   6.949
 6611SOL    HW220721   3.798   2.487   7.042
 6612SOL     OW20722   4.284   2.074   6.735
 6612SOL    HW120723   4.326   2.006   6.787
 6612SOL    HW220724   4.197   2.085   6.774
 6613SOL     OW20725   4.230   3.248   5.758
 6613SOL    HW120726   4.146   3.234   5.801
 6613SOL    HW220727   4.208   3.265   5.667
 6614SOL     OW20728   4.246   2.128   5.908
 6614SOL    HW120729   4.287   2.073   5.841
 6614SOL    HW220730   4.227   2.210   5.864
 6615SOL     OW20731   4.139   2.674   6.836
 6615SOL    HW120732   4.206   2.685   6.903
 6615SOL    HW220733   4.105   2.586   6.850
 6616SOL     OW20734   3.793   3.435   6.937
 6616SOL    HW120735   3.760   3.507   6.883
 6616SOL    HW220736   3.888   3.442   6.931
 6617SOL     OW20737   4.074   2.970   6.076
 6617SOL    HW120738   4.075   3.042   6.014
 6617SOL    HW220739   4.072   2.891   6.022
 6618SOL     OW20740   4.298   2.401   6.450
 6618SOL    HW120741   4.300   2.467   6.380
 6618SOL    HW220742   4.363   2.431   6.514
 6619SOL     OW20743   4.072   3.394   6.903
 6619SOL    HW120744   4.066   3.350   6.818
 6619SOL    HW220745   4.166   3.396   6.922
 6620SOL     OW20746   4.136   2.605   7.190
 6620SOL    HW120747   4.195   2.650   7.130
 6620SOL    HW220748   4.178   2.521   7.207
 6621SOL     OW20749   4.231   1.914   7.320
 6621SOL    HW120750   4.186   1.854   7.261
 6621SOL    HW220751   4.166   1.981   7.341
 6622SOL     OW20752   4.291   2.750   6.612
 6622SOL    HW120753   4.322   2.839   6.627
 6622SOL    HW220754   4.243   2.728   6.692
 6623SOL     OW20755   4.025   2.063   6.833
 6623SOL    HW120756   3.986   2.095   6.914
 6623SOL    HW220757   4.005   1.969   6.832
 6624SOL     OW20758   3.769   3.172   6.863
 6624SOL    HW120759   3.803   3.118   6.935
 6624SOL    HW220760   3.777   3.262   6.895
 6625SOL     OW20761   4.020   1.928   6.211
 6625SOL    HW120762   4.006   2.020   6.236
 6625SOL    HW220763   4.031   1.882   6.294
 6626SOL     OW20764   4.076   2.777   7.394
 6626SOL    HW120765   4.158   2.793   7.441
 6626SOL    HW220766   4.099   2.714   7.326
 6627SOL     OW20767   4.031   2.671   6.533
 6627SOL    HW120768   4.123   2.698   6.532
 6627SOL    HW220769   4.033   2.581   6.565
 6628SOL     OW20770   4.062   2.387   6.595
 6628SOL    HW120771   4.026   2.300   6.579
 6628SOL    HW220772   4.141   2.391   6.540
 6629SOL     OW20773   3.729   3.184   5.781
 6629SOL    HW120774   3.642   3.197   5.743
 6629SOL    HW220775   3.727   3.094   5.815
 6630SOL     OW20776   3.816   3.651   6.524
 6630SOL    HW120777   3.785   3.571   6.480
 6630SOL    HW220778   3.905   3.663   6.492
 6631SOL     OW20779   4.232   3.444   6.491
 6631SOL    HW120780   4.317   3.478   6.519
 6631SOL    HW220781   4.253   3.372   6.432
 6632SOL     OW20782   3.760   2.406   6.702
 6632SOL    HW120783   3.840   2.388   6.652
 6632SOL    HW220784   3.788   2.410   6.793
 6633SOL     OW20785   3.915   2.380   7.313
 6633SOL    HW120786   3.972   2.344   7.245
 6633SOL    HW220787   3.869   2.452   7.269
 6634SOL     OW20788   0.033   2.419   5.851
 6634SOL    HW120789   0.020   2.345   5.910
 6634SOL    HW220790   4.465   2.482   5.874
 6635SOL     OW20791   3.971   3.415   7.315
 6635SOL    HW120792   3.944   3.479   7.381
 6635SOL    HW220793   3.968   3.331   7.360
 6636SOL     OW20794   4.191   2.355   5.775
 6636SOL    HW120795   4.249   2.429   5.794
 6636SOL    HW220796   4.105   2.395   5.761
 6637SOL     OW20797   3.871   3.002   7.058
 6637SOL    HW120798   3.874   2.949   7.137
 6637SOL    HW220799   3.888   2.939   6.987
 6638SOL     OW20800   3.808   3.131   6.599
 6638SOL    HW120801   3.793   3.140   6.693
 6638SOL    HW220802   3.737   3.074   6.569
 6639SOL     OW20803   4.389   3.514   7.288
 6639SOL    HW120804   4.356   3.600   7.312
 6639SOL    HW220805   4.438   3.528   7.207
 6640SOL     OW20806   3.860   3.658   7.429
 6640SOL    HW120807   3.809   3.594   7.478
 6640SOL    HW220808   3.907   3.708   7.496
 6641SOL     OW20809   3.988   2.182   6.302
 6641SOL    HW120810   3.901   2.216   6.280
 6641SOL    HW220811   3.985   2.171   6.397
 6642SOL     OW20812   4.089   3.167   7.077
 6642SOL    HW120813   4.070   3.244   7.022
 6642SOL    HW220814   4.016   3.108   7.060
 6643SOL     OW20815   4.325   3.352   6.067
 6643SOL    HW120816   4.343   3.293   5.994
 6643SOL    HW220817   4.260   3.414   6.033
 6644SOL     OW20818   3.983   3.212   5.871
 6644SOL    HW120819   3.890   3.208   5.850
 6644SOL    HW220820   3.986   3.247   5.960
 6645SOL     OW20821   3.836   2.882   7.305
 6645SOL    HW120822   3.759   2.859   7.358
 6645SOL    HW220823   3.910   2.845   7.353
 6646SOL     OW20824   4.391   2.068   7.079
 6646SOL    HW120825   4.479   2.063   7.042
 6646SOL    HW220826   4.404   2.057   7.174
 6647SOL     OW20827   3.801   2.198   5.621
 6647SOL    HW120828   3.715   2.176   5.585
 6647SOL    HW220829   3.831   2.272   5.570
 6648SOL     OW20830   3.794   2.019   5.897
 6648SOL    HW120831   3.779   2.099   5.847
 6648SOL    HW220832   3.879   1.987   5.868
 6649SOL     OW20833   4.337   2.701   7.020
 6649SOL    HW120834   4.382   2.785   7.006
 6649SOL    HW220835   4.407   2.638   7.032
 6650SOL     OW20836   4.400   2.418   7.322
 6650SOL    HW120837   4.423   2.496   7.374
 6650SOL    HW220838   4.484   2.381   7.295
 6651SOL     OW20839   4.108   3.601   7.146
 6651SOL    HW120840   4.022   3.641   7.134
 6651SOL    HW220841   4.090   3.519   7.192
 6652SOL     OW20842   4.309   2.594   6.252
 6652SOL    HW120843   4.352   2.679   6.240
 6652SOL    HW220844   4.240   2.593   6.186
 6653SOL     OW20845   3.944   3.169   7.441
 6653SOL    HW120846   3.878   3.105   7.413
 6653SOL    HW220847   3.930   3.180   7.535
 6654SOL     OW20848   3.808   3.097   6.251
 6654SOL    HW120849   3.810   3.048   6.333
 6654SOL    HW220850   3.877   3.057   6.197
 6655SOL     OW20851   4.414   3.249   7.241
 6655SOL    HW120852   4.325   3.215   7.240
 6655SOL    HW220853   4.404   3.342   7.257
 6656SOL     OW20854   4.162   2.295   6.118
 6656SOL    HW120855   4.180   2.226   6.053
 6656SOL    HW220856   4.106   2.253   6.183
 6657SOL     OW20857   4.052   2.415   6.875
 6657SOL    HW120858   4.106   2.358   6.930
 6657SOL    HW220859   4.073   2.387   6.785
 6658SOL     OW20860   0.037   3.458   6.271
 6658SOL    HW120861   0.058   3.518   6.199
 6658SOL    HW220862   4.465   3.405   6.238
 6659SOL     OW20863   3.768   2.934   5.891
 6659SOL    HW120864   3.862   2.924   5.874
 6659SOL    HW220865   3.738   2.847   5.914
 6660SOL     OW20866   3.955   2.485   7.570
 6660SOL    HW120867   3.865   2.485   7.604
 6660SOL    HW220868   3.946   2.459   7.478
 6661SOL     OW20869   3.947   2.145   8.439
 6661SOL    HW120870   3.979   2.110   8.522
 6661SOL    HW220871   3.858   2.111   8.430
 6662SOL     OW20872   3.729   2.244   8.086
 6662SOL    HW120873   3.646   2.269   8.127
 6662SOL    HW220874   3.708   2.164   8.038
 6663SOL     OW20875   4.269   3.111   8.593
 6663SOL    HW120876   4.195   3.168   8.572
 6663SOL    HW220877   4.331   3.168   8.638
 6664SOL     OW20878   0.022   2.643   9.305
 6664SOL    HW120879   0.072   2.690   9.372
 6664SOL    HW220880   0.065   2.666   9.222
 6665SOL     OW20881   4.399   2.856   8.088
 6665SOL    HW120882   4.471   2.849   8.150
 6665SOL    HW220883   4.335   2.914   8.131
 6666SOL     OW20884   4.419   3.023   9.262
 6666SOL    HW120885   4.461   3.104   9.233
 6666SOL    HW220886   4.327   3.033   9.235
 6667SOL     OW20887   4.059   3.295   8.517
 6667SOL    HW120888   3.987   3.253   8.470
 6667SOL    HW220889   4.107   3.343   8.449
 6668SOL     OW20890   4.170   2.261   8.934
 6668SOL    HW120891   4.245   2.201   8.938
 6668SOL    HW220892   4.094   2.206   8.948
 6669SOL     OW20893   3.943   3.576   7.922
 6669SOL    HW120894   3.965   3.652   7.975
 6669SOL    HW220895   4.015   3.568   7.861
 6670SOL     OW20896   3.953   3.302   7.982
 6670SOL    HW120897   3.936   3.396   7.988
 6670SOL    HW220898   3.893   3.262   8.045
 6671SOL     OW20899   3.974   2.951   8.334
 6671SOL    HW120900   3.978   2.866   8.379
 6671SOL    HW220901   3.921   3.006   8.392
 6672SOL     OW20902   4.360   3.659   8.900
 6672SOL    HW120903   4.274   3.626   8.925
 6672SOL    HW220904   4.351   3.755   8.902
 6673SOL     OW20905   4.310   2.847   7.586
 6673SOL    HW120906   4.339   2.900   7.511
 6673SOL    HW220907   4.378   2.859   7.652
 6674SOL     OW20908   3.839   2.513   8.008
 6674SOL    HW120909   3.808   2.425   8.029
 6674SOL    HW220910   3.830   2.562   8.089
 6675SOL     OW20911   3.755   3.458   7.572
 6675SOL    HW120912   3.737   3.366   7.592
 6675SOL    HW220913   3.731   3.505   7.652
 6676SOL     OW20914   3.845   2.603   9.035
 6676SOL    HW120915   3.937   2.627   9.047
 6676SOL    HW220916   3.798   2.687   9.041
 6677SOL     OW20917   4.312   3.248   8.185
 6677SOL    HW120918   4.276   3.160   8.189
 6677SOL    HW220919   4.312   3.270   8.092
 6678SOL     OW20920   0.022   1.869   7.974
 6678SOL    HW120921   0.054   1.932   7.909
 6678SOL    HW220922   4.427   1.883   7.977
 6679SOL     OW20923   3.913   2.829   8.718
 6679SOL    HW120924   3.998   2.789   8.701
 6679SOL    HW220925   3.850   2.773   8.673
 6680SOL     OW20926   4.056   2.112   9.256
 6680SOL    HW120927   4.101   2.195   9.272
 6680SOL    HW220928   3.967   2.127   9.289
 6681SOL     OW20929   4.312   2.590   7.717
 6681SOL    HW120930   4.311   2.666   7.659
 6681SOL    HW220931   4.244   2.609   7.782
 6682SOL     OW20932   3.812   2.683   8.223
 6682SOL    HW120933   3.894   2.675   8.273
 6682SOL    HW220934   3.771   2.761   8.258
 6683SOL     OW20935   3.853   3.704   9.024
 6683SOL    HW120936   3.852   3.685   9.118
 6683SOL    HW220937   3.761   3.703   8.998
 6684SOL     OW20938   4.253   2.054   8.329
 6684SOL    HW120939   4.272   2.059   8.422
 6684SOL    HW220940   4.264   2.143   8.296
 6685SOL     OW20941   4.082   3.672   8.309
 6685SOL    HW120942   4.130   3.590   8.316
 6685SOL    HW220943   4.148   3.741   8.320
 6686SOL     OW20944   4.044   2.819   7.697
 6686SOL    HW120945   4.127   2.838   7.652
 6686SOL    HW220946   4.014   2.737   7.659
 6687SOL     OW20947   4.178   3.115   9.183
 6687SOL    HW120948   4.151   3.126   9.092
 6687SOL    HW220949   4.098   3.125   9.233
 6688SOL     OW20950   3.924   2.145   8.949
 6688SOL    HW120951   3.842   2.194   8.941
 6688SOL    HW220952   3.906   2.080   9.017
 6689SOL     OW20953   4.193   3.597   7.773
 6689SOL    HW120954   4.224   3.657   7.841
 6689SOL    HW220955   4.262   3.598   7.707
 6690SOL     OW20956   3.979   3.655   8.681
 6690SOL    HW120957   4.027   3.586   8.727
 6690SOL    HW220958   3.966   3.620   8.593
 6691SOL     OW20959   4.111   2.556   7.922
 6691SOL    HW120960   4.137   2.465   7.935
 6691SOL    HW220961   4.017   2.558   7.943
 6692SOL     OW20962   4.340   1.973   7.565
 6692SOL    HW120963   4.435   1.957   7.565
 6692SOL    HW220964   4.312   1.950   7.477
 6693SOL     OW20965   0.018   3.286   8.362
 6693SOL    HW120966   0.086   3.322   8.305
 6693SOL    HW220967   4.445   3.269   8.304
 6694SOL     OW20968   4.261   1.926   7.950
 6694SOL    HW120969   4.182   1.931   8.004
 6694SOL    HW220970   4.257   2.005   7.895
 6695SOL     OW20971   4.018   1.910   7.632
 6695SOL    HW120972   4.078   1.974   7.595
 6695SOL    HW220973   4.074   1.845   7.675
 6696SOL     OW20974   0.323   2.538   8.897
 6696SOL    HW120975   0.250   2.476   8.893
 6696SOL    HW220976   0.401   2.483   8.890
 6697SOL     OW20977   4.189   3.007   8.183
 6697SOL    HW120978   4.120   2.989   8.246
 6697SOL    HW220979   4.149   2.989   8.097
 6698SOL     OW20980   3.802   2.417   8.839
 6698SOL    HW120981   3.893   2.415   8.812
 6698SOL    HW220982   3.798   2.487   8.904
 6699SOL     OW20983   4.284   2.074   8.597
 6699SOL    HW120984   4.325   2.006   8.649
 6699SOL    HW220985   4.197   2.085   8.636
 6700SOL     OW20986   4.230   3.248   7.620
 6700SOL    HW120987   4.146   3.234   7.663
 6700SOL    HW220988   4.208   3.265   7.529
 6701SOL     OW20989   4.246   2.128   7.770
 6701SOL    HW120990   4.287   2.073   7.703
 6701SOL    HW220991   4.227   2.210   7.726
 6702SOL     OW20992   4.139   2.674   8.698
 6702SOL    HW120993   4.206   2.685   8.765
 6702SOL    HW220994   4.105   2.586   8.712
 6703SOL     OW20995   3.793   3.435   8.799
 6703SOL    HW120996   3.760   3.507   8.745
 6703SOL    HW220997   3.888   3.442   8.793
 6704SOL     OW20998   4.073   2.970   7.939
 6704SOL    HW120999   4.075   3.042   7.876
 6704SOL    HW221000   4.072   2.891   7.884
 6705SOL     OW21001   4.298   2.401   8.312
 6705SOL    HW121002   4.300   2.467   8.242
 6705SOL    HW221003   4.363   2.431   8.376
 6706SOL     OW21004   4.072   3.394   8.765
 6706SOL    HW121005   4.066   3.350   8.680
 6706SOL    HW221006   4.166   3.396   8.784
 6707SOL     OW21007   4.136   2.605   9.052
 6707SOL    HW121008   4.195   2.650   8.992
 6707SOL    HW221009   4.178   2.521   9.069
 6708SOL     OW21010   4.231   1.914   9.182
 6708SOL    HW121011   4.186   1.854   9.123
 6708SOL    HW221012   4.165   1.981   9.203
 6709SOL     OW21013   4.291   2.750   8.474
 6709SOL    HW121014   4.322   2.839   8.489
 6709SOL    HW221015   4.243   2.728   8.554
 6710SOL     OW21016   4.025   2.063   8.695
 6710SOL    HW121017   3.986   2.095   8.776
 6710SOL    HW221018   4.005   1.969   8.694
 6711SOL     OW21019   3.770   3.172   8.725
 6711SOL    HW121020   3.803   3.118   8.797
 6711SOL    HW221021   3.777   3.262   8.758
 6712SOL     OW21022   4.020   1.928   8.073
 6712SOL    HW121023   4.005   2.020   8.098
 6712SOL    HW221024   4.031   1.883   8.156
 6713SOL     OW21025   4.076   2.777   9.256
 6713SOL    HW121026   4.158   2.793   9.302
 6713SOL    HW221027   4.099   2.714   9.188
 6714SOL     OW21028   4.031   2.671   8.394
 6714SOL    HW121029   4.123   2.698   8.394
 6714SOL    HW221030   4.033   2.581   8.427
 6715SOL     OW21031   4.063   2.387   8.457
 6715SOL    HW121032   4.026   2.300   8.441
 6715SOL    HW221033   4.141   2.391   8.402
 6716SOL     OW21034   3.729   3.184   7.643
 6716SOL    HW121035   3.642   3.197   7.605
 6716SOL    HW221036   3.727   3.094   7.677
 6717SOL     OW21037   3.816   3.650   8.386
 6717SOL    HW121038   3.785   3.571   8.342
 6717SOL    HW221039   3.905   3.663   8.354
 6718SOL     OW21040   4.232   3.444   8.353
 6718SOL    HW121041   4.317   3.478   8.381
 6718SOL    HW221042   4.253   3.372   8.293
 6719SOL     OW21043   3.759   2.405   8.564
 6719SOL    HW121044   3.839   2.388   8.515
 6719SOL    HW221045   3.788   2.410   8.655
 6720SOL     OW21046   3.915   2.380   9.175
 6720SOL    HW121047   3.972   2.344   9.107
 6720SOL    HW221048   3.869   2.452   9.131
 6721SOL     OW21049   0.033   2.419   7.712
 6721SOL    HW121050   0.020   2.345   7.772
 6721SOL    HW221051   4.465   2.482   7.736
 6722SOL     OW21052   3.971   3.415   9.177
 6722SOL    HW121053   3.944   3.479   9.243
 6722SOL    HW221054   3.968   3.331   9.222
 6723SOL     OW21055   4.191   2.355   7.637
 6723SOL    HW121056   4.249   2.428   7.656
 6723SOL    HW221057   4.105   2.395   7.623
 6724SOL     OW21058   3.872   3.002   8.920
 6724SOL    HW121059   3.874   2.949   8.999
 6724SOL    HW221060   3.888   2.939   8.849
 6725SOL     OW21061   3.808   3.130   8.461
 6725SOL    HW121062   3.793   3.140   8.555
 6725SOL    HW221063   3.736   3.074   8.432
 6726SOL     OW21064   4.389   3.514   9.150
 6726SOL    HW121065   4.356   3.600   9.174
 6726SOL    HW221066   4.438   3.529   9.069
 6727SOL     OW21067   3.860   3.658   9.291
 6727SOL    HW121068   3.809   3.594   9.340
 6727SOL    HW221069   3.907   3.708   9.358
 6728SOL     OW21070   3.987   2.182   8.164
 6728SOL    HW121071   3.900   2.216   8.142
 6728SOL    HW221072   3.985   2.171   8.259
 6729SOL     OW21073   4.089   3.167   8.939
 6729SOL    HW121074   4.070   3.244   8.884
 6729SOL    HW221075   4.016   3.108   8.922
 6730SOL     OW21076   4.325   3.352   7.929
 6730SOL    HW121077   4.343   3.293   7.856
 6730SOL    HW221078   4.260   3.414   7.895
 6731SOL     OW21079   3.983   3.212   7.733
 6731SOL    HW121080   3.890   3.208   7.712
 6731SOL    HW221081   3.986   3.247   7.822
 6732SOL     OW21082   3.836   2.883   9.168
 6732SOL    HW121083   3.759   2.859   9.220
 6732SOL    HW221084   3.910   2.845   9.215
 6733SOL     OW21085   4.391   2.068   8.941
 6733SOL    HW121086   4.479   2.063   8.904
 6733SOL    HW221087   4.404   2.057   9.036
 6734SOL     OW21088   3.802   2.197   7.483
 6734SOL    HW121089   3.714   2.177   7.451
 6734SOL    HW221090   3.831   2.271   7.431
 6735SOL     OW21091   3.794   2.019   7.760
 6735SOL    HW121092   3.778   2.099   7.710
 6735SOL    HW221093   3.879   1.987   7.730
 6736SOL     OW21094   4.337   2.701   8.882
 6736SOL    HW121095   4.382   2.785   8.868
 6736SOL    HW221096   4.407   2.638   8.894
 6737SOL     OW21097   4.400   2.418   9.184
 6737SOL    HW121098   4.424   2.496   9.236
 6737SOL    HW221099   4.484   2.381   9.157
 6738SOL     OW21100   4.108   3.601   9.008
 6738SOL    HW121101   4.022   3.641   8.996
 6738SOL    HW221102   4.090   3.519   9.054
 6739SOL     OW21103   4.309   2.594   8.114
 6739SOL    HW121104   4.352   2.679   8.102
 6739SOL    HW221105   4.240   2.593   8.048
 6740SOL     OW21106   3.944   3.169   9.303
 6740SOL    HW121107   3.878   3.105   9.275
 6740SOL    HW221108   3.929   3.180   9.397
 6741SOL     OW21109   3.808   3.097   8.113
 6741SOL    HW121110   3.811   3.048   8.195
 6741SOL    HW221111   3.877   3.057   8.059
 6742SOL     OW21112   4.414   3.249   9.103
 6742SOL    HW121113   4.325   3.215   9.102
 6742SOL    HW221114   4.404   3.343   9.119
 6743SOL     OW21115   4.162   2.295   7.980
 6743SOL    HW121116   4.180   2.226   7.915
 6743SOL    HW221117   4.106   2.253   8.045
 6744SOL     OW21118   4.052   2.415   8.737
 6744SOL    HW121119   4.106   2.358   8.792
 6744SOL    HW221120   4.073   2.388   8.647
 6745SOL     OW21121   0.037   3.458   8.133
 6745SOL    HW121122   0.058   3.518   8.061
 6745SOL    HW221123   4.465   3.405   8.100
 6746SOL     OW21124   3.768   2.934   7.753
 6746SOL    HW121125   3.862   2.924   7.736
 6746SOL    HW221126   3.738   2.846   7.776
 6747SOL     OW21127   3.955   2.485   9.432
 6747SOL    HW121128   3.865   2.485   9.466
 6747SOL    HW221129   3.946   2.459   9.340
 6748SOL     OW21130   3.947   2.145  10.301
 6748SOL    HW121131   3.979   2.110  10.384
 6748SOL    HW221132   3.858   2.111  10.293
 6749SOL     OW21133   3.729   2.244   9.948
 6749SOL    HW121134   3.646   2.269   9.989
 6749SOL    HW221135   3.708   2.164   9.900
 6750SOL     OW21136   4.269   3.111  10.456
 6750SOL    HW121137   4.195   3.167  10.433
 6750SOL    HW221138   4.330   3.168  10.501
 6751SOL     OW21139   0.025   2.672   0.078
 6751SOL    HW121140   0.100   2.712   0.122
 6751SOL    HW221141   0.055   2.656  11.088
 6752SOL     OW21142   4.399   2.857   9.949
 6752SOL    HW121143   4.471   2.849  10.012
 6752SOL    HW221144   4.335   2.914   9.993
 6753SOL     OW21145   4.060   3.295  10.379
 6753SOL    HW121146   3.987   3.253  10.333
 6753SOL    HW221147   4.107   3.343  10.311
 6754SOL     OW21148   4.177   2.263  10.798
 6754SOL    HW121149   4.244   2.195  10.798
 6754SOL    HW221150   4.095   2.215  10.817
 6755SOL     OW21151   3.943   3.576   9.784
 6755SOL    HW121152   3.965   3.652   9.837
 6755SOL    HW221153   4.015   3.568   9.722
 6756SOL     OW21154   3.953   3.302   9.844
 6756SOL    HW121155   3.936   3.396   9.850
 6756SOL    HW221156   3.893   3.262   9.907
 6757SOL     OW21157   3.974   2.950  10.196
 6757SOL    HW121158   3.978   2.866  10.242
 6757SOL    HW221159   3.921   3.006  10.254
 6758SOL     OW21160   4.356   3.661  10.757
 6758SOL    HW121161   4.269   3.631  10.782
 6758SOL    HW221162   4.353   3.756  10.766
 6759SOL     OW21163   4.310   2.847   9.447
 6759SOL    HW121164   4.339   2.900   9.373
 6759SOL    HW221165   4.378   2.859   9.514
 6760SOL     OW21166   3.839   2.513   9.870
 6760SOL    HW121167   3.808   2.425   9.891
 6760SOL    HW221168   3.831   2.562   9.951
 6761SOL     OW21169   3.755   3.458   9.434
 6761SOL    HW121170   3.737   3.366   9.454
 6761SOL    HW221171   3.731   3.505   9.514
 6762SOL     OW21172   3.848   2.589  10.913
 6762SOL    HW121173   3.941   2.611  10.909
 6762SOL    HW221174   3.803   2.673  10.907
 6763SOL     OW21175   4.312   3.248  10.047
 6763SOL    HW121176   4.276   3.160  10.051
 6763SOL    HW221177   4.312   3.270   9.954
 6764SOL     OW21178   0.022   1.869   9.836
 6764SOL    HW121179   0.054   1.932   9.771
 6764SOL    HW221180   4.427   1.883   9.839
 6765SOL     OW21181   3.913   2.828  10.578
 6765SOL    HW121182   3.998   2.787  10.560
 6765SOL    HW221183   3.850   2.771  10.534
 6766SOL     OW21184   4.064   2.119   0.014
 6766SOL    HW121185   4.115   2.194   0.045
 6766SOL    HW221186   3.974   2.142   0.034
 6767SOL     OW21187   4.312   2.590   9.579
 6767SOL    HW121188   4.311   2.666   9.521
 6767SOL    HW221189   4.243   2.609   9.644
 6768SOL     OW21190   3.812   2.683  10.085
 6768SOL    HW121191   3.894   2.674  10.135
 6768SOL    HW221192   3.771   2.762  10.120
 6769SOL     OW21193   3.855   3.701  10.895
 6769SOL    HW121194   3.836   3.669  10.982
 6769SOL    HW221195   3.769   3.706  10.851
 6770SOL     OW21196   4.253   2.054  10.191
 6770SOL    HW121197   4.273   2.060  10.285
 6770SOL    HW221198   4.264   2.143  10.158
 6771SOL     OW21199   4.082   3.672  10.171
 6771SOL    HW121200   4.130   3.590  10.178
 6771SOL    HW221201   4.147   3.741  10.182
 6772SOL     OW21202   4.044   2.819   9.559
 6772SOL    HW121203   4.126   2.838   9.514
 6772SOL    HW221204   4.014   2.737   9.521
 6773SOL     OW21205   4.179   3.124  11.053
 6773SOL    HW121206   4.153   3.136  10.962
 6773SOL    HW221207   4.107   3.076  11.093
 6774SOL     OW21208   3.927   2.145  10.807
 6774SOL    HW121209   3.845   2.194  10.802
 6774SOL    HW221210   3.912   2.080  10.876
 6775SOL     OW21211   4.193   3.597   9.635
 6775SOL    HW121212   4.224   3.657   9.703
 6775SOL    HW221213   4.262   3.598   9.569
 6776SOL     OW21214   3.979   3.655  10.544
 6776SOL    HW121215   4.027   3.587  10.591
 6776SOL    HW221216   3.966   3.619  10.456
 6777SOL     OW21217   4.111   2.556   9.784
 6777SOL    HW121218   4.137   2.465   9.797
 6777SOL    HW221219   4.017   2.558   9.805
 6778SOL     OW21220   4.340   1.973   9.427
 6778SOL    HW121221   4.435   1.957   9.427
 6778SOL    HW221222   4.312   1.950   9.339
 6779SOL     OW21223   0.019   3.286  10.224
 6779SOL    HW121224   0.086   3.322  10.166
 6779SOL    HW221225   4.444   3.269  10.166
 6780SOL     OW21226   4.261   1.926   9.812
 6780SOL    HW121227   4.182   1.931   9.866
 6780SOL    HW221228   4.257   2.005   9.757
 6781SOL     OW21229   4.018   1.910   9.494
 6781SOL    HW121230   4.078   1.974   9.457
 6781SOL    HW221231   4.074   1.845   9.537
 6782SOL     OW21232   0.311   2.539  10.762
 6782SOL    HW121233   0.247   2.469  10.772
 6782SOL    HW221234   0.395   2.494  10.753
 6783SOL     OW21235   4.189   3.007  10.045
 6783SOL    HW121236   4.120   2.989  10.108
 6783SOL    HW221237   4.149   2.989   9.959
 6784SOL     OW21238   3.801   2.416  10.703
 6784SOL    HW121239   3.893   2.415  10.676
 6784SOL    HW221240   3.798   2.478  10.775
 6785SOL     OW21241   4.284   2.075  10.460
 6785SOL    HW121242   4.324   2.003  10.509
 6785SOL    HW221243   4.197   2.085  10.498
 6786SOL     OW21244   4.230   3.248   9.482
 6786SOL    HW121245   4.146   3.234   9.525
 6786SOL    HW221246   4.208   3.265   9.391
 6787SOL     OW21247   4.246   2.128   9.632
 6787SOL    HW121248   4.287   2.073   9.565
 6787SOL    HW221249   4.227   2.210   9.588
 6788SOL     OW21250   4.139   2.674  10.559
 6788SOL    HW121251   4.207   2.684  10.627
 6788SOL    HW221252   4.105   2.586  10.573
 6789SOL     OW21253   3.793   3.437  10.660
 6789SOL    HW121254   3.761   3.508  10.604
 6789SOL    HW221255   3.888   3.442  10.653
 6790SOL     OW21256   4.073   2.970   9.801
 6790SOL    HW121257   4.075   3.042   9.738
 6790SOL    HW221258   4.072   2.891   9.746
 6791SOL     OW21259   4.298   2.401  10.174
 6791SOL    HW121260   4.300   2.467  10.105
 6791SOL    HW221261   4.363   2.430  10.238
 6792SOL     OW21262   4.072   3.392  10.627
 6792SOL    HW121263   4.066   3.349  10.542
 6792SOL    HW221264   4.166   3.396  10.646
 6793SOL     OW21265   4.134   2.598  10.905
 6793SOL    HW121266   4.197   2.643  10.848
 6793SOL    HW221267   4.165   2.507  10.906
 6794SOL     OW21268   4.291   2.750  10.336
 6794SOL    HW121269   4.322   2.840  10.350
 6794SOL    HW221270   4.243   2.728  10.416
 6795SOL     OW21271   4.025   2.063  10.556
 6795SOL    HW121272   3.989   2.096  10.638
 6795SOL    HW221273   4.005   1.969  10.556
 6796SOL     OW21274   3.773   3.174  10.586
 6796SOL    HW121275   3.801   3.118  10.659
 6796SOL    HW221276   3.776   3.263  10.621
 6797SOL     OW21277   4.020   1.928   9.935
 6797SOL    HW121278   4.005   2.020   9.960
 6797SOL    HW221279   4.031   1.883  10.018
 6798SOL     OW21280   4.081   2.780  11.094
 6798SOL    HW121281   4.164   2.796   0.038
 6798SOL    HW221282   4.100   2.713  11.029
 6799SOL     OW21283   4.031   2.671  10.256
 6799SOL    HW121284   4.123   2.698  10.255
 6799SOL    HW221285   4.033   2.581  10.289
 6800SOL     OW21286   4.062   2.387  10.319
 6800SOL    HW121287   4.026   2.300  10.303
 6800SOL    HW221288   4.141   2.391  10.265
 6801SOL     OW21289   3.729   3.184   9.505
 6801SOL    HW121290   3.642   3.198   9.468
 6801SOL    HW221291   3.727   3.094   9.539
 6802SOL     OW21292   3.815   3.651  10.248
 6802SOL    HW121293   3.785   3.571  10.204
 6802SOL    HW221294   3.905   3.663  10.216
 6803SOL     OW21295   4.232   3.444  10.215
 6803SOL    HW121296   4.317   3.478  10.243
 6803SOL    HW221297   4.253   3.372  10.155
 6804SOL     OW21298   3.759   2.406  10.426
 6804SOL    HW121299   3.840   2.389  10.377
 6804SOL    HW221300   3.788   2.411  10.518
 6805SOL     OW21301   0.033   2.419   9.575
 6805SOL    HW121302   0.020   2.345   9.634
 6805SOL    HW221303   4.465   2.482   9.598
 6806SOL     OW21304   3.979   3.428  11.054
 6806SOL    HW121305   3.923   3.464   0.023
 6806SOL    HW221306   3.979   3.334  11.069
 6807SOL     OW21307   4.191   2.355   9.499
 6807SOL    HW121308   4.249   2.429   9.518
 6807SOL    HW221309   4.105   2.395   9.485
 6808SOL     OW21310   3.877   3.000  10.780
 6808SOL    HW121311   3.871   2.944  10.858
 6808SOL    HW221312   3.890   2.938  10.708
 6809SOL     OW21313   3.808   3.131  10.323
 6809SOL    HW121314   3.795   3.141  10.417
 6809SOL    HW221315   3.736   3.074  10.294
 6810SOL     OW21316   4.396   3.529  11.005
 6810SOL    HW121317   4.317   3.582  10.991
 6810SOL    HW221318   4.431   3.514  10.918
 6811SOL     OW21319   3.987   2.182  10.026
 6811SOL    HW121320   3.900   2.216  10.004
 6811SOL    HW221321   3.985   2.171  10.121
 6812SOL     OW21322   4.085   3.170  10.809
 6812SOL    HW121323   4.072   3.243  10.749
 6812SOL    HW221324   4.015   3.108  10.788
 6813SOL     OW21325   4.325   3.352   9.791
 6813SOL    HW121326   4.343   3.293   9.718
 6813SOL    HW221327   4.260   3.414   9.757
 6814SOL     OW21328   3.983   3.212   9.595
 6814SOL    HW121329   3.890   3.208   9.574
 6814SOL    HW221330   3.986   3.247   9.684
 6815SOL     OW21331   3.837   2.874  11.020
 6815SOL    HW121332   3.767   2.859  11.083
 6815SOL    HW221333   3.916   2.844  11.064
 6816SOL     OW21334   4.396   2.065  10.808
 6816SOL    HW121335   4.475   2.069  10.755
 6816SOL    HW221336   4.427   2.074  10.898
 6817SOL     OW21337   3.802   2.197   9.345
 6817SOL    HW121338   3.714   2.177   9.313
 6817SOL    HW221339   3.831   2.271   9.293
 6818SOL     OW21340   3.794   2.019   9.622
 6818SOL    HW121341   3.778   2.099   9.571
 6818SOL    HW221342   3.879   1.987   9.592
 6819SOL     OW21343   4.337   2.700  10.744
 6819SOL    HW121344   4.379   2.785  10.729
 6819SOL    HW221345   4.410   2.638  10.749
 6820SOL     OW21346   4.115   3.596  10.871
 6820SOL    HW121347   4.034   3.648  10.863
 6820SOL    HW221348   4.089   3.521  10.924
 6821SOL     OW21349   4.309   2.594   9.976
 6821SOL    HW121350   4.352   2.679   9.964
 6821SOL    HW221351   4.240   2.593   9.911
 6822SOL     OW21352   3.808   3.097   9.974
 6822SOL    HW121353   3.811   3.048  10.057
 6822SOL    HW221354   3.877   3.057   9.921
 6823SOL     OW21355   4.406   3.254  10.941
 6823SOL    HW121356   4.331   3.205  10.974
 6823SOL    HW221357   4.398   3.340  10.983
 6824SOL     OW21358   4.162   2.295   9.842
 6824SOL    HW121359   4.180   2.226   9.777
 6824SOL    HW221360   4.106   2.253   9.907
 6825SOL     OW21361   4.053   2.414  10.599
 6825SOL    HW121362   4.106   2.357  10.654
 6825SOL    HW221363   4.073   2.388  10.510
 6826SOL     OW21364   0.037   3.458   9.995
 6826SOL    HW121365   0.058   3.518   9.923
 6826SOL    HW221366   4.465   3.405   9.962
 6827SOL     OW21367   3.768   2.934   9.615
 6827SOL    HW121368   3.862   2.924   9.598
 6827SOL    HW221369   3.738   2.846   9.638
 6828SOL     OW21370   3.927   4.296   0.089
 6828SOL    HW121371   3.898   4.352   0.161
 6828SOL    HW221372   3.940   4.356   0.015
 6829SOL     OW21373   3.947   4.005   0.990
 6829SOL    HW121374   3.978   3.970   1.074
 6829SOL    HW221375   3.857   3.972   0.982
 6830SOL     OW21376   3.729   4.102   0.644
 6830SOL    HW121377   3.645   4.129   0.681
 6830SOL    HW221378   3.708   4.025   0.591
 6831SOL     OW21379   0.060   0.013   1.859
 6831SOL    HW121380   0.112   0.080   1.902
 6831SOL    HW221381   0.075   0.029   1.765
 6832SOL     OW21382   4.171   4.118   1.482
 6832SOL    HW121383   4.246   4.059   1.491
 6832SOL    HW221384   4.095   4.063   1.501
 6833SOL     OW21385   3.814   4.365   0.558
 6833SOL    HW121386   3.797   4.276   0.589
 6833SOL    HW221387   3.865   4.406   0.628
 6834SOL     OW21388   3.842   4.474   1.584
 6834SOL    HW121389   3.912   4.490   1.648
 6834SOL    HW221390   3.809   0.061   1.562
 6835SOL     OW21391   0.022   3.734   0.531
 6835SOL    HW121392   0.054   3.793   0.462
 6835SOL    HW221393   4.427   3.746   0.530
 6836SOL     OW21394   4.056   3.976   1.806
 6836SOL    HW121395   4.100   4.058   1.827
 6836SOL    HW221396   3.967   3.986   1.839
 6837SOL     OW21397   4.253   3.914   0.881
 6837SOL    HW121398   4.272   3.920   0.975
 6837SOL    HW221399   4.263   4.004   0.849
 6838SOL     OW21400   3.923   4.007   1.504
 6838SOL    HW121401   3.838   4.050   1.493
 6838SOL    HW221402   3.907   3.940   1.571
 6839SOL     OW21403   4.093   4.387   0.412
 6839SOL    HW121404   4.130   4.313   0.460
 6839SOL    HW221405   4.021   4.418   0.467
 6840SOL     OW21406   4.342   3.843   0.116
 6840SOL    HW121407   4.434   3.816   0.122
 6840SOL    HW221408   4.314   3.817   0.029
 6841SOL     OW21409   4.261   3.789   0.501
 6841SOL    HW121410   4.182   3.792   0.554
 6841SOL    HW221411   4.257   3.867   0.446
 6842SOL     OW21412   4.010   3.771   0.199
 6842SOL    HW121413   4.053   3.826   0.133
 6842SOL    HW221414   4.076   3.707   0.224
 6843SOL     OW21415   0.358   4.396   1.522
 6843SOL    HW121416   0.291   4.370   1.458
 6843SOL    HW221417   0.428   4.332   1.510
 6844SOL     OW21418   3.799   4.279   1.392
 6844SOL    HW121419   3.890   4.272   1.363
 6844SOL    HW221420   3.799   4.353   1.453
 6845SOL     OW21421   4.284   3.936   1.149
 6845SOL    HW121422   4.326   3.868   1.202
 6845SOL    HW221423   4.198   3.947   1.188
 6846SOL     OW21424   4.248   3.993   0.324
 6846SOL    HW121425   4.281   3.934   0.256
 6846SOL    HW221426   4.231   4.075   0.278
 6847SOL     OW21427   4.154   0.010   1.269
 6847SOL    HW121428   4.218   0.008   1.339
 6847SOL    HW221429   4.112   4.424   1.272
 6848SOL     OW21430   4.302   4.263   0.870
 6848SOL    HW121431   4.312   4.332   0.804
 6848SOL    HW221432   4.369   4.284   0.936
 6849SOL     OW21433   4.231   3.776   1.734
 6849SOL    HW121434   4.186   3.716   1.675
 6849SOL    HW221435   4.166   3.843   1.754
 6850SOL     OW21436   4.024   3.925   1.247
 6850SOL    HW121437   3.986   3.957   1.328
 6850SOL    HW221438   4.004   3.831   1.246
 6851SOL     OW21439   4.021   3.791   0.625
 6851SOL    HW121440   4.005   3.882   0.650
 6851SOL    HW221441   4.032   3.745   0.709
 6852SOL     OW21442   4.040   0.013   0.922
 6852SOL    HW121443   4.118   0.070   0.929
 6852SOL    HW221444   4.059   4.440   0.981
 6853SOL     OW21445   4.068   4.242   1.017
 6853SOL    HW121446   4.028   4.157   0.996
 6853SOL    HW221447   4.145   4.247   0.959
 6854SOL     OW21448   3.760   4.270   1.115
 6854SOL    HW121449   3.840   4.251   1.066
 6854SOL    HW221450   3.787   4.273   1.206
 6855SOL     OW21451   3.916   4.244   1.719
 6855SOL    HW121452   3.971   4.197   1.656
 6855SOL    HW221453   3.861   4.301   1.664
 6856SOL     OW21454   4.500   4.293   0.280
 6856SOL    HW121455   0.031   4.212   0.320
 6856SOL    HW221456   4.483   4.352   0.353
 6857SOL     OW21457   4.197   4.216   0.177
 6857SOL    HW121458   4.248   4.287   0.215
 6857SOL    HW221459   4.107   4.248   0.179
 6858SOL     OW21460   3.987   4.045   0.717
 6858SOL    HW121461   3.899   4.074   0.695
 6858SOL    HW221462   3.984   4.031   0.812
 6859SOL     OW21463   4.392   3.928   1.494
 6859SOL    HW121464   4.480   3.929   1.458
 6859SOL    HW221465   4.404   3.922   1.589
 6860SOL     OW21466   3.802   4.050   0.054
 6860SOL    HW121467   3.734   4.045  11.087
 6860SOL    HW221468   3.831   4.141   0.052
 6861SOL     OW21469   3.792   3.883   0.315
 6861SOL    HW121470   3.778   3.959   0.258
 6861SOL    HW221471   3.875   3.846   0.285
 6862SOL     OW21472   4.407   4.272   1.743
 6862SOL    HW121473   4.426   4.355   1.786
 6862SOL    HW221474   4.492   4.238   1.717
 6863SOL     OW21475   4.172   4.153   0.541
 6863SOL    HW121476   4.186   4.086   0.475
 6863SOL    HW221477   4.110   4.113   0.603
 6864SOL     OW21478   4.047   4.264   1.291
 6864SOL    HW121479   4.102   4.208   1.345
 6864SOL    HW221480   4.069   4.239   1.201
 6865SOL     OW21481   3.951   4.294   1.987
 6865SOL    HW121482   3.887   4.356   2.021
 6865SOL    HW221483   3.939   4.297   1.892
 6866SOL     OW21484   3.947   4.004   2.852
 6866SOL    HW121485   3.978   3.970   2.936
 6866SOL    HW221486   3.857   3.972   2.844
 6867SOL     OW21487   3.729   4.101   2.506
 6867SOL    HW121488   3.646   4.130   2.544
 6867SOL    HW221489   3.706   4.024   2.454
 6868SOL     OW21490   0.060   0.013   3.721
 6868SOL    HW121491   0.112   0.080   3.764
 6868SOL    HW221492   0.075   0.029   3.627
 6869SOL     OW21493   4.171   4.118   3.344
 6869SOL    HW121494   4.246   4.059   3.353
 6869SOL    HW221495   4.095   4.063   3.362
 6870SOL     OW21496   3.805   4.369   2.426
 6870SOL    HW121497   3.798   4.278   2.453
 6870SOL    HW221498   3.867   4.408   2.488
 6871SOL     OW21499   3.842   4.474   3.446
 6871SOL    HW121500   3.912   4.490   3.510
 6871SOL    HW221501   3.808   0.061   3.424
 6872SOL     OW21502   0.022   3.730   2.388
 6872SOL    HW121503   0.054   3.794   2.324
 6872SOL    HW221504   4.427   3.744   2.390
 6873SOL     OW21505   4.056   3.976   3.668
 6873SOL    HW121506   4.100   4.058   3.689
 6873SOL    HW221507   3.967   3.986   3.701
 6874SOL     OW21508   4.252   3.913   2.743
 6874SOL    HW121509   4.271   3.920   2.836
 6874SOL    HW221510   4.264   4.002   2.710
 6875SOL     OW21511   3.923   4.007   3.365
 6875SOL    HW121512   3.838   4.051   3.355
 6875SOL    HW221513   3.907   3.941   3.433
 6876SOL     OW21514   4.093   4.392   2.279
 6876SOL    HW121515   4.129   4.315   2.323
 6876SOL    HW221516   4.020   4.419   2.335
 6877SOL     OW21517   4.339   3.831   1.981
 6877SOL    HW121518   4.434   3.823   1.978
 6877SOL    HW221519   4.311   3.811   1.892
 6878SOL     OW21520   4.261   3.789   2.364
 6878SOL    HW121521   4.182   3.793   2.418
 6878SOL    HW221522   4.257   3.866   2.309
 6879SOL     OW21523   4.018   3.771   2.046
 6879SOL    HW121524   4.078   3.836   2.011
 6879SOL    HW221525   4.074   3.706   2.088
 6880SOL     OW21526   0.358   4.396   3.384
 6880SOL    HW121527   0.291   4.370   3.320
 6880SOL    HW221528   0.428   4.332   3.372
 6881SOL     OW21529   3.799   4.279   3.254
 6881SOL    HW121530   3.890   4.272   3.225
 6881SOL    HW221531   3.799   4.353   3.315
 6882SOL     OW21532   4.284   3.936   3.011
 6882SOL    HW121533   4.326   3.868   3.064
 6882SOL    HW221534   4.198   3.948   3.050
 6883SOL     OW21535   4.245   3.988   2.185
 6883SOL    HW121536   4.285   3.933   2.117
 6883SOL    HW221537   4.230   4.072   2.142
 6884SOL     OW21538   4.154   0.010   3.130
 6884SOL    HW121539   4.218   0.009   3.201
 6884SOL    HW221540   4.112   4.424   3.134
 6885SOL     OW21541   4.302   4.264   2.733
 6885SOL    HW121542   4.311   4.332   2.666
 6885SOL    HW221543   4.369   4.285   2.798
 6886SOL     OW21544   4.231   3.776   3.596
 6886SOL    HW121545   4.186   3.716   3.537
 6886SOL    HW221546   4.166   3.843   3.616
 6887SOL     OW21547   4.024   3.925   3.109
 6887SOL    HW121548   3.986   3.957   3.190
 6887SOL    HW221549   4.004   3.831   3.108
 6888SOL     OW21550   4.020   3.790   2.487
 6888SOL    HW121551   4.005   3.882   2.512
 6888SOL    HW221552   4.031   3.745   2.570
 6889SOL     OW21553   4.040   0.014   2.786
 6889SOL    HW121554   4.117   0.070   2.791
 6889SOL    HW221555   4.060   4.441   2.844
 6890SOL     OW21556   4.068   4.241   2.879
 6890SOL    HW121557   4.028   4.157   2.858
 6890SOL    HW221558   4.145   4.247   2.822
 6891SOL     OW21559   3.760   4.269   2.977
 6891SOL    HW121560   3.840   4.252   2.928
 6891SOL    HW221561   3.787   4.273   3.068
 6892SOL     OW21562   3.916   4.244   3.581
 6892SOL    HW121563   3.972   4.198   3.518
 6892SOL    HW221564   3.861   4.301   3.526
 6893SOL     OW21565   0.003   4.295   2.137
 6893SOL    HW121566   0.029   4.210   2.172
 6893SOL    HW221567   4.473   4.344   2.213
 6894SOL     OW21568   4.202   4.215   2.051
 6894SOL    HW121569   4.253   4.295   2.065
 6894SOL    HW221570   4.112   4.244   2.043
 6895SOL     OW21571   3.987   4.044   2.579
 6895SOL    HW121572   3.898   4.074   2.557
 6895SOL    HW221573   3.985   4.031   2.674
 6896SOL     OW21574   4.392   3.928   3.356
 6896SOL    HW121575   4.480   3.929   3.320
 6896SOL    HW221576   4.404   3.923   3.450
 6897SOL     OW21577   3.799   4.046   1.892
 6897SOL    HW121578   3.711   4.038   1.855
 6897SOL    HW221579   3.830   4.131   1.859
 6898SOL     OW21580   3.794   3.881   2.174
 6898SOL    HW121581   3.779   3.961   2.124
 6898SOL    HW221582   3.879   3.849   2.144
 6899SOL     OW21583   4.407   4.271   3.605
 6899SOL    HW121584   4.426   4.355   3.648
 6899SOL    HW221585   4.493   4.238   3.579
 6900SOL     OW21586   4.174   4.152   2.405
 6900SOL    HW121587   4.184   4.088   2.334
 6900SOL    HW221588   4.111   4.112   2.465
 6901SOL     OW21589   4.047   4.264   3.153
 6901SOL    HW121590   4.102   4.208   3.207
 6901SOL    HW221591   4.068   4.239   3.063
 6902SOL     OW21592   3.950   4.293   3.849
 6902SOL    HW121593   3.888   4.357   3.884
 6902SOL    HW221594   3.939   4.298   3.754
 6903SOL     OW21595   3.947   4.004   4.714
 6903SOL    HW121596   3.978   3.970   4.798
 6903SOL    HW221597   3.857   3.972   4.706
 6904SOL     OW21598   3.729   4.101   4.368
 6904SOL    HW121599   3.646   4.130   4.406
 6904SOL    HW221600   3.706   4.024   4.316
 6905SOL     OW21601   0.060   0.013   5.583
 6905SOL    HW121602   0.112   0.080   5.626
 6905SOL    HW221603   0.074   0.029   5.489
 6906SOL     OW21604   4.171   4.118   5.206
 6906SOL    HW121605   4.246   4.059   5.215
 6906SOL    HW221606   4.095   4.063   5.225
 6907SOL     OW21607   3.806   4.369   4.287
 6907SOL    HW121608   3.798   4.278   4.316
 6907SOL    HW221609   3.867   4.408   4.350
 6908SOL     OW21610   3.842   4.474   5.308
 6908SOL    HW121611   3.911   4.491   5.372
 6908SOL    HW221612   3.808   0.060   5.286
 6909SOL     OW21613   0.022   3.730   4.250
 6909SOL    HW121614   0.054   3.794   4.186
 6909SOL    HW221615   4.427   3.744   4.252
 6910SOL     OW21616   4.056   3.976   5.529
 6910SOL    HW121617   4.100   4.058   5.551
 6910SOL    HW221618   3.967   3.986   5.563
 6911SOL     OW21619   4.252   3.913   4.605
 6911SOL    HW121620   4.271   3.920   4.698
 6911SOL    HW221621   4.264   4.002   4.572
 6912SOL     OW21622   3.923   4.007   5.227
 6912SOL    HW121623   3.838   4.051   5.217
 6912SOL    HW221624   3.907   3.941   5.295
 6913SOL     OW21625   4.093   4.392   4.141
 6913SOL    HW121626   4.129   4.315   4.185
 6913SOL    HW221627   4.020   4.419   4.197
 6914SOL     OW21628   4.339   3.831   3.843
 6914SOL    HW121629   4.434   3.823   3.840
 6914SOL    HW221630   4.311   3.811   3.754
 6915SOL     OW21631   4.261   3.789   4.226
 6915SOL    HW121632   4.182   3.793   4.280
 6915SOL    HW221633   4.257   3.866   4.171
 6916SOL     OW21634   4.018   3.771   3.908
 6916SOL    HW121635   4.078   3.836   3.873
 6916SOL    HW221636   4.075   3.706   3.950
 6917SOL     OW21637   0.358   4.396   5.246
 6917SOL    HW121638   0.291   4.370   5.182
 6917SOL    HW221639   0.428   4.332   5.234
 6918SOL     OW21640   3.799   4.279   5.116
 6918SOL    HW121641   3.890   4.272   5.087
 6918SOL    HW221642   3.799   4.353   5.177
 6919SOL     OW21643   4.284   3.936   4.873
 6919SOL    HW121644   4.326   3.868   4.927
 6919SOL    HW221645   4.198   3.948   4.912
 6920SOL     OW21646   4.245   3.988   4.047
 6920SOL    HW121647   4.285   3.933   3.979
 6920SOL    HW221648   4.230   4.072   4.004
 6921SOL     OW21649   4.154   0.010   4.992
 6921SOL    HW121650   4.218   0.009   5.063
 6921SOL    HW221651   4.112   4.424   4.996
 6922SOL     OW21652   4.302   4.264   4.595
 6922SOL    HW121653   4.311   4.332   4.528
 6922SOL    HW221654   4.369   4.285   4.660
 6923SOL     OW21655   4.231   3.776   5.458
 6923SOL    HW121656   4.186   3.716   5.399
 6923SOL    HW221657   4.166   3.843   5.478
 6924SOL     OW21658   4.024   3.925   4.971
 6924SOL    HW121659   3.986   3.957   5.052
 6924SOL    HW221660   4.004   3.831   4.970
 6925SOL     OW21661   4.020   3.790   4.349
 6925SOL    HW121662   4.005   3.881   4.374
 6925SOL    HW221663   4.032   3.745   4.432
 6926SOL     OW21664   4.041   0.013   4.648
 6926SOL    HW121665   4.117   0.070   4.653
 6926SOL    HW221666   4.060   4.441   4.707
 6927SOL     OW21667   4.068   4.241   4.741
 6927SOL    HW121668   4.028   4.157   4.720
 6927SOL    HW221669   4.144   4.247   4.684
 6928SOL     OW21670   3.760   4.269   4.839
 6928SOL    HW121671   3.840   4.253   4.790
 6928SOL    HW221672   3.787   4.273   4.930
 6929SOL     OW21673   3.916   4.244   5.443
 6929SOL    HW121674   3.972   4.198   5.380
 6929SOL    HW221675   3.861   4.301   5.388
 6930SOL     OW21676   0.003   4.295   3.999
 6930SOL    HW121677   0.029   4.210   4.034
 6930SOL    HW221678   4.473   4.344   4.075
 6931SOL     OW21679   4.202   4.215   3.913
 6931SOL    HW121680   4.252   4.295   3.927
 6931SOL    HW221681   4.112   4.244   3.905
 6932SOL     OW21682   3.987   4.044   4.441
 6932SOL    HW121683   3.898   4.074   4.419
 6932SOL    HW221684   3.985   4.031   4.535
 6933SOL     OW21685   4.392   3.928   5.218
 6933SOL    HW121686   4.480   3.929   5.182
 6933SOL    HW221687   4.404   3.923   5.312
 6934SOL     OW21688   3.799   4.046   3.754
 6934SOL    HW121689   3.711   4.038   3.717
 6934SOL    HW221690   3.831   4.131   3.722
 6935SOL     OW21691   3.794   3.881   4.036
 6935SOL    HW121692   3.779   3.961   3.986
 6935SOL    HW221693   3.879   3.849   4.006
 6936SOL     OW21694   4.407   4.271   5.467
 6936SOL    HW121695   4.426   4.355   5.510
 6936SOL    HW221696   4.493   4.238   5.441
 6937SOL     OW21697   4.175   4.152   4.267
 6937SOL    HW121698   4.184   4.088   4.196
 6937SOL    HW221699   4.111   4.112   4.327
 6938SOL     OW21700   4.047   4.264   5.015
 6938SOL    HW121701   4.102   4.208   5.069
 6938SOL    HW221702   4.068   4.239   4.925
 6939SOL     OW21703   3.951   4.294   5.711
 6939SOL    HW121704   3.887   4.357   5.745
 6939SOL    HW221705   3.938   4.297   5.616
 6940SOL     OW21706   3.947   4.004   6.576
 6940SOL    HW121707   3.978   3.970   6.660
 6940SOL    HW221708   3.857   3.972   6.568
 6941SOL     OW21709   3.729   4.101   6.230
 6941SOL    HW121710   3.646   4.130   6.268
 6941SOL    HW221711   3.706   4.024   6.178
 6942SOL     OW21712   0.060   0.013   7.445
 6942SOL    HW121713   0.112   0.080   7.488
 6942SOL    HW221714   0.075   0.029   7.351
 6943SOL     OW21715   4.171   4.118   7.068
 6943SOL    HW121716   4.246   4.059   7.077
 6943SOL    HW221717   4.095   4.063   7.087
 6944SOL     OW21718   3.806   4.369   6.149
 6944SOL    HW121719   3.798   4.278   6.177
 6944SOL    HW221720   3.867   4.408   6.212
 6945SOL     OW21721   3.842   4.474   7.170
 6945SOL    HW121722   3.912   4.490   7.233
 6945SOL    HW221723   3.809   0.061   7.148
 6946SOL     OW21724   0.022   3.730   6.112
 6946SOL    HW121725   0.054   3.794   6.048
 6946SOL    HW221726   4.427   3.744   6.114
 6947SOL     OW21727   4.056   3.976   7.391
 6947SOL    HW121728   4.100   4.058   7.413
 6947SOL    HW221729   3.967   3.986   7.425
 6948SOL     OW21730   4.252   3.913   6.467
 6948SOL    HW121731   4.271   3.920   6.560
 6948SOL    HW221732   4.264   4.003   6.434
 6949SOL     OW21733   3.923   4.007   7.089
 6949SOL    HW121734   3.838   4.051   7.079
 6949SOL    HW221735   3.907   3.941   7.157
 6950SOL     OW21736   4.093   4.392   6.003
 6950SOL    HW121737   4.129   4.315   6.047
 6950SOL    HW221738   4.020   4.419   6.059
 6951SOL     OW21739   4.339   3.832   5.705
 6951SOL    HW121740   4.434   3.823   5.702
 6951SOL    HW221741   4.311   3.811   5.616
 6952SOL     OW21742   4.261   3.789   6.088
 6952SOL    HW121743   4.182   3.793   6.142
 6952SOL    HW221744   4.257   3.866   6.033
 6953SOL     OW21745   4.018   3.771   5.770
 6953SOL    HW121746   4.078   3.836   5.735
 6953SOL    HW221747   4.074   3.706   5.812
 6954SOL     OW21748   0.358   4.396   7.108
 6954SOL    HW121749   0.291   4.370   7.044
 6954SOL    HW221750   0.428   4.332   7.096
 6955SOL     OW21751   3.799   4.279   6.978
 6955SOL    HW121752   3.890   4.272   6.949
 6955SOL    HW221753   3.799   4.353   7.039
 6956SOL     OW21754   4.284   3.936   6.735
 6956SOL    HW121755   4.326   3.868   6.788
 6956SOL    HW221756   4.198   3.948   6.774
 6957SOL     OW21757   4.245   3.988   5.909
 6957SOL    HW121758   4.285   3.933   5.841
 6957SOL    HW221759   4.230   4.072   5.866
 6958SOL     OW21760   4.154   0.010   6.854
 6958SOL    HW121761   4.218   0.008   6.925
 6958SOL    HW221762   4.112   4.424   6.858
 6959SOL     OW21763   4.302   4.264   6.457
 6959SOL    HW121764   4.311   4.332   6.390
 6959SOL    HW221765   4.369   4.285   6.522
 6960SOL     OW21766   4.231   3.776   7.320
 6960SOL    HW121767   4.186   3.716   7.261
 6960SOL    HW221768   4.166   3.843   7.340
 6961SOL     OW21769   4.024   3.925   6.833
 6961SOL    HW121770   3.986   3.957   6.914
 6961SOL    HW221771   4.004   3.831   6.832
 6962SOL     OW21772   4.020   3.790   6.211
 6962SOL    HW121773   4.005   3.882   6.236
 6962SOL    HW221774   4.032   3.745   6.294
 6963SOL     OW21775   4.040   0.014   6.510
 6963SOL    HW121776   4.118   0.070   6.515
 6963SOL    HW221777   4.060   4.440   6.568
 6964SOL     OW21778   4.068   4.242   6.603
 6964SOL    HW121779   4.028   4.157   6.582
 6964SOL    HW221780   4.145   4.247   6.546
 6965SOL     OW21781   3.760   4.269   6.701
 6965SOL    HW121782   3.840   4.252   6.652
 6965SOL    HW221783   3.787   4.273   6.792
 6966SOL     OW21784   3.916   4.244   7.305
 6966SOL    HW121785   3.971   4.198   7.242
 6966SOL    HW221786   3.861   4.301   7.250
 6967SOL     OW21787   0.003   4.295   5.861
 6967SOL    HW121788   0.029   4.210   5.896
 6967SOL    HW221789   4.473   4.345   5.937
 6968SOL     OW21790   4.202   4.215   5.775
 6968SOL    HW121791   4.252   4.295   5.790
 6968SOL    HW221792   4.112   4.244   5.767
 6969SOL     OW21793   3.987   4.044   6.303
 6969SOL    HW121794   3.898   4.074   6.281
 6969SOL    HW221795   3.985   4.031   6.398
 6970SOL     OW21796   4.392   3.928   7.080
 6970SOL    HW121797   4.480   3.929   7.044
 6970SOL    HW221798   4.404   3.923   7.175
 6971SOL     OW21799   3.799   4.046   5.616
 6971SOL    HW121800   3.711   4.038   5.579
 6971SOL    HW221801   3.830   4.130   5.583
 6972SOL     OW21802   3.794   3.881   5.898
 6972SOL    HW121803   3.779   3.961   5.848
 6972SOL    HW221804   3.879   3.849   5.868
 6973SOL     OW21805   4.407   4.272   7.329
 6973SOL    HW121806   4.426   4.355   7.372
 6973SOL    HW221807   4.492   4.238   7.303
 6974SOL     OW21808   4.175   4.152   6.129
 6974SOL    HW121809   4.184   4.088   6.059
 6974SOL    HW221810   4.111   4.112   6.189
 6975SOL     OW21811   4.047   4.264   6.877
 6975SOL    HW121812   4.102   4.208   6.931
 6975SOL    HW221813   4.068   4.239   6.787
 6976SOL     OW21814   3.951   4.294   7.573
 6976SOL    HW121815   3.887   4.356   7.607
 6976SOL    HW221816   3.939   4.297   7.478
 6977SOL     OW21817   3.947   4.004   8.438
 6977SOL    HW121818   3.978   3.970   8.522
 6977SOL    HW221819   3.857   3.972   8.430
 6978SOL     OW21820   3.729   4.101   8.092
 6978SOL    HW121821   3.646   4.130   8.130
 6978SOL    HW221822   3.706   4.024   8.040
 6979SOL     OW21823   0.060   0.013   9.307
 6979SOL    HW121824   0.112   0.080   9.350
 6979SOL    HW221825   0.075   0.029   9.213
 6980SOL     OW21826   4.171   4.118   8.930
 6980SOL    HW121827   4.246   4.059   8.939
 6980SOL    HW221828   4.095   4.063   8.949
 6981SOL     OW21829   3.805   4.369   8.012
 6981SOL    HW121830   3.798   4.278   8.039
 6981SOL    HW221831   3.867   4.408   8.074
 6982SOL     OW21832   3.842   4.474   9.032
 6982SOL    HW121833   3.912   4.490   9.095
 6982SOL    HW221834   3.809   0.061   9.010
 6983SOL     OW21835   0.022   3.730   7.974
 6983SOL    HW121836   0.054   3.794   7.910
 6983SOL    HW221837   4.427   3.744   7.976
 6984SOL     OW21838   4.056   3.976   9.254
 6984SOL    HW121839   4.100   4.058   9.275
 6984SOL    HW221840   3.967   3.986   9.287
 6985SOL     OW21841   4.252   3.913   8.329
 6985SOL    HW121842   4.271   3.920   8.423
 6985SOL    HW221843   4.264   4.003   8.296
 6986SOL     OW21844   3.923   4.007   8.951
 6986SOL    HW121845   3.838   4.051   8.941
 6986SOL    HW221846   3.907   3.940   9.019
 6987SOL     OW21847   4.093   4.392   7.865
 6987SOL    HW121848   4.129   4.315   7.909
 6987SOL    HW221849   4.020   4.419   7.921
 6988SOL     OW21850   4.339   3.832   7.567
 6988SOL    HW121851   4.434   3.823   7.564
 6988SOL    HW221852   4.311   3.811   7.478
 6989SOL     OW21853   4.261   3.789   7.950
 6989SOL    HW121854   4.182   3.793   8.004
 6989SOL    HW221855   4.257   3.866   7.895
 6990SOL     OW21856   4.018   3.771   7.632
 6990SOL    HW121857   4.078   3.836   7.597
 6990SOL    HW221858   4.074   3.706   7.674
 6991SOL     OW21859   0.358   4.396   8.970
 6991SOL    HW121860   0.291   4.370   8.906
 6991SOL    HW221861   0.428   4.332   8.958
 6992SOL     OW21862   3.799   4.279   8.840
 6992SOL    HW121863   3.890   4.272   8.811
 6992SOL    HW221864   3.799   4.353   8.901
 6993SOL     OW21865   4.284   3.936   8.597
 6993SOL    HW121866   4.326   3.868   8.650
 6993SOL    HW221867   4.198   3.948   8.636
 6994SOL     OW21868   4.245   3.988   7.771
 6994SOL    HW121869   4.285   3.933   7.703
 6994SOL    HW221870   4.230   4.072   7.728
 6995SOL     OW21871   4.154   0.010   8.717
 6995SOL    HW121872   4.218   0.008   8.787
 6995SOL    HW221873   4.112   4.424   8.720
 6996SOL     OW21874   4.302   4.264   8.319
 6996SOL    HW121875   4.311   4.332   8.252
 6996SOL    HW221876   4.369   4.285   8.384
 6997SOL     OW21877   4.231   3.776   9.182
 6997SOL    HW121878   4.186   3.716   9.123
 6997SOL    HW221879   4.166   3.843   9.202
 6998SOL     OW21880   4.024   3.925   8.695
 6998SOL    HW121881   3.986   3.957   8.776
 6998SOL    HW221882   4.004   3.831   8.694
 6999SOL     OW21883   4.020   3.790   8.073
 6999SOL    HW121884   4.005   3.882   8.098
 6999SOL    HW221885   4.031   3.745   8.156
 7000SOL     OW21886   4.040   0.014   8.372
 7000SOL    HW121887   4.117   0.070   8.377
 7000SOL    HW221888   4.060   4.440   8.430
 7001SOL     OW21889   4.068   4.242   8.465
 7001SOL    HW121890   4.028   4.157   8.444
 7001SOL    HW221891   4.145   4.247   8.408
 7002SOL     OW21892   3.760   4.270   8.563
 7002SOL    HW121893   3.840   4.252   8.514
 7002SOL    HW221894   3.787   4.273   8.654
 7003SOL     OW21895   3.916   4.244   9.167
 7003SOL    HW121896   3.971   4.198   9.104
 7003SOL    HW221897   3.861   4.301   9.112
 7004SOL     OW21898   0.003   4.295   7.723
 7004SOL    HW121899   0.029   4.210   7.758
 7004SOL    HW221900   4.473   4.344   7.799
 7005SOL     OW21901   4.202   4.215   7.637
 7005SOL    HW121902   4.253   4.295   7.651
 7005SOL    HW221903   4.112   4.244   7.629
 7006SOL     OW21904   3.987   4.044   8.165
 7006SOL    HW121905   3.898   4.074   8.143
 7006SOL    HW221906   3.985   4.031   8.260
 7007SOL     OW21907   4.392   3.928   8.942
 7007SOL    HW121908   4.480   3.929   8.906
 7007SOL    HW221909   4.404   3.923   9.037
 7008SOL     OW21910   3.799   4.046   7.478
 7008SOL    HW121911   3.711   4.038   7.442
 7008SOL    HW221912   3.830   4.131   7.445
 7009SOL     OW21913   3.794   3.881   7.760
 7009SOL    HW121914   3.779   3.961   7.710
 7009SOL    HW221915   3.879   3.849   7.730
 7010SOL     OW21916   4.407   4.272   9.191
 7010SOL    HW121917   4.426   4.355   9.234
 7010SOL    HW221918   4.492   4.238   9.165
 7011SOL     OW21919   4.174   4.152   7.991
 7011SOL    HW121920   4.184   4.088   7.920
 7011SOL    HW221921   4.111   4.112   8.051
 7012SOL     OW21922   4.047   4.264   8.739
 7012SOL    HW121923   4.102   4.208   8.793
 7012SOL    HW221924   4.068   4.239   8.649
 7013SOL     OW21925   3.951   4.294   9.435
 7013SOL    HW121926   3.887   4.356   9.469
 7013SOL    HW221927   3.939   4.297   9.340
 7014SOL     OW21928   3.947   4.004  10.300
 7014SOL    HW121929   3.978   3.971  10.384
 7014SOL    HW221930   3.857   3.972  10.292
 7015SOL     OW21931   3.729   4.101   9.954
 7015SOL    HW121932   3.646   4.129   9.992
 7015SOL    HW221933   3.707   4.024   9.902
 7016SOL     OW21934   4.178   4.122  10.798
 7016SOL    HW121935   4.245   4.053  10.800
 7016SOL    HW221936   4.097   4.076  10.819
 7017SOL     OW21937   3.805   4.370   9.874
 7017SOL    HW121938   3.798   4.278   9.901
 7017SOL    HW221939   3.867   4.408   9.936
 7018SOL     OW21940   3.851   4.458  10.907
 7018SOL    HW121941   3.946   4.466  10.913
 7018SOL    HW221942   3.820   0.047  10.894
 7019SOL     OW21943   0.022   3.730   9.836
 7019SOL    HW121944   0.054   3.794   9.772
 7019SOL    HW221945   4.427   3.744   9.838
 7020SOL     OW21946   4.065   3.980   0.013
 7020SOL    HW121947   4.109   4.060   0.041
 7020SOL    HW221948   3.972   3.996   0.031
 7021SOL     OW21949   4.253   3.914  10.192
 7021SOL    HW121950   4.272   3.921  10.285
 7021SOL    HW221951   4.264   4.002  10.158
 7022SOL     OW21952   3.927   4.006  10.807
 7022SOL    HW121953   3.846   4.057  10.805
 7022SOL    HW221954   3.915   3.945  10.879
 7023SOL     OW21955   4.093   4.392   9.727
 7023SOL    HW121956   4.129   4.315   9.771
 7023SOL    HW221957   4.020   4.419   9.783
 7024SOL     OW21958   4.339   3.831   9.429
 7024SOL    HW121959   4.434   3.823   9.426
 7024SOL    HW221960   4.311   3.811   9.340
 7025SOL     OW21961   4.261   3.789   9.812
 7025SOL    HW121962   4.182   3.793   9.866
 7025SOL    HW221963   4.257   3.866   9.757
 7026SOL     OW21964   4.018   3.771   9.494
 7026SOL    HW121965   4.078   3.836   9.459
 7026SOL    HW221966   4.074   3.706   9.536
 7027SOL     OW21967   0.323   4.399  10.797
 7027SOL    HW121968   0.237   4.358  10.799
 7027SOL    HW221969   0.382   4.330  10.767
 7028SOL     OW21970   3.798   4.280  10.704
 7028SOL    HW121971   3.889   4.273  10.676
 7028SOL    HW221972   3.800   4.340  10.779
 7029SOL     OW21973   4.284   3.937  10.460
 7029SOL    HW121974   4.324   3.864  10.509
 7029SOL    HW221975   4.197   3.947  10.498
 7030SOL     OW21976   4.245   3.988   9.633
 7030SOL    HW121977   4.285   3.933   9.565
 7030SOL    HW221978   4.230   4.072   9.590
 7031SOL     OW21979   4.153   0.008  10.574
 7031SOL    HW121980   4.221   0.005  10.641
 7031SOL    HW221981   4.109   4.423  10.580
 7032SOL     OW21982   4.302   4.264  10.181
 7032SOL    HW121983   4.312   4.332  10.114
 7032SOL    HW221984   4.370   4.283  10.246
 7033SOL     OW21985   4.125   4.464  10.913
 7033SOL    HW121986   4.190   0.027  10.882
 7033SOL    HW221987   4.170   4.379  10.911
 7034SOL     OW21988   4.025   3.925  10.556
 7034SOL    HW121989   3.988   3.957  10.638
 7034SOL    HW221990   4.005   3.831  10.556
 7035SOL     OW21991   4.020   3.790   9.935
 7035SOL    HW121992   4.005   3.882   9.960
 7035SOL    HW221993   4.031   3.745  10.018
 7036SOL     OW21994   4.040   0.014  10.234
 7036SOL    HW121995   4.117   0.070  10.239
 7036SOL    HW221996   4.060   4.440  10.292
 7037SOL     OW21997   4.068   4.242  10.327
 7037SOL    HW121998   4.028   4.157  10.306
 7037SOL    HW221999   4.145   4.247  10.270
 7038SOL     OW22000   3.760   4.271  10.426
 7038SOL    HW122001   3.841   4.253  10.378
 7038SOL    HW222002   3.787   4.275  10.517
 7039SOL     OW22003   0.003   4.295   9.585
 7039SOL    HW122004   0.030   4.210   9.620
 7039SOL    HW222005   4.473   4.345   9.661
 7040SOL     OW22006   4.202   4.214   9.499
 7040SOL    HW122007   4.253   4.295   9.514
 7040SOL    HW222008   4.112   4.244   9.491
 7041SOL     OW22009   3.987   4.044  10.027
 7041SOL    HW122010   3.898   4.074  10.005
 7041SOL    HW222011   3.985   4.031  10.122
 7042SOL     OW22012   4.397   3.927  10.809
 7042SOL    HW122013   4.475   3.933  10.756
 7042SOL    HW222014   4.428   3.940  10.899
 7043SOL     OW22015   3.799   4.046   9.340
 7043SOL    HW122016   3.711   4.038   9.303
 7043SOL    HW222017   3.830   4.131   9.307
 7044SOL     OW22018   3.794   3.881   9.622
 7044SOL    HW122019   3.779   3.961   9.572
 7044SOL    HW222020   3.879   3.849   9.592
 7045SOL     OW22021   4.174   4.152   9.853
 7045SOL    HW122022   4.184   4.088   9.782
 7045SOL    HW222023   4.111   4.112   9.913
 7046SOL     OW22024   4.047   4.262  10.601
 7046SOL    HW122025   4.102   4.206  10.655
 7046SOL    HW222026   4.068   4.238  10.511
   4.50000   4.50000  11.10000
