2aCDOC_1PEG_l14
22224
    1LIG      O    1   1.947   2.006   0.044
    1LIG      C    2   2.020   2.019   0.197
    1LIG     C1    3   1.944   1.985   0.364
    1LIG     O1    4   2.001   2.029   0.518
    1LIG     C2    5   1.945   1.989   0.673
    1LIG     C3    6   2.014   2.048   0.834
    1LIG     O2    7   1.962   2.007   0.988
    1LIG     C4    8   2.026   2.043   1.138
    1LIG     C5    9   1.958   1.995   1.302
    1LIG     O3   10   2.021   2.032   1.452
    1LIG     C6   11   1.965   1.984   1.603
    1LIG     C7   12   2.032   2.034   1.765
    1LIG     O4   13   1.971   1.995   1.917
    1LIG     C8   14   2.030   2.033   2.070
    1LIG     C9   15   1.952   1.990   2.230
    1LIG     O5   16   2.005   2.034   2.384
    1LIG    C10   17   1.945   1.993   2.534
    1LIG    C11   18   2.012   2.051   2.693
    1LIG     O6   19   1.960   2.009   2.844
    1LIG    C12   20   2.024   2.044   2.993
    1LIG    C13   21   1.954   1.997   3.154
    1LIG     O7   22   2.017   2.034   3.304
    1LIG    C14   23   1.961   1.985   3.453
    1LIG    C15   24   2.029   2.036   3.614
    1LIG     O8   25   1.969   1.996   3.765
    1LIG    C16   26   2.029   2.032   3.917
    1LIG    C17   27   1.952   1.990   4.077
    1LIG     O9   28   2.005   2.033   4.230
    1LIG    C18   29   1.944   1.993   4.379
    1LIG    C19   30   2.011   2.050   4.538
    1LIG    O10   31   1.958   2.008   4.688
    1LIG    C20   32   2.023   2.044   4.836
    1LIG    C21   33   1.953   1.998   4.996
    1LIG    O11   34   2.017   2.034   5.145
    1LIG    C22   35   1.963   1.986   5.293
    1LIG    C23   36   2.033   2.035   5.452
    1LIG    O12   37   1.975   1.994   5.602
    1LIG    C24   38   2.044   2.021   5.751
    1LIG    C25   39   1.969   1.978   5.911
    1LIG    O13   40   2.030   2.009   6.064
    1LIG    C26   41   1.979   1.964   6.216
    1LIG    C27   42   2.042   2.024   6.375
    1LIG    O14   43   1.980   1.984   6.524
    1LIG    C28   44   2.031   2.035   6.673
    1LIG    C29   45   1.963   1.985   6.833
    1LIG    O15   46   2.010   2.033   6.986
    1LIG    C30   47   1.957   1.983   7.135
    1LIG    C31   48   2.025   2.035   7.296
    1LIG    O16   49   1.968   1.993   7.446
    1LIG    C32   50   2.028   2.033   7.596
    1LIG    C33   51   1.959   1.986   7.757
    1LIG    O17   52   2.017   2.032   7.906
    1LIG    C34   53   1.960   1.989   8.056
    1LIG    C35   54   2.018   2.049   8.216
    1LIG    O18   55   1.957   2.006   8.364
    1LIG    C36   56   2.012   2.041   8.515
    1LIG    C37   57   1.935   1.995   8.674
    1LIG    O19   58   1.990   2.035   8.827
    1LIG    C38   59   1.938   1.984   8.977
    1LIG    C39   60   2.010   2.032   9.137
    1LIG    O20   61   1.955   1.992   9.290
    1LIG    C40   62   2.017   2.034   9.440
    1LIG    C41   63   1.952   1.984   9.603
    1LIG    O21   64   2.011   2.029   9.752
    1LIG    C42   65   1.957   1.985   9.904
    1LIG    C43   66   2.027   2.040  10.063
    1LIG    O22   67   1.969   2.001  10.213
    1LIG    C44   68   2.028   2.039  10.364
    1LIG    C45   69   1.952   1.995  10.523
    1LIG    O23   70   2.009   2.033  10.675
    1LIG    C46   71   1.951   1.985  10.823
    1LIG    C47   72   2.020   2.031  10.985
    1LIG    O24   73   1.964   1.990  11.136
    1LIG    C48   74   2.023   2.033  11.287
    1LIG    C49   75   1.956   1.982  11.449
    1LIG    O25   76   2.014   2.027  11.600
    1LIG    C50   77   1.957   1.985  11.751
    1LIG    C51   78   2.029   2.037  11.911
    1LIG    O26   79   1.970   2.000  12.063
    1LIG    C52   80   2.029   2.038  12.214
    1LIG    C53   81   1.953   1.995  12.376
    1LIG    O27   82   2.010   2.032  12.529
    1LIG    C54   83   1.952   1.983  12.679
    1LIG    C55   84   2.021   2.029  12.844
    1LIG    O28   85   1.964   1.986  12.997
    1LIG    C56   86   2.021   2.027  13.152
    1LIG    C57   87   1.950   1.973  13.315
    1LIG    O29   88   2.006   2.007  13.472
    1LIG    C58   89   1.936   1.971  13.622
    1LIG    C59   90   2.016   1.973  13.791
    1LIG      H   91   2.053   2.123   0.204
    1LIG     H1   92   2.111   1.961   0.194
    1LIG     H2   93   1.936   1.876   0.366
    1LIG     H3   94   1.841   2.021   0.358
    1LIG     H4   95   1.950   1.880   0.679
    1LIG     H5   96   1.839   2.014   0.675
    1LIG     H6   97   2.011   2.157   0.829
    1LIG     H7   98   2.120   2.025   0.831
    1LIG     H8   99   2.036   2.152   1.142
    1LIG     H9  100   2.129   2.007   1.137
    1LIG    H10  101   1.945   1.886   1.299
    1LIG    H11  102   1.856   2.034   1.301
    1LIG    H12  103   1.970   1.875   1.603
    1LIG    H13  104   1.858   2.007   1.605
    1LIG    H14  105   2.038   2.143   1.762
    1LIG    H15  106   2.136   2.001   1.765
    1LIG    H16  107   2.045   2.141   2.073
    1LIG    H17  108   2.131   1.990   2.075
    1LIG    H18  109   1.945   1.881   2.230
    1LIG    H19  110   1.848   2.025   2.223
    1LIG    H20  111   1.948   1.883   2.539
    1LIG    H21  112   1.839   2.019   2.534
    1LIG    H22  113   2.010   2.160   2.689
    1LIG    H23  114   2.119   2.027   2.690
    1LIG    H24  115   2.034   2.153   2.997
    1LIG    H25  116   2.127   2.007   2.992
    1LIG    H26  117   1.941   1.889   3.151
    1LIG    H27  118   1.852   2.037   3.153
    1LIG    H28  119   1.966   1.876   3.453
    1LIG    H29  120   1.854   2.008   3.455
    1LIG    H30  121   2.035   2.144   3.610
    1LIG    H31  122   2.133   2.002   3.613
    1LIG    H32  123   2.047   2.140   3.921
    1LIG    H33  124   2.129   1.988   3.921
    1LIG    H34  125   1.944   1.881   4.077
    1LIG    H35  126   1.848   2.025   4.070
    1LIG    H36  127   1.946   1.883   4.385
    1LIG    H37  128   1.838   2.020   4.379
    1LIG    H38  129   2.009   2.160   4.534
    1LIG    H39  130   2.118   2.027   4.535
    1LIG    H40  131   2.035   2.153   4.839
    1LIG    H41  132   2.125   2.005   4.835
    1LIG    H42  133   1.938   1.890   4.994
    1LIG    H43  134   1.851   2.040   4.996
    1LIG    H44  135   1.967   1.876   5.292
    1LIG    H45  136   1.856   2.010   5.297
    1LIG    H46  137   2.037   2.144   5.449
    1LIG    H47  138   2.137   2.002   5.449
    1LIG    H48  139   2.069   2.127   5.757
    1LIG    H49  140   2.139   1.967   5.749
    1LIG    H50  141   1.948   1.871   5.904
    1LIG    H51  142   1.871   2.025   5.905
    1LIG    H52  143   1.990   1.855   6.222
    1LIG    H53  144   1.871   1.979   6.222
    1LIG    H54  145   2.043   2.133   6.370
    1LIG    H55  146   2.147   1.995   6.377
    1LIG    H56  147   2.027   2.144   6.670
    1LIG    H57  148   2.138   2.010   6.679
    1LIG    H58  149   1.980   1.879   6.833
    1LIG    H59  150   1.854   1.994   6.827
    1LIG    H60  151   1.964   1.873   7.135
    1LIG    H61  152   1.850   2.005   7.140
    1LIG    H62  153   2.026   2.145   7.293
    1LIG    H63  154   2.131   2.005   7.294
    1LIG    H64  155   2.036   2.142   7.598
    1LIG    H65  156   2.131   1.998   7.598
    1LIG    H66  157   1.958   1.877   7.756
    1LIG    H67  158   1.853   2.015   7.753
    1LIG    H68  159   1.972   1.881   8.063
    1LIG    H69  160   1.852   2.004   8.055
    1LIG    H70  161   2.013   2.158   8.211
    1LIG    H71  162   2.126   2.027   8.218
    1LIG    H72  163   2.025   2.150   8.519
    1LIG    H73  164   2.113   2.001   8.519
    1LIG    H74  165   1.927   1.886   8.672
    1LIG    H75  166   1.831   2.031   8.668
    1LIG    H76  167   1.942   1.875   8.974
    1LIG    H77  168   1.831   2.009   8.983
    1LIG    H78  169   2.018   2.140   9.134
    1LIG    H79  170   2.113   1.994   9.131
    1LIG    H80  171   2.022   2.143   9.442
    1LIG    H81  172   2.122   2.001   9.440
    1LIG    H82  173   1.953   1.874   9.601
    1LIG    H83  174   1.846   2.011   9.602
    1LIG    H84  175   1.959   1.876   9.907
    1LIG    H85  176   1.851   2.012   9.907
    1LIG    H86  177   2.031   2.149  10.059
    1LIG    H87  178   2.132   2.010  10.060
    1LIG    H88  179   2.039   2.148  10.366
    1LIG    H89  180   2.130   2.000  10.368
    1LIG    H90  181   1.938   1.887  10.521
    1LIG    H91  182   1.850   2.036  10.519
    1LIG    H92  183   1.951   1.875  10.821
    1LIG    H93  184   1.846   2.013  10.826
    1LIG    H94  185   2.028   2.140  10.982
    1LIG    H95  186   2.124   1.994  10.980
    1LIG    H96  187   2.026   2.143  11.289
    1LIG    H97  188   2.128   2.001  11.288
    1LIG    H98  189   1.956   1.873  11.447
    1LIG    H99  190   1.850   2.010  11.447
    1LIG   H100  191   1.955   1.876  11.754
    1LIG   H101  192   1.852   2.016  11.754
    1LIG   H102  193   2.038   2.146  11.906
    1LIG   H103  194   2.133   2.003  11.907
    1LIG   H104  195   2.040   2.147  12.216
    1LIG   H105  196   2.131   1.999  12.218
    1LIG   H106  197   1.940   1.887  12.373
    1LIG   H107  198   1.852   2.035  12.370
    1LIG   H108  199   1.954   1.874  12.677
    1LIG   H109  200   1.847   2.011  12.681
    1LIG   H110  201   2.027   2.138  12.841
    1LIG   H111  202   2.124   1.994  12.839
    1LIG   H112  203   2.023   2.136  13.156
    1LIG   H113  204   2.126   1.996  13.154
    1LIG   H114  205   1.948   1.864  13.308
    1LIG   H115  206   1.846   2.004  13.313
    1LIG   H116  207   1.903   1.868  13.612
    1LIG   H117  208   1.843   2.028  13.629
    1LIG   H118  209   2.109   2.028  13.783
    1LIG   H119  210   2.044   1.868  13.800
    2MOL     C1  211   1.659   1.592   6.425
    2MOL     H1  212   1.656   1.484   6.442
    2MOL     O1  213   1.615   1.662   6.541
    2MOL     C2  214   1.619   1.806   6.533
    2MOL     H2  215   1.723   1.842   6.519
    2MOL     C3  216   1.568   1.854   6.667
    2MOL     H3  217   1.477   1.797   6.691
    2MOL     H4  218   1.543   1.959   6.667
    2MOL     O2  219   1.671   1.829   6.762
    2MOL     C4  220   1.620   1.850   6.891
    2MOL     C5  221   1.563   1.628   6.311
    2MOL     H5  222   1.462   1.597   6.340
    2MOL     O3  223   1.600   1.559   6.190
    2MOL     C6  224   1.568   1.419   6.190
    2MOL     C7  225   1.559   1.779   6.286
    2MOL     H6  226   1.658   1.811   6.247
    2MOL     O4  227   1.452   1.807   6.193
    2MOL     C8  228   1.490   1.854   6.063
    2MOL     C9  229   1.531   1.857   6.416
    2MOL     H7  230   1.425   1.842   6.442
    2MOL     O5  231   1.559   1.996   6.389
    2MOL    C10  232   1.463   2.093   6.435
    2MOL     H8  233   1.365   2.045   6.452
    2MOL     O6  234   1.508   2.152   6.558
    2MOL    C11  235   1.638   2.217   6.554
    2MOL     H9  236   1.716   2.146   6.526
    2MOL    C12  237   1.667   2.269   6.695
    2MOL    H10  238   1.581   2.327   6.731
    2MOL    H11  239   1.755   2.333   6.696
    2MOL     O7  240   1.690   2.157   6.780
    2MOL    C13  241   1.724   2.197   6.913
    2MOL    C14  242   1.445   2.207   6.332
    2MOL    H12  243   1.369   2.278   6.366
    2MOL     O8  244   1.408   2.151   6.204
    2MOL    C15  245   1.272   2.104   6.197
    2MOL    C16  246   1.578   2.285   6.315
    2MOL    H13  247   1.649   2.216   6.271
    2MOL     O9  248   1.554   2.401   6.232
    2MOL    C17  249   1.597   2.388   6.095
    2MOL    C18  250   1.633   2.333   6.451
    2MOL    H14  251   1.569   2.413   6.490
    2MOL    O10  252   1.769   2.380   6.428
    2MOL    C19  253   1.802   2.513   6.477
    2MOL    H15  254   1.711   2.568   6.503
    2MOL    O11  255   1.887   2.501   6.592
    2MOL    C20  256   2.011   2.427   6.573
    2MOL    H16  257   1.990   2.323   6.545
    2MOL    C21  258   2.086   2.430   6.707
    2MOL    H17  259   2.085   2.532   6.747
    2MOL    H18  260   2.189   2.398   6.694
    2MOL    O12  261   2.021   2.342   6.800
    2MOL    C22  262   2.088   2.340   6.926
    2MOL    C23  263   1.879   2.592   6.368
    2MOL    H19  264   1.899   2.693   6.406
    2MOL    O13  265   1.801   2.598   6.248
    2MOL    C24  266   1.689   2.689   6.251
    2MOL    C25  267   2.015   2.525   6.336
    2MOL    H20  268   1.997   2.429   6.286
    2MOL    O14  269   2.091   2.613   6.250
    2MOL    C26  270   2.091   2.571   6.112
    2MOL    C27  271   2.097   2.494   6.463
    2MOL    H21  272   2.141   2.587   6.501
    2MOL    O15  273   2.200   2.400   6.423
    2MOL    C28  274   2.337   2.436   6.451
    2MOL    H22  275   2.346   2.543   6.471
    2MOL    O16  276   2.382   2.360   6.566
    2MOL    C29  277   2.373   2.215   6.554
    2MOL    H23  278   2.268   2.186   6.541
    2MOL    C30  279   2.423   2.155   6.687
    2MOL    H24  280   2.386   2.052   6.694
    2MOL    H25  281   2.382   2.212   6.771
    2MOL    O17  282   2.567   2.157   6.693
    2MOL    C31  283   2.619   2.061   6.787
    2MOL    C32  284   2.428   2.397   6.332
    2MOL    H26  285   2.532   2.424   6.358
    2MOL    O18  286   2.388   2.468   6.213
    2MOL    C33  287   2.425   2.607   6.211
    2MOL    C34  288   2.423   2.246   6.304
    2MOL    H27  289   2.323   2.219   6.267
    2MOL    O19  290   2.526   2.214   6.209
    2MOL    C35  291   2.478   2.178   6.079
    2MOL    C36  292   2.454   2.166   6.431
    2MOL    H28  293   2.561   2.176   6.450
    2MOL    O20  294   2.419   2.028   6.401
    2MOL    C37  295   2.519   1.931   6.439
    2MOL    H29  296   2.615   1.980   6.459
    2MOL    O21  297   2.474   1.863   6.556
    2MOL    C38  298   2.348   1.792   6.544
    2MOL    H30  299   2.267   1.863   6.522
    2MOL    C39  300   2.319   1.730   6.681
    2MOL    H31  301   2.212   1.713   6.688
    2MOL    H32  302   2.347   1.800   6.761
    2MOL    O22  303   2.392   1.607   6.695
    2MOL    C40  304   2.341   1.523   6.799
    2MOL    C41  305   2.539   1.825   6.328
    2MOL    H33  306   2.614   1.754   6.366
    2MOL    O23  307   2.584   1.882   6.205
    2MOL    C42  308   2.723   1.916   6.202
    2MOL    C43  309   2.412   1.744   6.300
    2MOL    H34  310   2.336   1.809   6.254
    2MOL    O24  311   2.448   1.632   6.215
    2MOL    C44  312   2.405   1.642   6.078
    2MOL    C45  313   2.354   1.687   6.430
    2MOL    H35  314   2.419   1.603   6.459
    2MOL    O25  315   2.222   1.642   6.397
    2MOL    C46  316   2.187   1.510   6.445
    2MOL    H36  317   2.276   1.451   6.470
    2MOL    O26  318   2.106   1.526   6.561
    2MOL    C47  319   1.986   1.606   6.544
    2MOL    H37  320   2.010   1.709   6.517
    2MOL    C48  321   1.916   1.604   6.678
    2MOL    H38  322   1.896   1.500   6.707
    2MOL    H39  323   1.822   1.660   6.675
    2MOL    O27  324   2.004   1.663   6.774
    2MOL    C49  325   1.952   1.653   6.905
    2MOL    C50  326   2.104   1.434   6.338
    2MOL    H40  327   2.079   1.335   6.376
    2MOL    O28  328   2.181   1.423   6.216
    2MOL    C51  329   2.296   1.338   6.225
    2MOL    C52  330   1.973   1.510   6.307
    2MOL    H41  331   1.997   1.605   6.258
    2MOL    O29  332   1.888   1.427   6.225
    2MOL    C53  333   1.883   1.466   6.087
    2MOL    C54  334   1.896   1.542   6.436
    2MOL    H42  335   1.854   1.449   6.475
    2MOL    O30  336   1.794   1.636   6.397
    2MOL    H43  337   1.723   2.111   6.982
    2MOL    H44  338   1.823   2.243   6.915
    2MOL    H45  339   1.651   2.270   6.945
    2MOL    H46  340   1.692   1.823   6.968
    2MOL    H47  341   1.590   1.955   6.903
    2MOL    H48  342   1.530   1.788   6.899
    2MOL    H49  343   2.026   1.685   6.980
    2MOL    H50  344   1.862   1.715   6.915
    2MOL    H51  345   1.924   1.550   6.920
    2MOL    H52  346   2.414   1.446   6.825
    2MOL    H53  347   2.319   1.584   6.886
    2MOL    H54  348   2.247   1.476   6.768
    2MOL    H55  349   2.725   2.079   6.807
    2MOL    H56  350   2.563   2.066   6.881
    2MOL    H57  351   2.608   1.959   6.749
    2MOL    H58  352   2.033   2.280   6.999
    2MOL    H59  353   2.190   2.302   6.916
    2MOL    H60  354   2.094   2.443   6.962
    2MOL    H61  355   2.754   1.931   6.098
    2MOL    H62  356   2.740   2.010   6.256
    2MOL    H63  357   2.784   1.836   6.246
    2MOL    H64  358   2.563   2.158   6.013
    2MOL    H65  359   2.417   2.087   6.086
    2MOL    H66  360   2.419   2.259   6.036
    2MOL    H67  361   2.403   2.650   6.112
    2MOL    H68  362   2.367   2.663   6.285
    2MOL    H69  363   2.532   2.619   6.232
    2MOL    H70  364   2.149   2.642   6.052
    2MOL    H71  365   2.136   2.472   6.102
    2MOL    H72  366   1.989   2.567   6.073
    2MOL    H73  367   1.643   2.694   6.151
    2MOL    H74  368   1.613   2.654   6.322
    2MOL    H75  369   1.721   2.789   6.279
    2MOL    H76  370   1.565   2.475   6.037
    2MOL    H77  371   1.707   2.383   6.090
    2MOL    H78  372   1.556   2.297   6.049
    2MOL    H79  373   1.251   2.070   6.095
    2MOL    H80  374   1.257   2.021   6.266
    2MOL    H81  375   1.202   2.185   6.223
    2MOL    H82  376   1.417   1.823   5.988
    2MOL    H83  377   1.493   1.964   6.063
    2MOL    H84  378   1.589   1.815   6.035
    2MOL    H85  379   1.583   1.378   6.089
    2MOL    H86  380   1.632   1.364   6.260
    2MOL    H87  381   1.463   1.403   6.218
    2MOL    H88  382   1.822   1.394   6.031
    2MOL    H89  383   1.840   1.566   6.077
    2MOL    H90  384   1.984   1.467   6.045
    2MOL    H91  385   2.338   1.321   6.125
    2MOL    H92  386   2.374   1.385   6.287
    2MOL    H93  387   2.269   1.241   6.269
    2MOL    H94  388   2.446   1.559   6.019
    2MOL    H95  389   2.297   1.636   6.073
    2MOL    H96  390   2.438   1.737   6.033
    3MOL     C1  391   1.652   1.593   7.463
    3MOL     H1  392   1.649   1.485   7.477
    3MOL     O1  393   1.612   1.659   7.584
    3MOL     C2  394   1.611   1.804   7.583
    3MOL     H2  395   1.714   1.843   7.570
    3MOL     C3  396   1.552   1.850   7.717
    3MOL     H3  397   1.450   1.810   7.726
    3MOL     H4  398   1.547   1.959   7.719
    3MOL     O2  399   1.633   1.803   7.825
    3MOL     C4  400   1.585   1.845   7.953
    3MOL     C5  401   1.550   1.632   7.353
    3MOL     H5  402   1.451   1.592   7.381
    3MOL     O3  403   1.592   1.576   7.227
    3MOL     C6  404   1.558   1.439   7.211
    3MOL     C7  405   1.537   1.783   7.337
    3MOL     H6  406   1.629   1.820   7.288
    3MOL     O4  407   1.418   1.814   7.261
    3MOL     C8  408   1.449   1.844   7.127
    3MOL     C9  409   1.522   1.858   7.468
    3MOL     H7  410   1.416   1.850   7.499
    3MOL     O5  411   1.556   1.995   7.434
    3MOL    C10  412   1.458   2.095   7.469
    3MOL     H8  413   1.359   2.048   7.483
    3MOL     O6  414   1.501   2.157   7.590
    3MOL    C11  415   1.634   2.218   7.584
    3MOL     H9  416   1.710   2.144   7.558
    3MOL    C12  417   1.663   2.274   7.724
    3MOL    H10  418   1.583   2.342   7.753
    3MOL    H11  419   1.758   2.328   7.723
    3MOL     O7  420   1.671   2.164   7.815
    3MOL    C13  421   1.701   2.209   7.948
    3MOL    C14  422   1.446   2.206   7.360
    3MOL    H12  423   1.366   2.274   7.389
    3MOL     O8  424   1.416   2.148   7.230
    3MOL    C15  425   1.279   2.112   7.210
    3MOL    C16  426   1.576   2.288   7.345
    3MOL    H13  427   1.651   2.226   7.296
    3MOL     O9  428   1.546   2.409   7.272
    3MOL    C17  429   1.592   2.405   7.137
    3MOL    C18  430   1.632   2.333   7.481
    3MOL    H14  431   1.569   2.413   7.519
    3MOL    O10  432   1.767   2.379   7.455
    3MOL    C19  433   1.796   2.513   7.500
    3MOL    H15  434   1.704   2.566   7.526
    3MOL    O11  435   1.884   2.506   7.613
    3MOL    C20  436   2.009   2.435   7.594
    3MOL    H16  437   1.988   2.331   7.566
    3MOL    C21  438   2.086   2.439   7.728
    3MOL    H17  439   2.096   2.543   7.761
    3MOL    H18  440   2.186   2.398   7.715
    3MOL    O12  441   2.016   2.362   7.826
    3MOL    C22  442   2.086   2.354   7.951
    3MOL    C23  443   1.870   2.595   7.391
    3MOL    H19  444   1.886   2.696   7.431
    3MOL    O13  445   1.794   2.603   7.269
    3MOL    C24  446   1.686   2.698   7.268
    3MOL    C25  447   2.007   2.537   7.356
    3MOL    H20  448   1.992   2.445   7.297
    3MOL    O14  449   2.079   2.638   7.283
    3MOL    C26  450   2.099   2.605   7.145
    3MOL    C27  451   2.092   2.500   7.479
    3MOL    H21  452   2.139   2.591   7.517
    3MOL    O15  453   2.192   2.406   7.431
    3MOL    C28  454   2.329   2.435   7.465
    3MOL    H22  455   2.341   2.542   7.488
    3MOL    O16  456   2.365   2.356   7.579
    3MOL    C29  457   2.356   2.212   7.565
    3MOL    H23  458   2.253   2.184   7.540
    3MOL    C30  459   2.392   2.153   7.703
    3MOL    H24  460   2.376   2.044   7.702
    3MOL    H25  461   2.329   2.197   7.780
    3MOL    O17  462   2.530   2.183   7.728
    3MOL    C31  463   2.596   2.104   7.827
    3MOL    C32  464   2.425   2.399   7.349
    3MOL    H26  465   2.527   2.429   7.378
    3MOL    O18  466   2.387   2.466   7.227
    3MOL    C33  467   2.425   2.605   7.218
    3MOL    C34  468   2.426   2.248   7.322
    3MOL    H27  469   2.331   2.217   7.278
    3MOL    O19  470   2.537   2.223   7.233
    3MOL    C35  471   2.499   2.188   7.100
    3MOL    C36  472   2.450   2.165   7.450
    3MOL    H28  473   2.554   2.178   7.480
    3MOL    O20  474   2.420   2.027   7.417
    3MOL    C37  475   2.524   1.931   7.452
    3MOL    H29  476   2.620   1.981   7.467
    3MOL    O21  477   2.482   1.863   7.572
    3MOL    C38  478   2.354   1.794   7.564
    3MOL    H30  479   2.275   1.865   7.537
    3MOL    C39  480   2.322   1.737   7.703
    3MOL    H31  481   2.218   1.702   7.704
    3MOL    H32  482   2.330   1.816   7.778
    3MOL    O22  483   2.414   1.629   7.731
    3MOL    C40  484   2.370   1.544   7.838
    3MOL    C41  485   2.540   1.825   7.339
    3MOL    H33  486   2.624   1.760   7.365
    3MOL    O23  487   2.564   1.889   7.212
    3MOL    C42  488   2.698   1.936   7.190
    3MOL    C43  489   2.414   1.738   7.323
    3MOL    H34  490   2.336   1.799   7.274
    3MOL    O24  491   2.450   1.624   7.243
    3MOL    C44  492   2.405   1.632   7.108
    3MOL    C45  493   2.357   1.685   7.455
    3MOL    H35  494   2.420   1.600   7.487
    3MOL    O25  495   2.222   1.642   7.425
    3MOL    C46  496   2.185   1.510   7.471
    3MOL    H36  497   2.274   1.450   7.494
    3MOL    O26  498   2.103   1.524   7.588
    3MOL    C47  499   1.982   1.604   7.575
    3MOL    H37  500   2.007   1.707   7.548
    3MOL    C48  501   1.908   1.602   7.709
    3MOL    H38  502   1.869   1.502   7.730
    3MOL    H39  503   1.824   1.673   7.705
    3MOL    O27  504   1.997   1.641   7.815
    3MOL    C49  505   1.929   1.657   7.940
    3MOL    C50  506   2.101   1.436   7.363
    3MOL    H40  507   2.080   1.334   7.398
    3MOL    O28  508   2.174   1.431   7.238
    3MOL    C51  509   2.281   1.335   7.230
    3MOL    C52  510   1.967   1.508   7.337
    3MOL    H41  511   1.987   1.601   7.283
    3MOL    O29  512   1.880   1.418   7.264
    3MOL    C53  513   1.873   1.456   7.128
    3MOL    C54  514   1.891   1.544   7.465
    3MOL    H42  515   1.847   1.452   7.502
    3MOL    O30  516   1.786   1.637   7.429
    3MOL    H43  517   1.696   2.126   8.018
    3MOL    H44  518   1.801   2.254   7.951
    3MOL    H45  519   1.626   2.283   7.978
    3MOL    H46  520   1.653   1.812   8.032
    3MOL    H47  521   1.577   1.955   7.956
    3MOL    H48  522   1.486   1.803   7.971
    3MOL    H49  523   2.002   1.684   8.018
    3MOL    H50  524   1.854   1.737   7.933
    3MOL    H51  525   1.879   1.564   7.969
    3MOL    H52  526   2.432   1.453   7.842
    3MOL    H53  527   2.377   1.597   7.934
    3MOL    H54  528   2.266   1.513   7.822
    3MOL    H55  529   2.703   2.128   7.828
    3MOL    H56  530   2.554   2.124   7.926
    3MOL    H57  531   2.585   1.998   7.801
    3MOL    H58  532   2.034   2.285   8.019
    3MOL    H59  533   2.188   2.316   7.936
    3MOL    H60  534   2.091   2.453   7.998
    3MOL    H61  535   2.712   1.962   7.084
    3MOL    H62  536   2.717   2.026   7.250
    3MOL    H63  537   2.770   1.858   7.217
    3MOL    H64  538   2.590   2.177   7.042
    3MOL    H65  539   2.443   2.093   7.100
    3MOL    H66  540   2.437   2.266   7.055
    3MOL    H67  541   2.404   2.643   7.117
    3MOL    H68  542   2.368   2.665   7.290
    3MOL    H69  543   2.532   2.617   7.238
    3MOL    H70  544   2.153   2.684   7.093
    3MOL    H71  545   2.157   2.512   7.139
    3MOL    H72  546   2.002   2.589   7.096
    3MOL    H73  547   1.647   2.709   7.166
    3MOL    H74  548   1.604   2.664   7.333
    3MOL    H75  549   1.721   2.797   7.303
    3MOL    H76  550   1.579   2.503   7.089
    3MOL    H77  551   1.698   2.378   7.134
    3MOL    H78  552   1.533   2.330   7.083
    3MOL    H79  553   1.263   2.084   7.104
    3MOL    H80  554   1.253   2.026   7.273
    3MOL    H81  555   1.213   2.196   7.234
    3MOL    H82  556   1.361   1.873   7.069
    3MOL    H83  557   1.522   1.926   7.123
    3MOL    H84  558   1.492   1.753   7.084
    3MOL    H85  559   1.592   1.402   7.114
    3MOL    H86  560   1.605   1.378   7.290
    3MOL    H87  561   1.449   1.426   7.217
    3MOL    H88  562   1.802   1.394   7.073
    3MOL    H89  563   1.839   1.560   7.120
    3MOL    H90  564   1.972   1.445   7.083
    3MOL    H91  565   2.314   1.325   7.126
    3MOL    H92  566   2.366   1.369   7.290
    3MOL    H93  567   2.248   1.237   7.266
    3MOL    H94  568   2.437   1.542   7.055
    3MOL    H95  569   2.296   1.638   7.105
    3MOL    H96  570   2.447   1.720   7.058
    4SOL     OW  571   0.232   0.653   0.119
    4SOL    HW1  572   0.137   0.645   0.133
    4SOL    HW2  573   0.248   0.605   0.038
    5SOL     OW  574   0.224   0.289   0.983
    5SOL    HW1  575   0.248   0.249   1.067
    5SOL    HW2  576   0.130   0.275   0.976
    6SOL     OW  577   0.019   0.386   0.632
    6SOL    HW1  578   3.929   0.398   0.665
    6SOL    HW2  579   0.025   0.292   0.615
    7SOL     OW  580   0.579   1.287   1.188
    7SOL    HW1  581   0.492   1.289   1.147
    7SOL    HW2  582   0.593   1.375   1.221
    8SOL     OW  583   1.564   1.511   0.708
    8SOL    HW1  584   1.520   1.493   0.791
    8SOL    HW2  585   1.492   1.517   0.644
    9SOL     OW  586   1.133   0.698   0.699
    9SOL    HW1  587   1.180   0.780   0.687
    9SOL    HW2  588   1.085   0.710   0.781
   10SOL     OW  589   1.758   0.623   0.218
   10SOL    HW1  590   1.777   0.597   0.128
   10SOL    HW2  591   1.761   0.542   0.268
   11SOL     OW  592   0.755   1.140   1.040
   11SOL    HW1  593   0.690   1.175   1.102
   11SOL    HW2  594   0.790   1.218   0.996
   12SOL     OW  595   0.869   0.773   1.823
   12SOL    HW1  596   0.858   0.844   1.886
   12SOL    HW2  597   0.892   0.816   1.741
   13SOL     OW  598   0.685   1.003   0.647
   13SOL    HW1  599   0.750   0.990   0.715
   13SOL    HW2  600   0.616   1.054   0.689
   14SOL     OW  601   0.711   1.149   1.814
   14SOL    HW1  602   0.759   1.228   1.842
   14SOL    HW2  603   0.629   1.183   1.778
   15SOL     OW  604   0.351   1.402   1.078
   15SOL    HW1  605   0.269   1.383   1.032
   15SOL    HW2  606   0.399   1.460   1.019
   16SOL     OW  607   1.461   1.501   1.355
   16SOL    HW1  608   1.513   1.581   1.364
   16SOL    HW2  609   1.397   1.506   1.427
   17SOL     OW  610   0.456   0.408   1.497
   17SOL    HW1  611   0.537   0.357   1.495
   17SOL    HW2  612   0.386   0.342   1.499
   18SOL     OW  613   1.611   0.450   0.735
   18SOL    HW1  614   1.540   0.483   0.680
   18SOL    HW2  615   1.634   0.523   0.792
   19SOL     OW  616   0.224   1.709   0.473
   19SOL    HW1  617   0.242   1.790   0.521
   19SOL    HW2  618   0.287   1.711   0.400
   20SOL     OW  619   1.137   1.342   1.693
   20SOL    HW1  620   1.178   1.336   1.779
   20SOL    HW2  621   1.084   1.262   1.686
   21SOL     OW  622   0.244   1.446   0.543
   21SOL    HW1  623   0.223   1.538   0.528
   21SOL    HW2  624   0.171   1.412   0.593
   22SOL     OW  625   0.247   1.067   0.884
   22SOL    HW1  626   0.266   0.982   0.924
   22SOL    HW2  627   0.195   1.113   0.950
   23SOL     OW  628   0.612   1.792   1.428
   23SOL    HW1  629   0.529   1.774   1.473
   23SOL    HW2  630   0.634   1.881   1.454
   24SOL     OW  631   0.563   0.981   0.163
   24SOL    HW1  632   0.587   1.028   0.082
   24SOL    HW2  633   0.619   1.021   0.230
   25SOL     OW  634   1.580   0.139   1.456
   25SOL    HW1  635   1.608   0.212   1.401
   25SOL    HW2  636   1.550   0.180   1.537
   26SOL     OW  637   0.138   0.652   0.568
   26SOL    HW1  638   0.096   0.567   0.575
   26SOL    HW2  639   0.102   0.702   0.642
   27SOL     OW  640   0.023   1.600   0.136
   27SOL    HW1  641   0.027   1.504   0.145
   27SOL    HW2  642   3.969   1.629   0.209
   28SOL     OW  643   1.687   0.917   0.642
   28SOL    HW1  644   1.771   0.876   0.624
   28SOL    HW2  645   1.667   0.968   0.564
   29SOL     OW  646   1.648   1.106   0.430
   29SOL    HW1  647   1.736   1.108   0.393
   29SOL    HW2  648   1.652   1.168   0.504
   30SOL     OW  649   0.138   0.755   1.589
   30SOL    HW1  650   0.234   0.750   1.586
   30SOL    HW2  651   0.120   0.845   1.617
   31SOL     OW  652   0.612   1.386   0.736
   31SOL    HW1  653   0.566   1.303   0.745
   31SOL    HW2  654   0.597   1.412   0.645
   32SOL     OW  655   1.288   1.238   1.423
   32SOL    HW1  656   1.320   1.170   1.363
   32SOL    HW2  657   1.346   1.232   1.499
   33SOL     OW  658   0.822   0.003   0.520
   33SOL    HW1  659   0.866   0.084   0.493
   33SOL    HW2  660   0.729   0.024   0.519
   34SOL     OW  661   0.185   0.951   1.277
   34SOL    HW1  662   0.273   0.916   1.265
   34SOL    HW2  663   0.131   0.908   1.211
   35SOL     OW  664   1.530   0.996   0.204
   35SOL    HW1  665   1.463   0.938   0.238
   35SOL    HW2  666   1.572   1.032   0.283
   36SOL     OW  667   1.185   1.808   1.623
   36SOL    HW1  668   1.195   1.867   1.549
   36SOL    HW2  669   1.202   1.721   1.587
   37SOL     OW  670   0.343   0.252   1.834
   37SOL    HW1  671   0.386   0.336   1.817
   37SOL    HW2  672   0.252   0.276   1.853
   38SOL     OW  673   1.465   1.420   0.950
   38SOL    HW1  674   1.398   1.435   1.017
   38SOL    HW2  675   1.453   1.328   0.924
   39SOL     OW  676   1.669   1.737   0.577
   39SOL    HW1  677   1.627   1.724   0.492
   39SOL    HW2  678   1.646   1.659   0.627
   40SOL     OW  679   0.595   0.717   0.263
   40SOL    HW1  680   0.597   0.800   0.216
   40SOL    HW2  681   0.536   0.732   0.337
   41SOL     OW  682   1.275   0.367   0.940
   41SOL    HW1  683   1.188   0.328   0.947
   41SOL    HW2  684   1.332   0.305   0.986
   42SOL     OW  685   1.560   1.725   0.315
   42SOL    HW1  686   1.634   1.664   0.319
   42SOL    HW2  687   1.524   1.714   0.227
   43SOL     OW  688   0.794   0.616   1.454
   43SOL    HW1  689   0.765   0.591   1.541
   43SOL    HW2  690   0.755   0.551   1.396
   44SOL     OW  691   1.392   0.476   1.677
   44SOL    HW1  692   1.398   0.521   1.762
   44SOL    HW2  693   1.451   0.401   1.686
   45SOL     OW  694   0.953   0.887   1.583
   45SOL    HW1  695   1.008   0.818   1.547
   45SOL    HW2  696   0.905   0.921   1.508
   46SOL     OW  697   0.991   0.403   1.239
   46SOL    HW1  698   0.907   0.425   1.279
   46SOL    HW2  699   0.969   0.373   1.151
   47SOL     OW  700   1.051   0.702   0.428
   47SOL    HW1  701   1.067   0.693   0.522
   47SOL    HW2  702   0.969   0.656   0.414
   48SOL     OW  703   0.082   0.827   0.790
   48SOL    HW1  704   0.156   0.794   0.841
   48SOL    HW2  705   0.098   0.921   0.781
   49SOL     OW  706   0.130   1.860   1.575
   49SOL    HW1  707   0.137   1.826   1.664
   49SOL    HW2  708   0.037   1.848   1.553
   50SOL     OW  709   0.875   0.361   0.220
   50SOL    HW1  710   0.912   0.418   0.153
   50SOL    HW2  711   0.879   0.273   0.182
   51SOL     OW  712   1.709   0.576   1.829
   51SOL    HW1  713   1.671   0.649   1.781
   51SOL    HW2  714   1.734   0.512   1.761
   52SOL     OW  715   1.379   1.142   0.543
   52SOL    HW1  716   1.456   1.129   0.488
   52SOL    HW2  717   1.325   1.204   0.494
   53SOL     OW  718   0.561   0.196   0.882
   53SOL    HW1  719   0.564   0.218   0.975
   53SOL    HW2  720   0.549   0.280   0.837
   54SOL     OW  721   1.006   1.443   0.475
   54SOL    HW1  722   0.971   1.516   0.425
   54SOL    HW2  723   0.984   1.464   0.566
   55SOL     OW  724   0.365   1.816   0.870
   55SOL    HW1  725   0.429   1.745   0.877
   55SOL    HW2  726   0.415   1.896   0.885
   56SOL     OW  727   1.799   1.052   0.870
   56SOL    HW1  728   1.744   1.038   0.793
   56SOL    HW2  729   1.737   1.060   0.943
   57SOL     OW  730   1.228   1.539   1.513
   57SOL    HW1  731   1.214   1.466   1.574
   57SOL    HW2  732   1.164   1.524   1.444
   58SOL     OW  733   0.310   0.933   0.240
   58SOL    HW1  734   0.401   0.947   0.213
   58SOL    HW2  735   0.298   0.838   0.233
   59SOL     OW  736   1.477   0.746   0.730
   59SOL    HW1  737   1.472   0.703   0.816
   59SOL    HW2  738   1.556   0.801   0.736
   60SOL     OW  739   0.467   1.260   1.737
   60SOL    HW1  740   0.441   1.269   1.645
   60SOL    HW2  741   0.385   1.264   1.786
   61SOL     OW  742   1.120   1.779   0.230
   61SOL    HW1  743   1.057   1.732   0.286
   61SOL    HW2  744   1.149   1.714   0.167
   62SOL     OW  745   0.200   0.295   1.499
   62SOL    HW1  746   0.107   0.315   1.498
   62SOL    HW2  747   0.208   0.225   1.565
   63SOL     OW  748   1.632   1.374   0.088
   63SOL    HW1  749   1.596   1.456   0.054
   63SOL    HW2  750   1.564   1.309   0.069
   64SOL     OW  751   0.478   1.732   0.323
   64SOL    HW1  752   0.518   1.791   0.387
   64SOL    HW2  753   0.552   1.699   0.272
   65SOL     OW  754   1.440   0.142   0.395
   65SOL    HW1  755   1.394   0.058   0.386
   65SOL    HW2  756   1.519   0.122   0.444
   66SOL     OW  757   0.251   1.791   1.231
   66SOL    HW1  758   0.298   1.727   1.285
   66SOL    HW2  759   0.248   1.752   1.144
   67SOL     OW  760   0.937   1.699   0.898
   67SOL    HW1  761   1.016   1.648   0.920
   67SOL    HW2  762   0.895   1.648   0.829
   68SOL     OW  763   0.396   0.695   0.471
   68SOL    HW1  764   0.420   0.603   0.483
   68SOL    HW2  765   0.304   0.699   0.498
   69SOL     OW  766   1.529   0.230   1.727
   69SOL    HW1  767   1.527   0.255   1.819
   69SOL    HW2  768   1.508   0.137   1.727
   70SOL     OW  769   0.628   0.108   0.122
   70SOL    HW1  770   0.724   0.107   0.126
   70SOL    HW2  771   0.608   0.131   0.031
   71SOL     OW  772   0.777   0.283   1.766
   71SOL    HW1  773   0.848   0.218   1.769
   71SOL    HW2  774   0.719   0.258   1.837
   72SOL     OW  775   0.876   1.522   1.194
   72SOL    HW1  776   0.860   1.485   1.107
   72SOL    HW2  777   0.946   1.468   1.231
   73SOL     OW  778   1.340   0.587   1.430
   73SOL    HW1  779   1.371   0.558   1.516
   73SOL    HW2  780   1.375   0.676   1.421
   74SOL     OW  781   0.816   1.394   0.940
   74SOL    HW1  782   0.900   1.382   0.897
   74SOL    HW2  783   0.753   1.395   0.868
   75SOL     OW  784   0.929   0.512   0.900
   75SOL    HW1  785   0.905   0.503   0.808
   75SOL    HW2  786   0.956   0.423   0.926
   76SOL     OW  787   0.550   0.052   0.498
   76SOL    HW1  788   0.476   0.059   0.557
   76SOL    HW2  789   0.544   0.130   0.443
   77SOL     OW  790   1.430   1.204   0.045
   77SOL    HW1  791   1.450   1.123   0.092
   77SOL    HW2  792   1.338   1.221   0.064
   78SOL     OW  793   0.357   3.988   0.173
   78SOL    HW1  794   0.322   0.073   0.146
   78SOL    HW2  795   0.428   0.010   0.234
   79SOL     OW  796   0.941   0.249   0.466
   79SOL    HW1  797   0.909   0.287   0.384
   79SOL    HW2  798   1.036   0.250   0.457
   80SOL     OW  799   1.079   0.682   1.459
   80SOL    HW1  800   1.009   0.618   1.466
   80SOL    HW2  801   1.160   0.631   1.454
   81SOL     OW  802   1.223   1.570   0.795
   81SOL    HW1  803   1.239   1.638   0.728
   81SOL    HW2  804   1.292   1.584   0.860
   82SOL     OW  805   0.465   1.151   0.735
   82SOL    HW1  806   0.394   1.126   0.794
   82SOL    HW2  807   0.429   1.137   0.647
   83SOL     OW  808   1.265   1.794   0.607
   83SOL    HW1  809   1.312   1.858   0.552
   83SOL    HW2  810   1.200   1.846   0.654
   84SOL     OW  811   1.001   0.534   0.054
   84SOL    HW1  812   1.001   0.536  13.858
   84SOL    HW2  813   1.091   0.553   0.079
   85SOL     OW  814   0.080   0.572   1.393
   85SOL    HW1  815   0.169   0.554   1.363
   85SOL    HW2  816   0.089   0.644   1.456
   86SOL     OW  817   0.572   0.231   1.160
   86SOL    HW1  818   0.594   0.139   1.169
   86SOL    HW2  819   0.481   0.237   1.190
   87SOL     OW  820   0.871   0.462   0.638
   87SOL    HW1  821   0.823   0.515   0.574
   87SOL    HW2  822   0.891   0.381   0.592
   88SOL     OW  823   0.996   0.041   0.778
   88SOL    HW1  824   0.955   0.067   0.696
   88SOL    HW2  825   1.007   3.946   0.771
   89SOL     OW  826   1.437   1.162   0.857
   89SOL    HW1  827   1.368   1.096   0.856
   89SOL    HW2  828   1.460   1.173   0.764
   90SOL     OW  829   1.465   0.606   0.976
   90SOL    HW1  830   1.412   0.526   0.981
   90SOL    HW2  831   1.525   0.599   1.050
   91SOL     OW  832   1.846   0.818   0.383
   91SOL    HW1  833   1.900   0.763   0.441
   91SOL    HW2  834   1.812   0.758   0.318
   92SOL     OW  835   0.496   1.379   0.167
   92SOL    HW1  836   0.421   1.354   0.222
   92SOL    HW2  837   0.456   1.416   0.088
   93SOL     OW  838   1.671   1.266   0.643
   93SOL    HW1  839   1.766   1.265   0.660
   93SOL    HW2  840   1.643   1.354   0.666
   94SOL     OW  841   1.419   0.590   0.086
   94SOL    HW1  842   1.350   0.576   0.151
   94SOL    HW2  843   1.472   0.511   0.090
   95SOL     OW  844   0.526   0.257   0.326
   95SOL    HW1  845   0.564   0.209   0.253
   95SOL    HW2  846   0.506   0.344   0.289
   96SOL     OW  847   1.751   1.240   1.572
   96SOL    HW1  848   1.839   1.201   1.567
   96SOL    HW2  849   1.767   1.330   1.599
   97SOL     OW  850   1.057   1.354   1.333
   97SOL    HW1  851   0.982   1.322   1.384
   97SOL    HW2  852   1.133   1.312   1.374
   98SOL     OW  853   1.608   1.626   1.654
   98SOL    HW1  854   1.602   1.662   1.565
   98SOL    HW2  855   1.691   1.579   1.655
   99SOL     OW  856   1.130   1.205   1.105
   99SOL    HW1  857   1.071   1.242   1.170
   99SOL    HW2  858   1.098   1.237   1.021
  100SOL     OW  859   1.627   1.098   1.077
  100SOL    HW1  860   1.622   1.160   1.150
  100SOL    HW2  861   1.548   1.115   1.025
  101SOL     OW  862   0.913   0.113   1.401
  101SOL    HW1  863   0.933   0.088   1.311
  101SOL    HW2  864   0.993   0.155   1.432
  102SOL     OW  865   0.984   1.115   1.723
  102SOL    HW1  866   0.892   1.131   1.745
  102SOL    HW2  867   0.982   1.037   1.668
  103SOL     OW  868   0.715   1.060   0.376
  103SOL    HW1  869   0.700   1.043   0.469
  103SOL    HW2  870   0.789   1.004   0.353
  104SOL     OW  871   0.422   0.816   1.252
  104SOL    HW1  872   0.490   0.822   1.319
  104SOL    HW2  873   0.387   0.728   1.262
  105SOL     OW  874   1.266   0.375   1.276
  105SOL    HW1  875   1.300   0.453   1.320
  105SOL    HW2  876   1.179   0.401   1.246
  106SOL     OW  877   0.065   1.580   1.346
  106SOL    HW1  878   0.070   1.640   1.271
  106SOL    HW2  879   0.156   1.566   1.372
  107SOL     OW  880   0.365   1.104   0.482
  107SOL    HW1  881   0.357   1.181   0.425
  107SOL    HW2  882   0.381   1.031   0.421
  108SOL     OW  883   0.555   0.535   0.858
  108SOL    HW1  884   0.570   0.593   0.784
  108SOL    HW2  885   0.621   0.562   0.923
  109SOL     OW  886   1.249   1.346   0.398
  109SOL    HW1  887   1.304   1.420   0.425
  109SOL    HW2  888   1.161   1.369   0.430
  110SOL     OW  889   1.282   1.459   1.148
  110SOL    HW1  890   1.339   1.462   1.225
  110SOL    HW2  891   1.227   1.381   1.161
  111SOL     OW  892   1.582   0.636   0.489
  111SOL    HW1  893   1.537   0.693   0.551
  111SOL    HW2  894   1.614   0.694   0.421
  112SOL     OW  895   0.345   1.527   1.319
  112SOL    HW1  896   0.336   1.476   1.238
  112SOL    HW2  897   0.439   1.542   1.326
  113SOL     OW  898   0.415   0.738   1.601
  113SOL    HW1  899   0.477   0.784   1.544
  113SOL    HW2  900   0.454   0.652   1.614
  114SOL     OW  901   1.603   0.779   1.684
  114SOL    HW1  902   1.517   0.821   1.677
  114SOL    HW2  903   1.655   0.820   1.615
  115SOL     OW  904   1.014   0.130   1.778
  115SOL    HW1  905   1.062   0.203   1.741
  115SOL    HW2  906   1.003   0.069   1.705
  116SOL     OW  907   0.481   0.036   1.766
  116SOL    HW1  908   0.491   0.044   1.671
  116SOL    HW2  909   0.420   0.106   1.790
  117SOL     OW  910   0.584   0.875   1.031
  117SOL    HW1  911   0.616   0.965   1.033
  117SOL    HW2  912   0.529   0.867   1.109
  118SOL     OW  913   1.355   0.859   1.028
  118SOL    HW1  914   1.271   0.847   0.984
  118SOL    HW2  915   1.398   0.773   1.022
  119SOL     OW  916   1.217   0.549   0.269
  119SOL    HW1  917   1.223   0.468   0.321
  119SOL    HW2  918   1.160   0.606   0.320
  120SOL     OW  919   0.312   0.213   1.241
  120SOL    HW1  920   0.269   0.248   1.319
  120SOL    HW2  921   0.296   0.119   1.246
  121SOL     OW  922   0.060   1.306   1.280
  121SOL    HW1  923   0.090   1.264   1.361
  121SOL    HW2  924   0.051   1.398   1.302
  122SOL     OW  925   0.725   0.634   1.054
  122SOL    HW1  926   0.799   0.618   0.995
  122SOL    HW2  927   0.696   0.722   1.032
  123SOL     OW  928   1.736   0.959   1.854
  123SOL    HW1  929   1.690   0.897   1.798
  123SOL    HW2  930   1.676   0.974   1.927
  124SOL     OW  931   0.331   0.058   0.654
  124SOL    HW1  932   0.304   0.149   0.661
  124SOL    HW2  933   0.281   0.013   0.722
  125SOL     OW  934   1.576   0.389   0.391
  125SOL    HW1  935   1.554   0.327   0.460
  125SOL    HW2  936   1.569   0.475   0.433
  126SOL     OW  937   1.029   0.759   0.960
  126SOL    HW1  938   1.023   0.776   1.054
  126SOL    HW2  939   1.002   0.668   0.950
  127SOL     OW  940   0.982   1.566   1.718
  127SOL    HW1  941   0.967   1.610   1.634
  127SOL    HW2  942   1.026   1.484   1.694
  128SOL     OW  943   1.854   1.503   1.604
  128SOL    HW1  944   1.870   1.533   1.515
  128SOL    HW2  945   1.938   1.516   1.649
  129SOL     OW  946   0.352   0.921   1.799
  129SOL    HW1  947   0.431   0.941   1.851
  129SOL    HW2  948   0.381   0.854   1.738
  130SOL     OW  949   1.538   0.269   0.146
  130SOL    HW1  950   1.469   0.202   0.146
  130SOL    HW2  951   1.538   0.303   0.235
  131SOL     OW  952   1.290   0.832   0.056
  131SOL    HW1  953   1.337   0.748   0.061
  131SOL    HW2  954   1.308   0.864  13.867
  132SOL     OW  955   1.066   1.336   0.854
  132SOL    HW1  956   1.069   1.264   0.791
  132SOL    HW2  957   1.127   1.401   0.820
  133SOL     OW  958   0.313   0.804   0.950
  133SOL    HW1  959   0.408   0.820   0.945
  133SOL    HW2  960   0.306   0.714   0.982
  134SOL     OW  961   0.338   0.528   1.014
  134SOL    HW1  962   0.297   0.444   0.997
  134SOL    HW2  963   0.413   0.532   0.955
  135SOL     OW  964   1.133   0.381   1.695
  135SOL    HW1  965   1.085   0.437   1.757
  135SOL    HW2  966   1.220   0.421   1.691
  136SOL     OW  967   1.151   0.225   1.481
  136SOL    HW1  968   1.142   0.280   1.559
  136SOL    HW2  969   1.175   0.286   1.412
  137SOL     OW  970   0.012   1.325   0.190
  137SOL    HW1  971   3.918   1.339   0.184
  137SOL    HW2  972   0.022   1.234   0.217
  138SOL     OW  973   0.077   1.800   0.888
  138SOL    HW1  974   0.081   1.705   0.894
  138SOL    HW2  975   0.168   1.828   0.892
  139SOL     OW  976   0.502   1.571   0.911
  139SOL    HW1  977   0.572   1.631   0.936
  139SOL    HW2  978   0.545   1.508   0.853
  140SOL     OW  979   0.980   0.790   1.225
  140SOL    HW1  980   1.036   0.769   1.300
  140SOL    HW2  981   0.895   0.752   1.247
  141SOL     OW  982   0.036   0.572   1.112
  141SOL    HW1  983   0.097   0.519   1.062
  141SOL    HW2  984   0.061   0.558   1.204
  142SOL     OW  985   0.211   0.516   1.722
  142SOL    HW1  986   0.258   0.478   1.648
  142SOL    HW2  987   0.162   0.590   1.684
  143SOL     OW  988   1.378   0.938   1.658
  143SOL    HW1  989   1.399   1.031   1.655
  143SOL    HW2  990   1.375   0.911   1.566
  144SOL     OW  991   0.815   0.580   0.371
  144SOL    HW1  992   0.826   0.503   0.317
  144SOL    HW2  993   0.741   0.627   0.332
  145SOL     OW  994   1.641   0.602   1.185
  145SOL    HW1  995   1.631   0.542   1.258
  145SOL    HW2  996   1.728   0.584   1.150
  146SOL     OW  997   0.299   1.545   1.727
  146SOL    HW1  998   0.250   1.614   1.771
  146SOL    HW2  999   0.267   1.464   1.767
  147SOL     OW 1000   0.707   0.455   1.258
  147SOL    HW1 1001   0.658   0.377   1.232
  147SOL    HW2 1002   0.698   0.514   1.183
  148SOL     OW 1003   0.926   1.679   1.469
  148SOL    HW1 1004   0.901   1.643   1.384
  148SOL    HW2 1005   0.921   1.774   1.457
  149SOL     OW 1006   0.433   0.493   0.228
  149SOL    HW1 1007   0.506   0.554   0.239
  149SOL    HW2 1008   0.360   0.547   0.200
  150SOL     OW 1009   0.157   1.135   1.474
  150SOL    HW1 1010   0.158   1.084   1.555
  150SOL    HW2 1011   0.171   1.071   1.405
  151SOL     OW 1012   1.325   1.046   1.222
  151SOL    HW1 1013   1.348   0.983   1.154
  151SOL    HW2 1014   1.255   1.099   1.183
  152SOL     OW 1015   1.313   0.858   0.327
  152SOL    HW1 1016   1.238   0.824   0.376
  152SOL    HW2 1017   1.289   0.844   0.235
  153SOL     OW 1018   1.760   1.739   1.149
  153SOL    HW1 1019   1.829   1.766   1.088
  153SOL    HW2 1020   1.742   1.648   1.125
  154SOL     OW 1021   1.242   1.734   1.110
  154SOL    HW1 1022   1.325   1.755   1.067
  154SOL    HW2 1023   1.249   1.640   1.129
  155SOL     OW 1024   0.077   1.216   1.028
  155SOL    HW1 1025   0.083   1.242   1.120
  155SOL    HW2 1026   3.984   1.225   1.007
  156SOL     OW 1027   0.679   1.667   1.732
  156SOL    HW1 1028   0.621   1.743   1.725
  156SOL    HW2 1029   0.745   1.680   1.663
  157SOL     OW 1030   0.903   0.104   0.136
  157SOL    HW1 1031   0.941   0.090   0.049
  157SOL    HW2 1032   0.910   0.019   0.180
  158SOL     OW 1033   1.702   0.125   0.494
  158SOL    HW1 1034   1.783   0.135   0.444
  158SOL    HW2 1035   1.694   0.031   0.509
  159SOL     OW 1036   1.389   1.573   0.485
  159SOL    HW1 1037   1.444   1.611   0.417
  159SOL    HW2 1038   1.338   1.646   0.519
  160SOL     OW 1039   0.174   1.765   1.829
  160SOL    HW1 1040   0.117   1.715   1.887
  160SOL    HW2 1041   0.215   1.830   1.886
  161SOL     OW 1042   1.276   0.927   0.671
  161SOL    HW1 1043   1.350   0.867   0.681
  161SOL    HW2 1044   1.311   0.999   0.618
  162SOL     OW 1045   0.812   1.273   1.429
  162SOL    HW1 1046   0.784   1.314   1.511
  162SOL    HW2 1047   0.741   1.292   1.367
  163SOL     OW 1048   0.675   1.585   0.186
  163SOL    HW1 1049   0.663   1.618   0.097
  163SOL    HW2 1050   0.629   1.500   0.186
  164SOL     OW 1051   1.623   1.728   1.391
  164SOL    HW1 1052   1.673   1.733   1.309
  164SOL    HW2 1053   1.613   1.820   1.419
  165SOL     OW 1054   1.839   0.177   0.967
  165SOL    HW1 1055   1.871   0.108   0.910
  165SOL    HW2 1056   1.750   0.195   0.934
  166SOL     OW 1057   0.272   0.321   0.715
  166SOL    HW1 1058   0.186   0.357   0.691
  166SOL    HW2 1059   0.266   0.304   0.809
  167SOL     OW 1060   1.217   1.601   0.034
  167SOL    HW1 1061   1.206   1.510   0.061
  167SOL    HW2 1062   1.180   1.605  13.846
  168SOL     OW 1063   0.823   1.005   1.373
  168SOL    HW1 1064   0.867   1.000   1.288
  168SOL    HW2 1065   0.823   1.099   1.394
  169SOL     OW 1066   0.921   0.911   0.287
  169SOL    HW1 1067   0.991   0.950   0.236
  169SOL    HW2 1068   0.963   0.840   0.336
  170SOL     OW 1069   1.484   1.645   0.065
  170SOL    HW1 1070   1.390   1.627   0.055
  170SOL    HW2 1071   1.519   1.637  13.876
  171SOL     OW 1072   0.374   1.303   1.491
  171SOL    HW1 1073   0.358   1.383   1.441
  171SOL    HW2 1074   0.297   1.248   1.474
  172SOL     OW 1075   1.609   1.283   1.280
  172SOL    HW1 1076   1.670   1.272   1.353
  172SOL    HW2 1077   1.550   1.352   1.309
  173SOL     OW 1078   1.054   1.108   0.707
  173SOL    HW1 1079   0.983   1.056   0.746
  173SOL    HW2 1080   1.118   1.043   0.678
  174SOL     OW 1081   1.015   0.248   0.968
  174SOL    HW1 1082   1.004   0.198   0.887
  174SOL    HW2 1083   1.009   0.183   1.038
  175SOL     OW 1084   0.606   1.488   0.483
  175SOL    HW1 1085   0.650   1.438   0.414
  175SOL    HW2 1086   0.536   1.534   0.438
  176SOL     OW 1087   1.720   0.393   1.373
  176SOL    HW1 1088   1.792   0.456   1.376
  176SOL    HW2 1089   1.753   0.321   1.319
  177SOL     OW 1090   0.264   1.316   0.308
  177SOL    HW1 1091   0.187   1.345   0.260
  177SOL    HW2 1092   0.261   1.365   0.390
  178SOL     OW 1093   0.107   1.000   1.718
  178SOL    HW1 1094   0.046   0.991   1.791
  178SOL    HW2 1095   0.193   0.980   1.754
  179SOL     OW 1096   0.694   0.250   1.499
  179SOL    HW1 1097   0.762   0.197   1.458
  179SOL    HW2 1098   0.722   0.259   1.590
  180SOL     OW 1099   0.068   0.366   0.038
  180SOL    HW1 1100   3.976   0.369   0.065
  180SOL    HW2 1101   0.065   0.387  13.844
  181SOL     OW 1102   1.428   0.857   1.399
  181SOL    HW1 1103   1.380   0.919   1.344
  181SOL    HW2 1104   1.517   0.860   1.365
  182SOL     OW 1105   0.051   0.200   0.321
  182SOL    HW1 1106   0.073   0.273   0.263
  182SOL    HW2 1107   0.135   0.156   0.337
  183SOL     OW 1108   1.186   1.347   0.122
  183SOL    HW1 1109   1.092   1.333   0.111
  183SOL    HW2 1110   1.201   1.333   0.216
  184SOL     OW 1111   0.620   0.829   1.436
  184SOL    HW1 1112   0.676   0.905   1.420
  184SOL    HW2 1113   0.680   0.755   1.444
  185SOL     OW 1114   1.488   1.783   0.981
  185SOL    HW1 1115   1.511   1.847   0.914
  185SOL    HW2 1116   1.571   1.763   1.025
  186SOL     OW 1117   0.717   0.563   1.707
  186SOL    HW1 1118   0.761   0.625   1.765
  186SOL    HW2 1119   0.746   0.477   1.738
  187SOL     OW 1120   1.472   1.199   1.631
  187SOL    HW1 1121   1.460   1.213   1.725
  187SOL    HW2 1122   1.565   1.215   1.616
  188SOL     OW 1123   0.379   1.742   1.558
  188SOL    HW1 1124   0.292   1.780   1.545
  188SOL    HW2 1125   0.363   1.661   1.605
  189SOL     OW 1126   1.668   0.881   1.256
  189SOL    HW1 1127   1.663   0.796   1.213
  189SOL    HW2 1128   1.659   0.944   1.184
  190SOL     OW 1129   1.231   0.334   0.437
  190SOL    HW1 1130   1.294   0.262   0.433
  190SOL    HW2 1131   1.248   0.376   0.521
  191SOL     OW 1132   0.589   0.738   0.671
  191SOL    HW1 1133   0.627   0.825   0.654
  191SOL    HW2 1134   0.522   0.728   0.604
  192SOL     OW 1135   1.752   0.383   1.643
  192SOL    HW1 1136   1.734   0.388   1.549
  192SOL    HW2 1137   1.696   0.313   1.674
  193SOL     OW 1138   1.745   0.934   1.512
  193SOL    HW1 1139   1.740   1.029   1.525
  193SOL    HW2 1140   1.729   0.921   1.419
  194SOL     OW 1141   0.907   1.399   0.062
  194SOL    HW1 1142   0.838   1.380   0.126
  194SOL    HW2 1143   0.860   1.405  13.878
  195SOL     OW 1144   0.662   1.789   0.943
  195SOL    HW1 1145   0.642   1.880   0.921
  195SOL    HW2 1146   0.757   1.784   0.936
  196SOL     OW 1147   0.868   0.967   0.854
  196SOL    HW1 1148   0.918   0.895   0.893
  196SOL    HW2 1149   0.832   1.015   0.928
  197SOL     OW 1150   1.098   1.011   0.110
  197SOL    HW1 1151   1.087   1.057   0.026
  197SOL    HW2 1152   1.172   0.952   0.095
  198SOL     OW 1153   1.846   1.527   0.823
  198SOL    HW1 1154   1.759   1.533   0.784
  198SOL    HW2 1155   1.833   1.477   0.904
  199SOL     OW 1156   0.225   1.303   1.856
  199SOL    HW1 1157   0.153   1.246   1.829
  199SOL    HW2 1158   0.212   1.317   1.950
  200SOL     OW 1159   0.110   1.279   0.726
  200SOL    HW1 1160   0.127   1.229   0.806
  200SOL    HW2 1161   0.105   1.212   0.657
  201SOL     OW 1162   0.681   1.404   1.629
  201SOL    HW1 1163   0.601   1.361   1.659
  201SOL    HW2 1164   0.676   1.492   1.666
  202SOL     OW 1165   1.812   0.183   1.239
  202SOL    HW1 1166   1.815   0.089   1.253
  202SOL    HW2 1167   1.826   0.194   1.145
  203SOL     OW 1168   0.440   0.436   0.532
  203SOL    HW1 1169   0.468   0.362   0.478
  203SOL    HW2 1170   0.387   0.397   0.601
  204SOL     OW 1171   1.703   1.482   1.088
  204SOL    HW1 1172   1.619   1.463   1.045
  204SOL    HW2 1173   1.711   1.415   1.156
  205SOL     OW 1174   0.332   0.556   1.293
  205SOL    HW1 1175   0.388   0.500   1.346
  205SOL    HW2 1176   0.347   0.528   1.202
  206SOL     OW 1177   0.828   1.578   0.677
  206SOL    HW1 1178   0.814   1.637   0.602
  206SOL    HW2 1179   0.752   1.520   0.676
  207SOL     OW 1180   1.461   0.253   1.110
  207SOL    HW1 1181   1.477   0.166   1.146
  207SOL    HW2 1182   1.405   0.295   1.176
  208SOL     OW 1183   1.005   0.029   1.146
  208SOL    HW1 1184   0.926   3.987   1.113
  208SOL    HW2 1185   1.068   3.957   1.155
  209SOL     OW 1186   0.776   1.324   0.319
  209SOL    HW1 1187   0.744   1.235   0.335
  209SOL    HW2 1188   0.859   1.328   0.368
  210SOL     OW 1189   0.620   1.557   1.285
  210SOL    HW1 1190   0.622   1.638   1.335
  210SOL    HW2 1191   0.708   1.549   1.248
  211SOL     OW 1192   1.322   0.069   0.131
  211SOL    HW1 1193   1.342   3.985   0.090
  211SOL    HW2 1194   1.254   0.050   0.195
  212SOL     OW 1195   1.283   0.456   0.685
  212SOL    HW1 1196   1.235   0.539   0.680
  212SOL    HW2 1197   1.286   0.436   0.778
  213SOL     OW 1198   1.588   0.210   0.868
  213SOL    HW1 1199   1.539   0.233   0.946
  213SOL    HW2 1200   1.588   0.290   0.815
  214SOL     OW 1201   0.042   1.033   0.255
  214SOL    HW1 1202   0.137   1.016   0.250
  214SOL    HW2 1203   0.008   0.959   0.305
  215SOL     OW 1204   0.894   1.654   0.343
  215SOL    HW1 1205   0.819   1.624   0.292
  215SOL    HW2 1206   0.860   1.727   0.395
  216SOL     OW 1207   0.233   0.627   1.980
  216SOL    HW1 1208   0.140   0.631   2.002
  216SOL    HW2 1209   0.234   0.597   1.889
  217SOL     OW 1210   0.224   0.288   2.845
  217SOL    HW1 1211   0.247   0.250   2.930
  217SOL    HW2 1212   0.130   0.275   2.838
  218SOL     OW 1213   0.018   0.386   2.497
  218SOL    HW1 1214   3.928   0.398   2.528
  218SOL    HW2 1215   0.026   0.292   2.481
  219SOL     OW 1216   0.579   1.287   3.050
  219SOL    HW1 1217   0.492   1.289   3.009
  219SOL    HW2 1218   0.593   1.375   3.083
  220SOL     OW 1219   1.565   1.513   2.571
  220SOL    HW1 1220   1.522   1.493   2.654
  220SOL    HW2 1221   1.493   1.519   2.508
  221SOL     OW 1222   1.132   0.698   2.561
  221SOL    HW1 1223   1.180   0.780   2.548
  221SOL    HW2 1224   1.085   0.711   2.643
  222SOL     OW 1225   1.764   0.619   2.088
  222SOL    HW1 1226   1.743   0.611   1.995
  222SOL    HW2 1227   1.751   0.530   2.123
  223SOL     OW 1228   0.755   1.140   2.903
  223SOL    HW1 1229   0.690   1.175   2.964
  223SOL    HW2 1230   0.790   1.217   2.858
  224SOL     OW 1231   0.869   0.772   3.685
  224SOL    HW1 1232   0.858   0.844   3.748
  224SOL    HW2 1233   0.892   0.816   3.603
  225SOL     OW 1234   0.685   1.003   2.508
  225SOL    HW1 1235   0.751   0.991   2.577
  225SOL    HW2 1236   0.616   1.054   2.550
  226SOL     OW 1237   0.711   1.149   3.676
  226SOL    HW1 1238   0.759   1.228   3.704
  226SOL    HW2 1239   0.629   1.183   3.640
  227SOL     OW 1240   0.351   1.402   2.941
  227SOL    HW1 1241   0.270   1.382   2.894
  227SOL    HW2 1242   0.399   1.460   2.882
  228SOL     OW 1243   1.461   1.501   3.217
  228SOL    HW1 1244   1.513   1.581   3.226
  228SOL    HW2 1245   1.397   1.506   3.289
  229SOL     OW 1246   0.456   0.408   3.359
  229SOL    HW1 1247   0.537   0.357   3.357
  229SOL    HW2 1248   0.386   0.342   3.361
  230SOL     OW 1249   1.612   0.451   2.597
  230SOL    HW1 1250   1.541   0.482   2.541
  230SOL    HW2 1251   1.632   0.525   2.654
  231SOL     OW 1252   0.221   1.718   2.320
  231SOL    HW1 1253   0.240   1.793   2.377
  231SOL    HW2 1254   0.299   1.710   2.265
  232SOL     OW 1255   1.137   1.342   3.555
  232SOL    HW1 1256   1.178   1.336   3.641
  232SOL    HW2 1257   1.085   1.262   3.548
  233SOL     OW 1258   0.248   1.449   2.402
  233SOL    HW1 1259   0.215   1.538   2.388
  233SOL    HW2 1260   0.181   1.405   2.453
  234SOL     OW 1261   0.247   1.067   2.747
  234SOL    HW1 1262   0.266   0.982   2.787
  234SOL    HW2 1263   0.194   1.113   2.812
  235SOL     OW 1264   0.612   1.792   3.290
  235SOL    HW1 1265   0.529   1.774   3.335
  235SOL    HW2 1266   0.634   1.881   3.316
  236SOL     OW 1267   0.579   0.985   2.000
  236SOL    HW1 1268   0.626   1.030   1.930
  236SOL    HW2 1269   0.621   1.014   2.080
  237SOL     OW 1270   1.579   0.139   3.318
  237SOL    HW1 1271   1.608   0.212   3.263
  237SOL    HW2 1272   1.550   0.180   3.399
  238SOL     OW 1273   0.140   0.651   2.431
  238SOL    HW1 1274   0.097   0.565   2.436
  238SOL    HW2 1275   0.102   0.701   2.504
  239SOL     OW 1276   0.044   1.590   2.001
  239SOL    HW1 1277   0.035   1.498   2.025
  239SOL    HW2 1278   3.962   1.630   2.031
  240SOL     OW 1279   1.687   0.917   2.503
  240SOL    HW1 1280   1.772   0.876   2.484
  240SOL    HW2 1281   1.667   0.969   2.425
  241SOL     OW 1282   1.647   1.106   2.291
  241SOL    HW1 1283   1.734   1.111   2.250
  241SOL    HW2 1284   1.653   1.168   2.365
  242SOL     OW 1285   0.138   0.755   3.451
  242SOL    HW1 1286   0.234   0.750   3.448
  242SOL    HW2 1287   0.120   0.845   3.479
  243SOL     OW 1288   0.613   1.386   2.598
  243SOL    HW1 1289   0.567   1.303   2.607
  243SOL    HW2 1290   0.597   1.412   2.507
  244SOL     OW 1291   1.288   1.238   3.285
  244SOL    HW1 1292   1.320   1.170   3.225
  244SOL    HW2 1293   1.346   1.232   3.361
  245SOL     OW 1294   0.819   0.003   2.378
  245SOL    HW1 1295   0.864   0.084   2.354
  245SOL    HW2 1296   0.726   0.027   2.378
  246SOL     OW 1297   0.184   0.951   3.139
  246SOL    HW1 1298   0.273   0.916   3.127
  246SOL    HW2 1299   0.132   0.908   3.072
  247SOL     OW 1300   1.531   0.995   2.061
  247SOL    HW1 1301   1.462   0.938   2.094
  247SOL    HW2 1302   1.573   1.029   2.140
  248SOL     OW 1303   1.185   1.808   3.485
  248SOL    HW1 1304   1.195   1.867   3.411
  248SOL    HW2 1305   1.202   1.721   3.449
  249SOL     OW 1306   0.343   0.253   3.696
  249SOL    HW1 1307   0.386   0.336   3.679
  249SOL    HW2 1308   0.252   0.276   3.715
  250SOL     OW 1309   1.465   1.420   2.812
  250SOL    HW1 1310   1.398   1.435   2.878
  250SOL    HW2 1311   1.453   1.328   2.786
  251SOL     OW 1312   1.667   1.731   2.420
  251SOL    HW1 1313   1.630   1.696   2.339
  251SOL    HW2 1314   1.646   1.666   2.487
  252SOL     OW 1315   0.596   0.718   2.127
  252SOL    HW1 1316   0.601   0.802   2.081
  252SOL    HW2 1317   0.533   0.733   2.197
  253SOL     OW 1318   1.275   0.367   2.802
  253SOL    HW1 1319   1.188   0.328   2.809
  253SOL    HW2 1320   1.332   0.305   2.848
  254SOL     OW 1321   1.575   1.670   2.161
  254SOL    HW1 1322   1.661   1.708   2.140
  254SOL    HW2 1323   1.539   1.645   2.077
  255SOL     OW 1324   0.794   0.616   3.316
  255SOL    HW1 1325   0.765   0.591   3.403
  255SOL    HW2 1326   0.755   0.551   3.258
  256SOL     OW 1327   1.392   0.476   3.539
  256SOL    HW1 1328   1.398   0.521   3.624
  256SOL    HW2 1329   1.451   0.401   3.548
  257SOL     OW 1330   0.953   0.887   3.445
  257SOL    HW1 1331   1.008   0.818   3.409
  257SOL    HW2 1332   0.905   0.922   3.370
  258SOL     OW 1333   0.991   0.403   3.101
  258SOL    HW1 1334   0.907   0.425   3.141
  258SOL    HW2 1335   0.969   0.373   3.013
  259SOL     OW 1336   1.052   0.699   2.288
  259SOL    HW1 1337   1.068   0.692   2.382
  259SOL    HW2 1338   0.969   0.653   2.274
  260SOL     OW 1339   0.081   0.827   2.653
  260SOL    HW1 1340   0.156   0.795   2.703
  260SOL    HW2 1341   0.099   0.920   2.640
  261SOL     OW 1342   0.130   1.860   3.437
  261SOL    HW1 1343   0.137   1.826   3.526
  261SOL    HW2 1344   0.037   1.848   3.415
  262SOL     OW 1345   0.894   0.351   2.060
  262SOL    HW1 1346   0.936   0.411   1.997
  262SOL    HW2 1347   0.893   0.266   2.016
  263SOL     OW 1348   1.709   0.576   3.691
  263SOL    HW1 1349   1.671   0.649   3.643
  263SOL    HW2 1350   1.734   0.512   3.623
  264SOL     OW 1351   1.378   1.141   2.402
  264SOL    HW1 1352   1.457   1.130   2.350
  264SOL    HW2 1353   1.325   1.204   2.352
  265SOL     OW 1354   0.560   0.195   2.743
  265SOL    HW1 1355   0.565   0.218   2.836
  265SOL    HW2 1356   0.547   0.278   2.698
  266SOL     OW 1357   1.004   1.444   2.333
  266SOL    HW1 1358   0.968   1.518   2.284
  266SOL    HW2 1359   0.985   1.465   2.424
  267SOL     OW 1360   0.365   1.817   2.731
  267SOL    HW1 1361   0.429   1.746   2.739
  267SOL    HW2 1362   0.415   1.897   2.747
  268SOL     OW 1363   1.799   1.053   2.732
  268SOL    HW1 1364   1.745   1.039   2.654
  268SOL    HW2 1365   1.737   1.060   2.804
  269SOL     OW 1366   1.228   1.539   3.375
  269SOL    HW1 1367   1.214   1.466   3.436
  269SOL    HW2 1368   1.164   1.524   3.305
  270SOL     OW 1369   0.310   0.954   2.104
  270SOL    HW1 1370   0.394   0.977   2.064
  270SOL    HW2 1371   0.297   0.862   2.082
  271SOL     OW 1372   1.478   0.746   2.592
  271SOL    HW1 1373   1.472   0.703   2.677
  271SOL    HW2 1374   1.556   0.801   2.598
  272SOL     OW 1375   0.467   1.260   3.599
  272SOL    HW1 1376   0.441   1.269   3.507
  272SOL    HW2 1377   0.385   1.264   3.648
  273SOL     OW 1378   1.122   1.776   2.093
  273SOL    HW1 1379   1.048   1.736   2.138
  273SOL    HW2 1380   1.144   1.714   2.024
  274SOL     OW 1381   0.200   0.295   3.361
  274SOL    HW1 1382   0.107   0.315   3.360
  274SOL    HW2 1383   0.208   0.226   3.427
  275SOL     OW 1384   1.628   1.379   1.950
  275SOL    HW1 1385   1.587   1.464   1.933
  275SOL    HW2 1386   1.559   1.316   1.930
  276SOL     OW 1387   0.466   1.739   2.179
  276SOL    HW1 1388   0.509   1.796   2.243
  276SOL    HW2 1389   0.538   1.705   2.126
  277SOL     OW 1390   1.440   0.164   2.267
  277SOL    HW1 1391   1.394   0.097   2.215
  277SOL    HW2 1392   1.512   0.116   2.309
  278SOL     OW 1393   0.251   1.791   3.094
  278SOL    HW1 1394   0.298   1.727   3.147
  278SOL    HW2 1395   0.248   1.752   3.006
  279SOL     OW 1396   0.938   1.699   2.760
  279SOL    HW1 1397   1.016   1.648   2.781
  279SOL    HW2 1398   0.895   1.649   2.691
  280SOL     OW 1399   0.396   0.694   2.333
  280SOL    HW1 1400   0.422   0.604   2.348
  280SOL    HW2 1401   0.304   0.697   2.359
  281SOL     OW 1402   1.529   0.230   3.589
  281SOL    HW1 1403   1.527   0.255   3.681
  281SOL    HW2 1404   1.508   0.137   3.589
  282SOL     OW 1405   0.644   0.132   1.964
  282SOL    HW1 1406   0.670   0.049   2.005
  282SOL    HW2 1407   0.583   0.106   1.895
  283SOL     OW 1408   0.777   0.283   3.627
  283SOL    HW1 1409   0.848   0.219   3.631
  283SOL    HW2 1410   0.719   0.258   3.699
  284SOL     OW 1411   0.876   1.522   3.056
  284SOL    HW1 1412   0.860   1.485   2.969
  284SOL    HW2 1413   0.946   1.468   3.093
  285SOL     OW 1414   1.340   0.587   3.292
  285SOL    HW1 1415   1.371   0.558   3.378
  285SOL    HW2 1416   1.375   0.676   3.283
  286SOL     OW 1417   0.815   1.394   2.802
  286SOL    HW1 1418   0.900   1.382   2.760
  286SOL    HW2 1419   0.753   1.395   2.730
  287SOL     OW 1420   0.930   0.512   2.763
  287SOL    HW1 1421   0.906   0.503   2.671
  287SOL    HW2 1422   0.956   0.423   2.789
  288SOL     OW 1423   0.546   0.056   2.350
  288SOL    HW1 1424   0.472   0.064   2.411
  288SOL    HW2 1425   0.548   0.140   2.305
  289SOL     OW 1426   1.427   1.198   1.903
  289SOL    HW1 1427   1.458   1.123   1.953
  289SOL    HW2 1428   1.342   1.219   1.940
  290SOL     OW 1429   0.341   0.040   2.059
  290SOL    HW1 1430   0.361   0.086   1.978
  290SOL    HW2 1431   0.425   0.034   2.105
  291SOL     OW 1432   0.941   0.248   2.324
  291SOL    HW1 1433   0.914   0.289   2.241
  291SOL    HW2 1434   1.036   0.252   2.323
  292SOL     OW 1435   1.079   0.682   3.321
  292SOL    HW1 1436   1.009   0.618   3.328
  292SOL    HW2 1437   1.160   0.631   3.316
  293SOL     OW 1438   1.222   1.571   2.657
  293SOL    HW1 1439   1.238   1.637   2.590
  293SOL    HW2 1440   1.291   1.584   2.721
  294SOL     OW 1441   0.466   1.150   2.599
  294SOL    HW1 1442   0.394   1.126   2.657
  294SOL    HW2 1443   0.432   1.135   2.511
  295SOL     OW 1444   1.266   1.793   2.471
  295SOL    HW1 1445   1.311   1.855   2.414
  295SOL    HW2 1446   1.200   1.845   2.516
  296SOL     OW 1447   1.023   0.544   1.889
  296SOL    HW1 1448   0.979   0.627   1.870
  296SOL    HW2 1449   1.086   0.565   1.957
  297SOL     OW 1450   0.080   0.572   3.255
  297SOL    HW1 1451   0.169   0.554   3.225
  297SOL    HW2 1452   0.089   0.644   3.318
  298SOL     OW 1453   0.572   0.231   3.022
  298SOL    HW1 1454   0.594   0.139   3.031
  298SOL    HW2 1455   0.481   0.237   3.052
  299SOL     OW 1456   0.871   0.462   2.501
  299SOL    HW1 1457   0.820   0.513   2.439
  299SOL    HW2 1458   0.890   0.380   2.454
  300SOL     OW 1459   0.996   0.041   2.642
  300SOL    HW1 1460   0.960   0.068   2.557
  300SOL    HW2 1461   1.006   3.946   2.634
  301SOL     OW 1462   1.438   1.162   2.719
  301SOL    HW1 1463   1.368   1.097   2.718
  301SOL    HW2 1464   1.463   1.173   2.628
  302SOL     OW 1465   1.465   0.606   2.838
  302SOL    HW1 1466   1.412   0.526   2.843
  302SOL    HW2 1467   1.525   0.599   2.912
  303SOL     OW 1468   1.845   0.819   2.248
  303SOL    HW1 1469   1.901   0.766   2.305
  303SOL    HW2 1470   1.815   0.758   2.181
  304SOL     OW 1471   0.488   1.419   2.022
  304SOL    HW1 1472   0.412   1.388   2.072
  304SOL    HW2 1473   0.471   1.390   1.933
  305SOL     OW 1474   1.670   1.264   2.508
  305SOL    HW1 1475   1.765   1.265   2.521
  305SOL    HW2 1476   1.643   1.353   2.529
  306SOL     OW 1477   1.395   0.575   1.932
  306SOL    HW1 1478   1.332   0.556   2.001
  306SOL    HW2 1479   1.480   0.554   1.970
  307SOL     OW 1480   0.558   0.271   2.181
  307SOL    HW1 1481   0.603   0.231   2.106
  307SOL    HW2 1482   0.528   0.356   2.148
  308SOL     OW 1483   1.751   1.240   3.434
  308SOL    HW1 1484   1.839   1.201   3.429
  308SOL    HW2 1485   1.767   1.330   3.461
  309SOL     OW 1486   1.057   1.354   3.195
  309SOL    HW1 1487   0.982   1.322   3.246
  309SOL    HW2 1488   1.133   1.312   3.236
  310SOL     OW 1489   1.608   1.626   3.516
  310SOL    HW1 1490   1.602   1.661   3.427
  310SOL    HW2 1491   1.691   1.579   3.517
  311SOL     OW 1492   1.130   1.205   2.967
  311SOL    HW1 1493   1.071   1.242   3.032
  311SOL    HW2 1494   1.098   1.237   2.883
  312SOL     OW 1495   1.627   1.098   2.939
  312SOL    HW1 1496   1.621   1.160   3.012
  312SOL    HW2 1497   1.549   1.115   2.886
  313SOL     OW 1498   0.913   0.113   3.263
  313SOL    HW1 1499   0.933   0.088   3.173
  313SOL    HW2 1500   0.993   0.155   3.294
  314SOL     OW 1501   0.984   1.115   3.585
  314SOL    HW1 1502   0.892   1.131   3.607
  314SOL    HW2 1503   0.982   1.037   3.530
  315SOL     OW 1504   0.708   1.061   2.233
  315SOL    HW1 1505   0.694   1.045   2.326
  315SOL    HW2 1506   0.784   1.008   2.210
  316SOL     OW 1507   0.422   0.816   3.114
  316SOL    HW1 1508   0.490   0.823   3.181
  316SOL    HW2 1509   0.387   0.728   3.124
  317SOL     OW 1510   1.266   0.375   3.138
  317SOL    HW1 1511   1.300   0.453   3.182
  317SOL    HW2 1512   1.179   0.401   3.108
  318SOL     OW 1513   0.065   1.580   3.208
  318SOL    HW1 1514   0.070   1.641   3.134
  318SOL    HW2 1515   0.156   1.566   3.234
  319SOL     OW 1516   0.373   1.103   2.346
  319SOL    HW1 1517   0.366   1.181   2.291
  319SOL    HW2 1518   0.371   1.030   2.284
  320SOL     OW 1519   0.555   0.536   2.720
  320SOL    HW1 1520   0.570   0.594   2.646
  320SOL    HW2 1521   0.620   0.562   2.785
  321SOL     OW 1522   1.248   1.348   2.251
  321SOL    HW1 1523   1.303   1.419   2.283
  321SOL    HW2 1524   1.161   1.369   2.285
  322SOL     OW 1525   1.283   1.459   3.010
  322SOL    HW1 1526   1.339   1.462   3.087
  322SOL    HW2 1527   1.228   1.381   3.023
  323SOL     OW 1528   1.576   0.633   2.348
  323SOL    HW1 1529   1.534   0.691   2.411
  323SOL    HW2 1530   1.623   0.692   2.289
  324SOL     OW 1531   0.345   1.527   3.181
  324SOL    HW1 1532   0.336   1.476   3.100
  324SOL    HW2 1533   0.440   1.542   3.188
  325SOL     OW 1534   0.415   0.738   3.463
  325SOL    HW1 1535   0.477   0.784   3.406
  325SOL    HW2 1536   0.454   0.652   3.476
  326SOL     OW 1537   1.603   0.779   3.546
  326SOL    HW1 1538   1.517   0.821   3.539
  326SOL    HW2 1539   1.655   0.820   3.477
  327SOL     OW 1540   1.014   0.130   3.640
  327SOL    HW1 1541   1.062   0.203   3.603
  327SOL    HW2 1542   1.003   0.069   3.567
  328SOL     OW 1543   0.481   0.036   3.628
  328SOL    HW1 1544   0.491   0.045   3.533
  328SOL    HW2 1545   0.420   0.106   3.652
  329SOL     OW 1546   0.584   0.874   2.893
  329SOL    HW1 1547   0.615   0.965   2.895
  329SOL    HW2 1548   0.528   0.867   2.971
  330SOL     OW 1549   1.355   0.858   2.890
  330SOL    HW1 1550   1.271   0.847   2.846
  330SOL    HW2 1551   1.398   0.773   2.884
  331SOL     OW 1552   1.202   0.536   2.122
  331SOL    HW1 1553   1.211   0.457   2.175
  331SOL    HW2 1554   1.158   0.599   2.180
  332SOL     OW 1555   0.312   0.213   3.103
  332SOL    HW1 1556   0.269   0.249   3.181
  332SOL    HW2 1557   0.296   0.119   3.108
  333SOL     OW 1558   0.060   1.306   3.142
  333SOL    HW1 1559   0.090   1.264   3.223
  333SOL    HW2 1560   0.051   1.398   3.164
  334SOL     OW 1561   0.725   0.634   2.916
  334SOL    HW1 1562   0.799   0.618   2.858
  334SOL    HW2 1563   0.696   0.722   2.895
  335SOL     OW 1564   1.736   0.959   3.716
  335SOL    HW1 1565   1.690   0.897   3.660
  335SOL    HW2 1566   1.676   0.974   3.789
  336SOL     OW 1567   0.328   0.055   2.514
  336SOL    HW1 1568   0.300   0.147   2.515
  336SOL    HW2 1569   0.290   0.018   2.594
  337SOL     OW 1570   1.605   0.390   2.244
  337SOL    HW1 1571   1.569   0.322   2.301
  337SOL    HW2 1572   1.586   0.472   2.289
  338SOL     OW 1573   1.029   0.759   2.822
  338SOL    HW1 1574   1.023   0.777   2.916
  338SOL    HW2 1575   1.002   0.668   2.812
  339SOL     OW 1576   0.982   1.566   3.580
  339SOL    HW1 1577   0.967   1.610   3.496
  339SOL    HW2 1578   1.026   1.484   3.556
  340SOL     OW 1579   1.854   1.503   3.466
  340SOL    HW1 1580   1.870   1.533   3.377
  340SOL    HW2 1581   1.938   1.516   3.511
  341SOL     OW 1582   0.352   0.921   3.661
  341SOL    HW1 1583   0.430   0.941   3.713
  341SOL    HW2 1584   0.381   0.854   3.600
  342SOL     OW 1585   1.506   0.276   1.998
  342SOL    HW1 1586   1.432   0.216   2.010
  342SOL    HW2 1587   1.520   0.315   2.084
  343SOL     OW 1588   1.290   0.827   1.892
  343SOL    HW1 1589   1.332   0.741   1.895
  343SOL    HW2 1590   1.322   0.866   1.810
  344SOL     OW 1591   1.066   1.336   2.717
  344SOL    HW1 1592   1.070   1.264   2.654
  344SOL    HW2 1593   1.127   1.401   2.682
  345SOL     OW 1594   0.313   0.804   2.812
  345SOL    HW1 1595   0.407   0.820   2.806
  345SOL    HW2 1596   0.307   0.714   2.844
  346SOL     OW 1597   0.338   0.528   2.876
  346SOL    HW1 1598   0.297   0.443   2.858
  346SOL    HW2 1599   0.413   0.532   2.817
  347SOL     OW 1600   1.133   0.381   3.557
  347SOL    HW1 1601   1.085   0.436   3.619
  347SOL    HW2 1602   1.220   0.421   3.553
  348SOL     OW 1603   1.151   0.225   3.343
  348SOL    HW1 1604   1.142   0.280   3.421
  348SOL    HW2 1605   1.175   0.286   3.274
  349SOL     OW 1606   0.000   1.318   2.044
  349SOL    HW1 1607   3.906   1.334   2.048
  349SOL    HW2 1608   0.009   1.225   2.063
  350SOL     OW 1609   0.077   1.800   2.751
  350SOL    HW1 1610   0.081   1.705   2.756
  350SOL    HW2 1611   0.168   1.828   2.755
  351SOL     OW 1612   0.502   1.571   2.773
  351SOL    HW1 1613   0.571   1.632   2.798
  351SOL    HW2 1614   0.545   1.508   2.715
  352SOL     OW 1615   0.980   0.790   3.087
  352SOL    HW1 1616   1.036   0.769   3.162
  352SOL    HW2 1617   0.895   0.752   3.109
  353SOL     OW 1618   0.035   0.571   2.975
  353SOL    HW1 1619   0.099   0.521   2.924
  353SOL    HW2 1620   0.061   0.558   3.066
  354SOL     OW 1621   0.210   0.516   3.584
  354SOL    HW1 1622   0.258   0.478   3.510
  354SOL    HW2 1623   0.162   0.590   3.546
  355SOL     OW 1624   1.378   0.938   3.520
  355SOL    HW1 1625   1.399   1.031   3.517
  355SOL    HW2 1626   1.375   0.911   3.428
  356SOL     OW 1627   0.818   0.572   2.222
  356SOL    HW1 1628   0.824   0.495   2.165
  356SOL    HW2 1629   0.743   0.621   2.189
  357SOL     OW 1630   1.641   0.602   3.047
  357SOL    HW1 1631   1.631   0.541   3.120
  357SOL    HW2 1632   1.728   0.584   3.012
  358SOL     OW 1633   0.299   1.545   3.589
  358SOL    HW1 1634   0.250   1.614   3.633
  358SOL    HW2 1635   0.267   1.464   3.629
  359SOL     OW 1636   0.706   0.455   3.120
  359SOL    HW1 1637   0.657   0.377   3.094
  359SOL    HW2 1638   0.698   0.514   3.045
  360SOL     OW 1639   0.926   1.679   3.331
  360SOL    HW1 1640   0.901   1.643   3.246
  360SOL    HW2 1641   0.921   1.774   3.319
  361SOL     OW 1642   0.455   0.492   2.058
  361SOL    HW1 1643   0.519   0.561   2.075
  361SOL    HW2 1644   0.375   0.539   2.035
  362SOL     OW 1645   0.156   1.135   3.336
  362SOL    HW1 1646   0.158   1.084   3.417
  362SOL    HW2 1647   0.171   1.071   3.266
  363SOL     OW 1648   1.325   1.046   3.084
  363SOL    HW1 1649   1.348   0.983   3.016
  363SOL    HW2 1650   1.255   1.099   3.045
  364SOL     OW 1651   1.313   0.856   2.167
  364SOL    HW1 1652   1.238   0.827   2.219
  364SOL    HW2 1653   1.286   0.843   2.076
  365SOL     OW 1654   1.757   1.739   3.009
  365SOL    HW1 1655   1.828   1.765   2.950
  365SOL    HW2 1656   1.739   1.648   2.986
  366SOL     OW 1657   1.243   1.734   2.972
  366SOL    HW1 1658   1.325   1.755   2.929
  366SOL    HW2 1659   1.249   1.640   2.991
  367SOL     OW 1660   0.077   1.217   2.889
  367SOL    HW1 1661   0.083   1.243   2.981
  367SOL    HW2 1662   3.984   1.226   2.868
  368SOL     OW 1663   0.679   1.667   3.594
  368SOL    HW1 1664   0.622   1.743   3.587
  368SOL    HW2 1665   0.745   1.680   3.525
  369SOL     OW 1666   1.712   0.125   2.349
  369SOL    HW1 1667   1.792   0.134   2.296
  369SOL    HW2 1668   1.704   0.031   2.364
  370SOL     OW 1669   1.391   1.568   2.349
  370SOL    HW1 1670   1.447   1.601   2.278
  370SOL    HW2 1671   1.341   1.644   2.378
  371SOL     OW 1672   0.174   1.765   3.691
  371SOL    HW1 1673   0.117   1.715   3.749
  371SOL    HW2 1674   0.215   1.830   3.748
  372SOL     OW 1675   1.277   0.927   2.533
  372SOL    HW1 1676   1.351   0.867   2.543
  372SOL    HW2 1677   1.311   0.999   2.480
  373SOL     OW 1678   0.812   1.273   3.291
  373SOL    HW1 1679   0.784   1.314   3.373
  373SOL    HW2 1680   0.742   1.292   3.229
  374SOL     OW 1681   0.670   1.621   2.017
  374SOL    HW1 1682   0.681   1.633   1.923
  374SOL    HW2 1683   0.615   1.543   2.025
  375SOL     OW 1684   1.623   1.728   3.253
  375SOL    HW1 1685   1.672   1.734   3.171
  375SOL    HW2 1686   1.613   1.820   3.281
  376SOL     OW 1687   1.839   0.177   2.829
  376SOL    HW1 1688   1.871   0.107   2.772
  376SOL    HW2 1689   1.751   0.196   2.797
  377SOL     OW 1690   0.274   0.323   2.577
  377SOL    HW1 1691   0.188   0.358   2.551
  377SOL    HW2 1692   0.266   0.306   2.670
  378SOL     OW 1693   1.207   1.605   1.893
  378SOL    HW1 1694   1.197   1.513   1.920
  378SOL    HW2 1695   1.141   1.617   1.825
  379SOL     OW 1696   0.823   1.005   3.235
  379SOL    HW1 1697   0.867   1.001   3.150
  379SOL    HW2 1698   0.823   1.099   3.256
  380SOL     OW 1699   0.915   0.910   2.152
  380SOL    HW1 1700   0.977   0.943   2.086
  380SOL    HW2 1701   0.963   0.841   2.198
  381SOL     OW 1702   1.488   1.623   1.902
  381SOL    HW1 1703   1.394   1.618   1.887
  381SOL    HW2 1704   1.526   1.630   1.815
  382SOL     OW 1705   0.374   1.303   3.353
  382SOL    HW1 1706   0.359   1.383   3.303
  382SOL    HW2 1707   0.297   1.248   3.336
  383SOL     OW 1708   1.609   1.283   3.142
  383SOL    HW1 1709   1.670   1.272   3.215
  383SOL    HW2 1710   1.550   1.352   3.171
  384SOL     OW 1711   1.054   1.108   2.569
  384SOL    HW1 1712   0.983   1.057   2.608
  384SOL    HW2 1713   1.117   1.043   2.539
  385SOL     OW 1714   1.014   0.249   2.831
  385SOL    HW1 1715   1.004   0.198   2.750
  385SOL    HW2 1716   1.009   0.183   2.901
  386SOL     OW 1717   0.605   1.489   2.344
  386SOL    HW1 1718   0.650   1.439   2.275
  386SOL    HW2 1719   0.532   1.531   2.299
  387SOL     OW 1720   1.720   0.393   3.235
  387SOL    HW1 1721   1.792   0.456   3.239
  387SOL    HW2 1722   1.753   0.321   3.181
  388SOL     OW 1723   0.253   1.341   2.155
  388SOL    HW1 1724   0.160   1.350   2.135
  388SOL    HW2 1725   0.263   1.380   2.242
  389SOL     OW 1726   0.107   1.000   3.580
  389SOL    HW1 1727   0.046   0.991   3.653
  389SOL    HW2 1728   0.193   0.980   3.616
  390SOL     OW 1729   0.694   0.250   3.361
  390SOL    HW1 1730   0.762   0.197   3.320
  390SOL    HW2 1731   0.722   0.259   3.452
  391SOL     OW 1732   0.088   0.323   1.890
  391SOL    HW1 1733   3.993   0.320   1.883
  391SOL    HW2 1734   0.112   0.406   1.847
  392SOL     OW 1735   1.428   0.857   3.261
  392SOL    HW1 1736   1.380   0.919   3.206
  392SOL    HW2 1737   1.517   0.860   3.227
  393SOL     OW 1738   0.038   0.166   2.146
  393SOL    HW1 1739   0.036   0.235   2.081
  393SOL    HW2 1740   0.116   0.184   2.199
  394SOL     OW 1741   1.178   1.339   1.979
  394SOL    HW1 1742   1.088   1.308   1.981
  394SOL    HW2 1743   1.206   1.339   2.071
  395SOL     OW 1744   0.620   0.829   3.298
  395SOL    HW1 1745   0.676   0.905   3.282
  395SOL    HW2 1746   0.680   0.755   3.306
  396SOL     OW 1747   1.488   1.783   2.844
  396SOL    HW1 1748   1.510   1.847   2.777
  396SOL    HW2 1749   1.571   1.764   2.887
  397SOL     OW 1750   0.717   0.563   3.569
  397SOL    HW1 1751   0.761   0.625   3.627
  397SOL    HW2 1752   0.746   0.477   3.600
  398SOL     OW 1753   1.472   1.199   3.493
  398SOL    HW1 1754   1.460   1.213   3.587
  398SOL    HW2 1755   1.565   1.215   3.478
  399SOL     OW 1756   0.379   1.742   3.420
  399SOL    HW1 1757   0.292   1.780   3.407
  399SOL    HW2 1758   0.363   1.661   3.467
  400SOL     OW 1759   1.668   0.881   3.118
  400SOL    HW1 1760   1.663   0.796   3.075
  400SOL    HW2 1761   1.659   0.944   3.046
  401SOL     OW 1762   1.224   0.335   2.306
  401SOL    HW1 1763   1.291   0.267   2.298
  401SOL    HW2 1764   1.244   0.380   2.388
  402SOL     OW 1765   0.591   0.738   2.532
  402SOL    HW1 1766   0.628   0.825   2.516
  402SOL    HW2 1767   0.523   0.729   2.466
  403SOL     OW 1768   1.752   0.383   3.505
  403SOL    HW1 1769   1.734   0.388   3.411
  403SOL    HW2 1770   1.695   0.313   3.536
  404SOL     OW 1771   1.745   0.934   3.374
  404SOL    HW1 1772   1.740   1.029   3.387
  404SOL    HW2 1773   1.729   0.921   3.281
  405SOL     OW 1774   0.862   1.366   1.898
  405SOL    HW1 1775   0.824   1.394   1.981
  405SOL    HW2 1776   0.880   1.448   1.851
  406SOL     OW 1777   0.662   1.789   2.805
  406SOL    HW1 1778   0.642   1.880   2.783
  406SOL    HW2 1779   0.757   1.784   2.798
  407SOL     OW 1780   0.868   0.967   2.716
  407SOL    HW1 1781   0.918   0.896   2.755
  407SOL    HW2 1782   0.832   1.015   2.791
  408SOL     OW 1783   1.078   0.989   1.951
  408SOL    HW1 1784   1.057   1.040   1.873
  408SOL    HW2 1785   1.153   0.935   1.925
  409SOL     OW 1786   1.845   1.535   2.688
  409SOL    HW1 1787   1.759   1.534   2.647
  409SOL    HW2 1788   1.835   1.479   2.765
  410SOL     OW 1789   0.225   1.303   3.718
  410SOL    HW1 1790   0.153   1.246   3.691
  410SOL    HW2 1791   0.212   1.317   3.812
  411SOL     OW 1792   0.118   1.278   2.581
  411SOL    HW1 1793   0.130   1.227   2.662
  411SOL    HW2 1794   0.107   1.212   2.513
  412SOL     OW 1795   0.681   1.404   3.491
  412SOL    HW1 1796   0.601   1.361   3.521
  412SOL    HW2 1797   0.676   1.492   3.528
  413SOL     OW 1798   1.812   0.183   3.101
  413SOL    HW1 1799   1.815   0.089   3.115
  413SOL    HW2 1800   1.827   0.194   3.007
  414SOL     OW 1801   0.443   0.437   2.393
  414SOL    HW1 1802   0.458   0.362   2.336
  414SOL    HW2 1803   0.388   0.403   2.463
  415SOL     OW 1804   1.702   1.482   2.951
  415SOL    HW1 1805   1.619   1.462   2.908
  415SOL    HW2 1806   1.710   1.414   3.018
  416SOL     OW 1807   0.332   0.556   3.154
  416SOL    HW1 1808   0.388   0.500   3.208
  416SOL    HW2 1809   0.347   0.528   3.064
  417SOL     OW 1810   0.828   1.578   2.539
  417SOL    HW1 1811   0.814   1.637   2.464
  417SOL    HW2 1812   0.752   1.520   2.538
  418SOL     OW 1813   1.461   0.253   2.973
  418SOL    HW1 1814   1.478   0.166   3.009
  418SOL    HW2 1815   1.405   0.295   3.037
  419SOL     OW 1816   1.005   0.029   3.009
  419SOL    HW1 1817   0.926   3.986   2.975
  419SOL    HW2 1818   1.068   3.958   3.017
  420SOL     OW 1819   0.772   1.333   2.178
  420SOL    HW1 1820   0.742   1.242   2.184
  420SOL    HW2 1821   0.854   1.334   2.228
  421SOL     OW 1822   0.620   1.557   3.147
  421SOL    HW1 1823   0.622   1.639   3.197
  421SOL    HW2 1824   0.708   1.549   3.110
  422SOL     OW 1825   1.312   0.074   2.026
  422SOL    HW1 1826   1.327   3.998   1.970
  422SOL    HW2 1827   1.227   0.058   2.066
  423SOL     OW 1828   1.283   0.457   2.548
  423SOL    HW1 1829   1.236   0.540   2.543
  423SOL    HW2 1830   1.286   0.437   2.641
  424SOL     OW 1831   1.588   0.210   2.730
  424SOL    HW1 1832   1.539   0.234   2.808
  424SOL    HW2 1833   1.588   0.290   2.676
  425SOL     OW 1834   0.047   1.050   2.102
  425SOL    HW1 1835   0.141   1.033   2.093
  425SOL    HW2 1836   0.011   0.967   2.135
  426SOL     OW 1837   0.886   1.655   2.203
  426SOL    HW1 1838   0.812   1.638   2.144
  426SOL    HW2 1839   0.857   1.729   2.256
  427SOL     OW 1840   0.233   0.627   3.842
  427SOL    HW1 1841   0.140   0.631   3.864
  427SOL    HW2 1842   0.234   0.597   3.751
  428SOL     OW 1843   0.224   0.288   4.707
  428SOL    HW1 1844   0.247   0.250   4.792
  428SOL    HW2 1845   0.130   0.275   4.700
  429SOL     OW 1846   0.018   0.386   4.359
  429SOL    HW1 1847   3.928   0.398   4.390
  429SOL    HW2 1848   0.026   0.292   4.343
  430SOL     OW 1849   0.579   1.286   4.912
  430SOL    HW1 1850   0.492   1.289   4.871
  430SOL    HW2 1851   0.593   1.375   4.945
  431SOL     OW 1852   1.565   1.513   4.433
  431SOL    HW1 1853   1.522   1.493   4.516
  431SOL    HW2 1854   1.494   1.519   4.369
  432SOL     OW 1855   1.132   0.698   4.423
  432SOL    HW1 1856   1.180   0.780   4.410
  432SOL    HW2 1857   1.085   0.711   4.505
  433SOL     OW 1858   1.764   0.619   3.950
  433SOL    HW1 1859   1.743   0.611   3.857
  433SOL    HW2 1860   1.751   0.530   3.985
  434SOL     OW 1861   0.755   1.140   4.765
  434SOL    HW1 1862   0.690   1.175   4.826
  434SOL    HW2 1863   0.790   1.217   4.720
  435SOL     OW 1864   0.869   0.772   5.547
  435SOL    HW1 1865   0.859   0.844   5.610
  435SOL    HW2 1866   0.892   0.816   5.465
  436SOL     OW 1867   0.685   1.003   4.370
  436SOL    HW1 1868   0.751   0.991   4.439
  436SOL    HW2 1869   0.616   1.054   4.412
  437SOL     OW 1870   0.711   1.149   5.538
  437SOL    HW1 1871   0.758   1.227   5.566
  437SOL    HW2 1872   0.629   1.183   5.502
  438SOL     OW 1873   0.351   1.402   4.803
  438SOL    HW1 1874   0.270   1.382   4.756
  438SOL    HW2 1875   0.399   1.460   4.744
  439SOL     OW 1876   1.461   1.501   5.079
  439SOL    HW1 1877   1.513   1.581   5.088
  439SOL    HW2 1878   1.398   1.505   5.151
  440SOL     OW 1879   0.456   0.408   5.221
  440SOL    HW1 1880   0.537   0.357   5.219
  440SOL    HW2 1881   0.386   0.342   5.223
  441SOL     OW 1882   1.612   0.451   4.459
  441SOL    HW1 1883   1.541   0.482   4.403
  441SOL    HW2 1884   1.632   0.525   4.516
  442SOL     OW 1885   0.221   1.718   4.182
  442SOL    HW1 1886   0.240   1.793   4.239
  442SOL    HW2 1887   0.299   1.710   4.127
  443SOL     OW 1888   1.137   1.342   5.417
  443SOL    HW1 1889   1.178   1.337   5.504
  443SOL    HW2 1890   1.085   1.262   5.411
  444SOL     OW 1891   0.248   1.449   4.264
  444SOL    HW1 1892   0.215   1.538   4.250
  444SOL    HW2 1893   0.181   1.405   4.315
  445SOL     OW 1894   0.247   1.067   4.609
  445SOL    HW1 1895   0.266   0.982   4.649
  445SOL    HW2 1896   0.194   1.113   4.674
  446SOL     OW 1897   0.611   1.792   5.152
  446SOL    HW1 1898   0.529   1.774   5.197
  446SOL    HW2 1899   0.634   1.881   5.178
  447SOL     OW 1900   0.579   0.985   3.862
  447SOL    HW1 1901   0.626   1.030   3.792
  447SOL    HW2 1902   0.621   1.014   3.942
  448SOL     OW 1903   1.579   0.139   5.180
  448SOL    HW1 1904   1.608   0.212   5.125
  448SOL    HW2 1905   1.550   0.180   5.261
  449SOL     OW 1906   0.140   0.651   4.293
  449SOL    HW1 1907   0.097   0.565   4.298
  449SOL    HW2 1908   0.102   0.701   4.366
  450SOL     OW 1909   0.044   1.590   3.863
  450SOL    HW1 1910   0.035   1.498   3.887
  450SOL    HW2 1911   3.962   1.630   3.893
  451SOL     OW 1912   1.687   0.916   4.365
  451SOL    HW1 1913   1.772   0.876   4.346
  451SOL    HW2 1914   1.667   0.969   4.287
  452SOL     OW 1915   1.647   1.106   4.153
  452SOL    HW1 1916   1.734   1.111   4.112
  452SOL    HW2 1917   1.652   1.168   4.226
  453SOL     OW 1918   0.138   0.755   5.313
  453SOL    HW1 1919   0.234   0.750   5.310
  453SOL    HW2 1920   0.120   0.845   5.341
  454SOL     OW 1921   0.613   1.386   4.460
  454SOL    HW1 1922   0.567   1.303   4.469
  454SOL    HW2 1923   0.597   1.412   4.369
  455SOL     OW 1924   1.288   1.238   5.147
  455SOL    HW1 1925   1.320   1.170   5.087
  455SOL    HW2 1926   1.346   1.232   5.223
  456SOL     OW 1927   0.819   0.003   4.240
  456SOL    HW1 1928   0.864   0.084   4.216
  456SOL    HW2 1929   0.726   0.027   4.240
  457SOL     OW 1930   0.184   0.951   5.001
  457SOL    HW1 1931   0.273   0.916   4.989
  457SOL    HW2 1932   0.132   0.908   4.934
  458SOL     OW 1933   1.531   0.995   3.923
  458SOL    HW1 1934   1.462   0.938   3.956
  458SOL    HW2 1935   1.573   1.029   4.002
  459SOL     OW 1936   1.184   1.808   5.347
  459SOL    HW1 1937   1.195   1.867   5.272
  459SOL    HW2 1938   1.202   1.720   5.311
  460SOL     OW 1939   0.343   0.252   5.558
  460SOL    HW1 1940   0.386   0.336   5.541
  460SOL    HW2 1941   0.252   0.276   5.577
  461SOL     OW 1942   1.465   1.420   4.674
  461SOL    HW1 1943   1.398   1.435   4.740
  461SOL    HW2 1944   1.453   1.328   4.648
  462SOL     OW 1945   1.666   1.732   4.282
  462SOL    HW1 1946   1.630   1.696   4.201
  462SOL    HW2 1947   1.646   1.666   4.349
  463SOL     OW 1948   0.596   0.718   3.989
  463SOL    HW1 1949   0.601   0.802   3.943
  463SOL    HW2 1950   0.533   0.733   4.059
  464SOL     OW 1951   1.275   0.367   4.664
  464SOL    HW1 1952   1.188   0.328   4.671
  464SOL    HW2 1953   1.332   0.305   4.710
  465SOL     OW 1954   1.575   1.670   4.023
  465SOL    HW1 1955   1.661   1.708   4.003
  465SOL    HW2 1956   1.539   1.645   3.939
  466SOL     OW 1957   0.794   0.616   5.178
  466SOL    HW1 1958   0.765   0.591   5.265
  466SOL    HW2 1959   0.755   0.551   5.120
  467SOL     OW 1960   1.392   0.476   5.401
  467SOL    HW1 1961   1.398   0.521   5.486
  467SOL    HW2 1962   1.451   0.401   5.410
  468SOL     OW 1963   0.953   0.888   5.307
  468SOL    HW1 1964   1.008   0.818   5.271
  468SOL    HW2 1965   0.905   0.922   5.232
  469SOL     OW 1966   0.991   0.403   4.963
  469SOL    HW1 1967   0.907   0.425   5.003
  469SOL    HW2 1968   0.969   0.373   4.875
  470SOL     OW 1969   1.052   0.699   4.150
  470SOL    HW1 1970   1.068   0.692   4.244
  470SOL    HW2 1971   0.969   0.653   4.136
  471SOL     OW 1972   0.081   0.827   4.515
  471SOL    HW1 1973   0.156   0.795   4.565
  471SOL    HW2 1974   0.099   0.920   4.502
  472SOL     OW 1975   0.130   1.861   5.299
  472SOL    HW1 1976   0.137   1.826   5.388
  472SOL    HW2 1977   0.037   1.848   5.277
  473SOL     OW 1978   0.894   0.351   3.922
  473SOL    HW1 1979   0.936   0.411   3.860
  473SOL    HW2 1980   0.893   0.266   3.878
  474SOL     OW 1981   1.709   0.575   5.553
  474SOL    HW1 1982   1.671   0.649   5.505
  474SOL    HW2 1983   1.733   0.512   5.485
  475SOL     OW 1984   1.378   1.141   4.264
  475SOL    HW1 1985   1.457   1.130   4.212
  475SOL    HW2 1986   1.325   1.204   4.214
  476SOL     OW 1987   0.560   0.195   4.605
  476SOL    HW1 1988   0.565   0.218   4.698
  476SOL    HW2 1989   0.547   0.278   4.560
  477SOL     OW 1990   1.004   1.444   4.195
  477SOL    HW1 1991   0.968   1.518   4.146
  477SOL    HW2 1992   0.985   1.465   4.286
  478SOL     OW 1993   0.365   1.817   4.593
  478SOL    HW1 1994   0.429   1.746   4.601
  478SOL    HW2 1995   0.415   1.897   4.609
  479SOL     OW 1996   1.799   1.053   4.594
  479SOL    HW1 1997   1.745   1.039   4.516
  479SOL    HW2 1998   1.737   1.060   4.666
  480SOL     OW 1999   1.228   1.539   5.237
  480SOL    HW1 2000   1.214   1.466   5.298
  480SOL    HW2 2001   1.164   1.524   5.167
  481SOL     OW 2002   0.310   0.954   3.966
  481SOL    HW1 2003   0.394   0.977   3.926
  481SOL    HW2 2004   0.297   0.862   3.944
  482SOL     OW 2005   1.478   0.746   4.454
  482SOL    HW1 2006   1.472   0.703   4.539
  482SOL    HW2 2007   1.556   0.801   4.460
  483SOL     OW 2008   0.467   1.261   5.461
  483SOL    HW1 2009   0.441   1.269   5.369
  483SOL    HW2 2010   0.385   1.264   5.510
  484SOL     OW 2011   1.122   1.776   3.955
  484SOL    HW1 2012   1.048   1.736   4.000
  484SOL    HW2 2013   1.144   1.714   3.886
  485SOL     OW 2014   0.200   0.295   5.223
  485SOL    HW1 2015   0.107   0.315   5.222
  485SOL    HW2 2016   0.208   0.226   5.289
  486SOL     OW 2017   1.628   1.379   3.812
  486SOL    HW1 2018   1.587   1.464   3.795
  486SOL    HW2 2019   1.559   1.316   3.792
  487SOL     OW 2020   0.466   1.739   4.041
  487SOL    HW1 2021   0.509   1.796   4.105
  487SOL    HW2 2022   0.538   1.705   3.988
  488SOL     OW 2023   1.440   0.164   4.129
  488SOL    HW1 2024   1.394   0.097   4.077
  488SOL    HW2 2025   1.512   0.117   4.170
  489SOL     OW 2026   0.251   1.791   4.956
  489SOL    HW1 2027   0.298   1.727   5.009
  489SOL    HW2 2028   0.248   1.752   4.868
  490SOL     OW 2029   0.938   1.699   4.622
  490SOL    HW1 2030   1.016   1.648   4.643
  490SOL    HW2 2031   0.895   1.649   4.553
  491SOL     OW 2032   0.396   0.694   4.195
  491SOL    HW1 2033   0.422   0.604   4.210
  491SOL    HW2 2034   0.304   0.697   4.221
  492SOL     OW 2035   1.530   0.230   5.451
  492SOL    HW1 2036   1.527   0.255   5.543
  492SOL    HW2 2037   1.508   0.137   5.451
  493SOL     OW 2038   0.644   0.132   3.826
  493SOL    HW1 2039   0.670   0.049   3.867
  493SOL    HW2 2040   0.583   0.106   3.757
  494SOL     OW 2041   0.777   0.283   5.489
  494SOL    HW1 2042   0.848   0.219   5.493
  494SOL    HW2 2043   0.719   0.258   5.561
  495SOL     OW 2044   0.876   1.522   4.918
  495SOL    HW1 2045   0.860   1.485   4.831
  495SOL    HW2 2046   0.946   1.468   4.955
  496SOL     OW 2047   1.340   0.587   5.154
  496SOL    HW1 2048   1.371   0.558   5.241
  496SOL    HW2 2049   1.375   0.676   5.145
  497SOL     OW 2050   0.815   1.394   4.664
  497SOL    HW1 2051   0.900   1.382   4.622
  497SOL    HW2 2052   0.753   1.395   4.592
  498SOL     OW 2053   0.930   0.512   4.625
  498SOL    HW1 2054   0.906   0.503   4.533
  498SOL    HW2 2055   0.956   0.423   4.651
  499SOL     OW 2056   0.546   0.056   4.212
  499SOL    HW1 2057   0.472   0.064   4.273
  499SOL    HW2 2058   0.548   0.140   4.167
  500SOL     OW 2059   1.427   1.198   3.765
  500SOL    HW1 2060   1.458   1.123   3.815
  500SOL    HW2 2061   1.342   1.219   3.802
  501SOL     OW 2062   0.341   0.040   3.921
  501SOL    HW1 2063   0.361   0.086   3.840
  501SOL    HW2 2064   0.425   0.034   3.967
  502SOL     OW 2065   0.941   0.248   4.186
  502SOL    HW1 2066   0.914   0.289   4.103
  502SOL    HW2 2067   1.036   0.252   4.185
  503SOL     OW 2068   1.079   0.682   5.183
  503SOL    HW1 2069   1.009   0.618   5.190
  503SOL    HW2 2070   1.160   0.631   5.178
  504SOL     OW 2071   1.222   1.571   4.519
  504SOL    HW1 2072   1.238   1.637   4.452
  504SOL    HW2 2073   1.291   1.584   4.583
  505SOL     OW 2074   0.466   1.150   4.461
  505SOL    HW1 2075   0.394   1.126   4.519
  505SOL    HW2 2076   0.432   1.135   4.373
  506SOL     OW 2077   1.266   1.793   4.332
  506SOL    HW1 2078   1.311   1.855   4.276
  506SOL    HW2 2079   1.200   1.845   4.378
  507SOL     OW 2080   1.023   0.544   3.751
  507SOL    HW1 2081   0.979   0.627   3.732
  507SOL    HW2 2082   1.086   0.565   3.819
  508SOL     OW 2083   0.080   0.572   5.117
  508SOL    HW1 2084   0.169   0.555   5.087
  508SOL    HW2 2085   0.089   0.644   5.180
  509SOL     OW 2086   0.572   0.231   4.884
  509SOL    HW1 2087   0.594   0.139   4.893
  509SOL    HW2 2088   0.481   0.237   4.914
  510SOL     OW 2089   0.871   0.462   4.363
  510SOL    HW1 2090   0.820   0.514   4.301
  510SOL    HW2 2091   0.890   0.380   4.316
  511SOL     OW 2092   0.996   0.040   4.504
  511SOL    HW1 2093   0.960   0.068   4.419
  511SOL    HW2 2094   1.006   3.946   4.496
  512SOL     OW 2095   1.438   1.162   4.581
  512SOL    HW1 2096   1.368   1.097   4.580
  512SOL    HW2 2097   1.463   1.173   4.490
  513SOL     OW 2098   1.465   0.606   4.700
  513SOL    HW1 2099   1.412   0.526   4.705
  513SOL    HW2 2100   1.525   0.599   4.774
  514SOL     OW 2101   1.845   0.819   4.110
  514SOL    HW1 2102   1.901   0.766   4.167
  514SOL    HW2 2103   1.815   0.758   4.043
  515SOL     OW 2104   0.488   1.419   3.884
  515SOL    HW1 2105   0.412   1.388   3.934
  515SOL    HW2 2106   0.471   1.390   3.795
  516SOL     OW 2107   1.670   1.264   4.369
  516SOL    HW1 2108   1.765   1.265   4.383
  516SOL    HW2 2109   1.643   1.353   4.391
  517SOL     OW 2110   1.395   0.575   3.794
  517SOL    HW1 2111   1.332   0.556   3.863
  517SOL    HW2 2112   1.480   0.555   3.832
  518SOL     OW 2113   0.558   0.271   4.043
  518SOL    HW1 2114   0.603   0.231   3.968
  518SOL    HW2 2115   0.528   0.356   4.010
  519SOL     OW 2116   1.751   1.239   5.295
  519SOL    HW1 2117   1.839   1.201   5.291
  519SOL    HW2 2118   1.766   1.330   5.324
  520SOL     OW 2119   1.057   1.354   5.057
  520SOL    HW1 2120   0.983   1.322   5.108
  520SOL    HW2 2121   1.133   1.312   5.098
  521SOL     OW 2122   1.607   1.625   5.374
  521SOL    HW1 2123   1.603   1.661   5.285
  521SOL    HW2 2124   1.691   1.578   5.377
  522SOL     OW 2125   1.130   1.205   4.829
  522SOL    HW1 2126   1.071   1.242   4.894
  522SOL    HW2 2127   1.098   1.237   4.745
  523SOL     OW 2128   1.627   1.098   4.801
  523SOL    HW1 2129   1.622   1.160   4.874
  523SOL    HW2 2130   1.549   1.115   4.749
  524SOL     OW 2131   0.913   0.113   5.125
  524SOL    HW1 2132   0.933   0.088   5.035
  524SOL    HW2 2133   0.993   0.155   5.156
  525SOL     OW 2134   0.984   1.115   5.447
  525SOL    HW1 2135   0.892   1.131   5.469
  525SOL    HW2 2136   0.982   1.037   5.392
  526SOL     OW 2137   0.708   1.061   4.095
  526SOL    HW1 2138   0.694   1.045   4.188
  526SOL    HW2 2139   0.784   1.008   4.072
  527SOL     OW 2140   0.422   0.816   4.976
  527SOL    HW1 2141   0.490   0.823   5.043
  527SOL    HW2 2142   0.387   0.728   4.986
  528SOL     OW 2143   1.266   0.375   5.000
  528SOL    HW1 2144   1.300   0.453   5.045
  528SOL    HW2 2145   1.179   0.401   4.970
  529SOL     OW 2146   0.065   1.580   5.070
  529SOL    HW1 2147   0.070   1.640   4.996
  529SOL    HW2 2148   0.156   1.566   5.096
  530SOL     OW 2149   0.373   1.103   4.208
  530SOL    HW1 2150   0.366   1.181   4.153
  530SOL    HW2 2151   0.371   1.030   4.146
  531SOL     OW 2152   0.555   0.536   4.582
  531SOL    HW1 2153   0.570   0.594   4.508
  531SOL    HW2 2154   0.620   0.562   4.647
  532SOL     OW 2155   1.248   1.348   4.113
  532SOL    HW1 2156   1.303   1.419   4.145
  532SOL    HW2 2157   1.161   1.369   4.147
  533SOL     OW 2158   1.283   1.459   4.872
  533SOL    HW1 2159   1.339   1.462   4.949
  533SOL    HW2 2160   1.228   1.381   4.885
  534SOL     OW 2161   1.576   0.633   4.210
  534SOL    HW1 2162   1.534   0.691   4.273
  534SOL    HW2 2163   1.623   0.692   4.151
  535SOL     OW 2164   0.345   1.527   5.043
  535SOL    HW1 2165   0.335   1.476   4.962
  535SOL    HW2 2166   0.440   1.542   5.050
  536SOL     OW 2167   0.415   0.738   5.325
  536SOL    HW1 2168   0.477   0.784   5.268
  536SOL    HW2 2169   0.454   0.652   5.338
  537SOL     OW 2170   1.602   0.779   5.408
  537SOL    HW1 2171   1.516   0.821   5.400
  537SOL    HW2 2172   1.655   0.820   5.339
  538SOL     OW 2173   1.014   0.129   5.502
  538SOL    HW1 2174   1.062   0.203   5.465
  538SOL    HW2 2175   1.003   0.069   5.429
  539SOL     OW 2176   0.481   0.036   5.490
  539SOL    HW1 2177   0.491   0.045   5.395
  539SOL    HW2 2178   0.420   0.106   5.514
  540SOL     OW 2179   0.584   0.874   4.755
  540SOL    HW1 2180   0.615   0.965   4.757
  540SOL    HW2 2181   0.528   0.867   4.833
  541SOL     OW 2182   1.355   0.858   4.752
  541SOL    HW1 2183   1.271   0.847   4.707
  541SOL    HW2 2184   1.398   0.773   4.746
  542SOL     OW 2185   1.202   0.536   3.984
  542SOL    HW1 2186   1.211   0.457   4.037
  542SOL    HW2 2187   1.158   0.599   4.042
  543SOL     OW 2188   0.312   0.213   4.965
  543SOL    HW1 2189   0.269   0.249   5.043
  543SOL    HW2 2190   0.296   0.119   4.970
  544SOL     OW 2191   0.060   1.306   5.004
  544SOL    HW1 2192   0.090   1.264   5.085
  544SOL    HW2 2193   0.051   1.398   5.026
  545SOL     OW 2194   0.725   0.634   4.778
  545SOL    HW1 2195   0.799   0.618   4.720
  545SOL    HW2 2196   0.696   0.722   4.757
  546SOL     OW 2197   1.736   0.959   5.576
  546SOL    HW1 2198   1.689   0.897   5.521
  546SOL    HW2 2199   1.677   0.974   5.651
  547SOL     OW 2200   0.328   0.055   4.376
  547SOL    HW1 2201   0.300   0.147   4.377
  547SOL    HW2 2202   0.290   0.017   4.456
  548SOL     OW 2203   1.605   0.390   4.106
  548SOL    HW1 2204   1.569   0.322   4.163
  548SOL    HW2 2205   1.586   0.472   4.150
  549SOL     OW 2206   1.029   0.759   4.684
  549SOL    HW1 2207   1.023   0.777   4.778
  549SOL    HW2 2208   1.002   0.668   4.674
  550SOL     OW 2209   0.982   1.566   5.442
  550SOL    HW1 2210   0.967   1.610   5.359
  550SOL    HW2 2211   1.026   1.484   5.419
  551SOL     OW 2212   1.854   1.503   5.328
  551SOL    HW1 2213   1.871   1.533   5.238
  551SOL    HW2 2214   1.938   1.515   5.373
  552SOL     OW 2215   0.352   0.921   5.523
  552SOL    HW1 2216   0.431   0.941   5.575
  552SOL    HW2 2217   0.381   0.854   5.462
  553SOL     OW 2218   1.506   0.276   3.860
  553SOL    HW1 2219   1.432   0.217   3.872
  553SOL    HW2 2220   1.520   0.315   3.946
  554SOL     OW 2221   1.290   0.827   3.754
  554SOL    HW1 2222   1.332   0.741   3.757
  554SOL    HW2 2223   1.322   0.866   3.672
  555SOL     OW 2224   1.066   1.336   4.579
  555SOL    HW1 2225   1.069   1.264   4.516
  555SOL    HW2 2226   1.127   1.401   4.544
  556SOL     OW 2227   0.313   0.804   4.674
  556SOL    HW1 2228   0.407   0.820   4.668
  556SOL    HW2 2229   0.307   0.714   4.706
  557SOL     OW 2230   0.338   0.528   4.738
  557SOL    HW1 2231   0.297   0.443   4.720
  557SOL    HW2 2232   0.413   0.532   4.679
  558SOL     OW 2233   1.133   0.381   5.420
  558SOL    HW1 2234   1.085   0.436   5.481
  558SOL    HW2 2235   1.220   0.421   5.415
  559SOL     OW 2236   1.151   0.225   5.205
  559SOL    HW1 2237   1.142   0.280   5.283
  559SOL    HW2 2238   1.175   0.286   5.136
  560SOL     OW 2239   4.000   1.318   3.906
  560SOL    HW1 2240   3.906   1.334   3.910
  560SOL    HW2 2241   0.009   1.225   3.925
  561SOL     OW 2242   0.077   1.800   4.613
  561SOL    HW1 2243   0.081   1.705   4.618
  561SOL    HW2 2244   0.169   1.828   4.616
  562SOL     OW 2245   0.502   1.571   4.635
  562SOL    HW1 2246   0.571   1.631   4.660
  562SOL    HW2 2247   0.545   1.508   4.577
  563SOL     OW 2248   0.980   0.790   4.949
  563SOL    HW1 2249   1.036   0.769   5.024
  563SOL    HW2 2250   0.895   0.752   4.971
  564SOL     OW 2251   0.035   0.571   4.837
  564SOL    HW1 2252   0.099   0.521   4.786
  564SOL    HW2 2253   0.061   0.558   4.928
  565SOL     OW 2254   0.210   0.516   5.446
  565SOL    HW1 2255   0.258   0.479   5.372
  565SOL    HW2 2256   0.162   0.590   5.408
  566SOL     OW 2257   1.378   0.938   5.382
  566SOL    HW1 2258   1.399   1.031   5.379
  566SOL    HW2 2259   1.375   0.911   5.290
  567SOL     OW 2260   0.818   0.572   4.084
  567SOL    HW1 2261   0.824   0.495   4.027
  567SOL    HW2 2262   0.743   0.621   4.051
  568SOL     OW 2263   1.641   0.602   4.908
  568SOL    HW1 2264   1.631   0.542   4.982
  568SOL    HW2 2265   1.728   0.584   4.874
  569SOL     OW 2266   0.299   1.545   5.451
  569SOL    HW1 2267   0.250   1.614   5.495
  569SOL    HW2 2268   0.267   1.464   5.490
  570SOL     OW 2269   0.706   0.455   4.982
  570SOL    HW1 2270   0.657   0.377   4.956
  570SOL    HW2 2271   0.698   0.514   4.907
  571SOL     OW 2272   0.926   1.679   5.193
  571SOL    HW1 2273   0.901   1.643   5.108
  571SOL    HW2 2274   0.921   1.774   5.181
  572SOL     OW 2275   0.455   0.492   3.920
  572SOL    HW1 2276   0.519   0.561   3.937
  572SOL    HW2 2277   0.375   0.539   3.897
  573SOL     OW 2278   0.156   1.135   5.198
  573SOL    HW1 2279   0.158   1.084   5.279
  573SOL    HW2 2280   0.171   1.071   5.129
  574SOL     OW 2281   1.325   1.046   4.946
  574SOL    HW1 2282   1.348   0.983   4.878
  574SOL    HW2 2283   1.255   1.099   4.907
  575SOL     OW 2284   1.313   0.856   4.029
  575SOL    HW1 2285   1.238   0.827   4.081
  575SOL    HW2 2286   1.286   0.843   3.938
  576SOL     OW 2287   1.753   1.739   4.868
  576SOL    HW1 2288   1.826   1.764   4.811
  576SOL    HW2 2289   1.736   1.647   4.847
  577SOL     OW 2290   1.243   1.734   4.834
  577SOL    HW1 2291   1.326   1.755   4.791
  577SOL    HW2 2292   1.249   1.640   4.853
  578SOL     OW 2293   0.077   1.217   4.751
  578SOL    HW1 2294   0.083   1.243   4.843
  578SOL    HW2 2295   3.984   1.226   4.730
  579SOL     OW 2296   0.680   1.667   5.456
  579SOL    HW1 2297   0.622   1.743   5.448
  579SOL    HW2 2298   0.745   1.679   5.388
  580SOL     OW 2299   1.712   0.125   4.211
  580SOL    HW1 2300   1.792   0.134   4.158
  580SOL    HW2 2301   1.704   0.031   4.226
  581SOL     OW 2302   1.391   1.568   4.211
  581SOL    HW1 2303   1.447   1.601   4.140
  581SOL    HW2 2304   1.341   1.644   4.240
  582SOL     OW 2305   0.174   1.765   5.553
  582SOL    HW1 2306   0.116   1.714   5.611
  582SOL    HW2 2307   0.215   1.830   5.611
  583SOL     OW 2308   1.277   0.927   4.395
  583SOL    HW1 2309   1.351   0.867   4.405
  583SOL    HW2 2310   1.311   0.999   4.342
  584SOL     OW 2311   0.812   1.273   5.153
  584SOL    HW1 2312   0.784   1.314   5.235
  584SOL    HW2 2313   0.741   1.292   5.091
  585SOL     OW 2314   0.670   1.621   3.879
  585SOL    HW1 2315   0.681   1.633   3.785
  585SOL    HW2 2316   0.615   1.543   3.887
  586SOL     OW 2317   1.623   1.729   5.113
  586SOL    HW1 2318   1.671   1.734   5.031
  586SOL    HW2 2319   1.613   1.820   5.141
  587SOL     OW 2320   1.839   0.177   4.691
  587SOL    HW1 2321   1.871   0.107   4.634
  587SOL    HW2 2322   1.751   0.196   4.659
  588SOL     OW 2323   0.274   0.323   4.439
  588SOL    HW1 2324   0.188   0.358   4.413
  588SOL    HW2 2325   0.266   0.306   4.532
  589SOL     OW 2326   1.207   1.605   3.755
  589SOL    HW1 2327   1.197   1.513   3.782
  589SOL    HW2 2328   1.141   1.617   3.686
  590SOL     OW 2329   0.823   1.005   5.097
  590SOL    HW1 2330   0.867   1.001   5.012
  590SOL    HW2 2331   0.823   1.098   5.118
  591SOL     OW 2332   0.915   0.910   4.014
  591SOL    HW1 2333   0.977   0.943   3.948
  591SOL    HW2 2334   0.963   0.841   4.060
  592SOL     OW 2335   1.488   1.623   3.764
  592SOL    HW1 2336   1.394   1.618   3.749
  592SOL    HW2 2337   1.526   1.630   3.677
  593SOL     OW 2338   0.374   1.303   5.216
  593SOL    HW1 2339   0.358   1.383   5.165
  593SOL    HW2 2340   0.297   1.248   5.198
  594SOL     OW 2341   1.609   1.283   5.004
  594SOL    HW1 2342   1.670   1.271   5.077
  594SOL    HW2 2343   1.550   1.352   5.033
  595SOL     OW 2344   1.054   1.108   4.431
  595SOL    HW1 2345   0.983   1.057   4.470
  595SOL    HW2 2346   1.117   1.043   4.401
  596SOL     OW 2347   1.014   0.249   4.693
  596SOL    HW1 2348   1.004   0.198   4.612
  596SOL    HW2 2349   1.009   0.183   4.763
  597SOL     OW 2350   0.605   1.489   4.206
  597SOL    HW1 2351   0.650   1.439   4.137
  597SOL    HW2 2352   0.532   1.531   4.161
  598SOL     OW 2353   1.720   0.393   5.097
  598SOL    HW1 2354   1.792   0.456   5.101
  598SOL    HW2 2355   1.753   0.321   5.043
  599SOL     OW 2356   0.253   1.341   4.017
  599SOL    HW1 2357   0.160   1.350   3.997
  599SOL    HW2 2358   0.263   1.380   4.104
  600SOL     OW 2359   0.107   1.000   5.442
  600SOL    HW1 2360   0.046   0.991   5.516
  600SOL    HW2 2361   0.193   0.980   5.478
  601SOL     OW 2362   0.694   0.250   5.223
  601SOL    HW1 2363   0.762   0.197   5.182
  601SOL    HW2 2364   0.722   0.259   5.314
  602SOL     OW 2365   0.088   0.323   3.751
  602SOL    HW1 2366   3.993   0.320   3.745
  602SOL    HW2 2367   0.112   0.406   3.709
  603SOL     OW 2368   1.428   0.857   5.123
  603SOL    HW1 2369   1.380   0.919   5.068
  603SOL    HW2 2370   1.517   0.860   5.089
  604SOL     OW 2371   0.038   0.166   4.008
  604SOL    HW1 2372   0.036   0.235   3.943
  604SOL    HW2 2373   0.116   0.184   4.061
  605SOL     OW 2374   1.178   1.339   3.841
  605SOL    HW1 2375   1.088   1.308   3.843
  605SOL    HW2 2376   1.206   1.339   3.933
  606SOL     OW 2377   0.620   0.829   5.160
  606SOL    HW1 2378   0.676   0.905   5.144
  606SOL    HW2 2379   0.680   0.755   5.168
  607SOL     OW 2380   1.488   1.783   4.706
  607SOL    HW1 2381   1.511   1.847   4.639
  607SOL    HW2 2382   1.571   1.764   4.750
  608SOL     OW 2383   0.717   0.563   5.431
  608SOL    HW1 2384   0.760   0.625   5.489
  608SOL    HW2 2385   0.746   0.477   5.462
  609SOL     OW 2386   1.472   1.199   5.355
  609SOL    HW1 2387   1.460   1.213   5.449
  609SOL    HW2 2388   1.565   1.215   5.341
  610SOL     OW 2389   0.379   1.743   5.282
  610SOL    HW1 2390   0.292   1.780   5.269
  610SOL    HW2 2391   0.363   1.661   5.329
  611SOL     OW 2392   1.668   0.881   4.980
  611SOL    HW1 2393   1.663   0.796   4.937
  611SOL    HW2 2394   1.659   0.944   4.908
  612SOL     OW 2395   1.224   0.335   4.168
  612SOL    HW1 2396   1.291   0.267   4.160
  612SOL    HW2 2397   1.244   0.380   4.250
  613SOL     OW 2398   0.591   0.738   4.394
  613SOL    HW1 2399   0.628   0.825   4.378
  613SOL    HW2 2400   0.523   0.729   4.328
  614SOL     OW 2401   1.752   0.383   5.367
  614SOL    HW1 2402   1.734   0.388   5.273
  614SOL    HW2 2403   1.695   0.313   5.398
  615SOL     OW 2404   1.745   0.934   5.236
  615SOL    HW1 2405   1.740   1.028   5.249
  615SOL    HW2 2406   1.729   0.922   5.143
  616SOL     OW 2407   0.862   1.366   3.760
  616SOL    HW1 2408   0.824   1.395   3.843
  616SOL    HW2 2409   0.880   1.448   3.713
  617SOL     OW 2410   0.662   1.789   4.667
  617SOL    HW1 2411   0.642   1.880   4.645
  617SOL    HW2 2412   0.757   1.784   4.660
  618SOL     OW 2413   0.868   0.967   4.578
  618SOL    HW1 2414   0.918   0.896   4.617
  618SOL    HW2 2415   0.832   1.015   4.653
  619SOL     OW 2416   1.078   0.989   3.813
  619SOL    HW1 2417   1.057   1.040   3.735
  619SOL    HW2 2418   1.153   0.935   3.787
  620SOL     OW 2419   1.845   1.539   4.553
  620SOL    HW1 2420   1.760   1.536   4.509
  620SOL    HW2 2421   1.835   1.480   4.628
  621SOL     OW 2422   0.225   1.303   5.580
  621SOL    HW1 2423   0.153   1.246   5.553
  621SOL    HW2 2424   0.211   1.317   5.673
  622SOL     OW 2425   0.118   1.278   4.444
  622SOL    HW1 2426   0.130   1.227   4.524
  622SOL    HW2 2427   0.107   1.212   4.375
  623SOL     OW 2428   0.680   1.404   5.352
  623SOL    HW1 2429   0.601   1.361   5.383
  623SOL    HW2 2430   0.677   1.492   5.390
  624SOL     OW 2431   1.812   0.183   4.963
  624SOL    HW1 2432   1.815   0.089   4.977
  624SOL    HW2 2433   1.827   0.194   4.869
  625SOL     OW 2434   0.443   0.437   4.255
  625SOL    HW1 2435   0.458   0.362   4.198
  625SOL    HW2 2436   0.388   0.403   4.325
  626SOL     OW 2437   1.702   1.480   4.813
  626SOL    HW1 2438   1.619   1.461   4.770
  626SOL    HW2 2439   1.710   1.413   4.881
  627SOL     OW 2440   0.332   0.556   5.016
  627SOL    HW1 2441   0.388   0.500   5.070
  627SOL    HW2 2442   0.347   0.528   4.926
  628SOL     OW 2443   0.828   1.578   4.401
  628SOL    HW1 2444   0.814   1.637   4.326
  628SOL    HW2 2445   0.752   1.520   4.400
  629SOL     OW 2446   1.461   0.253   4.835
  629SOL    HW1 2447   1.478   0.166   4.871
  629SOL    HW2 2448   1.405   0.295   4.899
  630SOL     OW 2449   1.004   0.029   4.871
  630SOL    HW1 2450   0.926   3.986   4.836
  630SOL    HW2 2451   1.068   3.958   4.879
  631SOL     OW 2452   0.772   1.333   4.040
  631SOL    HW1 2453   0.742   1.242   4.046
  631SOL    HW2 2454   0.854   1.334   4.089
  632SOL     OW 2455   0.620   1.557   5.009
  632SOL    HW1 2456   0.622   1.639   5.059
  632SOL    HW2 2457   0.708   1.549   4.972
  633SOL     OW 2458   1.312   0.074   3.888
  633SOL    HW1 2459   1.327   3.998   3.832
  633SOL    HW2 2460   1.227   0.058   3.928
  634SOL     OW 2461   1.283   0.457   4.410
  634SOL    HW1 2462   1.236   0.540   4.405
  634SOL    HW2 2463   1.286   0.437   4.503
  635SOL     OW 2464   1.588   0.210   4.592
  635SOL    HW1 2465   1.539   0.234   4.670
  635SOL    HW2 2466   1.588   0.290   4.538
  636SOL     OW 2467   0.047   1.050   3.964
  636SOL    HW1 2468   0.141   1.033   3.955
  636SOL    HW2 2469   0.011   0.967   3.997
  637SOL     OW 2470   0.886   1.655   4.065
  637SOL    HW1 2471   0.812   1.638   4.006
  637SOL    HW2 2472   0.857   1.729   4.118
  638SOL     OW 2473   0.233   0.627   5.704
  638SOL    HW1 2474   0.139   0.631   5.726
  638SOL    HW2 2475   0.234   0.597   5.613
  639SOL     OW 2476   0.224   0.288   6.569
  639SOL    HW1 2477   0.247   0.250   6.654
  639SOL    HW2 2478   0.130   0.275   6.562
  640SOL     OW 2479   0.018   0.386   6.221
  640SOL    HW1 2480   3.928   0.398   6.252
  640SOL    HW2 2481   0.026   0.292   6.205
  641SOL     OW 2482   0.579   1.286   6.774
  641SOL    HW1 2483   0.493   1.289   6.733
  641SOL    HW2 2484   0.593   1.375   6.807
  642SOL     OW 2485   1.132   0.699   6.284
  642SOL    HW1 2486   1.180   0.780   6.271
  642SOL    HW2 2487   1.085   0.711   6.367
  643SOL     OW 2488   1.765   0.617   5.812
  643SOL    HW1 2489   1.744   0.610   5.718
  643SOL    HW2 2490   1.752   0.529   5.846
  644SOL     OW 2491   0.755   1.140   6.627
  644SOL    HW1 2492   0.690   1.176   6.688
  644SOL    HW2 2493   0.790   1.217   6.582
  645SOL     OW 2494   0.869   0.772   7.409
  645SOL    HW1 2495   0.859   0.844   7.472
  645SOL    HW2 2496   0.891   0.816   7.326
  646SOL     OW 2497   0.685   1.003   6.232
  646SOL    HW1 2498   0.751   0.991   6.301
  646SOL    HW2 2499   0.616   1.054   6.274
  647SOL     OW 2500   0.711   1.149   7.400
  647SOL    HW1 2501   0.758   1.228   7.428
  647SOL    HW2 2502   0.629   1.183   7.364
  648SOL     OW 2503   0.351   1.402   6.665
  648SOL    HW1 2504   0.270   1.382   6.618
  648SOL    HW2 2505   0.399   1.460   6.605
  649SOL     OW 2506   1.452   1.500   6.929
  649SOL    HW1 2507   1.490   1.588   6.931
  649SOL    HW2 2508   1.387   1.500   6.998
  650SOL     OW 2509   0.456   0.408   7.083
  650SOL    HW1 2510   0.537   0.357   7.081
  650SOL    HW2 2511   0.386   0.342   7.085
  651SOL     OW 2512   1.612   0.451   6.321
  651SOL    HW1 2513   1.541   0.483   6.265
  651SOL    HW2 2514   1.633   0.525   6.378
  652SOL     OW 2515   0.221   1.718   6.044
  652SOL    HW1 2516   0.240   1.793   6.101
  652SOL    HW2 2517   0.298   1.710   5.988
  653SOL     OW 2518   1.140   1.341   7.279
  653SOL    HW1 2519   1.180   1.337   7.366
  653SOL    HW2 2520   1.087   1.262   7.273
  654SOL     OW 2521   0.248   1.449   6.126
  654SOL    HW1 2522   0.214   1.538   6.112
  654SOL    HW2 2523   0.181   1.405   6.177
  655SOL     OW 2524   0.247   1.067   6.471
  655SOL    HW1 2525   0.266   0.982   6.510
  655SOL    HW2 2526   0.194   1.113   6.536
  656SOL     OW 2527   0.611   1.792   7.014
  656SOL    HW1 2528   0.528   1.773   7.058
  656SOL    HW2 2529   0.632   1.882   7.040
  657SOL     OW 2530   0.579   0.985   5.724
  657SOL    HW1 2531   0.626   1.030   5.654
  657SOL    HW2 2532   0.621   1.015   5.804
  658SOL     OW 2533   1.580   0.139   7.042
  658SOL    HW1 2534   1.609   0.212   6.987
  658SOL    HW2 2535   1.550   0.180   7.123
  659SOL     OW 2536   0.140   0.651   6.156
  659SOL    HW1 2537   0.097   0.565   6.160
  659SOL    HW2 2538   0.102   0.701   6.228
  660SOL     OW 2539   0.044   1.590   5.725
  660SOL    HW1 2540   0.035   1.498   5.749
  660SOL    HW2 2541   3.962   1.630   5.755
  661SOL     OW 2542   1.686   0.914   6.225
  661SOL    HW1 2543   1.777   0.886   6.222
  661SOL    HW2 2544   1.674   0.964   6.144
  662SOL     OW 2545   1.661   1.114   6.019
  662SOL    HW1 2546   1.742   1.103   5.968
  662SOL    HW2 2547   1.686   1.169   6.093
  663SOL     OW 2548   0.138   0.755   7.175
  663SOL    HW1 2549   0.234   0.750   7.172
  663SOL    HW2 2550   0.120   0.845   7.203
  664SOL     OW 2551   0.612   1.386   6.322
  664SOL    HW1 2552   0.566   1.302   6.331
  664SOL    HW2 2553   0.597   1.412   6.231
  665SOL     OW 2554   1.293   1.238   7.009
  665SOL    HW1 2555   1.321   1.173   6.945
  665SOL    HW2 2556   1.343   1.218   7.088
  666SOL     OW 2557   0.819   0.003   6.101
  666SOL    HW1 2558   0.864   0.084   6.078
  666SOL    HW2 2559   0.726   0.026   6.102
  667SOL     OW 2560   0.184   0.951   6.863
  667SOL    HW1 2561   0.273   0.916   6.851
  667SOL    HW2 2562   0.132   0.908   6.796
  668SOL     OW 2563   1.532   0.996   5.786
  668SOL    HW1 2564   1.463   0.939   5.819
  668SOL    HW2 2565   1.576   1.029   5.865
  669SOL     OW 2566   1.149   1.806   7.182
  669SOL    HW1 2567   1.240   1.827   7.201
  669SOL    HW2 2568   1.148   1.712   7.165
  670SOL     OW 2569   0.343   0.252   7.420
  670SOL    HW1 2570   0.386   0.336   7.403
  670SOL    HW2 2571   0.252   0.276   7.439
  671SOL     OW 2572   1.405   1.419   6.509
  671SOL    HW1 2573   1.360   1.427   6.593
  671SOL    HW2 2574   1.427   1.326   6.502
  672SOL     OW 2575   0.596   0.718   5.851
  672SOL    HW1 2576   0.602   0.802   5.805
  672SOL    HW2 2577   0.533   0.733   5.921
  673SOL     OW 2578   1.275   0.367   6.526
  673SOL    HW1 2579   1.188   0.328   6.533
  673SOL    HW2 2580   1.332   0.305   6.572
  674SOL     OW 2581   1.589   1.629   5.870
  674SOL    HW1 2582   1.645   1.707   5.863
  674SOL    HW2 2583   1.551   1.619   5.783
  675SOL     OW 2584   0.794   0.616   7.040
  675SOL    HW1 2585   0.765   0.591   7.127
  675SOL    HW2 2586   0.755   0.551   6.982
  676SOL     OW 2587   1.392   0.476   7.263
  676SOL    HW1 2588   1.398   0.521   7.347
  676SOL    HW2 2589   1.451   0.402   7.272
  677SOL     OW 2590   0.953   0.888   7.170
  677SOL    HW1 2591   1.009   0.818   7.134
  677SOL    HW2 2592   0.905   0.921   7.094
  678SOL     OW 2593   0.991   0.403   6.825
  678SOL    HW1 2594   0.907   0.425   6.865
  678SOL    HW2 2595   0.969   0.373   6.737
  679SOL     OW 2596   1.052   0.699   6.012
  679SOL    HW1 2597   1.068   0.692   6.106
  679SOL    HW2 2598   0.969   0.653   5.998
  680SOL     OW 2599   0.081   0.827   6.377
  680SOL    HW1 2600   0.156   0.795   6.427
  680SOL    HW2 2601   0.099   0.920   6.364
  681SOL     OW 2602   0.130   1.860   7.161
  681SOL    HW1 2603   0.137   1.826   7.250
  681SOL    HW2 2604   0.037   1.848   7.139
  682SOL     OW 2605   0.893   0.352   5.784
  682SOL    HW1 2606   0.935   0.411   5.722
  682SOL    HW2 2607   0.894   0.267   5.740
  683SOL     OW 2608   1.710   0.573   7.415
  683SOL    HW1 2609   1.671   0.647   7.368
  683SOL    HW2 2610   1.734   0.511   7.346
  684SOL     OW 2611   1.386   1.145   6.132
  684SOL    HW1 2612   1.460   1.130   6.073
  684SOL    HW2 2613   1.327   1.202   6.082
  685SOL     OW 2614   0.560   0.195   6.467
  685SOL    HW1 2615   0.565   0.218   6.560
  685SOL    HW2 2616   0.547   0.278   6.422
  686SOL     OW 2617   0.998   1.439   6.056
  686SOL    HW1 2618   0.968   1.515   6.007
  686SOL    HW2 2619   0.991   1.466   6.148
  687SOL     OW 2620   0.365   1.816   6.455
  687SOL    HW1 2621   0.429   1.746   6.463
  687SOL    HW2 2622   0.415   1.896   6.471
  688SOL     OW 2623   1.794   1.041   6.455
  688SOL    HW1 2624   1.736   1.027   6.381
  688SOL    HW2 2625   1.735   1.054   6.530
  689SOL     OW 2626   1.226   1.534   7.093
  689SOL    HW1 2627   1.215   1.465   7.158
  689SOL    HW2 2628   1.161   1.515   7.025
  690SOL     OW 2629   0.310   0.954   5.828
  690SOL    HW1 2630   0.395   0.977   5.788
  690SOL    HW2 2631   0.297   0.862   5.806
  691SOL     OW 2632   1.478   0.745   6.316
  691SOL    HW1 2633   1.473   0.704   6.402
  691SOL    HW2 2634   1.556   0.800   6.320
  692SOL     OW 2635   0.467   1.260   7.323
  692SOL    HW1 2636   0.441   1.269   7.231
  692SOL    HW2 2637   0.385   1.264   7.372
  693SOL     OW 2638   1.122   1.785   5.817
  693SOL    HW1 2639   1.056   1.739   5.868
  693SOL    HW2 2640   1.147   1.723   5.749
  694SOL     OW 2641   0.200   0.294   7.085
  694SOL    HW1 2642   0.107   0.315   7.084
  694SOL    HW2 2643   0.208   0.225   7.151
  695SOL     OW 2644   1.632   1.377   5.667
  695SOL    HW1 2645   1.590   1.462   5.654
  695SOL    HW2 2646   1.562   1.313   5.652
  696SOL     OW 2647   0.466   1.739   5.902
  696SOL    HW1 2648   0.508   1.796   5.966
  696SOL    HW2 2649   0.537   1.704   5.850
  697SOL     OW 2650   1.439   0.164   5.991
  697SOL    HW1 2651   1.395   0.097   5.938
  697SOL    HW2 2652   1.513   0.117   6.032
  698SOL     OW 2653   0.252   1.791   6.817
  698SOL    HW1 2654   0.299   1.727   6.871
  698SOL    HW2 2655   0.247   1.751   6.730
  699SOL     OW 2656   0.947   1.694   6.486
  699SOL    HW1 2657   1.029   1.645   6.490
  699SOL    HW2 2658   0.895   1.648   6.420
  700SOL     OW 2659   0.396   0.694   6.057
  700SOL    HW1 2660   0.422   0.604   6.072
  700SOL    HW2 2661   0.304   0.697   6.083
  701SOL     OW 2662   1.530   0.230   7.313
  701SOL    HW1 2663   1.527   0.255   7.405
  701SOL    HW2 2664   1.507   0.137   7.312
  702SOL     OW 2665   0.644   0.132   5.688
  702SOL    HW1 2666   0.670   0.049   5.730
  702SOL    HW2 2667   0.583   0.106   5.619
  703SOL     OW 2668   0.777   0.283   7.351
  703SOL    HW1 2669   0.848   0.218   7.355
  703SOL    HW2 2670   0.719   0.258   7.423
  704SOL     OW 2671   0.877   1.525   6.780
  704SOL    HW1 2672   0.861   1.489   6.693
  704SOL    HW2 2673   0.947   1.470   6.816
  705SOL     OW 2674   1.340   0.586   7.016
  705SOL    HW1 2675   1.371   0.559   7.102
  705SOL    HW2 2676   1.376   0.674   7.005
  706SOL     OW 2677   0.813   1.396   6.528
  706SOL    HW1 2678   0.898   1.381   6.487
  706SOL    HW2 2679   0.751   1.396   6.454
  707SOL     OW 2680   0.929   0.512   6.487
  707SOL    HW1 2681   0.905   0.504   6.395
  707SOL    HW2 2682   0.956   0.423   6.513
  708SOL     OW 2683   0.546   0.056   6.074
  708SOL    HW1 2684   0.472   0.064   6.135
  708SOL    HW2 2685   0.548   0.140   6.029
  709SOL     OW 2686   1.427   1.198   5.627
  709SOL    HW1 2687   1.457   1.123   5.677
  709SOL    HW2 2688   1.342   1.221   5.665
  710SOL     OW 2689   0.341   0.040   5.783
  710SOL    HW1 2690   0.361   0.086   5.702
  710SOL    HW2 2691   0.425   0.034   5.829
  711SOL     OW 2692   0.941   0.248   6.048
  711SOL    HW1 2693   0.914   0.289   5.965
  711SOL    HW2 2694   1.036   0.252   6.047
  712SOL     OW 2695   1.079   0.683   7.045
  712SOL    HW1 2696   1.010   0.617   7.051
  712SOL    HW2 2697   1.160   0.632   7.039
  713SOL     OW 2698   1.202   1.576   6.402
  713SOL    HW1 2699   1.227   1.617   6.319
  713SOL    HW2 2700   1.283   1.538   6.436
  714SOL     OW 2701   0.466   1.150   6.323
  714SOL    HW1 2702   0.394   1.126   6.381
  714SOL    HW2 2703   0.432   1.135   6.235
  715SOL     OW 2704   1.188   1.772   6.176
  715SOL    HW1 2705   1.273   1.817   6.169
  715SOL    HW2 2706   1.135   1.831   6.230
  716SOL     OW 2707   1.023   0.544   5.613
  716SOL    HW1 2708   0.979   0.627   5.594
  716SOL    HW2 2709   1.086   0.566   5.681
  717SOL     OW 2710   0.080   0.572   6.979
  717SOL    HW1 2711   0.169   0.554   6.949
  717SOL    HW2 2712   0.090   0.644   7.042
  718SOL     OW 2713   0.572   0.231   6.746
  718SOL    HW1 2714   0.594   0.139   6.754
  718SOL    HW2 2715   0.481   0.237   6.776
  719SOL     OW 2716   0.871   0.461   6.225
  719SOL    HW1 2717   0.820   0.514   6.163
  719SOL    HW2 2718   0.890   0.380   6.178
  720SOL     OW 2719   0.996   0.040   6.366
  720SOL    HW1 2720   0.961   0.068   6.282
  720SOL    HW2 2721   1.006   3.946   6.357
  721SOL     OW 2722   1.435   1.150   6.441
  721SOL    HW1 2723   1.373   1.079   6.451
  721SOL    HW2 2724   1.436   1.168   6.347
  722SOL     OW 2725   1.465   0.606   6.561
  722SOL    HW1 2726   1.412   0.527   6.567
  722SOL    HW2 2727   1.525   0.600   6.635
  723SOL     OW 2728   1.842   0.819   5.969
  723SOL    HW1 2729   1.899   0.770   6.028
  723SOL    HW2 2730   1.815   0.755   5.904
  724SOL     OW 2731   0.488   1.420   5.746
  724SOL    HW1 2732   0.412   1.388   5.796
  724SOL    HW2 2733   0.472   1.390   5.657
  725SOL     OW 2734   1.395   0.575   5.656
  725SOL    HW1 2735   1.332   0.556   5.725
  725SOL    HW2 2736   1.480   0.556   5.694
  726SOL     OW 2737   0.557   0.270   5.905
  726SOL    HW1 2738   0.603   0.231   5.830
  726SOL    HW2 2739   0.528   0.356   5.872
  727SOL     OW 2740   1.751   1.180   7.175
  727SOL    HW1 2741   1.839   1.151   7.152
  727SOL    HW2 2742   1.765   1.258   7.228
  728SOL     OW 2743   1.058   1.352   6.922
  728SOL    HW1 2744   0.982   1.321   6.971
  728SOL    HW2 2745   1.133   1.309   6.964
  729SOL     OW 2746   1.122   1.197   6.692
  729SOL    HW1 2747   1.064   1.239   6.755
  729SOL    HW2 2748   1.097   1.235   6.607
  730SOL     OW 2749   1.621   1.088   6.663
  730SOL    HW1 2750   1.619   1.151   6.735
  730SOL    HW2 2751   1.550   1.117   6.605
  731SOL     OW 2752   0.913   0.113   6.988
  731SOL    HW1 2753   0.933   0.088   6.897
  731SOL    HW2 2754   0.993   0.155   7.018
  732SOL     OW 2755   0.985   1.116   7.308
  732SOL    HW1 2756   0.893   1.132   7.330
  732SOL    HW2 2757   0.983   1.038   7.253
  733SOL     OW 2758   0.708   1.061   5.957
  733SOL    HW1 2759   0.694   1.045   6.050
  733SOL    HW2 2760   0.784   1.008   5.934
  734SOL     OW 2761   0.422   0.816   6.838
  734SOL    HW1 2762   0.490   0.823   6.905
  734SOL    HW2 2763   0.387   0.728   6.848
  735SOL     OW 2764   1.266   0.374   6.862
  735SOL    HW1 2765   1.300   0.452   6.906
  735SOL    HW2 2766   1.179   0.401   6.832
  736SOL     OW 2767   0.065   1.580   6.932
  736SOL    HW1 2768   0.069   1.641   6.859
  736SOL    HW2 2769   0.156   1.566   6.958
  737SOL     OW 2770   0.372   1.103   6.070
  737SOL    HW1 2771   0.366   1.181   6.015
  737SOL    HW2 2772   0.371   1.030   6.008
  738SOL     OW 2773   0.555   0.536   6.444
  738SOL    HW1 2774   0.570   0.594   6.370
  738SOL    HW2 2775   0.620   0.562   6.509
  739SOL     OW 2776   1.237   1.330   5.975
  739SOL    HW1 2777   1.288   1.410   5.987
  739SOL    HW2 2778   1.150   1.352   6.009
  740SOL     OW 2779   1.268   1.451   6.735
  740SOL    HW1 2780   1.332   1.462   6.806
  740SOL    HW2 2781   1.214   1.377   6.763
  741SOL     OW 2782   1.575   0.633   6.071
  741SOL    HW1 2783   1.536   0.691   6.136
  741SOL    HW2 2784   1.627   0.692   6.015
  742SOL     OW 2785   0.345   1.527   6.905
  742SOL    HW1 2786   0.335   1.476   6.824
  742SOL    HW2 2787   0.440   1.542   6.912
  743SOL     OW 2788   0.415   0.738   7.187
  743SOL    HW1 2789   0.477   0.784   7.130
  743SOL    HW2 2790   0.454   0.652   7.200
  744SOL     OW 2791   1.600   0.776   7.275
  744SOL    HW1 2792   1.513   0.813   7.264
  744SOL    HW2 2793   1.652   0.814   7.204
  745SOL     OW 2794   1.015   0.129   7.364
  745SOL    HW1 2795   1.062   0.203   7.327
  745SOL    HW2 2796   1.003   0.069   7.291
  746SOL     OW 2797   0.481   0.036   7.352
  746SOL    HW1 2798   0.491   0.044   7.257
  746SOL    HW2 2799   0.420   0.106   7.376
  747SOL     OW 2800   0.584   0.874   6.617
  747SOL    HW1 2801   0.616   0.965   6.618
  747SOL    HW2 2802   0.529   0.867   6.695
  748SOL     OW 2803   1.354   0.860   6.612
  748SOL    HW1 2804   1.269   0.845   6.571
  748SOL    HW2 2805   1.398   0.775   6.608
  749SOL     OW 2806   1.202   0.536   5.846
  749SOL    HW1 2807   1.211   0.457   5.899
  749SOL    HW2 2808   1.158   0.599   5.904
  750SOL     OW 2809   0.312   0.213   6.827
  750SOL    HW1 2810   0.269   0.249   6.905
  750SOL    HW2 2811   0.296   0.119   6.832
  751SOL     OW 2812   0.059   1.306   6.866
  751SOL    HW1 2813   0.090   1.264   6.947
  751SOL    HW2 2814   0.051   1.398   6.888
  752SOL     OW 2815   0.725   0.634   6.640
  752SOL    HW1 2816   0.799   0.618   6.582
  752SOL    HW2 2817   0.696   0.722   6.619
  753SOL     OW 2818   1.733   0.960   7.441
  753SOL    HW1 2819   1.690   0.897   7.384
  753SOL    HW2 2820   1.672   0.973   7.514
  754SOL     OW 2821   0.328   0.055   6.238
  754SOL    HW1 2822   0.300   0.147   6.239
  754SOL    HW2 2823   0.290   0.017   6.318
  755SOL     OW 2824   1.605   0.390   5.968
  755SOL    HW1 2825   1.569   0.323   6.025
  755SOL    HW2 2826   1.585   0.473   6.012
  756SOL     OW 2827   1.030   0.759   6.546
  756SOL    HW1 2828   1.023   0.777   6.639
  756SOL    HW2 2829   1.002   0.668   6.536
  757SOL     OW 2830   0.982   1.564   7.300
  757SOL    HW1 2831   0.957   1.601   7.215
  757SOL    HW2 2832   1.025   1.481   7.279
  758SOL     OW 2833   0.352   0.921   7.385
  758SOL    HW1 2834   0.431   0.941   7.437
  758SOL    HW2 2835   0.381   0.854   7.324
  759SOL     OW 2836   1.506   0.275   5.722
  759SOL    HW1 2837   1.432   0.217   5.734
  759SOL    HW2 2838   1.520   0.315   5.808
  760SOL     OW 2839   1.290   0.827   5.616
  760SOL    HW1 2840   1.332   0.741   5.619
  760SOL    HW2 2841   1.322   0.866   5.535
  761SOL     OW 2842   1.060   1.330   6.445
  761SOL    HW1 2843   1.067   1.260   6.380
  761SOL    HW2 2844   1.121   1.397   6.415
  762SOL     OW 2845   0.313   0.804   6.536
  762SOL    HW1 2846   0.407   0.820   6.530
  762SOL    HW2 2847   0.307   0.714   6.568
  763SOL     OW 2848   0.338   0.528   6.600
  763SOL    HW1 2849   0.297   0.443   6.582
  763SOL    HW2 2850   0.413   0.532   6.541
  764SOL     OW 2851   1.133   0.381   7.282
  764SOL    HW1 2852   1.085   0.436   7.343
  764SOL    HW2 2853   1.220   0.421   7.277
  765SOL     OW 2854   1.151   0.225   7.068
  765SOL    HW1 2855   1.142   0.280   7.146
  765SOL    HW2 2856   1.175   0.286   6.998
  766SOL     OW 2857   4.000   1.318   5.768
  766SOL    HW1 2858   3.906   1.334   5.772
  766SOL    HW2 2859   0.009   1.225   5.787
  767SOL     OW 2860   0.077   1.800   6.475
  767SOL    HW1 2861   0.081   1.705   6.480
  767SOL    HW2 2862   0.168   1.828   6.479
  768SOL     OW 2863   0.502   1.571   6.496
  768SOL    HW1 2864   0.572   1.631   6.522
  768SOL    HW2 2865   0.545   1.508   6.439
  769SOL     OW 2866   0.980   0.790   6.811
  769SOL    HW1 2867   1.036   0.770   6.886
  769SOL    HW2 2868   0.895   0.752   6.834
  770SOL     OW 2869   0.035   0.571   6.699
  770SOL    HW1 2870   0.099   0.521   6.648
  770SOL    HW2 2871   0.061   0.558   6.790
  771SOL     OW 2872   0.210   0.516   7.308
  771SOL    HW1 2873   0.258   0.479   7.234
  771SOL    HW2 2874   0.162   0.590   7.270
  772SOL     OW 2875   1.364   0.913   7.239
  772SOL    HW1 2876   1.388   1.006   7.240
  772SOL    HW2 2877   1.366   0.888   7.147
  773SOL     OW 2878   0.818   0.572   5.947
  773SOL    HW1 2879   0.824   0.495   5.889
  773SOL    HW2 2880   0.743   0.621   5.913
  774SOL     OW 2881   1.640   0.600   6.769
  774SOL    HW1 2882   1.631   0.541   6.844
  774SOL    HW2 2883   1.728   0.582   6.735
  775SOL     OW 2884   0.299   1.545   7.313
  775SOL    HW1 2885   0.250   1.614   7.357
  775SOL    HW2 2886   0.267   1.464   7.353
  776SOL     OW 2887   0.706   0.455   6.844
  776SOL    HW1 2888   0.657   0.377   6.818
  776SOL    HW2 2889   0.698   0.514   6.769
  777SOL     OW 2890   0.918   1.668   7.053
  777SOL    HW1 2891   0.891   1.641   6.965
  777SOL    HW2 2892   0.927   1.763   7.047
  778SOL     OW 2893   0.455   0.492   5.782
  778SOL    HW1 2894   0.519   0.561   5.799
  778SOL    HW2 2895   0.375   0.539   5.759
  779SOL     OW 2896   0.156   1.135   7.060
  779SOL    HW1 2897   0.158   1.084   7.141
  779SOL    HW2 2898   0.171   1.071   6.990
  780SOL     OW 2899   1.321   1.046   6.809
  780SOL    HW1 2900   1.348   0.985   6.741
  780SOL    HW2 2901   1.250   1.096   6.769
  781SOL     OW 2902   1.313   0.858   5.892
  781SOL    HW1 2903   1.238   0.827   5.943
  781SOL    HW2 2904   1.287   0.845   5.801
  782SOL     OW 2905   0.077   1.217   6.613
  782SOL    HW1 2906   0.083   1.243   6.706
  782SOL    HW2 2907   3.984   1.226   6.592
  783SOL     OW 2908   0.680   1.667   7.317
  783SOL    HW1 2909   0.621   1.743   7.311
  783SOL    HW2 2910   0.742   1.680   7.245
  784SOL     OW 2911   1.712   0.125   6.072
  784SOL    HW1 2912   1.792   0.134   6.019
  784SOL    HW2 2913   1.704   0.031   6.088
  785SOL     OW 2914   1.355   1.564   6.014
  785SOL    HW1 2915   1.443   1.585   5.983
  785SOL    HW2 2916   1.329   1.641   6.065
  786SOL     OW 2917   0.175   1.765   7.415
  786SOL    HW1 2918   0.116   1.715   7.473
  786SOL    HW2 2919   0.216   1.830   7.472
  787SOL     OW 2920   1.278   0.927   6.255
  787SOL    HW1 2921   1.351   0.866   6.266
  787SOL    HW2 2922   1.314   0.999   6.204
  788SOL     OW 2923   0.812   1.273   7.015
  788SOL    HW1 2924   0.783   1.314   7.097
  788SOL    HW2 2925   0.741   1.291   6.953
  789SOL     OW 2926   0.669   1.622   5.741
  789SOL    HW1 2927   0.681   1.633   5.647
  789SOL    HW2 2928   0.615   1.544   5.750
  790SOL     OW 2929   1.839   0.177   6.553
  790SOL    HW1 2930   1.871   0.108   6.495
  790SOL    HW2 2931   1.751   0.197   6.521
  791SOL     OW 2932   0.274   0.323   6.300
  791SOL    HW1 2933   0.189   0.358   6.275
  791SOL    HW2 2934   0.266   0.306   6.394
  792SOL     OW 2935   1.206   1.607   5.618
  792SOL    HW1 2936   1.197   1.516   5.647
  792SOL    HW2 2937   1.139   1.617   5.550
  793SOL     OW 2938   0.823   1.005   6.959
  793SOL    HW1 2939   0.868   1.000   6.874
  793SOL    HW2 2940   0.823   1.098   6.980
  794SOL     OW 2941   0.915   0.910   5.876
  794SOL    HW1 2942   0.976   0.943   5.810
  794SOL    HW2 2943   0.963   0.841   5.922
  795SOL     OW 2944   1.487   1.623   5.619
  795SOL    HW1 2945   1.392   1.619   5.606
  795SOL    HW2 2946   1.523   1.629   5.530
  796SOL     OW 2947   0.374   1.303   7.077
  796SOL    HW1 2948   0.358   1.383   7.027
  796SOL    HW2 2949   0.297   1.248   7.060
  797SOL     OW 2950   1.597   1.263   6.885
  797SOL    HW1 2951   1.668   1.259   6.948
  797SOL    HW2 2952   1.541   1.334   6.916
  798SOL     OW 2953   1.055   1.106   6.291
  798SOL    HW1 2954   0.983   1.056   6.331
  798SOL    HW2 2955   1.118   1.040   6.263
  799SOL     OW 2956   1.014   0.249   6.555
  799SOL    HW1 2957   1.004   0.198   6.474
  799SOL    HW2 2958   1.009   0.183   6.625
  800SOL     OW 2959   0.606   1.488   6.068
  800SOL    HW1 2960   0.651   1.438   6.000
  800SOL    HW2 2961   0.532   1.529   6.022
  801SOL     OW 2962   1.720   0.393   6.959
  801SOL    HW1 2963   1.792   0.456   6.963
  801SOL    HW2 2964   1.754   0.321   6.905
  802SOL     OW 2965   0.253   1.341   5.879
  802SOL    HW1 2966   0.160   1.350   5.859
  802SOL    HW2 2967   0.263   1.380   5.966
  803SOL     OW 2968   0.107   1.000   7.304
  803SOL    HW1 2969   0.047   0.991   7.378
  803SOL    HW2 2970   0.193   0.980   7.341
  804SOL     OW 2971   0.694   0.250   7.085
  804SOL    HW1 2972   0.762   0.197   7.044
  804SOL    HW2 2973   0.722   0.259   7.176
  805SOL     OW 2974   0.088   0.323   5.613
  805SOL    HW1 2975   3.993   0.320   5.607
  805SOL    HW2 2976   0.112   0.406   5.571
  806SOL     OW 2977   1.428   0.854   6.981
  806SOL    HW1 2978   1.380   0.918   6.928
  806SOL    HW2 2979   1.518   0.858   6.949
  807SOL     OW 2980   0.038   0.166   5.870
  807SOL    HW1 2981   0.036   0.235   5.804
  807SOL    HW2 2982   0.116   0.184   5.923
  808SOL     OW 2983   1.177   1.338   5.702
  808SOL    HW1 2984   1.087   1.308   5.703
  808SOL    HW2 2985   1.205   1.335   5.794
  809SOL     OW 2986   0.620   0.829   7.022
  809SOL    HW1 2987   0.676   0.905   7.006
  809SOL    HW2 2988   0.680   0.755   7.030
  810SOL     OW 2989   0.717   0.563   7.293
  810SOL    HW1 2990   0.760   0.625   7.351
  810SOL    HW2 2991   0.746   0.477   7.324
  811SOL     OW 2992   1.463   1.161   7.219
  811SOL    HW1 2993   1.451   1.184   7.312
  811SOL    HW2 2994   1.557   1.163   7.206
  812SOL     OW 2995   0.379   1.742   7.143
  812SOL    HW1 2996   0.292   1.780   7.131
  812SOL    HW2 2997   0.363   1.660   7.191
  813SOL     OW 2998   1.667   0.880   6.838
  813SOL    HW1 2999   1.663   0.795   6.793
  813SOL    HW2 3000   1.657   0.945   6.769
  814SOL     OW 3001   1.224   0.335   6.030
  814SOL    HW1 3002   1.291   0.267   6.022
  814SOL    HW2 3003   1.243   0.380   6.112
  815SOL     OW 3004   0.591   0.738   6.256
  815SOL    HW1 3005   0.628   0.825   6.240
  815SOL    HW2 3006   0.522   0.729   6.190
  816SOL     OW 3007   1.753   0.381   7.229
  816SOL    HW1 3008   1.735   0.388   7.135
  816SOL    HW2 3009   1.694   0.313   7.260
  817SOL     OW 3010   1.740   0.916   7.096
  817SOL    HW1 3011   1.735   1.010   7.117
  817SOL    HW2 3012   1.728   0.912   7.001
  818SOL     OW 3013   0.861   1.366   5.621
  818SOL    HW1 3014   0.825   1.394   5.705
  818SOL    HW2 3015   0.880   1.448   5.575
  819SOL     OW 3016   0.662   1.790   6.530
  819SOL    HW1 3017   0.640   1.880   6.508
  819SOL    HW2 3018   0.758   1.786   6.522
  820SOL     OW 3019   0.868   0.967   6.440
  820SOL    HW1 3020   0.919   0.896   6.479
  820SOL    HW2 3021   0.833   1.015   6.514
  821SOL     OW 3022   1.078   0.988   5.674
  821SOL    HW1 3023   1.057   1.039   5.597
  821SOL    HW2 3024   1.153   0.935   5.649
  822SOL     OW 3025   0.225   1.303   7.442
  822SOL    HW1 3026   0.153   1.246   7.415
  822SOL    HW2 3027   0.212   1.317   7.536
  823SOL     OW 3028   0.118   1.277   6.306
  823SOL    HW1 3029   0.131   1.227   6.386
  823SOL    HW2 3030   0.107   1.212   6.237
  824SOL     OW 3031   0.681   1.404   7.215
  824SOL    HW1 3032   0.601   1.361   7.245
  824SOL    HW2 3033   0.676   1.492   7.252
  825SOL     OW 3034   1.812   0.183   6.825
  825SOL    HW1 3035   1.815   0.088   6.839
  825SOL    HW2 3036   1.827   0.194   6.731
  826SOL     OW 3037   0.443   0.437   6.117
  826SOL    HW1 3038   0.458   0.362   6.060
  826SOL    HW2 3039   0.388   0.403   6.187
  827SOL     OW 3040   1.679   1.394   6.664
  827SOL    HW1 3041   1.612   1.462   6.651
  827SOL    HW2 3042   1.659   1.357   6.749
  828SOL     OW 3043   0.332   0.556   6.878
  828SOL    HW1 3044   0.388   0.500   6.931
  828SOL    HW2 3045   0.347   0.528   6.788
  829SOL     OW 3046   0.824   1.583   6.267
  829SOL    HW1 3047   0.817   1.634   6.187
  829SOL    HW2 3048   0.750   1.522   6.264
  830SOL     OW 3049   1.461   0.253   6.697
  830SOL    HW1 3050   1.478   0.166   6.734
  830SOL    HW2 3051   1.405   0.296   6.761
  831SOL     OW 3052   1.004   0.029   6.733
  831SOL    HW1 3053   0.926   3.986   6.698
  831SOL    HW2 3054   1.068   3.958   6.741
  832SOL     OW 3055   0.772   1.333   5.902
  832SOL    HW1 3056   0.744   1.242   5.909
  832SOL    HW2 3057   0.853   1.337   5.953
  833SOL     OW 3058   0.620   1.556   6.871
  833SOL    HW1 3059   0.622   1.638   6.921
  833SOL    HW2 3060   0.708   1.549   6.833
  834SOL     OW 3061   1.313   0.074   5.751
  834SOL    HW1 3062   1.327   3.998   5.694
  834SOL    HW2 3063   1.227   0.058   5.790
  835SOL     OW 3064   1.283   0.457   6.272
  835SOL    HW1 3065   1.236   0.540   6.267
  835SOL    HW2 3066   1.286   0.437   6.365
  836SOL     OW 3067   1.588   0.210   6.454
  836SOL    HW1 3068   1.539   0.234   6.532
  836SOL    HW2 3069   1.588   0.290   6.400
  837SOL     OW 3070   0.047   1.050   5.826
  837SOL    HW1 3071   0.141   1.033   5.817
  837SOL    HW2 3072   0.011   0.967   5.860
  838SOL     OW 3073   0.885   1.654   5.929
  838SOL    HW1 3074   0.812   1.638   5.869
  838SOL    HW2 3075   0.856   1.728   5.982
  839SOL     OW 3076   0.233   0.627   7.566
  839SOL    HW1 3077   0.140   0.631   7.588
  839SOL    HW2 3078   0.234   0.597   7.475
  840SOL     OW 3079   0.224   0.288   8.431
  840SOL    HW1 3080   0.247   0.250   8.516
  840SOL    HW2 3081   0.130   0.275   8.424
  841SOL     OW 3082   0.018   0.386   8.083
  841SOL    HW1 3083   3.928   0.398   8.114
  841SOL    HW2 3084   0.026   0.292   8.067
  842SOL     OW 3085   0.579   1.286   8.636
  842SOL    HW1 3086   0.492   1.289   8.595
  842SOL    HW2 3087   0.593   1.375   8.669
  843SOL     OW 3088   1.573   1.511   8.156
  843SOL    HW1 3089   1.523   1.497   8.237
  843SOL    HW2 3090   1.507   1.527   8.089
  844SOL     OW 3091   1.133   0.698   8.147
  844SOL    HW1 3092   1.180   0.780   8.134
  844SOL    HW2 3093   1.085   0.711   8.229
  845SOL     OW 3094   1.764   0.614   7.673
  845SOL    HW1 3095   1.744   0.609   7.579
  845SOL    HW2 3096   1.752   0.525   7.705
  846SOL     OW 3097   0.755   1.140   8.489
  846SOL    HW1 3098   0.690   1.175   8.550
  846SOL    HW2 3099   0.790   1.217   8.444
  847SOL     OW 3100   0.869   0.772   9.271
  847SOL    HW1 3101   0.858   0.844   9.334
  847SOL    HW2 3102   0.892   0.816   9.189
  848SOL     OW 3103   0.685   1.003   8.094
  848SOL    HW1 3104   0.751   0.991   8.163
  848SOL    HW2 3105   0.616   1.054   8.136
  849SOL     OW 3106   0.711   1.149   9.263
  849SOL    HW1 3107   0.759   1.228   9.290
  849SOL    HW2 3108   0.629   1.183   9.226
  850SOL     OW 3109   0.351   1.402   8.527
  850SOL    HW1 3110   0.270   1.383   8.480
  850SOL    HW2 3111   0.399   1.460   8.468
  851SOL     OW 3112   1.461   1.500   8.804
  851SOL    HW1 3113   1.513   1.580   8.813
  851SOL    HW2 3114   1.397   1.505   8.875
  852SOL     OW 3115   0.456   0.408   8.945
  852SOL    HW1 3116   0.537   0.357   8.943
  852SOL    HW2 3117   0.386   0.342   8.947
  853SOL     OW 3118   1.612   0.451   8.183
  853SOL    HW1 3119   1.541   0.482   8.126
  853SOL    HW2 3120   1.632   0.525   8.240
  854SOL     OW 3121   0.221   1.718   7.906
  854SOL    HW1 3122   0.240   1.792   7.963
  854SOL    HW2 3123   0.299   1.710   7.851
  855SOL     OW 3124   1.137   1.342   9.141
  855SOL    HW1 3125   1.178   1.336   9.228
  855SOL    HW2 3126   1.085   1.262   9.134
  856SOL     OW 3127   0.248   1.449   7.988
  856SOL    HW1 3128   0.215   1.538   7.974
  856SOL    HW2 3129   0.179   1.406   8.039
  857SOL     OW 3130   0.247   1.067   8.333
  857SOL    HW1 3131   0.266   0.982   8.372
  857SOL    HW2 3132   0.194   1.113   8.398
  858SOL     OW 3133   0.612   1.792   8.876
  858SOL    HW1 3134   0.529   1.774   8.921
  858SOL    HW2 3135   0.634   1.881   8.902
  859SOL     OW 3136   0.579   0.985   7.586
  859SOL    HW1 3137   0.626   1.030   7.516
  859SOL    HW2 3138   0.621   1.014   7.666
  860SOL     OW 3139   1.580   0.139   8.904
  860SOL    HW1 3140   1.608   0.212   8.849
  860SOL    HW2 3141   1.550   0.180   8.985
  861SOL     OW 3142   0.140   0.651   8.018
  861SOL    HW1 3143   0.097   0.565   8.022
  861SOL    HW2 3144   0.102   0.701   8.090
  862SOL     OW 3145   0.044   1.590   7.587
  862SOL    HW1 3146   0.035   1.498   7.611
  862SOL    HW2 3147   3.962   1.631   7.616
  863SOL     OW 3148   1.688   0.918   8.090
  863SOL    HW1 3149   1.770   0.874   8.067
  863SOL    HW2 3150   1.666   0.969   8.012
  864SOL     OW 3151   1.649   1.106   7.877
  864SOL    HW1 3152   1.738   1.101   7.843
  864SOL    HW2 3153   1.654   1.169   7.949
  865SOL     OW 3154   0.138   0.755   9.037
  865SOL    HW1 3155   0.234   0.750   9.034
  865SOL    HW2 3156   0.120   0.845   9.065
  866SOL     OW 3157   0.612   1.386   8.184
  866SOL    HW1 3158   0.566   1.302   8.193
  866SOL    HW2 3159   0.597   1.412   8.093
  867SOL     OW 3160   1.288   1.238   8.871
  867SOL    HW1 3161   1.319   1.170   8.811
  867SOL    HW2 3162   1.346   1.232   8.947
  868SOL     OW 3163   0.819   0.003   7.964
  868SOL    HW1 3164   0.864   0.084   7.940
  868SOL    HW2 3165   0.726   0.027   7.964
  869SOL     OW 3166   0.184   0.951   8.725
  869SOL    HW1 3167   0.272   0.916   8.713
  869SOL    HW2 3168   0.132   0.908   8.658
  870SOL     OW 3169   1.532   0.997   7.649
  870SOL    HW1 3170   1.462   0.940   7.679
  870SOL    HW2 3171   1.574   1.029   7.729
  871SOL     OW 3172   1.185   1.808   9.071
  871SOL    HW1 3173   1.195   1.867   8.997
  871SOL    HW2 3174   1.202   1.721   9.035
  872SOL     OW 3175   0.343   0.252   9.282
  872SOL    HW1 3176   0.386   0.336   9.265
  872SOL    HW2 3177   0.252   0.276   9.301
  873SOL     OW 3178   1.465   1.420   8.398
  873SOL    HW1 3179   1.397   1.435   8.465
  873SOL    HW2 3180   1.453   1.329   8.371
  874SOL     OW 3181   0.596   0.718   7.713
  874SOL    HW1 3182   0.601   0.802   7.667
  874SOL    HW2 3183   0.533   0.733   7.783
  875SOL     OW 3184   1.275   0.367   8.389
  875SOL    HW1 3185   1.188   0.328   8.395
  875SOL    HW2 3186   1.332   0.305   8.434
  876SOL     OW 3187   0.794   0.616   8.902
  876SOL    HW1 3188   0.765   0.591   8.989
  876SOL    HW2 3189   0.755   0.551   8.844
  877SOL     OW 3190   1.392   0.476   9.125
  877SOL    HW1 3191   1.398   0.521   9.210
  877SOL    HW2 3192   1.451   0.401   9.134
  878SOL     OW 3193   0.953   0.888   9.031
  878SOL    HW1 3194   1.008   0.818   8.995
  878SOL    HW2 3195   0.905   0.922   8.956
  879SOL     OW 3196   0.991   0.403   8.687
  879SOL    HW1 3197   0.907   0.425   8.727
  879SOL    HW2 3198   0.969   0.373   8.599
  880SOL     OW 3199   1.052   0.699   7.874
  880SOL    HW1 3200   1.067   0.692   7.968
  880SOL    HW2 3201   0.969   0.652   7.860
  881SOL     OW 3202   0.081   0.827   8.239
  881SOL    HW1 3203   0.156   0.795   8.289
  881SOL    HW2 3204   0.099   0.920   8.226
  882SOL     OW 3205   0.130   1.860   9.023
  882SOL    HW1 3206   0.137   1.826   9.112
  882SOL    HW2 3207   0.037   1.848   9.001
  883SOL     OW 3208   0.894   0.352   7.646
  883SOL    HW1 3209   0.936   0.411   7.584
  883SOL    HW2 3210   0.893   0.267   7.602
  884SOL     OW 3211   1.709   0.576   9.277
  884SOL    HW1 3212   1.671   0.649   9.229
  884SOL    HW2 3213   1.734   0.512   9.209
  885SOL     OW 3214   1.378   1.141   7.989
  885SOL    HW1 3215   1.458   1.130   7.936
  885SOL    HW2 3216   1.324   1.202   7.938
  886SOL     OW 3217   0.560   0.195   8.329
  886SOL    HW1 3218   0.565   0.218   8.422
  886SOL    HW2 3219   0.547   0.278   8.284
  887SOL     OW 3220   1.005   1.444   7.920
  887SOL    HW1 3221   0.968   1.517   7.870
  887SOL    HW2 3222   0.985   1.465   8.011
  888SOL     OW 3223   0.365   1.817   8.317
  888SOL    HW1 3224   0.429   1.746   8.325
  888SOL    HW2 3225   0.415   1.897   8.333
  889SOL     OW 3226   1.800   1.056   8.316
  889SOL    HW1 3227   1.745   1.038   8.239
  889SOL    HW2 3228   1.738   1.062   8.388
  890SOL     OW 3229   1.228   1.539   8.961
  890SOL    HW1 3230   1.214   1.466   9.022
  890SOL    HW2 3231   1.164   1.524   8.891
  891SOL     OW 3232   0.310   0.954   7.690
  891SOL    HW1 3233   0.395   0.977   7.650
  891SOL    HW2 3234   0.297   0.862   7.668
  892SOL     OW 3235   1.479   0.746   8.178
  892SOL    HW1 3236   1.472   0.703   8.263
  892SOL    HW2 3237   1.557   0.801   8.184
  893SOL     OW 3238   0.467   1.260   9.185
  893SOL    HW1 3239   0.441   1.269   9.093
  893SOL    HW2 3240   0.385   1.264   9.234
  894SOL     OW 3241   1.126   1.773   7.702
  894SOL    HW1 3242   1.046   1.728   7.729
  894SOL    HW2 3243   1.153   1.728   7.622
  895SOL     OW 3244   0.200   0.295   8.947
  895SOL    HW1 3245   0.107   0.315   8.946
  895SOL    HW2 3246   0.208   0.225   9.013
  896SOL     OW 3247   0.466   1.738   7.766
  896SOL    HW1 3248   0.509   1.796   7.829
  896SOL    HW2 3249   0.538   1.705   7.712
  897SOL     OW 3250   1.439   0.163   7.854
  897SOL    HW1 3251   1.395   0.098   7.800
  897SOL    HW2 3252   1.512   0.116   7.894
  898SOL     OW 3253   0.251   1.791   8.680
  898SOL    HW1 3254   0.298   1.727   8.733
  898SOL    HW2 3255   0.248   1.752   8.592
  899SOL     OW 3256   0.937   1.699   8.346
  899SOL    HW1 3257   1.016   1.648   8.367
  899SOL    HW2 3258   0.894   1.649   8.277
  900SOL     OW 3259   0.396   0.694   7.920
  900SOL    HW1 3260   0.423   0.603   7.934
  900SOL    HW2 3261   0.304   0.697   7.945
  901SOL     OW 3262   1.530   0.230   9.175
  901SOL    HW1 3263   1.527   0.255   9.267
  901SOL    HW2 3264   1.507   0.137   9.174
  902SOL     OW 3265   0.644   0.132   7.550
  902SOL    HW1 3266   0.670   0.049   7.591
  902SOL    HW2 3267   0.583   0.106   7.481
  903SOL     OW 3268   0.777   0.283   9.213
  903SOL    HW1 3269   0.848   0.218   9.217
  903SOL    HW2 3270   0.719   0.258   9.285
  904SOL     OW 3271   0.876   1.521   8.642
  904SOL    HW1 3272   0.860   1.485   8.555
  904SOL    HW2 3273   0.946   1.468   8.678
  905SOL     OW 3274   1.340   0.587   8.878
  905SOL    HW1 3275   1.371   0.558   8.964
  905SOL    HW2 3276   1.375   0.676   8.869
  906SOL     OW 3277   0.815   1.394   8.388
  906SOL    HW1 3278   0.900   1.382   8.346
  906SOL    HW2 3279   0.753   1.396   8.316
  907SOL     OW 3280   0.930   0.512   8.349
  907SOL    HW1 3281   0.905   0.503   8.257
  907SOL    HW2 3282   0.956   0.423   8.375
  908SOL     OW 3283   0.546   0.056   7.936
  908SOL    HW1 3284   0.472   0.064   7.996
  908SOL    HW2 3285   0.548   0.140   7.890
  909SOL     OW 3286   1.429   1.198   7.484
  909SOL    HW1 3287   1.462   1.128   7.541
  909SOL    HW2 3288   1.350   1.230   7.528
  910SOL     OW 3289   0.341   0.041   7.645
  910SOL    HW1 3290   0.361   0.086   7.563
  910SOL    HW2 3291   0.426   0.034   7.690
  911SOL     OW 3292   0.941   0.249   7.910
  911SOL    HW1 3293   0.914   0.289   7.827
  911SOL    HW2 3294   1.036   0.252   7.909
  912SOL     OW 3295   1.079   0.682   8.907
  912SOL    HW1 3296   1.009   0.618   8.913
  912SOL    HW2 3297   1.160   0.630   8.901
  913SOL     OW 3298   1.221   1.570   8.245
  913SOL    HW1 3299   1.234   1.637   8.178
  913SOL    HW2 3300   1.292   1.582   8.307
  914SOL     OW 3301   0.466   1.150   8.185
  914SOL    HW1 3302   0.394   1.126   8.243
  914SOL    HW2 3303   0.432   1.135   8.097
  915SOL     OW 3304   1.247   1.791   8.062
  915SOL    HW1 3305   1.265   1.850   7.989
  915SOL    HW2 3306   1.184   1.839   8.116
  916SOL     OW 3307   1.022   0.544   7.475
  916SOL    HW1 3308   0.979   0.627   7.455
  916SOL    HW2 3309   1.086   0.566   7.543
  917SOL     OW 3310   0.080   0.572   8.841
  917SOL    HW1 3311   0.169   0.554   8.811
  917SOL    HW2 3312   0.090   0.644   8.904
  918SOL     OW 3313   0.572   0.231   8.608
  918SOL    HW1 3314   0.594   0.139   8.616
  918SOL    HW2 3315   0.481   0.237   8.638
  919SOL     OW 3316   0.871   0.462   8.087
  919SOL    HW1 3317   0.820   0.514   8.025
  919SOL    HW2 3318   0.890   0.380   8.040
  920SOL     OW 3319   0.996   0.040   8.228
  920SOL    HW1 3320   0.961   0.068   8.143
  920SOL    HW2 3321   1.006   3.946   8.220
  921SOL     OW 3322   1.438   1.162   8.306
  921SOL    HW1 3323   1.368   1.097   8.303
  921SOL    HW2 3324   1.463   1.174   8.214
  922SOL     OW 3325   1.465   0.606   8.424
  922SOL    HW1 3326   1.412   0.526   8.429
  922SOL    HW2 3327   1.525   0.599   8.498
  923SOL     OW 3328   1.839   0.804   7.842
  923SOL    HW1 3329   1.899   0.752   7.896
  923SOL    HW2 3330   1.812   0.746   7.772
  924SOL     OW 3331   0.488   1.419   7.608
  924SOL    HW1 3332   0.412   1.388   7.658
  924SOL    HW2 3333   0.471   1.390   7.519
  925SOL     OW 3334   1.673   1.264   8.092
  925SOL    HW1 3335   1.768   1.268   8.105
  925SOL    HW2 3336   1.643   1.352   8.114
  926SOL     OW 3337   1.395   0.573   7.518
  926SOL    HW1 3338   1.333   0.554   7.588
  926SOL    HW2 3339   1.481   0.555   7.556
  927SOL     OW 3340   0.558   0.271   7.767
  927SOL    HW1 3341   0.603   0.231   7.692
  927SOL    HW2 3342   0.528   0.356   7.734
  928SOL     OW 3343   1.751   1.240   9.019
  928SOL    HW1 3344   1.839   1.201   9.015
  928SOL    HW2 3345   1.767   1.330   9.047
  929SOL     OW 3346   1.057   1.354   8.782
  929SOL    HW1 3347   0.982   1.322   8.832
  929SOL    HW2 3348   1.133   1.312   8.823
  930SOL     OW 3349   1.608   1.626   9.102
  930SOL    HW1 3350   1.602   1.662   9.013
  930SOL    HW2 3351   1.691   1.579   9.104
  931SOL     OW 3352   1.131   1.205   8.553
  931SOL    HW1 3353   1.070   1.242   8.617
  931SOL    HW2 3354   1.098   1.237   8.469
  932SOL     OW 3355   1.627   1.097   8.524
  932SOL    HW1 3356   1.621   1.159   8.597
  932SOL    HW2 3357   1.549   1.116   8.472
  933SOL     OW 3358   0.913   0.113   8.850
  933SOL    HW1 3359   0.933   0.088   8.759
  933SOL    HW2 3360   0.993   0.155   8.880
  934SOL     OW 3361   0.984   1.115   9.171
  934SOL    HW1 3362   0.892   1.131   9.193
  934SOL    HW2 3363   0.982   1.037   9.116
  935SOL     OW 3364   0.708   1.061   7.819
  935SOL    HW1 3365   0.694   1.045   7.912
  935SOL    HW2 3366   0.784   1.008   7.796
  936SOL     OW 3367   0.422   0.816   8.700
  936SOL    HW1 3368   0.490   0.823   8.767
  936SOL    HW2 3369   0.387   0.728   8.710
  937SOL     OW 3370   1.266   0.375   8.724
  937SOL    HW1 3371   1.300   0.453   8.768
  937SOL    HW2 3372   1.179   0.401   8.694
  938SOL     OW 3373   0.065   1.580   8.794
  938SOL    HW1 3374   0.070   1.640   8.719
  938SOL    HW2 3375   0.156   1.566   8.820
  939SOL     OW 3376   0.372   1.103   7.932
  939SOL    HW1 3377   0.366   1.181   7.877
  939SOL    HW2 3378   0.371   1.030   7.870
  940SOL     OW 3379   0.555   0.536   8.307
  940SOL    HW1 3380   0.569   0.594   8.232
  940SOL    HW2 3381   0.621   0.563   8.371
  941SOL     OW 3382   1.247   1.346   7.837
  941SOL    HW1 3383   1.303   1.416   7.870
  941SOL    HW2 3384   1.160   1.368   7.870
  942SOL     OW 3385   1.282   1.458   8.596
  942SOL    HW1 3386   1.338   1.461   8.673
  942SOL    HW2 3387   1.227   1.381   8.609
  943SOL     OW 3388   1.576   0.633   7.934
  943SOL    HW1 3389   1.534   0.690   7.997
  943SOL    HW2 3390   1.625   0.692   7.876
  944SOL     OW 3391   0.345   1.526   8.767
  944SOL    HW1 3392   0.336   1.476   8.686
  944SOL    HW2 3393   0.440   1.542   8.774
  945SOL     OW 3394   0.415   0.738   9.049
  945SOL    HW1 3395   0.477   0.784   8.992
  945SOL    HW2 3396   0.454   0.652   9.062
  946SOL     OW 3397   1.603   0.779   9.132
  946SOL    HW1 3398   1.517   0.821   9.125
  946SOL    HW2 3399   1.655   0.820   9.063
  947SOL     OW 3400   1.014   0.129   9.226
  947SOL    HW1 3401   1.062   0.203   9.189
  947SOL    HW2 3402   1.003   0.069   9.153
  948SOL     OW 3403   0.481   0.036   9.214
  948SOL    HW1 3404   0.491   0.044   9.119
  948SOL    HW2 3405   0.420   0.106   9.238
  949SOL     OW 3406   0.585   0.874   8.479
  949SOL    HW1 3407   0.615   0.965   8.480
  949SOL    HW2 3408   0.528   0.867   8.557
  950SOL     OW 3409   1.356   0.858   8.477
  950SOL    HW1 3410   1.272   0.848   8.431
  950SOL    HW2 3411   1.397   0.772   8.470
  951SOL     OW 3412   1.202   0.536   7.708
  951SOL    HW1 3413   1.211   0.456   7.762
  951SOL    HW2 3414   1.159   0.599   7.766
  952SOL     OW 3415   0.312   0.213   8.689
  952SOL    HW1 3416   0.269   0.248   8.767
  952SOL    HW2 3417   0.296   0.119   8.694
  953SOL     OW 3418   0.059   1.306   8.728
  953SOL    HW1 3419   0.090   1.264   8.809
  953SOL    HW2 3420   0.051   1.398   8.750
  954SOL     OW 3421   0.726   0.634   8.503
  954SOL    HW1 3422   0.799   0.618   8.444
  954SOL    HW2 3423   0.696   0.722   8.481
  955SOL     OW 3424   1.736   0.959   9.302
  955SOL    HW1 3425   1.690   0.897   9.246
  955SOL    HW2 3426   1.676   0.974   9.375
  956SOL     OW 3427   0.328   0.055   8.100
  956SOL    HW1 3428   0.300   0.147   8.101
  956SOL    HW2 3429   0.290   0.018   8.180
  957SOL     OW 3430   1.605   0.389   7.830
  957SOL    HW1 3431   1.569   0.322   7.887
  957SOL    HW2 3432   1.585   0.472   7.874
  958SOL     OW 3433   1.029   0.759   8.408
  958SOL    HW1 3434   1.023   0.776   8.502
  958SOL    HW2 3435   1.002   0.668   8.398
  959SOL     OW 3436   0.982   1.566   9.166
  959SOL    HW1 3437   0.967   1.610   9.082
  959SOL    HW2 3438   1.026   1.484   9.142
  960SOL     OW 3439   1.854   1.503   9.053
  960SOL    HW1 3440   1.871   1.533   8.964
  960SOL    HW2 3441   1.938   1.515   9.098
  961SOL     OW 3442   0.352   0.921   9.247
  961SOL    HW1 3443   0.431   0.941   9.299
  961SOL    HW2 3444   0.381   0.854   9.186
  962SOL     OW 3445   1.506   0.275   7.584
  962SOL    HW1 3446   1.432   0.216   7.596
  962SOL    HW2 3447   1.520   0.315   7.670
  963SOL     OW 3448   1.289   0.824   7.482
  963SOL    HW1 3449   1.331   0.738   7.487
  963SOL    HW2 3450   1.315   0.859   7.397
  964SOL     OW 3451   1.066   1.336   8.303
  964SOL    HW1 3452   1.070   1.264   8.240
  964SOL    HW2 3453   1.126   1.401   8.269
  965SOL     OW 3454   0.313   0.804   8.398
  965SOL    HW1 3455   0.407   0.820   8.392
  965SOL    HW2 3456   0.307   0.714   8.430
  966SOL     OW 3457   0.338   0.528   8.462
  966SOL    HW1 3458   0.297   0.443   8.444
  966SOL    HW2 3459   0.413   0.532   8.403
  967SOL     OW 3460   1.133   0.381   9.144
  967SOL    HW1 3461   1.085   0.436   9.205
  967SOL    HW2 3462   1.220   0.421   9.139
  968SOL     OW 3463   1.151   0.225   8.929
  968SOL    HW1 3464   1.142   0.280   9.007
  968SOL    HW2 3465   1.175   0.286   8.860
  969SOL     OW 3466   0.000   1.318   7.630
  969SOL    HW1 3467   3.906   1.334   7.634
  969SOL    HW2 3468   0.009   1.225   7.649
  970SOL     OW 3469   0.077   1.800   8.337
  970SOL    HW1 3470   0.081   1.705   8.342
  970SOL    HW2 3471   0.169   1.829   8.341
  971SOL     OW 3472   0.502   1.571   8.359
  971SOL    HW1 3473   0.572   1.631   8.384
  971SOL    HW2 3474   0.545   1.508   8.301
  972SOL     OW 3475   0.980   0.790   8.673
  972SOL    HW1 3476   1.036   0.769   8.748
  972SOL    HW2 3477   0.895   0.752   8.695
  973SOL     OW 3478   0.035   0.571   8.561
  973SOL    HW1 3479   0.099   0.521   8.510
  973SOL    HW2 3480   0.061   0.558   8.652
  974SOL     OW 3481   0.210   0.516   9.170
  974SOL    HW1 3482   0.258   0.478   9.096
  974SOL    HW2 3483   0.162   0.590   9.132
  975SOL     OW 3484   1.378   0.938   9.106
  975SOL    HW1 3485   1.399   1.031   9.103
  975SOL    HW2 3486   1.375   0.911   9.014
  976SOL     OW 3487   0.818   0.572   7.809
  976SOL    HW1 3488   0.824   0.495   7.751
  976SOL    HW2 3489   0.743   0.621   7.775
  977SOL     OW 3490   1.641   0.602   8.633
  977SOL    HW1 3491   1.631   0.541   8.706
  977SOL    HW2 3492   1.728   0.584   8.598
  978SOL     OW 3493   0.299   1.545   9.175
  978SOL    HW1 3494   0.250   1.614   9.219
  978SOL    HW2 3495   0.267   1.464   9.215
  979SOL     OW 3496   0.706   0.455   8.706
  979SOL    HW1 3497   0.657   0.377   8.680
  979SOL    HW2 3498   0.698   0.514   8.631
  980SOL     OW 3499   0.926   1.679   8.917
  980SOL    HW1 3500   0.901   1.643   8.832
  980SOL    HW2 3501   0.921   1.774   8.905
  981SOL     OW 3502   0.455   0.492   7.645
  981SOL    HW1 3503   0.519   0.561   7.661
  981SOL    HW2 3504   0.375   0.539   7.621
  982SOL     OW 3505   0.156   1.135   8.922
  982SOL    HW1 3506   0.158   1.084   9.003
  982SOL    HW2 3507   0.171   1.071   8.852
  983SOL     OW 3508   1.325   1.046   8.671
  983SOL    HW1 3509   1.348   0.983   8.603
  983SOL    HW2 3510   1.255   1.099   8.631
  984SOL     OW 3511   1.313   0.857   7.755
  984SOL    HW1 3512   1.237   0.827   7.805
  984SOL    HW2 3513   1.288   0.844   7.664
  985SOL     OW 3514   1.742   1.736   8.583
  985SOL    HW1 3515   1.817   1.758   8.529
  985SOL    HW2 3516   1.728   1.642   8.567
  986SOL     OW 3517   1.243   1.734   8.558
  986SOL    HW1 3518   1.325   1.755   8.515
  986SOL    HW2 3519   1.249   1.640   8.577
  987SOL     OW 3520   0.077   1.217   8.476
  987SOL    HW1 3521   0.083   1.242   8.568
  987SOL    HW2 3522   3.984   1.226   8.454
  988SOL     OW 3523   0.679   1.667   9.180
  988SOL    HW1 3524   0.621   1.743   9.172
  988SOL    HW2 3525   0.745   1.680   9.111
  989SOL     OW 3526   1.712   0.125   7.935
  989SOL    HW1 3527   1.792   0.134   7.881
  989SOL    HW2 3528   1.704   0.031   7.950
  990SOL     OW 3529   1.393   1.563   7.933
  990SOL    HW1 3530   1.447   1.599   7.863
  990SOL    HW2 3531   1.336   1.636   7.959
  991SOL     OW 3532   0.174   1.765   9.277
  991SOL    HW1 3533   0.116   1.715   9.335
  991SOL    HW2 3534   0.215   1.830   9.334
  992SOL     OW 3535   1.277   0.927   8.119
  992SOL    HW1 3536   1.351   0.867   8.128
  992SOL    HW2 3537   1.311   0.999   8.066
  993SOL     OW 3538   0.812   1.273   8.877
  993SOL    HW1 3539   0.783   1.314   8.959
  993SOL    HW2 3540   0.742   1.292   8.815
  994SOL     OW 3541   0.670   1.621   7.603
  994SOL    HW1 3542   0.681   1.633   7.509
  994SOL    HW2 3543   0.615   1.543   7.611
  995SOL     OW 3544   1.624   1.729   8.838
  995SOL    HW1 3545   1.668   1.734   8.753
  995SOL    HW2 3546   1.610   1.820   8.864
  996SOL     OW 3547   1.839   0.177   8.415
  996SOL    HW1 3548   1.871   0.108   8.357
  996SOL    HW2 3549   1.751   0.196   8.383
  997SOL     OW 3550   0.274   0.323   8.163
  997SOL    HW1 3551   0.188   0.358   8.137
  997SOL    HW2 3552   0.266   0.306   8.256
  998SOL     OW 3553   1.184   1.613   7.486
  998SOL    HW1 3554   1.197   1.522   7.510
  998SOL    HW2 3555   1.117   1.611   7.418
  999SOL     OW 3556   0.823   1.005   8.821
  999SOL    HW1 3557   0.867   1.001   8.736
  999SOL    HW2 3558   0.823   1.099   8.842
 1000SOL     OW 3559   0.915   0.910   7.738
 1000SOL    HW1 3560   0.976   0.942   7.672
 1000SOL    HW2 3561   0.964   0.841   7.784
 1001SOL     OW 3562   0.374   1.303   8.940
 1001SOL    HW1 3563   0.359   1.383   8.889
 1001SOL    HW2 3564   0.297   1.248   8.922
 1002SOL     OW 3565   1.610   1.282   8.729
 1002SOL    HW1 3566   1.669   1.270   8.803
 1002SOL    HW2 3567   1.550   1.351   8.757
 1003SOL     OW 3568   1.054   1.108   8.155
 1003SOL    HW1 3569   0.983   1.057   8.194
 1003SOL    HW2 3570   1.117   1.043   8.125
 1004SOL     OW 3571   1.014   0.249   8.417
 1004SOL    HW1 3572   1.004   0.198   8.336
 1004SOL    HW2 3573   1.009   0.183   8.487
 1005SOL     OW 3574   0.605   1.488   7.930
 1005SOL    HW1 3575   0.650   1.438   7.861
 1005SOL    HW2 3576   0.533   1.532   7.885
 1006SOL     OW 3577   1.720   0.393   8.821
 1006SOL    HW1 3578   1.792   0.456   8.825
 1006SOL    HW2 3579   1.753   0.321   8.767
 1007SOL     OW 3580   0.253   1.341   7.741
 1007SOL    HW1 3581   0.160   1.350   7.721
 1007SOL    HW2 3582   0.263   1.380   7.828
 1008SOL     OW 3583   0.107   1.000   9.166
 1008SOL    HW1 3584   0.046   0.991   9.239
 1008SOL    HW2 3585   0.193   0.980   9.203
 1009SOL     OW 3586   0.694   0.250   8.947
 1009SOL    HW1 3587   0.762   0.197   8.906
 1009SOL    HW2 3588   0.722   0.259   9.039
 1010SOL     OW 3589   0.088   0.323   7.475
 1010SOL    HW1 3590   3.993   0.320   7.469
 1010SOL    HW2 3591   0.112   0.405   7.433
 1011SOL     OW 3592   1.428   0.857   8.847
 1011SOL    HW1 3593   1.379   0.919   8.792
 1011SOL    HW2 3594   1.517   0.860   8.813
 1012SOL     OW 3595   0.038   0.166   7.732
 1012SOL    HW1 3596   0.037   0.235   7.666
 1012SOL    HW2 3597   0.116   0.184   7.785
 1013SOL     OW 3598   1.181   1.338   7.564
 1013SOL    HW1 3599   1.090   1.309   7.566
 1013SOL    HW2 3600   1.208   1.339   7.656
 1014SOL     OW 3601   0.620   0.829   8.884
 1014SOL    HW1 3602   0.676   0.905   8.868
 1014SOL    HW2 3603   0.680   0.755   8.892
 1015SOL     OW 3604   1.488   1.784   8.430
 1015SOL    HW1 3605   1.510   1.852   8.366
 1015SOL    HW2 3606   1.570   1.764   8.474
 1016SOL     OW 3607   0.717   0.563   9.155
 1016SOL    HW1 3608   0.761   0.625   9.213
 1016SOL    HW2 3609   0.746   0.477   9.186
 1017SOL     OW 3610   1.472   1.199   9.079
 1017SOL    HW1 3611   1.460   1.213   9.173
 1017SOL    HW2 3612   1.565   1.215   9.064
 1018SOL     OW 3613   0.379   1.742   9.006
 1018SOL    HW1 3614   0.292   1.780   8.993
 1018SOL    HW2 3615   0.363   1.661   9.053
 1019SOL     OW 3616   1.668   0.881   8.704
 1019SOL    HW1 3617   1.663   0.796   8.661
 1019SOL    HW2 3618   1.659   0.944   8.632
 1020SOL     OW 3619   1.224   0.335   7.892
 1020SOL    HW1 3620   1.291   0.267   7.885
 1020SOL    HW2 3621   1.244   0.380   7.974
 1021SOL     OW 3622   0.590   0.739   8.119
 1021SOL    HW1 3623   0.628   0.825   8.102
 1021SOL    HW2 3624   0.523   0.729   8.052
 1022SOL     OW 3625   1.752   0.383   9.091
 1022SOL    HW1 3626   1.734   0.388   8.997
 1022SOL    HW2 3627   1.695   0.313   9.122
 1023SOL     OW 3628   1.745   0.934   8.960
 1023SOL    HW1 3629   1.740   1.029   8.973
 1023SOL    HW2 3630   1.729   0.921   8.867
 1024SOL     OW 3631   0.861   1.367   7.484
 1024SOL    HW1 3632   0.825   1.393   7.568
 1024SOL    HW2 3633   0.879   1.449   7.439
 1025SOL     OW 3634   0.662   1.789   8.391
 1025SOL    HW1 3635   0.641   1.880   8.369
 1025SOL    HW2 3636   0.757   1.784   8.384
 1026SOL     OW 3637   0.868   0.967   8.302
 1026SOL    HW1 3638   0.918   0.896   8.341
 1026SOL    HW2 3639   0.832   1.015   8.377
 1027SOL     OW 3640   1.076   0.987   7.536
 1027SOL    HW1 3641   1.058   1.039   7.458
 1027SOL    HW2 3642   1.153   0.934   7.512
 1028SOL     OW 3643   1.839   1.550   8.276
 1028SOL    HW1 3644   1.755   1.546   8.230
 1028SOL    HW2 3645   1.832   1.486   8.346
 1029SOL     OW 3646   0.225   1.303   9.304
 1029SOL    HW1 3647   0.153   1.246   9.277
 1029SOL    HW2 3648   0.211   1.317   9.398
 1030SOL     OW 3649   0.117   1.277   8.168
 1030SOL    HW1 3650   0.131   1.226   8.248
 1030SOL    HW2 3651   0.107   1.212   8.099
 1031SOL     OW 3652   0.681   1.404   9.077
 1031SOL    HW1 3653   0.601   1.361   9.107
 1031SOL    HW2 3654   0.677   1.492   9.114
 1032SOL     OW 3655   1.812   0.183   8.687
 1032SOL    HW1 3656   1.815   0.089   8.701
 1032SOL    HW2 3657   1.827   0.194   8.593
 1033SOL     OW 3658   0.443   0.437   7.979
 1033SOL    HW1 3659   0.458   0.362   7.922
 1033SOL    HW2 3660   0.388   0.403   8.049
 1034SOL     OW 3661   1.702   1.476   8.537
 1034SOL    HW1 3662   1.619   1.458   8.492
 1034SOL    HW2 3663   1.707   1.408   8.605
 1035SOL     OW 3664   0.332   0.556   8.740
 1035SOL    HW1 3665   0.388   0.500   8.793
 1035SOL    HW2 3666   0.347   0.528   8.650
 1036SOL     OW 3667   0.828   1.579   8.125
 1036SOL    HW1 3668   0.816   1.637   8.049
 1036SOL    HW2 3669   0.752   1.521   8.123
 1037SOL     OW 3670   1.461   0.253   8.559
 1037SOL    HW1 3671   1.477   0.166   8.595
 1037SOL    HW2 3672   1.405   0.295   8.623
 1038SOL     OW 3673   1.004   0.029   8.595
 1038SOL    HW1 3674   0.926   3.987   8.560
 1038SOL    HW2 3675   1.068   3.958   8.603
 1039SOL     OW 3676   0.772   1.332   7.764
 1039SOL    HW1 3677   0.742   1.242   7.770
 1039SOL    HW2 3678   0.854   1.334   7.813
 1040SOL     OW 3679   0.620   1.557   8.733
 1040SOL    HW1 3680   0.622   1.638   8.783
 1040SOL    HW2 3681   0.708   1.549   8.696
 1041SOL     OW 3682   1.313   0.074   7.613
 1041SOL    HW1 3683   1.326   3.999   7.555
 1041SOL    HW2 3684   1.227   0.059   7.653
 1042SOL     OW 3685   1.283   0.457   8.134
 1042SOL    HW1 3686   1.236   0.540   8.129
 1042SOL    HW2 3687   1.286   0.437   8.227
 1043SOL     OW 3688   1.588   0.210   8.316
 1043SOL    HW1 3689   1.539   0.234   8.394
 1043SOL    HW2 3690   1.588   0.290   8.262
 1044SOL     OW 3691   0.047   1.050   7.688
 1044SOL    HW1 3692   0.141   1.033   7.679
 1044SOL    HW2 3693   0.011   0.968   7.722
 1045SOL     OW 3694   0.882   1.652   7.790
 1045SOL    HW1 3695   0.809   1.637   7.730
 1045SOL    HW2 3696   0.856   1.728   7.842
 1046SOL     OW 3697   0.233   0.627   9.428
 1046SOL    HW1 3698   0.139   0.631   9.450
 1046SOL    HW2 3699   0.234   0.597   9.337
 1047SOL     OW 3700   0.224   0.288  10.293
 1047SOL    HW1 3701   0.247   0.250  10.378
 1047SOL    HW2 3702   0.130   0.276  10.286
 1048SOL     OW 3703   0.018   0.386   9.945
 1048SOL    HW1 3704   3.928   0.398   9.976
 1048SOL    HW2 3705   0.026   0.292   9.929
 1049SOL     OW 3706   0.579   1.287  10.498
 1049SOL    HW1 3707   0.492   1.289  10.457
 1049SOL    HW2 3708   0.593   1.375  10.531
 1050SOL     OW 3709   1.565   1.513  10.019
 1050SOL    HW1 3710   1.522   1.494  10.102
 1050SOL    HW2 3711   1.494   1.519   9.955
 1051SOL     OW 3712   1.132   0.698  10.009
 1051SOL    HW1 3713   1.180   0.780   9.996
 1051SOL    HW2 3714   1.085   0.711  10.091
 1052SOL     OW 3715   1.764   0.619   9.536
 1052SOL    HW1 3716   1.743   0.611   9.443
 1052SOL    HW2 3717   1.752   0.530   9.571
 1053SOL     OW 3718   0.755   1.140  10.351
 1053SOL    HW1 3719   0.690   1.175  10.412
 1053SOL    HW2 3720   0.790   1.217  10.306
 1054SOL     OW 3721   0.869   0.773  11.133
 1054SOL    HW1 3722   0.858   0.844  11.196
 1054SOL    HW2 3723   0.892   0.816  11.051
 1055SOL     OW 3724   0.685   1.003   9.956
 1055SOL    HW1 3725   0.751   0.991  10.025
 1055SOL    HW2 3726   0.616   1.054   9.998
 1056SOL     OW 3727   0.711   1.149  11.125
 1056SOL    HW1 3728   0.759   1.228  11.152
 1056SOL    HW2 3729   0.629   1.183  11.088
 1057SOL     OW 3730   0.351   1.402  10.389
 1057SOL    HW1 3731   0.270   1.382  10.342
 1057SOL    HW2 3732   0.399   1.460  10.330
 1058SOL     OW 3733   1.461   1.501  10.666
 1058SOL    HW1 3734   1.513   1.580  10.674
 1058SOL    HW2 3735   1.398   1.505  10.737
 1059SOL     OW 3736   0.456   0.408  10.807
 1059SOL    HW1 3737   0.537   0.357  10.805
 1059SOL    HW2 3738   0.386   0.342  10.809
 1060SOL     OW 3739   1.612   0.451  10.045
 1060SOL    HW1 3740   1.541   0.482   9.989
 1060SOL    HW2 3741   1.632   0.525  10.102
 1061SOL     OW 3742   0.221   1.718   9.768
 1061SOL    HW1 3743   0.240   1.793   9.825
 1061SOL    HW2 3744   0.299   1.710   9.712
 1062SOL     OW 3745   1.137   1.342  11.003
 1062SOL    HW1 3746   1.178   1.336  11.089
 1062SOL    HW2 3747   1.085   1.262  10.996
 1063SOL     OW 3748   0.248   1.449   9.850
 1063SOL    HW1 3749   0.215   1.538   9.836
 1063SOL    HW2 3750   0.181   1.405   9.901
 1064SOL     OW 3751   0.247   1.067  10.195
 1064SOL    HW1 3752   0.266   0.982  10.235
 1064SOL    HW2 3753   0.194   1.113  10.260
 1065SOL     OW 3754   0.612   1.792  10.738
 1065SOL    HW1 3755   0.529   1.774  10.783
 1065SOL    HW2 3756   0.634   1.881  10.764
 1066SOL     OW 3757   0.579   0.985   9.448
 1066SOL    HW1 3758   0.626   1.030   9.378
 1066SOL    HW2 3759   0.621   1.014   9.528
 1067SOL     OW 3760   1.579   0.139  10.766
 1067SOL    HW1 3761   1.608   0.212  10.711
 1067SOL    HW2 3762   1.550   0.180  10.847
 1068SOL     OW 3763   0.140   0.651   9.880
 1068SOL    HW1 3764   0.097   0.565   9.884
 1068SOL    HW2 3765   0.102   0.701   9.952
 1069SOL     OW 3766   0.044   1.590   9.449
 1069SOL    HW1 3767   0.035   1.498   9.473
 1069SOL    HW2 3768   3.962   1.630   9.479
 1070SOL     OW 3769   1.687   0.916   9.951
 1070SOL    HW1 3770   1.772   0.876   9.932
 1070SOL    HW2 3771   1.667   0.969   9.873
 1071SOL     OW 3772   1.647   1.106   9.739
 1071SOL    HW1 3773   1.734   1.111   9.698
 1071SOL    HW2 3774   1.652   1.168   9.812
 1072SOL     OW 3775   0.138   0.755  10.899
 1072SOL    HW1 3776   0.234   0.750  10.896
 1072SOL    HW2 3777   0.120   0.845  10.927
 1073SOL     OW 3778   0.613   1.386  10.046
 1073SOL    HW1 3779   0.567   1.303  10.055
 1073SOL    HW2 3780   0.597   1.412   9.955
 1074SOL     OW 3781   1.288   1.238  10.733
 1074SOL    HW1 3782   1.320   1.170  10.673
 1074SOL    HW2 3783   1.346   1.232  10.809
 1075SOL     OW 3784   0.819   0.003   9.826
 1075SOL    HW1 3785   0.864   0.084   9.802
 1075SOL    HW2 3786   0.726   0.027   9.826
 1076SOL     OW 3787   0.184   0.951  10.587
 1076SOL    HW1 3788   0.273   0.916  10.575
 1076SOL    HW2 3789   0.132   0.908  10.520
 1077SOL     OW 3790   1.531   0.995   9.509
 1077SOL    HW1 3791   1.462   0.938   9.542
 1077SOL    HW2 3792   1.573   1.029   9.588
 1078SOL     OW 3793   1.185   1.808  10.933
 1078SOL    HW1 3794   1.195   1.867  10.859
 1078SOL    HW2 3795   1.202   1.721  10.897
 1079SOL     OW 3796   0.343   0.252  11.144
 1079SOL    HW1 3797   0.386   0.336  11.127
 1079SOL    HW2 3798   0.252   0.276  11.163
 1080SOL     OW 3799   1.465   1.419  10.260
 1080SOL    HW1 3800   1.398   1.435  10.326
 1080SOL    HW2 3801   1.452   1.328  10.234
 1081SOL     OW 3802   1.665   1.733   9.867
 1081SOL    HW1 3803   1.630   1.696   9.787
 1081SOL    HW2 3804   1.646   1.667   9.934
 1082SOL     OW 3805   0.596   0.718   9.575
 1082SOL    HW1 3806   0.601   0.802   9.529
 1082SOL    HW2 3807   0.533   0.733   9.645
 1083SOL     OW 3808   1.275   0.367  10.250
 1083SOL    HW1 3809   1.188   0.328  10.257
 1083SOL    HW2 3810   1.332   0.305  10.296
 1084SOL     OW 3811   1.575   1.671   9.609
 1084SOL    HW1 3812   1.663   1.703   9.588
 1084SOL    HW2 3813   1.538   1.646   9.524
 1085SOL     OW 3814   0.794   0.616  10.764
 1085SOL    HW1 3815   0.765   0.591  10.851
 1085SOL    HW2 3816   0.755   0.551  10.706
 1086SOL     OW 3817   1.392   0.476  10.987
 1086SOL    HW1 3818   1.398   0.521  11.072
 1086SOL    HW2 3819   1.451   0.401  10.996
 1087SOL     OW 3820   0.953   0.887  10.893
 1087SOL    HW1 3821   1.008   0.818  10.857
 1087SOL    HW2 3822   0.905   0.922  10.818
 1088SOL     OW 3823   0.991   0.403  10.549
 1088SOL    HW1 3824   0.907   0.425  10.589
 1088SOL    HW2 3825   0.969   0.373  10.461
 1089SOL     OW 3826   1.052   0.699   9.736
 1089SOL    HW1 3827   1.068   0.692   9.830
 1089SOL    HW2 3828   0.969   0.653   9.722
 1090SOL     OW 3829   0.081   0.827  10.101
 1090SOL    HW1 3830   0.156   0.795  10.151
 1090SOL    HW2 3831   0.099   0.920  10.088
 1091SOL     OW 3832   0.130   1.860  10.885
 1091SOL    HW1 3833   0.137   1.826  10.974
 1091SOL    HW2 3834   0.037   1.848  10.863
 1092SOL     OW 3835   0.894   0.352   9.508
 1092SOL    HW1 3836   0.935   0.411   9.445
 1092SOL    HW2 3837   0.893   0.267   9.464
 1093SOL     OW 3838   1.709   0.576  11.139
 1093SOL    HW1 3839   1.671   0.649  11.091
 1093SOL    HW2 3840   1.734   0.512  11.071
 1094SOL     OW 3841   1.378   1.141   9.850
 1094SOL    HW1 3842   1.457   1.130   9.798
 1094SOL    HW2 3843   1.325   1.204   9.800
 1095SOL     OW 3844   0.560   0.195  10.191
 1095SOL    HW1 3845   0.565   0.218  10.284
 1095SOL    HW2 3846   0.547   0.278  10.146
 1096SOL     OW 3847   1.004   1.444   9.781
 1096SOL    HW1 3848   0.968   1.518   9.732
 1096SOL    HW2 3849   0.985   1.465   9.872
 1097SOL     OW 3850   0.365   1.817  10.179
 1097SOL    HW1 3851   0.429   1.746  10.187
 1097SOL    HW2 3852   0.415   1.897  10.195
 1098SOL     OW 3853   1.799   1.053  10.180
 1098SOL    HW1 3854   1.745   1.039  10.103
 1098SOL    HW2 3855   1.737   1.060  10.252
 1099SOL     OW 3856   1.228   1.539  10.823
 1099SOL    HW1 3857   1.214   1.466  10.884
 1099SOL    HW2 3858   1.164   1.524  10.753
 1100SOL     OW 3859   0.310   0.954   9.552
 1100SOL    HW1 3860   0.394   0.977   9.512
 1100SOL    HW2 3861   0.297   0.862   9.530
 1101SOL     OW 3862   1.478   0.746  10.040
 1101SOL    HW1 3863   1.472   0.703  10.125
 1101SOL    HW2 3864   1.556   0.801  10.046
 1102SOL     OW 3865   0.467   1.260  11.047
 1102SOL    HW1 3866   0.441   1.269  10.955
 1102SOL    HW2 3867   0.385   1.264  11.096
 1103SOL     OW 3868   1.122   1.777   9.541
 1103SOL    HW1 3869   1.048   1.736   9.586
 1103SOL    HW2 3870   1.145   1.715   9.472
 1104SOL     OW 3871   0.200   0.295  10.809
 1104SOL    HW1 3872   0.107   0.315  10.808
 1104SOL    HW2 3873   0.208   0.225  10.875
 1105SOL     OW 3874   1.628   1.380   9.397
 1105SOL    HW1 3875   1.587   1.465   9.381
 1105SOL    HW2 3876   1.559   1.316   9.378
 1106SOL     OW 3877   0.466   1.739   9.627
 1106SOL    HW1 3878   0.509   1.796   9.691
 1106SOL    HW2 3879   0.538   1.704   9.574
 1107SOL     OW 3880   1.440   0.164   9.715
 1107SOL    HW1 3881   1.394   0.097   9.663
 1107SOL    HW2 3882   1.512   0.116   9.756
 1108SOL     OW 3883   0.251   1.791  10.542
 1108SOL    HW1 3884   0.298   1.727  10.595
 1108SOL    HW2 3885   0.248   1.752  10.454
 1109SOL     OW 3886   0.938   1.699  10.208
 1109SOL    HW1 3887   1.016   1.648  10.229
 1109SOL    HW2 3888   0.895   1.649  10.139
 1110SOL     OW 3889   0.396   0.694   9.781
 1110SOL    HW1 3890   0.423   0.603   9.796
 1110SOL    HW2 3891   0.304   0.697   9.807
 1111SOL     OW 3892   1.530   0.230  11.037
 1111SOL    HW1 3893   1.527   0.255  11.129
 1111SOL    HW2 3894   1.507   0.137  11.037
 1112SOL     OW 3895   0.644   0.132   9.412
 1112SOL    HW1 3896   0.670   0.049   9.453
 1112SOL    HW2 3897   0.583   0.106   9.343
 1113SOL     OW 3898   0.777   0.283  11.075
 1113SOL    HW1 3899   0.848   0.219  11.079
 1113SOL    HW2 3900   0.719   0.258  11.147
 1114SOL     OW 3901   0.876   1.522  10.504
 1114SOL    HW1 3902   0.860   1.485  10.417
 1114SOL    HW2 3903   0.946   1.468  10.541
 1115SOL     OW 3904   1.340   0.587  10.740
 1115SOL    HW1 3905   1.371   0.558  10.826
 1115SOL    HW2 3906   1.375   0.676  10.731
 1116SOL     OW 3907   0.815   1.394  10.250
 1116SOL    HW1 3908   0.900   1.382  10.208
 1116SOL    HW2 3909   0.753   1.395  10.178
 1117SOL     OW 3910   0.930   0.512  10.211
 1117SOL    HW1 3911   0.906   0.503  10.119
 1117SOL    HW2 3912   0.956   0.423  10.237
 1118SOL     OW 3913   0.546   0.056   9.798
 1118SOL    HW1 3914   0.472   0.064   9.858
 1118SOL    HW2 3915   0.548   0.140   9.752
 1119SOL     OW 3916   1.427   1.198   9.351
 1119SOL    HW1 3917   1.458   1.123   9.401
 1119SOL    HW2 3918   1.342   1.219   9.388
 1120SOL     OW 3919   0.341   0.040   9.507
 1120SOL    HW1 3920   0.361   0.086   9.425
 1120SOL    HW2 3921   0.425   0.034   9.552
 1121SOL     OW 3922   0.941   0.248   9.772
 1121SOL    HW1 3923   0.914   0.289   9.689
 1121SOL    HW2 3924   1.036   0.252   9.771
 1122SOL     OW 3925   1.079   0.682  10.769
 1122SOL    HW1 3926   1.009   0.617  10.775
 1122SOL    HW2 3927   1.160   0.631  10.763
 1123SOL     OW 3928   1.222   1.571  10.105
 1123SOL    HW1 3929   1.238   1.637  10.038
 1123SOL    HW2 3930   1.292   1.584  10.169
 1124SOL     OW 3931   0.466   1.150  10.047
 1124SOL    HW1 3932   0.394   1.126  10.105
 1124SOL    HW2 3933   0.432   1.135   9.959
 1125SOL     OW 3934   1.266   1.793   9.918
 1125SOL    HW1 3935   1.311   1.856   9.862
 1125SOL    HW2 3936   1.200   1.845   9.964
 1126SOL     OW 3937   1.023   0.544   9.337
 1126SOL    HW1 3938   0.979   0.627   9.317
 1126SOL    HW2 3939   1.086   0.566   9.405
 1127SOL     OW 3940   0.080   0.572  10.703
 1127SOL    HW1 3941   0.169   0.554  10.673
 1127SOL    HW2 3942   0.090   0.644  10.766
 1128SOL     OW 3943   0.572   0.231  10.470
 1128SOL    HW1 3944   0.594   0.139  10.479
 1128SOL    HW2 3945   0.481   0.237  10.500
 1129SOL     OW 3946   0.871   0.462   9.949
 1129SOL    HW1 3947   0.820   0.514   9.887
 1129SOL    HW2 3948   0.890   0.380   9.902
 1130SOL     OW 3949   0.996   0.040  10.090
 1130SOL    HW1 3950   0.960   0.068  10.005
 1130SOL    HW2 3951   1.006   3.946  10.082
 1131SOL     OW 3952   1.438   1.162  10.167
 1131SOL    HW1 3953   1.368   1.096  10.165
 1131SOL    HW2 3954   1.463   1.173  10.076
 1132SOL     OW 3955   1.465   0.606  10.286
 1132SOL    HW1 3956   1.412   0.526  10.291
 1132SOL    HW2 3957   1.525   0.599  10.360
 1133SOL     OW 3958   1.845   0.819   9.696
 1133SOL    HW1 3959   1.902   0.767   9.752
 1133SOL    HW2 3960   1.815   0.758   9.629
 1134SOL     OW 3961   0.488   1.419   9.470
 1134SOL    HW1 3962   0.412   1.388   9.520
 1134SOL    HW2 3963   0.471   1.390   9.381
 1135SOL     OW 3964   1.670   1.264   9.956
 1135SOL    HW1 3965   1.765   1.264   9.969
 1135SOL    HW2 3966   1.643   1.353   9.977
 1136SOL     OW 3967   1.395   0.575   9.380
 1136SOL    HW1 3968   1.332   0.556   9.449
 1136SOL    HW2 3969   1.480   0.555   9.418
 1137SOL     OW 3970   0.558   0.271   9.629
 1137SOL    HW1 3971   0.603   0.231   9.554
 1137SOL    HW2 3972   0.528   0.356   9.596
 1138SOL     OW 3973   1.751   1.240  10.882
 1138SOL    HW1 3974   1.839   1.201  10.876
 1138SOL    HW2 3975   1.767   1.330  10.910
 1139SOL     OW 3976   1.057   1.354  10.643
 1139SOL    HW1 3977   0.982   1.322  10.694
 1139SOL    HW2 3978   1.133   1.312  10.684
 1140SOL     OW 3979   1.608   1.625  10.964
 1140SOL    HW1 3980   1.602   1.662  10.875
 1140SOL    HW2 3981   1.691   1.579  10.965
 1141SOL     OW 3982   1.130   1.205  10.415
 1141SOL    HW1 3983   1.071   1.242  10.480
 1141SOL    HW2 3984   1.098   1.237  10.331
 1142SOL     OW 3985   1.627   1.097  10.387
 1142SOL    HW1 3986   1.621   1.159  10.460
 1142SOL    HW2 3987   1.548   1.115  10.335
 1143SOL     OW 3988   0.913   0.113  10.711
 1143SOL    HW1 3989   0.933   0.088  10.621
 1143SOL    HW2 3990   0.993   0.155  10.742
 1144SOL     OW 3991   0.984   1.115  11.033
 1144SOL    HW1 3992   0.892   1.131  11.055
 1144SOL    HW2 3993   0.982   1.037  10.978
 1145SOL     OW 3994   0.708   1.061   9.681
 1145SOL    HW1 3995   0.694   1.045   9.774
 1145SOL    HW2 3996   0.784   1.008   9.658
 1146SOL     OW 3997   0.422   0.816  10.562
 1146SOL    HW1 3998   0.490   0.823  10.629
 1146SOL    HW2 3999   0.387   0.728  10.572
 1147SOL     OW 4000   1.266   0.375  10.586
 1147SOL    HW1 4001   1.300   0.453  10.630
 1147SOL    HW2 4002   1.179   0.401  10.556
 1148SOL     OW 4003   0.065   1.580  10.656
 1148SOL    HW1 4004   0.070   1.640  10.582
 1148SOL    HW2 4005   0.156   1.566  10.682
 1149SOL     OW 4006   0.373   1.103   9.794
 1149SOL    HW1 4007   0.366   1.181   9.739
 1149SOL    HW2 4008   0.371   1.030   9.732
 1150SOL     OW 4009   0.555   0.536  10.169
 1150SOL    HW1 4010   0.570   0.594  10.094
 1150SOL    HW2 4011   0.620   0.563  10.233
 1151SOL     OW 4012   1.248   1.348   9.699
 1151SOL    HW1 4013   1.303   1.419   9.731
 1151SOL    HW2 4014   1.160   1.369   9.733
 1152SOL     OW 4015   1.282   1.459  10.458
 1152SOL    HW1 4016   1.339   1.462  10.535
 1152SOL    HW2 4017   1.228   1.381  10.471
 1153SOL     OW 4018   1.576   0.633   9.796
 1153SOL    HW1 4019   1.534   0.691   9.859
 1153SOL    HW2 4020   1.623   0.692   9.737
 1154SOL     OW 4021   0.345   1.527  10.629
 1154SOL    HW1 4022   0.335   1.476  10.548
 1154SOL    HW2 4023   0.440   1.542  10.636
 1155SOL     OW 4024   0.415   0.738  10.911
 1155SOL    HW1 4025   0.477   0.784  10.854
 1155SOL    HW2 4026   0.454   0.652  10.924
 1156SOL     OW 4027   1.602   0.779  10.994
 1156SOL    HW1 4028   1.516   0.821  10.987
 1156SOL    HW2 4029   1.655   0.820  10.925
 1157SOL     OW 4030   1.014   0.130  11.088
 1157SOL    HW1 4031   1.062   0.203  11.051
 1157SOL    HW2 4032   1.003   0.069  11.015
 1158SOL     OW 4033   0.481   0.036  11.076
 1158SOL    HW1 4034   0.491   0.045  10.981
 1158SOL    HW2 4035   0.420   0.106  11.100
 1159SOL     OW 4036   0.585   0.874  10.341
 1159SOL    HW1 4037   0.615   0.965  10.342
 1159SOL    HW2 4038   0.528   0.867  10.419
 1160SOL     OW 4039   1.355   0.858  10.338
 1160SOL    HW1 4040   1.272   0.847  10.293
 1160SOL    HW2 4041   1.398   0.773  10.332
 1161SOL     OW 4042   1.202   0.536   9.570
 1161SOL    HW1 4043   1.211   0.457   9.623
 1161SOL    HW2 4044   1.158   0.599   9.628
 1162SOL     OW 4045   0.312   0.213  10.551
 1162SOL    HW1 4046   0.269   0.249  10.629
 1162SOL    HW2 4047   0.296   0.119  10.556
 1163SOL     OW 4048   0.060   1.306  10.590
 1163SOL    HW1 4049   0.090   1.264  10.671
 1163SOL    HW2 4050   0.051   1.398  10.612
 1164SOL     OW 4051   0.725   0.634  10.364
 1164SOL    HW1 4052   0.799   0.618  10.306
 1164SOL    HW2 4053   0.696   0.722  10.343
 1165SOL     OW 4054   1.736   0.959  11.164
 1165SOL    HW1 4055   1.690   0.897  11.108
 1165SOL    HW2 4056   1.676   0.974  11.237
 1166SOL     OW 4057   0.328   0.055   9.962
 1166SOL    HW1 4058   0.300   0.147   9.963
 1166SOL    HW2 4059   0.290   0.017  10.042
 1167SOL     OW 4060   1.605   0.390   9.692
 1167SOL    HW1 4061   1.569   0.322   9.749
 1167SOL    HW2 4062   1.586   0.472   9.736
 1168SOL     OW 4063   1.029   0.759  10.270
 1168SOL    HW1 4064   1.023   0.777  10.364
 1168SOL    HW2 4065   1.002   0.668  10.260
 1169SOL     OW 4066   0.982   1.566  11.028
 1169SOL    HW1 4067   0.967   1.610  10.944
 1169SOL    HW2 4068   1.026   1.484  11.004
 1170SOL     OW 4069   1.854   1.503  10.914
 1170SOL    HW1 4070   1.871   1.533  10.825
 1170SOL    HW2 4071   1.938   1.515  10.959
 1171SOL     OW 4072   0.352   0.921  11.109
 1171SOL    HW1 4073   0.431   0.941  11.161
 1171SOL    HW2 4074   0.381   0.854  11.048
 1172SOL     OW 4075   1.506   0.275   9.446
 1172SOL    HW1 4076   1.432   0.216   9.458
 1172SOL    HW2 4077   1.520   0.315   9.532
 1173SOL     OW 4078   1.290   0.827   9.340
 1173SOL    HW1 4079   1.332   0.741   9.343
 1173SOL    HW2 4080   1.322   0.866   9.258
 1174SOL     OW 4081   1.066   1.336  10.165
 1174SOL    HW1 4082   1.070   1.264  10.102
 1174SOL    HW2 4083   1.127   1.401  10.130
 1175SOL     OW 4084   0.313   0.804  10.260
 1175SOL    HW1 4085   0.407   0.820  10.254
 1175SOL    HW2 4086   0.307   0.714  10.292
 1176SOL     OW 4087   0.338   0.528  10.324
 1176SOL    HW1 4088   0.297   0.443  10.306
 1176SOL    HW2 4089   0.413   0.532  10.265
 1177SOL     OW 4090   1.133   0.381  11.006
 1177SOL    HW1 4091   1.085   0.436  11.067
 1177SOL    HW2 4092   1.220   0.421  11.001
 1178SOL     OW 4093   1.151   0.225  10.791
 1178SOL    HW1 4094   1.142   0.280  10.869
 1178SOL    HW2 4095   1.175   0.286  10.722
 1179SOL     OW 4096   4.000   1.318   9.492
 1179SOL    HW1 4097   3.906   1.334   9.496
 1179SOL    HW2 4098   0.009   1.225   9.511
 1180SOL     OW 4099   0.077   1.800  10.199
 1180SOL    HW1 4100   0.081   1.705  10.204
 1180SOL    HW2 4101   0.168   1.828  10.203
 1181SOL     OW 4102   0.502   1.571  10.221
 1181SOL    HW1 4103   0.571   1.632  10.246
 1181SOL    HW2 4104   0.545   1.508  10.163
 1182SOL     OW 4105   0.980   0.790  10.535
 1182SOL    HW1 4106   1.036   0.769  10.610
 1182SOL    HW2 4107   0.895   0.752  10.557
 1183SOL     OW 4108   0.035   0.571  10.423
 1183SOL    HW1 4109   0.099   0.521  10.372
 1183SOL    HW2 4110   0.061   0.558  10.514
 1184SOL     OW 4111   0.210   0.516  11.032
 1184SOL    HW1 4112   0.258   0.478  10.958
 1184SOL    HW2 4113   0.162   0.590  10.994
 1185SOL     OW 4114   1.378   0.938  10.968
 1185SOL    HW1 4115   1.399   1.031  10.965
 1185SOL    HW2 4116   1.375   0.911  10.876
 1186SOL     OW 4117   0.818   0.572   9.671
 1186SOL    HW1 4118   0.824   0.495   9.613
 1186SOL    HW2 4119   0.743   0.621   9.637
 1187SOL     OW 4120   1.641   0.602  10.495
 1187SOL    HW1 4121   1.631   0.541  10.568
 1187SOL    HW2 4122   1.728   0.584  10.460
 1188SOL     OW 4123   0.299   1.545  11.037
 1188SOL    HW1 4124   0.250   1.614  11.081
 1188SOL    HW2 4125   0.267   1.464  11.077
 1189SOL     OW 4126   0.706   0.455  10.568
 1189SOL    HW1 4127   0.657   0.377  10.542
 1189SOL    HW2 4128   0.698   0.514  10.493
 1190SOL     OW 4129   0.926   1.679  10.779
 1190SOL    HW1 4130   0.901   1.643  10.694
 1190SOL    HW2 4131   0.921   1.774  10.767
 1191SOL     OW 4132   0.455   0.492   9.506
 1191SOL    HW1 4133   0.519   0.561   9.523
 1191SOL    HW2 4134   0.375   0.539   9.483
 1192SOL     OW 4135   0.156   1.135  10.784
 1192SOL    HW1 4136   0.158   1.084  10.865
 1192SOL    HW2 4137   0.171   1.071  10.714
 1193SOL     OW 4138   1.324   1.046  10.533
 1193SOL    HW1 4139   1.348   0.983  10.465
 1193SOL    HW2 4140   1.255   1.099  10.493
 1194SOL     OW 4141   1.313   0.856   9.615
 1194SOL    HW1 4142   1.237   0.827   9.667
 1194SOL    HW2 4143   1.287   0.843   9.524
 1195SOL     OW 4144   1.743   1.736  10.447
 1195SOL    HW1 4145   1.819   1.759  10.394
 1195SOL    HW2 4146   1.729   1.643  10.430
 1196SOL     OW 4147   1.243   1.734  10.420
 1196SOL    HW1 4148   1.326   1.755  10.377
 1196SOL    HW2 4149   1.249   1.640  10.439
 1197SOL     OW 4150   0.077   1.217  10.337
 1197SOL    HW1 4151   0.083   1.243  10.429
 1197SOL    HW2 4152   3.984   1.226  10.316
 1198SOL     OW 4153   0.679   1.667  11.042
 1198SOL    HW1 4154   0.622   1.743  11.034
 1198SOL    HW2 4155   0.745   1.679  10.973
 1199SOL     OW 4156   1.712   0.125   9.797
 1199SOL    HW1 4157   1.792   0.134   9.744
 1199SOL    HW2 4158   1.704   0.031   9.812
 1200SOL     OW 4159   1.390   1.568   9.796
 1200SOL    HW1 4160   1.446   1.601   9.726
 1200SOL    HW2 4161   1.341   1.644   9.825
 1201SOL     OW 4162   0.174   1.765  11.139
 1201SOL    HW1 4163   0.116   1.715  11.197
 1201SOL    HW2 4164   0.215   1.830  11.196
 1202SOL     OW 4165   1.277   0.927   9.981
 1202SOL    HW1 4166   1.351   0.867   9.991
 1202SOL    HW2 4167   1.311   0.999   9.928
 1203SOL     OW 4168   0.812   1.273  10.739
 1203SOL    HW1 4169   0.784   1.314  10.821
 1203SOL    HW2 4170   0.742   1.292  10.677
 1204SOL     OW 4171   0.670   1.621   9.465
 1204SOL    HW1 4172   0.681   1.633   9.371
 1204SOL    HW2 4173   0.615   1.543   9.473
 1205SOL     OW 4174   1.623   1.729  10.700
 1205SOL    HW1 4175   1.668   1.734  10.616
 1205SOL    HW2 4176   1.611   1.820  10.728
 1206SOL     OW 4177   1.839   0.177  10.277
 1206SOL    HW1 4178   1.871   0.108  10.220
 1206SOL    HW2 4179   1.751   0.196  10.245
 1207SOL     OW 4180   0.274   0.323  10.025
 1207SOL    HW1 4181   0.188   0.358   9.999
 1207SOL    HW2 4182   0.266   0.306  10.118
 1208SOL     OW 4183   1.207   1.605   9.342
 1208SOL    HW1 4184   1.197   1.513   9.368
 1208SOL    HW2 4185   1.141   1.617   9.272
 1209SOL     OW 4186   0.823   1.005  10.683
 1209SOL    HW1 4187   0.867   1.001  10.598
 1209SOL    HW2 4188   0.823   1.099  10.704
 1210SOL     OW 4189   0.915   0.910   9.600
 1210SOL    HW1 4190   0.977   0.943   9.534
 1210SOL    HW2 4191   0.963   0.841   9.646
 1211SOL     OW 4192   1.488   1.623   9.350
 1211SOL    HW1 4193   1.393   1.618   9.334
 1211SOL    HW2 4194   1.526   1.630   9.263
 1212SOL     OW 4195   0.374   1.303  10.802
 1212SOL    HW1 4196   0.359   1.383  10.751
 1212SOL    HW2 4197   0.297   1.248  10.784
 1213SOL     OW 4198   1.609   1.282  10.591
 1213SOL    HW1 4199   1.670   1.271  10.663
 1213SOL    HW2 4200   1.550   1.351  10.620
 1214SOL     OW 4201   1.054   1.108  10.017
 1214SOL    HW1 4202   0.983   1.057  10.056
 1214SOL    HW2 4203   1.117   1.043   9.987
 1215SOL     OW 4204   1.014   0.249  10.279
 1215SOL    HW1 4205   1.004   0.198  10.198
 1215SOL    HW2 4206   1.009   0.183  10.349
 1216SOL     OW 4207   0.605   1.489   9.792
 1216SOL    HW1 4208   0.650   1.439   9.724
 1216SOL    HW2 4209   0.532   1.531   9.746
 1217SOL     OW 4210   1.720   0.393  10.683
 1217SOL    HW1 4211   1.792   0.456  10.687
 1217SOL    HW2 4212   1.753   0.321  10.629
 1218SOL     OW 4213   0.253   1.341   9.603
 1218SOL    HW1 4214   0.160   1.350   9.583
 1218SOL    HW2 4215   0.263   1.380   9.690
 1219SOL     OW 4216   0.107   1.000  11.028
 1219SOL    HW1 4217   0.046   0.991  11.101
 1219SOL    HW2 4218   0.193   0.980  11.065
 1220SOL     OW 4219   0.694   0.250  10.809
 1220SOL    HW1 4220   0.762   0.197  10.768
 1220SOL    HW2 4221   0.722   0.259  10.900
 1221SOL     OW 4222   0.088   0.323   9.337
 1221SOL    HW1 4223   3.993   0.320   9.331
 1221SOL    HW2 4224   0.112   0.406   9.295
 1222SOL     OW 4225   1.428   0.857  10.709
 1222SOL    HW1 4226   1.380   0.919  10.654
 1222SOL    HW2 4227   1.517   0.860  10.675
 1223SOL     OW 4228   0.038   0.166   9.594
 1223SOL    HW1 4229   0.036   0.235   9.528
 1223SOL    HW2 4230   0.116   0.184   9.647
 1224SOL     OW 4231   1.178   1.339   9.427
 1224SOL    HW1 4232   1.088   1.308   9.429
 1224SOL    HW2 4233   1.206   1.339   9.519
 1225SOL     OW 4234   0.620   0.829  10.746
 1225SOL    HW1 4235   0.676   0.905  10.730
 1225SOL    HW2 4236   0.680   0.755  10.754
 1226SOL     OW 4237   1.489   1.783  10.292
 1226SOL    HW1 4238   1.511   1.847  10.225
 1226SOL    HW2 4239   1.571   1.765  10.337
 1227SOL     OW 4240   0.717   0.563  11.017
 1227SOL    HW1 4241   0.761   0.625  11.075
 1227SOL    HW2 4242   0.746   0.477  11.048
 1228SOL     OW 4243   1.472   1.199  10.941
 1228SOL    HW1 4244   1.460   1.213  11.035
 1228SOL    HW2 4245   1.565   1.215  10.926
 1229SOL     OW 4246   0.379   1.742  10.868
 1229SOL    HW1 4247   0.292   1.780  10.855
 1229SOL    HW2 4248   0.363   1.661  10.915
 1230SOL     OW 4249   1.668   0.881  10.566
 1230SOL    HW1 4250   1.663   0.796  10.523
 1230SOL    HW2 4251   1.659   0.944  10.494
 1231SOL     OW 4252   1.224   0.335   9.754
 1231SOL    HW1 4253   1.291   0.267   9.746
 1231SOL    HW2 4254   1.244   0.380   9.836
 1232SOL     OW 4255   0.591   0.739   9.980
 1232SOL    HW1 4256   0.628   0.825   9.964
 1232SOL    HW2 4257   0.523   0.729   9.914
 1233SOL     OW 4258   1.752   0.383  10.953
 1233SOL    HW1 4259   1.734   0.388  10.859
 1233SOL    HW2 4260   1.695   0.313  10.984
 1234SOL     OW 4261   1.745   0.934  10.822
 1234SOL    HW1 4262   1.740   1.029  10.835
 1234SOL    HW2 4263   1.729   0.921  10.729
 1235SOL     OW 4264   0.863   1.366   9.346
 1235SOL    HW1 4265   0.824   1.395   9.429
 1235SOL    HW2 4266   0.880   1.448   9.298
 1236SOL     OW 4267   0.662   1.789  10.253
 1236SOL    HW1 4268   0.642   1.880  10.231
 1236SOL    HW2 4269   0.757   1.784  10.246
 1237SOL     OW 4270   0.868   0.967  10.164
 1237SOL    HW1 4271   0.918   0.896  10.203
 1237SOL    HW2 4272   0.832   1.015  10.239
 1238SOL     OW 4273   1.078   0.989   9.399
 1238SOL    HW1 4274   1.057   1.039   9.321
 1238SOL    HW2 4275   1.153   0.935   9.372
 1239SOL     OW 4276   1.846   1.542  10.145
 1239SOL    HW1 4277   1.763   1.540  10.098
 1239SOL    HW2 4278   1.834   1.482  10.218
 1240SOL     OW 4279   0.225   1.303  11.166
 1240SOL    HW1 4280   0.153   1.246  11.139
 1240SOL    HW2 4281   0.211   1.317  11.260
 1241SOL     OW 4282   0.118   1.277  10.030
 1241SOL    HW1 4283   0.130   1.227  10.110
 1241SOL    HW2 4284   0.107   1.212   9.961
 1242SOL     OW 4285   0.681   1.404  10.939
 1242SOL    HW1 4286   0.601   1.361  10.969
 1242SOL    HW2 4287   0.677   1.492  10.976
 1243SOL     OW 4288   1.812   0.183  10.549
 1243SOL    HW1 4289   1.815   0.089  10.563
 1243SOL    HW2 4290   1.827   0.194  10.455
 1244SOL     OW 4291   0.443   0.437   9.841
 1244SOL    HW1 4292   0.458   0.362   9.784
 1244SOL    HW2 4293   0.388   0.403   9.911
 1245SOL     OW 4294   1.702   1.476  10.399
 1245SOL    HW1 4295   1.619   1.457  10.356
 1245SOL    HW2 4296   1.709   1.409  10.467
 1246SOL     OW 4297   0.332   0.556  10.602
 1246SOL    HW1 4298   0.388   0.500  10.655
 1246SOL    HW2 4299   0.347   0.528  10.512
 1247SOL     OW 4300   0.828   1.578   9.987
 1247SOL    HW1 4301   0.814   1.637   9.912
 1247SOL    HW2 4302   0.752   1.520   9.986
 1248SOL     OW 4303   1.461   0.253  10.421
 1248SOL    HW1 4304   1.478   0.166  10.457
 1248SOL    HW2 4305   1.405   0.295  10.485
 1249SOL     OW 4306   1.004   0.029  10.457
 1249SOL    HW1 4307   0.926   3.986  10.422
 1249SOL    HW2 4308   1.068   3.958  10.465
 1250SOL     OW 4309   0.772   1.333   9.626
 1250SOL    HW1 4310   0.742   1.242   9.632
 1250SOL    HW2 4311   0.854   1.334   9.675
 1251SOL     OW 4312   0.620   1.557  10.595
 1251SOL    HW1 4313   0.622   1.639  10.645
 1251SOL    HW2 4314   0.708   1.549  10.558
 1252SOL     OW 4315   1.312   0.074   9.474
 1252SOL    HW1 4316   1.327   3.998   9.418
 1252SOL    HW2 4317   1.227   0.058   9.514
 1253SOL     OW 4318   1.283   0.457   9.996
 1253SOL    HW1 4319   1.236   0.540   9.991
 1253SOL    HW2 4320   1.286   0.437  10.089
 1254SOL     OW 4321   1.588   0.210  10.178
 1254SOL    HW1 4322   1.539   0.234  10.256
 1254SOL    HW2 4323   1.588   0.290  10.124
 1255SOL     OW 4324   0.047   1.050   9.550
 1255SOL    HW1 4325   0.141   1.033   9.541
 1255SOL    HW2 4326   0.011   0.967   9.583
 1256SOL     OW 4327   0.886   1.655   9.651
 1256SOL    HW1 4328   0.812   1.638   9.592
 1256SOL    HW2 4329   0.857   1.729   9.704
 1257SOL     OW 4330   0.233   0.627  11.290
 1257SOL    HW1 4331   0.139   0.631  11.312
 1257SOL    HW2 4332   0.234   0.597  11.199
 1258SOL     OW 4333   0.224   0.288  12.155
 1258SOL    HW1 4334   0.247   0.250  12.239
 1258SOL    HW2 4335   0.130   0.276  12.148
 1259SOL     OW 4336   0.018   0.386  11.807
 1259SOL    HW1 4337   3.928   0.398  11.838
 1259SOL    HW2 4338   0.026   0.292  11.791
 1260SOL     OW 4339   0.579   1.286  12.360
 1260SOL    HW1 4340   0.492   1.289  12.319
 1260SOL    HW2 4341   0.593   1.375  12.393
 1261SOL     OW 4342   1.565   1.513  11.881
 1261SOL    HW1 4343   1.522   1.494  11.964
 1261SOL    HW2 4344   1.494   1.519  11.817
 1262SOL     OW 4345   1.132   0.698  11.871
 1262SOL    HW1 4346   1.180   0.780  11.858
 1262SOL    HW2 4347   1.085   0.711  11.953
 1263SOL     OW 4348   1.764   0.619  11.398
 1263SOL    HW1 4349   1.743   0.611  11.305
 1263SOL    HW2 4350   1.752   0.530  11.432
 1264SOL     OW 4351   0.755   1.140  12.213
 1264SOL    HW1 4352   0.690   1.175  12.274
 1264SOL    HW2 4353   0.790   1.217  12.168
 1265SOL     OW 4354   0.869   0.773  12.995
 1265SOL    HW1 4355   0.858   0.845  13.057
 1265SOL    HW2 4356   0.892   0.815  12.912
 1266SOL     OW 4357   0.686   1.003  11.818
 1266SOL    HW1 4358   0.751   0.991  11.887
 1266SOL    HW2 4359   0.616   1.054  11.860
 1267SOL     OW 4360   0.711   1.149  12.986
 1267SOL    HW1 4361   0.759   1.228  13.014
 1267SOL    HW2 4362   0.629   1.183  12.950
 1268SOL     OW 4363   0.351   1.402  12.251
 1268SOL    HW1 4364   0.270   1.382  12.204
 1268SOL    HW2 4365   0.399   1.460  12.192
 1269SOL     OW 4366   1.461   1.501  12.528
 1269SOL    HW1 4367   1.513   1.580  12.536
 1269SOL    HW2 4368   1.398   1.505  12.599
 1270SOL     OW 4369   0.456   0.408  12.670
 1270SOL    HW1 4370   0.537   0.357  12.667
 1270SOL    HW2 4371   0.386   0.342  12.672
 1271SOL     OW 4372   1.612   0.451  11.907
 1271SOL    HW1 4373   1.541   0.482  11.851
 1271SOL    HW2 4374   1.632   0.525  11.964
 1272SOL     OW 4375   0.221   1.718  11.630
 1272SOL    HW1 4376   0.240   1.793  11.687
 1272SOL    HW2 4377   0.299   1.710  11.574
 1273SOL     OW 4378   1.137   1.342  12.865
 1273SOL    HW1 4379   1.178   1.336  12.951
 1273SOL    HW2 4380   1.085   1.262  12.858
 1274SOL     OW 4381   0.248   1.449  11.712
 1274SOL    HW1 4382   0.215   1.538  11.698
 1274SOL    HW2 4383   0.181   1.406  11.763
 1275SOL     OW 4384   0.247   1.067  12.057
 1275SOL    HW1 4385   0.266   0.982  12.096
 1275SOL    HW2 4386   0.194   1.113  12.122
 1276SOL     OW 4387   0.611   1.792  12.600
 1276SOL    HW1 4388   0.529   1.774  12.645
 1276SOL    HW2 4389   0.634   1.881  12.626
 1277SOL     OW 4390   0.579   0.985  11.310
 1277SOL    HW1 4391   0.626   1.030  11.240
 1277SOL    HW2 4392   0.621   1.014  11.390
 1278SOL     OW 4393   1.579   0.139  12.628
 1278SOL    HW1 4394   1.608   0.212  12.573
 1278SOL    HW2 4395   1.550   0.180  12.709
 1279SOL     OW 4396   0.140   0.651  11.742
 1279SOL    HW1 4397   0.097   0.565  11.746
 1279SOL    HW2 4398   0.102   0.701  11.814
 1280SOL     OW 4399   0.044   1.590  11.311
 1280SOL    HW1 4400   0.035   1.498  11.335
 1280SOL    HW2 4401   3.962   1.630  11.341
 1281SOL     OW 4402   1.687   0.916  11.813
 1281SOL    HW1 4403   1.772   0.876  11.794
 1281SOL    HW2 4404   1.667   0.969  11.735
 1282SOL     OW 4405   1.647   1.106  11.601
 1282SOL    HW1 4406   1.734   1.111  11.560
 1282SOL    HW2 4407   1.652   1.168  11.674
 1283SOL     OW 4408   0.138   0.755  12.761
 1283SOL    HW1 4409   0.234   0.750  12.758
 1283SOL    HW2 4410   0.120   0.845  12.789
 1284SOL     OW 4411   0.613   1.386  11.908
 1284SOL    HW1 4412   0.567   1.303  11.917
 1284SOL    HW2 4413   0.597   1.412  11.817
 1285SOL     OW 4414   1.288   1.238  12.595
 1285SOL    HW1 4415   1.320   1.170  12.535
 1285SOL    HW2 4416   1.346   1.232  12.671
 1286SOL     OW 4417   0.819   0.003  11.687
 1286SOL    HW1 4418   0.864   0.084  11.664
 1286SOL    HW2 4419   0.726   0.027  11.688
 1287SOL     OW 4420   0.184   0.951  12.449
 1287SOL    HW1 4421   0.272   0.916  12.437
 1287SOL    HW2 4422   0.132   0.908  12.382
 1288SOL     OW 4423   1.531   0.995  11.371
 1288SOL    HW1 4424   1.462   0.938  11.404
 1288SOL    HW2 4425   1.573   1.029  11.450
 1289SOL     OW 4426   1.185   1.807  12.795
 1289SOL    HW1 4427   1.195   1.867  12.721
 1289SOL    HW2 4428   1.202   1.721  12.759
 1290SOL     OW 4429   0.342   0.253  13.003
 1290SOL    HW1 4430   0.386   0.337  12.987
 1290SOL    HW2 4431   0.252   0.277  13.025
 1291SOL     OW 4432   1.465   1.419  12.122
 1291SOL    HW1 4433   1.398   1.435  12.188
 1291SOL    HW2 4434   1.452   1.328  12.096
 1292SOL     OW 4435   1.665   1.733  11.729
 1292SOL    HW1 4436   1.630   1.696  11.648
 1292SOL    HW2 4437   1.646   1.667  11.796
 1293SOL     OW 4438   0.596   0.718  11.437
 1293SOL    HW1 4439   0.601   0.802  11.391
 1293SOL    HW2 4440   0.533   0.733  11.507
 1294SOL     OW 4441   1.275   0.367  12.113
 1294SOL    HW1 4442   1.188   0.328  12.119
 1294SOL    HW2 4443   1.332   0.305  12.158
 1295SOL     OW 4444   1.575   1.671  11.471
 1295SOL    HW1 4445   1.663   1.702  11.450
 1295SOL    HW2 4446   1.538   1.646  11.386
 1296SOL     OW 4447   0.794   0.616  12.626
 1296SOL    HW1 4448   0.765   0.591  12.713
 1296SOL    HW2 4449   0.755   0.551  12.568
 1297SOL     OW 4450   1.392   0.476  12.850
 1297SOL    HW1 4451   1.398   0.521  12.934
 1297SOL    HW2 4452   1.451   0.401  12.858
 1298SOL     OW 4453   0.953   0.887  12.755
 1298SOL    HW1 4454   1.008   0.818  12.719
 1298SOL    HW2 4455   0.905   0.922  12.680
 1299SOL     OW 4456   0.991   0.403  12.411
 1299SOL    HW1 4457   0.907   0.425  12.451
 1299SOL    HW2 4458   0.969   0.373  12.323
 1300SOL     OW 4459   1.052   0.699  11.598
 1300SOL    HW1 4460   1.068   0.692  11.692
 1300SOL    HW2 4461   0.969   0.653  11.584
 1301SOL     OW 4462   0.081   0.827  11.963
 1301SOL    HW1 4463   0.156   0.795  12.013
 1301SOL    HW2 4464   0.099   0.920  11.950
 1302SOL     OW 4465   0.130   1.860  12.748
 1302SOL    HW1 4466   0.137   1.826  12.837
 1302SOL    HW2 4467   0.037   1.848  12.725
 1303SOL     OW 4468   0.894   0.352  11.370
 1303SOL    HW1 4469   0.936   0.411  11.307
 1303SOL    HW2 4470   0.893   0.267  11.326
 1304SOL     OW 4471   1.709   0.576  13.000
 1304SOL    HW1 4472   1.671   0.649  12.952
 1304SOL    HW2 4473   1.733   0.513  12.933
 1305SOL     OW 4474   1.378   1.141  11.712
 1305SOL    HW1 4475   1.457   1.130  11.660
 1305SOL    HW2 4476   1.325   1.204  11.662
 1306SOL     OW 4477   0.560   0.195  12.053
 1306SOL    HW1 4478   0.565   0.218  12.146
 1306SOL    HW2 4479   0.547   0.278  12.008
 1307SOL     OW 4480   1.004   1.444  11.643
 1307SOL    HW1 4481   0.968   1.518  11.594
 1307SOL    HW2 4482   0.985   1.465  11.734
 1308SOL     OW 4483   0.365   1.817  12.041
 1308SOL    HW1 4484   0.429   1.746  12.049
 1308SOL    HW2 4485   0.415   1.897  12.057
 1309SOL     OW 4486   1.799   1.052  12.042
 1309SOL    HW1 4487   1.745   1.039  11.965
 1309SOL    HW2 4488   1.737   1.060  12.114
 1310SOL     OW 4489   1.228   1.539  12.685
 1310SOL    HW1 4490   1.214   1.466  12.746
 1310SOL    HW2 4491   1.164   1.524  12.615
 1311SOL     OW 4492   0.310   0.954  11.414
 1311SOL    HW1 4493   0.394   0.977  11.374
 1311SOL    HW2 4494   0.297   0.862  11.392
 1312SOL     OW 4495   1.478   0.746  11.902
 1312SOL    HW1 4496   1.473   0.703  11.987
 1312SOL    HW2 4497   1.556   0.801  11.908
 1313SOL     OW 4498   0.467   1.260  12.909
 1313SOL    HW1 4499   0.441   1.268  12.817
 1313SOL    HW2 4500   0.385   1.264  12.958
 1314SOL     OW 4501   1.122   1.777  11.403
 1314SOL    HW1 4502   1.048   1.736  11.448
 1314SOL    HW2 4503   1.145   1.715  11.334
 1315SOL     OW 4504   0.200   0.295  12.671
 1315SOL    HW1 4505   0.107   0.315  12.670
 1315SOL    HW2 4506   0.208   0.225  12.736
 1316SOL     OW 4507   1.628   1.380  11.259
 1316SOL    HW1 4508   1.587   1.465  11.243
 1316SOL    HW2 4509   1.559   1.316  11.240
 1317SOL     OW 4510   0.466   1.739  11.489
 1317SOL    HW1 4511   0.509   1.796  11.553
 1317SOL    HW2 4512   0.538   1.704  11.436
 1318SOL     OW 4513   1.440   0.164  11.577
 1318SOL    HW1 4514   1.394   0.097  11.525
 1318SOL    HW2 4515   1.512   0.117  11.618
 1319SOL     OW 4516   0.251   1.791  12.404
 1319SOL    HW1 4517   0.298   1.727  12.457
 1319SOL    HW2 4518   0.248   1.752  12.316
 1320SOL     OW 4519   0.938   1.699  12.070
 1320SOL    HW1 4520   1.017   1.649  12.091
 1320SOL    HW2 4521   0.895   1.649  12.001
 1321SOL     OW 4522   0.396   0.694  11.643
 1321SOL    HW1 4523   0.423   0.603  11.658
 1321SOL    HW2 4524   0.304   0.697  11.669
 1322SOL     OW 4525   1.530   0.230  12.898
 1322SOL    HW1 4526   1.528   0.255  12.990
 1322SOL    HW2 4527   1.508   0.136  12.898
 1323SOL     OW 4528   0.644   0.132  11.274
 1323SOL    HW1 4529   0.670   0.049  11.315
 1323SOL    HW2 4530   0.583   0.106  11.205
 1324SOL     OW 4531   0.777   0.283  12.937
 1324SOL    HW1 4532   0.848   0.219  12.940
 1324SOL    HW2 4533   0.719   0.258  13.010
 1325SOL     OW 4534   0.875   1.521  12.366
 1325SOL    HW1 4535   0.860   1.485  12.279
 1325SOL    HW2 4536   0.946   1.468  12.403
 1326SOL     OW 4537   1.340   0.587  12.603
 1326SOL    HW1 4538   1.371   0.558  12.689
 1326SOL    HW2 4539   1.375   0.676  12.593
 1327SOL     OW 4540   0.815   1.394  12.112
 1327SOL    HW1 4541   0.900   1.382  12.070
 1327SOL    HW2 4542   0.753   1.395  12.040
 1328SOL     OW 4543   0.929   0.512  12.073
 1328SOL    HW1 4544   0.905   0.503  11.981
 1328SOL    HW2 4545   0.956   0.423  12.099
 1329SOL     OW 4546   0.546   0.056  11.660
 1329SOL    HW1 4547   0.472   0.064  11.720
 1329SOL    HW2 4548   0.548   0.140  11.614
 1330SOL     OW 4549   1.427   1.198  11.213
 1330SOL    HW1 4550   1.458   1.123  11.263
 1330SOL    HW2 4551   1.342   1.219  11.250
 1331SOL     OW 4552   0.341   0.040  11.369
 1331SOL    HW1 4553   0.361   0.086  11.287
 1331SOL    HW2 4554   0.425   0.034  11.414
 1332SOL     OW 4555   0.941   0.248  11.634
 1332SOL    HW1 4556   0.914   0.289  11.551
 1332SOL    HW2 4557   1.036   0.252  11.633
 1333SOL     OW 4558   1.079   0.682  12.631
 1333SOL    HW1 4559   1.009   0.617  12.637
 1333SOL    HW2 4560   1.160   0.631  12.625
 1334SOL     OW 4561   1.222   1.571  11.967
 1334SOL    HW1 4562   1.238   1.637  11.900
 1334SOL    HW2 4563   1.292   1.584  12.031
 1335SOL     OW 4564   0.466   1.150  11.909
 1335SOL    HW1 4565   0.394   1.126  11.967
 1335SOL    HW2 4566   0.432   1.135  11.821
 1336SOL     OW 4567   1.266   1.793  11.780
 1336SOL    HW1 4568   1.311   1.856  11.724
 1336SOL    HW2 4569   1.200   1.845  11.826
 1337SOL     OW 4570   1.023   0.544  11.199
 1337SOL    HW1 4571   0.979   0.627  11.179
 1337SOL    HW2 4572   1.086   0.566  11.267
 1338SOL     OW 4573   0.080   0.572  12.565
 1338SOL    HW1 4574   0.169   0.554  12.535
 1338SOL    HW2 4575   0.090   0.644  12.628
 1339SOL     OW 4576   0.572   0.231  12.332
 1339SOL    HW1 4577   0.595   0.139  12.340
 1339SOL    HW2 4578   0.481   0.237  12.362
 1340SOL     OW 4579   0.871   0.462  11.811
 1340SOL    HW1 4580   0.820   0.514  11.749
 1340SOL    HW2 4581   0.890   0.380  11.764
 1341SOL     OW 4582   0.996   0.041  11.952
 1341SOL    HW1 4583   0.960   0.068  11.867
 1341SOL    HW2 4584   1.006   3.946  11.944
 1342SOL     OW 4585   1.438   1.162  12.029
 1342SOL    HW1 4586   1.368   1.096  12.027
 1342SOL    HW2 4587   1.463   1.173  11.938
 1343SOL     OW 4588   1.465   0.606  12.148
 1343SOL    HW1 4589   1.412   0.526  12.153
 1343SOL    HW2 4590   1.525   0.599  12.222
 1344SOL     OW 4591   1.845   0.819  11.558
 1344SOL    HW1 4592   1.902   0.766  11.614
 1344SOL    HW2 4593   1.815   0.758  11.491
 1345SOL     OW 4594   0.488   1.419  11.332
 1345SOL    HW1 4595   0.412   1.388  11.382
 1345SOL    HW2 4596   0.471   1.390  11.243
 1346SOL     OW 4597   1.670   1.264  11.818
 1346SOL    HW1 4598   1.764   1.264  11.831
 1346SOL    HW2 4599   1.642   1.353  11.839
 1347SOL     OW 4600   1.395   0.575  11.242
 1347SOL    HW1 4601   1.332   0.556  11.311
 1347SOL    HW2 4602   1.480   0.555  11.280
 1348SOL     OW 4603   0.558   0.271  11.491
 1348SOL    HW1 4604   0.603   0.231  11.416
 1348SOL    HW2 4605   0.528   0.356  11.458
 1349SOL     OW 4606   1.752   1.240  12.744
 1349SOL    HW1 4607   1.839   1.201  12.738
 1349SOL    HW2 4608   1.767   1.330  12.772
 1350SOL     OW 4609   1.057   1.354  12.505
 1350SOL    HW1 4610   0.983   1.322  12.556
 1350SOL    HW2 4611   1.133   1.312  12.546
 1351SOL     OW 4612   1.608   1.625  12.826
 1351SOL    HW1 4613   1.602   1.662  12.738
 1351SOL    HW2 4614   1.691   1.579  12.827
 1352SOL     OW 4615   1.130   1.205  12.277
 1352SOL    HW1 4616   1.071   1.242  12.342
 1352SOL    HW2 4617   1.098   1.237  12.193
 1353SOL     OW 4618   1.626   1.097  12.249
 1353SOL    HW1 4619   1.621   1.159  12.322
 1353SOL    HW2 4620   1.548   1.115  12.196
 1354SOL     OW 4621   0.913   0.114  12.573
 1354SOL    HW1 4622   0.933   0.088  12.483
 1354SOL    HW2 4623   0.993   0.155  12.604
 1355SOL     OW 4624   0.984   1.115  12.895
 1355SOL    HW1 4625   0.892   1.131  12.917
 1355SOL    HW2 4626   0.982   1.037  12.840
 1356SOL     OW 4627   0.708   1.061  11.543
 1356SOL    HW1 4628   0.694   1.045  11.636
 1356SOL    HW2 4629   0.784   1.008  11.520
 1357SOL     OW 4630   0.422   0.816  12.424
 1357SOL    HW1 4631   0.490   0.823  12.491
 1357SOL    HW2 4632   0.387   0.728  12.434
 1358SOL     OW 4633   1.266   0.375  12.448
 1358SOL    HW1 4634   1.300   0.452  12.493
 1358SOL    HW2 4635   1.179   0.401  12.418
 1359SOL     OW 4636   0.065   1.580  12.518
 1359SOL    HW1 4637   0.070   1.640  12.444
 1359SOL    HW2 4638   0.156   1.566  12.544
 1360SOL     OW 4639   0.373   1.103  11.656
 1360SOL    HW1 4640   0.366   1.181  11.601
 1360SOL    HW2 4641   0.371   1.030  11.594
 1361SOL     OW 4642   0.555   0.536  12.031
 1361SOL    HW1 4643   0.570   0.594  11.956
 1361SOL    HW2 4644   0.621   0.563  12.095
 1362SOL     OW 4645   1.248   1.348  11.561
 1362SOL    HW1 4646   1.303   1.419  11.593
 1362SOL    HW2 4647   1.160   1.369  11.595
 1363SOL     OW 4648   1.283   1.459  12.320
 1363SOL    HW1 4649   1.339   1.462  12.397
 1363SOL    HW2 4650   1.228   1.381  12.333
 1364SOL     OW 4651   1.576   0.633  11.658
 1364SOL    HW1 4652   1.534   0.691  11.721
 1364SOL    HW2 4653   1.623   0.692  11.599
 1365SOL     OW 4654   0.345   1.526  12.491
 1365SOL    HW1 4655   0.336   1.476  12.410
 1365SOL    HW2 4656   0.440   1.542  12.498
 1366SOL     OW 4657   0.415   0.738  12.773
 1366SOL    HW1 4658   0.477   0.784  12.716
 1366SOL    HW2 4659   0.454   0.652  12.786
 1367SOL     OW 4660   1.602   0.780  12.856
 1367SOL    HW1 4661   1.516   0.821  12.848
 1367SOL    HW2 4662   1.655   0.821  12.787
 1368SOL     OW 4663   1.013   0.130  12.950
 1368SOL    HW1 4664   1.062   0.204  12.914
 1368SOL    HW2 4665   1.005   0.068  12.878
 1369SOL     OW 4666   0.480   0.036  12.939
 1369SOL    HW1 4667   0.491   0.044  12.844
 1369SOL    HW2 4668   0.419   0.107  12.962
 1370SOL     OW 4669   0.585   0.874  12.203
 1370SOL    HW1 4670   0.615   0.965  12.204
 1370SOL    HW2 4671   0.528   0.867  12.281
 1371SOL     OW 4672   1.355   0.858  12.200
 1371SOL    HW1 4673   1.272   0.847  12.155
 1371SOL    HW2 4674   1.398   0.773  12.194
 1372SOL     OW 4675   1.202   0.536  11.432
 1372SOL    HW1 4676   1.211   0.457  11.485
 1372SOL    HW2 4677   1.158   0.599  11.490
 1373SOL     OW 4678   0.312   0.213  12.413
 1373SOL    HW1 4679   0.269   0.249  12.491
 1373SOL    HW2 4680   0.295   0.119  12.417
 1374SOL     OW 4681   0.060   1.306  12.452
 1374SOL    HW1 4682   0.091   1.264  12.533
 1374SOL    HW2 4683   0.051   1.398  12.474
 1375SOL     OW 4684   0.726   0.634  12.227
 1375SOL    HW1 4685   0.800   0.618  12.168
 1375SOL    HW2 4686   0.696   0.722  12.205
 1376SOL     OW 4687   1.736   0.959  13.027
 1376SOL    HW1 4688   1.690   0.897  12.970
 1376SOL    HW2 4689   1.676   0.973  13.099
 1377SOL     OW 4690   0.328   0.055  11.824
 1377SOL    HW1 4691   0.300   0.147  11.825
 1377SOL    HW2 4692   0.290   0.017  11.904
 1378SOL     OW 4693   1.605   0.390  11.554
 1378SOL    HW1 4694   1.569   0.322  11.611
 1378SOL    HW2 4695   1.586   0.472  11.598
 1379SOL     OW 4696   1.029   0.759  12.132
 1379SOL    HW1 4697   1.023   0.777  12.226
 1379SOL    HW2 4698   1.002   0.668  12.122
 1380SOL     OW 4699   0.982   1.566  12.890
 1380SOL    HW1 4700   0.967   1.610  12.806
 1380SOL    HW2 4701   1.026   1.484  12.866
 1381SOL     OW 4702   1.854   1.503  12.777
 1381SOL    HW1 4703   1.870   1.533  12.687
 1381SOL    HW2 4704   1.938   1.515  12.821
 1382SOL     OW 4705   0.352   0.920  12.972
 1382SOL    HW1 4706   0.431   0.941  13.023
 1382SOL    HW2 4707   0.380   0.853  12.910
 1383SOL     OW 4708   1.506   0.275  11.308
 1383SOL    HW1 4709   1.432   0.217  11.320
 1383SOL    HW2 4710   1.520   0.315  11.394
 1384SOL     OW 4711   1.290   0.827  11.202
 1384SOL    HW1 4712   1.332   0.741  11.205
 1384SOL    HW2 4713   1.322   0.866  11.120
 1385SOL     OW 4714   1.066   1.336  12.027
 1385SOL    HW1 4715   1.070   1.264  11.964
 1385SOL    HW2 4716   1.127   1.401  11.992
 1386SOL     OW 4717   0.313   0.804  12.123
 1386SOL    HW1 4718   0.407   0.820  12.116
 1386SOL    HW2 4719   0.307   0.714  12.154
 1387SOL     OW 4720   0.338   0.528  12.186
 1387SOL    HW1 4721   0.297   0.443  12.168
 1387SOL    HW2 4722   0.413   0.532  12.128
 1388SOL     OW 4723   1.133   0.381  12.868
 1388SOL    HW1 4724   1.085   0.436  12.929
 1388SOL    HW2 4725   1.220   0.421  12.863
 1389SOL     OW 4726   1.151   0.225  12.653
 1389SOL    HW1 4727   1.142   0.280  12.731
 1389SOL    HW2 4728   1.175   0.286  12.584
 1390SOL     OW 4729   4.000   1.318  11.354
 1390SOL    HW1 4730   3.906   1.334  11.358
 1390SOL    HW2 4731   0.009   1.225  11.373
 1391SOL     OW 4732   0.077   1.800  12.061
 1391SOL    HW1 4733   0.081   1.705  12.066
 1391SOL    HW2 4734   0.168   1.828  12.065
 1392SOL     OW 4735   0.502   1.571  12.083
 1392SOL    HW1 4736   0.571   1.632  12.108
 1392SOL    HW2 4737   0.545   1.508  12.025
 1393SOL     OW 4738   0.980   0.790  12.397
 1393SOL    HW1 4739   1.036   0.769  12.472
 1393SOL    HW2 4740   0.895   0.752  12.419
 1394SOL     OW 4741   0.035   0.571  12.285
 1394SOL    HW1 4742   0.099   0.521  12.234
 1394SOL    HW2 4743   0.061   0.557  12.376
 1395SOL     OW 4744   0.211   0.516  12.894
 1395SOL    HW1 4745   0.258   0.478  12.820
 1395SOL    HW2 4746   0.162   0.589  12.856
 1396SOL     OW 4747   1.378   0.938  12.829
 1396SOL    HW1 4748   1.399   1.031  12.827
 1396SOL    HW2 4749   1.375   0.911  12.738
 1397SOL     OW 4750   0.818   0.572  11.533
 1397SOL    HW1 4751   0.824   0.495  11.475
 1397SOL    HW2 4752   0.743   0.621  11.499
 1398SOL     OW 4753   1.641   0.602  12.357
 1398SOL    HW1 4754   1.631   0.541  12.430
 1398SOL    HW2 4755   1.728   0.584  12.322
 1399SOL     OW 4756   0.299   1.545  12.899
 1399SOL    HW1 4757   0.250   1.615  12.943
 1399SOL    HW2 4758   0.266   1.464  12.939
 1400SOL     OW 4759   0.706   0.455  12.430
 1400SOL    HW1 4760   0.657   0.377  12.404
 1400SOL    HW2 4761   0.698   0.514  12.355
 1401SOL     OW 4762   0.926   1.679  12.641
 1401SOL    HW1 4763   0.901   1.643  12.556
 1401SOL    HW2 4764   0.921   1.774  12.629
 1402SOL     OW 4765   0.455   0.492  11.368
 1402SOL    HW1 4766   0.519   0.561  11.385
 1402SOL    HW2 4767   0.375   0.539  11.345
 1403SOL     OW 4768   0.156   1.135  12.646
 1403SOL    HW1 4769   0.158   1.084  12.727
 1403SOL    HW2 4770   0.171   1.071  12.576
 1404SOL     OW 4771   1.324   1.046  12.395
 1404SOL    HW1 4772   1.348   0.983  12.327
 1404SOL    HW2 4773   1.255   1.099  12.355
 1405SOL     OW 4774   1.313   0.856  11.477
 1405SOL    HW1 4775   1.237   0.827  11.529
 1405SOL    HW2 4776   1.287   0.843  11.386
 1406SOL     OW 4777   1.743   1.735  12.309
 1406SOL    HW1 4778   1.818   1.758  12.255
 1406SOL    HW2 4779   1.728   1.642  12.292
 1407SOL     OW 4780   1.243   1.734  12.282
 1407SOL    HW1 4781   1.326   1.755  12.239
 1407SOL    HW2 4782   1.249   1.640  12.301
 1408SOL     OW 4783   0.077   1.217  12.199
 1408SOL    HW1 4784   0.083   1.243  12.291
 1408SOL    HW2 4785   3.984   1.226  12.178
 1409SOL     OW 4786   0.679   1.667  12.904
 1409SOL    HW1 4787   0.622   1.743  12.897
 1409SOL    HW2 4788   0.745   1.680  12.835
 1410SOL     OW 4789   1.712   0.125  11.659
 1410SOL    HW1 4790   1.792   0.134  11.606
 1410SOL    HW2 4791   1.704   0.031  11.674
 1411SOL     OW 4792   1.390   1.568  11.658
 1411SOL    HW1 4793   1.446   1.601  11.588
 1411SOL    HW2 4794   1.341   1.644  11.687
 1412SOL     OW 4795   0.173   1.765  13.002
 1412SOL    HW1 4796   0.116   1.714  13.060
 1412SOL    HW2 4797   0.216   1.828  13.059
 1413SOL     OW 4798   1.277   0.927  11.843
 1413SOL    HW1 4799   1.351   0.867  11.853
 1413SOL    HW2 4800   1.311   0.999  11.790
 1414SOL     OW 4801   0.812   1.273  12.601
 1414SOL    HW1 4802   0.784   1.314  12.683
 1414SOL    HW2 4803   0.742   1.292  12.539
 1415SOL     OW 4804   0.670   1.621  11.327
 1415SOL    HW1 4805   0.681   1.633  11.233
 1415SOL    HW2 4806   0.615   1.543  11.336
 1416SOL     OW 4807   1.623   1.729  12.563
 1416SOL    HW1 4808   1.668   1.734  12.478
 1416SOL    HW2 4809   1.611   1.820  12.590
 1417SOL     OW 4810   1.839   0.177  12.139
 1417SOL    HW1 4811   1.871   0.107  12.082
 1417SOL    HW2 4812   1.751   0.196  12.107
 1418SOL     OW 4813   0.274   0.323  11.886
 1418SOL    HW1 4814   0.188   0.358  11.861
 1418SOL    HW2 4815   0.266   0.306  11.980
 1419SOL     OW 4816   1.206   1.605  11.204
 1419SOL    HW1 4817   1.197   1.513  11.230
 1419SOL    HW2 4818   1.141   1.617  11.134
 1420SOL     OW 4819   0.823   1.005  12.545
 1420SOL    HW1 4820   0.867   1.000  12.460
 1420SOL    HW2 4821   0.823   1.099  12.566
 1421SOL     OW 4822   0.915   0.910  11.462
 1421SOL    HW1 4823   0.977   0.943  11.396
 1421SOL    HW2 4824   0.963   0.841  11.508
 1422SOL     OW 4825   1.487   1.623  11.212
 1422SOL    HW1 4826   1.393   1.618  11.196
 1422SOL    HW2 4827   1.526   1.630  11.125
 1423SOL     OW 4828   0.373   1.303  12.664
 1423SOL    HW1 4829   0.359   1.383  12.613
 1423SOL    HW2 4830   0.297   1.249  12.646
 1424SOL     OW 4831   1.609   1.282  12.453
 1424SOL    HW1 4832   1.671   1.271  12.525
 1424SOL    HW2 4833   1.549   1.351  12.482
 1425SOL     OW 4834   1.054   1.108  11.879
 1425SOL    HW1 4835   0.983   1.057  11.918
 1425SOL    HW2 4836   1.117   1.043  11.849
 1426SOL     OW 4837   1.014   0.249  12.141
 1426SOL    HW1 4838   1.004   0.198  12.060
 1426SOL    HW2 4839   1.009   0.183  12.211
 1427SOL     OW 4840   0.605   1.489  11.654
 1427SOL    HW1 4841   0.650   1.439  11.586
 1427SOL    HW2 4842   0.532   1.531  11.608
 1428SOL     OW 4843   1.720   0.393  12.545
 1428SOL    HW1 4844   1.792   0.456  12.549
 1428SOL    HW2 4845   1.753   0.321  12.491
 1429SOL     OW 4846   0.253   1.341  11.465
 1429SOL    HW1 4847   0.160   1.350  11.445
 1429SOL    HW2 4848   0.263   1.380  11.552
 1430SOL     OW 4849   0.107   0.999  12.889
 1430SOL    HW1 4850   0.046   0.992  12.963
 1430SOL    HW2 4851   0.193   0.980  12.927
 1431SOL     OW 4852   0.694   0.250  12.671
 1431SOL    HW1 4853   0.762   0.197  12.630
 1431SOL    HW2 4854   0.721   0.259  12.762
 1432SOL     OW 4855   0.088   0.323  11.199
 1432SOL    HW1 4856   3.993   0.320  11.193
 1432SOL    HW2 4857   0.112   0.406  11.157
 1433SOL     OW 4858   1.428   0.857  12.571
 1433SOL    HW1 4859   1.380   0.919  12.516
 1433SOL    HW2 4860   1.517   0.860  12.537
 1434SOL     OW 4861   0.038   0.166  11.456
 1434SOL    HW1 4862   0.036   0.235  11.390
 1434SOL    HW2 4863   0.116   0.184  11.509
 1435SOL     OW 4864   1.178   1.339  11.289
 1435SOL    HW1 4865   1.088   1.308  11.291
 1435SOL    HW2 4866   1.206   1.339  11.381
 1436SOL     OW 4867   0.620   0.829  12.608
 1436SOL    HW1 4868   0.677   0.905  12.592
 1436SOL    HW2 4869   0.680   0.755  12.616
 1437SOL     OW 4870   1.489   1.783  12.154
 1437SOL    HW1 4871   1.511   1.847  12.087
 1437SOL    HW2 4872   1.571   1.764  12.199
 1438SOL     OW 4873   0.717   0.563  12.879
 1438SOL    HW1 4874   0.761   0.625  12.937
 1438SOL    HW2 4875   0.745   0.477  12.910
 1439SOL     OW 4876   1.472   1.199  12.803
 1439SOL    HW1 4877   1.460   1.213  12.897
 1439SOL    HW2 4878   1.565   1.215  12.788
 1440SOL     OW 4879   0.379   1.742  12.730
 1440SOL    HW1 4880   0.292   1.780  12.717
 1440SOL    HW2 4881   0.363   1.661  12.777
 1441SOL     OW 4882   1.668   0.881  12.428
 1441SOL    HW1 4883   1.663   0.796  12.385
 1441SOL    HW2 4884   1.659   0.944  12.357
 1442SOL     OW 4885   1.224   0.335  11.616
 1442SOL    HW1 4886   1.291   0.267  11.608
 1442SOL    HW2 4887   1.244   0.380  11.698
 1443SOL     OW 4888   0.591   0.739  11.842
 1443SOL    HW1 4889   0.628   0.825  11.826
 1443SOL    HW2 4890   0.522   0.729  11.776
 1444SOL     OW 4891   1.752   0.383  12.815
 1444SOL    HW1 4892   1.734   0.388  12.721
 1444SOL    HW2 4893   1.696   0.313  12.847
 1445SOL     OW 4894   1.745   0.934  12.684
 1445SOL    HW1 4895   1.740   1.029  12.697
 1445SOL    HW2 4896   1.729   0.921  12.591
 1446SOL     OW 4897   0.862   1.366  11.208
 1446SOL    HW1 4898   0.824   1.395  11.291
 1446SOL    HW2 4899   0.880   1.448  11.160
 1447SOL     OW 4900   0.662   1.789  12.115
 1447SOL    HW1 4901   0.642   1.880  12.093
 1447SOL    HW2 4902   0.757   1.784  12.108
 1448SOL     OW 4903   0.868   0.967  12.026
 1448SOL    HW1 4904   0.918   0.896  12.065
 1448SOL    HW2 4905   0.832   1.015  12.101
 1449SOL     OW 4906   1.078   0.989  11.261
 1449SOL    HW1 4907   1.057   1.039  11.183
 1449SOL    HW2 4908   1.153   0.935  11.235
 1450SOL     OW 4909   1.846   1.541  12.007
 1450SOL    HW1 4910   1.762   1.539  11.960
 1450SOL    HW2 4911   1.834   1.481  12.080
 1451SOL     OW 4912   0.225   1.304  13.028
 1451SOL    HW1 4913   0.153   1.247  13.001
 1451SOL    HW2 4914   0.212   1.317  13.122
 1452SOL     OW 4915   0.118   1.277  11.892
 1452SOL    HW1 4916   0.130   1.227  11.972
 1452SOL    HW2 4917   0.107   1.212  11.823
 1453SOL     OW 4918   0.681   1.404  12.801
 1453SOL    HW1 4919   0.601   1.361  12.831
 1453SOL    HW2 4920   0.677   1.492  12.838
 1454SOL     OW 4921   1.812   0.183  12.411
 1454SOL    HW1 4922   1.815   0.089  12.425
 1454SOL    HW2 4923   1.827   0.194  12.317
 1455SOL     OW 4924   0.443   0.437  11.703
 1455SOL    HW1 4925   0.458   0.362  11.646
 1455SOL    HW2 4926   0.388   0.403  11.773
 1456SOL     OW 4927   1.702   1.475  12.261
 1456SOL    HW1 4928   1.619   1.457  12.218
 1456SOL    HW2 4929   1.709   1.408  12.329
 1457SOL     OW 4930   0.332   0.556  12.464
 1457SOL    HW1 4931   0.389   0.500  12.517
 1457SOL    HW2 4932   0.347   0.528  12.374
 1458SOL     OW 4933   0.828   1.578  11.849
 1458SOL    HW1 4934   0.814   1.637  11.774
 1458SOL    HW2 4935   0.752   1.520  11.848
 1459SOL     OW 4936   1.461   0.253  12.283
 1459SOL    HW1 4937   1.478   0.166  12.319
 1459SOL    HW2 4938   1.405   0.295  12.348
 1460SOL     OW 4939   1.004   0.029  12.319
 1460SOL    HW1 4940   0.926   3.986  12.285
 1460SOL    HW2 4941   1.068   3.958  12.327
 1461SOL     OW 4942   0.772   1.333  11.488
 1461SOL    HW1 4943   0.742   1.242  11.494
 1461SOL    HW2 4944   0.854   1.334  11.537
 1462SOL     OW 4945   0.620   1.557  12.457
 1462SOL    HW1 4946   0.622   1.639  12.507
 1462SOL    HW2 4947   0.708   1.549  12.420
 1463SOL     OW 4948   1.312   0.074  11.336
 1463SOL    HW1 4949   1.327   3.998  11.280
 1463SOL    HW2 4950   1.227   0.058  11.376
 1464SOL     OW 4951   1.283   0.457  11.858
 1464SOL    HW1 4952   1.236   0.540  11.853
 1464SOL    HW2 4953   1.286   0.437  11.951
 1465SOL     OW 4954   1.588   0.210  12.040
 1465SOL    HW1 4955   1.539   0.234  12.118
 1465SOL    HW2 4956   1.588   0.290  11.986
 1466SOL     OW 4957   0.047   1.050  11.412
 1466SOL    HW1 4958   0.141   1.033  11.403
 1466SOL    HW2 4959   0.011   0.967  11.445
 1467SOL     OW 4960   0.886   1.655  11.513
 1467SOL    HW1 4961   0.812   1.638  11.454
 1467SOL    HW2 4962   0.857   1.729  11.566
 1468SOL     OW 4963   0.231   0.627  13.152
 1468SOL    HW1 4964   0.138   0.630  13.173
 1468SOL    HW2 4965   0.234   0.597  13.061
 1469SOL     OW 4966   0.281   0.252   0.145
 1469SOL    HW1 4967   0.330   0.317   0.196
 1469SOL    HW2 4968   0.204   0.300   0.114
 1470SOL     OW 4969   0.017   0.383  13.666
 1470SOL    HW1 4970   3.925   0.402  13.650
 1470SOL    HW2 4971   0.028   0.292  13.638
 1471SOL     OW 4972   1.527   1.500  13.727
 1471SOL    HW1 4973   1.471   1.433  13.768
 1471SOL    HW2 4974   1.483   1.521  13.645
 1472SOL     OW 4975   1.130   0.700  13.734
 1472SOL    HW1 4976   1.184   0.775  13.708
 1472SOL    HW2 4977   1.077   0.732  13.806
 1473SOL     OW 4978   1.766   0.617  13.259
 1473SOL    HW1 4979   1.744   0.611  13.166
 1473SOL    HW2 4980   1.754   0.527  13.292
 1474SOL     OW 4981   0.687   1.011  13.671
 1474SOL    HW1 4982   0.740   0.990  13.748
 1474SOL    HW2 4983   0.613   1.061  13.707
 1475SOL     OW 4984   1.618   0.455  13.762
 1475SOL    HW1 4985   1.535   0.476  13.717
 1475SOL    HW2 4986   1.647   0.539  13.798
 1476SOL     OW 4987   0.218   1.714  13.486
 1476SOL    HW1 4988   0.236   1.788  13.544
 1476SOL    HW2 4989   0.297   1.707  13.432
 1477SOL     OW 4990   0.247   1.445  13.571
 1477SOL    HW1 4991   0.218   1.535  13.561
 1477SOL    HW2 4992   0.183   1.405  13.630
 1478SOL     OW 4993   0.254   1.076   0.019
 1478SOL    HW1 4994   0.274   1.034   0.102
 1478SOL    HW2 4995   0.213   1.159   0.043
 1479SOL     OW 4996   0.578   0.985  13.170
 1479SOL    HW1 4997   0.626   1.030  13.100
 1479SOL    HW2 4998   0.620   1.015  13.251
 1480SOL     OW 4999   0.146   0.650  13.610
 1480SOL    HW1 5000   0.087   0.575  13.601
 1480SOL    HW2 5001   0.100   0.710  13.668
 1481SOL     OW 5002   0.043   1.591  13.173
 1481SOL    HW1 5003   0.035   1.499  13.197
 1481SOL    HW2 5004   3.964   1.632  13.207
 1482SOL     OW 5005   1.686   0.915  13.668
 1482SOL    HW1 5006   1.772   0.880  13.647
 1482SOL    HW2 5007   1.663   0.971  13.593
 1483SOL     OW 5008   1.648   1.105  13.460
 1483SOL    HW1 5009   1.733   1.108  13.418
 1483SOL    HW2 5010   1.653   1.168  13.532
 1484SOL     OW 5011   0.611   1.387  13.762
 1484SOL    HW1 5012   0.562   1.306  13.778
 1484SOL    HW2 5013   0.583   1.415  13.675
 1485SOL     OW 5014   0.820   0.003  13.550
 1485SOL    HW1 5015   0.864   0.084  13.525
 1485SOL    HW2 5016   0.727   0.025  13.547
 1486SOL     OW 5017   1.531   0.994  13.233
 1486SOL    HW1 5018   1.461   0.936  13.266
 1486SOL    HW2 5019   1.571   1.030  13.312
 1487SOL     OW 5020   1.663   1.733  13.594
 1487SOL    HW1 5021   1.629   1.698  13.512
 1487SOL    HW2 5022   1.657   1.659  13.655
 1488SOL     OW 5023   0.594   0.719  13.297
 1488SOL    HW1 5024   0.600   0.803  13.251
 1488SOL    HW2 5025   0.532   0.734  13.368
 1489SOL     OW 5026   1.245   0.338   0.056
 1489SOL    HW1 5027   1.154   0.325   0.081
 1489SOL    HW2 5028   1.296   0.294   0.123
 1490SOL     OW 5029   1.577   1.674  13.332
 1490SOL    HW1 5030   1.666   1.702  13.310
 1490SOL    HW2 5031   1.539   1.648  13.248
 1491SOL     OW 5032   1.049   0.697  13.460
 1491SOL    HW1 5033   1.063   0.684  13.554
 1491SOL    HW2 5034   0.967   0.650  13.441
 1492SOL     OW 5035   0.079   0.838  13.807
 1492SOL    HW1 5036   0.160   0.818  13.854
 1492SOL    HW2 5037   0.077   0.934  13.804
 1493SOL     OW 5038   0.893   0.351  13.231
 1493SOL    HW1 5039   0.935   0.411  13.168
 1493SOL    HW2 5040   0.895   0.266  13.187
 1494SOL     OW 5041   1.365   1.136  13.554
 1494SOL    HW1 5042   1.454   1.135  13.519
 1494SOL    HW2 5043   1.321   1.206  13.506
 1495SOL     OW 5044   1.002   1.441  13.503
 1495SOL    HW1 5045   0.969   1.517  13.454
 1495SOL    HW2 5046   0.971   1.455  13.593
 1496SOL     OW 5047   0.402   1.799  13.859
 1496SOL    HW1 5048   0.422   1.706  13.869
 1496SOL    HW2 5049   0.478   1.844  13.896
 1497SOL     OW 5050   1.790   1.049  13.899
 1497SOL    HW1 5051   1.733   1.043  13.823
 1497SOL    HW2 5052   1.731   1.045   0.074
 1498SOL     OW 5053   0.310   0.955  13.277
 1498SOL    HW1 5054   0.394   0.978  13.236
 1498SOL    HW2 5055   0.297   0.863  13.253
 1499SOL     OW 5056   1.489   0.734  13.752
 1499SOL    HW1 5057   1.477   0.692  13.837
 1499SOL    HW2 5058   1.560   0.797  13.766
 1500SOL     OW 5059   1.122   1.776  13.265
 1500SOL    HW1 5060   1.048   1.737  13.310
 1500SOL    HW2 5061   1.144   1.714  13.196
 1501SOL     OW 5062   1.628   1.380  13.122
 1501SOL    HW1 5063   1.586   1.465  13.105
 1501SOL    HW2 5064   1.559   1.316  13.102
 1502SOL     OW 5065   0.467   1.739  13.350
 1502SOL    HW1 5066   0.508   1.795  13.416
 1502SOL    HW2 5067   0.539   1.706  13.298
 1503SOL     OW 5068   1.428   0.155  13.447
 1503SOL    HW1 5069   1.394   0.105  13.373
 1503SOL    HW2 5070   1.520   0.130  13.452
 1504SOL     OW 5071   0.923   1.689   0.012
 1504SOL    HW1 5072   0.953   1.621   0.073
 1504SOL    HW2 5073   0.884   1.640  13.839
 1505SOL     OW 5074   0.397   0.696  13.504
 1505SOL    HW1 5075   0.425   0.606  13.516
 1505SOL    HW2 5076   0.306   0.698  13.532
 1506SOL     OW 5077   0.644   0.133  13.136
 1506SOL    HW1 5078   0.671   0.050  13.177
 1506SOL    HW2 5079   0.583   0.107  13.068
 1507SOL     OW 5080   0.550   0.056  13.523
 1507SOL    HW1 5081   0.472   0.060  13.579
 1507SOL    HW2 5082   0.550   0.138  13.475
 1508SOL     OW 5083   1.428   1.198  13.075
 1508SOL    HW1 5084   1.457   1.122  13.125
 1508SOL    HW2 5085   1.342   1.219  13.112
 1509SOL     OW 5086   0.340   0.054  13.234
 1509SOL    HW1 5087   0.360   0.090  13.147
 1509SOL    HW2 5088   0.426   0.028  13.269
 1510SOL     OW 5089   0.940   0.247  13.494
 1510SOL    HW1 5090   0.913   0.290  13.413
 1510SOL    HW2 5091   1.036   0.253  13.493
 1511SOL     OW 5092   0.470   1.144  13.769
 1511SOL    HW1 5093   0.396   1.123  13.827
 1511SOL    HW2 5094   0.434   1.133  13.681
 1512SOL     OW 5095   1.269   1.797  13.634
 1512SOL    HW1 5096   1.309   1.865  13.581
 1512SOL    HW2 5097   1.200   1.841  13.683
 1513SOL     OW 5098   1.022   0.544  13.061
 1513SOL    HW1 5099   0.979   0.627  13.041
 1513SOL    HW2 5100   1.086   0.565  13.129
 1514SOL     OW 5101   0.897   0.474  13.668
 1514SOL    HW1 5102   0.825   0.517  13.621
 1514SOL    HW2 5103   0.902   0.387  13.628
 1515SOL     OW 5104   1.001   0.039  13.795
 1515SOL    HW1 5105   0.970   0.064  13.708
 1515SOL    HW2 5106   1.022   3.946  13.787
 1516SOL     OW 5107   1.847   0.820  13.416
 1516SOL    HW1 5108   1.904   0.767  13.472
 1516SOL    HW2 5109   1.815   0.758  13.350
 1517SOL     OW 5110   0.488   1.419  13.195
 1517SOL    HW1 5111   0.412   1.388  13.244
 1517SOL    HW2 5112   0.471   1.391  13.105
 1518SOL     OW 5113   1.680   1.270  13.665
 1518SOL    HW1 5114   1.773   1.268  13.688
 1518SOL    HW2 5115   1.648   1.353  13.701
 1519SOL     OW 5116   1.395   0.575  13.104
 1519SOL    HW1 5117   1.333   0.555  13.174
 1519SOL    HW2 5118   1.480   0.553  13.141
 1520SOL     OW 5119   0.558   0.271  13.353
 1520SOL    HW1 5120   0.601   0.229  13.279
 1520SOL    HW2 5121   0.528   0.355  13.318
 1521SOL     OW 5122   0.708   1.062  13.400
 1521SOL    HW1 5123   0.694   1.048  13.494
 1521SOL    HW2 5124   0.784   1.009  13.379
 1522SOL     OW 5125   0.375   1.103  13.517
 1522SOL    HW1 5126   0.367   1.183  13.465
 1522SOL    HW2 5127   0.372   1.032  13.453
 1523SOL     OW 5128   0.567   0.540  13.863
 1523SOL    HW1 5129   0.580   0.608  13.798
 1523SOL    HW2 5130   0.624   0.566   0.036
 1524SOL     OW 5131   1.246   1.351  13.419
 1524SOL    HW1 5132   1.301   1.424  13.448
 1524SOL    HW2 5133   1.159   1.371  13.454
 1525SOL     OW 5134   1.586   0.631  13.514
 1525SOL    HW1 5135   1.545   0.685  13.582
 1525SOL    HW2 5136   1.626   0.695  13.454
 1526SOL     OW 5137   1.202   0.533  13.295
 1526SOL    HW1 5138   1.210   0.453  13.348
 1526SOL    HW2 5139   1.158   0.596  13.353
 1527SOL     OW 5140   0.332   0.049  13.679
 1527SOL    HW1 5141   0.309   0.142  13.689
 1527SOL    HW2 5142   0.274   0.004  13.740
 1528SOL     OW 5143   1.588   0.390  13.408
 1528SOL    HW1 5144   1.574   0.324  13.476
 1528SOL    HW2 5145   1.579   0.473  13.453
 1529SOL     OW 5146   1.506   0.279  13.167
 1529SOL    HW1 5147   1.433   0.219  13.181
 1529SOL    HW2 5148   1.520   0.319  13.253
 1530SOL     OW 5149   1.290   0.827  13.063
 1530SOL    HW1 5150   1.332   0.741  13.067
 1530SOL    HW2 5151   1.321   0.866  12.982
 1531SOL     OW 5152   4.000   1.319  13.215
 1531SOL    HW1 5153   3.906   1.335  13.220
 1531SOL    HW2 5154   0.009   1.225  13.233
 1532SOL     OW 5155   0.818   0.575  13.387
 1532SOL    HW1 5156   0.822   0.496  13.333
 1532SOL    HW2 5157   0.741   0.622  13.355
 1533SOL     OW 5158   0.454   0.492  13.231
 1533SOL    HW1 5159   0.518   0.561  13.247
 1533SOL    HW2 5160   0.374   0.539  13.208
 1534SOL     OW 5161   1.314   0.851  13.338
 1534SOL    HW1 5162   1.236   0.827  13.389
 1534SOL    HW2 5163   1.288   0.841  13.247
 1535SOL     OW 5164   1.696   0.121  13.464
 1535SOL    HW1 5165   1.788   0.131  13.443
 1535SOL    HW2 5166   1.694   0.054  13.533
 1536SOL     OW 5167   1.384   1.574  13.508
 1536SOL    HW1 5168   1.440   1.611  13.440
 1536SOL    HW2 5169   1.337   1.649  13.544
 1537SOL     OW 5170   1.288   0.914  13.684
 1537SOL    HW1 5171   1.366   0.859  13.671
 1537SOL    HW2 5172   1.310   0.998  13.644
 1538SOL     OW 5173   0.670   1.621  13.189
 1538SOL    HW1 5174   0.681   1.633  13.095
 1538SOL    HW2 5175   0.615   1.543  13.197
 1539SOL     OW 5176   1.829   0.171   0.064
 1539SOL    HW1 5177   1.868   0.084   0.054
 1539SOL    HW2 5178   1.737   0.158   0.045
 1540SOL     OW 5179   0.284   0.309  13.738
 1540SOL    HW1 5180   0.204   0.355  13.713
 1540SOL    HW2 5181   0.290   0.322  13.833
 1541SOL     OW 5182   1.207   1.605  13.065
 1541SOL    HW1 5183   1.197   1.513  13.091
 1541SOL    HW2 5184   1.141   1.617  12.996
 1542SOL     OW 5185   0.918   0.913  13.328
 1542SOL    HW1 5186   0.978   0.943  13.259
 1542SOL    HW2 5187   0.963   0.839  13.369
 1543SOL     OW 5188   1.487   1.622  13.074
 1543SOL    HW1 5189   1.393   1.617  13.059
 1543SOL    HW2 5190   1.526   1.630  12.987
 1544SOL     OW 5191   1.050   1.091  13.755
 1544SOL    HW1 5192   0.963   1.053  13.744
 1544SOL    HW2 5193   1.102   1.050  13.685
 1545SOL     OW 5194   0.602   1.492  13.507
 1545SOL    HW1 5195   0.646   1.441  13.440
 1545SOL    HW2 5196   0.529   1.534  13.461
 1546SOL     OW 5197   0.252   1.340  13.325
 1546SOL    HW1 5198   0.159   1.350  13.305
 1546SOL    HW2 5199   0.262   1.379  13.412
 1547SOL     OW 5200   0.088   0.324  13.062
 1547SOL    HW1 5201   3.992   0.320  13.054
 1547SOL    HW2 5202   0.112   0.406  13.018
 1548SOL     OW 5203   0.043   0.167  13.307
 1548SOL    HW1 5204   0.044   0.237  13.242
 1548SOL    HW2 5205   0.122   0.180  13.359
 1549SOL     OW 5206   1.178   1.338  13.149
 1549SOL    HW1 5207   1.087   1.309  13.152
 1549SOL    HW2 5208   1.205   1.339  13.241
 1550SOL     OW 5209   1.222   0.330  13.483
 1550SOL    HW1 5210   1.291   0.264  13.473
 1550SOL    HW2 5211   1.249   0.381  13.560
 1551SOL     OW 5212   0.594   0.750  13.692
 1551SOL    HW1 5213   0.628   0.838  13.673
 1551SOL    HW2 5214   0.523   0.737  13.628
 1552SOL     OW 5215   0.863   1.366  13.070
 1552SOL    HW1 5216   0.824   1.394  13.152
 1552SOL    HW2 5217   0.880   1.448  13.022
 1553SOL     OW 5218   0.657   1.852   0.061
 1553SOL    HW1 5219   0.673   1.945   0.047
 1553SOL    HW2 5220   0.744   1.814   0.075
 1554SOL     OW 5221   0.829   0.964  13.895
 1554SOL    HW1 5222   0.861   0.883   0.036
 1554SOL    HW2 5223   0.849   1.032   0.059
 1555SOL     OW 5224   1.077   0.987  13.123
 1555SOL    HW1 5225   1.056   1.039  13.045
 1555SOL    HW2 5226   1.152   0.934  13.096
 1556SOL     OW 5227   0.115   1.273  13.755
 1556SOL    HW1 5228   0.054   1.229  13.815
 1556SOL    HW2 5229   0.123   1.213  13.681
 1557SOL     OW 5230   0.448   0.439  13.558
 1557SOL    HW1 5231   0.467   0.365  13.500
 1557SOL    HW2 5232   0.402   0.401  13.632
 1558SOL     OW 5233   1.702   1.497   0.323
 1558SOL    HW1 5234   1.666   1.452   0.246
 1558SOL    HW2 5235   1.764   1.434   0.360
 1559SOL     OW 5236   0.820   1.552  13.707
 1559SOL    HW1 5237   0.796   1.609  13.634
 1559SOL    HW2 5238   0.744   1.497  13.721
 1560SOL     OW 5239   0.772   1.333  13.347
 1560SOL    HW1 5240   0.742   1.243  13.354
 1560SOL    HW2 5241   0.853   1.336  13.397
 1561SOL     OW 5242   1.313   0.078  13.205
 1561SOL    HW1 5243   1.338   0.004  13.148
 1561SOL    HW2 5244   1.226   0.055  13.237
 1562SOL     OW 5245   1.291   0.459  13.716
 1562SOL    HW1 5246   1.241   0.541  13.717
 1562SOL    HW2 5247   1.287   0.428  13.806
 1563SOL     OW 5248   0.046   1.050  13.270
 1563SOL    HW1 5249   0.140   1.033  13.263
 1563SOL    HW2 5250   0.010   0.969  13.306
 1564SOL     OW 5251   0.886   1.654  13.374
 1564SOL    HW1 5252   0.812   1.638  13.316
 1564SOL    HW2 5253   0.857   1.727  13.430
 1565SOL     OW 5254   0.232   2.510   0.121
 1565SOL    HW1 5255   0.138   2.504   0.134
 1565SOL    HW2 5256   0.247   2.468   0.036
 1566SOL     OW 5257   0.229   2.134   0.987
 1566SOL    HW1 5258   0.250   2.100   1.075
 1566SOL    HW2 5259   0.134   2.126   0.980
 1567SOL     OW 5260   0.011   2.225   0.633
 1567SOL    HW1 5261   3.925   2.244   0.671
 1567SOL    HW2 5262   3.991   2.190   0.546
 1568SOL     OW 5263   0.578   3.148   1.187
 1568SOL    HW1 5264   0.492   3.153   1.146
 1568SOL    HW2 5265   0.593   3.237   1.221
 1569SOL     OW 5266   1.562   3.372   0.707
 1569SOL    HW1 5267   1.518   3.351   0.789
 1569SOL    HW2 5268   1.492   3.375   0.642
 1570SOL     OW 5269   1.131   2.560   0.700
 1570SOL    HW1 5270   1.180   2.641   0.687
 1570SOL    HW2 5271   1.084   2.574   0.783
 1571SOL     OW 5272   1.759   2.465   0.226
 1571SOL    HW1 5273   1.789   2.416   0.149
 1571SOL    HW2 5274   1.722   2.398   0.284
 1572SOL     OW 5275   0.754   3.002   1.040
 1572SOL    HW1 5276   0.689   3.037   1.101
 1572SOL    HW2 5277   0.790   3.079   0.996
 1573SOL     OW 5278   0.868   2.634   1.822
 1573SOL    HW1 5279   0.859   2.705   1.886
 1573SOL    HW2 5280   0.891   2.678   1.740
 1574SOL     OW 5281   0.685   2.863   0.647
 1574SOL    HW1 5282   0.751   2.852   0.716
 1574SOL    HW2 5283   0.616   2.916   0.689
 1575SOL     OW 5284   0.711   3.012   1.815
 1575SOL    HW1 5285   0.759   3.090   1.842
 1575SOL    HW2 5286   0.629   3.045   1.778
 1576SOL     OW 5287   0.351   3.264   1.077
 1576SOL    HW1 5288   0.268   3.251   1.031
 1576SOL    HW2 5289   0.401   3.323   1.021
 1577SOL     OW 5290   1.460   3.362   1.355
 1577SOL    HW1 5291   1.513   3.441   1.365
 1577SOL    HW2 5292   1.396   3.367   1.426
 1578SOL     OW 5293   0.450   2.262   1.488
 1578SOL    HW1 5294   0.525   2.202   1.492
 1578SOL    HW2 5295   0.374   2.205   1.501
 1579SOL     OW 5296   1.609   2.304   0.735
 1579SOL    HW1 5297   1.528   2.328   0.689
 1579SOL    HW2 5298   1.629   2.381   0.790
 1580SOL     OW 5299   0.227   3.571   0.471
 1580SOL    HW1 5300   0.224   3.656   0.516
 1580SOL    HW2 5301   0.301   3.578   0.411
 1581SOL     OW 5302   1.137   3.203   1.693
 1581SOL    HW1 5303   1.178   3.198   1.779
 1581SOL    HW2 5304   1.084   3.124   1.686
 1582SOL     OW 5305   0.243   3.307   0.543
 1582SOL    HW1 5306   0.223   3.399   0.527
 1582SOL    HW2 5307   0.170   3.274   0.594
 1583SOL     OW 5308   0.246   2.929   0.883
 1583SOL    HW1 5309   0.266   2.845   0.924
 1583SOL    HW2 5310   0.194   2.976   0.949
 1584SOL     OW 5311   0.612   3.648   1.428
 1584SOL    HW1 5312   0.529   3.634   1.475
 1584SOL    HW2 5313   0.638   3.737   1.453
 1585SOL     OW 5314   0.563   2.844   0.162
 1585SOL    HW1 5315   0.588   2.889   0.082
 1585SOL    HW2 5316   0.619   2.883   0.230
 1586SOL     OW 5317   1.597   1.991   1.466
 1586SOL    HW1 5318   1.587   2.076   1.422
 1586SOL    HW2 5319   1.588   2.010   1.559
 1587SOL     OW 5320   0.140   2.516   0.573
 1587SOL    HW1 5321   0.087   2.436   0.574
 1587SOL    HW2 5322   0.106   2.569   0.644
 1588SOL     OW 5323   1.838   3.608   0.338
 1588SOL    HW1 5324   1.899   3.575   0.403
 1588SOL    HW2 5325   1.863   3.700   0.326
 1589SOL     OW 5326   0.030   3.469   0.141
 1589SOL    HW1 5327   0.032   3.374   0.153
 1589SOL    HW2 5328   3.937   3.492   0.152
 1590SOL     OW 5329   1.688   2.779   0.642
 1590SOL    HW1 5330   1.771   2.737   0.620
 1590SOL    HW2 5331   1.665   2.831   0.565
 1591SOL     OW 5332   1.647   2.966   0.431
 1591SOL    HW1 5333   1.734   2.971   0.391
 1591SOL    HW2 5334   1.651   3.030   0.503
 1592SOL     OW 5335   0.137   2.615   1.590
 1592SOL    HW1 5336   0.233   2.609   1.588
 1592SOL    HW2 5337   0.119   2.704   1.617
 1593SOL     OW 5338   0.615   3.247   0.735
 1593SOL    HW1 5339   0.567   3.165   0.744
 1593SOL    HW2 5340   0.598   3.274   0.644
 1594SOL     OW 5341   1.288   3.099   1.423
 1594SOL    HW1 5342   1.320   3.032   1.363
 1594SOL    HW2 5343   1.346   3.094   1.498
 1595SOL     OW 5344   0.820   1.862   0.511
 1595SOL    HW1 5345   0.860   1.946   0.489
 1595SOL    HW2 5346   0.727   1.880   0.519
 1596SOL     OW 5347   0.185   2.813   1.279
 1596SOL    HW1 5348   0.273   2.778   1.265
 1596SOL    HW2 5349   0.132   2.773   1.210
 1597SOL     OW 5350   1.531   2.859   0.204
 1597SOL    HW1 5351   1.463   2.800   0.236
 1597SOL    HW2 5352   1.571   2.895   0.283
 1598SOL     OW 5353   1.214   3.665   1.626
 1598SOL    HW1 5354   1.194   3.726   1.555
 1598SOL    HW2 5355   1.217   3.579   1.585
 1599SOL     OW 5356   0.340   2.109   1.815
 1599SOL    HW1 5357   0.378   2.197   1.822
 1599SOL    HW2 5358   0.249   2.120   1.840
 1600SOL     OW 5359   1.466   3.281   0.951
 1600SOL    HW1 5360   1.398   3.296   1.017
 1600SOL    HW2 5361   1.454   3.190   0.924
 1601SOL     OW 5362   1.659   3.600   0.587
 1601SOL    HW1 5363   1.643   3.576   0.496
 1601SOL    HW2 5364   1.634   3.522   0.637
 1602SOL     OW 5365   0.598   2.580   0.264
 1602SOL    HW1 5366   0.600   2.662   0.216
 1602SOL    HW2 5367   0.538   2.596   0.336
 1603SOL     OW 5368   1.279   2.219   0.934
 1603SOL    HW1 5369   1.191   2.184   0.944
 1603SOL    HW2 5370   1.334   2.164   0.989
 1604SOL     OW 5371   1.561   3.595   0.313
 1604SOL    HW1 5372   1.656   3.594   0.312
 1604SOL    HW2 5373   1.536   3.558   0.229
 1605SOL     OW 5374   0.791   2.480   1.451
 1605SOL    HW1 5375   0.765   2.455   1.540
 1605SOL    HW2 5376   0.752   2.413   1.395
 1606SOL     OW 5377   1.393   2.335   1.677
 1606SOL    HW1 5378   1.396   2.381   1.761
 1606SOL    HW2 5379   1.457   2.265   1.687
 1607SOL     OW 5380   0.953   2.749   1.583
 1607SOL    HW1 5381   1.008   2.679   1.547
 1607SOL    HW2 5382   0.905   2.783   1.508
 1608SOL     OW 5383   0.993   2.274   1.238
 1608SOL    HW1 5384   0.906   2.295   1.273
 1608SOL    HW2 5385   0.975   2.229   1.155
 1609SOL     OW 5386   1.051   2.563   0.429
 1609SOL    HW1 5387   1.067   2.554   0.523
 1609SOL    HW2 5388   0.968   2.517   0.415
 1610SOL     OW 5389   0.082   2.689   0.791
 1610SOL    HW1 5390   0.159   2.660   0.841
 1610SOL    HW2 5391   0.096   2.783   0.779
 1611SOL     OW 5392   0.127   3.716   1.576
 1611SOL    HW1 5393   0.134   3.684   1.666
 1611SOL    HW2 5394   0.035   3.703   1.554
 1612SOL     OW 5395   0.870   2.221   0.215
 1612SOL    HW1 5396   0.909   2.281   0.151
 1612SOL    HW2 5397   0.883   2.134   0.176
 1613SOL     OW 5398   1.676   2.445   1.833
 1613SOL    HW1 5399   1.651   2.516   1.774
 1613SOL    HW2 5400   1.723   2.383   1.778
 1614SOL     OW 5401   1.378   3.004   0.543
 1614SOL    HW1 5402   1.456   2.991   0.489
 1614SOL    HW2 5403   1.325   3.067   0.494
 1615SOL     OW 5404   0.546   2.041   0.894
 1615SOL    HW1 5405   0.552   2.072   0.984
 1615SOL    HW2 5406   0.547   2.121   0.841
 1616SOL     OW 5407   1.005   3.305   0.475
 1616SOL    HW1 5408   0.970   3.379   0.424
 1616SOL    HW2 5409   0.985   3.327   0.566
 1617SOL     OW 5410   0.358   3.669   0.861
 1617SOL    HW1 5411   0.436   3.615   0.872
 1617SOL    HW2 5412   0.391   3.759   0.870
 1618SOL     OW 5413   1.799   2.915   0.869
 1618SOL    HW1 5414   1.745   2.900   0.792
 1618SOL    HW2 5415   1.737   2.923   0.941
 1619SOL     OW 5416   1.228   3.399   1.511
 1619SOL    HW1 5417   1.214   3.327   1.573
 1619SOL    HW2 5418   1.161   3.386   1.444
 1620SOL     OW 5419   0.311   2.795   0.240
 1620SOL    HW1 5420   0.402   2.809   0.213
 1620SOL    HW2 5421   0.299   2.700   0.234
 1621SOL     OW 5422   1.479   2.604   0.725
 1621SOL    HW1 5423   1.472   2.563   0.811
 1621SOL    HW2 5424   1.556   2.660   0.732
 1622SOL     OW 5425   0.467   3.122   1.737
 1622SOL    HW1 5426   0.441   3.130   1.645
 1622SOL    HW2 5427   0.385   3.126   1.785
 1623SOL     OW 5428   1.125   3.639   0.232
 1623SOL    HW1 5429   1.061   3.594   0.287
 1623SOL    HW2 5430   1.151   3.575   0.167
 1624SOL     OW 5431   0.204   2.138   1.508
 1624SOL    HW1 5432   0.114   2.170   1.500
 1624SOL    HW2 5433   0.195   2.052   1.549
 1625SOL     OW 5434   1.634   3.236   0.084
 1625SOL    HW1 5435   1.597   3.319   0.055
 1625SOL    HW2 5436   1.566   3.172   0.065
 1626SOL     OW 5437   0.468   3.604   0.320
 1626SOL    HW1 5438   0.505   3.665   0.383
 1626SOL    HW2 5439   0.543   3.572   0.270
 1627SOL     OW 5440   1.403   1.970   0.431
 1627SOL    HW1 5441   1.384   1.951   0.339
 1627SOL    HW2 5442   1.491   1.936   0.445
 1628SOL     OW 5443   0.252   3.656   1.228
 1628SOL    HW1 5444   0.297   3.590   1.280
 1628SOL    HW2 5445   0.250   3.619   1.140
 1629SOL     OW 5446   0.938   3.562   0.900
 1629SOL    HW1 5447   1.016   3.510   0.921
 1629SOL    HW2 5448   0.894   3.513   0.831
 1630SOL     OW 5449   0.397   2.557   0.472
 1630SOL    HW1 5450   0.421   2.465   0.483
 1630SOL    HW2 5451   0.305   2.561   0.500
 1631SOL     OW 5452   1.536   2.086   1.725
 1631SOL    HW1 5453   1.547   2.107   1.818
 1631SOL    HW2 5454   1.465   2.023   1.723
 1632SOL     OW 5455   0.766   2.140   1.754
 1632SOL    HW1 5456   0.843   2.084   1.754
 1632SOL    HW2 5457   0.719   2.116   1.834
 1633SOL     OW 5458   0.876   3.382   1.194
 1633SOL    HW1 5459   0.860   3.347   1.107
 1633SOL    HW2 5460   0.946   3.328   1.230
 1634SOL     OW 5461   1.341   2.451   1.432
 1634SOL    HW1 5462   1.371   2.419   1.517
 1634SOL    HW2 5463   1.377   2.539   1.425
 1635SOL     OW 5464   0.816   3.255   0.940
 1635SOL    HW1 5465   0.901   3.244   0.897
 1635SOL    HW2 5466   0.753   3.257   0.868
 1636SOL     OW 5467   0.928   2.371   0.902
 1636SOL    HW1 5468   0.904   2.363   0.810
 1636SOL    HW2 5469   0.959   2.284   0.926
 1637SOL     OW 5470   0.556   1.923   0.503
 1637SOL    HW1 5471   0.475   1.921   0.554
 1637SOL    HW2 5472   0.548   2.000   0.448
 1638SOL     OW 5473   1.430   3.067   0.045
 1638SOL    HW1 5474   1.451   2.987   0.092
 1638SOL    HW2 5475   1.338   3.084   0.064
 1639SOL     OW 5476   0.263   1.871   0.217
 1639SOL    HW1 5477   0.293   1.954   0.181
 1639SOL    HW2 5478   0.343   1.824   0.240
 1640SOL     OW 5479   0.941   2.108   0.461
 1640SOL    HW1 5480   0.910   2.149   0.380
 1640SOL    HW2 5481   1.035   2.126   0.463
 1641SOL     OW 5482   1.080   2.543   1.459
 1641SOL    HW1 5483   1.013   2.476   1.464
 1641SOL    HW2 5484   1.162   2.495   1.453
 1642SOL     OW 5485   1.222   3.433   0.794
 1642SOL    HW1 5486   1.238   3.499   0.727
 1642SOL    HW2 5487   1.291   3.446   0.859
 1643SOL     OW 5488   0.465   3.012   0.734
 1643SOL    HW1 5489   0.394   2.989   0.794
 1643SOL    HW2 5490   0.429   2.998   0.647
 1644SOL     OW 5491   1.267   3.658   0.607
 1644SOL    HW1 5492   1.314   3.722   0.554
 1644SOL    HW2 5493   1.196   3.708   0.647
 1645SOL     OW 5494   0.997   2.407   0.057
 1645SOL    HW1 5495   0.996   2.395  13.862
 1645SOL    HW2 5496   1.089   2.402   0.081
 1646SOL     OW 5497   0.081   2.434   1.390
 1646SOL    HW1 5498   0.171   2.420   1.360
 1646SOL    HW2 5499   0.088   2.503   1.455
 1647SOL     OW 5500   0.567   2.089   1.165
 1647SOL    HW1 5501   0.608   2.013   1.207
 1647SOL    HW2 5502   0.475   2.086   1.194
 1648SOL     OW 5503   0.867   2.321   0.639
 1648SOL    HW1 5504   0.824   2.376   0.574
 1648SOL    HW2 5505   0.888   2.240   0.592
 1649SOL     OW 5506   1.016   1.915   0.750
 1649SOL    HW1 5507   0.957   1.909   0.675
 1649SOL    HW2 5508   0.993   1.840   0.805
 1650SOL     OW 5509   1.437   3.024   0.857
 1650SOL    HW1 5510   1.368   2.959   0.856
 1650SOL    HW2 5511   1.461   3.035   0.765
 1651SOL     OW 5512   1.465   2.468   0.974
 1651SOL    HW1 5513   1.413   2.388   0.978
 1651SOL    HW2 5514   1.524   2.461   1.049
 1652SOL     OW 5515   1.846   2.675   0.379
 1652SOL    HW1 5516   1.901   2.623   0.438
 1652SOL    HW2 5517   1.814   2.612   0.314
 1653SOL     OW 5518   0.493   3.243   0.165
 1653SOL    HW1 5519   0.419   3.216   0.220
 1653SOL    HW2 5520   0.452   3.286   0.090
 1654SOL     OW 5521   1.671   3.125   0.647
 1654SOL    HW1 5522   1.766   3.129   0.660
 1654SOL    HW2 5523   1.642   3.214   0.662
 1655SOL     OW 5524   1.420   2.444   0.087
 1655SOL    HW1 5525   1.351   2.436   0.152
 1655SOL    HW2 5526   1.463   2.359   0.087
 1656SOL     OW 5527   0.531   2.123   0.325
 1656SOL    HW1 5528   0.582   2.088   0.252
 1656SOL    HW2 5529   0.501   2.209   0.295
 1657SOL     OW 5530   1.752   3.102   1.571
 1657SOL    HW1 5531   1.839   3.063   1.568
 1657SOL    HW2 5532   1.767   3.193   1.598
 1658SOL     OW 5533   1.057   3.214   1.332
 1658SOL    HW1 5534   0.983   3.184   1.384
 1658SOL    HW2 5535   1.133   3.174   1.374
 1659SOL     OW 5536   1.609   3.488   1.655
 1659SOL    HW1 5537   1.602   3.522   1.566
 1659SOL    HW2 5538   1.692   3.440   1.656
 1660SOL     OW 5539   1.130   3.066   1.104
 1660SOL    HW1 5540   1.071   3.104   1.169
 1660SOL    HW2 5541   1.098   3.099   1.021
 1661SOL     OW 5542   1.627   2.960   1.077
 1661SOL    HW1 5543   1.622   3.022   1.149
 1661SOL    HW2 5544   1.549   2.978   1.024
 1662SOL     OW 5545   0.918   1.958   1.395
 1662SOL    HW1 5546   0.941   1.940   1.304
 1662SOL    HW2 5547   0.997   1.998   1.432
 1663SOL     OW 5548   0.984   2.977   1.722
 1663SOL    HW1 5549   0.892   2.993   1.744
 1663SOL    HW2 5550   0.982   2.899   1.667
 1664SOL     OW 5551   0.715   2.921   0.377
 1664SOL    HW1 5552   0.700   2.904   0.470
 1664SOL    HW2 5553   0.789   2.866   0.353
 1665SOL     OW 5554   0.421   2.678   1.252
 1665SOL    HW1 5555   0.490   2.686   1.318
 1665SOL    HW2 5556   0.387   2.589   1.264
 1666SOL     OW 5557   1.265   2.238   1.277
 1666SOL    HW1 5558   1.298   2.315   1.322
 1666SOL    HW2 5559   1.175   2.259   1.254
 1667SOL     OW 5560   0.065   3.441   1.346
 1667SOL    HW1 5561   0.070   3.500   1.270
 1667SOL    HW2 5562   0.156   3.429   1.372
 1668SOL     OW 5563   0.363   2.965   0.482
 1668SOL    HW1 5564   0.358   3.043   0.427
 1668SOL    HW2 5565   0.381   2.894   0.420
 1669SOL     OW 5566   0.551   2.398   0.861
 1669SOL    HW1 5567   0.565   2.455   0.786
 1669SOL    HW2 5568   0.617   2.424   0.925
 1670SOL     OW 5569   1.248   3.208   0.398
 1670SOL    HW1 5570   1.305   3.281   0.424
 1670SOL    HW2 5571   1.161   3.233   0.430
 1671SOL     OW 5572   1.282   3.321   1.148
 1671SOL    HW1 5573   1.338   3.324   1.225
 1671SOL    HW2 5574   1.227   3.244   1.162
 1672SOL     OW 5575   1.579   2.489   0.477
 1672SOL    HW1 5576   1.532   2.536   0.545
 1672SOL    HW2 5577   1.612   2.557   0.418
 1673SOL     OW 5578   0.345   3.388   1.318
 1673SOL    HW1 5579   0.335   3.339   1.237
 1673SOL    HW2 5580   0.439   3.404   1.326
 1674SOL     OW 5581   0.415   2.601   1.601
 1674SOL    HW1 5582   0.477   2.647   1.544
 1674SOL    HW2 5583   0.455   2.516   1.618
 1675SOL     OW 5584   1.600   2.647   1.675
 1675SOL    HW1 5585   1.515   2.690   1.670
 1675SOL    HW2 5586   1.653   2.691   1.609
 1676SOL     OW 5587   0.996   1.988   1.754
 1676SOL    HW1 5588   1.053   2.060   1.729
 1676SOL    HW2 5589   1.044   1.909   1.729
 1677SOL     OW 5590   0.497   1.898   1.746
 1677SOL    HW1 5591   0.454   1.846   1.679
 1677SOL    HW2 5592   0.442   1.976   1.755
 1678SOL     OW 5593   0.584   2.736   1.031
 1678SOL    HW1 5594   0.617   2.826   1.032
 1678SOL    HW2 5595   0.529   2.730   1.109
 1679SOL     OW 5596   1.356   2.720   1.028
 1679SOL    HW1 5597   1.272   2.710   0.983
 1679SOL    HW2 5598   1.398   2.634   1.021
 1680SOL     OW 5599   1.218   2.403   0.273
 1680SOL    HW1 5600   1.221   2.323   0.325
 1680SOL    HW2 5601   1.163   2.463   0.324
 1681SOL     OW 5602   0.311   2.059   1.247
 1681SOL    HW1 5603   0.264   2.096   1.323
 1681SOL    HW2 5604   0.287   1.966   1.248
 1682SOL     OW 5605   0.059   3.167   1.280
 1682SOL    HW1 5606   0.090   3.127   1.362
 1682SOL    HW2 5607   0.051   3.260   1.300
 1683SOL     OW 5608   0.724   2.493   1.057
 1683SOL    HW1 5609   0.799   2.477   1.000
 1683SOL    HW2 5610   0.696   2.582   1.035
 1684SOL     OW 5611   1.734   2.822   1.852
 1684SOL    HW1 5612   1.690   2.757   1.797
 1684SOL    HW2 5613   1.675   2.836   1.926
 1685SOL     OW 5614   0.314   1.924   0.623
 1685SOL    HW1 5615   0.292   2.015   0.644
 1685SOL    HW2 5616   0.318   1.880   0.707
 1686SOL     OW 5617   1.622   2.239   0.383
 1686SOL    HW1 5618   1.616   2.182   0.459
 1686SOL    HW2 5619   1.596   2.325   0.415
 1687SOL     OW 5620   1.028   2.621   0.960
 1687SOL    HW1 5621   1.023   2.638   1.054
 1687SOL    HW2 5622   1.002   2.529   0.951
 1688SOL     OW 5623   0.985   3.429   1.719
 1688SOL    HW1 5624   0.967   3.471   1.635
 1688SOL    HW2 5625   1.027   3.347   1.696
 1689SOL     OW 5626   1.854   3.366   1.604
 1689SOL    HW1 5627   1.873   3.394   1.515
 1689SOL    HW2 5628   1.935   3.385   1.653
 1690SOL     OW 5629   0.352   2.783   1.801
 1690SOL    HW1 5630   0.431   2.804   1.851
 1690SOL    HW2 5631   0.380   2.716   1.738
 1691SOL     OW 5632   1.516   2.160   0.142
 1691SOL    HW1 5633   1.500   2.066   0.149
 1691SOL    HW2 5634   1.563   2.183   0.222
 1692SOL     OW 5635   1.292   2.690   0.055
 1692SOL    HW1 5636   1.340   2.607   0.060
 1692SOL    HW2 5637   1.311   2.724  13.868
 1693SOL     OW 5638   1.066   3.198   0.854
 1693SOL    HW1 5639   1.070   3.126   0.791
 1693SOL    HW2 5640   1.127   3.263   0.819
 1694SOL     OW 5641   0.314   2.665   0.950
 1694SOL    HW1 5642   0.408   2.683   0.945
 1694SOL    HW2 5643   0.309   2.575   0.982
 1695SOL     OW 5644   0.331   2.382   1.014
 1695SOL    HW1 5645   0.297   2.294   0.997
 1695SOL    HW2 5646   0.407   2.390   0.956
 1696SOL     OW 5647   1.134   2.237   1.683
 1696SOL    HW1 5648   1.087   2.292   1.745
 1696SOL    HW2 5649   1.222   2.275   1.680
 1697SOL     OW 5650   1.161   2.064   1.470
 1697SOL    HW1 5651   1.150   2.126   1.542
 1697SOL    HW2 5652   1.201   2.115   1.400
 1698SOL     OW 5653   0.011   3.189   0.188
 1698SOL    HW1 5654   3.917   3.204   0.183
 1698SOL    HW2 5655   0.020   3.098   0.216
 1699SOL     OW 5656   0.075   3.664   0.895
 1699SOL    HW1 5657   0.088   3.569   0.894
 1699SOL    HW2 5658   0.163   3.700   0.892
 1700SOL     OW 5659   0.507   3.426   0.916
 1700SOL    HW1 5660   0.573   3.493   0.936
 1700SOL    HW2 5661   0.550   3.368   0.854
 1701SOL     OW 5662   0.981   2.653   1.226
 1701SOL    HW1 5663   1.038   2.631   1.299
 1701SOL    HW2 5664   0.896   2.616   1.250
 1702SOL     OW 5665   0.038   2.418   1.109
 1702SOL    HW1 5666   0.120   2.394   1.067
 1702SOL    HW2 5667   0.057   2.416   1.203
 1703SOL     OW 5668   0.206   2.375   1.727
 1703SOL    HW1 5669   0.247   2.329   1.654
 1703SOL    HW2 5670   0.158   2.447   1.687
 1704SOL     OW 5671   1.374   2.802   1.657
 1704SOL    HW1 5672   1.397   2.895   1.655
 1704SOL    HW2 5673   1.371   2.775   1.565
 1705SOL     OW 5674   0.814   2.438   0.373
 1705SOL    HW1 5675   0.826   2.363   0.314
 1705SOL    HW2 5676   0.743   2.489   0.334
 1706SOL     OW 5677   1.642   2.465   1.183
 1706SOL    HW1 5678   1.632   2.411   1.262
 1706SOL    HW2 5679   1.729   2.441   1.149
 1707SOL     OW 5680   0.298   3.408   1.728
 1707SOL    HW1 5681   0.249   3.477   1.771
 1707SOL    HW2 5682   0.266   3.327   1.768
 1708SOL     OW 5683   0.704   2.312   1.258
 1708SOL    HW1 5684   0.652   2.238   1.228
 1708SOL    HW2 5685   0.699   2.375   1.186
 1709SOL     OW 5686   0.929   3.534   1.468
 1709SOL    HW1 5687   0.902   3.498   1.384
 1709SOL    HW2 5688   0.921   3.629   1.457
 1710SOL     OW 5689   0.434   2.357   0.235
 1710SOL    HW1 5690   0.507   2.418   0.241
 1710SOL    HW2 5691   0.362   2.409   0.200
 1711SOL     OW 5692   0.156   2.997   1.475
 1711SOL    HW1 5693   0.157   2.946   1.556
 1711SOL    HW2 5694   0.171   2.933   1.406
 1712SOL     OW 5695   1.325   2.908   1.222
 1712SOL    HW1 5696   1.348   2.845   1.154
 1712SOL    HW2 5697   1.256   2.961   1.183
 1713SOL     OW 5698   1.312   2.720   0.326
 1713SOL    HW1 5699   1.237   2.685   0.375
 1713SOL    HW2 5700   1.290   2.705   0.234
 1714SOL     OW 5701   1.771   3.604   1.150
 1714SOL    HW1 5702   1.833   3.631   1.082
 1714SOL    HW2 5703   1.749   3.513   1.127
 1715SOL     OW 5704   1.244   3.595   1.111
 1715SOL    HW1 5705   1.326   3.616   1.067
 1715SOL    HW2 5706   1.249   3.502   1.130
 1716SOL     OW 5707   0.076   3.076   1.028
 1716SOL    HW1 5708   0.083   3.103   1.119
 1716SOL    HW2 5709   3.983   3.086   1.007
 1717SOL     OW 5710   0.679   3.526   1.731
 1717SOL    HW1 5711   0.622   3.603   1.734
 1717SOL    HW2 5712   0.739   3.544   1.658
 1718SOL     OW 5713   0.924   1.969   0.130
 1718SOL    HW1 5714   0.960   1.959   0.042
 1718SOL    HW2 5715   0.973   1.906   0.183
 1719SOL     OW 5716   1.389   3.434   0.485
 1719SOL    HW1 5717   1.452   3.468   0.421
 1719SOL    HW2 5718   1.342   3.511   0.516
 1720SOL     OW 5719   0.169   3.625   1.831
 1720SOL    HW1 5720   0.113   3.573   1.889
 1720SOL    HW2 5721   0.216   3.684   1.890
 1721SOL     OW 5722   1.277   2.788   0.671
 1721SOL    HW1 5723   1.351   2.727   0.678
 1721SOL    HW2 5724   1.310   2.860   0.618
 1722SOL     OW 5725   0.812   3.135   1.429
 1722SOL    HW1 5726   0.784   3.175   1.512
 1722SOL    HW2 5727   0.742   3.155   1.367
 1723SOL     OW 5728   0.674   3.447   0.188
 1723SOL    HW1 5729   0.659   3.488   0.103
 1723SOL    HW2 5730   0.627   3.364   0.183
 1724SOL     OW 5731   1.624   3.588   1.390
 1724SOL    HW1 5732   1.675   3.594   1.309
 1724SOL    HW2 5733   1.610   3.679   1.416
 1725SOL     OW 5734   0.266   2.175   0.717
 1725SOL    HW1 5735   0.181   2.209   0.692
 1725SOL    HW2 5736   0.261   2.165   0.813
 1726SOL     OW 5737   1.221   3.462   0.033
 1726SOL    HW1 5738   1.209   3.371   0.061
 1726SOL    HW2 5739   1.178   3.466  13.848
 1727SOL     OW 5740   0.823   2.868   1.373
 1727SOL    HW1 5741   0.868   2.863   1.288
 1727SOL    HW2 5742   0.822   2.961   1.395
 1728SOL     OW 5743   0.922   2.773   0.289
 1728SOL    HW1 5744   0.991   2.812   0.235
 1728SOL    HW2 5745   0.964   2.702   0.336
 1729SOL     OW 5746   1.487   3.505   0.066
 1729SOL    HW1 5747   1.394   3.485   0.056
 1729SOL    HW2 5748   1.522   3.499  13.877
 1730SOL     OW 5749   0.374   3.165   1.491
 1730SOL    HW1 5750   0.359   3.245   1.441
 1730SOL    HW2 5751   0.296   3.111   1.474
 1731SOL     OW 5752   1.610   3.145   1.280
 1731SOL    HW1 5753   1.670   3.133   1.354
 1731SOL    HW2 5754   1.550   3.213   1.309
 1732SOL     OW 5755   1.054   2.969   0.707
 1732SOL    HW1 5756   0.983   2.918   0.746
 1732SOL    HW2 5757   1.117   2.905   0.677
 1733SOL     OW 5758   1.022   2.102   0.966
 1733SOL    HW1 5759   1.018   2.055   0.883
 1733SOL    HW2 5760   1.017   2.034   1.033
 1734SOL     OW 5761   0.606   3.349   0.482
 1734SOL    HW1 5762   0.651   3.300   0.413
 1734SOL    HW2 5763   0.536   3.396   0.436
 1735SOL     OW 5764   1.723   2.255   1.377
 1735SOL    HW1 5765   1.797   2.315   1.384
 1735SOL    HW2 5766   1.750   2.190   1.312
 1736SOL     OW 5767   0.263   3.179   0.307
 1736SOL    HW1 5768   0.185   3.208   0.260
 1736SOL    HW2 5769   0.260   3.228   0.389
 1737SOL     OW 5770   0.106   2.860   1.717
 1737SOL    HW1 5771   0.046   2.853   1.791
 1737SOL    HW2 5772   0.192   2.841   1.755
 1738SOL     OW 5773   0.675   2.058   1.499
 1738SOL    HW1 5774   0.759   2.037   1.459
 1738SOL    HW2 5775   0.698   2.090   1.587
 1739SOL     OW 5776   0.051   2.221   0.038
 1739SOL    HW1 5777   3.960   2.224   0.066
 1739SOL    HW2 5778   0.048   2.235  13.843
 1740SOL     OW 5779   1.429   2.721   1.399
 1740SOL    HW1 5780   1.380   2.782   1.344
 1740SOL    HW2 5781   1.518   2.723   1.365
 1741SOL     OW 5782   0.054   2.036   0.314
 1741SOL    HW1 5783   0.079   2.102   0.250
 1741SOL    HW2 5784   0.117   1.965   0.301
 1742SOL     OW 5785   1.186   3.209   0.123
 1742SOL    HW1 5786   1.091   3.195   0.112
 1742SOL    HW2 5787   1.201   3.195   0.216
 1743SOL     OW 5788   0.619   2.692   1.436
 1743SOL    HW1 5789   0.675   2.768   1.420
 1743SOL    HW2 5790   0.680   2.619   1.444
 1744SOL     OW 5791   1.485   3.641   0.981
 1744SOL    HW1 5792   1.509   3.696   0.906
 1744SOL    HW2 5793   1.569   3.619   1.022
 1745SOL     OW 5794   0.716   2.425   1.704
 1745SOL    HW1 5795   0.760   2.488   1.763
 1745SOL    HW2 5796   0.743   2.339   1.737
 1746SOL     OW 5797   1.472   3.061   1.631
 1746SOL    HW1 5798   1.460   3.075   1.725
 1746SOL    HW2 5799   1.566   3.077   1.616
 1747SOL     OW 5800   0.379   3.606   1.559
 1747SOL    HW1 5801   0.291   3.642   1.546
 1747SOL    HW2 5802   0.364   3.524   1.606
 1748SOL     OW 5803   1.669   2.743   1.254
 1748SOL    HW1 5804   1.661   2.658   1.211
 1748SOL    HW2 5805   1.658   2.807   1.183
 1749SOL     OW 5806   1.217   2.182   0.456
 1749SOL    HW1 5807   1.282   2.112   0.449
 1749SOL    HW2 5808   1.244   2.231   0.533
 1750SOL     OW 5809   0.588   2.599   0.672
 1750SOL    HW1 5810   0.627   2.685   0.656
 1750SOL    HW2 5811   0.522   2.590   0.604
 1751SOL     OW 5812   1.756   2.239   1.656
 1751SOL    HW1 5813   1.748   2.245   1.561
 1751SOL    HW2 5814   1.686   2.180   1.683
 1752SOL     OW 5815   1.747   2.799   1.509
 1752SOL    HW1 5816   1.741   2.894   1.522
 1752SOL    HW2 5817   1.731   2.787   1.416
 1753SOL     OW 5818   0.906   3.261   0.063
 1753SOL    HW1 5819   0.837   3.242   0.127
 1753SOL    HW2 5820   0.860   3.266  13.879
 1754SOL     OW 5821   0.659   3.652   0.938
 1754SOL    HW1 5822   0.637   3.742   0.918
 1754SOL    HW2 5823   0.754   3.649   0.934
 1755SOL     OW 5824   0.868   2.829   0.854
 1755SOL    HW1 5825   0.918   2.757   0.893
 1755SOL    HW2 5826   0.833   2.877   0.928
 1756SOL     OW 5827   1.098   2.871   0.109
 1756SOL    HW1 5828   1.088   2.917   0.026
 1756SOL    HW2 5829   1.172   2.812   0.094
 1757SOL     OW 5830   1.853   3.413   0.843
 1757SOL    HW1 5831   1.774   3.405   0.789
 1757SOL    HW2 5832   1.840   3.351   0.914
 1758SOL     OW 5833   0.225   3.166   1.856
 1758SOL    HW1 5834   0.153   3.109   1.830
 1758SOL    HW2 5835   0.213   3.179   1.950
 1759SOL     OW 5836   0.106   3.139   0.725
 1759SOL    HW1 5837   0.127   3.091   0.806
 1759SOL    HW2 5838   0.105   3.072   0.657
 1760SOL     OW 5839   0.682   3.265   1.630
 1760SOL    HW1 5840   0.601   3.224   1.659
 1760SOL    HW2 5841   0.678   3.354   1.666
 1761SOL     OW 5842   0.438   2.297   0.536
 1761SOL    HW1 5843   0.464   2.224   0.480
 1761SOL    HW2 5844   0.384   2.256   0.604
 1762SOL     OW 5845   1.701   3.349   1.093
 1762SOL    HW1 5846   1.619   3.327   1.048
 1762SOL    HW2 5847   1.710   3.281   1.160
 1763SOL     OW 5848   0.333   2.418   1.291
 1763SOL    HW1 5849   0.388   2.362   1.346
 1763SOL    HW2 5850   0.349   2.387   1.202
 1764SOL     OW 5851   0.828   3.441   0.677
 1764SOL    HW1 5852   0.815   3.495   0.599
 1764SOL    HW2 5853   0.753   3.382   0.678
 1765SOL     OW 5854   1.438   2.091   1.119
 1765SOL    HW1 5855   1.449   2.004   1.157
 1765SOL    HW2 5856   1.383   2.138   1.182
 1766SOL     OW 5857   1.009   1.880   1.141
 1766SOL    HW1 5858   0.955   1.812   1.100
 1766SOL    HW2 5859   1.097   1.842   1.143
 1767SOL     OW 5860   0.776   3.185   0.320
 1767SOL    HW1 5861   0.745   3.096   0.335
 1767SOL    HW2 5862   0.859   3.190   0.367
 1768SOL     OW 5863   0.620   3.416   1.285
 1768SOL    HW1 5864   0.622   3.498   1.335
 1768SOL    HW2 5865   0.708   3.410   1.247
 1769SOL     OW 5866   1.347   1.922   0.165
 1769SOL    HW1 5867   1.376   1.870   0.091
 1769SOL    HW2 5868   1.263   1.882   0.191
 1770SOL     OW 5869   1.297   2.323   0.680
 1770SOL    HW1 5870   1.245   2.403   0.686
 1770SOL    HW2 5871   1.292   2.284   0.767
 1771SOL     OW 5872   1.572   2.055   0.870
 1771SOL    HW1 5873   1.535   2.081   0.955
 1771SOL    HW2 5874   1.587   2.137   0.824
 1772SOL     OW 5875   0.042   2.895   0.254
 1772SOL    HW1 5876   0.136   2.880   0.249
 1772SOL    HW2 5877   0.009   2.823   0.307
 1773SOL     OW 5878   0.892   3.518   0.345
 1773SOL    HW1 5879   0.819   3.488   0.292
 1773SOL    HW2 5880   0.858   3.594   0.392
 1774SOL     OW 5881   0.231   2.485   1.982
 1774SOL    HW1 5882   0.138   2.494   2.003
 1774SOL    HW2 5883   0.233   2.454   1.891
 1775SOL     OW 5884   0.229   2.133   2.849
 1775SOL    HW1 5885   0.249   2.100   2.936
 1775SOL    HW2 5886   0.134   2.126   2.842
 1776SOL     OW 5887   0.010   2.222   2.493
 1776SOL    HW1 5888   3.923   2.240   2.527
 1776SOL    HW2 5889   3.995   2.189   2.404
 1777SOL     OW 5890   0.578   3.148   3.049
 1777SOL    HW1 5891   0.492   3.152   3.008
 1777SOL    HW2 5892   0.593   3.237   3.083
 1778SOL     OW 5893   1.562   3.373   2.570
 1778SOL    HW1 5894   1.520   3.352   2.653
 1778SOL    HW2 5895   1.490   3.376   2.507
 1779SOL     OW 5896   1.131   2.560   2.561
 1779SOL    HW1 5897   1.180   2.641   2.548
 1779SOL    HW2 5898   1.084   2.574   2.644
 1780SOL     OW 5899   1.750   2.477   2.095
 1780SOL    HW1 5900   1.736   2.472   2.000
 1780SOL    HW2 5901   1.752   2.385   2.124
 1781SOL     OW 5902   0.755   3.002   2.903
 1781SOL    HW1 5903   0.690   3.037   2.964
 1781SOL    HW2 5904   0.790   3.079   2.858
 1782SOL     OW 5905   0.868   2.634   3.684
 1782SOL    HW1 5906   0.859   2.705   3.747
 1782SOL    HW2 5907   0.891   2.678   3.602
 1783SOL     OW 5908   0.685   2.864   2.509
 1783SOL    HW1 5909   0.751   2.853   2.577
 1783SOL    HW2 5910   0.616   2.916   2.550
 1784SOL     OW 5911   0.711   3.012   3.677
 1784SOL    HW1 5912   0.759   3.090   3.704
 1784SOL    HW2 5913   0.629   3.045   3.640
 1785SOL     OW 5914   0.351   3.264   2.940
 1785SOL    HW1 5915   0.268   3.249   2.893
 1785SOL    HW2 5916   0.400   3.323   2.883
 1786SOL     OW 5917   1.460   3.362   3.217
 1786SOL    HW1 5918   1.513   3.441   3.227
 1786SOL    HW2 5919   1.396   3.367   3.288
 1787SOL     OW 5920   0.450   2.262   3.351
 1787SOL    HW1 5921   0.525   2.202   3.354
 1787SOL    HW2 5922   0.374   2.205   3.363
 1788SOL     OW 5923   1.608   2.304   2.597
 1788SOL    HW1 5924   1.530   2.329   2.549
 1788SOL    HW2 5925   1.628   2.381   2.651
 1789SOL     OW 5926   0.224   3.571   2.328
 1789SOL    HW1 5927   0.226   3.653   2.378
 1789SOL    HW2 5928   0.301   3.575   2.271
 1790SOL     OW 5929   1.137   3.203   3.555
 1790SOL    HW1 5930   1.178   3.198   3.642
 1790SOL    HW2 5931   1.084   3.124   3.548
 1791SOL     OW 5932   0.249   3.305   2.402
 1791SOL    HW1 5933   0.221   3.396   2.388
 1791SOL    HW2 5934   0.179   3.267   2.455
 1792SOL     OW 5935   0.246   2.930   2.746
 1792SOL    HW1 5936   0.266   2.845   2.787
 1792SOL    HW2 5937   0.194   2.976   2.811
 1793SOL     OW 5938   0.612   3.648   3.290
 1793SOL    HW1 5939   0.529   3.634   3.337
 1793SOL    HW2 5940   0.638   3.737   3.315
 1794SOL     OW 5941   0.579   2.847   1.999
 1794SOL    HW1 5942   0.626   2.892   1.930
 1794SOL    HW2 5943   0.621   2.876   2.080
 1795SOL     OW 5944   1.597   1.991   3.327
 1795SOL    HW1 5945   1.586   2.076   3.284
 1795SOL    HW2 5946   1.587   2.011   3.420
 1796SOL     OW 5947   0.142   2.513   2.436
 1796SOL    HW1 5948   0.087   2.435   2.435
 1796SOL    HW2 5949   0.105   2.567   2.506
 1797SOL     OW 5950   1.842   3.611   2.200
 1797SOL    HW1 5951   1.910   3.587   2.263
 1797SOL    HW2 5952   1.863   3.701   2.176
 1798SOL     OW 5953   0.041   3.454   2.002
 1798SOL    HW1 5954   0.033   3.361   2.026
 1798SOL    HW2 5955   3.960   3.494   2.034
 1799SOL     OW 5956   1.690   2.781   2.504
 1799SOL    HW1 5957   1.771   2.736   2.480
 1799SOL    HW2 5958   1.666   2.831   2.426
 1800SOL     OW 5959   1.646   2.968   2.291
 1800SOL    HW1 5960   1.732   2.972   2.249
 1800SOL    HW2 5961   1.652   3.030   2.364
 1801SOL     OW 5962   0.137   2.615   3.452
 1801SOL    HW1 5963   0.233   2.609   3.450
 1801SOL    HW2 5964   0.119   2.704   3.479
 1802SOL     OW 5965   0.615   3.248   2.596
 1802SOL    HW1 5966   0.568   3.165   2.606
 1802SOL    HW2 5967   0.598   3.274   2.506
 1803SOL     OW 5968   1.288   3.099   3.285
 1803SOL    HW1 5969   1.320   3.032   3.225
 1803SOL    HW2 5970   1.346   3.094   3.360
 1804SOL     OW 5971   0.818   1.862   2.372
 1804SOL    HW1 5972   0.858   1.946   2.352
 1804SOL    HW2 5973   0.725   1.880   2.379
 1805SOL     OW 5974   0.185   2.813   3.140
 1805SOL    HW1 5975   0.273   2.778   3.127
 1805SOL    HW2 5976   0.132   2.773   3.071
 1806SOL     OW 5977   1.531   2.857   2.061
 1806SOL    HW1 5978   1.462   2.799   2.093
 1806SOL    HW2 5979   1.573   2.891   2.140
 1807SOL     OW 5980   1.214   3.665   3.488
 1807SOL    HW1 5981   1.194   3.726   3.417
 1807SOL    HW2 5982   1.216   3.579   3.447
 1808SOL     OW 5983   0.340   2.109   3.677
 1808SOL    HW1 5984   0.378   2.197   3.684
 1808SOL    HW2 5985   0.249   2.120   3.702
 1809SOL     OW 5986   1.466   3.282   2.812
 1809SOL    HW1 5987   1.398   3.297   2.879
 1809SOL    HW2 5988   1.454   3.190   2.786
 1810SOL     OW 5989   1.655   3.601   2.442
 1810SOL    HW1 5990   1.641   3.570   2.353
 1810SOL    HW2 5991   1.631   3.526   2.497
 1811SOL     OW 5992   0.596   2.579   2.127
 1811SOL    HW1 5993   0.603   2.663   2.081
 1811SOL    HW2 5994   0.533   2.595   2.197
 1812SOL     OW 5995   1.279   2.220   2.796
 1812SOL    HW1 5996   1.191   2.184   2.806
 1812SOL    HW2 5997   1.334   2.164   2.852
 1813SOL     OW 5998   1.577   3.537   2.170
 1813SOL    HW1 5999   1.670   3.562   2.165
 1813SOL    HW2 6000   1.552   3.517   2.080
 1814SOL     OW 6001   0.791   2.480   3.313
 1814SOL    HW1 6002   0.765   2.455   3.402
 1814SOL    HW2 6003   0.752   2.413   3.257
 1815SOL     OW 6004   1.393   2.335   3.539
 1815SOL    HW1 6005   1.395   2.381   3.623
 1815SOL    HW2 6006   1.457   2.265   3.549
 1816SOL     OW 6007   0.953   2.749   3.445
 1816SOL    HW1 6008   1.008   2.679   3.409
 1816SOL    HW2 6009   0.905   2.783   3.370
 1817SOL     OW 6010   0.993   2.274   3.100
 1817SOL    HW1 6011   0.906   2.295   3.135
 1817SOL    HW2 6012   0.975   2.229   3.017
 1818SOL     OW 6013   1.052   2.561   2.288
 1818SOL    HW1 6014   1.068   2.553   2.382
 1818SOL    HW2 6015   0.969   2.514   2.274
 1819SOL     OW 6016   0.082   2.689   2.652
 1819SOL    HW1 6017   0.158   2.660   2.702
 1819SOL    HW2 6018   0.097   2.783   2.639
 1820SOL     OW 6019   0.127   3.716   3.438
 1820SOL    HW1 6020   0.134   3.684   3.528
 1820SOL    HW2 6021   0.035   3.703   3.416
 1821SOL     OW 6022   0.895   2.211   2.055
 1821SOL    HW1 6023   0.935   2.274   1.995
 1821SOL    HW2 6024   0.914   2.126   2.016
 1822SOL     OW 6025   1.674   2.446   3.696
 1822SOL    HW1 6026   1.649   2.516   3.636
 1822SOL    HW2 6027   1.723   2.384   3.642
 1823SOL     OW 6028   1.378   3.004   2.403
 1823SOL    HW1 6029   1.457   2.991   2.350
 1823SOL    HW2 6030   1.325   3.066   2.352
 1824SOL     OW 6031   0.545   2.041   2.756
 1824SOL    HW1 6032   0.552   2.072   2.846
 1824SOL    HW2 6033   0.546   2.120   2.702
 1825SOL     OW 6034   1.005   3.307   2.333
 1825SOL    HW1 6035   0.967   3.380   2.285
 1825SOL    HW2 6036   0.986   3.327   2.425
 1826SOL     OW 6037   0.359   3.670   2.722
 1826SOL    HW1 6038   0.436   3.615   2.734
 1826SOL    HW2 6039   0.391   3.759   2.731
 1827SOL     OW 6040   1.800   2.917   2.730
 1827SOL    HW1 6041   1.746   2.898   2.653
 1827SOL    HW2 6042   1.737   2.923   2.802
 1828SOL     OW 6043   1.228   3.399   3.373
 1828SOL    HW1 6044   1.214   3.327   3.435
 1828SOL    HW2 6045   1.161   3.386   3.306
 1829SOL     OW 6046   0.311   2.817   2.104
 1829SOL    HW1 6047   0.395   2.840   2.064
 1829SOL    HW2 6048   0.297   2.725   2.081
 1830SOL     OW 6049   1.479   2.607   2.589
 1830SOL    HW1 6050   1.472   2.563   2.674
 1830SOL    HW2 6051   1.558   2.661   2.595
 1831SOL     OW 6052   0.467   3.122   3.599
 1831SOL    HW1 6053   0.441   3.130   3.507
 1831SOL    HW2 6054   0.385   3.126   3.648
 1832SOL     OW 6055   1.113   3.643   2.084
 1832SOL    HW1 6056   1.050   3.596   2.139
 1832SOL    HW2 6057   1.143   3.577   2.021
 1833SOL     OW 6058   0.204   2.138   3.370
 1833SOL    HW1 6059   0.114   2.170   3.362
 1833SOL    HW2 6060   0.195   2.052   3.411
 1834SOL     OW 6061   1.628   3.243   1.952
 1834SOL    HW1 6062   1.587   3.328   1.934
 1834SOL    HW2 6063   1.559   3.179   1.931
 1835SOL     OW 6064   0.468   3.600   2.183
 1835SOL    HW1 6065   0.507   3.663   2.244
 1835SOL    HW2 6066   0.542   3.573   2.128
 1836SOL     OW 6067   1.396   1.968   2.293
 1836SOL    HW1 6068   1.381   1.946   2.201
 1836SOL    HW2 6069   1.491   1.956   2.305
 1837SOL     OW 6070   0.252   3.656   3.090
 1837SOL    HW1 6071   0.297   3.591   3.143
 1837SOL    HW2 6072   0.250   3.618   3.002
 1838SOL     OW 6073   0.937   3.562   2.762
 1838SOL    HW1 6074   1.015   3.510   2.784
 1838SOL    HW2 6075   0.893   3.513   2.693
 1839SOL     OW 6076   0.398   2.555   2.334
 1839SOL    HW1 6077   0.423   2.464   2.348
 1839SOL    HW2 6078   0.306   2.559   2.360
 1840SOL     OW 6079   1.536   2.086   3.587
 1840SOL    HW1 6080   1.547   2.107   3.680
 1840SOL    HW2 6081   1.465   2.023   3.585
 1841SOL     OW 6082   0.638   1.981   1.961
 1841SOL    HW1 6083   0.703   1.913   1.979
 1841SOL    HW2 6084   0.590   1.949   1.884
 1842SOL     OW 6085   0.766   2.140   3.616
 1842SOL    HW1 6086   0.843   2.084   3.616
 1842SOL    HW2 6087   0.719   2.116   3.696
 1843SOL     OW 6088   0.876   3.382   3.056
 1843SOL    HW1 6089   0.860   3.346   2.969
 1843SOL    HW2 6090   0.946   3.328   3.092
 1844SOL     OW 6091   1.341   2.451   3.294
 1844SOL    HW1 6092   1.371   2.419   3.379
 1844SOL    HW2 6093   1.377   2.539   3.287
 1845SOL     OW 6094   0.816   3.255   2.802
 1845SOL    HW1 6095   0.901   3.244   2.759
 1845SOL    HW2 6096   0.753   3.256   2.730
 1846SOL     OW 6097   0.928   2.371   2.765
 1846SOL    HW1 6098   0.905   2.363   2.672
 1846SOL    HW2 6099   0.959   2.284   2.789
 1847SOL     OW 6100   0.555   1.924   2.359
 1847SOL    HW1 6101   0.473   1.929   2.408
 1847SOL    HW2 6102   0.559   2.007   2.310
 1848SOL     OW 6103   1.428   3.061   1.902
 1848SOL    HW1 6104   1.459   2.985   1.952
 1848SOL    HW2 6105   1.342   3.081   1.940
 1849SOL     OW 6106   0.308   1.913   2.032
 1849SOL    HW1 6107   0.372   1.952   1.973
 1849SOL    HW2 6108   0.357   1.847   2.082
 1850SOL     OW 6109   0.939   2.108   2.322
 1850SOL    HW1 6110   0.910   2.149   2.241
 1850SOL    HW2 6111   1.033   2.125   2.325
 1851SOL     OW 6112   1.080   2.543   3.321
 1851SOL    HW1 6113   1.013   2.476   3.326
 1851SOL    HW2 6114   1.162   2.495   3.315
 1852SOL     OW 6115   1.222   3.432   2.656
 1852SOL    HW1 6116   1.238   3.500   2.590
 1852SOL    HW2 6117   1.291   3.446   2.721
 1853SOL     OW 6118   0.466   3.012   2.598
 1853SOL    HW1 6119   0.395   2.989   2.657
 1853SOL    HW2 6120   0.432   2.997   2.510
 1854SOL     OW 6121   1.267   3.657   2.469
 1854SOL    HW1 6122   1.313   3.722   2.415
 1854SOL    HW2 6123   1.196   3.707   2.509
 1855SOL     OW 6124   1.023   2.402   1.886
 1855SOL    HW1 6125   0.981   2.486   1.867
 1855SOL    HW2 6126   1.090   2.423   1.951
 1856SOL     OW 6127   0.081   2.434   3.252
 1856SOL    HW1 6128   0.171   2.420   3.222
 1856SOL    HW2 6129   0.088   2.503   3.317
 1857SOL     OW 6130   0.567   2.089   3.027
 1857SOL    HW1 6131   0.608   2.013   3.069
 1857SOL    HW2 6132   0.475   2.086   3.056
 1858SOL     OW 6133   0.867   2.321   2.502
 1858SOL    HW1 6134   0.820   2.374   2.438
 1858SOL    HW2 6135   0.888   2.240   2.454
 1859SOL     OW 6136   1.016   1.915   2.613
 1859SOL    HW1 6137   0.958   1.910   2.537
 1859SOL    HW2 6138   0.993   1.840   2.667
 1860SOL     OW 6139   1.437   3.024   2.719
 1860SOL    HW1 6140   1.368   2.959   2.718
 1860SOL    HW2 6141   1.462   3.034   2.627
 1861SOL     OW 6142   1.465   2.468   2.836
 1861SOL    HW1 6143   1.413   2.388   2.839
 1861SOL    HW2 6144   1.524   2.461   2.912
 1862SOL     OW 6145   1.845   2.680   2.246
 1862SOL    HW1 6146   1.903   2.628   2.302
 1862SOL    HW2 6147   1.813   2.618   2.181
 1863SOL     OW 6148   0.489   3.280   2.022
 1863SOL    HW1 6149   0.413   3.250   2.072
 1863SOL    HW2 6150   0.469   3.254   1.931
 1864SOL     OW 6151   1.672   3.126   2.507
 1864SOL    HW1 6152   1.766   3.128   2.520
 1864SOL    HW2 6153   1.642   3.215   2.528
 1865SOL     OW 6154   1.391   2.437   1.930
 1865SOL    HW1 6155   1.338   2.413   2.006
 1865SOL    HW2 6156   1.481   2.417   1.956
 1866SOL     OW 6157   0.573   2.131   2.182
 1866SOL    HW1 6158   0.602   2.082   2.105
 1866SOL    HW2 6159   0.541   2.214   2.148
 1867SOL     OW 6160   1.752   3.102   3.433
 1867SOL    HW1 6161   1.839   3.063   3.431
 1867SOL    HW2 6162   1.767   3.193   3.460
 1868SOL     OW 6163   1.057   3.214   3.194
 1868SOL    HW1 6164   0.983   3.184   3.246
 1868SOL    HW2 6165   1.133   3.174   3.236
 1869SOL     OW 6166   1.609   3.488   3.517
 1869SOL    HW1 6167   1.602   3.522   3.428
 1869SOL    HW2 6168   1.692   3.440   3.518
 1870SOL     OW 6169   1.130   3.067   2.966
 1870SOL    HW1 6170   1.071   3.104   3.032
 1870SOL    HW2 6171   1.098   3.099   2.883
 1871SOL     OW 6172   1.627   2.960   2.938
 1871SOL    HW1 6173   1.622   3.022   3.011
 1871SOL    HW2 6174   1.549   2.977   2.887
 1872SOL     OW 6175   0.918   1.958   3.257
 1872SOL    HW1 6176   0.941   1.939   3.166
 1872SOL    HW2 6177   0.997   1.998   3.294
 1873SOL     OW 6178   0.984   2.977   3.584
 1873SOL    HW1 6179   0.892   2.993   3.606
 1873SOL    HW2 6180   0.982   2.899   3.529
 1874SOL     OW 6181   0.707   2.922   2.233
 1874SOL    HW1 6182   0.694   2.906   2.326
 1874SOL    HW2 6183   0.784   2.869   2.210
 1875SOL     OW 6184   0.421   2.678   3.114
 1875SOL    HW1 6185   0.490   2.686   3.180
 1875SOL    HW2 6186   0.387   2.589   3.126
 1876SOL     OW 6187   1.265   2.237   3.139
 1876SOL    HW1 6188   1.298   2.315   3.184
 1876SOL    HW2 6189   1.175   2.259   3.116
 1877SOL     OW 6190   0.065   3.441   3.208
 1877SOL    HW1 6191   0.070   3.502   3.133
 1877SOL    HW2 6192   0.156   3.428   3.234
 1878SOL     OW 6193   0.371   2.964   2.346
 1878SOL    HW1 6194   0.367   3.044   2.293
 1878SOL    HW2 6195   0.371   2.893   2.282
 1879SOL     OW 6196   0.550   2.399   2.724
 1879SOL    HW1 6197   0.566   2.455   2.648
 1879SOL    HW2 6198   0.617   2.425   2.787
 1880SOL     OW 6199   1.248   3.211   2.251
 1880SOL    HW1 6200   1.304   3.282   2.282
 1880SOL    HW2 6201   1.161   3.232   2.285
 1881SOL     OW 6202   1.283   3.321   3.009
 1881SOL    HW1 6203   1.338   3.324   3.087
 1881SOL    HW2 6204   1.227   3.244   3.023
 1882SOL     OW 6205   1.577   2.482   2.339
 1882SOL    HW1 6206   1.534   2.541   2.401
 1882SOL    HW2 6207   1.623   2.540   2.279
 1883SOL     OW 6208   0.345   3.389   3.180
 1883SOL    HW1 6209   0.335   3.339   3.099
 1883SOL    HW2 6210   0.439   3.404   3.188
 1884SOL     OW 6211   0.415   2.601   3.463
 1884SOL    HW1 6212   0.477   2.647   3.406
 1884SOL    HW2 6213   0.455   2.516   3.480
 1885SOL     OW 6214   1.600   2.647   3.537
 1885SOL    HW1 6215   1.515   2.690   3.532
 1885SOL    HW2 6216   1.653   2.691   3.471
 1886SOL     OW 6217   0.996   1.988   3.616
 1886SOL    HW1 6218   1.053   2.060   3.591
 1886SOL    HW2 6219   1.044   1.909   3.591
 1887SOL     OW 6220   0.497   1.898   3.608
 1887SOL    HW1 6221   0.454   1.846   3.541
 1887SOL    HW2 6222   0.442   1.976   3.617
 1888SOL     OW 6223   0.584   2.736   2.893
 1888SOL    HW1 6224   0.617   2.826   2.893
 1888SOL    HW2 6225   0.529   2.730   2.971
 1889SOL     OW 6226   1.356   2.720   2.890
 1889SOL    HW1 6227   1.272   2.710   2.845
 1889SOL    HW2 6228   1.398   2.635   2.883
 1890SOL     OW 6229   1.204   2.390   2.129
 1890SOL    HW1 6230   1.211   2.312   2.184
 1890SOL    HW2 6231   1.161   2.455   2.184
 1891SOL     OW 6232   0.311   2.059   3.109
 1891SOL    HW1 6233   0.264   2.096   3.184
 1891SOL    HW2 6234   0.287   1.966   3.110
 1892SOL     OW 6235   0.059   3.167   3.142
 1892SOL    HW1 6236   0.090   3.127   3.223
 1892SOL    HW2 6237   0.051   3.260   3.163
 1893SOL     OW 6238   0.724   2.493   2.919
 1893SOL    HW1 6239   0.799   2.477   2.862
 1893SOL    HW2 6240   0.696   2.582   2.898
 1894SOL     OW 6241   1.734   2.822   3.714
 1894SOL    HW1 6242   1.690   2.757   3.659
 1894SOL    HW2 6243   1.675   2.836   3.788
 1895SOL     OW 6244   0.313   1.925   2.482
 1895SOL    HW1 6245   0.293   2.016   2.504
 1895SOL    HW2 6246   0.319   1.881   2.567
 1896SOL     OW 6247   1.609   2.233   2.237
 1896SOL    HW1 6248   1.619   2.185   2.319
 1896SOL    HW2 6249   1.588   2.323   2.265
 1897SOL     OW 6250   1.028   2.621   2.822
 1897SOL    HW1 6251   1.023   2.638   2.916
 1897SOL    HW2 6252   1.002   2.529   2.813
 1898SOL     OW 6253   0.985   3.429   3.581
 1898SOL    HW1 6254   0.967   3.471   3.497
 1898SOL    HW2 6255   1.027   3.347   3.558
 1899SOL     OW 6256   1.854   3.366   3.466
 1899SOL    HW1 6257   1.873   3.394   3.377
 1899SOL    HW2 6258   1.935   3.385   3.515
 1900SOL     OW 6259   0.352   2.783   3.663
 1900SOL    HW1 6260   0.431   2.804   3.713
 1900SOL    HW2 6261   0.380   2.716   3.600
 1901SOL     OW 6262   1.530   2.131   1.990
 1901SOL    HW1 6263   1.462   2.070   2.018
 1901SOL    HW2 6264   1.562   2.171   2.071
 1902SOL     OW 6265   1.290   2.689   1.892
 1902SOL    HW1 6266   1.332   2.603   1.896
 1902SOL    HW2 6267   1.322   2.728   1.811
 1903SOL     OW 6268   1.066   3.198   2.716
 1903SOL    HW1 6269   1.070   3.126   2.654
 1903SOL    HW2 6270   1.127   3.263   2.681
 1904SOL     OW 6271   0.314   2.665   2.812
 1904SOL    HW1 6272   0.407   2.683   2.806
 1904SOL    HW2 6273   0.308   2.575   2.844
 1905SOL     OW 6274   0.330   2.382   2.876
 1905SOL    HW1 6275   0.296   2.294   2.859
 1905SOL    HW2 6276   0.406   2.390   2.818
 1906SOL     OW 6277   1.134   2.237   3.545
 1906SOL    HW1 6278   1.087   2.292   3.608
 1906SOL    HW2 6279   1.222   2.275   3.542
 1907SOL     OW 6280   1.161   2.064   3.333
 1907SOL    HW1 6281   1.150   2.126   3.404
 1907SOL    HW2 6282   1.201   2.115   3.262
 1908SOL     OW 6283   4.000   3.181   2.044
 1908SOL    HW1 6284   3.905   3.197   2.048
 1908SOL    HW2 6285   0.009   3.087   2.062
 1909SOL     OW 6286   0.075   3.663   2.756
 1909SOL    HW1 6287   0.088   3.568   2.757
 1909SOL    HW2 6288   0.164   3.699   2.754
 1910SOL     OW 6289   0.507   3.427   2.778
 1910SOL    HW1 6290   0.573   3.492   2.798
 1910SOL    HW2 6291   0.550   3.367   2.716
 1911SOL     OW 6292   0.981   2.653   3.088
 1911SOL    HW1 6293   1.038   2.631   3.161
 1911SOL    HW2 6294   0.896   2.615   3.111
 1912SOL     OW 6295   0.037   2.418   2.972
 1912SOL    HW1 6296   0.120   2.394   2.929
 1912SOL    HW2 6297   0.057   2.415   3.065
 1913SOL     OW 6298   0.206   2.375   3.589
 1913SOL    HW1 6299   0.247   2.329   3.516
 1913SOL    HW2 6300   0.158   2.447   3.549
 1914SOL     OW 6301   1.374   2.802   3.519
 1914SOL    HW1 6302   1.397   2.895   3.516
 1914SOL    HW2 6303   1.371   2.775   3.427
 1915SOL     OW 6304   0.818   2.431   2.223
 1915SOL    HW1 6305   0.822   2.355   2.164
 1915SOL    HW2 6306   0.744   2.482   2.190
 1916SOL     OW 6307   1.642   2.465   3.045
 1916SOL    HW1 6308   1.632   2.410   3.124
 1916SOL    HW2 6309   1.729   2.441   3.011
 1917SOL     OW 6310   0.298   3.408   3.590
 1917SOL    HW1 6311   0.249   3.477   3.633
 1917SOL    HW2 6312   0.266   3.327   3.629
 1918SOL     OW 6313   0.704   2.312   3.120
 1918SOL    HW1 6314   0.652   2.238   3.090
 1918SOL    HW2 6315   0.699   2.375   3.049
 1919SOL     OW 6316   0.929   3.534   3.330
 1919SOL    HW1 6317   0.902   3.498   3.246
 1919SOL    HW2 6318   0.921   3.629   3.319
 1920SOL     OW 6319   0.457   2.352   2.056
 1920SOL    HW1 6320   0.522   2.420   2.074
 1920SOL    HW2 6321   0.377   2.400   2.035
 1921SOL     OW 6322   0.156   2.997   3.336
 1921SOL    HW1 6323   0.157   2.946   3.417
 1921SOL    HW2 6324   0.171   2.933   3.267
 1922SOL     OW 6325   1.325   2.908   3.084
 1922SOL    HW1 6326   1.347   2.844   3.016
 1922SOL    HW2 6327   1.256   2.961   3.045
 1923SOL     OW 6328   1.312   2.719   2.168
 1923SOL    HW1 6329   1.237   2.687   2.218
 1923SOL    HW2 6330   1.287   2.705   2.076
 1924SOL     OW 6331   1.770   3.604   3.011
 1924SOL    HW1 6332   1.833   3.632   2.944
 1924SOL    HW2 6333   1.749   3.514   2.989
 1925SOL     OW 6334   1.243   3.595   2.972
 1925SOL    HW1 6335   1.326   3.616   2.929
 1925SOL    HW2 6336   1.249   3.502   2.992
 1926SOL     OW 6337   0.076   3.077   2.890
 1926SOL    HW1 6338   0.083   3.104   2.981
 1926SOL    HW2 6339   3.983   3.087   2.869
 1927SOL     OW 6340   0.679   3.526   3.593
 1927SOL    HW1 6341   0.622   3.603   3.596
 1927SOL    HW2 6342   0.739   3.544   3.520
 1928SOL     OW 6343   1.390   3.431   2.348
 1928SOL    HW1 6344   1.450   3.464   2.281
 1928SOL    HW2 6345   1.342   3.508   2.378
 1929SOL     OW 6346   0.169   3.625   3.693
 1929SOL    HW1 6347   0.113   3.573   3.751
 1929SOL    HW2 6348   0.216   3.684   3.752
 1930SOL     OW 6349   1.277   2.788   2.533
 1930SOL    HW1 6350   1.351   2.728   2.541
 1930SOL    HW2 6351   1.311   2.860   2.480
 1931SOL     OW 6352   0.812   3.136   3.291
 1931SOL    HW1 6353   0.784   3.175   3.373
 1931SOL    HW2 6354   0.742   3.155   3.229
 1932SOL     OW 6355   0.675   3.478   2.019
 1932SOL    HW1 6356   0.683   3.494   1.925
 1932SOL    HW2 6357   0.617   3.402   2.026
 1933SOL     OW 6358   1.624   3.588   3.252
 1933SOL    HW1 6359   1.675   3.594   3.171
 1933SOL    HW2 6360   1.610   3.679   3.278
 1934SOL     OW 6361   0.267   2.176   2.579
 1934SOL    HW1 6362   0.181   2.209   2.553
 1934SOL    HW2 6363   0.261   2.166   2.674
 1935SOL     OW 6364   1.207   3.467   1.897
 1935SOL    HW1 6365   1.197   3.375   1.921
 1935SOL    HW2 6366   1.146   3.480   1.825
 1936SOL     OW 6367   0.823   2.868   3.235
 1936SOL    HW1 6368   0.868   2.863   3.150
 1936SOL    HW2 6369   0.822   2.961   3.256
 1937SOL     OW 6370   0.916   2.772   2.152
 1937SOL    HW1 6371   0.976   2.804   2.086
 1937SOL    HW2 6372   0.964   2.703   2.198
 1938SOL     OW 6373   1.490   3.490   1.904
 1938SOL    HW1 6374   1.396   3.480   1.888
 1938SOL    HW2 6375   1.528   3.495   1.817
 1939SOL     OW 6376   0.374   3.165   3.353
 1939SOL    HW1 6377   0.359   3.245   3.303
 1939SOL    HW2 6378   0.296   3.111   3.336
 1940SOL     OW 6379   1.610   3.145   3.142
 1940SOL    HW1 6380   1.670   3.133   3.216
 1940SOL    HW2 6381   1.550   3.213   3.171
 1941SOL     OW 6382   1.054   2.970   2.569
 1941SOL    HW1 6383   0.983   2.919   2.608
 1941SOL    HW2 6384   1.117   2.904   2.539
 1942SOL     OW 6385   1.022   2.102   2.829
 1942SOL    HW1 6386   1.018   2.055   2.746
 1942SOL    HW2 6387   1.017   2.034   2.895
 1943SOL     OW 6388   0.605   3.352   2.343
 1943SOL    HW1 6389   0.649   3.302   2.274
 1943SOL    HW2 6390   0.534   3.397   2.297
 1944SOL     OW 6391   1.723   2.255   3.239
 1944SOL    HW1 6392   1.797   2.315   3.246
 1944SOL    HW2 6393   1.751   2.189   3.176
 1945SOL     OW 6394   0.253   3.203   2.153
 1945SOL    HW1 6395   0.160   3.212   2.134
 1945SOL    HW2 6396   0.263   3.241   2.240
 1946SOL     OW 6397   0.106   2.860   3.579
 1946SOL    HW1 6398   0.046   2.853   3.653
 1946SOL    HW2 6399   0.193   2.842   3.617
 1947SOL     OW 6400   0.675   2.058   3.361
 1947SOL    HW1 6401   0.759   2.037   3.320
 1947SOL    HW2 6402   0.698   2.090   3.449
 1948SOL     OW 6403   0.081   2.178   1.899
 1948SOL    HW1 6404   3.985   2.178   1.906
 1948SOL    HW2 6405   0.101   2.259   1.852
 1949SOL     OW 6406   1.429   2.721   3.261
 1949SOL    HW1 6407   1.380   2.782   3.206
 1949SOL    HW2 6408   1.518   2.723   3.227
 1950SOL     OW 6409   0.020   2.093   2.236
 1950SOL    HW1 6410   0.045   2.158   2.170
 1950SOL    HW2 6411   0.103   2.055   2.265
 1951SOL     OW 6412   1.178   3.200   1.979
 1951SOL    HW1 6413   1.087   3.171   1.981
 1951SOL    HW2 6414   1.205   3.200   2.071
 1952SOL     OW 6415   0.619   2.692   3.298
 1952SOL    HW1 6416   0.675   2.768   3.282
 1952SOL    HW2 6417   0.680   2.619   3.306
 1953SOL     OW 6418   1.485   3.640   2.842
 1953SOL    HW1 6419   1.509   3.698   2.769
 1953SOL    HW2 6420   1.569   3.619   2.884
 1954SOL     OW 6421   0.716   2.425   3.566
 1954SOL    HW1 6422   0.760   2.488   3.625
 1954SOL    HW2 6423   0.743   2.339   3.599
 1955SOL     OW 6424   1.472   3.061   3.493
 1955SOL    HW1 6425   1.460   3.075   3.587
 1955SOL    HW2 6426   1.566   3.077   3.478
 1956SOL     OW 6427   0.378   3.606   3.421
 1956SOL    HW1 6428   0.291   3.642   3.408
 1956SOL    HW2 6429   0.364   3.524   3.468
 1957SOL     OW 6430   1.669   2.743   3.116
 1957SOL    HW1 6431   1.661   2.658   3.073
 1957SOL    HW2 6432   1.658   2.807   3.045
 1958SOL     OW 6433   1.215   2.182   2.320
 1958SOL    HW1 6434   1.278   2.110   2.312
 1958SOL    HW2 6435   1.244   2.231   2.397
 1959SOL     OW 6436   0.589   2.600   2.533
 1959SOL    HW1 6437   0.628   2.686   2.518
 1959SOL    HW2 6438   0.523   2.591   2.465
 1960SOL     OW 6439   1.756   2.239   3.517
 1960SOL    HW1 6440   1.746   2.246   3.422
 1960SOL    HW2 6441   1.685   2.180   3.544
 1961SOL     OW 6442   1.748   2.799   3.371
 1961SOL    HW1 6443   1.741   2.894   3.384
 1961SOL    HW2 6444   1.731   2.787   3.277
 1962SOL     OW 6445   0.864   3.229   1.899
 1962SOL    HW1 6446   0.823   3.257   1.980
 1962SOL    HW2 6447   0.879   3.310   1.850
 1963SOL     OW 6448   0.659   3.652   2.799
 1963SOL    HW1 6449   0.637   3.743   2.780
 1963SOL    HW2 6450   0.754   3.649   2.797
 1964SOL     OW 6451   0.868   2.829   2.716
 1964SOL    HW1 6452   0.918   2.758   2.755
 1964SOL    HW2 6453   0.833   2.877   2.791
 1965SOL     OW 6454   1.077   2.850   1.950
 1965SOL    HW1 6455   1.057   2.901   1.872
 1965SOL    HW2 6456   1.153   2.797   1.925
 1966SOL     OW 6457   1.852   3.414   2.704
 1966SOL    HW1 6458   1.772   3.403   2.653
 1966SOL    HW2 6459   1.844   3.350   2.775
 1967SOL     OW 6460   0.225   3.166   3.718
 1967SOL    HW1 6461   0.153   3.109   3.692
 1967SOL    HW2 6462   0.213   3.179   3.812
 1968SOL     OW 6463   0.113   3.138   2.582
 1968SOL    HW1 6464   0.130   3.088   2.662
 1968SOL    HW2 6465   0.106   3.072   2.513
 1969SOL     OW 6466   0.682   3.265   3.491
 1969SOL    HW1 6467   0.601   3.223   3.521
 1969SOL    HW2 6468   0.678   3.354   3.528
 1970SOL     OW 6469   0.441   2.296   2.395
 1970SOL    HW1 6470   0.443   2.226   2.330
 1970SOL    HW2 6471   0.386   2.262   2.466
 1971SOL     OW 6472   1.700   3.349   2.955
 1971SOL    HW1 6473   1.619   3.327   2.910
 1971SOL    HW2 6474   1.711   3.281   3.022
 1972SOL     OW 6475   0.333   2.418   3.153
 1972SOL    HW1 6476   0.388   2.362   3.208
 1972SOL    HW2 6477   0.349   2.387   3.064
 1973SOL     OW 6478   0.827   3.441   2.539
 1973SOL    HW1 6479   0.813   3.492   2.459
 1973SOL    HW2 6480   0.752   3.381   2.542
 1974SOL     OW 6481   1.438   2.091   2.981
 1974SOL    HW1 6482   1.449   2.004   3.019
 1974SOL    HW2 6483   1.383   2.138   3.044
 1975SOL     OW 6484   1.009   1.879   3.003
 1975SOL    HW1 6485   0.955   1.812   2.962
 1975SOL    HW2 6486   1.097   1.842   3.005
 1976SOL     OW 6487   0.772   3.194   2.179
 1976SOL    HW1 6488   0.741   3.104   2.185
 1976SOL    HW2 6489   0.855   3.195   2.227
 1977SOL     OW 6490   0.620   3.416   3.147
 1977SOL    HW1 6491   0.622   3.498   3.197
 1977SOL    HW2 6492   0.708   3.410   3.109
 1978SOL     OW 6493   1.350   1.914   2.028
 1978SOL    HW1 6494   1.379   1.852   1.961
 1978SOL    HW2 6495   1.263   1.883   2.053
 1979SOL     OW 6496   1.297   2.323   2.542
 1979SOL    HW1 6497   1.244   2.403   2.549
 1979SOL    HW2 6498   1.292   2.284   2.630
 1980SOL     OW 6499   1.572   2.054   2.732
 1980SOL    HW1 6500   1.535   2.080   2.816
 1980SOL    HW2 6501   1.587   2.137   2.686
 1981SOL     OW 6502   0.047   2.912   2.101
 1981SOL    HW1 6503   0.141   2.896   2.092
 1981SOL    HW2 6504   0.011   2.830   2.135
 1982SOL     OW 6505   0.885   3.519   2.206
 1982SOL    HW1 6506   0.814   3.500   2.144
 1982SOL    HW2 6507   0.854   3.595   2.255
 1983SOL     OW 6508   0.231   2.485   3.844
 1983SOL    HW1 6509   0.138   2.494   3.865
 1983SOL    HW2 6510   0.233   2.454   3.753
 1984SOL     OW 6511   0.229   2.133   4.711
 1984SOL    HW1 6512   0.249   2.100   4.798
 1984SOL    HW2 6513   0.134   2.126   4.704
 1985SOL     OW 6514   0.010   2.222   4.355
 1985SOL    HW1 6515   3.923   2.240   4.388
 1985SOL    HW2 6516   3.995   2.189   4.266
 1986SOL     OW 6517   0.578   3.148   4.911
 1986SOL    HW1 6518   0.492   3.152   4.870
 1986SOL    HW2 6519   0.593   3.237   4.945
 1987SOL     OW 6520   1.562   3.373   4.432
 1987SOL    HW1 6521   1.520   3.352   4.515
 1987SOL    HW2 6522   1.490   3.376   4.369
 1988SOL     OW 6523   1.131   2.560   4.424
 1988SOL    HW1 6524   1.180   2.641   4.410
 1988SOL    HW2 6525   1.084   2.574   4.506
 1989SOL     OW 6526   1.751   2.476   3.957
 1989SOL    HW1 6527   1.736   2.471   3.862
 1989SOL    HW2 6528   1.751   2.385   3.986
 1990SOL     OW 6529   0.755   3.002   4.765
 1990SOL    HW1 6530   0.690   3.037   4.826
 1990SOL    HW2 6531   0.790   3.079   4.720
 1991SOL     OW 6532   0.868   2.634   5.546
 1991SOL    HW1 6533   0.857   2.705   5.608
 1991SOL    HW2 6534   0.892   2.677   5.464
 1992SOL     OW 6535   0.685   2.864   4.370
 1992SOL    HW1 6536   0.751   2.853   4.439
 1992SOL    HW2 6537   0.616   2.916   4.412
 1993SOL     OW 6538   0.711   3.012   5.539
 1993SOL    HW1 6539   0.759   3.090   5.566
 1993SOL    HW2 6540   0.629   3.045   5.502
 1994SOL     OW 6541   0.351   3.264   4.802
 1994SOL    HW1 6542   0.268   3.249   4.755
 1994SOL    HW2 6543   0.400   3.323   4.745
 1995SOL     OW 6544   1.460   3.362   5.079
 1995SOL    HW1 6545   1.513   3.441   5.089
 1995SOL    HW2 6546   1.396   3.367   5.150
 1996SOL     OW 6547   0.450   2.262   5.213
 1996SOL    HW1 6548   0.525   2.202   5.215
 1996SOL    HW2 6549   0.374   2.205   5.225
 1997SOL     OW 6550   1.608   2.305   4.459
 1997SOL    HW1 6551   1.529   2.329   4.411
 1997SOL    HW2 6552   1.627   2.381   4.514
 1998SOL     OW 6553   0.224   3.571   4.190
 1998SOL    HW1 6554   0.226   3.653   4.240
 1998SOL    HW2 6555   0.301   3.575   4.133
 1999SOL     OW 6556   1.137   3.203   5.417
 1999SOL    HW1 6557   1.178   3.198   5.503
 1999SOL    HW2 6558   1.084   3.123   5.410
 2000SOL     OW 6559   0.249   3.305   4.264
 2000SOL    HW1 6560   0.221   3.396   4.250
 2000SOL    HW2 6561   0.179   3.267   4.317
 2001SOL     OW 6562   0.247   2.930   4.608
 2001SOL    HW1 6563   0.266   2.845   4.649
 2001SOL    HW2 6564   0.194   2.976   4.673
 2002SOL     OW 6565   0.612   3.648   5.152
 2002SOL    HW1 6566   0.529   3.634   5.199
 2002SOL    HW2 6567   0.638   3.737   5.177
 2003SOL     OW 6568   0.579   2.847   3.861
 2003SOL    HW1 6569   0.626   2.892   3.792
 2003SOL    HW2 6570   0.621   2.876   3.942
 2004SOL     OW 6571   1.596   1.991   5.189
 2004SOL    HW1 6572   1.585   2.076   5.146
 2004SOL    HW2 6573   1.586   2.010   5.282
 2005SOL     OW 6574   0.142   2.513   4.298
 2005SOL    HW1 6575   0.087   2.435   4.297
 2005SOL    HW2 6576   0.105   2.567   4.368
 2006SOL     OW 6577   1.842   3.611   4.062
 2006SOL    HW1 6578   1.910   3.587   4.125
 2006SOL    HW2 6579   1.863   3.701   4.038
 2007SOL     OW 6580   0.041   3.454   3.864
 2007SOL    HW1 6581   0.033   3.361   3.888
 2007SOL    HW2 6582   3.960   3.494   3.896
 2008SOL     OW 6583   1.690   2.781   4.366
 2008SOL    HW1 6584   1.771   2.736   4.342
 2008SOL    HW2 6585   1.666   2.831   4.288
 2009SOL     OW 6586   1.646   2.968   4.153
 2009SOL    HW1 6587   1.732   2.972   4.112
 2009SOL    HW2 6588   1.652   3.030   4.226
 2010SOL     OW 6589   0.137   2.614   5.314
 2010SOL    HW1 6590   0.233   2.609   5.312
 2010SOL    HW2 6591   0.119   2.704   5.341
 2011SOL     OW 6592   0.615   3.248   4.458
 2011SOL    HW1 6593   0.568   3.165   4.468
 2011SOL    HW2 6594   0.598   3.274   4.368
 2012SOL     OW 6595   1.288   3.099   5.147
 2012SOL    HW1 6596   1.320   3.032   5.087
 2012SOL    HW2 6597   1.346   3.094   5.222
 2013SOL     OW 6598   0.818   1.862   4.234
 2013SOL    HW1 6599   0.858   1.946   4.214
 2013SOL    HW2 6600   0.725   1.880   4.241
 2014SOL     OW 6601   0.184   2.813   5.002
 2014SOL    HW1 6602   0.272   2.778   4.989
 2014SOL    HW2 6603   0.132   2.773   4.933
 2015SOL     OW 6604   1.531   2.857   3.923
 2015SOL    HW1 6605   1.462   2.799   3.954
 2015SOL    HW2 6606   1.573   2.891   4.002
 2016SOL     OW 6607   1.215   3.665   5.351
 2016SOL    HW1 6608   1.194   3.726   5.280
 2016SOL    HW2 6609   1.216   3.579   5.309
 2017SOL     OW 6610   0.340   2.109   5.540
 2017SOL    HW1 6611   0.377   2.197   5.545
 2017SOL    HW2 6612   0.248   2.121   5.565
 2018SOL     OW 6613   1.466   3.282   4.674
 2018SOL    HW1 6614   1.398   3.297   4.741
 2018SOL    HW2 6615   1.454   3.190   4.648
 2019SOL     OW 6616   1.655   3.601   4.304
 2019SOL    HW1 6617   1.641   3.570   4.215
 2019SOL    HW2 6618   1.631   3.526   4.359
 2020SOL     OW 6619   0.596   2.579   3.989
 2020SOL    HW1 6620   0.603   2.663   3.943
 2020SOL    HW2 6621   0.533   2.595   4.059
 2021SOL     OW 6622   1.279   2.220   4.659
 2021SOL    HW1 6623   1.191   2.184   4.668
 2021SOL    HW2 6624   1.334   2.164   4.714
 2022SOL     OW 6625   1.577   3.537   4.032
 2022SOL    HW1 6626   1.670   3.562   4.027
 2022SOL    HW2 6627   1.552   3.517   3.942
 2023SOL     OW 6628   0.791   2.480   5.175
 2023SOL    HW1 6629   0.765   2.455   5.264
 2023SOL    HW2 6630   0.753   2.413   5.119
 2024SOL     OW 6631   1.393   2.335   5.400
 2024SOL    HW1 6632   1.396   2.381   5.483
 2024SOL    HW2 6633   1.456   2.264   5.410
 2025SOL     OW 6634   0.953   2.749   5.307
 2025SOL    HW1 6635   1.008   2.679   5.271
 2025SOL    HW2 6636   0.905   2.783   5.232
 2026SOL     OW 6637   0.992   2.274   4.962
 2026SOL    HW1 6638   0.906   2.294   4.997
 2026SOL    HW2 6639   0.975   2.229   4.879
 2027SOL     OW 6640   1.052   2.561   4.150
 2027SOL    HW1 6641   1.068   2.553   4.244
 2027SOL    HW2 6642   0.969   2.514   4.136
 2028SOL     OW 6643   0.082   2.689   4.514
 2028SOL    HW1 6644   0.158   2.660   4.564
 2028SOL    HW2 6645   0.097   2.783   4.501
 2029SOL     OW 6646   0.127   3.716   5.300
 2029SOL    HW1 6647   0.134   3.684   5.390
 2029SOL    HW2 6648   0.035   3.703   5.278
 2030SOL     OW 6649   0.895   2.211   3.917
 2030SOL    HW1 6650   0.935   2.274   3.857
 2030SOL    HW2 6651   0.913   2.126   3.878
 2031SOL     OW 6652   1.669   2.443   5.558
 2031SOL    HW1 6653   1.648   2.514   5.498
 2031SOL    HW2 6654   1.722   2.382   5.505
 2032SOL     OW 6655   1.378   3.004   4.265
 2032SOL    HW1 6656   1.457   2.991   4.212
 2032SOL    HW2 6657   1.325   3.066   4.214
 2033SOL     OW 6658   0.545   2.041   4.618
 2033SOL    HW1 6659   0.552   2.073   4.707
 2033SOL    HW2 6660   0.546   2.120   4.564
 2034SOL     OW 6661   1.005   3.307   4.195
 2034SOL    HW1 6662   0.967   3.380   4.147
 2034SOL    HW2 6663   0.986   3.327   4.287
 2035SOL     OW 6664   0.359   3.670   4.584
 2035SOL    HW1 6665   0.436   3.615   4.596
 2035SOL    HW2 6666   0.391   3.759   4.593
 2036SOL     OW 6667   1.800   2.917   4.593
 2036SOL    HW1 6668   1.746   2.898   4.515
 2036SOL    HW2 6669   1.737   2.923   4.664
 2037SOL     OW 6670   1.228   3.399   5.235
 2037SOL    HW1 6671   1.214   3.326   5.297
 2037SOL    HW2 6672   1.161   3.386   5.168
 2038SOL     OW 6673   0.311   2.817   3.966
 2038SOL    HW1 6674   0.395   2.840   3.926
 2038SOL    HW2 6675   0.297   2.725   3.943
 2039SOL     OW 6676   1.479   2.607   4.451
 2039SOL    HW1 6677   1.472   2.563   4.536
 2039SOL    HW2 6678   1.558   2.661   4.457
 2040SOL     OW 6679   0.467   3.121   5.461
 2040SOL    HW1 6680   0.441   3.130   5.369
 2040SOL    HW2 6681   0.385   3.126   5.509
 2041SOL     OW 6682   1.113   3.643   3.946
 2041SOL    HW1 6683   1.050   3.596   4.001
 2041SOL    HW2 6684   1.143   3.577   3.883
 2042SOL     OW 6685   0.204   2.138   5.232
 2042SOL    HW1 6686   0.114   2.170   5.224
 2042SOL    HW2 6687   0.195   2.052   5.273
 2043SOL     OW 6688   1.628   3.243   3.814
 2043SOL    HW1 6689   1.587   3.328   3.796
 2043SOL    HW2 6690   1.559   3.179   3.793
 2044SOL     OW 6691   0.468   3.600   4.045
 2044SOL    HW1 6692   0.507   3.663   4.106
 2044SOL    HW2 6693   0.542   3.573   3.990
 2045SOL     OW 6694   1.397   1.968   4.155
 2045SOL    HW1 6695   1.381   1.946   4.064
 2045SOL    HW2 6696   1.491   1.955   4.167
 2046SOL     OW 6697   0.252   3.656   4.952
 2046SOL    HW1 6698   0.297   3.591   5.005
 2046SOL    HW2 6699   0.250   3.618   4.864
 2047SOL     OW 6700   0.938   3.562   4.624
 2047SOL    HW1 6701   1.015   3.510   4.645
 2047SOL    HW2 6702   0.893   3.513   4.555
 2048SOL     OW 6703   0.398   2.555   4.196
 2048SOL    HW1 6704   0.423   2.464   4.210
 2048SOL    HW2 6705   0.306   2.559   4.222
 2049SOL     OW 6706   1.535   2.087   5.450
 2049SOL    HW1 6707   1.545   2.108   5.543
 2049SOL    HW2 6708   1.465   2.021   5.448
 2050SOL     OW 6709   0.639   1.981   3.823
 2050SOL    HW1 6710   0.703   1.913   3.841
 2050SOL    HW2 6711   0.590   1.949   3.746
 2051SOL     OW 6712   0.766   2.141   5.480
 2051SOL    HW1 6713   0.844   2.085   5.477
 2051SOL    HW2 6714   0.716   2.110   5.555
 2052SOL     OW 6715   0.876   3.382   4.918
 2052SOL    HW1 6716   0.860   3.347   4.831
 2052SOL    HW2 6717   0.946   3.328   4.954
 2053SOL     OW 6718   1.340   2.451   5.156
 2053SOL    HW1 6719   1.371   2.419   5.241
 2053SOL    HW2 6720   1.377   2.539   5.149
 2054SOL     OW 6721   0.816   3.255   4.664
 2054SOL    HW1 6722   0.901   3.244   4.621
 2054SOL    HW2 6723   0.753   3.256   4.592
 2055SOL     OW 6724   0.928   2.371   4.627
 2055SOL    HW1 6725   0.905   2.363   4.534
 2055SOL    HW2 6726   0.959   2.284   4.651
 2056SOL     OW 6727   0.555   1.924   4.221
 2056SOL    HW1 6728   0.473   1.929   4.269
 2056SOL    HW2 6729   0.559   2.007   4.172
 2057SOL     OW 6730   1.428   3.061   3.764
 2057SOL    HW1 6731   1.459   2.985   3.814
 2057SOL    HW2 6732   1.342   3.081   3.802
 2058SOL     OW 6733   0.308   1.913   3.894
 2058SOL    HW1 6734   0.372   1.952   3.835
 2058SOL    HW2 6735   0.357   1.847   3.943
 2059SOL     OW 6736   0.939   2.108   4.184
 2059SOL    HW1 6737   0.910   2.149   4.103
 2059SOL    HW2 6738   1.033   2.125   4.187
 2060SOL     OW 6739   1.080   2.543   5.183
 2060SOL    HW1 6740   1.013   2.475   5.187
 2060SOL    HW2 6741   1.162   2.495   5.176
 2061SOL     OW 6742   1.222   3.432   4.518
 2061SOL    HW1 6743   1.238   3.500   4.452
 2061SOL    HW2 6744   1.291   3.446   4.583
 2062SOL     OW 6745   0.466   3.012   4.460
 2062SOL    HW1 6746   0.395   2.989   4.519
 2062SOL    HW2 6747   0.432   2.997   4.372
 2063SOL     OW 6748   1.267   3.657   4.331
 2063SOL    HW1 6749   1.313   3.722   4.277
 2063SOL    HW2 6750   1.196   3.707   4.371
 2064SOL     OW 6751   1.023   2.402   3.748
 2064SOL    HW1 6752   0.981   2.486   3.729
 2064SOL    HW2 6753   1.090   2.423   3.813
 2065SOL     OW 6754   0.081   2.434   5.114
 2065SOL    HW1 6755   0.171   2.420   5.084
 2065SOL    HW2 6756   0.088   2.503   5.179
 2066SOL     OW 6757   0.567   2.089   4.889
 2066SOL    HW1 6758   0.608   2.013   4.930
 2066SOL    HW2 6759   0.476   2.086   4.918
 2067SOL     OW 6760   0.867   2.321   4.364
 2067SOL    HW1 6761   0.820   2.374   4.300
 2067SOL    HW2 6762   0.888   2.240   4.317
 2068SOL     OW 6763   1.016   1.916   4.475
 2068SOL    HW1 6764   0.958   1.910   4.399
 2068SOL    HW2 6765   0.993   1.840   4.529
 2069SOL     OW 6766   1.438   3.024   4.581
 2069SOL    HW1 6767   1.368   2.959   4.580
 2069SOL    HW2 6768   1.462   3.034   4.489
 2070SOL     OW 6769   1.465   2.468   4.699
 2070SOL    HW1 6770   1.413   2.388   4.701
 2070SOL    HW2 6771   1.524   2.461   4.774
 2071SOL     OW 6772   1.845   2.680   4.108
 2071SOL    HW1 6773   1.903   2.628   4.164
 2071SOL    HW2 6774   1.813   2.618   4.043
 2072SOL     OW 6775   0.489   3.280   3.884
 2072SOL    HW1 6776   0.413   3.250   3.934
 2072SOL    HW2 6777   0.469   3.254   3.793
 2073SOL     OW 6778   1.672   3.126   4.369
 2073SOL    HW1 6779   1.766   3.128   4.382
 2073SOL    HW2 6780   1.642   3.215   4.390
 2074SOL     OW 6781   1.391   2.437   3.792
 2074SOL    HW1 6782   1.339   2.413   3.868
 2074SOL    HW2 6783   1.481   2.418   3.817
 2075SOL     OW 6784   0.573   2.131   4.044
 2075SOL    HW1 6785   0.602   2.082   3.967
 2075SOL    HW2 6786   0.541   2.214   4.010
 2076SOL     OW 6787   1.752   3.102   5.295
 2076SOL    HW1 6788   1.839   3.063   5.291
 2076SOL    HW2 6789   1.767   3.193   5.322
 2077SOL     OW 6790   1.057   3.215   5.057
 2077SOL    HW1 6791   0.982   3.184   5.108
 2077SOL    HW2 6792   1.133   3.174   5.098
 2078SOL     OW 6793   1.609   3.488   5.379
 2078SOL    HW1 6794   1.602   3.522   5.290
 2078SOL    HW2 6795   1.692   3.440   5.380
 2079SOL     OW 6796   1.131   3.067   4.828
 2079SOL    HW1 6797   1.071   3.104   4.894
 2079SOL    HW2 6798   1.098   3.099   4.745
 2080SOL     OW 6799   1.627   2.960   4.801
 2080SOL    HW1 6800   1.622   3.022   4.873
 2080SOL    HW2 6801   1.549   2.977   4.749
 2081SOL     OW 6802   0.918   1.958   5.119
 2081SOL    HW1 6803   0.941   1.939   5.028
 2081SOL    HW2 6804   0.997   1.998   5.156
 2082SOL     OW 6805   0.984   2.976   5.447
 2082SOL    HW1 6806   0.892   2.993   5.468
 2082SOL    HW2 6807   0.982   2.899   5.391
 2083SOL     OW 6808   0.708   2.922   4.095
 2083SOL    HW1 6809   0.694   2.906   4.188
 2083SOL    HW2 6810   0.784   2.869   4.072
 2084SOL     OW 6811   0.421   2.678   4.976
 2084SOL    HW1 6812   0.490   2.686   5.042
 2084SOL    HW2 6813   0.387   2.589   4.988
 2085SOL     OW 6814   1.265   2.237   5.001
 2085SOL    HW1 6815   1.298   2.315   5.046
 2085SOL    HW2 6816   1.175   2.259   4.978
 2086SOL     OW 6817   0.065   3.441   5.070
 2086SOL    HW1 6818   0.070   3.502   4.995
 2086SOL    HW2 6819   0.156   3.429   5.096
 2087SOL     OW 6820   0.372   2.964   4.208
 2087SOL    HW1 6821   0.367   3.044   4.155
 2087SOL    HW2 6822   0.371   2.893   4.144
 2088SOL     OW 6823   0.551   2.399   4.586
 2088SOL    HW1 6824   0.566   2.455   4.510
 2088SOL    HW2 6825   0.618   2.425   4.649
 2089SOL     OW 6826   1.248   3.211   4.113
 2089SOL    HW1 6827   1.304   3.282   4.144
 2089SOL    HW2 6828   1.161   3.232   4.147
 2090SOL     OW 6829   1.283   3.321   4.871
 2090SOL    HW1 6830   1.338   3.324   4.949
 2090SOL    HW2 6831   1.227   3.244   4.885
 2091SOL     OW 6832   1.577   2.482   4.201
 2091SOL    HW1 6833   1.534   2.541   4.263
 2091SOL    HW2 6834   1.623   2.541   4.141
 2092SOL     OW 6835   0.345   3.389   5.042
 2092SOL    HW1 6836   0.335   3.339   4.961
 2092SOL    HW2 6837   0.439   3.404   5.050
 2093SOL     OW 6838   0.415   2.601   5.325
 2093SOL    HW1 6839   0.477   2.647   5.268
 2093SOL    HW2 6840   0.455   2.516   5.341
 2094SOL     OW 6841   1.601   2.648   5.400
 2094SOL    HW1 6842   1.516   2.691   5.394
 2094SOL    HW2 6843   1.654   2.691   5.333
 2095SOL     OW 6844   0.995   1.988   5.478
 2095SOL    HW1 6845   1.053   2.060   5.452
 2095SOL    HW2 6846   1.042   1.909   5.454
 2096SOL     OW 6847   0.497   1.899   5.471
 2096SOL    HW1 6848   0.454   1.846   5.404
 2096SOL    HW2 6849   0.441   1.976   5.479
 2097SOL     OW 6850   0.585   2.736   4.756
 2097SOL    HW1 6851   0.617   2.826   4.755
 2097SOL    HW2 6852   0.529   2.730   4.833
 2098SOL     OW 6853   1.356   2.720   4.752
 2098SOL    HW1 6854   1.272   2.710   4.707
 2098SOL    HW2 6855   1.398   2.635   4.745
 2099SOL     OW 6856   1.204   2.390   3.991
 2099SOL    HW1 6857   1.211   2.312   4.046
 2099SOL    HW2 6858   1.161   2.455   4.046
 2100SOL     OW 6859   0.311   2.059   4.972
 2100SOL    HW1 6860   0.264   2.096   5.046
 2100SOL    HW2 6861   0.287   1.966   4.972
 2101SOL     OW 6862   0.059   3.167   5.004
 2101SOL    HW1 6863   0.091   3.127   5.085
 2101SOL    HW2 6864   0.051   3.260   5.025
 2102SOL     OW 6865   0.724   2.493   4.781
 2102SOL    HW1 6866   0.799   2.477   4.724
 2102SOL    HW2 6867   0.696   2.582   4.760
 2103SOL     OW 6868   1.735   2.822   5.578
 2103SOL    HW1 6869   1.692   2.758   5.521
 2103SOL    HW2 6870   1.674   2.836   5.650
 2104SOL     OW 6871   0.313   1.925   4.344
 2104SOL    HW1 6872   0.292   2.016   4.366
 2104SOL    HW2 6873   0.319   1.881   4.429
 2105SOL     OW 6874   1.609   2.233   4.099
 2105SOL    HW1 6875   1.618   2.184   4.180
 2105SOL    HW2 6876   1.589   2.323   4.127
 2106SOL     OW 6877   1.028   2.621   4.684
 2106SOL    HW1 6878   1.023   2.638   4.778
 2106SOL    HW2 6879   1.002   2.529   4.675
 2107SOL     OW 6880   0.985   3.429   5.443
 2107SOL    HW1 6881   0.967   3.471   5.359
 2107SOL    HW2 6882   1.027   3.347   5.420
 2108SOL     OW 6883   1.854   3.366   5.328
 2108SOL    HW1 6884   1.873   3.394   5.239
 2108SOL    HW2 6885   1.935   3.385   5.377
 2109SOL     OW 6886   0.352   2.783   5.525
 2109SOL    HW1 6887   0.431   2.804   5.575
 2109SOL    HW2 6888   0.380   2.716   5.462
 2110SOL     OW 6889   1.530   2.131   3.852
 2110SOL    HW1 6890   1.462   2.070   3.880
 2110SOL    HW2 6891   1.562   2.170   3.933
 2111SOL     OW 6892   1.290   2.689   3.754
 2111SOL    HW1 6893   1.331   2.603   3.758
 2111SOL    HW2 6894   1.322   2.728   3.673
 2112SOL     OW 6895   1.066   3.198   4.578
 2112SOL    HW1 6896   1.070   3.126   4.516
 2112SOL    HW2 6897   1.127   3.263   4.543
 2113SOL     OW 6898   0.314   2.665   4.674
 2113SOL    HW1 6899   0.407   2.683   4.668
 2113SOL    HW2 6900   0.308   2.575   4.706
 2114SOL     OW 6901   0.330   2.382   4.738
 2114SOL    HW1 6902   0.296   2.294   4.721
 2114SOL    HW2 6903   0.407   2.390   4.681
 2115SOL     OW 6904   1.134   2.237   5.407
 2115SOL    HW1 6905   1.086   2.292   5.469
 2115SOL    HW2 6906   1.222   2.274   5.404
 2116SOL     OW 6907   1.160   2.064   5.194
 2116SOL    HW1 6908   1.150   2.126   5.266
 2116SOL    HW2 6909   1.201   2.115   5.124
 2117SOL     OW 6910   4.000   3.181   3.906
 2117SOL    HW1 6911   3.905   3.197   3.910
 2117SOL    HW2 6912   0.009   3.087   3.924
 2118SOL     OW 6913   0.075   3.663   4.618
 2118SOL    HW1 6914   0.088   3.568   4.619
 2118SOL    HW2 6915   0.164   3.699   4.616
 2119SOL     OW 6916   0.507   3.427   4.640
 2119SOL    HW1 6917   0.573   3.492   4.660
 2119SOL    HW2 6918   0.550   3.367   4.578
 2120SOL     OW 6919   0.981   2.653   4.950
 2120SOL    HW1 6920   1.038   2.631   5.024
 2120SOL    HW2 6921   0.896   2.615   4.973
 2121SOL     OW 6922   0.037   2.418   4.834
 2121SOL    HW1 6923   0.120   2.394   4.791
 2121SOL    HW2 6924   0.057   2.415   4.927
 2122SOL     OW 6925   0.207   2.375   5.451
 2122SOL    HW1 6926   0.247   2.329   5.377
 2122SOL    HW2 6927   0.158   2.447   5.411
 2123SOL     OW 6928   1.374   2.802   5.381
 2123SOL    HW1 6929   1.397   2.895   5.378
 2123SOL    HW2 6930   1.371   2.775   5.289
 2124SOL     OW 6931   0.818   2.431   4.085
 2124SOL    HW1 6932   0.822   2.355   4.026
 2124SOL    HW2 6933   0.744   2.482   4.052
 2125SOL     OW 6934   1.643   2.464   4.908
 2125SOL    HW1 6935   1.632   2.409   4.985
 2125SOL    HW2 6936   1.729   2.441   4.873
 2126SOL     OW 6937   0.299   3.408   5.452
 2126SOL    HW1 6938   0.249   3.477   5.496
 2126SOL    HW2 6939   0.266   3.327   5.491
 2127SOL     OW 6940   0.704   2.312   4.983
 2127SOL    HW1 6941   0.652   2.238   4.952
 2127SOL    HW2 6942   0.699   2.375   4.911
 2128SOL     OW 6943   0.929   3.534   5.192
 2128SOL    HW1 6944   0.902   3.498   5.108
 2128SOL    HW2 6945   0.921   3.629   5.181
 2129SOL     OW 6946   0.457   2.352   3.918
 2129SOL    HW1 6947   0.522   2.420   3.936
 2129SOL    HW2 6948   0.377   2.400   3.897
 2130SOL     OW 6949   0.156   2.997   5.199
 2130SOL    HW1 6950   0.157   2.946   5.280
 2130SOL    HW2 6951   0.171   2.933   5.129
 2131SOL     OW 6952   1.325   2.908   4.946
 2131SOL    HW1 6953   1.347   2.844   4.878
 2131SOL    HW2 6954   1.256   2.961   4.907
 2132SOL     OW 6955   1.312   2.719   4.030
 2132SOL    HW1 6956   1.237   2.687   4.080
 2132SOL    HW2 6957   1.287   2.705   3.938
 2133SOL     OW 6958   1.770   3.604   4.873
 2133SOL    HW1 6959   1.833   3.632   4.806
 2133SOL    HW2 6960   1.749   3.514   4.851
 2134SOL     OW 6961   1.243   3.595   4.834
 2134SOL    HW1 6962   1.326   3.616   4.791
 2134SOL    HW2 6963   1.249   3.502   4.854
 2135SOL     OW 6964   0.076   3.077   4.752
 2135SOL    HW1 6965   0.083   3.104   4.843
 2135SOL    HW2 6966   3.983   3.087   4.731
 2136SOL     OW 6967   0.679   3.526   5.455
 2136SOL    HW1 6968   0.622   3.603   5.458
 2136SOL    HW2 6969   0.739   3.544   5.382
 2137SOL     OW 6970   1.390   3.431   4.210
 2137SOL    HW1 6971   1.450   3.464   4.143
 2137SOL    HW2 6972   1.342   3.508   4.240
 2138SOL     OW 6973   0.169   3.625   5.555
 2138SOL    HW1 6974   0.113   3.573   5.613
 2138SOL    HW2 6975   0.216   3.684   5.614
 2139SOL     OW 6976   1.277   2.788   4.395
 2139SOL    HW1 6977   1.351   2.728   4.403
 2139SOL    HW2 6978   1.311   2.860   4.342
 2140SOL     OW 6979   0.812   3.136   5.153
 2140SOL    HW1 6980   0.784   3.176   5.236
 2140SOL    HW2 6981   0.742   3.155   5.091
 2141SOL     OW 6982   0.675   3.478   3.881
 2141SOL    HW1 6983   0.683   3.494   3.787
 2141SOL    HW2 6984   0.617   3.402   3.888
 2142SOL     OW 6985   1.624   3.588   5.114
 2142SOL    HW1 6986   1.675   3.594   5.033
 2142SOL    HW2 6987   1.610   3.679   5.140
 2143SOL     OW 6988   0.267   2.176   4.441
 2143SOL    HW1 6989   0.181   2.209   4.415
 2143SOL    HW2 6990   0.261   2.166   4.536
 2144SOL     OW 6991   1.207   3.467   3.759
 2144SOL    HW1 6992   1.197   3.375   3.783
 2144SOL    HW2 6993   1.146   3.480   3.687
 2145SOL     OW 6994   0.823   2.868   5.097
 2145SOL    HW1 6995   0.868   2.863   5.012
 2145SOL    HW2 6996   0.822   2.961   5.118
 2146SOL     OW 6997   0.916   2.772   4.014
 2146SOL    HW1 6998   0.976   2.804   3.948
 2146SOL    HW2 6999   0.964   2.703   4.060
 2147SOL     OW 7000   1.490   3.490   3.766
 2147SOL    HW1 7001   1.396   3.480   3.750
 2147SOL    HW2 7002   1.528   3.495   3.679
 2148SOL     OW 7003   0.374   3.165   5.215
 2148SOL    HW1 7004   0.359   3.245   5.165
 2148SOL    HW2 7005   0.297   3.111   5.198
 2149SOL     OW 7006   1.610   3.145   5.004
 2149SOL    HW1 7007   1.670   3.134   5.077
 2149SOL    HW2 7008   1.550   3.213   5.033
 2150SOL     OW 7009   1.054   2.970   4.431
 2150SOL    HW1 7010   0.983   2.919   4.470
 2150SOL    HW2 7011   1.117   2.904   4.401
 2151SOL     OW 7012   1.022   2.102   4.691
 2151SOL    HW1 7013   1.018   2.055   4.608
 2151SOL    HW2 7014   1.017   2.034   4.758
 2152SOL     OW 7015   0.605   3.352   4.205
 2152SOL    HW1 7016   0.650   3.302   4.137
 2152SOL    HW2 7017   0.534   3.397   4.159
 2153SOL     OW 7018   1.724   2.254   5.101
 2153SOL    HW1 7019   1.798   2.315   5.107
 2153SOL    HW2 7020   1.753   2.187   5.040
 2154SOL     OW 7021   0.253   3.203   4.015
 2154SOL    HW1 7022   0.160   3.212   3.996
 2154SOL    HW2 7023   0.263   3.241   4.102
 2155SOL     OW 7024   0.106   2.860   5.441
 2155SOL    HW1 7025   0.046   2.853   5.515
 2155SOL    HW2 7026   0.192   2.842   5.479
 2156SOL     OW 7027   0.675   2.058   5.224
 2156SOL    HW1 7028   0.759   2.037   5.183
 2156SOL    HW2 7029   0.699   2.091   5.311
 2157SOL     OW 7030   0.081   2.178   3.761
 2157SOL    HW1 7031   3.985   2.178   3.768
 2157SOL    HW2 7032   0.101   2.259   3.714
 2158SOL     OW 7033   1.429   2.721   5.124
 2158SOL    HW1 7034   1.380   2.782   5.068
 2158SOL    HW2 7035   1.518   2.723   5.089
 2159SOL     OW 7036   0.020   2.093   4.098
 2159SOL    HW1 7037   0.045   2.158   4.032
 2159SOL    HW2 7038   0.103   2.055   4.127
 2160SOL     OW 7039   1.178   3.200   3.841
 2160SOL    HW1 7040   1.087   3.171   3.843
 2160SOL    HW2 7041   1.205   3.200   3.933
 2161SOL     OW 7042   0.619   2.692   5.160
 2161SOL    HW1 7043   0.675   2.768   5.144
 2161SOL    HW2 7044   0.680   2.619   5.167
 2162SOL     OW 7045   1.485   3.640   4.704
 2162SOL    HW1 7046   1.509   3.698   4.631
 2162SOL    HW2 7047   1.569   3.619   4.746
 2163SOL     OW 7048   0.716   2.425   5.428
 2163SOL    HW1 7049   0.759   2.487   5.487
 2163SOL    HW2 7050   0.742   2.339   5.461
 2164SOL     OW 7051   1.473   3.061   5.355
 2164SOL    HW1 7052   1.460   3.075   5.449
 2164SOL    HW2 7053   1.566   3.077   5.340
 2165SOL     OW 7054   0.378   3.606   5.283
 2165SOL    HW1 7055   0.291   3.642   5.270
 2165SOL    HW2 7056   0.364   3.524   5.330
 2166SOL     OW 7057   1.669   2.743   4.978
 2166SOL    HW1 7058   1.662   2.658   4.935
 2166SOL    HW2 7059   1.658   2.807   4.907
 2167SOL     OW 7060   1.215   2.182   4.182
 2167SOL    HW1 7061   1.278   2.110   4.174
 2167SOL    HW2 7062   1.244   2.231   4.259
 2168SOL     OW 7063   0.589   2.600   4.395
 2168SOL    HW1 7064   0.628   2.686   4.380
 2168SOL    HW2 7065   0.523   2.591   4.327
 2169SOL     OW 7066   1.756   2.236   5.378
 2169SOL    HW1 7067   1.745   2.244   5.283
 2169SOL    HW2 7068   1.685   2.178   5.405
 2170SOL     OW 7069   1.748   2.800   5.233
 2170SOL    HW1 7070   1.741   2.894   5.245
 2170SOL    HW2 7071   1.731   2.786   5.140
 2171SOL     OW 7072   0.864   3.229   3.761
 2171SOL    HW1 7073   0.823   3.258   3.842
 2171SOL    HW2 7074   0.879   3.310   3.712
 2172SOL     OW 7075   0.659   3.652   4.661
 2172SOL    HW1 7076   0.637   3.743   4.642
 2172SOL    HW2 7077   0.754   3.649   4.659
 2173SOL     OW 7078   0.868   2.829   4.578
 2173SOL    HW1 7079   0.918   2.758   4.617
 2173SOL    HW2 7080   0.833   2.877   4.653
 2174SOL     OW 7081   1.077   2.850   3.812
 2174SOL    HW1 7082   1.057   2.901   3.734
 2174SOL    HW2 7083   1.153   2.797   3.787
 2175SOL     OW 7084   1.852   3.414   4.566
 2175SOL    HW1 7085   1.772   3.403   4.515
 2175SOL    HW2 7086   1.844   3.350   4.637
 2176SOL     OW 7087   0.225   3.166   5.580
 2176SOL    HW1 7088   0.152   3.110   5.554
 2176SOL    HW2 7089   0.213   3.179   5.674
 2177SOL     OW 7090   0.113   3.138   4.444
 2177SOL    HW1 7091   0.130   3.088   4.524
 2177SOL    HW2 7092   0.106   3.072   4.375
 2178SOL     OW 7093   0.682   3.265   5.354
 2178SOL    HW1 7094   0.601   3.224   5.383
 2178SOL    HW2 7095   0.678   3.354   5.390
 2179SOL     OW 7096   0.441   2.296   4.257
 2179SOL    HW1 7097   0.443   2.226   4.192
 2179SOL    HW2 7098   0.386   2.262   4.328
 2180SOL     OW 7099   1.700   3.349   4.817
 2180SOL    HW1 7100   1.619   3.327   4.772
 2180SOL    HW2 7101   1.711   3.281   4.884
 2181SOL     OW 7102   0.333   2.418   5.015
 2181SOL    HW1 7103   0.388   2.362   5.070
 2181SOL    HW2 7104   0.349   2.388   4.926
 2182SOL     OW 7105   0.827   3.441   4.401
 2182SOL    HW1 7106   0.813   3.492   4.321
 2182SOL    HW2 7107   0.752   3.381   4.404
 2183SOL     OW 7108   1.438   2.091   4.843
 2183SOL    HW1 7109   1.448   2.003   4.881
 2183SOL    HW2 7110   1.383   2.137   4.906
 2184SOL     OW 7111   1.009   1.879   4.865
 2184SOL    HW1 7112   0.955   1.812   4.824
 2184SOL    HW2 7113   1.097   1.842   4.867
 2185SOL     OW 7114   0.772   3.194   4.041
 2185SOL    HW1 7115   0.741   3.104   4.047
 2185SOL    HW2 7116   0.855   3.194   4.089
 2186SOL     OW 7117   0.620   3.416   5.009
 2186SOL    HW1 7118   0.622   3.498   5.059
 2186SOL    HW2 7119   0.708   3.410   4.971
 2187SOL     OW 7120   1.350   1.914   3.890
 2187SOL    HW1 7121   1.379   1.853   3.823
 2187SOL    HW2 7122   1.263   1.883   3.915
 2188SOL     OW 7123   1.297   2.323   4.405
 2188SOL    HW1 7124   1.244   2.402   4.411
 2188SOL    HW2 7125   1.292   2.284   4.492
 2189SOL     OW 7126   1.571   2.054   4.594
 2189SOL    HW1 7127   1.535   2.080   4.678
 2189SOL    HW2 7128   1.587   2.137   4.548
 2190SOL     OW 7129   0.047   2.912   3.963
 2190SOL    HW1 7130   0.141   2.896   3.954
 2190SOL    HW2 7131   0.011   2.830   3.997
 2191SOL     OW 7132   0.885   3.519   4.068
 2191SOL    HW1 7133   0.814   3.500   4.006
 2191SOL    HW2 7134   0.854   3.595   4.117
 2192SOL     OW 7135   0.231   2.484   5.706
 2192SOL    HW1 7136   0.138   2.493   5.727
 2192SOL    HW2 7137   0.233   2.454   5.615
 2193SOL     OW 7138   0.229   2.133   6.573
 2193SOL    HW1 7139   0.249   2.100   6.660
 2193SOL    HW2 7140   0.134   2.125   6.566
 2194SOL     OW 7141   0.010   2.221   6.217
 2194SOL    HW1 7142   3.923   2.240   6.251
 2194SOL    HW2 7143   3.995   2.189   6.128
 2195SOL     OW 7144   0.578   3.148   6.773
 2195SOL    HW1 7145   0.492   3.152   6.732
 2195SOL    HW2 7146   0.593   3.237   6.807
 2196SOL     OW 7147   1.562   3.368   6.291
 2196SOL    HW1 7148   1.520   3.351   6.375
 2196SOL    HW2 7149   1.490   3.376   6.229
 2197SOL     OW 7150   1.109   2.588   6.274
 2197SOL    HW1 7151   1.174   2.658   6.277
 2197SOL    HW2 7152   1.076   2.581   6.364
 2198SOL     OW 7153   1.749   2.472   5.819
 2198SOL    HW1 7154   1.728   2.470   5.725
 2198SOL    HW2 7155   1.786   2.385   5.837
 2199SOL     OW 7156   0.755   3.002   6.627
 2199SOL    HW1 7157   0.690   3.037   6.688
 2199SOL    HW2 7158   0.790   3.079   6.583
 2200SOL     OW 7159   0.865   2.637   7.408
 2200SOL    HW1 7160   0.857   2.708   7.471
 2200SOL    HW2 7161   0.890   2.681   7.326
 2201SOL     OW 7162   0.686   2.864   6.233
 2201SOL    HW1 7163   0.751   2.852   6.301
 2201SOL    HW2 7164   0.617   2.916   6.274
 2202SOL     OW 7165   0.711   3.012   7.401
 2202SOL    HW1 7166   0.759   3.090   7.428
 2202SOL    HW2 7167   0.629   3.045   7.364
 2203SOL     OW 7168   0.351   3.264   6.664
 2203SOL    HW1 7169   0.268   3.249   6.618
 2203SOL    HW2 7170   0.400   3.323   6.607
 2204SOL     OW 7171   1.460   3.363   6.941
 2204SOL    HW1 7172   1.513   3.442   6.952
 2204SOL    HW2 7173   1.395   3.367   7.012
 2205SOL     OW 7174   0.450   2.261   7.073
 2205SOL    HW1 7175   0.524   2.201   7.077
 2205SOL    HW2 7176   0.373   2.206   7.087
 2206SOL     OW 7177   0.224   3.571   6.052
 2206SOL    HW1 7178   0.226   3.653   6.101
 2206SOL    HW2 7179   0.301   3.575   5.995
 2207SOL     OW 7180   1.137   3.204   7.279
 2207SOL    HW1 7181   1.178   3.198   7.365
 2207SOL    HW2 7182   1.084   3.124   7.272
 2208SOL     OW 7183   0.249   3.306   6.126
 2208SOL    HW1 7184   0.221   3.396   6.112
 2208SOL    HW2 7185   0.180   3.266   6.179
 2209SOL     OW 7186   0.247   2.930   6.470
 2209SOL    HW1 7187   0.266   2.845   6.511
 2209SOL    HW2 7188   0.194   2.976   6.535
 2210SOL     OW 7189   0.612   3.648   7.014
 2210SOL    HW1 7190   0.529   3.634   7.061
 2210SOL    HW2 7191   0.638   3.737   7.039
 2211SOL     OW 7192   0.579   2.847   5.723
 2211SOL    HW1 7193   0.626   2.893   5.654
 2211SOL    HW2 7194   0.621   2.876   5.804
 2212SOL     OW 7195   0.142   2.513   6.160
 2212SOL    HW1 7196   0.085   2.436   6.159
 2212SOL    HW2 7197   0.106   2.568   6.230
 2213SOL     OW 7198   1.842   3.611   5.924
 2213SOL    HW1 7199   1.910   3.587   5.987
 2213SOL    HW2 7200   1.863   3.701   5.900
 2214SOL     OW 7201   0.041   3.454   5.726
 2214SOL    HW1 7202   0.033   3.361   5.750
 2214SOL    HW2 7203   3.960   3.494   5.758
 2215SOL     OW 7204   1.641   2.973   6.014
 2215SOL    HW1 7205   1.730   2.970   5.979
 2215SOL    HW2 7206   1.649   3.022   6.096
 2216SOL     OW 7207   0.137   2.615   7.175
 2216SOL    HW1 7208   0.233   2.609   7.175
 2216SOL    HW2 7209   0.119   2.704   7.203
 2217SOL     OW 7210   0.615   3.248   6.320
 2217SOL    HW1 7211   0.568   3.165   6.330
 2217SOL    HW2 7212   0.598   3.274   6.230
 2218SOL     OW 7213   1.288   3.100   7.009
 2218SOL    HW1 7214   1.320   3.031   6.950
 2218SOL    HW2 7215   1.345   3.094   7.085
 2219SOL     OW 7216   0.815   1.861   6.100
 2219SOL    HW1 7217   0.851   1.947   6.078
 2219SOL    HW2 7218   0.720   1.875   6.105
 2220SOL     OW 7219   0.185   2.814   6.864
 2220SOL    HW1 7220   0.273   2.778   6.851
 2220SOL    HW2 7221   0.132   2.773   6.796
 2221SOL     OW 7222   1.531   2.858   5.785
 2221SOL    HW1 7223   1.466   2.795   5.816
 2221SOL    HW2 7224   1.569   2.894   5.865
 2222SOL     OW 7225   1.215   3.665   7.213
 2222SOL    HW1 7226   1.194   3.726   7.142
 2222SOL    HW2 7227   1.217   3.579   7.171
 2223SOL     OW 7228   0.340   2.109   7.401
 2223SOL    HW1 7229   0.378   2.197   7.408
 2223SOL    HW2 7230   0.249   2.120   7.426
 2224SOL     OW 7231   1.466   3.281   6.537
 2224SOL    HW1 7232   1.399   3.297   6.603
 2224SOL    HW2 7233   1.454   3.190   6.511
 2225SOL     OW 7234   1.655   3.600   6.167
 2225SOL    HW1 7235   1.640   3.570   6.077
 2225SOL    HW2 7236   1.632   3.524   6.221
 2226SOL     OW 7237   0.596   2.580   5.851
 2226SOL    HW1 7238   0.602   2.664   5.805
 2226SOL    HW2 7239   0.533   2.595   5.921
 2227SOL     OW 7240   1.229   2.256   6.569
 2227SOL    HW1 7241   1.158   2.192   6.569
 2227SOL    HW2 7242   1.295   2.218   6.626
 2228SOL     OW 7243   1.578   3.536   5.894
 2228SOL    HW1 7244   1.670   3.562   5.889
 2228SOL    HW2 7245   1.552   3.517   5.804
 2229SOL     OW 7246   0.789   2.479   7.038
 2229SOL    HW1 7247   0.762   2.455   7.127
 2229SOL    HW2 7248   0.750   2.411   6.982
 2230SOL     OW 7249   0.951   2.752   7.170
 2230SOL    HW1 7250   1.004   2.681   7.134
 2230SOL    HW2 7251   0.903   2.786   7.094
 2231SOL     OW 7252   0.985   2.264   6.831
 2231SOL    HW1 7253   0.897   2.289   6.858
 2231SOL    HW2 7254   0.976   2.234   6.741
 2232SOL     OW 7255   1.053   2.559   6.008
 2232SOL    HW1 7256   1.066   2.563   6.103
 2232SOL    HW2 7257   0.969   2.514   5.998
 2233SOL     OW 7258   0.083   2.689   6.376
 2233SOL    HW1 7259   0.159   2.660   6.426
 2233SOL    HW2 7260   0.097   2.783   6.363
 2234SOL     OW 7261   0.127   3.716   7.162
 2234SOL    HW1 7262   0.134   3.684   7.252
 2234SOL    HW2 7263   0.035   3.703   7.140
 2235SOL     OW 7264   0.901   2.209   5.781
 2235SOL    HW1 7265   0.938   2.273   5.721
 2235SOL    HW2 7266   0.903   2.126   5.733
 2236SOL     OW 7267   1.377   3.005   6.127
 2236SOL    HW1 7268   1.456   2.991   6.073
 2236SOL    HW2 7269   1.325   3.066   6.076
 2237SOL     OW 7270   0.547   2.041   6.480
 2237SOL    HW1 7271   0.553   2.072   6.570
 2237SOL    HW2 7272   0.546   2.120   6.426
 2238SOL     OW 7273   1.005   3.307   6.058
 2238SOL    HW1 7274   0.967   3.380   6.008
 2238SOL    HW2 7275   0.985   3.327   6.149
 2239SOL     OW 7276   0.359   3.670   6.445
 2239SOL    HW1 7277   0.436   3.615   6.458
 2239SOL    HW2 7278   0.391   3.759   6.455
 2240SOL     OW 7279   1.798   2.948   6.471
 2240SOL    HW1 7280   1.744   2.962   6.393
 2240SOL    HW2 7281   1.735   2.939   6.542
 2241SOL     OW 7282   1.228   3.399   7.097
 2241SOL    HW1 7283   1.214   3.327   7.159
 2241SOL    HW2 7284   1.160   3.387   7.031
 2242SOL     OW 7285   0.311   2.817   5.829
 2242SOL    HW1 7286   0.394   2.840   5.788
 2242SOL    HW2 7287   0.297   2.725   5.805
 2243SOL     OW 7288   0.467   3.122   7.323
 2243SOL    HW1 7289   0.441   3.130   7.231
 2243SOL    HW2 7290   0.385   3.126   7.371
 2244SOL     OW 7291   1.113   3.643   5.808
 2244SOL    HW1 7292   1.049   3.596   5.863
 2244SOL    HW2 7293   1.143   3.577   5.745
 2245SOL     OW 7294   0.204   2.139   7.095
 2245SOL    HW1 7295   0.114   2.170   7.086
 2245SOL    HW2 7296   0.195   2.053   7.135
 2246SOL     OW 7297   1.628   3.243   5.676
 2246SOL    HW1 7298   1.588   3.328   5.658
 2246SOL    HW2 7299   1.560   3.179   5.655
 2247SOL     OW 7300   0.468   3.600   5.907
 2247SOL    HW1 7301   0.507   3.663   5.968
 2247SOL    HW2 7302   0.542   3.573   5.852
 2248SOL     OW 7303   0.252   3.656   6.814
 2248SOL    HW1 7304   0.297   3.591   6.867
 2248SOL    HW2 7305   0.249   3.618   6.726
 2249SOL     OW 7306   0.937   3.562   6.486
 2249SOL    HW1 7307   1.014   3.510   6.508
 2249SOL    HW2 7308   0.893   3.513   6.417
 2250SOL     OW 7309   0.398   2.555   6.058
 2250SOL    HW1 7310   0.424   2.464   6.072
 2250SOL    HW2 7311   0.306   2.558   6.084
 2251SOL     OW 7312   0.643   1.982   5.682
 2251SOL    HW1 7313   0.702   1.910   5.703
 2251SOL    HW2 7314   0.592   1.950   5.608
 2252SOL     OW 7315   0.764   2.138   7.339
 2252SOL    HW1 7316   0.838   2.078   7.344
 2252SOL    HW2 7317   0.716   2.122   7.421
 2253SOL     OW 7318   0.876   3.382   6.780
 2253SOL    HW1 7319   0.860   3.346   6.693
 2253SOL    HW2 7320   0.946   3.328   6.816
 2254SOL     OW 7321   1.324   2.460   7.022
 2254SOL    HW1 7322   1.373   2.429   7.098
 2254SOL    HW2 7323   1.357   2.549   7.007
 2255SOL     OW 7324   0.816   3.255   6.526
 2255SOL    HW1 7325   0.901   3.244   6.483
 2255SOL    HW2 7326   0.753   3.256   6.454
 2256SOL     OW 7327   0.925   2.375   6.489
 2256SOL    HW1 7328   0.902   2.365   6.396
 2256SOL    HW2 7329   0.965   2.291   6.512
 2257SOL     OW 7330   0.553   1.924   6.082
 2257SOL    HW1 7331   0.471   1.930   6.131
 2257SOL    HW2 7332   0.558   2.007   6.034
 2258SOL     OW 7333   1.428   3.061   5.627
 2258SOL    HW1 7334   1.459   2.986   5.677
 2258SOL    HW2 7335   1.343   3.082   5.664
 2259SOL     OW 7336   0.306   1.914   5.756
 2259SOL    HW1 7337   0.370   1.952   5.695
 2259SOL    HW2 7338   0.356   1.848   5.805
 2260SOL     OW 7339   0.926   2.106   6.044
 2260SOL    HW1 7340   0.896   2.149   5.964
 2260SOL    HW2 7341   1.020   2.091   6.030
 2261SOL     OW 7342   1.071   2.546   7.045
 2261SOL    HW1 7343   1.003   2.478   7.047
 2261SOL    HW2 7344   1.153   2.498   7.039
 2262SOL     OW 7345   1.224   3.431   6.379
 2262SOL    HW1 7346   1.238   3.500   6.313
 2262SOL    HW2 7347   1.291   3.447   6.445
 2263SOL     OW 7348   0.467   3.012   6.322
 2263SOL    HW1 7349   0.395   2.989   6.381
 2263SOL    HW2 7350   0.432   2.996   6.235
 2264SOL     OW 7351   1.267   3.657   6.193
 2264SOL    HW1 7352   1.313   3.721   6.140
 2264SOL    HW2 7353   1.196   3.707   6.233
 2265SOL     OW 7354   1.022   2.403   5.610
 2265SOL    HW1 7355   0.978   2.485   5.589
 2265SOL    HW2 7356   1.092   2.428   5.671
 2266SOL     OW 7357   0.081   2.434   6.976
 2266SOL    HW1 7358   0.171   2.421   6.945
 2266SOL    HW2 7359   0.088   2.503   7.041
 2267SOL     OW 7360   0.566   2.088   6.751
 2267SOL    HW1 7361   0.606   2.012   6.792
 2267SOL    HW2 7362   0.475   2.086   6.780
 2268SOL     OW 7363   0.867   2.319   6.226
 2268SOL    HW1 7364   0.819   2.377   6.166
 2268SOL    HW2 7365   0.882   2.239   6.176
 2269SOL     OW 7366   1.007   1.913   6.337
 2269SOL    HW1 7367   0.944   1.906   6.265
 2269SOL    HW2 7368   0.990   1.837   6.392
 2270SOL     OW 7369   1.438   3.022   6.444
 2270SOL    HW1 7370   1.369   2.956   6.442
 2270SOL    HW2 7371   1.460   3.037   6.352
 2271SOL     OW 7372   0.489   3.280   5.746
 2271SOL    HW1 7373   0.413   3.250   5.796
 2271SOL    HW2 7374   0.469   3.255   5.655
 2272SOL     OW 7375   1.674   3.116   6.246
 2272SOL    HW1 7376   1.769   3.126   6.244
 2272SOL    HW2 7377   1.640   3.205   6.256
 2273SOL     OW 7378   1.391   2.440   5.651
 2273SOL    HW1 7379   1.343   2.415   5.730
 2273SOL    HW2 7380   1.483   2.424   5.673
 2274SOL     OW 7381   0.577   2.130   5.905
 2274SOL    HW1 7382   0.604   2.083   5.826
 2274SOL    HW2 7383   0.541   2.213   5.872
 2275SOL     OW 7384   1.745   3.109   7.167
 2275SOL    HW1 7385   1.826   3.064   7.141
 2275SOL    HW2 7386   1.774   3.198   7.190
 2276SOL     OW 7387   1.058   3.214   6.918
 2276SOL    HW1 7388   0.983   3.184   6.969
 2276SOL    HW2 7389   1.134   3.174   6.960
 2277SOL     OW 7390   1.610   3.488   7.242
 2277SOL    HW1 7391   1.602   3.522   7.152
 2277SOL    HW2 7392   1.693   3.439   7.242
 2278SOL     OW 7393   1.130   3.065   6.690
 2278SOL    HW1 7394   1.072   3.103   6.756
 2278SOL    HW2 7395   1.098   3.099   6.607
 2279SOL     OW 7396   1.620   2.957   6.672
 2279SOL    HW1 7397   1.616   3.023   6.742
 2279SOL    HW2 7398   1.543   2.974   6.619
 2280SOL     OW 7399   0.915   1.965   6.982
 2280SOL    HW1 7400   0.934   1.943   6.891
 2280SOL    HW2 7401   0.991   2.017   7.011
 2281SOL     OW 7402   0.984   2.978   7.310
 2281SOL    HW1 7403   0.892   2.994   7.332
 2281SOL    HW2 7404   0.982   2.900   7.254
 2282SOL     OW 7405   0.708   2.922   5.957
 2282SOL    HW1 7406   0.694   2.906   6.050
 2282SOL    HW2 7407   0.784   2.869   5.934
 2283SOL     OW 7408   0.421   2.678   6.838
 2283SOL    HW1 7409   0.490   2.686   6.904
 2283SOL    HW2 7410   0.387   2.589   6.850
 2284SOL     OW 7411   1.269   2.235   6.864
 2284SOL    HW1 7412   1.296   2.313   6.912
 2284SOL    HW2 7413   1.177   2.252   6.842
 2285SOL     OW 7414   0.065   3.442   6.932
 2285SOL    HW1 7415   0.070   3.501   6.857
 2285SOL    HW2 7416   0.156   3.429   6.958
 2286SOL     OW 7417   0.373   2.964   6.070
 2286SOL    HW1 7418   0.366   3.044   6.017
 2286SOL    HW2 7419   0.371   2.893   6.005
 2287SOL     OW 7420   0.551   2.399   6.447
 2287SOL    HW1 7421   0.566   2.456   6.372
 2287SOL    HW2 7422   0.618   2.425   6.511
 2288SOL     OW 7423   1.247   3.211   5.976
 2288SOL    HW1 7424   1.304   3.282   6.006
 2288SOL    HW2 7425   1.160   3.233   6.009
 2289SOL     OW 7426   1.283   3.321   6.733
 2289SOL    HW1 7427   1.339   3.325   6.811
 2289SOL    HW2 7428   1.226   3.245   6.748
 2290SOL     OW 7429   0.345   3.389   6.904
 2290SOL    HW1 7430   0.335   3.339   6.823
 2290SOL    HW2 7431   0.439   3.404   6.912
 2291SOL     OW 7432   0.415   2.602   7.187
 2291SOL    HW1 7433   0.477   2.647   7.130
 2291SOL    HW2 7434   0.455   2.517   7.204
 2292SOL     OW 7435   0.986   1.978   7.344
 2292SOL    HW1 7436   1.047   2.044   7.314
 2292SOL    HW2 7437   1.022   1.895   7.313
 2293SOL     OW 7438   0.498   1.898   7.331
 2293SOL    HW1 7439   0.454   1.846   7.264
 2293SOL    HW2 7440   0.443   1.976   7.341
 2294SOL     OW 7441   0.584   2.736   6.617
 2294SOL    HW1 7442   0.616   2.826   6.617
 2294SOL    HW2 7443   0.529   2.730   6.695
 2295SOL     OW 7444   1.356   2.717   6.614
 2295SOL    HW1 7445   1.275   2.717   6.562
 2295SOL    HW2 7446   1.371   2.625   6.635
 2296SOL     OW 7447   1.212   2.393   5.856
 2296SOL    HW1 7448   1.225   2.319   5.915
 2296SOL    HW2 7449   1.163   2.457   5.909
 2297SOL     OW 7450   0.311   2.059   6.834
 2297SOL    HW1 7451   0.263   2.096   6.908
 2297SOL    HW2 7452   0.287   1.966   6.834
 2298SOL     OW 7453   0.061   3.167   6.865
 2298SOL    HW1 7454   0.091   3.127   6.947
 2298SOL    HW2 7455   0.052   3.260   6.887
 2299SOL     OW 7456   0.724   2.494   6.644
 2299SOL    HW1 7457   0.798   2.477   6.586
 2299SOL    HW2 7458   0.696   2.583   6.622
 2300SOL     OW 7459   0.312   1.925   6.206
 2300SOL    HW1 7460   0.292   2.016   6.228
 2300SOL    HW2 7461   0.318   1.881   6.291
 2301SOL     OW 7462   1.031   2.621   6.547
 2301SOL    HW1 7463   1.025   2.638   6.641
 2301SOL    HW2 7464   1.006   2.530   6.537
 2302SOL     OW 7465   0.985   3.430   7.305
 2302SOL    HW1 7466   0.967   3.471   7.221
 2302SOL    HW2 7467   1.027   3.347   7.282
 2303SOL     OW 7468   1.856   3.365   7.190
 2303SOL    HW1 7469   1.874   3.394   7.101
 2303SOL    HW2 7470   1.937   3.385   7.238
 2304SOL     OW 7471   0.352   2.783   7.387
 2304SOL    HW1 7472   0.431   2.804   7.437
 2304SOL    HW2 7473   0.380   2.717   7.324
 2305SOL     OW 7474   1.527   2.130   5.717
 2305SOL    HW1 7475   1.463   2.062   5.740
 2305SOL    HW2 7476   1.566   2.156   5.800
 2306SOL     OW 7477   1.292   2.691   5.618
 2306SOL    HW1 7478   1.332   2.605   5.620
 2306SOL    HW2 7479   1.322   2.730   5.536
 2307SOL     OW 7480   1.067   3.199   6.441
 2307SOL    HW1 7481   1.070   3.126   6.379
 2307SOL    HW2 7482   1.127   3.264   6.405
 2308SOL     OW 7483   0.313   2.665   6.536
 2308SOL    HW1 7484   0.407   2.683   6.530
 2308SOL    HW2 7485   0.308   2.575   6.569
 2309SOL     OW 7486   0.331   2.382   6.600
 2309SOL    HW1 7487   0.297   2.294   6.583
 2309SOL    HW2 7488   0.407   2.390   6.542
 2310SOL     OW 7489   4.000   3.181   5.768
 2310SOL    HW1 7490   3.905   3.197   5.772
 2310SOL    HW2 7491   0.009   3.087   5.787
 2311SOL     OW 7492   0.075   3.663   6.480
 2311SOL    HW1 7493   0.088   3.568   6.481
 2311SOL    HW2 7494   0.164   3.699   6.478
 2312SOL     OW 7495   0.507   3.427   6.502
 2312SOL    HW1 7496   0.573   3.493   6.522
 2312SOL    HW2 7497   0.550   3.367   6.440
 2313SOL     OW 7498   0.980   2.654   6.811
 2313SOL    HW1 7499   1.034   2.632   6.887
 2313SOL    HW2 7500   0.894   2.618   6.831
 2314SOL     OW 7501   0.038   2.418   6.695
 2314SOL    HW1 7502   0.120   2.394   6.654
 2314SOL    HW2 7503   0.057   2.415   6.789
 2315SOL     OW 7504   0.207   2.375   7.314
 2315SOL    HW1 7505   0.246   2.329   7.240
 2315SOL    HW2 7506   0.158   2.447   7.273
 2316SOL     OW 7507   1.375   2.802   7.248
 2316SOL    HW1 7508   1.401   2.894   7.241
 2316SOL    HW2 7509   1.387   2.767   7.160
 2317SOL     OW 7510   0.818   2.432   5.946
 2317SOL    HW1 7511   0.820   2.356   5.887
 2317SOL    HW2 7512   0.743   2.484   5.915
 2318SOL     OW 7513   0.299   3.408   7.314
 2318SOL    HW1 7514   0.249   3.477   7.358
 2318SOL    HW2 7515   0.266   3.327   7.353
 2319SOL     OW 7516   0.704   2.311   6.844
 2319SOL    HW1 7517   0.651   2.237   6.814
 2319SOL    HW2 7518   0.699   2.375   6.773
 2320SOL     OW 7519   0.929   3.534   7.054
 2320SOL    HW1 7520   0.901   3.498   6.970
 2320SOL    HW2 7521   0.921   3.629   7.043
 2321SOL     OW 7522   0.458   2.352   5.780
 2321SOL    HW1 7523   0.522   2.420   5.799
 2321SOL    HW2 7524   0.378   2.400   5.758
 2322SOL     OW 7525   0.157   2.997   7.061
 2322SOL    HW1 7526   0.157   2.946   7.142
 2322SOL    HW2 7527   0.171   2.933   6.991
 2323SOL     OW 7528   1.325   2.907   6.810
 2323SOL    HW1 7529   1.349   2.845   6.741
 2323SOL    HW2 7530   1.255   2.959   6.771
 2324SOL     OW 7531   1.308   2.716   5.894
 2324SOL    HW1 7532   1.229   2.685   5.939
 2324SOL    HW2 7533   1.288   2.706   5.801
 2325SOL     OW 7534   1.770   3.604   6.735
 2325SOL    HW1 7535   1.833   3.632   6.669
 2325SOL    HW2 7536   1.749   3.514   6.713
 2326SOL     OW 7537   1.243   3.595   6.696
 2326SOL    HW1 7538   1.326   3.616   6.652
 2326SOL    HW2 7539   1.249   3.502   6.716
 2327SOL     OW 7540   0.076   3.077   6.613
 2327SOL    HW1 7541   0.083   3.104   6.705
 2327SOL    HW2 7542   3.983   3.087   6.593
 2328SOL     OW 7543   0.679   3.526   7.317
 2328SOL    HW1 7544   0.622   3.603   7.320
 2328SOL    HW2 7545   0.739   3.544   7.244
 2329SOL     OW 7546   1.710   2.071   6.072
 2329SOL    HW1 7547   1.796   2.034   6.054
 2329SOL    HW2 7548   1.668   2.007   6.129
 2330SOL     OW 7549   1.390   3.431   6.072
 2330SOL    HW1 7550   1.450   3.464   6.005
 2330SOL    HW2 7551   1.342   3.508   6.102
 2331SOL     OW 7552   0.169   3.625   7.417
 2331SOL    HW1 7553   0.113   3.572   7.475
 2331SOL    HW2 7554   0.216   3.684   7.476
 2332SOL     OW 7555   1.297   2.786   6.262
 2332SOL    HW1 7556   1.361   2.722   6.232
 2332SOL    HW2 7557   1.318   2.865   6.213
 2333SOL     OW 7558   0.812   3.136   7.015
 2333SOL    HW1 7559   0.784   3.176   7.098
 2333SOL    HW2 7560   0.742   3.155   6.954
 2334SOL     OW 7561   0.675   3.478   5.743
 2334SOL    HW1 7562   0.682   3.494   5.649
 2334SOL    HW2 7563   0.617   3.402   5.750
 2335SOL     OW 7564   1.624   3.588   6.976
 2335SOL    HW1 7565   1.675   3.594   6.895
 2335SOL    HW2 7566   1.610   3.679   7.002
 2336SOL     OW 7567   0.267   2.176   6.303
 2336SOL    HW1 7568   0.181   2.209   6.277
 2336SOL    HW2 7569   0.261   2.166   6.398
 2337SOL     OW 7570   1.207   3.467   5.621
 2337SOL    HW1 7571   1.197   3.375   5.645
 2337SOL    HW2 7572   1.147   3.480   5.549
 2338SOL     OW 7573   0.823   2.868   6.958
 2338SOL    HW1 7574   0.867   2.864   6.874
 2338SOL    HW2 7575   0.822   2.961   6.980
 2339SOL     OW 7576   0.916   2.772   5.877
 2339SOL    HW1 7577   0.976   2.804   5.810
 2339SOL    HW2 7578   0.964   2.702   5.921
 2340SOL     OW 7579   1.490   3.490   5.628
 2340SOL    HW1 7580   1.396   3.480   5.612
 2340SOL    HW2 7581   1.529   3.495   5.541
 2341SOL     OW 7582   0.374   3.165   7.077
 2341SOL    HW1 7583   0.359   3.245   7.027
 2341SOL    HW2 7584   0.297   3.111   7.060
 2342SOL     OW 7585   1.608   3.147   6.867
 2342SOL    HW1 7586   1.665   3.131   6.942
 2342SOL    HW2 7587   1.548   3.216   6.895
 2343SOL     OW 7588   1.054   2.969   6.295
 2343SOL    HW1 7589   0.982   2.920   6.334
 2343SOL    HW2 7590   1.110   2.903   6.255
 2344SOL     OW 7591   1.008   2.095   6.557
 2344SOL    HW1 7592   1.005   2.050   6.472
 2344SOL    HW2 7593   0.996   2.026   6.621
 2345SOL     OW 7594   0.605   3.353   6.067
 2345SOL    HW1 7595   0.649   3.302   5.998
 2345SOL    HW2 7596   0.534   3.397   6.021
 2346SOL     OW 7597   0.253   3.203   5.877
 2346SOL    HW1 7598   0.160   3.212   5.858
 2346SOL    HW2 7599   0.263   3.241   5.965
 2347SOL     OW 7600   0.107   2.860   7.303
 2347SOL    HW1 7601   0.046   2.852   7.376
 2347SOL    HW2 7602   0.193   2.842   7.341
 2348SOL     OW 7603   0.671   2.058   7.086
 2348SOL    HW1 7604   0.755   2.038   7.045
 2348SOL    HW2 7605   0.695   2.089   7.174
 2349SOL     OW 7606   0.081   2.179   5.624
 2349SOL    HW1 7607   3.985   2.178   5.630
 2349SOL    HW2 7608   0.101   2.259   5.576
 2350SOL     OW 7609   1.433   2.718   6.987
 2350SOL    HW1 7610   1.383   2.782   6.936
 2350SOL    HW2 7611   1.522   2.724   6.952
 2351SOL     OW 7612   0.021   2.093   5.959
 2351SOL    HW1 7613   0.045   2.158   5.893
 2351SOL    HW2 7614   0.104   2.056   5.989
 2352SOL     OW 7615   1.178   3.200   5.703
 2352SOL    HW1 7616   1.087   3.172   5.704
 2352SOL    HW2 7617   1.205   3.199   5.795
 2353SOL     OW 7618   0.619   2.693   7.022
 2353SOL    HW1 7619   0.675   2.768   7.006
 2353SOL    HW2 7620   0.680   2.619   7.030
 2354SOL     OW 7621   1.486   3.639   6.565
 2354SOL    HW1 7622   1.509   3.698   6.494
 2354SOL    HW2 7623   1.569   3.620   6.608
 2355SOL     OW 7624   0.718   2.426   7.292
 2355SOL    HW1 7625   0.761   2.491   7.349
 2355SOL    HW2 7626   0.748   2.342   7.326
 2356SOL     OW 7627   1.472   3.061   7.217
 2356SOL    HW1 7628   1.460   3.074   7.311
 2356SOL    HW2 7629   1.565   3.080   7.201
 2357SOL     OW 7630   0.379   3.606   7.145
 2357SOL    HW1 7631   0.291   3.642   7.132
 2357SOL    HW2 7632   0.364   3.524   7.192
 2358SOL     OW 7633   1.665   2.737   6.839
 2358SOL    HW1 7634   1.678   2.667   6.775
 2358SOL    HW2 7635   1.658   2.817   6.787
 2359SOL     OW 7636   0.590   2.599   6.257
 2359SOL    HW1 7637   0.629   2.686   6.242
 2359SOL    HW2 7638   0.523   2.591   6.189
 2360SOL     OW 7639   0.865   3.229   5.623
 2360SOL    HW1 7640   0.823   3.258   5.704
 2360SOL    HW2 7641   0.880   3.310   5.574
 2361SOL     OW 7642   0.659   3.652   6.523
 2361SOL    HW1 7643   0.637   3.743   6.504
 2361SOL    HW2 7644   0.754   3.649   6.521
 2362SOL     OW 7645   0.868   2.829   6.440
 2362SOL    HW1 7646   0.918   2.757   6.479
 2362SOL    HW2 7647   0.833   2.877   6.516
 2363SOL     OW 7648   1.077   2.849   5.675
 2363SOL    HW1 7649   1.056   2.901   5.597
 2363SOL    HW2 7650   1.153   2.797   5.649
 2364SOL     OW 7651   1.853   3.413   6.427
 2364SOL    HW1 7652   1.772   3.402   6.377
 2364SOL    HW2 7653   1.845   3.350   6.500
 2365SOL     OW 7654   0.225   3.166   7.442
 2365SOL    HW1 7655   0.153   3.109   7.415
 2365SOL    HW2 7656   0.212   3.179   7.536
 2366SOL     OW 7657   0.114   3.139   6.306
 2366SOL    HW1 7658   0.128   3.089   6.386
 2366SOL    HW2 7659   0.106   3.072   6.237
 2367SOL     OW 7660   0.682   3.265   7.216
 2367SOL    HW1 7661   0.601   3.223   7.245
 2367SOL    HW2 7662   0.678   3.354   7.252
 2368SOL     OW 7663   0.441   2.295   6.119
 2368SOL    HW1 7664   0.437   2.227   6.053
 2368SOL    HW2 7665   0.386   2.263   6.191
 2369SOL     OW 7666   1.701   3.349   6.679
 2369SOL    HW1 7667   1.619   3.327   6.634
 2369SOL    HW2 7668   1.710   3.282   6.746
 2370SOL     OW 7669   0.334   2.418   6.877
 2370SOL    HW1 7670   0.388   2.362   6.932
 2370SOL    HW2 7671   0.349   2.387   6.788
 2371SOL     OW 7672   0.828   3.440   6.263
 2371SOL    HW1 7673   0.814   3.493   6.184
 2371SOL    HW2 7674   0.753   3.381   6.266
 2372SOL     OW 7675   0.997   1.875   6.728
 2372SOL    HW1 7676   0.951   1.802   6.686
 2372SOL    HW2 7677   1.087   1.843   6.740
 2373SOL     OW 7678   0.772   3.194   5.903
 2373SOL    HW1 7679   0.741   3.104   5.909
 2373SOL    HW2 7680   0.854   3.194   5.951
 2374SOL     OW 7681   0.620   3.416   6.871
 2374SOL    HW1 7682   0.622   3.498   6.921
 2374SOL    HW2 7683   0.708   3.410   6.833
 2375SOL     OW 7684   1.354   1.919   5.749
 2375SOL    HW1 7685   1.380   1.850   5.688
 2375SOL    HW2 7686   1.270   1.890   5.783
 2376SOL     OW 7687   0.046   2.912   5.825
 2376SOL    HW1 7688   0.140   2.896   5.817
 2376SOL    HW2 7689   0.011   2.829   5.858
 2377SOL     OW 7690   0.885   3.519   5.930
 2377SOL    HW1 7691   0.814   3.500   5.868
 2377SOL    HW2 7692   0.854   3.594   5.979
 2378SOL     OW 7693   0.231   2.485   7.568
 2378SOL    HW1 7694   0.138   2.494   7.589
 2378SOL    HW2 7695   0.233   2.455   7.477
 2379SOL     OW 7696   0.229   2.133   8.435
 2379SOL    HW1 7697   0.249   2.100   8.522
 2379SOL    HW2 7698   0.134   2.126   8.428
 2380SOL     OW 7699   0.010   2.222   8.079
 2380SOL    HW1 7700   3.922   2.240   8.112
 2380SOL    HW2 7701   3.996   2.189   7.990
 2381SOL     OW 7702   0.578   3.148   8.635
 2381SOL    HW1 7703   0.492   3.152   8.594
 2381SOL    HW2 7704   0.593   3.237   8.669
 2382SOL     OW 7705   1.562   3.373   8.156
 2382SOL    HW1 7706   1.519   3.352   8.239
 2382SOL    HW2 7707   1.490   3.377   8.093
 2383SOL     OW 7708   1.129   2.561   8.148
 2383SOL    HW1 7709   1.178   2.642   8.134
 2383SOL    HW2 7710   1.084   2.574   8.231
 2384SOL     OW 7711   0.755   3.002   8.489
 2384SOL    HW1 7712   0.690   3.037   8.550
 2384SOL    HW2 7713   0.790   3.079   8.444
 2385SOL     OW 7714   0.868   2.634   9.270
 2385SOL    HW1 7715   0.858   2.705   9.333
 2385SOL    HW2 7716   0.892   2.677   9.188
 2386SOL     OW 7717   0.685   2.865   8.094
 2386SOL    HW1 7718   0.751   2.853   8.163
 2386SOL    HW2 7719   0.616   2.916   8.136
 2387SOL     OW 7720   0.711   3.012   9.263
 2387SOL    HW1 7721   0.759   3.090   9.290
 2387SOL    HW2 7722   0.629   3.045   9.226
 2388SOL     OW 7723   0.351   3.264   8.526
 2388SOL    HW1 7724   0.269   3.249   8.479
 2388SOL    HW2 7725   0.400   3.323   8.469
 2389SOL     OW 7726   1.460   3.362   8.803
 2389SOL    HW1 7727   1.513   3.442   8.814
 2389SOL    HW2 7728   1.395   3.367   8.874
 2390SOL     OW 7729   0.450   2.262   8.937
 2390SOL    HW1 7730   0.525   2.202   8.940
 2390SOL    HW2 7731   0.374   2.205   8.949
 2391SOL     OW 7732   1.591   2.311   8.223
 2391SOL    HW1 7733   1.524   2.333   8.159
 2391SOL    HW2 7734   1.653   2.384   8.220
 2392SOL     OW 7735   0.224   3.571   7.914
 2392SOL    HW1 7736   0.226   3.653   7.963
 2392SOL    HW2 7737   0.301   3.575   7.857
 2393SOL     OW 7738   1.137   3.203   9.141
 2393SOL    HW1 7739   1.177   3.198   9.228
 2393SOL    HW2 7740   1.084   3.124   9.134
 2394SOL     OW 7741   0.249   3.306   7.988
 2394SOL    HW1 7742   0.221   3.396   7.974
 2394SOL    HW2 7743   0.179   3.267   8.041
 2395SOL     OW 7744   0.247   2.930   8.332
 2395SOL    HW1 7745   0.266   2.845   8.373
 2395SOL    HW2 7746   0.194   2.976   8.397
 2396SOL     OW 7747   0.612   3.648   8.876
 2396SOL    HW1 7748   0.529   3.634   8.923
 2396SOL    HW2 7749   0.638   3.737   8.901
 2397SOL     OW 7750   0.579   2.847   7.585
 2397SOL    HW1 7751   0.626   2.892   7.516
 2397SOL    HW2 7752   0.620   2.876   7.666
 2398SOL     OW 7753   1.586   1.991   8.910
 2398SOL    HW1 7754   1.579   2.076   8.866
 2398SOL    HW2 7755   1.579   2.012   9.003
 2399SOL     OW 7756   0.142   2.513   8.022
 2399SOL    HW1 7757   0.086   2.435   8.021
 2399SOL    HW2 7758   0.105   2.567   8.092
 2400SOL     OW 7759   1.842   3.611   7.786
 2400SOL    HW1 7760   1.909   3.587   7.850
 2400SOL    HW2 7761   1.863   3.702   7.762
 2401SOL     OW 7762   0.041   3.454   7.588
 2401SOL    HW1 7763   0.034   3.361   7.612
 2401SOL    HW2 7764   3.959   3.493   7.619
 2402SOL     OW 7765   1.687   2.786   8.099
 2402SOL    HW1 7766   1.771   2.742   8.088
 2402SOL    HW2 7767   1.673   2.831   8.015
 2403SOL     OW 7768   1.647   2.966   7.878
 2403SOL    HW1 7769   1.731   2.976   7.833
 2403SOL    HW2 7770   1.651   3.028   7.951
 2404SOL     OW 7771   0.137   2.615   9.038
 2404SOL    HW1 7772   0.233   2.609   9.036
 2404SOL    HW2 7773   0.119   2.705   9.065
 2405SOL     OW 7774   0.615   3.248   8.182
 2405SOL    HW1 7775   0.568   3.165   8.192
 2405SOL    HW2 7776   0.598   3.274   8.092
 2406SOL     OW 7777   1.288   3.099   8.871
 2406SOL    HW1 7778   1.320   3.032   8.811
 2406SOL    HW2 7779   1.346   3.094   8.947
 2407SOL     OW 7780   0.819   1.862   7.959
 2407SOL    HW1 7781   0.859   1.946   7.938
 2407SOL    HW2 7782   0.725   1.881   7.965
 2408SOL     OW 7783   0.184   2.813   8.726
 2408SOL    HW1 7784   0.272   2.778   8.713
 2408SOL    HW2 7785   0.132   2.773   8.657
 2409SOL     OW 7786   1.524   2.856   7.653
 2409SOL    HW1 7787   1.452   2.803   7.688
 2409SOL    HW2 7788   1.568   2.890   7.730
 2410SOL     OW 7789   1.215   3.665   9.075
 2410SOL    HW1 7790   1.194   3.726   9.003
 2410SOL    HW2 7791   1.217   3.579   9.033
 2411SOL     OW 7792   0.340   2.109   9.263
 2411SOL    HW1 7793   0.378   2.197   9.270
 2411SOL    HW2 7794   0.249   2.120   9.288
 2412SOL     OW 7795   1.466   3.281   8.399
 2412SOL    HW1 7796   1.399   3.297   8.465
 2412SOL    HW2 7797   1.454   3.190   8.372
 2413SOL     OW 7798   1.656   3.600   8.028
 2413SOL    HW1 7799   1.640   3.570   7.939
 2413SOL    HW2 7800   1.631   3.526   8.083
 2414SOL     OW 7801   0.596   2.579   7.713
 2414SOL    HW1 7802   0.603   2.663   7.667
 2414SOL    HW2 7803   0.533   2.595   7.783
 2415SOL     OW 7804   1.278   2.218   8.380
 2415SOL    HW1 7805   1.190   2.182   8.393
 2415SOL    HW2 7806   1.334   2.165   8.436
 2416SOL     OW 7807   1.578   3.536   7.756
 2416SOL    HW1 7808   1.670   3.562   7.751
 2416SOL    HW2 7809   1.552   3.517   7.666
 2417SOL     OW 7810   0.791   2.480   8.899
 2417SOL    HW1 7811   0.764   2.455   8.988
 2417SOL    HW2 7812   0.752   2.413   8.843
 2418SOL     OW 7813   1.393   2.335   9.125
 2418SOL    HW1 7814   1.396   2.380   9.210
 2418SOL    HW2 7815   1.457   2.264   9.134
 2419SOL     OW 7816   0.953   2.749   9.031
 2419SOL    HW1 7817   1.008   2.679   8.995
 2419SOL    HW2 7818   0.905   2.783   8.956
 2420SOL     OW 7819   0.992   2.274   8.686
 2420SOL    HW1 7820   0.905   2.294   8.720
 2420SOL    HW2 7821   0.975   2.230   8.603
 2421SOL     OW 7822   1.051   2.562   7.876
 2421SOL    HW1 7823   1.067   2.554   7.970
 2421SOL    HW2 7824   0.969   2.515   7.861
 2422SOL     OW 7825   0.082   2.690   8.238
 2422SOL    HW1 7826   0.158   2.660   8.288
 2422SOL    HW2 7827   0.097   2.783   8.225
 2423SOL     OW 7828   0.127   3.716   9.024
 2423SOL    HW1 7829   0.134   3.684   9.114
 2423SOL    HW2 7830   0.035   3.703   9.002
 2424SOL     OW 7831   0.892   2.210   7.642
 2424SOL    HW1 7832   0.931   2.275   7.584
 2424SOL    HW2 7833   0.917   2.126   7.604
 2425SOL     OW 7834   1.705   2.439   9.281
 2425SOL    HW1 7835   1.669   2.510   9.227
 2425SOL    HW2 7836   1.736   2.374   9.218
 2426SOL     OW 7837   1.378   3.004   7.990
 2426SOL    HW1 7838   1.457   2.992   7.937
 2426SOL    HW2 7839   1.324   3.066   7.939
 2427SOL     OW 7840   0.546   2.041   8.341
 2427SOL    HW1 7841   0.552   2.073   8.431
 2427SOL    HW2 7842   0.546   2.120   8.288
 2428SOL     OW 7843   1.005   3.307   7.919
 2428SOL    HW1 7844   0.967   3.380   7.870
 2428SOL    HW2 7845   0.986   3.327   8.011
 2429SOL     OW 7846   0.359   3.670   8.308
 2429SOL    HW1 7847   0.436   3.615   8.320
 2429SOL    HW2 7848   0.391   3.759   8.317
 2430SOL     OW 7849   1.799   2.921   8.318
 2430SOL    HW1 7850   1.744   2.899   8.242
 2430SOL    HW2 7851   1.737   2.926   8.391
 2431SOL     OW 7852   1.228   3.399   8.959
 2431SOL    HW1 7853   1.214   3.327   9.021
 2431SOL    HW2 7854   1.161   3.386   8.892
 2432SOL     OW 7855   0.311   2.816   7.690
 2432SOL    HW1 7856   0.394   2.839   7.650
 2432SOL    HW2 7857   0.297   2.725   7.667
 2433SOL     OW 7858   1.475   2.607   8.178
 2433SOL    HW1 7859   1.468   2.561   8.261
 2433SOL    HW2 7860   1.554   2.661   8.186
 2434SOL     OW 7861   0.467   3.122   9.185
 2434SOL    HW1 7862   0.441   3.130   9.093
 2434SOL    HW2 7863   0.385   3.126   9.234
 2435SOL     OW 7864   1.113   3.642   7.671
 2435SOL    HW1 7865   1.049   3.596   7.725
 2435SOL    HW2 7866   1.143   3.577   7.607
 2436SOL     OW 7867   0.204   2.138   8.956
 2436SOL    HW1 7868   0.114   2.170   8.948
 2436SOL    HW2 7869   0.195   2.052   8.997
 2437SOL     OW 7870   1.628   3.243   7.539
 2437SOL    HW1 7871   1.588   3.328   7.520
 2437SOL    HW2 7872   1.560   3.179   7.519
 2438SOL     OW 7873   0.468   3.601   7.769
 2438SOL    HW1 7874   0.507   3.663   7.830
 2438SOL    HW2 7875   0.541   3.573   7.714
 2439SOL     OW 7876   0.252   3.656   8.676
 2439SOL    HW1 7877   0.297   3.591   8.729
 2439SOL    HW2 7878   0.250   3.618   8.588
 2440SOL     OW 7879   0.937   3.562   8.348
 2440SOL    HW1 7880   1.015   3.510   8.370
 2440SOL    HW2 7881   0.893   3.513   8.279
 2441SOL     OW 7882   0.398   2.555   7.920
 2441SOL    HW1 7883   0.423   2.464   7.934
 2441SOL    HW2 7884   0.306   2.559   7.946
 2442SOL     OW 7885   1.537   2.086   9.173
 2442SOL    HW1 7886   1.549   2.107   9.265
 2442SOL    HW2 7887   1.466   2.022   9.172
 2443SOL     OW 7888   0.635   1.980   7.549
 2443SOL    HW1 7889   0.703   1.915   7.565
 2443SOL    HW2 7890   0.589   1.949   7.471
 2444SOL     OW 7891   0.766   2.140   9.202
 2444SOL    HW1 7892   0.843   2.084   9.202
 2444SOL    HW2 7893   0.719   2.115   9.282
 2445SOL     OW 7894   0.876   3.382   8.642
 2445SOL    HW1 7895   0.860   3.346   8.555
 2445SOL    HW2 7896   0.946   3.328   8.678
 2446SOL     OW 7897   1.340   2.451   8.880
 2446SOL    HW1 7898   1.371   2.420   8.965
 2446SOL    HW2 7899   1.377   2.539   8.872
 2447SOL     OW 7900   0.816   3.255   8.388
 2447SOL    HW1 7901   0.901   3.244   8.345
 2447SOL    HW2 7902   0.753   3.256   8.316
 2448SOL     OW 7903   0.928   2.371   8.351
 2448SOL    HW1 7904   0.904   2.363   8.258
 2448SOL    HW2 7905   0.960   2.285   8.375
 2449SOL     OW 7906   0.555   1.924   7.945
 2449SOL    HW1 7907   0.473   1.929   7.993
 2449SOL    HW2 7908   0.559   2.007   7.896
 2450SOL     OW 7909   1.431   3.059   7.489
 2450SOL    HW1 7910   1.460   2.982   7.538
 2450SOL    HW2 7911   1.344   3.078   7.525
 2451SOL     OW 7912   0.308   1.913   7.618
 2451SOL    HW1 7913   0.373   1.952   7.559
 2451SOL    HW2 7914   0.357   1.847   7.668
 2452SOL     OW 7915   0.939   2.108   7.908
 2452SOL    HW1 7916   0.908   2.149   7.828
 2452SOL    HW2 7917   1.034   2.124   7.909
 2453SOL     OW 7918   1.080   2.543   8.907
 2453SOL    HW1 7919   1.013   2.475   8.911
 2453SOL    HW2 7920   1.162   2.495   8.900
 2454SOL     OW 7921   1.223   3.432   8.241
 2454SOL    HW1 7922   1.238   3.500   8.176
 2454SOL    HW2 7923   1.291   3.446   8.307
 2455SOL     OW 7924   0.466   3.012   8.184
 2455SOL    HW1 7925   0.394   2.989   8.243
 2455SOL    HW2 7926   0.432   2.997   8.096
 2456SOL     OW 7927   1.267   3.657   8.055
 2456SOL    HW1 7928   1.313   3.721   8.001
 2456SOL    HW2 7929   1.196   3.707   8.095
 2457SOL     OW 7930   1.014   2.399   7.484
 2457SOL    HW1 7931   0.982   2.486   7.460
 2457SOL    HW2 7932   1.085   2.415   7.546
 2458SOL     OW 7933   0.081   2.433   8.838
 2458SOL    HW1 7934   0.171   2.420   8.808
 2458SOL    HW2 7935   0.088   2.503   8.903
 2459SOL     OW 7936   0.567   2.089   8.613
 2459SOL    HW1 7937   0.607   2.013   8.654
 2459SOL    HW2 7938   0.475   2.086   8.642
 2460SOL     OW 7939   0.867   2.321   8.088
 2460SOL    HW1 7940   0.820   2.374   8.024
 2460SOL    HW2 7941   0.888   2.240   8.040
 2461SOL     OW 7942   1.019   1.912   8.197
 2461SOL    HW1 7943   0.958   1.910   8.123
 2461SOL    HW2 7944   0.992   1.839   8.253
 2462SOL     OW 7945   1.437   3.025   8.305
 2462SOL    HW1 7946   1.369   2.958   8.307
 2462SOL    HW2 7947   1.459   3.033   8.212
 2463SOL     OW 7948   1.456   2.477   8.434
 2463SOL    HW1 7949   1.420   2.389   8.419
 2463SOL    HW2 7950   1.521   2.465   8.503
 2464SOL     OW 7951   1.856   2.678   7.824
 2464SOL    HW1 7952   1.873   2.625   7.902
 2464SOL    HW2 7953   1.845   2.614   7.753
 2465SOL     OW 7954   0.488   3.280   7.608
 2465SOL    HW1 7955   0.413   3.250   7.658
 2465SOL    HW2 7956   0.469   3.254   7.517
 2466SOL     OW 7957   1.672   3.128   8.090
 2466SOL    HW1 7958   1.766   3.130   8.106
 2466SOL    HW2 7959   1.641   3.215   8.114
 2467SOL     OW 7960   0.573   2.131   7.769
 2467SOL    HW1 7961   0.601   2.082   7.692
 2467SOL    HW2 7962   0.541   2.214   7.735
 2468SOL     OW 7963   1.752   3.102   9.019
 2468SOL    HW1 7964   1.839   3.063   9.016
 2468SOL    HW2 7965   1.767   3.193   9.047
 2469SOL     OW 7966   1.057   3.215   8.781
 2469SOL    HW1 7967   0.983   3.184   8.832
 2469SOL    HW2 7968   1.133   3.174   8.822
 2470SOL     OW 7969   1.609   3.488   9.103
 2470SOL    HW1 7970   1.602   3.522   9.014
 2470SOL    HW2 7971   1.692   3.440   9.104
 2471SOL     OW 7972   1.131   3.067   8.553
 2471SOL    HW1 7973   1.071   3.104   8.617
 2471SOL    HW2 7974   1.098   3.099   8.469
 2472SOL     OW 7975   1.627   2.960   8.526
 2472SOL    HW1 7976   1.622   3.022   8.598
 2472SOL    HW2 7977   1.548   2.976   8.474
 2473SOL     OW 7978   0.918   1.958   8.843
 2473SOL    HW1 7979   0.941   1.939   8.752
 2473SOL    HW2 7980   0.997   1.998   8.880
 2474SOL     OW 7981   0.984   2.977   9.171
 2474SOL    HW1 7982   0.892   2.993   9.192
 2474SOL    HW2 7983   0.982   2.899   9.115
 2475SOL     OW 7984   0.708   2.922   7.819
 2475SOL    HW1 7985   0.694   2.906   7.912
 2475SOL    HW2 7986   0.784   2.870   7.796
 2476SOL     OW 7987   0.421   2.678   8.700
 2476SOL    HW1 7988   0.490   2.686   8.767
 2476SOL    HW2 7989   0.387   2.589   8.712
 2477SOL     OW 7990   1.265   2.237   8.726
 2477SOL    HW1 7991   1.298   2.315   8.769
 2477SOL    HW2 7992   1.175   2.259   8.701
 2478SOL     OW 7993   0.065   3.441   8.794
 2478SOL    HW1 7994   0.070   3.501   8.719
 2478SOL    HW2 7995   0.156   3.429   8.820
 2479SOL     OW 7996   0.372   2.964   7.932
 2479SOL    HW1 7997   0.366   3.044   7.879
 2479SOL    HW2 7998   0.371   2.893   7.868
 2480SOL     OW 7999   0.550   2.399   8.310
 2480SOL    HW1 8000   0.565   2.455   8.234
 2480SOL    HW2 8001   0.618   2.425   8.373
 2481SOL     OW 8002   1.248   3.211   7.838
 2481SOL    HW1 8003   1.304   3.282   7.869
 2481SOL    HW2 8004   1.161   3.232   7.871
 2482SOL     OW 8005   1.283   3.321   8.595
 2482SOL    HW1 8006   1.338   3.324   8.673
 2482SOL    HW2 8007   1.227   3.244   8.608
 2483SOL     OW 8008   1.606   2.532   7.936
 2483SOL    HW1 8009   1.539   2.554   8.002
 2483SOL    HW2 8010   1.595   2.599   7.869
 2484SOL     OW 8011   0.345   3.389   8.766
 2484SOL    HW1 8012   0.335   3.339   8.685
 2484SOL    HW2 8013   0.439   3.404   8.774
 2485SOL     OW 8014   0.415   2.601   9.049
 2485SOL    HW1 8015   0.477   2.647   8.992
 2485SOL    HW2 8016   0.455   2.516   9.066
 2486SOL     OW 8017   1.603   2.642   9.130
 2486SOL    HW1 8018   1.517   2.683   9.124
 2486SOL    HW2 8019   1.655   2.684   9.062
 2487SOL     OW 8020   0.996   1.988   9.202
 2487SOL    HW1 8021   1.053   2.060   9.176
 2487SOL    HW2 8022   1.044   1.909   9.177
 2488SOL     OW 8023   0.497   1.898   9.194
 2488SOL    HW1 8024   0.454   1.846   9.127
 2488SOL    HW2 8025   0.442   1.976   9.203
 2489SOL     OW 8026   0.585   2.736   8.480
 2489SOL    HW1 8027   0.617   2.826   8.479
 2489SOL    HW2 8028   0.529   2.730   8.557
 2490SOL     OW 8029   1.354   2.725   8.475
 2490SOL    HW1 8030   1.269   2.713   8.431
 2490SOL    HW2 8031   1.395   2.639   8.471
 2491SOL     OW 8032   1.192   2.396   7.704
 2491SOL    HW1 8033   1.209   2.318   7.756
 2491SOL    HW2 8034   1.154   2.459   7.766
 2492SOL     OW 8035   0.311   2.059   8.696
 2492SOL    HW1 8036   0.264   2.096   8.770
 2492SOL    HW2 8037   0.287   1.966   8.696
 2493SOL     OW 8038   0.058   3.167   8.728
 2493SOL    HW1 8039   0.090   3.127   8.809
 2493SOL    HW2 8040   0.051   3.260   8.749
 2494SOL     OW 8041   0.725   2.493   8.505
 2494SOL    HW1 8042   0.799   2.477   8.448
 2494SOL    HW2 8043   0.697   2.582   8.484
 2495SOL     OW 8044   1.735   2.821   9.301
 2495SOL    HW1 8045   1.691   2.757   9.246
 2495SOL    HW2 8046   1.675   2.836   9.374
 2496SOL     OW 8047   0.313   1.925   8.068
 2496SOL    HW1 8048   0.292   2.016   8.089
 2496SOL    HW2 8049   0.318   1.881   8.153
 2497SOL     OW 8050   1.027   2.621   8.408
 2497SOL    HW1 8051   1.023   2.639   8.502
 2497SOL    HW2 8052   1.002   2.529   8.400
 2498SOL     OW 8053   0.985   3.429   9.167
 2498SOL    HW1 8054   0.967   3.471   9.083
 2498SOL    HW2 8055   1.027   3.347   9.144
 2499SOL     OW 8056   1.854   3.366   9.053
 2499SOL    HW1 8057   1.873   3.394   8.963
 2499SOL    HW2 8058   1.935   3.385   9.101
 2500SOL     OW 8059   0.352   2.783   9.249
 2500SOL    HW1 8060   0.431   2.804   9.299
 2500SOL    HW2 8061   0.380   2.716   9.186
 2501SOL     OW 8062   1.292   2.686   7.478
 2501SOL    HW1 8063   1.331   2.598   7.473
 2501SOL    HW2 8064   1.323   2.730   7.399
 2502SOL     OW 8065   1.066   3.198   8.302
 2502SOL    HW1 8066   1.070   3.126   8.240
 2502SOL    HW2 8067   1.127   3.263   8.267
 2503SOL     OW 8068   0.313   2.665   8.398
 2503SOL    HW1 8069   0.407   2.683   8.392
 2503SOL    HW2 8070   0.308   2.575   8.430
 2504SOL     OW 8071   0.330   2.382   8.462
 2504SOL    HW1 8072   0.296   2.294   8.445
 2504SOL    HW2 8073   0.406   2.390   8.405
 2505SOL     OW 8074   1.134   2.236   9.132
 2505SOL    HW1 8075   1.087   2.292   9.193
 2505SOL    HW2 8076   1.222   2.275   9.127
 2506SOL     OW 8077   1.160   2.063   8.919
 2506SOL    HW1 8078   1.150   2.126   8.990
 2506SOL    HW2 8079   1.201   2.114   8.848
 2507SOL     OW 8080   4.000   3.181   7.630
 2507SOL    HW1 8081   3.905   3.197   7.634
 2507SOL    HW2 8082   0.009   3.087   7.648
 2508SOL     OW 8083   0.076   3.663   8.342
 2508SOL    HW1 8084   0.089   3.568   8.343
 2508SOL    HW2 8085   0.164   3.699   8.340
 2509SOL     OW 8086   0.507   3.427   8.364
 2509SOL    HW1 8087   0.573   3.492   8.384
 2509SOL    HW2 8088   0.550   3.367   8.302
 2510SOL     OW 8089   0.981   2.654   8.674
 2510SOL    HW1 8090   1.038   2.631   8.748
 2510SOL    HW2 8091   0.896   2.615   8.697
 2511SOL     OW 8092   0.037   2.418   8.558
 2511SOL    HW1 8093   0.119   2.394   8.515
 2511SOL    HW2 8094   0.057   2.415   8.651
 2512SOL     OW 8095   0.207   2.375   9.175
 2512SOL    HW1 8096   0.247   2.329   9.102
 2512SOL    HW2 8097   0.158   2.447   9.135
 2513SOL     OW 8098   1.377   2.800   9.106
 2513SOL    HW1 8099   1.399   2.893   9.103
 2513SOL    HW2 8100   1.375   2.773   9.014
 2514SOL     OW 8101   0.818   2.431   7.809
 2514SOL    HW1 8102   0.823   2.356   7.750
 2514SOL    HW2 8103   0.744   2.482   7.777
 2515SOL     OW 8104   1.646   2.466   8.633
 2515SOL    HW1 8105   1.634   2.408   8.708
 2515SOL    HW2 8106   1.730   2.440   8.596
 2516SOL     OW 8107   0.299   3.408   9.176
 2516SOL    HW1 8108   0.249   3.477   9.220
 2516SOL    HW2 8109   0.266   3.327   9.215
 2517SOL     OW 8110   0.704   2.312   8.707
 2517SOL    HW1 8111   0.652   2.238   8.676
 2517SOL    HW2 8112   0.699   2.375   8.635
 2518SOL     OW 8113   0.929   3.534   8.916
 2518SOL    HW1 8114   0.902   3.498   8.832
 2518SOL    HW2 8115   0.921   3.629   8.905
 2519SOL     OW 8116   0.457   2.352   7.642
 2519SOL    HW1 8117   0.522   2.419   7.660
 2519SOL    HW2 8118   0.377   2.400   7.621
 2520SOL     OW 8119   0.156   2.997   8.922
 2520SOL    HW1 8120   0.158   2.947   9.003
 2520SOL    HW2 8121   0.171   2.933   8.853
 2521SOL     OW 8122   1.325   2.909   8.671
 2521SOL    HW1 8123   1.347   2.845   8.603
 2521SOL    HW2 8124   1.256   2.962   8.632
 2522SOL     OW 8125   1.312   2.716   7.756
 2522SOL    HW1 8126   1.236   2.686   7.807
 2522SOL    HW2 8127   1.285   2.702   7.665
 2523SOL     OW 8128   1.770   3.604   8.597
 2523SOL    HW1 8129   1.833   3.632   8.530
 2523SOL    HW2 8130   1.749   3.513   8.575
 2524SOL     OW 8131   1.244   3.595   8.558
 2524SOL    HW1 8132   1.326   3.616   8.515
 2524SOL    HW2 8133   1.249   3.502   8.578
 2525SOL     OW 8134   0.076   3.077   8.476
 2525SOL    HW1 8135   0.082   3.104   8.567
 2525SOL    HW2 8136   3.983   3.087   8.455
 2526SOL     OW 8137   0.679   3.526   9.179
 2526SOL    HW1 8138   0.622   3.603   9.182
 2526SOL    HW2 8139   0.739   3.544   9.106
 2527SOL     OW 8140   1.390   3.431   7.934
 2527SOL    HW1 8141   1.450   3.464   7.867
 2527SOL    HW2 8142   1.342   3.508   7.964
 2528SOL     OW 8143   0.169   3.625   9.279
 2528SOL    HW1 8144   0.113   3.573   9.337
 2528SOL    HW2 8145   0.216   3.684   9.338
 2529SOL     OW 8146   1.275   2.789   8.119
 2529SOL    HW1 8147   1.349   2.729   8.130
 2529SOL    HW2 8148   1.311   2.861   8.067
 2530SOL     OW 8149   0.812   3.136   8.877
 2530SOL    HW1 8150   0.784   3.176   8.959
 2530SOL    HW2 8151   0.742   3.155   8.815
 2531SOL     OW 8152   0.675   3.478   7.605
 2531SOL    HW1 8153   0.683   3.495   7.511
 2531SOL    HW2 8154   0.616   3.402   7.612
 2532SOL     OW 8155   1.624   3.588   8.838
 2532SOL    HW1 8156   1.675   3.594   8.757
 2532SOL    HW2 8157   1.610   3.679   8.864
 2533SOL     OW 8158   0.267   2.176   8.165
 2533SOL    HW1 8159   0.181   2.209   8.138
 2533SOL    HW2 8160   0.261   2.166   8.260
 2534SOL     OW 8161   1.208   3.467   7.483
 2534SOL    HW1 8162   1.197   3.375   7.507
 2534SOL    HW2 8163   1.147   3.480   7.411
 2535SOL     OW 8164   0.823   2.867   8.821
 2535SOL    HW1 8165   0.868   2.862   8.737
 2535SOL    HW2 8166   0.823   2.961   8.842
 2536SOL     OW 8167   0.916   2.773   7.738
 2536SOL    HW1 8168   0.977   2.804   7.672
 2536SOL    HW2 8169   0.964   2.704   7.784
 2537SOL     OW 8170   1.490   3.490   7.490
 2537SOL    HW1 8171   1.396   3.480   7.474
 2537SOL    HW2 8172   1.529   3.495   7.403
 2538SOL     OW 8173   0.374   3.165   8.939
 2538SOL    HW1 8174   0.359   3.245   8.889
 2538SOL    HW2 8175   0.297   3.111   8.922
 2539SOL     OW 8176   1.611   3.146   8.728
 2539SOL    HW1 8177   1.670   3.133   8.803
 2539SOL    HW2 8178   1.550   3.214   8.757
 2540SOL     OW 8179   1.054   2.970   8.155
 2540SOL    HW1 8180   0.982   2.919   8.194
 2540SOL    HW2 8181   1.117   2.904   8.126
 2541SOL     OW 8182   1.021   2.102   8.415
 2541SOL    HW1 8183   1.019   2.055   8.332
 2541SOL    HW2 8184   1.016   2.033   8.481
 2542SOL     OW 8185   0.605   3.353   7.929
 2542SOL    HW1 8186   0.650   3.302   7.861
 2542SOL    HW2 8187   0.534   3.397   7.883
 2543SOL     OW 8188   1.725   2.251   8.823
 2543SOL    HW1 8189   1.798   2.313   8.830
 2543SOL    HW2 8190   1.759   2.183   8.765
 2544SOL     OW 8191   0.253   3.203   7.739
 2544SOL    HW1 8192   0.160   3.212   7.720
 2544SOL    HW2 8193   0.263   3.241   7.827
 2545SOL     OW 8194   0.107   2.860   9.165
 2545SOL    HW1 8195   0.046   2.853   9.239
 2545SOL    HW2 8196   0.193   2.842   9.203
 2546SOL     OW 8197   0.675   2.058   8.948
 2546SOL    HW1 8198   0.759   2.038   8.906
 2546SOL    HW2 8199   0.698   2.090   9.035
 2547SOL     OW 8200   0.080   2.178   7.485
 2547SOL    HW1 8201   3.985   2.178   7.492
 2547SOL    HW2 8202   0.101   2.258   7.438
 2548SOL     OW 8203   1.429   2.720   8.848
 2548SOL    HW1 8204   1.380   2.781   8.792
 2548SOL    HW2 8205   1.518   2.722   8.813
 2549SOL     OW 8206   0.020   2.093   7.822
 2549SOL    HW1 8207   0.044   2.158   7.756
 2549SOL    HW2 8208   0.103   2.056   7.851
 2550SOL     OW 8209   1.178   3.200   7.564
 2550SOL    HW1 8210   1.087   3.171   7.566
 2550SOL    HW2 8211   1.206   3.199   7.656
 2551SOL     OW 8212   0.619   2.692   8.884
 2551SOL    HW1 8213   0.675   2.768   8.868
 2551SOL    HW2 8214   0.680   2.619   8.891
 2552SOL     OW 8215   1.485   3.640   8.428
 2552SOL    HW1 8216   1.509   3.698   8.355
 2552SOL    HW2 8217   1.569   3.620   8.470
 2553SOL     OW 8218   0.716   2.425   9.153
 2553SOL    HW1 8219   0.760   2.487   9.211
 2553SOL    HW2 8220   0.743   2.339   9.185
 2554SOL     OW 8221   1.472   3.061   9.079
 2554SOL    HW1 8222   1.460   3.075   9.173
 2554SOL    HW2 8223   1.566   3.077   9.064
 2555SOL     OW 8224   0.378   3.606   9.007
 2555SOL    HW1 8225   0.291   3.642   8.994
 2555SOL    HW2 8226   0.364   3.524   9.054
 2556SOL     OW 8227   1.669   2.743   8.703
 2556SOL    HW1 8228   1.662   2.657   8.661
 2556SOL    HW2 8229   1.658   2.806   8.631
 2557SOL     OW 8230   1.216   2.183   7.902
 2557SOL    HW1 8231   1.298   2.139   7.878
 2557SOL    HW2 8232   1.238   2.231   7.982
 2558SOL     OW 8233   0.589   2.600   8.120
 2558SOL    HW1 8234   0.628   2.686   8.104
 2558SOL    HW2 8235   0.522   2.591   8.051
 2559SOL     OW 8236   1.755   2.243   9.098
 2559SOL    HW1 8237   1.739   2.246   9.003
 2559SOL    HW2 8238   1.694   2.177   9.130
 2560SOL     OW 8239   1.745   2.797   8.960
 2560SOL    HW1 8240   1.740   2.892   8.972
 2560SOL    HW2 8241   1.729   2.784   8.866
 2561SOL     OW 8242   0.864   3.229   7.485
 2561SOL    HW1 8243   0.823   3.258   7.567
 2561SOL    HW2 8244   0.879   3.310   7.436
 2562SOL     OW 8245   0.659   3.652   8.386
 2562SOL    HW1 8246   0.637   3.743   8.366
 2562SOL    HW2 8247   0.754   3.649   8.383
 2563SOL     OW 8248   0.868   2.829   8.302
 2563SOL    HW1 8249   0.918   2.758   8.341
 2563SOL    HW2 8250   0.833   2.877   8.377
 2564SOL     OW 8251   1.079   2.850   7.536
 2564SOL    HW1 8252   1.058   2.901   7.459
 2564SOL    HW2 8253   1.154   2.796   7.509
 2565SOL     OW 8254   1.852   3.413   8.290
 2565SOL    HW1 8255   1.772   3.404   8.239
 2565SOL    HW2 8256   1.842   3.351   8.363
 2566SOL     OW 8257   0.225   3.166   9.304
 2566SOL    HW1 8258   0.153   3.109   9.278
 2566SOL    HW2 8259   0.213   3.179   9.398
 2567SOL     OW 8260   0.113   3.138   8.168
 2567SOL    HW1 8261   0.130   3.088   8.248
 2567SOL    HW2 8262   0.106   3.072   8.099
 2568SOL     OW 8263   0.682   3.265   9.078
 2568SOL    HW1 8264   0.601   3.224   9.107
 2568SOL    HW2 8265   0.678   3.354   9.114
 2569SOL     OW 8266   0.441   2.296   7.981
 2569SOL    HW1 8267   0.444   2.226   7.916
 2569SOL    HW2 8268   0.385   2.262   8.051
 2570SOL     OW 8269   1.701   3.349   8.540
 2570SOL    HW1 8270   1.619   3.327   8.496
 2570SOL    HW2 8271   1.711   3.281   8.607
 2571SOL     OW 8272   0.333   2.418   8.739
 2571SOL    HW1 8273   0.388   2.362   8.794
 2571SOL    HW2 8274   0.349   2.388   8.650
 2572SOL     OW 8275   0.827   3.441   8.125
 2572SOL    HW1 8276   0.813   3.492   8.045
 2572SOL    HW2 8277   0.753   3.381   8.128
 2573SOL     OW 8278   1.436   2.089   8.568
 2573SOL    HW1 8279   1.445   2.002   8.609
 2573SOL    HW2 8280   1.382   2.138   8.630
 2574SOL     OW 8281   1.009   1.879   8.589
 2574SOL    HW1 8282   0.955   1.811   8.548
 2574SOL    HW2 8283   1.097   1.842   8.591
 2575SOL     OW 8284   0.772   3.194   7.766
 2575SOL    HW1 8285   0.741   3.104   7.771
 2575SOL    HW2 8286   0.855   3.194   7.813
 2576SOL     OW 8287   0.620   3.416   8.733
 2576SOL    HW1 8288   0.622   3.498   8.783
 2576SOL    HW2 8289   0.708   3.410   8.695
 2577SOL     OW 8290   1.289   2.322   8.126
 2577SOL    HW1 8291   1.238   2.402   8.135
 2577SOL    HW2 8292   1.291   2.284   8.214
 2578SOL     OW 8293   1.567   2.050   8.321
 2578SOL    HW1 8294   1.530   2.073   8.406
 2578SOL    HW2 8295   1.585   2.135   8.279
 2579SOL     OW 8296   0.047   2.912   7.687
 2579SOL    HW1 8297   0.141   2.896   7.679
 2579SOL    HW2 8298   0.011   2.830   7.720
 2580SOL     OW 8299   0.885   3.519   7.792
 2580SOL    HW1 8300   0.814   3.500   7.730
 2580SOL    HW2 8301   0.854   3.595   7.841
 2581SOL     OW 8302   0.231   2.485   9.430
 2581SOL    HW1 8303   0.138   2.494   9.451
 2581SOL    HW2 8304   0.233   2.454   9.339
 2582SOL     OW 8305   0.229   2.134  10.297
 2582SOL    HW1 8306   0.249   2.100  10.384
 2582SOL    HW2 8307   0.134   2.126  10.290
 2583SOL     OW 8308   0.010   2.222   9.940
 2583SOL    HW1 8309   3.923   2.240   9.974
 2583SOL    HW2 8310   3.996   2.189   9.852
 2584SOL     OW 8311   0.578   3.148  10.497
 2584SOL    HW1 8312   0.492   3.152  10.456
 2584SOL    HW2 8313   0.593   3.237  10.531
 2585SOL     OW 8314   1.562   3.373  10.018
 2585SOL    HW1 8315   1.520   3.352  10.101
 2585SOL    HW2 8316   1.490   3.376   9.955
 2586SOL     OW 8317   1.131   2.560  10.010
 2586SOL    HW1 8318   1.180   2.641   9.996
 2586SOL    HW2 8319   1.084   2.573  10.092
 2587SOL     OW 8320   1.773   2.466   9.538
 2587SOL    HW1 8321   1.749   2.462   9.446
 2587SOL    HW2 8322   1.737   2.387   9.577
 2588SOL     OW 8323   0.755   3.002  10.351
 2588SOL    HW1 8324   0.690   3.037  10.412
 2588SOL    HW2 8325   0.790   3.079  10.306
 2589SOL     OW 8326   0.868   2.634  11.132
 2589SOL    HW1 8327   0.858   2.705  11.195
 2589SOL    HW2 8328   0.891   2.677  11.050
 2590SOL     OW 8329   0.685   2.864   9.957
 2590SOL    HW1 8330   0.751   2.853  10.025
 2590SOL    HW2 8331   0.616   2.916   9.998
 2591SOL     OW 8332   0.711   3.012  11.125
 2591SOL    HW1 8333   0.759   3.090  11.152
 2591SOL    HW2 8334   0.629   3.045  11.088
 2592SOL     OW 8335   0.351   3.264  10.388
 2592SOL    HW1 8336   0.268   3.249  10.341
 2592SOL    HW2 8337   0.400   3.323  10.331
 2593SOL     OW 8338   1.460   3.362  10.665
 2593SOL    HW1 8339   1.513   3.441  10.675
 2593SOL    HW2 8340   1.396   3.367  10.736
 2594SOL     OW 8341   0.450   2.262  10.799
 2594SOL    HW1 8342   0.525   2.202  10.802
 2594SOL    HW2 8343   0.374   2.205  10.811
 2595SOL     OW 8344   1.605   2.307  10.048
 2595SOL    HW1 8345   1.524   2.328  10.003
 2595SOL    HW2 8346   1.621   2.383  10.104
 2596SOL     OW 8347   0.224   3.571   9.776
 2596SOL    HW1 8348   0.226   3.653   9.825
 2596SOL    HW2 8349   0.301   3.575   9.719
 2597SOL     OW 8350   1.137   3.203  11.003
 2597SOL    HW1 8351   1.178   3.198  11.090
 2597SOL    HW2 8352   1.084   3.124  10.996
 2598SOL     OW 8353   0.249   3.305   9.850
 2598SOL    HW1 8354   0.221   3.396   9.836
 2598SOL    HW2 8355   0.179   3.267   9.903
 2599SOL     OW 8356   0.247   2.930  10.194
 2599SOL    HW1 8357   0.266   2.845  10.235
 2599SOL    HW2 8358   0.194   2.976  10.259
 2600SOL     OW 8359   0.612   3.648  10.738
 2600SOL    HW1 8360   0.529   3.634  10.785
 2600SOL    HW2 8361   0.638   3.737  10.763
 2601SOL     OW 8362   0.579   2.847   9.447
 2601SOL    HW1 8363   0.626   2.892   9.378
 2601SOL    HW2 8364   0.621   2.876   9.528
 2602SOL     OW 8365   1.589   1.991  10.774
 2602SOL    HW1 8366   1.584   2.076  10.729
 2602SOL    HW2 8367   1.581   2.012  10.867
 2603SOL     OW 8368   0.142   2.513   9.884
 2603SOL    HW1 8369   0.087   2.435   9.883
 2603SOL    HW2 8370   0.105   2.567   9.954
 2604SOL     OW 8371   1.842   3.611   9.648
 2604SOL    HW1 8372   1.910   3.587   9.711
 2604SOL    HW2 8373   1.863   3.701   9.624
 2605SOL     OW 8374   0.041   3.454   9.450
 2605SOL    HW1 8375   0.033   3.361   9.474
 2605SOL    HW2 8376   3.960   3.494   9.482
 2606SOL     OW 8377   1.689   2.780   9.952
 2606SOL    HW1 8378   1.771   2.737   9.929
 2606SOL    HW2 8379   1.667   2.831   9.874
 2607SOL     OW 8380   1.647   2.968   9.739
 2607SOL    HW1 8381   1.732   2.972   9.697
 2607SOL    HW2 8382   1.652   3.030   9.812
 2608SOL     OW 8383   0.137   2.615  10.900
 2608SOL    HW1 8384   0.233   2.609  10.898
 2608SOL    HW2 8385   0.119   2.704  10.927
 2609SOL     OW 8386   0.615   3.248  10.044
 2609SOL    HW1 8387   0.568   3.165  10.054
 2609SOL    HW2 8388   0.598   3.274   9.954
 2610SOL     OW 8389   1.288   3.099  10.733
 2610SOL    HW1 8390   1.320   3.032  10.673
 2610SOL    HW2 8391   1.346   3.094  10.808
 2611SOL     OW 8392   0.818   1.862   9.820
 2611SOL    HW1 8393   0.858   1.946   9.800
 2611SOL    HW2 8394   0.725   1.880   9.827
 2612SOL     OW 8395   0.185   2.813  10.588
 2612SOL    HW1 8396   0.273   2.778  10.575
 2612SOL    HW2 8397   0.132   2.773  10.519
 2613SOL     OW 8398   1.531   2.857   9.509
 2613SOL    HW1 8399   1.462   2.800   9.541
 2613SOL    HW2 8400   1.573   2.891   9.588
 2614SOL     OW 8401   1.215   3.665  10.937
 2614SOL    HW1 8402   1.194   3.726  10.865
 2614SOL    HW2 8403   1.216   3.579  10.895
 2615SOL     OW 8404   0.340   2.109  11.125
 2615SOL    HW1 8405   0.378   2.197  11.132
 2615SOL    HW2 8406   0.249   2.120  11.150
 2616SOL     OW 8407   1.466   3.282  10.260
 2616SOL    HW1 8408   1.398   3.297  10.327
 2616SOL    HW2 8409   1.454   3.190  10.234
 2617SOL     OW 8410   1.655   3.601   9.890
 2617SOL    HW1 8411   1.640   3.570   9.801
 2617SOL    HW2 8412   1.631   3.526   9.945
 2618SOL     OW 8413   0.596   2.579   9.575
 2618SOL    HW1 8414   0.602   2.663   9.529
 2618SOL    HW2 8415   0.533   2.595   9.645
 2619SOL     OW 8416   1.279   2.220  10.244
 2619SOL    HW1 8417   1.190   2.184  10.254
 2619SOL    HW2 8418   1.333   2.164  10.300
 2620SOL     OW 8419   1.577   3.537   9.618
 2620SOL    HW1 8420   1.670   3.562   9.613
 2620SOL    HW2 8421   1.552   3.517   9.528
 2621SOL     OW 8422   0.791   2.480  10.761
 2621SOL    HW1 8423   0.765   2.455  10.850
 2621SOL    HW2 8424   0.752   2.413  10.705
 2622SOL     OW 8425   1.394   2.335  10.987
 2622SOL    HW1 8426   1.396   2.380  11.071
 2622SOL    HW2 8427   1.457   2.264  10.996
 2623SOL     OW 8428   0.953   2.749  10.893
 2623SOL    HW1 8429   1.008   2.679  10.857
 2623SOL    HW2 8430   0.905   2.783  10.818
 2624SOL     OW 8431   0.992   2.274  10.548
 2624SOL    HW1 8432   0.906   2.295  10.583
 2624SOL    HW2 8433   0.975   2.229  10.465
 2625SOL     OW 8434   1.052   2.560   9.736
 2625SOL    HW1 8435   1.068   2.553   9.830
 2625SOL    HW2 8436   0.969   2.514   9.722
 2626SOL     OW 8437   0.082   2.689  10.100
 2626SOL    HW1 8438   0.158   2.660  10.150
 2626SOL    HW2 8439   0.097   2.783  10.087
 2627SOL     OW 8440   0.127   3.716  10.886
 2627SOL    HW1 8441   0.134   3.684  10.976
 2627SOL    HW2 8442   0.035   3.703  10.864
 2628SOL     OW 8443   0.895   2.211   9.503
 2628SOL    HW1 8444   0.935   2.274   9.442
 2628SOL    HW2 8445   0.912   2.126   9.464
 2629SOL     OW 8446   1.705   2.439  11.143
 2629SOL    HW1 8447   1.669   2.509  11.089
 2629SOL    HW2 8448   1.736   2.373  11.080
 2630SOL     OW 8449   1.378   3.004   9.851
 2630SOL    HW1 8450   1.457   2.991   9.798
 2630SOL    HW2 8451   1.325   3.066   9.801
 2631SOL     OW 8452   0.546   2.041  10.204
 2631SOL    HW1 8453   0.552   2.073  10.294
 2631SOL    HW2 8454   0.546   2.120  10.150
 2632SOL     OW 8455   1.005   3.307   9.781
 2632SOL    HW1 8456   0.967   3.380   9.732
 2632SOL    HW2 8457   0.986   3.327   9.873
 2633SOL     OW 8458   0.359   3.670  10.170
 2633SOL    HW1 8459   0.436   3.615  10.182
 2633SOL    HW2 8460   0.391   3.759  10.179
 2634SOL     OW 8461   1.799   2.917  10.179
 2634SOL    HW1 8462   1.745   2.899  10.102
 2634SOL    HW2 8463   1.737   2.923  10.251
 2635SOL     OW 8464   1.228   3.399  10.821
 2635SOL    HW1 8465   1.214   3.327  10.883
 2635SOL    HW2 8466   1.161   3.386  10.754
 2636SOL     OW 8467   0.311   2.816   9.552
 2636SOL    HW1 8468   0.394   2.840   9.512
 2636SOL    HW2 8469   0.297   2.725   9.529
 2637SOL     OW 8470   1.480   2.605  10.035
 2637SOL    HW1 8471   1.472   2.564  10.121
 2637SOL    HW2 8472   1.557   2.661  10.042
 2638SOL     OW 8473   0.467   3.122  11.047
 2638SOL    HW1 8474   0.441   3.130  10.955
 2638SOL    HW2 8475   0.385   3.126  11.096
 2639SOL     OW 8476   1.113   3.643   9.532
 2639SOL    HW1 8477   1.050   3.596   9.587
 2639SOL    HW2 8478   1.143   3.577   9.469
 2640SOL     OW 8479   0.204   2.138  10.818
 2640SOL    HW1 8480   0.114   2.170  10.810
 2640SOL    HW2 8481   0.195   2.052  10.859
 2641SOL     OW 8482   1.628   3.243   9.400
 2641SOL    HW1 8483   1.587   3.328   9.382
 2641SOL    HW2 8484   1.559   3.179   9.379
 2642SOL     OW 8485   0.468   3.600   9.631
 2642SOL    HW1 8486   0.507   3.663   9.692
 2642SOL    HW2 8487   0.542   3.573   9.576
 2643SOL     OW 8488   1.398   1.969   9.741
 2643SOL    HW1 8489   1.382   1.946   9.649
 2643SOL    HW2 8490   1.491   1.948   9.755
 2644SOL     OW 8491   0.252   3.656  10.538
 2644SOL    HW1 8492   0.297   3.591  10.591
 2644SOL    HW2 8493   0.250   3.618  10.450
 2645SOL     OW 8494   0.937   3.562  10.210
 2645SOL    HW1 8495   1.015   3.510  10.232
 2645SOL    HW2 8496   0.893   3.513  10.141
 2646SOL     OW 8497   0.398   2.555   9.782
 2646SOL    HW1 8498   0.423   2.464   9.796
 2646SOL    HW2 8499   0.306   2.559   9.808
 2647SOL     OW 8500   1.537   2.086  11.035
 2647SOL    HW1 8501   1.549   2.108  11.127
 2647SOL    HW2 8502   1.466   2.021  11.035
 2648SOL     OW 8503   0.639   1.982   9.408
 2648SOL    HW1 8504   0.703   1.913   9.426
 2648SOL    HW2 8505   0.590   1.949   9.332
 2649SOL     OW 8506   0.766   2.140  11.064
 2649SOL    HW1 8507   0.843   2.084  11.064
 2649SOL    HW2 8508   0.719   2.115  11.144
 2650SOL     OW 8509   0.876   3.382  10.504
 2650SOL    HW1 8510   0.860   3.346  10.417
 2650SOL    HW2 8511   0.946   3.328  10.540
 2651SOL     OW 8512   1.341   2.451  10.742
 2651SOL    HW1 8513   1.371   2.419  10.827
 2651SOL    HW2 8514   1.376   2.539  10.735
 2652SOL     OW 8515   0.816   3.255  10.250
 2652SOL    HW1 8516   0.901   3.244  10.207
 2652SOL    HW2 8517   0.753   3.257  10.178
 2653SOL     OW 8518   0.928   2.371  10.213
 2653SOL    HW1 8519   0.905   2.363  10.120
 2653SOL    HW2 8520   0.959   2.284  10.237
 2654SOL     OW 8521   0.555   1.924   9.807
 2654SOL    HW1 8522   0.473   1.929   9.855
 2654SOL    HW2 8523   0.559   2.007   9.758
 2655SOL     OW 8524   1.428   3.061   9.351
 2655SOL    HW1 8525   1.458   2.985   9.401
 2655SOL    HW2 8526   1.342   3.081   9.388
 2656SOL     OW 8527   0.307   1.913   9.480
 2656SOL    HW1 8528   0.371   1.952   9.420
 2656SOL    HW2 8529   0.357   1.848   9.529
 2657SOL     OW 8530   0.939   2.108   9.770
 2657SOL    HW1 8531   0.910   2.149   9.688
 2657SOL    HW2 8532   1.033   2.125   9.772
 2658SOL     OW 8533   1.080   2.543  10.769
 2658SOL    HW1 8534   1.012   2.476  10.774
 2658SOL    HW2 8535   1.162   2.495  10.763
 2659SOL     OW 8536   1.223   3.432  10.104
 2659SOL    HW1 8537   1.238   3.500  10.038
 2659SOL    HW2 8538   1.291   3.446  10.169
 2660SOL     OW 8539   0.466   3.012  10.046
 2660SOL    HW1 8540   0.395   2.989  10.105
 2660SOL    HW2 8541   0.432   2.997   9.958
 2661SOL     OW 8542   1.267   3.657   9.917
 2661SOL    HW1 8543   1.313   3.721   9.863
 2661SOL    HW2 8544   1.196   3.707   9.957
 2662SOL     OW 8545   1.023   2.402   9.334
 2662SOL    HW1 8546   0.981   2.486   9.314
 2662SOL    HW2 8547   1.089   2.424   9.399
 2663SOL     OW 8548   0.081   2.434  10.700
 2663SOL    HW1 8549   0.171   2.420  10.670
 2663SOL    HW2 8550   0.088   2.503  10.765
 2664SOL     OW 8551   0.567   2.089  10.475
 2664SOL    HW1 8552   0.608   2.013  10.516
 2664SOL    HW2 8553   0.475   2.086  10.504
 2665SOL     OW 8554   0.868   2.321   9.950
 2665SOL    HW1 8555   0.820   2.374   9.887
 2665SOL    HW2 8556   0.888   2.240   9.902
 2666SOL     OW 8557   1.016   1.915  10.061
 2666SOL    HW1 8558   0.958   1.909   9.985
 2666SOL    HW2 8559   0.993   1.840  10.115
 2667SOL     OW 8560   1.437   3.024  10.167
 2667SOL    HW1 8561   1.368   2.959  10.167
 2667SOL    HW2 8562   1.461   3.034  10.075
 2668SOL     OW 8563   1.465   2.468  10.285
 2668SOL    HW1 8564   1.413   2.388  10.288
 2668SOL    HW2 8565   1.524   2.461  10.360
 2669SOL     OW 8566   1.844   2.677   9.694
 2669SOL    HW1 8567   1.903   2.628   9.751
 2669SOL    HW2 8568   1.818   2.614   9.627
 2670SOL     OW 8569   0.489   3.280   9.470
 2670SOL    HW1 8570   0.413   3.250   9.520
 2670SOL    HW2 8571   0.469   3.254   9.379
 2671SOL     OW 8572   1.672   3.126   9.955
 2671SOL    HW1 8573   1.766   3.128   9.968
 2671SOL    HW2 8574   1.642   3.214   9.976
 2672SOL     OW 8575   1.393   2.435   9.380
 2672SOL    HW1 8576   1.334   2.414   9.452
 2672SOL    HW2 8577   1.479   2.404   9.409
 2673SOL     OW 8578   0.574   2.131   9.630
 2673SOL    HW1 8579   0.602   2.082   9.553
 2673SOL    HW2 8580   0.541   2.214   9.596
 2674SOL     OW 8581   1.752   3.102  10.881
 2674SOL    HW1 8582   1.839   3.063  10.878
 2674SOL    HW2 8583   1.767   3.193  10.909
 2675SOL     OW 8584   1.057   3.214  10.642
 2675SOL    HW1 8585   0.983   3.184  10.694
 2675SOL    HW2 8586   1.133   3.174  10.684
 2676SOL     OW 8587   1.609   3.488  10.965
 2676SOL    HW1 8588   1.602   3.522  10.876
 2676SOL    HW2 8589   1.692   3.440  10.966
 2677SOL     OW 8590   1.131   3.066  10.414
 2677SOL    HW1 8591   1.071   3.104  10.480
 2677SOL    HW2 8592   1.098   3.099  10.331
 2678SOL     OW 8593   1.627   2.960  10.387
 2678SOL    HW1 8594   1.622   3.022  10.459
 2678SOL    HW2 8595   1.549   2.977  10.335
 2679SOL     OW 8596   0.918   1.958  10.705
 2679SOL    HW1 8597   0.941   1.939  10.614
 2679SOL    HW2 8598   0.997   1.998  10.742
 2680SOL     OW 8599   0.984   2.977  11.033
 2680SOL    HW1 8600   0.892   2.993  11.054
 2680SOL    HW2 8601   0.982   2.899  10.977
 2681SOL     OW 8602   0.708   2.922   9.681
 2681SOL    HW1 8603   0.694   2.906   9.774
 2681SOL    HW2 8604   0.784   2.869   9.658
 2682SOL     OW 8605   0.421   2.678  10.562
 2682SOL    HW1 8606   0.490   2.686  10.628
 2682SOL    HW2 8607   0.387   2.589  10.574
 2683SOL     OW 8608   1.265   2.238  10.587
 2683SOL    HW1 8609   1.298   2.315  10.632
 2683SOL    HW2 8610   1.175   2.259  10.564
 2684SOL     OW 8611   0.065   3.441  10.656
 2684SOL    HW1 8612   0.070   3.502  10.581
 2684SOL    HW2 8613   0.156   3.429  10.682
 2685SOL     OW 8614   0.372   2.964   9.794
 2685SOL    HW1 8615   0.366   3.044   9.741
 2685SOL    HW2 8616   0.371   2.893   9.730
 2686SOL     OW 8617   0.551   2.399  10.172
 2686SOL    HW1 8618   0.566   2.455  10.096
 2686SOL    HW2 8619   0.618   2.425  10.235
 2687SOL     OW 8620   1.248   3.211   9.699
 2687SOL    HW1 8621   1.304   3.282   9.730
 2687SOL    HW2 8622   1.161   3.232   9.733
 2688SOL     OW 8623   1.283   3.321  10.457
 2688SOL    HW1 8624   1.338   3.324  10.535
 2688SOL    HW2 8625   1.227   3.244  10.471
 2689SOL     OW 8626   1.577   2.488   9.783
 2689SOL    HW1 8627   1.532   2.536   9.852
 2689SOL    HW2 8628   1.626   2.554   9.735
 2690SOL     OW 8629   0.345   3.389  10.628
 2690SOL    HW1 8630   0.335   3.339  10.547
 2690SOL    HW2 8631   0.439   3.404  10.636
 2691SOL     OW 8632   0.415   2.601  10.911
 2691SOL    HW1 8633   0.477   2.647  10.854
 2691SOL    HW2 8634   0.455   2.516  10.928
 2692SOL     OW 8635   1.603   2.641  10.992
 2692SOL    HW1 8636   1.517   2.683  10.986
 2692SOL    HW2 8637   1.655   2.684  10.924
 2693SOL     OW 8638   0.996   1.988  11.064
 2693SOL    HW1 8639   1.053   2.060  11.038
 2693SOL    HW2 8640   1.044   1.909  11.039
 2694SOL     OW 8641   0.497   1.898  11.056
 2694SOL    HW1 8642   0.454   1.846  10.989
 2694SOL    HW2 8643   0.442   1.976  11.065
 2695SOL     OW 8644   0.585   2.736  10.342
 2695SOL    HW1 8645   0.617   2.826  10.341
 2695SOL    HW2 8646   0.529   2.730  10.419
 2696SOL     OW 8647   1.356   2.721  10.338
 2696SOL    HW1 8648   1.272   2.710  10.293
 2696SOL    HW2 8649   1.398   2.635  10.331
 2697SOL     OW 8650   1.204   2.390   9.576
 2697SOL    HW1 8651   1.211   2.312   9.631
 2697SOL    HW2 8652   1.161   2.455   9.632
 2698SOL     OW 8653   0.311   2.059  10.557
 2698SOL    HW1 8654   0.264   2.096  10.632
 2698SOL    HW2 8655   0.287   1.966  10.558
 2699SOL     OW 8656   0.059   3.167  10.590
 2699SOL    HW1 8657   0.090   3.127  10.671
 2699SOL    HW2 8658   0.051   3.260  10.611
 2700SOL     OW 8659   0.724   2.493  10.367
 2700SOL    HW1 8660   0.799   2.477  10.310
 2700SOL    HW2 8661   0.696   2.582  10.346
 2701SOL     OW 8662   1.735   2.821  11.163
 2701SOL    HW1 8663   1.691   2.757  11.108
 2701SOL    HW2 8664   1.675   2.836  11.236
 2702SOL     OW 8665   0.313   1.925   9.930
 2702SOL    HW1 8666   0.293   2.016   9.952
 2702SOL    HW2 8667   0.319   1.881  10.015
 2703SOL     OW 8668   1.612   2.240   9.681
 2703SOL    HW1 8669   1.617   2.185   9.759
 2703SOL    HW2 8670   1.590   2.327   9.715
 2704SOL     OW 8671   1.028   2.621  10.270
 2704SOL    HW1 8672   1.023   2.638  10.364
 2704SOL    HW2 8673   1.002   2.529  10.261
 2705SOL     OW 8674   0.985   3.429  11.029
 2705SOL    HW1 8675   0.967   3.471  10.945
 2705SOL    HW2 8676   1.027   3.347  11.006
 2706SOL     OW 8677   1.854   3.366  10.914
 2706SOL    HW1 8678   1.873   3.394  10.825
 2706SOL    HW2 8679   1.935   3.385  10.963
 2707SOL     OW 8680   0.352   2.783  11.111
 2707SOL    HW1 8681   0.431   2.804  11.161
 2707SOL    HW2 8682   0.380   2.716  11.048
 2708SOL     OW 8683   1.526   2.135   9.439
 2708SOL    HW1 8684   1.461   2.070   9.465
 2708SOL    HW2 8685   1.559   2.171   9.521
 2709SOL     OW 8686   1.290   2.688   9.340
 2709SOL    HW1 8687   1.333   2.603   9.344
 2709SOL    HW2 8688   1.322   2.727   9.259
 2710SOL     OW 8689   1.066   3.198  10.164
 2710SOL    HW1 8690   1.070   3.126  10.102
 2710SOL    HW2 8691   1.127   3.263  10.129
 2711SOL     OW 8692   0.313   2.665  10.260
 2711SOL    HW1 8693   0.407   2.683  10.254
 2711SOL    HW2 8694   0.308   2.575  10.292
 2712SOL     OW 8695   0.330   2.382  10.324
 2712SOL    HW1 8696   0.296   2.294  10.307
 2712SOL    HW2 8697   0.407   2.390  10.266
 2713SOL     OW 8698   1.134   2.237  10.993
 2713SOL    HW1 8699   1.087   2.292  11.055
 2713SOL    HW2 8700   1.222   2.275  10.989
 2714SOL     OW 8701   1.160   2.064  10.780
 2714SOL    HW1 8702   1.150   2.127  10.852
 2714SOL    HW2 8703   1.201   2.114  10.710
 2715SOL     OW 8704   4.000   3.181   9.492
 2715SOL    HW1 8705   3.905   3.197   9.496
 2715SOL    HW2 8706   0.009   3.087   9.510
 2716SOL     OW 8707   0.075   3.663  10.204
 2716SOL    HW1 8708   0.088   3.568  10.205
 2716SOL    HW2 8709   0.164   3.699  10.202
 2717SOL     OW 8710   0.507   3.426  10.226
 2717SOL    HW1 8711   0.573   3.492  10.246
 2717SOL    HW2 8712   0.550   3.367  10.164
 2718SOL     OW 8713   0.981   2.653  10.536
 2718SOL    HW1 8714   1.038   2.631  10.610
 2718SOL    HW2 8715   0.896   2.615  10.559
 2719SOL     OW 8716   0.037   2.418  10.420
 2719SOL    HW1 8717   0.120   2.394  10.377
 2719SOL    HW2 8718   0.057   2.415  10.513
 2720SOL     OW 8719   0.207   2.375  11.037
 2720SOL    HW1 8720   0.247   2.329  10.964
 2720SOL    HW2 8721   0.158   2.447  10.997
 2721SOL     OW 8722   1.377   2.800  10.968
 2721SOL    HW1 8723   1.399   2.893  10.965
 2721SOL    HW2 8724   1.374   2.773  10.876
 2722SOL     OW 8725   0.818   2.431   9.670
 2722SOL    HW1 8726   0.822   2.355   9.612
 2722SOL    HW2 8727   0.744   2.483   9.638
 2723SOL     OW 8728   1.643   2.464  10.493
 2723SOL    HW1 8729   1.632   2.408  10.570
 2723SOL    HW2 8730   1.730   2.440  10.459
 2724SOL     OW 8731   0.299   3.408  11.038
 2724SOL    HW1 8732   0.249   3.477  11.082
 2724SOL    HW2 8733   0.266   3.327  11.077
 2725SOL     OW 8734   0.704   2.312  10.569
 2725SOL    HW1 8735   0.652   2.238  10.538
 2725SOL    HW2 8736   0.699   2.375  10.497
 2726SOL     OW 8737   0.929   3.534  10.778
 2726SOL    HW1 8738   0.902   3.498  10.694
 2726SOL    HW2 8739   0.921   3.629  10.767
 2727SOL     OW 8740   0.457   2.352   9.504
 2727SOL    HW1 8741   0.522   2.420   9.522
 2727SOL    HW2 8742   0.377   2.400   9.483
 2728SOL     OW 8743   0.156   2.997  10.784
 2728SOL    HW1 8744   0.157   2.946  10.865
 2728SOL    HW2 8745   0.171   2.933  10.715
 2729SOL     OW 8746   1.325   2.908  10.532
 2729SOL    HW1 8747   1.348   2.844  10.464
 2729SOL    HW2 8748   1.256   2.961  10.493
 2730SOL     OW 8749   1.312   2.719   9.616
 2730SOL    HW1 8750   1.237   2.688   9.666
 2730SOL    HW2 8751   1.287   2.705   9.524
 2731SOL     OW 8752   1.770   3.604  10.459
 2731SOL    HW1 8753   1.833   3.632  10.392
 2731SOL    HW2 8754   1.749   3.514  10.437
 2732SOL     OW 8755   1.243   3.595  10.420
 2732SOL    HW1 8756   1.326   3.616  10.377
 2732SOL    HW2 8757   1.249   3.502  10.440
 2733SOL     OW 8758   0.076   3.077  10.338
 2733SOL    HW1 8759   0.083   3.104  10.429
 2733SOL    HW2 8760   3.983   3.087  10.317
 2734SOL     OW 8761   0.679   3.526  11.041
 2734SOL    HW1 8762   0.622   3.603  11.044
 2734SOL    HW2 8763   0.739   3.544  10.968
 2735SOL     OW 8764   1.390   3.431   9.796
 2735SOL    HW1 8765   1.450   3.464   9.729
 2735SOL    HW2 8766   1.342   3.508   9.826
 2736SOL     OW 8767   0.169   3.625  11.141
 2736SOL    HW1 8768   0.113   3.573  11.199
 2736SOL    HW2 8769   0.216   3.684  11.200
 2737SOL     OW 8770   1.278   2.788   9.981
 2737SOL    HW1 8771   1.351   2.727   9.988
 2737SOL    HW2 8772   1.312   2.860   9.928
 2738SOL     OW 8773   0.812   3.136  10.739
 2738SOL    HW1 8774   0.784   3.176  10.822
 2738SOL    HW2 8775   0.742   3.155  10.677
 2739SOL     OW 8776   0.675   3.478   9.467
 2739SOL    HW1 8777   0.683   3.495   9.373
 2739SOL    HW2 8778   0.617   3.402   9.474
 2740SOL     OW 8779   1.624   3.588  10.700
 2740SOL    HW1 8780   1.675   3.594  10.619
 2740SOL    HW2 8781   1.610   3.679  10.726
 2741SOL     OW 8782   0.267   2.176  10.027
 2741SOL    HW1 8783   0.181   2.209  10.001
 2741SOL    HW2 8784   0.261   2.166  10.122
 2742SOL     OW 8785   1.207   3.467   9.345
 2742SOL    HW1 8786   1.197   3.375   9.369
 2742SOL    HW2 8787   1.146   3.480   9.273
 2743SOL     OW 8788   0.823   2.868  10.683
 2743SOL    HW1 8789   0.868   2.863  10.598
 2743SOL    HW2 8790   0.822   2.961  10.704
 2744SOL     OW 8791   0.916   2.772   9.600
 2744SOL    HW1 8792   0.976   2.804   9.534
 2744SOL    HW2 8793   0.964   2.703   9.646
 2745SOL     OW 8794   1.490   3.490   9.352
 2745SOL    HW1 8795   1.396   3.480   9.336
 2745SOL    HW2 8796   1.529   3.495   9.265
 2746SOL     OW 8797   0.374   3.165  10.801
 2746SOL    HW1 8798   0.359   3.245  10.751
 2746SOL    HW2 8799   0.297   3.111  10.784
 2747SOL     OW 8800   1.610   3.145  10.590
 2747SOL    HW1 8801   1.670   3.133  10.664
 2747SOL    HW2 8802   1.550   3.213  10.619
 2748SOL     OW 8803   1.054   2.970  10.017
 2748SOL    HW1 8804   0.983   2.919  10.056
 2748SOL    HW2 8805   1.117   2.904   9.987
 2749SOL     OW 8806   1.022   2.102  10.277
 2749SOL    HW1 8807   1.018   2.055  10.194
 2749SOL    HW2 8808   1.017   2.034  10.343
 2750SOL     OW 8809   0.605   3.352   9.791
 2750SOL    HW1 8810   0.649   3.302   9.723
 2750SOL    HW2 8811   0.534   3.397   9.745
 2751SOL     OW 8812   1.727   2.249  10.683
 2751SOL    HW1 8813   1.798   2.312  10.692
 2751SOL    HW2 8814   1.762   2.181  10.625
 2752SOL     OW 8815   0.253   3.203   9.601
 2752SOL    HW1 8816   0.160   3.212   9.582
 2752SOL    HW2 8817   0.263   3.241   9.689
 2753SOL     OW 8818   0.107   2.860  11.027
 2753SOL    HW1 8819   0.046   2.853  11.101
 2753SOL    HW2 8820   0.193   2.842  11.065
 2754SOL     OW 8821   0.675   2.058  10.810
 2754SOL    HW1 8822   0.759   2.037  10.768
 2754SOL    HW2 8823   0.698   2.090  10.897
 2755SOL     OW 8824   0.081   2.178   9.347
 2755SOL    HW1 8825   3.985   2.178   9.354
 2755SOL    HW2 8826   0.101   2.259   9.300
 2756SOL     OW 8827   1.429   2.720  10.710
 2756SOL    HW1 8828   1.380   2.781  10.654
 2756SOL    HW2 8829   1.518   2.723  10.676
 2757SOL     OW 8830   0.020   2.093   9.684
 2757SOL    HW1 8831   0.045   2.158   9.618
 2757SOL    HW2 8832   0.103   2.055   9.713
 2758SOL     OW 8833   1.178   3.200   9.427
 2758SOL    HW1 8834   1.087   3.171   9.428
 2758SOL    HW2 8835   1.205   3.199   9.519
 2759SOL     OW 8836   0.619   2.692  10.746
 2759SOL    HW1 8837   0.675   2.768  10.730
 2759SOL    HW2 8838   0.680   2.619  10.753
 2760SOL     OW 8839   1.485   3.640  10.290
 2760SOL    HW1 8840   1.509   3.698  10.217
 2760SOL    HW2 8841   1.569   3.619  10.332
 2761SOL     OW 8842   0.716   2.425  11.014
 2761SOL    HW1 8843   0.760   2.487  11.073
 2761SOL    HW2 8844   0.743   2.339  11.047
 2762SOL     OW 8845   1.472   3.061  10.941
 2762SOL    HW1 8846   1.460   3.075  11.035
 2762SOL    HW2 8847   1.566   3.077  10.926
 2763SOL     OW 8848   0.378   3.606  10.869
 2763SOL    HW1 8849   0.291   3.642  10.856
 2763SOL    HW2 8850   0.364   3.524  10.916
 2764SOL     OW 8851   1.669   2.743  10.565
 2764SOL    HW1 8852   1.662   2.658  10.522
 2764SOL    HW2 8853   1.658   2.807  10.494
 2765SOL     OW 8854   1.216   2.182   9.768
 2765SOL    HW1 8855   1.278   2.110   9.760
 2765SOL    HW2 8856   1.245   2.231   9.845
 2766SOL     OW 8857   0.589   2.600   9.981
 2766SOL    HW1 8858   0.628   2.686   9.966
 2766SOL    HW2 8859   0.523   2.591   9.913
 2767SOL     OW 8860   1.757   2.242  10.959
 2767SOL    HW1 8861   1.741   2.244  10.864
 2767SOL    HW2 8862   1.697   2.175  10.992
 2768SOL     OW 8863   1.744   2.797  10.822
 2768SOL    HW1 8864   1.740   2.892  10.834
 2768SOL    HW2 8865   1.729   2.785  10.728
 2769SOL     OW 8866   0.865   3.229   9.347
 2769SOL    HW1 8867   0.823   3.258   9.428
 2769SOL    HW2 8868   0.880   3.310   9.298
 2770SOL     OW 8869   0.659   3.652  10.247
 2770SOL    HW1 8870   0.637   3.743  10.228
 2770SOL    HW2 8871   0.754   3.649  10.245
 2771SOL     OW 8872   0.868   2.829  10.164
 2771SOL    HW1 8873   0.918   2.758  10.203
 2771SOL    HW2 8874   0.833   2.877  10.239
 2772SOL     OW 8875   1.078   2.850   9.398
 2772SOL    HW1 8876   1.057   2.901   9.321
 2772SOL    HW2 8877   1.153   2.796   9.373
 2773SOL     OW 8878   1.852   3.413  10.152
 2773SOL    HW1 8879   1.772   3.403  10.101
 2773SOL    HW2 8880   1.843   3.350  10.223
 2774SOL     OW 8881   0.225   3.166  11.166
 2774SOL    HW1 8882   0.153   3.109  11.140
 2774SOL    HW2 8883   0.213   3.179  11.260
 2775SOL     OW 8884   0.113   3.138  10.030
 2775SOL    HW1 8885   0.130   3.088  10.110
 2775SOL    HW2 8886   0.106   3.072   9.961
 2776SOL     OW 8887   0.682   3.265  10.940
 2776SOL    HW1 8888   0.601   3.224  10.969
 2776SOL    HW2 8889   0.678   3.354  10.976
 2777SOL     OW 8890   0.441   2.296   9.843
 2777SOL    HW1 8891   0.442   2.226   9.778
 2777SOL    HW2 8892   0.386   2.262   9.914
 2778SOL     OW 8893   1.701   3.349  10.403
 2778SOL    HW1 8894   1.619   3.327  10.358
 2778SOL    HW2 8895   1.711   3.281  10.470
 2779SOL     OW 8896   0.333   2.418  10.601
 2779SOL    HW1 8897   0.388   2.362  10.656
 2779SOL    HW2 8898   0.349   2.387  10.512
 2780SOL     OW 8899   0.827   3.441   9.987
 2780SOL    HW1 8900   0.814   3.492   9.907
 2780SOL    HW2 8901   0.752   3.381   9.990
 2781SOL     OW 8902   1.437   2.091  10.429
 2781SOL    HW1 8903   1.448   2.004  10.467
 2781SOL    HW2 8904   1.382   2.138  10.493
 2782SOL     OW 8905   1.009   1.879  10.451
 2782SOL    HW1 8906   0.956   1.812  10.410
 2782SOL    HW2 8907   1.098   1.842  10.453
 2783SOL     OW 8908   0.772   3.194   9.628
 2783SOL    HW1 8909   0.741   3.104   9.633
 2783SOL    HW2 8910   0.855   3.194   9.675
 2784SOL     OW 8911   0.620   3.416  10.595
 2784SOL    HW1 8912   0.622   3.498  10.645
 2784SOL    HW2 8913   0.708   3.410  10.557
 2785SOL     OW 8914   1.351   1.914   9.476
 2785SOL    HW1 8915   1.380   1.852   9.409
 2785SOL    HW2 8916   1.263   1.884   9.500
 2786SOL     OW 8917   1.299   2.324   9.991
 2786SOL    HW1 8918   1.245   2.402   9.996
 2786SOL    HW2 8919   1.293   2.284  10.078
 2787SOL     OW 8920   1.570   2.054  10.181
 2787SOL    HW1 8921   1.533   2.081  10.266
 2787SOL    HW2 8922   1.588   2.137  10.136
 2788SOL     OW 8923   0.047   2.912   9.549
 2788SOL    HW1 8924   0.141   2.896   9.540
 2788SOL    HW2 8925   0.011   2.830   9.583
 2789SOL     OW 8926   0.885   3.519   9.654
 2789SOL    HW1 8927   0.814   3.500   9.592
 2789SOL    HW2 8928   0.854   3.595   9.703
 2790SOL     OW 8929   0.231   2.485  11.292
 2790SOL    HW1 8930   0.138   2.494  11.313
 2790SOL    HW2 8931   0.233   2.454  11.201
 2791SOL     OW 8932   0.229   2.133  12.159
 2791SOL    HW1 8933   0.249   2.100  12.246
 2791SOL    HW2 8934   0.134   2.126  12.152
 2792SOL     OW 8935   0.010   2.222  11.802
 2792SOL    HW1 8936   3.923   2.240  11.836
 2792SOL    HW2 8937   3.996   2.189  11.714
 2793SOL     OW 8938   0.578   3.148  12.359
 2793SOL    HW1 8939   0.492   3.152  12.318
 2793SOL    HW2 8940   0.593   3.237  12.393
 2794SOL     OW 8941   1.562   3.373  11.880
 2794SOL    HW1 8942   1.520   3.352  11.963
 2794SOL    HW2 8943   1.490   3.376  11.817
 2795SOL     OW 8944   1.131   2.560  11.872
 2795SOL    HW1 8945   1.180   2.641  11.858
 2795SOL    HW2 8946   1.084   2.573  11.954
 2796SOL     OW 8947   1.773   2.466  11.400
 2796SOL    HW1 8948   1.748   2.462  11.308
 2796SOL    HW2 8949   1.737   2.387  11.439
 2797SOL     OW 8950   0.755   3.002  12.213
 2797SOL    HW1 8951   0.690   3.037  12.273
 2797SOL    HW2 8952   0.790   3.079  12.168
 2798SOL     OW 8953   0.868   2.634  12.994
 2798SOL    HW1 8954   0.859   2.706  13.057
 2798SOL    HW2 8955   0.891   2.677  12.912
 2799SOL     OW 8956   0.685   2.864  11.819
 2799SOL    HW1 8957   0.751   2.853  11.887
 2799SOL    HW2 8958   0.616   2.916  11.860
 2800SOL     OW 8959   0.711   3.012  12.986
 2800SOL    HW1 8960   0.759   3.090  13.014
 2800SOL    HW2 8961   0.629   3.046  12.950
 2801SOL     OW 8962   0.351   3.264  12.250
 2801SOL    HW1 8963   0.268   3.249  12.203
 2801SOL    HW2 8964   0.400   3.323  12.193
 2802SOL     OW 8965   1.460   3.362  12.527
 2802SOL    HW1 8966   1.513   3.441  12.537
 2802SOL    HW2 8967   1.396   3.367  12.598
 2803SOL     OW 8968   0.450   2.262  12.661
 2803SOL    HW1 8969   0.525   2.202  12.664
 2803SOL    HW2 8970   0.374   2.205  12.673
 2804SOL     OW 8971   1.604   2.308  11.911
 2804SOL    HW1 8972   1.523   2.328  11.865
 2804SOL    HW2 8973   1.620   2.384  11.968
 2805SOL     OW 8974   0.224   3.571  11.638
 2805SOL    HW1 8975   0.226   3.653  11.687
 2805SOL    HW2 8976   0.301   3.575  11.581
 2806SOL     OW 8977   1.137   3.203  12.865
 2806SOL    HW1 8978   1.177   3.198  12.951
 2806SOL    HW2 8979   1.084   3.124  12.858
 2807SOL     OW 8980   0.249   3.305  11.712
 2807SOL    HW1 8981   0.221   3.396  11.698
 2807SOL    HW2 8982   0.179   3.267  11.765
 2808SOL     OW 8983   0.247   2.930  12.056
 2808SOL    HW1 8984   0.266   2.845  12.097
 2808SOL    HW2 8985   0.194   2.976  12.121
 2809SOL     OW 8986   0.611   3.648  12.600
 2809SOL    HW1 8987   0.529   3.634  12.647
 2809SOL    HW2 8988   0.638   3.737  12.625
 2810SOL     OW 8989   0.579   2.847  11.309
 2810SOL    HW1 8990   0.626   2.892  11.240
 2810SOL    HW2 8991   0.621   2.876  11.390
 2811SOL     OW 8992   1.589   1.991  12.636
 2811SOL    HW1 8993   1.585   2.076  12.592
 2811SOL    HW2 8994   1.581   2.012  12.729
 2812SOL     OW 8995   0.142   2.513  11.746
 2812SOL    HW1 8996   0.087   2.435  11.745
 2812SOL    HW2 8997   0.105   2.567  11.816
 2813SOL     OW 8998   1.842   3.611  11.510
 2813SOL    HW1 8999   1.910   3.587  11.573
 2813SOL    HW2 9000   1.863   3.701  11.486
 2814SOL     OW 9001   0.041   3.454  11.312
 2814SOL    HW1 9002   0.033   3.361  11.336
 2814SOL    HW2 9003   3.960   3.494  11.344
 2815SOL     OW 9004   1.689   2.780  11.814
 2815SOL    HW1 9005   1.771   2.738  11.792
 2815SOL    HW2 9006   1.667   2.831  11.736
 2816SOL     OW 9007   1.647   2.968  11.601
 2816SOL    HW1 9008   1.732   2.972  11.559
 2816SOL    HW2 9009   1.652   3.030  11.674
 2817SOL     OW 9010   0.137   2.614  12.762
 2817SOL    HW1 9011   0.233   2.609  12.760
 2817SOL    HW2 9012   0.119   2.704  12.789
 2818SOL     OW 9013   0.615   3.248  11.906
 2818SOL    HW1 9014   0.568   3.165  11.916
 2818SOL    HW2 9015   0.598   3.274  11.816
 2819SOL     OW 9016   1.288   3.099  12.595
 2819SOL    HW1 9017   1.320   3.032  12.535
 2819SOL    HW2 9018   1.346   3.094  12.671
 2820SOL     OW 9019   0.818   1.862  11.682
 2820SOL    HW1 9020   0.858   1.946  11.662
 2820SOL    HW2 9021   0.725   1.880  11.689
 2821SOL     OW 9022   0.185   2.813  12.450
 2821SOL    HW1 9023   0.273   2.778  12.437
 2821SOL    HW2 9024   0.132   2.773  12.381
 2822SOL     OW 9025   1.531   2.857  11.371
 2822SOL    HW1 9026   1.462   2.800  11.403
 2822SOL    HW2 9027   1.573   2.891  11.450
 2823SOL     OW 9028   1.214   3.665  12.798
 2823SOL    HW1 9029   1.194   3.725  12.727
 2823SOL    HW2 9030   1.216   3.579  12.757
 2824SOL     OW 9031   0.340   2.109  12.987
 2824SOL    HW1 9032   0.378   2.197  12.994
 2824SOL    HW2 9033   0.249   2.121  13.012
 2825SOL     OW 9034   1.466   3.282  12.122
 2825SOL    HW1 9035   1.398   3.297  12.189
 2825SOL    HW2 9036   1.454   3.190  12.096
 2826SOL     OW 9037   1.655   3.601  11.752
 2826SOL    HW1 9038   1.641   3.570  11.663
 2826SOL    HW2 9039   1.631   3.526  11.807
 2827SOL     OW 9040   0.596   2.579  11.437
 2827SOL    HW1 9041   0.602   2.663  11.391
 2827SOL    HW2 9042   0.533   2.595  11.507
 2828SOL     OW 9043   1.279   2.220  12.106
 2828SOL    HW1 9044   1.190   2.184  12.116
 2828SOL    HW2 9045   1.333   2.164  12.162
 2829SOL     OW 9046   1.577   3.537  11.480
 2829SOL    HW1 9047   1.670   3.562  11.475
 2829SOL    HW2 9048   1.552   3.517  11.390
 2830SOL     OW 9049   0.791   2.480  12.623
 2830SOL    HW1 9050   0.765   2.455  12.712
 2830SOL    HW2 9051   0.752   2.413  12.567
 2831SOL     OW 9052   1.394   2.335  12.849
 2831SOL    HW1 9053   1.396   2.380  12.933
 2831SOL    HW2 9054   1.457   2.264  12.858
 2832SOL     OW 9055   0.953   2.749  12.755
 2832SOL    HW1 9056   1.008   2.679  12.719
 2832SOL    HW2 9057   0.905   2.783  12.680
 2833SOL     OW 9058   0.992   2.274  12.410
 2833SOL    HW1 9059   0.906   2.295  12.445
 2833SOL    HW2 9060   0.975   2.229  12.327
 2834SOL     OW 9061   1.052   2.560  11.598
 2834SOL    HW1 9062   1.068   2.553  11.692
 2834SOL    HW2 9063   0.969   2.514  11.584
 2835SOL     OW 9064   0.082   2.689  11.962
 2835SOL    HW1 9065   0.158   2.660  12.012
 2835SOL    HW2 9066   0.097   2.783  11.949
 2836SOL     OW 9067   0.127   3.716  12.749
 2836SOL    HW1 9068   0.134   3.685  12.839
 2836SOL    HW2 9069   0.035   3.703  12.726
 2837SOL     OW 9070   0.895   2.211  11.365
 2837SOL    HW1 9071   0.935   2.274  11.304
 2837SOL    HW2 9072   0.912   2.126  11.326
 2838SOL     OW 9073   1.704   2.438  13.004
 2838SOL    HW1 9074   1.668   2.509  12.950
 2838SOL    HW2 9075   1.735   2.373  12.941
 2839SOL     OW 9076   1.378   3.004  11.713
 2839SOL    HW1 9077   1.457   2.991  11.660
 2839SOL    HW2 9078   1.325   3.066  11.663
 2840SOL     OW 9079   0.546   2.041  12.065
 2840SOL    HW1 9080   0.552   2.072  12.156
 2840SOL    HW2 9081   0.546   2.120  12.012
 2841SOL     OW 9082   1.005   3.307  11.643
 2841SOL    HW1 9083   0.967   3.380  11.594
 2841SOL    HW2 9084   0.986   3.327  11.735
 2842SOL     OW 9085   0.359   3.670  12.032
 2842SOL    HW1 9086   0.436   3.615  12.044
 2842SOL    HW2 9087   0.391   3.759  12.041
 2843SOL     OW 9088   1.799   2.917  12.041
 2843SOL    HW1 9089   1.745   2.899  11.964
 2843SOL    HW2 9090   1.737   2.923  12.113
 2844SOL     OW 9091   1.228   3.399  12.683
 2844SOL    HW1 9092   1.214   3.327  12.745
 2844SOL    HW2 9093   1.161   3.386  12.616
 2845SOL     OW 9094   0.311   2.816  11.414
 2845SOL    HW1 9095   0.394   2.840  11.374
 2845SOL    HW2 9096   0.297   2.725  11.391
 2846SOL     OW 9097   1.480   2.605  11.897
 2846SOL    HW1 9098   1.472   2.564  11.983
 2846SOL    HW2 9099   1.557   2.661  11.904
 2847SOL     OW 9100   0.467   3.122  12.909
 2847SOL    HW1 9101   0.441   3.130  12.817
 2847SOL    HW2 9102   0.385   3.126  12.957
 2848SOL     OW 9103   1.113   3.643  11.394
 2848SOL    HW1 9104   1.050   3.596  11.449
 2848SOL    HW2 9105   1.143   3.577  11.331
 2849SOL     OW 9106   0.204   2.138  12.680
 2849SOL    HW1 9107   0.114   2.170  12.672
 2849SOL    HW2 9108   0.195   2.052  12.721
 2850SOL     OW 9109   1.628   3.243  11.262
 2850SOL    HW1 9110   1.587   3.328  11.244
 2850SOL    HW2 9111   1.559   3.179  11.241
 2851SOL     OW 9112   0.468   3.600  11.493
 2851SOL    HW1 9113   0.507   3.663  11.554
 2851SOL    HW2 9114   0.542   3.573  11.438
 2852SOL     OW 9115   1.398   1.969  11.603
 2852SOL    HW1 9116   1.382   1.946  11.511
 2852SOL    HW2 9117   1.491   1.948  11.617
 2853SOL     OW 9118   0.252   3.656  12.400
 2853SOL    HW1 9119   0.297   3.591  12.453
 2853SOL    HW2 9120   0.250   3.618  12.312
 2854SOL     OW 9121   0.937   3.562  12.072
 2854SOL    HW1 9122   1.015   3.510  12.094
 2854SOL    HW2 9123   0.893   3.513  12.003
 2855SOL     OW 9124   0.398   2.555  11.644
 2855SOL    HW1 9125   0.423   2.464  11.658
 2855SOL    HW2 9126   0.306   2.559  11.670
 2856SOL     OW 9127   1.537   2.086  12.897
 2856SOL    HW1 9128   1.550   2.108  12.990
 2856SOL    HW2 9129   1.466   2.022  12.897
 2857SOL     OW 9130   0.639   1.982  11.270
 2857SOL    HW1 9131   0.703   1.913  11.288
 2857SOL    HW2 9132   0.590   1.949  11.194
 2858SOL     OW 9133   0.766   2.140  12.926
 2858SOL    HW1 9134   0.843   2.084  12.926
 2858SOL    HW2 9135   0.719   2.116  13.006
 2859SOL     OW 9136   0.876   3.382  12.366
 2859SOL    HW1 9137   0.860   3.346  12.279
 2859SOL    HW2 9138   0.946   3.328  12.402
 2860SOL     OW 9139   1.341   2.451  12.604
 2860SOL    HW1 9140   1.371   2.419  12.689
 2860SOL    HW2 9141   1.376   2.539  12.597
 2861SOL     OW 9142   0.816   3.255  12.112
 2861SOL    HW1 9143   0.901   3.244  12.069
 2861SOL    HW2 9144   0.753   3.257  12.040
 2862SOL     OW 9145   0.928   2.371  12.075
 2862SOL    HW1 9146   0.905   2.363  11.982
 2862SOL    HW2 9147   0.959   2.284  12.099
 2863SOL     OW 9148   0.555   1.924  11.668
 2863SOL    HW1 9149   0.473   1.929  11.717
 2863SOL    HW2 9150   0.559   2.007  11.620
 2864SOL     OW 9151   1.428   3.061  11.212
 2864SOL    HW1 9152   1.458   2.985  11.263
 2864SOL    HW2 9153   1.342   3.082  11.250
 2865SOL     OW 9154   0.307   1.913  11.342
 2865SOL    HW1 9155   0.372   1.952  11.282
 2865SOL    HW2 9156   0.357   1.848  11.391
 2866SOL     OW 9157   0.939   2.108  11.632
 2866SOL    HW1 9158   0.910   2.149  11.551
 2866SOL    HW2 9159   1.033   2.125  11.634
 2867SOL     OW 9160   1.080   2.543  12.631
 2867SOL    HW1 9161   1.013   2.476  12.636
 2867SOL    HW2 9162   1.162   2.495  12.625
 2868SOL     OW 9163   1.223   3.432  11.965
 2868SOL    HW1 9164   1.238   3.500  11.900
 2868SOL    HW2 9165   1.291   3.446  12.031
 2869SOL     OW 9166   0.466   3.012  11.908
 2869SOL    HW1 9167   0.395   2.989  11.967
 2869SOL    HW2 9168   0.432   2.997  11.820
 2870SOL     OW 9169   1.267   3.657  11.779
 2870SOL    HW1 9170   1.313   3.721  11.725
 2870SOL    HW2 9171   1.196   3.707  11.819
 2871SOL     OW 9172   1.023   2.402  11.196
 2871SOL    HW1 9173   0.981   2.486  11.176
 2871SOL    HW2 9174   1.089   2.424  11.262
 2872SOL     OW 9175   0.081   2.434  12.562
 2872SOL    HW1 9176   0.171   2.420  12.532
 2872SOL    HW2 9177   0.088   2.503  12.627
 2873SOL     OW 9178   0.567   2.089  12.337
 2873SOL    HW1 9179   0.608   2.013  12.378
 2873SOL    HW2 9180   0.475   2.086  12.366
 2874SOL     OW 9181   0.868   2.321  11.812
 2874SOL    HW1 9182   0.820   2.374  11.749
 2874SOL    HW2 9183   0.888   2.240  11.764
 2875SOL     OW 9184   1.016   1.915  11.923
 2875SOL    HW1 9185   0.958   1.909  11.847
 2875SOL    HW2 9186   0.993   1.840  11.977
 2876SOL     OW 9187   1.437   3.024  12.029
 2876SOL    HW1 9188   1.368   2.959  12.029
 2876SOL    HW2 9189   1.461   3.034  11.937
 2877SOL     OW 9190   1.466   2.468  12.147
 2877SOL    HW1 9191   1.413   2.388  12.150
 2877SOL    HW2 9192   1.524   2.461  12.222
 2878SOL     OW 9193   1.844   2.677  11.556
 2878SOL    HW1 9194   1.903   2.628  11.613
 2878SOL    HW2 9195   1.818   2.614  11.489
 2879SOL     OW 9196   0.489   3.280  11.332
 2879SOL    HW1 9197   0.413   3.250  11.382
 2879SOL    HW2 9198   0.469   3.254  11.241
 2880SOL     OW 9199   1.672   3.126  11.817
 2880SOL    HW1 9200   1.766   3.128  11.830
 2880SOL    HW2 9201   1.642   3.214  11.838
 2881SOL     OW 9202   1.393   2.435  11.242
 2881SOL    HW1 9203   1.334   2.414  11.314
 2881SOL    HW2 9204   1.479   2.404  11.271
 2882SOL     OW 9205   0.574   2.131  11.492
 2882SOL    HW1 9206   0.602   2.082  11.415
 2882SOL    HW2 9207   0.541   2.214  11.458
 2883SOL     OW 9208   1.752   3.102  12.743
 2883SOL    HW1 9209   1.839   3.063  12.740
 2883SOL    HW2 9210   1.767   3.193  12.771
 2884SOL     OW 9211   1.057   3.214  12.504
 2884SOL    HW1 9212   0.983   3.184  12.556
 2884SOL    HW2 9213   1.133   3.174  12.546
 2885SOL     OW 9214   1.609   3.488  12.827
 2885SOL    HW1 9215   1.602   3.522  12.738
 2885SOL    HW2 9216   1.692   3.440  12.828
 2886SOL     OW 9217   1.130   3.066  12.276
 2886SOL    HW1 9218   1.072   3.104  12.342
 2886SOL    HW2 9219   1.098   3.099  12.193
 2887SOL     OW 9220   1.627   2.960  12.249
 2887SOL    HW1 9221   1.623   3.022  12.321
 2887SOL    HW2 9222   1.549   2.977  12.197
 2888SOL     OW 9223   0.918   1.958  12.567
 2888SOL    HW1 9224   0.941   1.939  12.476
 2888SOL    HW2 9225   0.997   1.998  12.604
 2889SOL     OW 9226   0.984   2.977  12.894
 2889SOL    HW1 9227   0.892   2.993  12.916
 2889SOL    HW2 9228   0.982   2.899  12.839
 2890SOL     OW 9229   0.708   2.922  11.543
 2890SOL    HW1 9230   0.694   2.906  11.636
 2890SOL    HW2 9231   0.784   2.869  11.520
 2891SOL     OW 9232   0.421   2.678  12.424
 2891SOL    HW1 9233   0.490   2.686  12.490
 2891SOL    HW2 9234   0.387   2.589  12.436
 2892SOL     OW 9235   1.265   2.238  12.449
 2892SOL    HW1 9236   1.298   2.315  12.494
 2892SOL    HW2 9237   1.175   2.260  12.426
 2893SOL     OW 9238   0.065   3.442  12.517
 2893SOL    HW1 9239   0.070   3.501  12.443
 2893SOL    HW2 9240   0.156   3.429  12.544
 2894SOL     OW 9241   0.372   2.964  11.656
 2894SOL    HW1 9242   0.366   3.044  11.603
 2894SOL    HW2 9243   0.371   2.893  11.592
 2895SOL     OW 9244   0.551   2.399  12.034
 2895SOL    HW1 9245   0.566   2.455  11.958
 2895SOL    HW2 9246   0.617   2.425  12.097
 2896SOL     OW 9247   1.248   3.211  11.561
 2896SOL    HW1 9248   1.304   3.282  11.592
 2896SOL    HW2 9249   1.161   3.232  11.595
 2897SOL     OW 9250   1.283   3.321  12.319
 2897SOL    HW1 9251   1.338   3.324  12.397
 2897SOL    HW2 9252   1.227   3.244  12.333
 2898SOL     OW 9253   1.577   2.488  11.645
 2898SOL    HW1 9254   1.532   2.536  11.714
 2898SOL    HW2 9255   1.626   2.554  11.597
 2899SOL     OW 9256   0.345   3.389  12.490
 2899SOL    HW1 9257   0.335   3.339  12.409
 2899SOL    HW2 9258   0.439   3.404  12.498
 2900SOL     OW 9259   0.415   2.601  12.773
 2900SOL    HW1 9260   0.477   2.647  12.717
 2900SOL    HW2 9261   0.455   2.516  12.790
 2901SOL     OW 9262   1.602   2.641  12.854
 2901SOL    HW1 9263   1.517   2.683  12.848
 2901SOL    HW2 9264   1.655   2.684  12.786
 2902SOL     OW 9265   0.996   1.988  12.926
 2902SOL    HW1 9266   1.053   2.060  12.900
 2902SOL    HW2 9267   1.044   1.909  12.901
 2903SOL     OW 9268   0.497   1.898  12.918
 2903SOL    HW1 9269   0.454   1.846  12.851
 2903SOL    HW2 9270   0.442   1.976  12.927
 2904SOL     OW 9271   0.585   2.736  12.204
 2904SOL    HW1 9272   0.617   2.826  12.203
 2904SOL    HW2 9273   0.529   2.730  12.281
 2905SOL     OW 9274   1.356   2.721  12.199
 2905SOL    HW1 9275   1.272   2.710  12.155
 2905SOL    HW2 9276   1.398   2.635  12.193
 2906SOL     OW 9277   1.204   2.390  11.438
 2906SOL    HW1 9278   1.211   2.312  11.493
 2906SOL    HW2 9279   1.161   2.455  11.494
 2907SOL     OW 9280   0.311   2.059  12.419
 2907SOL    HW1 9281   0.264   2.096  12.494
 2907SOL    HW2 9282   0.287   1.966  12.420
 2908SOL     OW 9283   0.059   3.167  12.452
 2908SOL    HW1 9284   0.091   3.127  12.533
 2908SOL    HW2 9285   0.052   3.260  12.473
 2909SOL     OW 9286   0.724   2.493  12.229
 2909SOL    HW1 9287   0.799   2.477  12.172
 2909SOL    HW2 9288   0.696   2.582  12.208
 2910SOL     OW 9289   1.735   2.821  13.026
 2910SOL    HW1 9290   1.690   2.757  12.970
 2910SOL    HW2 9291   1.675   2.836  13.099
 2911SOL     OW 9292   0.313   1.925  11.792
 2911SOL    HW1 9293   0.293   2.016  11.814
 2911SOL    HW2 9294   0.319   1.881  11.877
 2912SOL     OW 9295   1.612   2.241  11.543
 2912SOL    HW1 9296   1.617   2.185  11.621
 2912SOL    HW2 9297   1.589   2.327  11.577
 2913SOL     OW 9298   1.028   2.621  12.132
 2913SOL    HW1 9299   1.023   2.638  12.226
 2913SOL    HW2 9300   1.002   2.529  12.123
 2914SOL     OW 9301   0.985   3.430  12.891
 2914SOL    HW1 9302   0.967   3.471  12.807
 2914SOL    HW2 9303   1.027   3.347  12.868
 2915SOL     OW 9304   1.854   3.366  12.776
 2915SOL    HW1 9305   1.873   3.394  12.687
 2915SOL    HW2 9306   1.935   3.385  12.825
 2916SOL     OW 9307   0.352   2.783  12.973
 2916SOL    HW1 9308   0.431   2.804  13.023
 2916SOL    HW2 9309   0.380   2.716  12.911
 2917SOL     OW 9310   1.527   2.135  11.301
 2917SOL    HW1 9311   1.461   2.070  11.327
 2917SOL    HW2 9312   1.559   2.171  11.383
 2918SOL     OW 9313   1.290   2.688  11.202
 2918SOL    HW1 9314   1.333   2.603  11.206
 2918SOL    HW2 9315   1.322   2.727  11.121
 2919SOL     OW 9316   1.066   3.198  12.026
 2919SOL    HW1 9317   1.070   3.126  11.964
 2919SOL    HW2 9318   1.127   3.263  11.991
 2920SOL     OW 9319   0.314   2.665  12.122
 2920SOL    HW1 9320   0.407   2.683  12.116
 2920SOL    HW2 9321   0.308   2.575  12.154
 2921SOL     OW 9322   0.330   2.382  12.186
 2921SOL    HW1 9323   0.296   2.294  12.169
 2921SOL    HW2 9324   0.407   2.390  12.128
 2922SOL     OW 9325   1.134   2.237  12.855
 2922SOL    HW1 9326   1.087   2.292  12.917
 2922SOL    HW2 9327   1.222   2.275  12.851
 2923SOL     OW 9328   1.160   2.064  12.643
 2923SOL    HW1 9329   1.150   2.126  12.714
 2923SOL    HW2 9330   1.201   2.114  12.572
 2924SOL     OW 9331   4.000   3.181  11.354
 2924SOL    HW1 9332   3.905   3.197  11.358
 2924SOL    HW2 9333   0.009   3.087  11.372
 2925SOL     OW 9334   0.075   3.663  12.066
 2925SOL    HW1 9335   0.088   3.568  12.067
 2925SOL    HW2 9336   0.164   3.699  12.064
 2926SOL     OW 9337   0.507   3.427  12.088
 2926SOL    HW1 9338   0.573   3.492  12.108
 2926SOL    HW2 9339   0.550   3.367  12.026
 2927SOL     OW 9340   0.981   2.653  12.398
 2927SOL    HW1 9341   1.038   2.631  12.471
 2927SOL    HW2 9342   0.896   2.615  12.421
 2928SOL     OW 9343   0.037   2.418  12.282
 2928SOL    HW1 9344   0.120   2.394  12.239
 2928SOL    HW2 9345   0.057   2.415  12.375
 2929SOL     OW 9346   0.207   2.375  12.900
 2929SOL    HW1 9347   0.247   2.329  12.826
 2929SOL    HW2 9348   0.158   2.447  12.859
 2930SOL     OW 9349   1.378   2.800  12.830
 2930SOL    HW1 9350   1.399   2.893  12.827
 2930SOL    HW2 9351   1.375   2.774  12.738
 2931SOL     OW 9352   0.818   2.431  11.532
 2931SOL    HW1 9353   0.822   2.355  11.474
 2931SOL    HW2 9354   0.744   2.483  11.500
 2932SOL     OW 9355   1.644   2.464  12.355
 2932SOL    HW1 9356   1.632   2.408  12.432
 2932SOL    HW2 9357   1.730   2.440  12.321
 2933SOL     OW 9358   0.298   3.408  12.900
 2933SOL    HW1 9359   0.248   3.478  12.944
 2933SOL    HW2 9360   0.266   3.327  12.939
 2934SOL     OW 9361   0.704   2.312  12.430
 2934SOL    HW1 9362   0.652   2.238  12.400
 2934SOL    HW2 9363   0.699   2.375  12.359
 2935SOL     OW 9364   0.928   3.534  12.640
 2935SOL    HW1 9365   0.902   3.498  12.556
 2935SOL    HW2 9366   0.921   3.629  12.629
 2936SOL     OW 9367   0.457   2.352  11.366
 2936SOL    HW1 9368   0.522   2.420  11.384
 2936SOL    HW2 9369   0.377   2.400  11.345
 2937SOL     OW 9370   0.156   2.997  12.646
 2937SOL    HW1 9371   0.157   2.946  12.727
 2937SOL    HW2 9372   0.171   2.933  12.577
 2938SOL     OW 9373   1.325   2.908  12.394
 2938SOL    HW1 9374   1.348   2.845  12.326
 2938SOL    HW2 9375   1.256   2.961  12.355
 2939SOL     OW 9376   1.312   2.719  11.478
 2939SOL    HW1 9377   1.237   2.688  11.528
 2939SOL    HW2 9378   1.287   2.705  11.386
 2940SOL     OW 9379   1.770   3.604  12.321
 2940SOL    HW1 9380   1.833   3.632  12.254
 2940SOL    HW2 9381   1.749   3.514  12.299
 2941SOL     OW 9382   1.243   3.595  12.282
 2941SOL    HW1 9383   1.326   3.616  12.239
 2941SOL    HW2 9384   1.249   3.502  12.302
 2942SOL     OW 9385   0.076   3.077  12.200
 2942SOL    HW1 9386   0.083   3.104  12.291
 2942SOL    HW2 9387   3.983   3.087  12.179
 2943SOL     OW 9388   0.679   3.526  12.903
 2943SOL    HW1 9389   0.622   3.603  12.906
 2943SOL    HW2 9390   0.739   3.544  12.831
 2944SOL     OW 9391   1.390   3.431  11.658
 2944SOL    HW1 9392   1.450   3.464  11.591
 2944SOL    HW2 9393   1.342   3.508  11.688
 2945SOL     OW 9394   0.168   3.626  13.004
 2945SOL    HW1 9395   0.113   3.573  13.061
 2945SOL    HW2 9396   0.215   3.684  13.064
 2946SOL     OW 9397   1.278   2.788  11.843
 2946SOL    HW1 9398   1.351   2.727  11.850
 2946SOL    HW2 9399   1.312   2.860  11.790
 2947SOL     OW 9400   0.812   3.135  12.601
 2947SOL    HW1 9401   0.784   3.175  12.683
 2947SOL    HW2 9402   0.742   3.155  12.539
 2948SOL     OW 9403   0.675   3.478  11.329
 2948SOL    HW1 9404   0.683   3.494  11.235
 2948SOL    HW2 9405   0.617   3.402  11.336
 2949SOL     OW 9406   1.624   3.588  12.562
 2949SOL    HW1 9407   1.675   3.594  12.481
 2949SOL    HW2 9408   1.610   3.679  12.588
 2950SOL     OW 9409   0.267   2.176  11.889
 2950SOL    HW1 9410   0.181   2.209  11.863
 2950SOL    HW2 9411   0.261   2.166  11.984
 2951SOL     OW 9412   1.207   3.467  11.207
 2951SOL    HW1 9413   1.197   3.375  11.231
 2951SOL    HW2 9414   1.146   3.480  11.135
 2952SOL     OW 9415   0.823   2.868  12.545
 2952SOL    HW1 9416   0.868   2.863  12.460
 2952SOL    HW2 9417   0.822   2.961  12.566
 2953SOL     OW 9418   0.916   2.772  11.462
 2953SOL    HW1 9419   0.976   2.804  11.396
 2953SOL    HW2 9420   0.964   2.703  11.508
 2954SOL     OW 9421   1.490   3.490  11.214
 2954SOL    HW1 9422   1.396   3.480  11.198
 2954SOL    HW2 9423   1.529   3.495  11.127
 2955SOL     OW 9424   0.374   3.165  12.663
 2955SOL    HW1 9425   0.359   3.245  12.613
 2955SOL    HW2 9426   0.296   3.111  12.646
 2956SOL     OW 9427   1.610   3.145  12.452
 2956SOL    HW1 9428   1.670   3.133  12.526
 2956SOL    HW2 9429   1.550   3.213  12.481
 2957SOL     OW 9430   1.054   2.970  11.879
 2957SOL    HW1 9431   0.983   2.919  11.918
 2957SOL    HW2 9432   1.117   2.904  11.849
 2958SOL     OW 9433   1.022   2.102  12.139
 2958SOL    HW1 9434   1.018   2.055  12.056
 2958SOL    HW2 9435   1.017   2.034  12.205
 2959SOL     OW 9436   0.605   3.352  11.653
 2959SOL    HW1 9437   0.649   3.302  11.584
 2959SOL    HW2 9438   0.534   3.397  11.607
 2960SOL     OW 9439   1.728   2.248  12.544
 2960SOL    HW1 9440   1.798   2.312  12.553
 2960SOL    HW2 9441   1.763   2.181  12.487
 2961SOL     OW 9442   0.253   3.203  11.463
 2961SOL    HW1 9443   0.160   3.212  11.444
 2961SOL    HW2 9444   0.263   3.241  11.551
 2962SOL     OW 9445   0.107   2.860  12.889
 2962SOL    HW1 9446   0.046   2.854  12.963
 2962SOL    HW2 9447   0.192   2.841  12.927
 2963SOL     OW 9448   0.675   2.058  12.671
 2963SOL    HW1 9449   0.759   2.037  12.630
 2963SOL    HW2 9450   0.698   2.090  12.759
 2964SOL     OW 9451   0.081   2.178  11.209
 2964SOL    HW1 9452   3.985   2.178  11.216
 2964SOL    HW2 9453   0.101   2.259  11.162
 2965SOL     OW 9454   1.429   2.720  12.571
 2965SOL    HW1 9455   1.380   2.782  12.516
 2965SOL    HW2 9456   1.518   2.723  12.538
 2966SOL     OW 9457   0.020   2.093  11.546
 2966SOL    HW1 9458   0.045   2.158  11.480
 2966SOL    HW2 9459   0.103   2.055  11.575
 2967SOL     OW 9460   1.178   3.200  11.289
 2967SOL    HW1 9461   1.087   3.171  11.290
 2967SOL    HW2 9462   1.205   3.200  11.381
 2968SOL     OW 9463   0.619   2.692  12.608
 2968SOL    HW1 9464   0.675   2.768  12.592
 2968SOL    HW2 9465   0.680   2.619  12.616
 2969SOL     OW 9466   1.485   3.640  12.152
 2969SOL    HW1 9467   1.509   3.698  12.080
 2969SOL    HW2 9468   1.569   3.619  12.194
 2970SOL     OW 9469   0.716   2.425  12.877
 2970SOL    HW1 9470   0.760   2.488  12.935
 2970SOL    HW2 9471   0.743   2.339  12.909
 2971SOL     OW 9472   1.472   3.061  12.803
 2971SOL    HW1 9473   1.460   3.074  12.897
 2971SOL    HW2 9474   1.565   3.077  12.789
 2972SOL     OW 9475   0.378   3.606  12.731
 2972SOL    HW1 9476   0.291   3.642  12.718
 2972SOL    HW2 9477   0.364   3.524  12.778
 2973SOL     OW 9478   1.669   2.743  12.426
 2973SOL    HW1 9479   1.662   2.658  12.384
 2973SOL    HW2 9480   1.659   2.807  12.356
 2974SOL     OW 9481   1.216   2.182  11.630
 2974SOL    HW1 9482   1.278   2.110  11.622
 2974SOL    HW2 9483   1.245   2.231  11.707
 2975SOL     OW 9484   0.589   2.600  11.843
 2975SOL    HW1 9485   0.628   2.686  11.828
 2975SOL    HW2 9486   0.523   2.591  11.775
 2976SOL     OW 9487   1.758   2.241  12.820
 2976SOL    HW1 9488   1.741   2.243  12.726
 2976SOL    HW2 9489   1.698   2.175  12.854
 2977SOL     OW 9490   1.744   2.797  12.684
 2977SOL    HW1 9491   1.740   2.892  12.696
 2977SOL    HW2 9492   1.729   2.785  12.590
 2978SOL     OW 9493   0.864   3.229  11.209
 2978SOL    HW1 9494   0.823   3.257  11.290
 2978SOL    HW2 9495   0.879   3.310  11.160
 2979SOL     OW 9496   0.659   3.652  12.109
 2979SOL    HW1 9497   0.637   3.743  12.090
 2979SOL    HW2 9498   0.754   3.649  12.107
 2980SOL     OW 9499   0.868   2.829  12.026
 2980SOL    HW1 9500   0.918   2.758  12.065
 2980SOL    HW2 9501   0.833   2.877  12.101
 2981SOL     OW 9502   1.078   2.850  11.260
 2981SOL    HW1 9503   1.057   2.901  11.183
 2981SOL    HW2 9504   1.153   2.796  11.235
 2982SOL     OW 9505   1.852   3.413  12.014
 2982SOL    HW1 9506   1.772   3.403  11.963
 2982SOL    HW2 9507   1.844   3.350  12.086
 2983SOL     OW 9508   0.225   3.166  13.028
 2983SOL    HW1 9509   0.152   3.110  13.002
 2983SOL    HW2 9510   0.213   3.179  13.122
 2984SOL     OW 9511   0.113   3.138  11.892
 2984SOL    HW1 9512   0.130   3.088  11.972
 2984SOL    HW2 9513   0.106   3.072  11.823
 2985SOL     OW 9514   0.681   3.265  12.801
 2985SOL    HW1 9515   0.601   3.223  12.831
 2985SOL    HW2 9516   0.678   3.354  12.838
 2986SOL     OW 9517   0.441   2.296  11.705
 2986SOL    HW1 9518   0.442   2.226  11.640
 2986SOL    HW2 9519   0.386   2.262  11.776
 2987SOL     OW 9520   1.701   3.349  12.265
 2987SOL    HW1 9521   1.619   3.327  12.220
 2987SOL    HW2 9522   1.711   3.281  12.332
 2988SOL     OW 9523   0.333   2.418  12.463
 2988SOL    HW1 9524   0.388   2.362  12.518
 2988SOL    HW2 9525   0.349   2.387  12.374
 2989SOL     OW 9526   0.827   3.441  11.849
 2989SOL    HW1 9527   0.813   3.492  11.769
 2989SOL    HW2 9528   0.752   3.381  11.852
 2990SOL     OW 9529   1.437   2.091  12.292
 2990SOL    HW1 9530   1.449   2.004  12.330
 2990SOL    HW2 9531   1.382   2.138  12.355
 2991SOL     OW 9532   1.009   1.879  12.313
 2991SOL    HW1 9533   0.956   1.812  12.271
 2991SOL    HW2 9534   1.098   1.842  12.315
 2992SOL     OW 9535   0.772   3.194  11.489
 2992SOL    HW1 9536   0.741   3.104  11.495
 2992SOL    HW2 9537   0.855   3.194  11.537
 2993SOL     OW 9538   0.620   3.416  12.457
 2993SOL    HW1 9539   0.622   3.498  12.507
 2993SOL    HW2 9540   0.708   3.410  12.419
 2994SOL     OW 9541   1.351   1.914  11.338
 2994SOL    HW1 9542   1.381   1.852  11.272
 2994SOL    HW2 9543   1.263   1.884  11.362
 2995SOL     OW 9544   1.299   2.324  11.853
 2995SOL    HW1 9545   1.244   2.402  11.859
 2995SOL    HW2 9546   1.293   2.284  11.940
 2996SOL     OW 9547   1.570   2.055  12.044
 2996SOL    HW1 9548   1.533   2.081  12.128
 2996SOL    HW2 9549   1.588   2.137  11.999
 2997SOL     OW 9550   0.047   2.912  11.411
 2997SOL    HW1 9551   0.141   2.896  11.403
 2997SOL    HW2 9552   0.011   2.830  11.445
 2998SOL     OW 9553   0.885   3.519  11.516
 2998SOL    HW1 9554   0.814   3.500  11.454
 2998SOL    HW2 9555   0.854   3.595  11.565
 2999SOL     OW 9556   0.230   2.486  13.154
 2999SOL    HW1 9557   0.137   2.493  13.174
 2999SOL    HW2 9558   0.232   2.455  13.063
 3000SOL     OW 9559   0.285   2.129   0.131
 3000SOL    HW1 9560   0.324   2.193   0.190
 3000SOL    HW2 9561   0.201   2.167   0.106
 3001SOL     OW 9562   0.006   2.223  13.659
 3001SOL    HW1 9563   3.912   2.242  13.662
 3001SOL    HW2 9564   0.021   2.190  13.570
 3002SOL     OW 9565   1.525   3.360  13.726
 3002SOL    HW1 9566   1.470   3.294  13.768
 3002SOL    HW2 9567   1.481   3.380  13.644
 3003SOL     OW 9568   1.128   2.562  13.731
 3003SOL    HW1 9569   1.182   2.638  13.709
 3003SOL    HW2 9570   1.082   2.587  13.811
 3004SOL     OW 9571   1.780   2.464  13.259
 3004SOL    HW1 9572   1.752   2.460  13.167
 3004SOL    HW2 9573   1.736   2.390  13.301
 3005SOL     OW 9574   0.686   2.872  13.671
 3005SOL    HW1 9575   0.740   2.851  13.748
 3005SOL    HW2 9576   0.613   2.923  13.707
 3006SOL     OW 9577   1.621   2.312  13.738
 3006SOL    HW1 9578   1.529   2.324  13.716
 3006SOL    HW2 9579   1.632   2.356  13.823
 3007SOL     OW 9580   0.222   3.572  13.498
 3007SOL    HW1 9581   0.240   3.631  13.571
 3007SOL    HW2 9582   0.300   3.576  13.443
 3008SOL     OW 9583   0.247   3.303  13.571
 3008SOL    HW1 9584   0.220   3.395  13.561
 3008SOL    HW2 9585   0.182   3.266  13.631
 3009SOL     OW 9586   0.254   2.938   0.019
 3009SOL    HW1 9587   0.274   2.896   0.103
 3009SOL    HW2 9588   0.214   3.021   0.042
 3010SOL     OW 9589   0.578   2.847  13.170
 3010SOL    HW1 9590   0.626   2.892  13.100
 3010SOL    HW2 9591   0.620   2.877  13.251
 3011SOL     OW 9592   0.143   2.508  13.615
 3011SOL    HW1 9593   0.069   2.450  13.594
 3011SOL    HW2 9594   0.105   2.573  13.674
 3012SOL     OW 9595   1.844   3.612  13.372
 3012SOL    HW1 9596   1.911   3.588  13.436
 3012SOL    HW2 9597   1.863   3.702  13.349
 3013SOL     OW 9598   0.041   3.455  13.174
 3013SOL    HW1 9599   0.033   3.362  13.198
 3013SOL    HW2 9600   3.963   3.496  13.213
 3014SOL     OW 9601   1.687   2.778  13.669
 3014SOL    HW1 9602   1.773   2.742  13.647
 3014SOL    HW2 9603   1.664   2.833  13.594
 3015SOL     OW 9604   1.647   2.967  13.460
 3015SOL    HW1 9605   1.733   2.970  13.417
 3015SOL    HW2 9606   1.653   3.030  13.532
 3016SOL     OW 9607   0.614   3.247  13.761
 3016SOL    HW1 9608   0.563   3.168  13.778
 3016SOL    HW2 9609   0.584   3.276  13.675
 3017SOL     OW 9610   0.817   1.860  13.544
 3017SOL    HW1 9611   0.857   1.945  13.523
 3017SOL    HW2 9612   0.723   1.879  13.552
 3018SOL     OW 9613   1.531   2.856  13.233
 3018SOL    HW1 9614   1.461   2.799  13.266
 3018SOL    HW2 9615   1.571   2.892  13.312
 3019SOL     OW 9616   1.654   3.598  13.612
 3019SOL    HW1 9617   1.636   3.569  13.523
 3019SOL    HW2 9618   1.645   3.519  13.666
 3020SOL     OW 9619   0.595   2.580  13.297
 3020SOL    HW1 9620   0.601   2.664  13.251
 3020SOL    HW2 9621   0.532   2.596  13.368
 3021SOL     OW 9622   1.252   2.191   0.042
 3021SOL    HW1 9623   1.185   2.136   0.083
 3021SOL    HW2 9624   1.333   2.166   0.086
 3022SOL     OW 9625   1.578   3.539  13.340
 3022SOL    HW1 9626   1.671   3.562  13.336
 3022SOL    HW2 9627   1.554   3.518  13.250
 3023SOL     OW 9628   1.049   2.559  13.459
 3023SOL    HW1 9629   1.064   2.548  13.553
 3023SOL    HW2 9630   0.967   2.511  13.442
 3024SOL     OW 9631   0.082   2.701  13.806
 3024SOL    HW1 9632   0.165   2.684  13.852
 3024SOL    HW2 9633   0.075   2.796  13.804
 3025SOL     OW 9634   0.893   2.211  13.225
 3025SOL    HW1 9635   0.934   2.273  13.166
 3025SOL    HW2 9636   0.915   2.125  13.189
 3026SOL     OW 9637   1.365   2.998  13.555
 3026SOL    HW1 9638   1.454   2.996  13.519
 3026SOL    HW2 9639   1.321   3.068  13.506
 3027SOL     OW 9640   1.002   3.304  13.503
 3027SOL    HW1 9641   0.967   3.379  13.456
 3027SOL    HW2 9642   0.972   3.316  13.593
 3028SOL     OW 9643   0.410   3.676  13.812
 3028SOL    HW1 9644   0.428   3.586  13.839
 3028SOL    HW2 9645   0.452   3.730  13.879
 3029SOL     OW 9646   1.791   2.914  13.898
 3029SOL    HW1 9647   1.735   2.902  13.822
 3029SOL    HW2 9648   1.732   2.909   0.073
 3030SOL     OW 9649   0.311   2.817  13.277
 3030SOL    HW1 9650   0.394   2.840  13.236
 3030SOL    HW2 9651   0.297   2.725  13.252
 3031SOL     OW 9652   1.488   2.595  13.744
 3031SOL    HW1 9653   1.481   2.548  13.827
 3031SOL    HW2 9654   1.563   2.653  13.756
 3032SOL     OW 9655   1.112   3.643  13.255
 3032SOL    HW1 9656   1.050   3.596  13.311
 3032SOL    HW2 9657   1.143   3.577  13.193
 3033SOL     OW 9658   1.628   3.243  13.123
 3033SOL    HW1 9659   1.587   3.327  13.106
 3033SOL    HW2 9660   1.559   3.179  13.103
 3034SOL     OW 9661   0.467   3.600  13.353
 3034SOL    HW1 9662   0.505   3.661  13.416
 3034SOL    HW2 9663   0.541   3.572  13.299
 3035SOL     OW 9664   1.402   1.973  13.462
 3035SOL    HW1 9665   1.383   1.949  13.371
 3035SOL    HW2 9666   1.493   1.947  13.475
 3036SOL     OW 9667   0.930   3.548   0.012
 3036SOL    HW1 9668   0.952   3.479   0.075
 3036SOL    HW2 9669   0.886   3.502  13.840
 3037SOL     OW 9670   0.395   2.558  13.504
 3037SOL    HW1 9671   0.424   2.467  13.516
 3037SOL    HW2 9672   0.305   2.558  13.535
 3038SOL     OW 9673   0.638   1.981  13.133
 3038SOL    HW1 9674   0.703   1.914  13.151
 3038SOL    HW2 9675   0.590   1.949  13.056
 3039SOL     OW 9676   0.553   1.925  13.531
 3039SOL    HW1 9677   0.469   1.928  13.577
 3039SOL    HW2 9678   0.558   2.007  13.483
 3040SOL     OW 9679   1.428   3.060  13.075
 3040SOL    HW1 9680   1.458   2.985  13.125
 3040SOL    HW2 9681   1.343   3.081  13.112
 3041SOL     OW 9682   0.307   1.912  13.202
 3041SOL    HW1 9683   0.373   1.951  13.144
 3041SOL    HW2 9684   0.356   1.848  13.254
 3042SOL     OW 9685   0.939   2.105  13.494
 3042SOL    HW1 9686   0.908   2.149  13.415
 3042SOL    HW2 9687   1.033   2.124  13.497
 3043SOL     OW 9688   0.469   3.005  13.769
 3043SOL    HW1 9689   0.396   2.984  13.827
 3043SOL    HW2 9690   0.434   2.995  13.681
 3044SOL     OW 9691   1.269   3.660  13.630
 3044SOL    HW1 9692   1.314   3.727  13.578
 3044SOL    HW2 9693   1.201   3.707  13.678
 3045SOL     OW 9694   1.023   2.402  13.057
 3045SOL    HW1 9695   0.981   2.486  13.038
 3045SOL    HW2 9696   1.089   2.423  13.124
 3046SOL     OW 9697   0.893   2.332  13.671
 3046SOL    HW1 9698   0.825   2.378  13.621
 3046SOL    HW2 9699   0.898   2.246  13.629
 3047SOL     OW 9700   1.027   1.898  13.776
 3047SOL    HW1 9701   0.967   1.911  13.703
 3047SOL    HW2 9702   0.994   1.820  13.820
 3048SOL     OW 9703   1.844   2.678  13.413
 3048SOL    HW1 9704   1.901   2.629  13.473
 3048SOL    HW2 9705   1.819   2.615  13.346
 3049SOL     OW 9706   0.488   3.280  13.194
 3049SOL    HW1 9707   0.412   3.250  13.244
 3049SOL    HW2 9708   0.469   3.254  13.104
 3050SOL     OW 9709   1.682   3.132  13.664
 3050SOL    HW1 9710   1.775   3.133  13.688
 3050SOL    HW2 9711   1.647   3.213  13.702
 3051SOL     OW 9712   1.393   2.435  13.103
 3051SOL    HW1 9713   1.334   2.415  13.176
 3051SOL    HW2 9714   1.479   2.407  13.134
 3052SOL     OW 9715   0.572   2.130  13.354
 3052SOL    HW1 9716   0.602   2.082  13.277
 3052SOL    HW2 9717   0.542   2.214  13.319
 3053SOL     OW 9718   0.708   2.923  13.400
 3053SOL    HW1 9719   0.694   2.909  13.494
 3053SOL    HW2 9720   0.784   2.870  13.379
 3054SOL     OW 9721   0.373   2.965  13.517
 3054SOL    HW1 9722   0.367   3.045  13.466
 3054SOL    HW2 9723   0.372   2.895  13.452
 3055SOL     OW 9724   0.570   2.405  13.869
 3055SOL    HW1 9725   0.580   2.469  13.799
 3055SOL    HW2 9726   0.630   2.434   0.037
 3056SOL     OW 9727   1.246   3.214  13.418
 3056SOL    HW1 9728   1.301   3.286  13.447
 3056SOL    HW2 9729   1.160   3.233  13.454
 3057SOL     OW 9730   1.576   2.493  13.492
 3057SOL    HW1 9731   1.538   2.529  13.572
 3057SOL    HW2 9732   1.625   2.566  13.454
 3058SOL     OW 9733   1.203   2.390  13.299
 3058SOL    HW1 9734   1.211   2.312  13.354
 3058SOL    HW2 9735   1.160   2.455  13.355
 3059SOL     OW 9736   0.302   1.922  13.641
 3059SOL    HW1 9737   0.291   2.013  13.670
 3059SOL    HW2 9738   0.317   1.873  13.722
 3060SOL     OW 9739   1.614   2.240  13.409
 3060SOL    HW1 9740   1.605   2.187  13.489
 3060SOL    HW2 9741   1.592   2.329  13.437
 3061SOL     OW 9742   1.528   2.134  13.164
 3061SOL    HW1 9743   1.462   2.071  13.190
 3061SOL    HW2 9744   1.561   2.170  13.246
 3062SOL     OW 9745   1.289   2.688  13.063
 3062SOL    HW1 9746   1.333   2.603  13.067
 3062SOL    HW2 9747   1.322   2.727  12.982
 3063SOL     OW 9748   3.999   3.181  13.215
 3063SOL    HW1 9749   3.905   3.197  13.219
 3063SOL    HW2 9750   0.009   3.088  13.233
 3064SOL     OW 9751   0.818   2.433  13.387
 3064SOL    HW1 9752   0.820   2.356  13.331
 3064SOL    HW2 9753   0.742   2.483  13.357
 3065SOL     OW 9754   0.456   2.352  13.227
 3065SOL    HW1 9755   0.521   2.419  13.245
 3065SOL    HW2 9756   0.376   2.400  13.206
 3066SOL     OW 9757   1.313   2.716  13.338
 3066SOL    HW1 9758   1.237   2.689  13.389
 3066SOL    HW2 9759   1.287   2.703  13.247
 3067SOL     OW 9760   1.383   3.436  13.507
 3067SOL    HW1 9761   1.444   3.473  13.443
 3067SOL    HW2 9762   1.338   3.512  13.544
 3068SOL     OW 9763   1.287   2.776  13.685
 3068SOL    HW1 9764   1.364   2.720  13.672
 3068SOL    HW2 9765   1.311   2.859  13.644
 3069SOL     OW 9766   0.674   3.479  13.191
 3069SOL    HW1 9767   0.683   3.494  13.097
 3069SOL    HW2 9768   0.616   3.402  13.197
 3070SOL     OW 9769   0.281   2.172  13.739
 3070SOL    HW1 9770   0.198   2.216  13.721
 3070SOL    HW2 9771   0.289   2.173  13.834
 3071SOL     OW 9772   1.208   3.467  13.069
 3071SOL    HW1 9773   1.197   3.375  13.093
 3071SOL    HW2 9774   1.146   3.480  12.997
 3072SOL     OW 9775   0.918   2.774  13.327
 3072SOL    HW1 9776   0.977   2.804  13.259
 3072SOL    HW2 9777   0.964   2.701  13.369
 3073SOL     OW 9778   1.490   3.490  13.076
 3073SOL    HW1 9779   1.396   3.480  13.060
 3073SOL    HW2 9780   1.528   3.495  12.988
 3074SOL     OW 9781   1.050   2.953  13.754
 3074SOL    HW1 9782   0.963   2.913  13.744
 3074SOL    HW2 9783   1.104   2.911  13.687
 3075SOL     OW 9784   0.602   3.356  13.506
 3075SOL    HW1 9785   0.646   3.304  13.439
 3075SOL    HW2 9786   0.531   3.400  13.459
 3076SOL     OW 9787   0.252   3.202  13.324
 3076SOL    HW1 9788   0.159   3.212  13.304
 3076SOL    HW2 9789   0.263   3.240  13.411
 3077SOL     OW 9790   0.080   2.177  13.072
 3077SOL    HW1 9791   3.985   2.177  13.078
 3077SOL    HW2 9792   0.101   2.258  13.025
 3078SOL     OW 9793   0.021   2.100  13.409
 3078SOL    HW1 9794   0.047   2.158  13.338
 3078SOL    HW2 9795   0.101   2.054  13.434
 3079SOL     OW 9796   1.178   3.200  13.149
 3079SOL    HW1 9797   1.087   3.171  13.152
 3079SOL    HW2 9798   1.205   3.201  13.241
 3080SOL     OW 9799   1.216   2.181  13.491
 3080SOL    HW1 9800   1.279   2.111  13.482
 3080SOL    HW2 9801   1.245   2.231  13.567
 3081SOL     OW 9802   0.592   2.611  13.692
 3081SOL    HW1 9803   0.627   2.698  13.674
 3081SOL    HW2 9804   0.523   2.599  13.628
 3082SOL     OW 9805   0.864   3.229  13.070
 3082SOL    HW1 9806   0.823   3.256  13.152
 3082SOL    HW2 9807   0.879   3.310  13.023
 3083SOL     OW 9808   0.656   3.710   0.068
 3083SOL    HW1 9809   0.654   3.804   0.088
 3083SOL    HW2 9810   0.748   3.686   0.079
 3084SOL     OW 9811   0.829   2.826  13.895
 3084SOL    HW1 9812   0.864   2.745   0.033
 3084SOL    HW2 9813   0.850   2.894   0.059
 3085SOL     OW 9814   1.076   2.848  13.122
 3085SOL    HW1 9815   1.056   2.901  13.045
 3085SOL    HW2 9816   1.152   2.796  13.096
 3086SOL     OW 9817   0.114   3.134  13.756
 3086SOL    HW1 9818   0.053   3.090  13.815
 3086SOL    HW2 9819   0.123   3.075  13.682
 3087SOL     OW 9820   0.445   2.300  13.557
 3087SOL    HW1 9821   0.450   2.227  13.495
 3087SOL    HW2 9822   0.401   2.263  13.634
 3088SOL     OW 9823   1.680   3.324   0.342
 3088SOL    HW1 9824   1.650   3.302   0.253
 3088SOL    HW2 9825   1.767   3.284   0.348
 3089SOL     OW 9826   0.819   3.415  13.708
 3089SOL    HW1 9827   0.794   3.465  13.630
 3089SOL    HW2 9828   0.745   3.358  13.725
 3090SOL     OW 9829   0.772   3.194  13.347
 3090SOL    HW1 9830   0.742   3.104  13.355
 3090SOL    HW2 9831   0.854   3.196  13.397
 3091SOL     OW 9832   1.350   1.914  13.200
 3091SOL    HW1 9833   1.380   1.853  13.133
 3091SOL    HW2 9834   1.263   1.883  13.224
 3092SOL     OW 9835   1.304   2.322  13.711
 3092SOL    HW1 9836   1.250   2.401  13.717
 3092SOL    HW2 9837   1.288   2.276  13.793
 3093SOL     OW 9838   0.046   2.912  13.269
 3093SOL    HW1 9839   0.140   2.896  13.262
 3093SOL    HW2 9840   0.011   2.831  13.306
 3094SOL     OW 9841   0.885   3.519  13.377
 3094SOL    HW1 9842   0.814   3.500  13.317
 3094SOL    HW2 9843   0.855   3.593  13.429
 3095SOL     OW 9844   0.233   3.948   0.968
 3095SOL    HW1 9845   0.252   3.960   1.061
 3095SOL    HW2 9846   0.140   3.968   0.960
 3096SOL     OW 9847   0.018   0.096   0.636
 3096SOL    HW1 9848   3.929   0.084   0.668
 3096SOL    HW2 9849   0.019   0.054   0.551
 3097SOL     OW 9850   1.807   0.356   0.271
 3097SOL    HW1 9851   1.783   0.319   0.186
 3097SOL    HW2 9852   1.725   0.357   0.320
 3098SOL     OW 9853   0.441   0.099   1.511
 3098SOL    HW1 9854   0.511   0.060   1.459
 3098SOL    HW2 9855   0.363   0.048   1.487
 3099SOL     OW 9856   1.596   3.848   1.463
 3099SOL    HW1 9857   1.601   3.933   1.419
 3099SOL    HW2 9858   1.581   3.869   1.555
 3100SOL     OW 9859   0.806   3.727   0.506
 3100SOL    HW1 9860   0.834   3.818   0.496
 3100SOL    HW2 9861   0.711   3.732   0.516
 3101SOL     OW 9862   1.268   0.062   0.937
 3101SOL    HW1 9863   1.196   0.007   0.906
 3101SOL    HW2 9864   1.324   0.003   0.987
 3102SOL     OW 9865   0.554   3.904   0.890
 3102SOL    HW1 9866   0.550   3.926   0.983
 3102SOL    HW2 9867   0.548   3.989   0.845
 3103SOL     OW 9868   0.193   3.982   1.498
 3103SOL    HW1 9869   0.104   0.017   1.499
 3103SOL    HW2 9870   0.187   3.902   1.551
 3104SOL     OW 9871   1.409   3.839   0.428
 3104SOL    HW1 9872   1.402   3.796   0.343
 3104SOL    HW2 9873   1.500   3.827   0.454
 3105SOL     OW 9874   1.533   3.940   1.722
 3105SOL    HW1 9875   1.560   3.943   1.814
 3105SOL    HW2 9876   1.467   3.872   1.719
 3106SOL     OW 9877   0.772   3.958   1.744
 3106SOL    HW1 9878   0.830   3.930   1.815
 3106SOL    HW2 9879   0.688   3.973   1.786
 3107SOL     OW 9880   0.534   3.784   0.513
 3107SOL    HW1 9881   0.479   3.784   0.592
 3107SOL    HW2 9882   0.546   3.877   0.492
 3108SOL     OW 9883   0.266   3.737   0.185
 3108SOL    HW1 9884   0.299   3.826   0.174
 3108SOL    HW2 9885   0.338   3.689   0.226
 3109SOL     OW 9886   0.563   3.944   1.167
 3109SOL    HW1 9887   0.603   3.871   1.213
 3109SOL    HW2 9888   0.471   3.943   1.194
 3110SOL     OW 9889   1.020   3.768   0.738
 3110SOL    HW1 9890   0.955   3.757   0.669
 3110SOL    HW2 9891   0.996   3.702   0.804
 3111SOL     OW 9892   0.923   3.803   1.399
 3111SOL    HW1 9893   0.951   3.783   1.310
 3111SOL    HW2 9894   0.996   3.853   1.437
 3112SOL     OW 9895   1.266   0.076   1.265
 3112SOL    HW1 9896   1.281   0.143   1.331
 3112SOL    HW2 9897   1.198   0.112   1.208
 3113SOL     OW 9898   0.506   3.751   1.755
 3113SOL    HW1 9899   0.453   3.704   1.690
 3113SOL    HW2 9900   0.474   3.841   1.752
 3114SOL     OW 9901   0.304   3.925   1.255
 3114SOL    HW1 9902   0.259   3.942   1.338
 3114SOL    HW2 9903   0.288   3.832   1.239
 3115SOL     OW 9904   1.596   3.939   0.154
 3115SOL    HW1 9905   1.516   3.887   0.158
 3115SOL    HW2 9906   1.570   0.025   0.187
 3116SOL     OW 9907   1.164   3.923   1.473
 3116SOL    HW1 9908   1.169   3.997   1.534
 3116SOL    HW2 9909   1.204   3.956   1.393
 3117SOL     OW 9910   0.919   3.825   0.151
 3117SOL    HW1 9911   0.950   3.815   0.060
 3117SOL    HW2 9912   0.978   3.768   0.202
 3118SOL     OW 9913   1.710   3.859   0.513
 3118SOL    HW1 9914   1.788   3.848   0.459
 3118SOL    HW2 9915   1.699   3.774   0.556
 3119SOL     OW 9916   1.836   3.882   0.971
 3119SOL    HW1 9917   1.871   3.799   0.938
 3119SOL    HW2 9918   1.755   3.895   0.921
 3120SOL     OW 9919   0.675   3.910   1.491
 3120SOL    HW1 9920   0.758   3.903   1.443
 3120SOL    HW2 9921   0.701   3.932   1.581
 3121SOL     OW 9922   0.047   0.021   0.042
 3121SOL    HW1 9923   3.958   0.022   0.005
 3121SOL    HW2 9924   0.089   0.099   0.005
 3122SOL     OW 9925   0.126   3.931   0.373
 3122SOL    HW1 9926   0.073   3.975   0.307
 3122SOL    HW2 9927   0.165   3.857   0.328
 3123SOL     OW 9928   1.191   0.012   0.465
 3123SOL    HW1 9929   1.256   3.941   0.467
 3123SOL    HW2 9930   1.212   0.065   0.541
 3124SOL     OW 9931   1.785   0.043   1.641
 3124SOL    HW1 9932   1.759   0.075   1.554
 3124SOL    HW2 9933   1.705   0.006   1.677
 3125SOL     OW 9934   1.817   3.913   1.238
 3125SOL    HW1 9935   1.822   3.822   1.267
 3125SOL    HW2 9936   1.822   3.908   1.143
 3126SOL     OW 9937   1.439   3.933   1.117
 3126SOL    HW1 9938   1.472   3.855   1.162
 3126SOL    HW2 9939   1.380   3.974   1.180
 3127SOL     OW 9940   1.014   3.737   1.149
 3127SOL    HW1 9941   0.957   3.681   1.096
 3127SOL    HW2 9942   1.100   3.694   1.144
 3128SOL     OW 9943   1.351   3.783   0.151
 3128SOL    HW1 9944   1.389   3.712   0.098
 3128SOL    HW2 9945   1.268   3.747   0.183
 3129SOL     OW 9946   1.284   0.163   0.680
 3129SOL    HW1 9947   1.278   0.258   0.689
 3129SOL    HW2 9948   1.289   0.131   0.771
 3130SOL     OW 9949   1.580   3.928   0.879
 3130SOL    HW1 9950   1.529   3.932   0.959
 3130SOL    HW2 9951   1.581   0.018   0.845
 3131SOL     OW 9952   0.234   3.949   2.828
 3131SOL    HW1 9953   0.253   3.961   2.921
 3131SOL    HW2 9954   0.140   3.967   2.821
 3132SOL     OW 9955   0.012   0.104   2.489
 3132SOL    HW1 9956   3.928   0.090   2.532
 3132SOL    HW2 9957   0.010   0.046   2.413
 3133SOL     OW 9958   1.777   0.320   2.053
 3133SOL    HW1 9959   1.703   0.298   1.996
 3133SOL    HW2 9960   1.737   0.336   2.139
 3134SOL     OW 9961   0.440   0.099   3.373
 3134SOL    HW1 9962   0.511   0.059   3.322
 3134SOL    HW2 9963   0.363   0.048   3.349
 3135SOL     OW 9964   1.596   3.848   3.325
 3135SOL    HW1 9965   1.601   3.933   3.281
 3135SOL    HW2 9966   1.581   3.869   3.417
 3136SOL     OW 9967   0.805   3.729   2.365
 3136SOL    HW1 9968   0.832   3.820   2.360
 3136SOL    HW2 9969   0.710   3.732   2.376
 3137SOL     OW 9970   1.267   0.063   2.801
 3137SOL    HW1 9971   1.197   0.007   2.768
 3137SOL    HW2 9972   1.324   0.002   2.850
 3138SOL     OW 9973   0.554   3.905   2.752
 3138SOL    HW1 9974   0.551   3.925   2.845
 3138SOL    HW2 9975   0.549   3.990   2.709
 3139SOL     OW 9976   0.193   3.982   3.360
 3139SOL    HW1 9977   0.104   0.017   3.361
 3139SOL    HW2 9978   0.187   3.902   3.413
 3140SOL     OW 9979   1.406   3.833   2.292
 3140SOL    HW1 9980   1.397   3.799   2.203
 3140SOL    HW2 9981   1.500   3.825   2.311
 3141SOL     OW 9982   1.534   3.940   3.584
 3141SOL    HW1 9983   1.560   3.943   3.676
 3141SOL    HW2 9984   1.467   3.872   3.581
 3142SOL     OW 9985   0.625   3.851   1.986
 3142SOL    HW1 9986   0.716   3.821   1.989
 3142SOL    HW2 9987   0.587   3.801   1.913
 3143SOL     OW 9988   0.772   3.957   3.606
 3143SOL    HW1 9989   0.830   3.930   3.677
 3143SOL    HW2 9990   0.688   3.973   3.648
 3144SOL     OW 9991   0.534   3.786   2.374
 3144SOL    HW1 9992   0.481   3.787   2.454
 3144SOL    HW2 9993   0.544   3.878   2.350
 3145SOL     OW 9994   0.287   3.758   2.039
 3145SOL    HW1 9995   0.332   3.841   2.025
 3145SOL    HW2 9996   0.353   3.702   2.081
 3146SOL     OW 9997   0.563   3.943   3.028
 3146SOL    HW1 9998   0.604   3.871   3.076
 3146SOL    HW2 9999   0.471   3.942   3.056
 3147SOL     OW10000   1.020   3.768   2.600
 3147SOL    HW110001   0.955   3.756   2.531
 3147SOL    HW210002   0.996   3.702   2.666
 3148SOL     OW10003   0.923   3.803   3.261
 3148SOL    HW110004   0.951   3.783   3.172
 3148SOL    HW210005   0.996   3.853   3.299
 3149SOL     OW10006   1.266   0.076   3.127
 3149SOL    HW110007   1.282   0.143   3.193
 3149SOL    HW210008   1.199   0.112   3.070
 3150SOL     OW10009   0.506   3.751   3.617
 3150SOL    HW110010   0.453   3.704   3.552
 3150SOL    HW210011   0.474   3.841   3.615
 3151SOL     OW10012   0.304   3.925   3.117
 3151SOL    HW110013   0.259   3.942   3.199
 3151SOL    HW210014   0.288   3.832   3.100
 3152SOL     OW10015   1.576   3.955   1.982
 3152SOL    HW110016   1.516   3.898   2.031
 3152SOL    HW210017   1.604   0.021   2.045
 3153SOL     OW10018   1.164   3.923   3.335
 3153SOL    HW110019   1.168   3.997   3.396
 3153SOL    HW210020   1.204   3.956   3.255
 3154SOL     OW10021   0.900   3.812   1.967
 3154SOL    HW110022   0.961   3.774   1.903
 3154SOL    HW210023   0.940   3.793   2.052
 3155SOL     OW10024   1.712   3.857   2.364
 3155SOL    HW110025   1.790   3.843   2.309
 3155SOL    HW210026   1.701   3.775   2.410
 3156SOL     OW10027   1.835   3.882   2.833
 3156SOL    HW110028   1.871   3.800   2.801
 3156SOL    HW210029   1.755   3.895   2.784
 3157SOL     OW10030   0.675   3.910   3.353
 3157SOL    HW110031   0.758   3.903   3.305
 3157SOL    HW210032   0.701   3.932   3.443
 3158SOL     OW10033   0.070   0.030   1.844
 3158SOL    HW110034   3.977   0.029   1.864
 3158SOL    HW210035   0.101   0.115   1.875
 3159SOL     OW10036   0.106   3.913   2.230
 3159SOL    HW110037   0.081   3.996   2.188
 3159SOL    HW210038   0.185   3.886   2.184
 3160SOL     OW10039   1.191   0.011   2.329
 3160SOL    HW110040   1.261   3.946   2.326
 3160SOL    HW210041   1.214   0.066   2.404
 3161SOL     OW10042   1.785   0.043   3.503
 3161SOL    HW110043   1.760   0.075   3.416
 3161SOL    HW210044   1.705   0.006   3.539
 3162SOL     OW10045   1.817   3.913   3.101
 3162SOL    HW110046   1.822   3.822   3.130
 3162SOL    HW210047   1.822   3.908   3.005
 3163SOL     OW10048   1.439   3.933   2.979
 3163SOL    HW110049   1.472   3.855   3.025
 3163SOL    HW210050   1.380   3.974   3.042
 3164SOL     OW10051   1.014   3.736   3.011
 3164SOL    HW110052   0.957   3.680   2.959
 3164SOL    HW210053   1.100   3.694   3.006
 3165SOL     OW10054   1.353   3.771   2.023
 3165SOL    HW110055   1.385   3.703   1.964
 3165SOL    HW210056   1.265   3.741   2.048
 3166SOL     OW10057   1.281   0.162   2.545
 3166SOL    HW110058   1.280   0.258   2.551
 3166SOL    HW210059   1.288   0.133   2.636
 3167SOL     OW10060   1.580   3.928   2.741
 3167SOL    HW110061   1.529   3.932   2.821
 3167SOL    HW210062   1.581   0.017   2.707
 3168SOL     OW10063   0.234   3.949   4.690
 3168SOL    HW110064   0.254   3.961   4.783
 3168SOL    HW210065   0.140   3.967   4.683
 3169SOL     OW10066   0.012   0.104   4.351
 3169SOL    HW110067   3.928   0.090   4.395
 3169SOL    HW210068   0.010   0.046   4.275
 3170SOL     OW10069   1.777   0.320   3.915
 3170SOL    HW110070   1.703   0.298   3.858
 3170SOL    HW210071   1.737   0.336   4.001
 3171SOL     OW10072   0.440   0.099   5.235
 3171SOL    HW110073   0.511   0.060   5.184
 3171SOL    HW210074   0.363   0.048   5.211
 3172SOL     OW10075   1.596   3.848   5.187
 3172SOL    HW110076   1.601   3.933   5.143
 3172SOL    HW210077   1.581   3.869   5.279
 3173SOL     OW10078   0.805   3.729   4.227
 3173SOL    HW110079   0.832   3.820   4.222
 3173SOL    HW210080   0.710   3.732   4.238
 3174SOL     OW10081   1.267   0.062   4.663
 3174SOL    HW110082   1.197   0.007   4.630
 3174SOL    HW210083   1.324   0.002   4.712
 3175SOL     OW10084   0.554   3.905   4.614
 3175SOL    HW110085   0.551   3.925   4.707
 3175SOL    HW210086   0.549   3.990   4.571
 3176SOL     OW10087   0.193   3.982   5.222
 3176SOL    HW110088   0.104   0.017   5.223
 3176SOL    HW210089   0.187   3.902   5.275
 3177SOL     OW10090   1.406   3.833   4.154
 3177SOL    HW110091   1.397   3.799   4.065
 3177SOL    HW210092   1.500   3.825   4.173
 3178SOL     OW10093   1.533   3.940   5.446
 3178SOL    HW110094   1.560   3.943   5.538
 3178SOL    HW210095   1.466   3.872   5.443
 3179SOL     OW10096   0.625   3.851   3.848
 3179SOL    HW110097   0.716   3.821   3.851
 3179SOL    HW210098   0.587   3.801   3.775
 3180SOL     OW10099   0.772   3.957   5.468
 3180SOL    HW110100   0.830   3.930   5.539
 3180SOL    HW210101   0.688   3.973   5.510
 3181SOL     OW10102   0.534   3.786   4.236
 3181SOL    HW110103   0.481   3.787   4.316
 3181SOL    HW210104   0.544   3.878   4.212
 3182SOL     OW10105   0.288   3.758   3.901
 3182SOL    HW110106   0.332   3.841   3.887
 3182SOL    HW210107   0.353   3.702   3.943
 3183SOL     OW10108   0.563   3.943   4.890
 3183SOL    HW110109   0.604   3.871   4.938
 3183SOL    HW210110   0.471   3.942   4.918
 3184SOL     OW10111   1.020   3.768   4.462
 3184SOL    HW110112   0.955   3.756   4.393
 3184SOL    HW210113   0.996   3.702   4.528
 3185SOL     OW10114   0.923   3.803   5.123
 3185SOL    HW110115   0.952   3.783   5.034
 3185SOL    HW210116   0.996   3.853   5.161
 3186SOL     OW10117   1.266   0.076   4.989
 3186SOL    HW110118   1.282   0.143   5.055
 3186SOL    HW210119   1.199   0.112   4.932
 3187SOL     OW10120   0.506   3.751   5.479
 3187SOL    HW110121   0.453   3.704   5.414
 3187SOL    HW210122   0.474   3.841   5.477
 3188SOL     OW10123   0.304   3.925   4.979
 3188SOL    HW110124   0.259   3.942   5.061
 3188SOL    HW210125   0.288   3.832   4.962
 3189SOL     OW10126   1.576   3.955   3.844
 3189SOL    HW110127   1.516   3.898   3.893
 3189SOL    HW210128   1.604   0.021   3.907
 3190SOL     OW10129   1.164   3.923   5.198
 3190SOL    HW110130   1.168   3.997   5.258
 3190SOL    HW210131   1.204   3.956   5.117
 3191SOL     OW10132   0.900   3.812   3.829
 3191SOL    HW110133   0.961   3.774   3.765
 3191SOL    HW210134   0.940   3.793   3.914
 3192SOL     OW10135   1.712   3.857   4.226
 3192SOL    HW110136   1.790   3.843   4.171
 3192SOL    HW210137   1.701   3.775   4.272
 3193SOL     OW10138   1.835   3.882   4.695
 3193SOL    HW110139   1.871   3.800   4.663
 3193SOL    HW210140   1.755   3.895   4.646
 3194SOL     OW10141   0.675   3.910   5.215
 3194SOL    HW110142   0.758   3.904   5.167
 3194SOL    HW210143   0.701   3.932   5.305
 3195SOL     OW10144   0.070   0.030   3.706
 3195SOL    HW110145   3.977   0.029   3.726
 3195SOL    HW210146   0.101   0.115   3.737
 3196SOL     OW10147   0.106   3.913   4.092
 3196SOL    HW110148   0.081   3.996   4.050
 3196SOL    HW210149   0.185   3.886   4.046
 3197SOL     OW10150   1.191   0.011   4.191
 3197SOL    HW110151   1.261   3.946   4.188
 3197SOL    HW210152   1.214   0.066   4.266
 3198SOL     OW10153   1.785   0.043   5.365
 3198SOL    HW110154   1.760   0.076   5.278
 3198SOL    HW210155   1.705   0.006   5.401
 3199SOL     OW10156   1.816   3.913   4.963
 3199SOL    HW110157   1.823   3.822   4.992
 3199SOL    HW210158   1.822   3.908   4.867
 3200SOL     OW10159   1.439   3.933   4.841
 3200SOL    HW110160   1.472   3.856   4.887
 3200SOL    HW210161   1.380   3.974   4.904
 3201SOL     OW10162   1.014   3.736   4.873
 3201SOL    HW110163   0.957   3.681   4.820
 3201SOL    HW210164   1.100   3.694   4.868
 3202SOL     OW10165   1.353   3.771   3.885
 3202SOL    HW110166   1.385   3.703   3.826
 3202SOL    HW210167   1.265   3.741   3.910
 3203SOL     OW10168   1.281   0.162   4.407
 3203SOL    HW110169   1.280   0.258   4.413
 3203SOL    HW210170   1.288   0.133   4.498
 3204SOL     OW10171   1.580   3.928   4.603
 3204SOL    HW110172   1.529   3.933   4.683
 3204SOL    HW210173   1.581   0.017   4.569
 3205SOL     OW10174   0.234   3.949   6.552
 3205SOL    HW110175   0.253   3.961   6.645
 3205SOL    HW210176   0.140   3.967   6.545
 3206SOL     OW10177   0.012   0.104   6.213
 3206SOL    HW110178   3.928   0.090   6.256
 3206SOL    HW210179   0.010   0.046   6.137
 3207SOL     OW10180   1.777   0.320   5.778
 3207SOL    HW110181   1.703   0.298   5.720
 3207SOL    HW210182   1.737   0.335   5.863
 3208SOL     OW10183   0.440   0.099   7.097
 3208SOL    HW110184   0.511   0.060   7.045
 3208SOL    HW210185   0.363   0.048   7.073
 3209SOL     OW10186   1.596   3.848   7.049
 3209SOL    HW110187   1.602   3.933   7.005
 3209SOL    HW210188   1.580   3.869   7.141
 3210SOL     OW10189   0.805   3.728   6.090
 3210SOL    HW110190   0.832   3.820   6.084
 3210SOL    HW210191   0.710   3.732   6.100
 3211SOL     OW10192   1.267   0.062   6.526
 3211SOL    HW110193   1.197   0.007   6.491
 3211SOL    HW210194   1.324   0.002   6.574
 3212SOL     OW10195   0.554   3.905   6.476
 3212SOL    HW110196   0.551   3.925   6.569
 3212SOL    HW210197   0.549   3.990   6.433
 3213SOL     OW10198   0.193   3.982   7.084
 3213SOL    HW110199   0.104   0.017   7.085
 3213SOL    HW210200   0.187   3.902   7.137
 3214SOL     OW10201   1.406   3.833   6.016
 3214SOL    HW110202   1.398   3.799   5.927
 3214SOL    HW210203   1.500   3.825   6.035
 3215SOL     OW10204   1.534   3.940   7.308
 3215SOL    HW110205   1.560   3.943   7.400
 3215SOL    HW210206   1.466   3.872   7.305
 3216SOL     OW10207   0.625   3.850   5.710
 3216SOL    HW110208   0.716   3.821   5.713
 3216SOL    HW210209   0.587   3.801   5.637
 3217SOL     OW10210   0.772   3.958   7.330
 3217SOL    HW110211   0.830   3.930   7.401
 3217SOL    HW210212   0.688   3.973   7.372
 3218SOL     OW10213   0.534   3.786   6.098
 3218SOL    HW110214   0.481   3.787   6.178
 3218SOL    HW210215   0.544   3.878   6.074
 3219SOL     OW10216   0.288   3.758   5.763
 3219SOL    HW110217   0.332   3.841   5.750
 3219SOL    HW210218   0.353   3.702   5.805
 3220SOL     OW10219   0.563   3.943   6.752
 3220SOL    HW110220   0.603   3.871   6.800
 3220SOL    HW210221   0.471   3.942   6.780
 3221SOL     OW10222   1.020   3.767   6.324
 3221SOL    HW110223   0.955   3.756   6.255
 3221SOL    HW210224   0.996   3.702   6.390
 3222SOL     OW10225   0.923   3.803   6.985
 3222SOL    HW110226   0.952   3.784   6.896
 3222SOL    HW210227   0.996   3.853   7.023
 3223SOL     OW10228   1.266   0.075   6.851
 3223SOL    HW110229   1.282   0.144   6.916
 3223SOL    HW210230   1.200   0.113   6.793
 3224SOL     OW10231   0.506   3.751   7.341
 3224SOL    HW110232   0.453   3.704   7.276
 3224SOL    HW210233   0.474   3.841   7.338
 3225SOL     OW10234   0.304   3.925   6.841
 3225SOL    HW110235   0.259   3.942   6.923
 3225SOL    HW210236   0.288   3.832   6.824
 3226SOL     OW10237   1.576   3.955   5.706
 3226SOL    HW110238   1.516   3.899   5.756
 3226SOL    HW210239   1.604   0.022   5.769
 3227SOL     OW10240   1.164   3.923   7.060
 3227SOL    HW110241   1.168   3.997   7.120
 3227SOL    HW210242   1.204   3.956   6.979
 3228SOL     OW10243   0.900   3.812   5.691
 3228SOL    HW110244   0.961   3.775   5.628
 3228SOL    HW210245   0.940   3.793   5.776
 3229SOL     OW10246   1.711   3.857   6.087
 3229SOL    HW110247   1.789   3.843   6.033
 3229SOL    HW210248   1.701   3.775   6.134
 3230SOL     OW10249   1.835   3.882   6.558
 3230SOL    HW110250   1.871   3.799   6.524
 3230SOL    HW210251   1.755   3.895   6.507
 3231SOL     OW10252   0.675   3.910   7.077
 3231SOL    HW110253   0.758   3.904   7.029
 3231SOL    HW210254   0.701   3.932   7.167
 3232SOL     OW10255   0.070   0.030   5.568
 3232SOL    HW110256   3.977   0.029   5.588
 3232SOL    HW210257   0.101   0.115   5.599
 3233SOL     OW10258   0.106   3.913   5.954
 3233SOL    HW110259   0.081   3.996   5.912
 3233SOL    HW210260   0.185   3.886   5.908
 3234SOL     OW10261   1.191   0.010   6.054
 3234SOL    HW110262   1.261   3.946   6.050
 3234SOL    HW210263   1.213   0.066   6.128
 3235SOL     OW10264   1.786   0.042   7.227
 3235SOL    HW110265   1.760   0.076   7.141
 3235SOL    HW210266   1.705   0.006   7.263
 3236SOL     OW10267   1.816   3.913   6.825
 3236SOL    HW110268   1.823   3.822   6.853
 3236SOL    HW210269   1.822   3.908   6.729
 3237SOL     OW10270   1.439   3.932   6.703
 3237SOL    HW110271   1.472   3.856   6.750
 3237SOL    HW210272   1.380   3.974   6.766
 3238SOL     OW10273   1.014   3.736   6.735
 3238SOL    HW110274   0.957   3.681   6.683
 3238SOL    HW210275   1.100   3.694   6.730
 3239SOL     OW10276   1.353   3.771   5.747
 3239SOL    HW110277   1.385   3.703   5.687
 3239SOL    HW210278   1.265   3.741   5.772
 3240SOL     OW10279   1.281   0.162   6.269
 3240SOL    HW110280   1.281   0.258   6.275
 3240SOL    HW210281   1.288   0.133   6.360
 3241SOL     OW10282   1.580   3.927   6.465
 3241SOL    HW110283   1.529   3.933   6.546
 3241SOL    HW210284   1.581   0.017   6.431
 3242SOL     OW10285   0.234   3.950   8.414
 3242SOL    HW110286   0.253   3.961   8.507
 3242SOL    HW210287   0.140   3.967   8.407
 3243SOL     OW10288   0.012   0.104   8.075
 3243SOL    HW110289   3.928   0.090   8.118
 3243SOL    HW210290   0.010   0.046   7.999
 3244SOL     OW10291   1.777   0.319   7.640
 3244SOL    HW110292   1.704   0.298   7.582
 3244SOL    HW210293   1.736   0.334   7.726
 3245SOL     OW10294   0.440   0.099   8.959
 3245SOL    HW110295   0.511   0.060   8.907
 3245SOL    HW210296   0.363   0.048   8.935
 3246SOL     OW10297   1.596   3.848   8.911
 3246SOL    HW110298   1.601   3.933   8.867
 3246SOL    HW210299   1.581   3.869   9.003
 3247SOL     OW10300   0.805   3.729   7.952
 3247SOL    HW110301   0.832   3.820   7.946
 3247SOL    HW210302   0.710   3.732   7.962
 3248SOL     OW10303   1.267   0.063   8.388
 3248SOL    HW110304   1.197   0.008   8.353
 3248SOL    HW210305   1.324   0.002   8.436
 3249SOL     OW10306   0.554   3.905   8.338
 3249SOL    HW110307   0.551   3.925   8.431
 3249SOL    HW210308   0.549   3.990   8.295
 3250SOL     OW10309   0.193   3.982   8.946
 3250SOL    HW110310   0.104   0.017   8.947
 3250SOL    HW210311   0.187   3.902   8.999
 3251SOL     OW10312   1.406   3.833   7.878
 3251SOL    HW110313   1.397   3.800   7.788
 3251SOL    HW210314   1.500   3.825   7.897
 3252SOL     OW10315   1.534   3.940   9.170
 3252SOL    HW110316   1.560   3.943   9.262
 3252SOL    HW210317   1.466   3.872   9.167
 3253SOL     OW10318   0.625   3.851   7.572
 3253SOL    HW110319   0.716   3.821   7.575
 3253SOL    HW210320   0.587   3.801   7.499
 3254SOL     OW10321   0.772   3.958   9.192
 3254SOL    HW110322   0.830   3.930   9.263
 3254SOL    HW210323   0.688   3.973   9.234
 3255SOL     OW10324   0.534   3.786   7.960
 3255SOL    HW110325   0.481   3.787   8.040
 3255SOL    HW210326   0.544   3.878   7.936
 3256SOL     OW10327   0.287   3.758   7.626
 3256SOL    HW110328   0.333   3.841   7.611
 3256SOL    HW210329   0.353   3.702   7.667
 3257SOL     OW10330   0.563   3.943   8.614
 3257SOL    HW110331   0.603   3.871   8.662
 3257SOL    HW210332   0.471   3.942   8.642
 3258SOL     OW10333   1.020   3.768   8.186
 3258SOL    HW110334   0.955   3.756   8.117
 3258SOL    HW210335   0.996   3.702   8.252
 3259SOL     OW10336   0.923   3.803   8.847
 3259SOL    HW110337   0.952   3.783   8.758
 3259SOL    HW210338   0.996   3.853   8.885
 3260SOL     OW10339   1.266   0.076   8.713
 3260SOL    HW110340   1.281   0.144   8.779
 3260SOL    HW210341   1.199   0.112   8.655
 3261SOL     OW10342   0.506   3.751   9.203
 3261SOL    HW110343   0.453   3.704   9.138
 3261SOL    HW210344   0.474   3.841   9.200
 3262SOL     OW10345   0.304   3.924   8.703
 3262SOL    HW110346   0.259   3.942   8.785
 3262SOL    HW210347   0.288   3.832   8.686
 3263SOL     OW10348   1.577   3.954   7.568
 3263SOL    HW110349   1.515   3.899   7.617
 3263SOL    HW210350   1.602   0.022   7.630
 3264SOL     OW10351   1.164   3.923   8.921
 3264SOL    HW110352   1.168   3.997   8.982
 3264SOL    HW210353   1.204   3.956   8.841
 3265SOL     OW10354   0.900   3.812   7.553
 3265SOL    HW110355   0.961   3.774   7.489
 3265SOL    HW210356   0.940   3.793   7.638
 3266SOL     OW10357   1.712   3.857   7.949
 3266SOL    HW110358   1.789   3.843   7.895
 3266SOL    HW210359   1.701   3.775   7.996
 3267SOL     OW10360   1.835   3.882   8.419
 3267SOL    HW110361   1.871   3.799   8.386
 3267SOL    HW210362   1.755   3.895   8.370
 3268SOL     OW10363   0.675   3.910   8.939
 3268SOL    HW110364   0.758   3.903   8.891
 3268SOL    HW210365   0.701   3.932   9.029
 3269SOL     OW10366   0.070   0.029   7.431
 3269SOL    HW110367   3.977   0.029   7.450
 3269SOL    HW210368   0.100   0.115   7.461
 3270SOL     OW10369   0.106   3.913   7.816
 3270SOL    HW110370   0.081   3.995   7.774
 3270SOL    HW210371   0.185   3.886   7.770
 3271SOL     OW10372   1.191   0.011   7.916
 3271SOL    HW110373   1.261   3.946   7.912
 3271SOL    HW210374   1.214   0.066   7.990
 3272SOL     OW10375   1.785   0.043   9.089
 3272SOL    HW110376   1.760   0.076   9.002
 3272SOL    HW210377   1.705   0.006   9.125
 3273SOL     OW10378   1.817   3.913   8.687
 3273SOL    HW110379   1.822   3.822   8.716
 3273SOL    HW210380   1.822   3.908   8.591
 3274SOL     OW10381   1.439   3.933   8.565
 3274SOL    HW110382   1.472   3.855   8.611
 3274SOL    HW210383   1.380   3.974   8.628
 3275SOL     OW10384   1.014   3.736   8.597
 3275SOL    HW110385   0.957   3.681   8.545
 3275SOL    HW210386   1.100   3.694   8.592
 3276SOL     OW10387   1.353   3.770   7.609
 3276SOL    HW110388   1.384   3.703   7.549
 3276SOL    HW210389   1.265   3.741   7.634
 3277SOL     OW10390   1.281   0.162   8.132
 3277SOL    HW110391   1.280   0.258   8.137
 3277SOL    HW210392   1.288   0.133   8.223
 3278SOL     OW10393   1.580   3.927   8.327
 3278SOL    HW110394   1.529   3.933   8.408
 3278SOL    HW210395   1.581   0.017   8.293
 3279SOL     OW10396   0.234   3.949  10.276
 3279SOL    HW110397   0.253   3.961  10.369
 3279SOL    HW210398   0.140   3.967  10.269
 3280SOL     OW10399   0.012   0.104   9.937
 3280SOL    HW110400   3.928   0.090   9.981
 3280SOL    HW210401   0.010   0.046   9.861
 3281SOL     OW10402   1.777   0.320   9.501
 3281SOL    HW110403   1.703   0.298   9.444
 3281SOL    HW210404   1.737   0.336   9.587
 3282SOL     OW10405   0.440   0.099  10.821
 3282SOL    HW110406   0.511   0.060  10.769
 3282SOL    HW210407   0.363   0.048  10.797
 3283SOL     OW10408   1.596   3.848  10.773
 3283SOL    HW110409   1.601   3.933  10.729
 3283SOL    HW210410   1.581   3.869  10.865
 3284SOL     OW10411   0.805   3.729   9.813
 3284SOL    HW110412   0.832   3.820   9.808
 3284SOL    HW210413   0.710   3.732   9.824
 3285SOL     OW10414   1.267   0.063  10.249
 3285SOL    HW110415   1.197   0.007  10.216
 3285SOL    HW210416   1.324   0.002  10.298
 3286SOL     OW10417   0.554   3.905  10.200
 3286SOL    HW110418   0.551   3.925  10.293
 3286SOL    HW210419   0.549   3.990  10.157
 3287SOL     OW10420   0.193   3.982  10.808
 3287SOL    HW110421   0.104   0.017  10.809
 3287SOL    HW210422   0.187   3.902  10.861
 3288SOL     OW10423   1.406   3.833   9.740
 3288SOL    HW110424   1.397   3.799   9.651
 3288SOL    HW210425   1.500   3.825   9.759
 3289SOL     OW10426   1.533   3.940  11.032
 3289SOL    HW110427   1.560   3.943  11.124
 3289SOL    HW210428   1.467   3.872  11.029
 3290SOL     OW10429   0.625   3.851   9.434
 3290SOL    HW110430   0.716   3.821   9.437
 3290SOL    HW210431   0.587   3.801   9.361
 3291SOL     OW10432   0.772   3.957  11.054
 3291SOL    HW110433   0.830   3.930  11.125
 3291SOL    HW210434   0.688   3.973  11.096
 3292SOL     OW10435   0.534   3.786   9.822
 3292SOL    HW110436   0.481   3.787   9.902
 3292SOL    HW210437   0.544   3.878   9.798
 3293SOL     OW10438   0.287   3.758   9.487
 3293SOL    HW110439   0.332   3.841   9.473
 3293SOL    HW210440   0.353   3.702   9.529
 3294SOL     OW10441   0.563   3.943  10.476
 3294SOL    HW110442   0.603   3.871  10.524
 3294SOL    HW210443   0.471   3.942  10.504
 3295SOL     OW10444   1.020   3.768  10.048
 3295SOL    HW110445   0.955   3.756   9.979
 3295SOL    HW210446   0.996   3.702  10.114
 3296SOL     OW10447   0.923   3.803  10.709
 3296SOL    HW110448   0.952   3.783  10.620
 3296SOL    HW210449   0.996   3.853  10.747
 3297SOL     OW10450   1.266   0.076  10.575
 3297SOL    HW110451   1.282   0.143  10.641
 3297SOL    HW210452   1.199   0.112  10.518
 3298SOL     OW10453   0.506   3.751  11.065
 3298SOL    HW110454   0.453   3.704  11.000
 3298SOL    HW210455   0.474   3.841  11.062
 3299SOL     OW10456   0.304   3.925  10.565
 3299SOL    HW110457   0.259   3.942  10.647
 3299SOL    HW210458   0.288   3.832  10.548
 3300SOL     OW10459   1.576   3.955   9.430
 3300SOL    HW110460   1.516   3.899   9.479
 3300SOL    HW210461   1.603   0.022   9.493
 3301SOL     OW10462   1.164   3.923  10.783
 3301SOL    HW110463   1.168   3.997  10.844
 3301SOL    HW210464   1.204   3.956  10.703
 3302SOL     OW10465   0.900   3.812   9.415
 3302SOL    HW110466   0.961   3.774   9.351
 3302SOL    HW210467   0.940   3.793   9.500
 3303SOL     OW10468   1.712   3.857   9.812
 3303SOL    HW110469   1.790   3.843   9.757
 3303SOL    HW210470   1.701   3.775   9.858
 3304SOL     OW10471   1.835   3.882  10.281
 3304SOL    HW110472   1.871   3.800  10.249
 3304SOL    HW210473   1.755   3.895  10.232
 3305SOL     OW10474   0.675   3.910  10.801
 3305SOL    HW110475   0.758   3.903  10.753
 3305SOL    HW210476   0.701   3.932  10.891
 3306SOL     OW10477   0.070   0.029   9.293
 3306SOL    HW110478   3.977   0.029   9.312
 3306SOL    HW210479   0.101   0.115   9.323
 3307SOL     OW10480   0.106   3.913   9.678
 3307SOL    HW110481   0.081   3.996   9.636
 3307SOL    HW210482   0.185   3.886   9.632
 3308SOL     OW10483   1.191   0.011   9.778
 3308SOL    HW110484   1.261   3.946   9.774
 3308SOL    HW210485   1.214   0.066   9.852
 3309SOL     OW10486   1.785   0.043  10.951
 3309SOL    HW110487   1.760   0.075  10.864
 3309SOL    HW210488   1.705   0.006  10.987
 3310SOL     OW10489   1.816   3.913  10.549
 3310SOL    HW110490   1.823   3.822  10.578
 3310SOL    HW210491   1.822   3.908  10.453
 3311SOL     OW10492   1.439   3.933  10.427
 3311SOL    HW110493   1.472   3.855  10.473
 3311SOL    HW210494   1.380   3.974  10.490
 3312SOL     OW10495   1.014   3.736  10.459
 3312SOL    HW110496   0.957   3.681  10.407
 3312SOL    HW210497   1.100   3.694  10.454
 3313SOL     OW10498   1.353   3.771   9.471
 3313SOL    HW110499   1.385   3.703   9.411
 3313SOL    HW210500   1.265   3.741   9.496
 3314SOL     OW10501   1.281   0.162   9.993
 3314SOL    HW110502   1.280   0.258   9.999
 3314SOL    HW210503   1.288   0.133  10.084
 3315SOL     OW10504   1.580   3.928  10.189
 3315SOL    HW110505   1.529   3.933  10.269
 3315SOL    HW210506   1.581   0.017  10.155
 3316SOL     OW10507   0.234   3.950  12.138
 3316SOL    HW110508   0.253   3.960  12.231
 3316SOL    HW210509   0.140   3.967  12.131
 3317SOL     OW10510   0.012   0.104  11.800
 3317SOL    HW110511   3.928   0.090  11.843
 3317SOL    HW210512   0.010   0.046  11.723
 3318SOL     OW10513   1.777   0.320  11.363
 3318SOL    HW110514   1.703   0.298  11.306
 3318SOL    HW210515   1.737   0.336  11.449
 3319SOL     OW10516   0.440   0.099  12.684
 3319SOL    HW110517   0.511   0.061  12.632
 3319SOL    HW210518   0.363   0.048  12.659
 3320SOL     OW10519   1.596   3.848  12.635
 3320SOL    HW110520   1.601   3.933  12.591
 3320SOL    HW210521   1.580   3.869  12.727
 3321SOL     OW10522   0.805   3.729  11.675
 3321SOL    HW110523   0.832   3.820  11.670
 3321SOL    HW210524   0.710   3.732  11.686
 3322SOL     OW10525   1.267   0.063  12.112
 3322SOL    HW110526   1.197   0.007  12.078
 3322SOL    HW210527   1.324   0.002  12.160
 3323SOL     OW10528   0.554   3.905  12.062
 3323SOL    HW110529   0.551   3.925  12.155
 3323SOL    HW210530   0.549   3.990  12.019
 3324SOL     OW10531   0.192   3.981  12.670
 3324SOL    HW110532   0.104   0.017  12.671
 3324SOL    HW210533   0.187   3.901  12.722
 3325SOL     OW10534   1.406   3.833  11.602
 3325SOL    HW110535   1.397   3.799  11.513
 3325SOL    HW210536   1.500   3.825  11.621
 3326SOL     OW10537   1.533   3.940  12.894
 3326SOL    HW110538   1.558   3.945  12.987
 3326SOL    HW210539   1.467   3.872  12.891
 3327SOL     OW10540   0.625   3.851  11.296
 3327SOL    HW110541   0.716   3.821  11.299
 3327SOL    HW210542   0.587   3.801  11.223
 3328SOL     OW10543   0.771   3.957  12.916
 3328SOL    HW110544   0.830   3.930  12.986
 3328SOL    HW210545   0.687   3.971  12.959
 3329SOL     OW10546   0.534   3.786  11.684
 3329SOL    HW110547   0.481   3.787  11.764
 3329SOL    HW210548   0.544   3.878  11.660
 3330SOL     OW10549   0.287   3.758  11.349
 3330SOL    HW110550   0.332   3.841  11.335
 3330SOL    HW210551   0.353   3.702  11.391
 3331SOL     OW10552   0.563   3.943  12.338
 3331SOL    HW110553   0.604   3.871  12.386
 3331SOL    HW210554   0.471   3.942  12.366
 3332SOL     OW10555   1.020   3.768  11.910
 3332SOL    HW110556   0.955   3.756  11.841
 3332SOL    HW210557   0.996   3.702  11.976
 3333SOL     OW10558   0.923   3.803  12.571
 3333SOL    HW110559   0.951   3.783  12.482
 3333SOL    HW210560   0.996   3.853  12.609
 3334SOL     OW10561   1.266   0.076  12.437
 3334SOL    HW110562   1.282   0.143  12.503
 3334SOL    HW210563   1.199   0.112  12.379
 3335SOL     OW10564   0.505   3.751  12.928
 3335SOL    HW110565   0.453   3.704  12.862
 3335SOL    HW210566   0.474   3.841  12.923
 3336SOL     OW10567   0.304   3.924  12.427
 3336SOL    HW110568   0.259   3.942  12.509
 3336SOL    HW210569   0.288   3.832  12.410
 3337SOL     OW10570   1.576   3.955  11.292
 3337SOL    HW110571   1.516   3.899  11.341
 3337SOL    HW210572   1.604   0.021  11.355
 3338SOL     OW10573   1.164   3.923  12.645
 3338SOL    HW110574   1.169   3.997  12.706
 3338SOL    HW210575   1.204   3.956  12.565
 3339SOL     OW10576   0.900   3.812  11.277
 3339SOL    HW110577   0.961   3.774  11.213
 3339SOL    HW210578   0.940   3.793  11.362
 3340SOL     OW10579   1.712   3.857  11.673
 3340SOL    HW110580   1.790   3.843  11.619
 3340SOL    HW210581   1.701   3.775  11.720
 3341SOL     OW10582   1.835   3.882  12.143
 3341SOL    HW110583   1.871   3.800  12.111
 3341SOL    HW210584   1.755   3.895  12.094
 3342SOL     OW10585   0.675   3.910  12.663
 3342SOL    HW110586   0.758   3.903  12.615
 3342SOL    HW210587   0.701   3.932  12.753
 3343SOL     OW10588   0.070   0.029  11.154
 3343SOL    HW110589   3.977   0.029  11.174
 3343SOL    HW210590   0.101   0.115  11.185
 3344SOL     OW10591   0.106   3.913  11.540
 3344SOL    HW110592   0.081   3.996  11.498
 3344SOL    HW210593   0.185   3.886  11.494
 3345SOL     OW10594   1.191   0.011  11.640
 3345SOL    HW110595   1.261   3.946  11.636
 3345SOL    HW210596   1.214   0.066  11.714
 3346SOL     OW10597   1.785   0.043  12.812
 3346SOL    HW110598   1.759   0.075  12.726
 3346SOL    HW210599   1.705   0.006  12.849
 3347SOL     OW10600   1.816   3.913  12.411
 3347SOL    HW110601   1.822   3.822  12.440
 3347SOL    HW210602   1.822   3.908  12.315
 3348SOL     OW10603   1.439   3.933  12.289
 3348SOL    HW110604   1.472   3.855  12.335
 3348SOL    HW210605   1.380   3.974  12.352
 3349SOL     OW10606   1.014   3.736  12.321
 3349SOL    HW110607   0.957   3.680  12.269
 3349SOL    HW210608   1.100   3.694  12.316
 3350SOL     OW10609   1.353   3.771  11.333
 3350SOL    HW110610   1.385   3.703  11.274
 3350SOL    HW210611   1.265   3.741  11.358
 3351SOL     OW10612   1.281   0.162  11.855
 3351SOL    HW110613   1.280   0.258  11.861
 3351SOL    HW210614   1.288   0.133  11.946
 3352SOL     OW10615   1.580   3.928  12.051
 3352SOL    HW110616   1.529   3.933  12.131
 3352SOL    HW210617   1.581   0.017  12.017
 3353SOL     OW10618   0.010   0.101  13.649
 3353SOL    HW110619   3.916   0.092  13.660
 3353SOL    HW210620   0.030   0.047  13.573
 3354SOL     OW10621   1.777   0.321  13.225
 3354SOL    HW110622   1.701   0.303  13.170
 3354SOL    HW210623   1.742   0.322  13.314
 3355SOL     OW10624   1.613   0.172  13.766
 3355SOL    HW110625   1.525   0.151  13.734
 3355SOL    HW210626   1.605   0.261  13.800
 3356SOL     OW10627   0.808   3.729  13.538
 3356SOL    HW110628   0.832   3.822  13.532
 3356SOL    HW210629   0.713   3.730  13.549
 3357SOL     OW10630   1.405   3.834  13.461
 3357SOL    HW110631   1.399   3.799  13.372
 3357SOL    HW210632   1.498   3.829  13.483
 3358SOL     OW10633   0.624   3.851  13.157
 3358SOL    HW110634   0.715   3.821  13.163
 3358SOL    HW210635   0.587   3.801  13.084
 3359SOL     OW10636   0.535   3.781  13.545
 3359SOL    HW110637   0.482   3.772  13.624
 3359SOL    HW210638   0.540   3.876  13.531
 3360SOL     OW10639   0.288   3.759  13.213
 3360SOL    HW110640   0.342   3.835  13.189
 3360SOL    HW210641   0.349   3.699  13.256
 3361SOL     OW10642   1.011   3.764  13.774
 3361SOL    HW110643   0.955   3.758  13.697
 3361SOL    HW210644   0.992   3.684  13.824
 3362SOL     OW10645   1.573   3.960  13.155
 3362SOL    HW110646   1.522   3.897  13.206
 3362SOL    HW210647   1.620   0.011  13.221
 3363SOL     OW10648   0.900   3.812  13.140
 3363SOL    HW110649   0.960   3.774  13.075
 3363SOL    HW210650   0.940   3.791  13.224
 3364SOL     OW10651   1.728   3.859  13.557
 3364SOL    HW110652   1.795   3.846  13.490
 3364SOL    HW210653   1.710   3.771  13.590
 3365SOL     OW10654   1.847   3.892   0.057
 3365SOL    HW110655   1.869   3.799   0.053
 3365SOL    HW210656   1.755   3.894   0.084
 3366SOL     OW10657   0.072   0.028  13.019
 3366SOL    HW110658   3.978   0.027  13.037
 3366SOL    HW210659   0.101   0.114  13.049
 3367SOL     OW10660   0.114   3.920  13.406
 3367SOL    HW110661   0.086   3.994  13.352
 3367SOL    HW210662   0.186   3.881  13.358
 3368SOL     OW10663   1.185   0.003  13.516
 3368SOL    HW110664   1.259   3.945  13.496
 3368SOL    HW210665   1.219   0.062  13.583
 3369SOL     OW10666   1.353   3.770  13.194
 3369SOL    HW110667   1.384   3.702  13.135
 3369SOL    HW210668   1.266   3.741  13.220
 3370SOL     OW10669   1.308   0.157  13.735
 3370SOL    HW110670   1.275   0.245  13.715
 3370SOL    HW210671   1.293   0.147  13.829
 3371SOL     OW10672   2.097   0.644   0.117
 3371SOL    HW110673   2.011   0.614   0.147
 3371SOL    HW210674   2.113   0.595   0.036
 3372SOL     OW10675   2.078   0.300   0.992
 3372SOL    HW110676   2.116   0.257   1.068
 3372SOL    HW210677   1.994   0.256   0.978
 3373SOL     OW10678   1.872   0.398   0.634
 3373SOL    HW110679   1.784   0.411   0.670
 3373SOL    HW210680   1.862   0.325   0.573
 3374SOL     OW10681   2.430   1.289   1.176
 3374SOL    HW110682   2.342   1.292   1.137
 3374SOL    HW210683   2.446   1.378   1.208
 3375SOL     OW10684   3.424   1.512   0.707
 3375SOL    HW110685   3.380   1.491   0.789
 3375SOL    HW210686   3.354   1.515   0.642
 3376SOL     OW10687   2.994   0.698   0.699
 3376SOL    HW110688   3.042   0.780   0.686
 3376SOL    HW210689   2.947   0.711   0.781
 3377SOL     OW10690   3.613   0.630   0.225
 3377SOL    HW110691   3.624   0.618   0.131
 3377SOL    HW210692   3.625   0.543   0.262
 3378SOL     OW10693   2.616   1.141   1.042
 3378SOL    HW110694   2.548   1.176   1.099
 3378SOL    HW210695   2.652   1.218   0.998
 3379SOL     OW10696   2.731   0.772   1.823
 3379SOL    HW110697   2.717   0.843   1.886
 3379SOL    HW210698   2.754   0.816   1.741
 3380SOL     OW10699   2.547   1.001   0.647
 3380SOL    HW110700   2.613   0.990   0.716
 3380SOL    HW210701   2.479   1.054   0.687
 3381SOL     OW10702   2.573   1.150   1.813
 3381SOL    HW110703   2.621   1.228   1.842
 3381SOL    HW210704   2.491   1.183   1.778
 3382SOL     OW10705   2.193   1.420   1.069
 3382SOL    HW110706   2.118   1.386   1.021
 3382SOL    HW210707   2.242   1.471   1.004
 3383SOL     OW10708   3.322   1.501   1.356
 3383SOL    HW110709   3.374   1.580   1.365
 3383SOL    HW210710   3.259   1.505   1.428
 3384SOL     OW10711   2.306   0.395   1.494
 3384SOL    HW110712   2.395   0.361   1.492
 3384SOL    HW210713   2.251   0.317   1.502
 3385SOL     OW10714   3.472   0.450   0.736
 3385SOL    HW110715   3.404   0.486   0.679
 3385SOL    HW210716   3.499   0.523   0.791
 3386SOL     OW10717   2.107   1.699   0.476
 3386SOL    HW110718   2.142   1.769   0.532
 3386SOL    HW210719   2.171   1.692   0.405
 3387SOL     OW10720   2.998   1.342   1.693
 3387SOL    HW110721   3.040   1.337   1.780
 3387SOL    HW210722   2.946   1.262   1.687
 3388SOL     OW10723   2.079   1.435   0.533
 3388SOL    HW110724   2.079   1.531   0.530
 3388SOL    HW210725   2.022   1.412   0.606
 3389SOL     OW10726   2.121   1.090   0.890
 3389SOL    HW110727   2.118   1.003   0.930
 3389SOL    HW210728   2.064   1.144   0.945
 3390SOL     OW10729   2.472   1.792   1.428
 3390SOL    HW110730   2.391   1.774   1.476
 3390SOL    HW210731   2.497   1.880   1.456
 3391SOL     OW10732   2.429   0.980   0.160
 3391SOL    HW110733   2.457   1.026   0.081
 3391SOL    HW210734   2.482   1.019   0.230
 3392SOL     OW10735   3.443   0.139   1.457
 3392SOL    HW110736   3.468   0.212   1.400
 3392SOL    HW210737   3.410   0.181   1.536
 3393SOL     OW10738   1.978   0.655   0.559
 3393SOL    HW110739   1.951   0.566   0.582
 3393SOL    HW210740   1.970   0.705   0.640
 3394SOL     OW10741   3.707   1.759   0.333
 3394SOL    HW110742   3.768   1.724   0.398
 3394SOL    HW210743   3.729   1.852   0.328
 3395SOL     OW10744   1.896   1.594   0.106
 3395SOL    HW110745   1.897   1.500   0.125
 3395SOL    HW210746   1.868   1.635   0.188
 3396SOL     OW10747   3.548   0.917   0.646
 3396SOL    HW110748   3.633   0.875   0.630
 3396SOL    HW210749   3.531   0.967   0.567
 3397SOL     OW10750   3.505   1.104   0.433
 3397SOL    HW110751   3.591   1.112   0.391
 3397SOL    HW210752   3.508   1.168   0.505
 3398SOL     OW10753   1.985   0.749   1.581
 3398SOL    HW110754   2.076   0.778   1.587
 3398SOL    HW210755   1.933   0.829   1.589
 3399SOL     OW10756   2.477   1.386   0.734
 3399SOL    HW110757   2.431   1.302   0.743
 3399SOL    HW210758   2.460   1.413   0.644
 3400SOL     OW10759   3.150   1.238   1.423
 3400SOL    HW110760   3.182   1.171   1.363
 3400SOL    HW210761   3.208   1.232   1.499
 3401SOL     OW10762   2.683   0.003   0.519
 3401SOL    HW110763   2.727   0.083   0.493
 3401SOL    HW210764   2.590   0.025   0.519
 3402SOL     OW10765   2.052   0.964   1.273
 3402SOL    HW110766   2.137   0.923   1.258
 3402SOL    HW210767   1.990   0.912   1.222
 3403SOL     OW10768   3.392   0.995   0.205
 3403SOL    HW110769   3.324   0.937   0.238
 3403SOL    HW210770   3.431   1.033   0.283
 3404SOL     OW10771   3.046   1.807   1.622
 3404SOL    HW110772   3.057   1.866   1.548
 3404SOL    HW210773   3.064   1.720   1.587
 3405SOL     OW10774   2.217   0.254   1.832
 3405SOL    HW110775   2.261   0.339   1.831
 3405SOL    HW210776   2.124   0.275   1.839
 3406SOL     OW10777   3.328   1.420   0.950
 3406SOL    HW110778   3.260   1.435   1.017
 3406SOL    HW210779   3.316   1.329   0.924
 3407SOL     OW10780   3.522   1.742   0.584
 3407SOL    HW110781   3.500   1.718   0.494
 3407SOL    HW210782   3.499   1.665   0.635
 3408SOL     OW10783   2.458   0.719   0.264
 3408SOL    HW110784   2.461   0.801   0.216
 3408SOL    HW210785   2.398   0.735   0.337
 3409SOL     OW10786   3.137   0.367   0.940
 3409SOL    HW110787   3.050   0.328   0.947
 3409SOL    HW210788   3.195   0.305   0.986
 3410SOL     OW10789   3.426   1.730   0.314
 3410SOL    HW110790   3.522   1.731   0.310
 3410SOL    HW210791   3.399   1.693   0.229
 3411SOL     OW10792   2.658   0.616   1.452
 3411SOL    HW110793   2.629   0.591   1.540
 3411SOL    HW210794   2.618   0.551   1.395
 3412SOL     OW10795   3.254   0.476   1.677
 3412SOL    HW110796   3.259   0.521   1.762
 3412SOL    HW210797   3.312   0.401   1.687
 3413SOL     OW10798   2.815   0.888   1.583
 3413SOL    HW110799   2.870   0.818   1.547
 3413SOL    HW210800   2.767   0.922   1.508
 3414SOL     OW10801   2.854   0.403   1.239
 3414SOL    HW110802   2.770   0.425   1.279
 3414SOL    HW210803   2.831   0.373   1.151
 3415SOL     OW10804   2.913   0.702   0.428
 3415SOL    HW110805   2.930   0.693   0.522
 3415SOL    HW210806   2.831   0.656   0.414
 3416SOL     OW10807   1.950   0.823   0.775
 3416SOL    HW110808   2.030   0.814   0.827
 3416SOL    HW210809   1.907   0.900   0.811
 3417SOL     OW10810   2.736   0.360   0.220
 3417SOL    HW110811   2.773   0.418   0.153
 3417SOL    HW210812   2.740   0.273   0.181
 3418SOL     OW10813   3.571   0.574   1.829
 3418SOL    HW110814   3.533   0.649   1.782
 3418SOL    HW210815   3.596   0.513   1.760
 3419SOL     OW10816   3.238   1.141   0.542
 3419SOL    HW110817   3.317   1.129   0.490
 3419SOL    HW210818   3.186   1.205   0.493
 3420SOL     OW10819   2.419   0.198   0.882
 3420SOL    HW110820   2.422   0.217   0.975
 3420SOL    HW210821   2.416   0.284   0.840
 3421SOL     OW10822   2.867   1.441   0.475
 3421SOL    HW110823   2.834   1.515   0.424
 3421SOL    HW210824   2.846   1.464   0.566
 3422SOL     OW10825   2.217   1.795   0.864
 3422SOL    HW110826   2.254   1.707   0.875
 3422SOL    HW210827   2.287   1.854   0.894
 3423SOL     OW10828   3.666   1.062   0.867
 3423SOL    HW110829   3.612   1.038   0.792
 3423SOL    HW210830   3.605   1.065   0.941
 3424SOL     OW10831   3.089   1.539   1.514
 3424SOL    HW110832   3.076   1.467   1.575
 3424SOL    HW210833   3.026   1.523   1.443
 3425SOL     OW10834   2.173   0.939   0.230
 3425SOL    HW110835   2.265   0.951   0.206
 3425SOL    HW210836   2.159   0.844   0.225
 3426SOL     OW10837   3.339   0.746   0.731
 3426SOL    HW110838   3.334   0.703   0.816
 3426SOL    HW210839   3.417   0.801   0.736
 3427SOL     OW10840   2.329   1.264   1.738
 3427SOL    HW110841   2.303   1.268   1.647
 3427SOL    HW210842   2.247   1.261   1.787
 3428SOL     OW10843   2.983   1.781   0.230
 3428SOL    HW110844   2.922   1.733   0.286
 3428SOL    HW210845   3.014   1.716   0.167
 3429SOL     OW10846   2.034   0.275   1.499
 3429SOL    HW110847   1.975   0.351   1.491
 3429SOL    HW210848   2.041   0.260   1.593
 3430SOL     OW10849   3.494   1.373   0.086
 3430SOL    HW110850   3.461   1.458   0.057
 3430SOL    HW210851   3.425   1.311   0.065
 3431SOL     OW10852   2.338   1.722   0.329
 3431SOL    HW110853   2.377   1.792   0.381
 3431SOL    HW210854   2.403   1.706   0.260
 3432SOL     OW10855   3.298   0.142   0.393
 3432SOL    HW110856   3.256   0.056   0.389
 3432SOL    HW210857   3.380   0.126   0.439
 3433SOL     OW10858   2.153   1.763   1.222
 3433SOL    HW110859   2.193   1.682   1.253
 3433SOL    HW210860   2.116   1.741   1.137
 3434SOL     OW10861   2.799   1.698   0.899
 3434SOL    HW110862   2.878   1.649   0.920
 3434SOL    HW210863   2.757   1.648   0.829
 3435SOL     OW10864   2.255   0.696   0.472
 3435SOL    HW110865   2.276   0.604   0.485
 3435SOL    HW210866   2.162   0.702   0.495
 3436SOL     OW10867   3.392   0.230   1.727
 3436SOL    HW110868   3.387   0.256   1.819
 3436SOL    HW210869   3.370   0.137   1.726
 3437SOL     OW10870   2.483   0.102   0.119
 3437SOL    HW110871   2.578   0.102   0.126
 3437SOL    HW210872   2.466   0.131   0.029
 3438SOL     OW10873   2.638   0.281   1.767
 3438SOL    HW110874   2.707   0.215   1.771
 3438SOL    HW210875   2.579   0.259   1.838
 3439SOL     OW10876   2.738   1.522   1.194
 3439SOL    HW110877   2.723   1.486   1.107
 3439SOL    HW210878   2.808   1.468   1.230
 3440SOL     OW10879   3.203   0.587   1.430
 3440SOL    HW110880   3.233   0.559   1.517
 3440SOL    HW210881   3.237   0.676   1.421
 3441SOL     OW10882   2.678   1.394   0.941
 3441SOL    HW110883   2.763   1.382   0.898
 3441SOL    HW210884   2.615   1.396   0.869
 3442SOL     OW10885   2.791   0.511   0.901
 3442SOL    HW110886   2.767   0.503   0.809
 3442SOL    HW210887   2.818   0.423   0.926
 3443SOL     OW10888   2.411   0.053   0.499
 3443SOL    HW110889   2.335   0.059   0.557
 3443SOL    HW210890   2.404   0.130   0.442
 3444SOL     OW10891   3.291   1.204   0.044
 3444SOL    HW110892   3.311   1.124   0.093
 3444SOL    HW210893   3.200   1.223   0.065
 3445SOL     OW10894   2.197   0.007   0.183
 3445SOL    HW110895   2.176   0.089   0.138
 3445SOL    HW210896   2.280   0.025   0.228
 3446SOL     OW10897   2.803   0.249   0.465
 3446SOL    HW110898   2.772   0.288   0.384
 3446SOL    HW210899   2.898   0.250   0.458
 3447SOL     OW10900   2.942   0.683   1.459
 3447SOL    HW110901   2.871   0.618   1.466
 3447SOL    HW210902   3.022   0.630   1.454
 3448SOL     OW10903   3.083   1.571   0.795
 3448SOL    HW110904   3.100   1.637   0.727
 3448SOL    HW210905   3.154   1.584   0.859
 3449SOL     OW10906   2.331   1.150   0.731
 3449SOL    HW110907   2.263   1.130   0.795
 3449SOL    HW210908   2.289   1.137   0.646
 3450SOL     OW10909   3.130   1.795   0.608
 3450SOL    HW110910   3.178   1.856   0.553
 3450SOL    HW210911   3.063   1.848   0.651
 3451SOL     OW10912   2.862   0.534   0.055
 3451SOL    HW110913   2.863   0.536  13.859
 3451SOL    HW210914   2.952   0.553   0.080
 3452SOL     OW10915   1.942   0.551   1.395
 3452SOL    HW110916   2.033   0.552   1.366
 3452SOL    HW210917   1.936   0.624   1.457
 3453SOL     OW10918   2.426   0.232   1.161
 3453SOL    HW110919   2.451   0.140   1.171
 3453SOL    HW210920   2.336   0.236   1.193
 3454SOL     OW10921   2.732   0.462   0.638
 3454SOL    HW110922   2.686   0.515   0.574
 3454SOL    HW210923   2.752   0.380   0.592
 3455SOL     OW10924   2.858   0.041   0.779
 3455SOL    HW110925   2.819   0.067   0.695
 3455SOL    HW210926   2.868   3.946   0.771
 3456SOL     OW10927   3.300   1.162   0.857
 3456SOL    HW110928   3.230   1.097   0.855
 3456SOL    HW210929   3.325   1.173   0.766
 3457SOL     OW10930   3.326   0.607   0.976
 3457SOL    HW110931   3.274   0.526   0.981
 3457SOL    HW210932   3.387   0.600   1.050
 3458SOL     OW10933   3.724   0.824   0.374
 3458SOL    HW110934   3.763   0.766   0.440
 3458SOL    HW210935   3.678   0.765   0.315
 3459SOL     OW10936   2.348   1.407   0.155
 3459SOL    HW110937   2.274   1.375   0.207
 3459SOL    HW210938   2.330   1.376   0.066
 3460SOL     OW10939   3.528   1.264   0.647
 3460SOL    HW110940   3.624   1.268   0.655
 3460SOL    HW210941   3.499   1.354   0.662
 3461SOL     OW10942   3.282   0.590   0.087
 3461SOL    HW110943   3.212   0.577   0.152
 3461SOL    HW210944   3.334   0.510   0.091
 3462SOL     OW10945   2.379   0.254   0.322
 3462SOL    HW110946   2.422   0.208   0.250
 3462SOL    HW210947   2.360   0.341   0.287
 3463SOL     OW10948   3.614   1.234   1.568
 3463SOL    HW110949   3.701   1.199   1.551
 3463SOL    HW210950   3.630   1.324   1.599
 3464SOL     OW10951   2.920   1.354   1.334
 3464SOL    HW110952   2.845   1.322   1.384
 3464SOL    HW210953   2.995   1.312   1.374
 3465SOL     OW10954   3.467   1.628   1.655
 3465SOL    HW110955   3.460   1.662   1.566
 3465SOL    HW210956   3.548   1.577   1.655
 3466SOL     OW10957   2.992   1.205   1.105
 3466SOL    HW110958   2.932   1.243   1.169
 3466SOL    HW210959   2.960   1.238   1.020
 3467SOL     OW10960   3.491   1.097   1.076
 3467SOL    HW110961   3.483   1.158   1.148
 3467SOL    HW210962   3.414   1.113   1.022
 3468SOL     OW10963   2.775   0.114   1.401
 3468SOL    HW110964   2.794   0.088   1.312
 3468SOL    HW210965   2.855   0.156   1.432
 3469SOL     OW10966   2.846   1.115   1.723
 3469SOL    HW110967   2.754   1.131   1.745
 3469SOL    HW210968   2.844   1.037   1.668
 3470SOL     OW10969   2.577   1.059   0.377
 3470SOL    HW110970   2.562   1.041   0.470
 3470SOL    HW210971   2.651   1.003   0.353
 3471SOL     OW10972   2.282   0.815   1.251
 3471SOL    HW110973   2.350   0.824   1.318
 3471SOL    HW210974   2.247   0.727   1.264
 3472SOL     OW10975   3.128   0.375   1.276
 3472SOL    HW110976   3.163   0.453   1.320
 3472SOL    HW210977   3.041   0.401   1.246
 3473SOL     OW10978   1.933   1.578   1.353
 3473SOL    HW110979   1.898   1.642   1.291
 3473SOL    HW210980   2.028   1.581   1.339
 3474SOL     OW10981   2.208   1.113   0.488
 3474SOL    HW110982   2.208   1.185   0.425
 3474SOL    HW210983   2.215   1.034   0.434
 3475SOL     OW10984   2.417   0.533   0.858
 3475SOL    HW110985   2.431   0.592   0.784
 3475SOL    HW210986   2.481   0.561   0.923
 3476SOL     OW10987   3.110   1.346   0.397
 3476SOL    HW110988   3.166   1.419   0.423
 3476SOL    HW210989   3.024   1.370   0.430
 3477SOL     OW10990   3.144   1.459   1.148
 3477SOL    HW110991   3.201   1.462   1.225
 3477SOL    HW210992   3.090   1.381   1.161
 3478SOL     OW10993   3.440   0.633   0.490
 3478SOL    HW110994   3.397   0.694   0.550
 3478SOL    HW210995   3.476   0.688   0.421
 3479SOL     OW10996   2.215   1.514   1.317
 3479SOL    HW110997   2.200   1.472   1.233
 3479SOL    HW210998   2.310   1.526   1.322
 3480SOL     OW10999   2.278   0.744   1.602
 3480SOL    HW111000   2.339   0.789   1.543
 3480SOL    HW211001   2.319   0.660   1.618
 3481SOL     OW11002   3.465   0.778   1.682
 3481SOL    HW111003   3.379   0.820   1.676
 3481SOL    HW211004   3.517   0.820   1.614
 3482SOL     OW11005   2.880   0.127   1.779
 3482SOL    HW111006   2.923   0.203   1.740
 3482SOL    HW211007   2.862   0.069   1.706
 3483SOL     OW11008   2.349   0.034   1.762
 3483SOL    HW111009   2.353   0.044   1.667
 3483SOL    HW211010   2.290   0.104   1.792
 3484SOL     OW11011   2.445   0.874   1.031
 3484SOL    HW111012   2.475   0.964   1.032
 3484SOL    HW211013   2.389   0.866   1.108
 3485SOL     OW11014   3.217   0.859   1.028
 3485SOL    HW111015   3.134   0.848   0.983
 3485SOL    HW211016   3.260   0.773   1.021
 3486SOL     OW11017   3.079   0.548   0.268
 3486SOL    HW111018   3.085   0.468   0.321
 3486SOL    HW211019   3.023   0.606   0.320
 3487SOL     OW11020   2.163   0.210   1.243
 3487SOL    HW111021   2.122   0.239   1.324
 3487SOL    HW211022   2.151   0.115   1.242
 3488SOL     OW11023   1.907   1.313   1.278
 3488SOL    HW111024   1.941   1.258   1.348
 3488SOL    HW211025   1.915   1.402   1.312
 3489SOL     OW11026   2.586   0.633   1.054
 3489SOL    HW111027   2.661   0.618   0.996
 3489SOL    HW211028   2.556   0.721   1.033
 3490SOL     OW11029   3.594   0.957   1.860
 3490SOL    HW111030   3.550   0.898   1.799
 3490SOL    HW211031   3.531   0.971   1.930
 3491SOL     OW11032   2.184   0.057   0.648
 3491SOL    HW111033   2.163   0.150   0.661
 3491SOL    HW211034   2.143   0.013   0.724
 3492SOL     OW11035   3.439   0.388   0.390
 3492SOL    HW111036   3.423   0.325   0.460
 3492SOL    HW211037   3.432   0.474   0.431
 3493SOL     OW11038   2.891   0.759   0.959
 3493SOL    HW111039   2.885   0.776   1.053
 3493SOL    HW211040   2.863   0.668   0.950
 3494SOL     OW11041   2.844   1.567   1.718
 3494SOL    HW111042   2.829   1.610   1.634
 3494SOL    HW211043   2.887   1.484   1.695
 3495SOL     OW11044   3.706   1.501   1.599
 3495SOL    HW111045   3.729   1.529   1.511
 3495SOL    HW211046   3.787   1.513   1.650
 3496SOL     OW11047   2.215   0.915   1.809
 3496SOL    HW111048   2.296   0.935   1.855
 3496SOL    HW211049   2.240   0.853   1.740
 3497SOL     OW11050   3.392   0.270   0.144
 3497SOL    HW111051   3.327   0.200   0.149
 3497SOL    HW211052   3.396   0.304   0.234
 3498SOL     OW11053   3.152   0.832   0.055
 3498SOL    HW111054   3.199   0.748   0.061
 3498SOL    HW211055   3.170   0.864  13.867
 3499SOL     OW11056   2.928   1.336   0.854
 3499SOL    HW111057   2.932   1.264   0.791
 3499SOL    HW211058   2.989   1.401   0.820
 3500SOL     OW11059   2.170   0.809   0.946
 3500SOL    HW111060   2.263   0.830   0.941
 3500SOL    HW211061   2.168   0.719   0.978
 3501SOL     OW11062   2.198   0.535   1.013
 3501SOL    HW111063   2.157   0.450   0.998
 3501SOL    HW211064   2.274   0.536   0.955
 3502SOL     OW11065   2.995   0.382   1.695
 3502SOL    HW111066   2.946   0.436   1.757
 3502SOL    HW211067   3.082   0.421   1.690
 3503SOL     OW11068   3.013   0.225   1.481
 3503SOL    HW111069   3.004   0.280   1.559
 3503SOL    HW211070   3.037   0.287   1.412
 3504SOL     OW11071   1.883   1.309   0.176
 3504SOL    HW111072   1.799   1.321   0.130
 3504SOL    HW211073   1.875   1.223   0.218
 3505SOL     OW11074   1.974   1.716   0.974
 3505SOL    HW111075   1.934   1.659   0.907
 3505SOL    HW211076   2.042   1.764   0.927
 3506SOL     OW11077   2.363   1.567   0.910
 3506SOL    HW111078   2.430   1.631   0.932
 3506SOL    HW211079   2.406   1.506   0.850
 3507SOL     OW11080   2.843   0.789   1.225
 3507SOL    HW111081   2.899   0.769   1.300
 3507SOL    HW211082   2.757   0.754   1.248
 3508SOL     OW11083   1.895   0.547   1.117
 3508SOL    HW111084   1.970   0.520   1.064
 3508SOL    HW211085   1.928   0.547   1.206
 3509SOL     OW11086   2.065   0.526   1.713
 3509SOL    HW111087   2.134   0.505   1.651
 3509SOL    HW211088   2.020   0.601   1.674
 3510SOL     OW11089   3.241   0.937   1.658
 3510SOL    HW111090   3.262   1.031   1.656
 3510SOL    HW211091   3.237   0.912   1.566
 3511SOL     OW11092   2.677   0.580   0.372
 3511SOL    HW111093   2.688   0.502   0.317
 3511SOL    HW211094   2.604   0.627   0.333
 3512SOL     OW11095   3.502   0.602   1.184
 3512SOL    HW111096   3.491   0.541   1.258
 3512SOL    HW211097   3.588   0.581   1.148
 3513SOL     OW11098   2.115   1.539   1.708
 3513SOL    HW111099   2.095   1.609   1.770
 3513SOL    HW211100   2.117   1.459   1.760
 3514SOL     OW11101   2.567   0.454   1.258
 3514SOL    HW111102   2.517   0.377   1.232
 3514SOL    HW211103   2.559   0.514   1.183
 3515SOL     OW11104   2.786   1.679   1.469
 3515SOL    HW111105   2.764   1.643   1.383
 3515SOL    HW211106   2.783   1.774   1.456
 3516SOL     OW11107   2.300   0.494   0.231
 3516SOL    HW111108   2.372   0.556   0.243
 3516SOL    HW211109   2.230   0.546   0.191
 3517SOL     OW11110   2.006   1.141   1.472
 3517SOL    HW111111   2.008   1.090   1.554
 3517SOL    HW211112   2.023   1.076   1.404
 3518SOL     OW11113   3.185   1.046   1.223
 3518SOL    HW111114   3.209   0.983   1.155
 3518SOL    HW211115   3.117   1.099   1.183
 3519SOL     OW11116   3.175   0.857   0.326
 3519SOL    HW111117   3.100   0.825   0.376
 3519SOL    HW211118   3.151   0.844   0.235
 3520SOL     OW11119   3.641   1.743   1.156
 3520SOL    HW111120   3.696   1.770   1.082
 3520SOL    HW211121   3.612   1.654   1.132
 3521SOL     OW11122   3.103   1.734   1.112
 3521SOL    HW111123   3.185   1.755   1.067
 3521SOL    HW211124   3.110   1.640   1.130
 3522SOL     OW11125   1.949   1.263   1.015
 3522SOL    HW111126   1.932   1.279   1.108
 3522SOL    HW211127   1.874   1.212   0.985
 3523SOL     OW11128   2.542   1.664   1.729
 3523SOL    HW111129   2.492   1.746   1.728
 3523SOL    HW211130   2.610   1.676   1.662
 3524SOL     OW11131   2.759   0.103   0.135
 3524SOL    HW111132   2.799   0.090   0.049
 3524SOL    HW211133   2.770   0.019   0.179
 3525SOL     OW11134   3.556   0.125   0.484
 3525SOL    HW111135   3.637   0.135   0.435
 3525SOL    HW211136   3.554   0.032   0.507
 3526SOL     OW11137   3.251   1.571   0.484
 3526SOL    HW111138   3.314   1.605   0.421
 3526SOL    HW211139   3.205   1.649   0.516
 3527SOL     OW11140   2.029   1.742   1.860
 3527SOL    HW111141   1.966   1.690   1.909
 3527SOL    HW211142   2.010   1.832   1.885
 3528SOL     OW11143   3.138   0.926   0.671
 3528SOL    HW111144   3.212   0.867   0.681
 3528SOL    HW211145   3.172   0.999   0.618
 3529SOL     OW11146   2.674   1.273   1.428
 3529SOL    HW111147   2.646   1.313   1.511
 3529SOL    HW211148   2.604   1.294   1.366
 3530SOL     OW11149   2.546   1.586   0.180
 3530SOL    HW111150   2.529   1.628   0.095
 3530SOL    HW211151   2.488   1.510   0.181
 3531SOL     OW11152   3.484   1.727   1.391
 3531SOL    HW111153   3.538   1.732   1.312
 3531SOL    HW211154   3.471   1.818   1.417
 3532SOL     OW11155   3.703   0.181   0.970
 3532SOL    HW111156   3.728   0.098   0.931
 3532SOL    HW211157   3.616   0.199   0.933
 3533SOL     OW11158   2.126   0.317   0.717
 3533SOL    HW111159   2.039   0.352   0.695
 3533SOL    HW211160   2.124   0.306   0.812
 3534SOL     OW11161   3.080   1.601   0.034
 3534SOL    HW111162   3.069   1.510   0.061
 3534SOL    HW211163   3.043   1.605  13.846
 3535SOL     OW11164   2.686   1.006   1.372
 3535SOL    HW111165   2.729   1.002   1.287
 3535SOL    HW211166   2.685   1.099   1.395
 3536SOL     OW11167   2.782   0.910   0.287
 3536SOL    HW111168   2.853   0.950   0.236
 3536SOL    HW211169   2.825   0.840   0.336
 3537SOL     OW11170   3.349   1.640   0.068
 3537SOL    HW111171   3.255   1.624   0.055
 3537SOL    HW211172   3.386   1.637  13.879
 3538SOL     OW11173   2.232   1.297   1.493
 3538SOL    HW111174   2.220   1.376   1.439
 3538SOL    HW211175   2.154   1.245   1.477
 3539SOL     OW11176   3.464   1.280   1.278
 3539SOL    HW111177   3.532   1.273   1.345
 3539SOL    HW211178   3.407   1.350   1.309
 3540SOL     OW11179   2.915   1.108   0.707
 3540SOL    HW111180   2.845   1.056   0.746
 3540SOL    HW211181   2.979   1.043   0.678
 3541SOL     OW11182   2.876   0.248   0.968
 3541SOL    HW111183   2.866   0.198   0.888
 3541SOL    HW211184   2.871   0.183   1.038
 3542SOL     OW11185   2.466   1.489   0.481
 3542SOL    HW111186   2.510   1.438   0.413
 3542SOL    HW211187   2.403   1.544   0.434
 3543SOL     OW11188   3.582   0.393   1.372
 3543SOL    HW111189   3.654   0.456   1.372
 3543SOL    HW211190   3.614   0.321   1.318
 3544SOL     OW11191   2.131   1.323   0.296
 3544SOL    HW111192   2.047   1.333   0.252
 3544SOL    HW211193   2.119   1.368   0.380
 3545SOL     OW11194   1.975   1.024   1.720
 3545SOL    HW111195   1.899   1.000   1.773
 3545SOL    HW211196   2.049   0.985   1.766
 3546SOL     OW11197   2.554   0.251   1.500
 3546SOL    HW111198   2.622   0.197   1.459
 3546SOL    HW211199   2.581   0.258   1.591
 3547SOL     OW11200   1.901   0.439   0.009
 3547SOL    HW111201   1.874   0.348   0.021
 3547SOL    HW211202   1.904   0.451  13.814
 3548SOL     OW11203   3.289   0.857   1.399
 3548SOL    HW111204   3.239   0.919   1.345
 3548SOL    HW211205   3.377   0.859   1.363
 3549SOL     OW11206   1.943   0.148   0.368
 3549SOL    HW111207   1.912   0.228   0.325
 3549SOL    HW211208   2.025   0.126   0.324
 3550SOL     OW11209   3.048   1.346   0.122
 3550SOL    HW111210   2.954   1.333   0.111
 3550SOL    HW211211   3.063   1.334   0.215
 3551SOL     OW11212   2.482   0.829   1.434
 3551SOL    HW111213   2.539   0.905   1.419
 3551SOL    HW211214   2.543   0.756   1.442
 3552SOL     OW11215   3.344   1.780   0.980
 3552SOL    HW111216   3.368   1.839   0.908
 3552SOL    HW211217   3.428   1.754   1.018
 3553SOL     OW11218   2.580   0.562   1.705
 3553SOL    HW111219   2.621   0.625   1.764
 3553SOL    HW211220   2.607   0.476   1.738
 3554SOL     OW11221   3.334   1.199   1.631
 3554SOL    HW111222   3.323   1.213   1.725
 3554SOL    HW211223   3.427   1.214   1.616
 3555SOL     OW11224   2.238   1.745   1.569
 3555SOL    HW111225   2.163   1.766   1.513
 3555SOL    HW211226   2.216   1.662   1.609
 3556SOL     OW11227   3.528   0.881   1.259
 3556SOL    HW111228   3.526   0.796   1.215
 3556SOL    HW211229   3.521   0.944   1.188
 3557SOL     OW11230   3.091   0.334   0.437
 3557SOL    HW111231   3.156   0.263   0.431
 3557SOL    HW211232   3.109   0.376   0.521
 3558SOL     OW11233   2.451   0.737   0.670
 3558SOL    HW111234   2.490   0.823   0.656
 3558SOL    HW211235   2.384   0.729   0.603
 3559SOL     OW11236   3.617   0.381   1.642
 3559SOL    HW111237   3.596   0.389   1.549
 3559SOL    HW211238   3.557   0.313   1.674
 3560SOL     OW11239   3.615   0.931   1.514
 3560SOL    HW111240   3.607   1.025   1.530
 3560SOL    HW211241   3.592   0.920   1.421
 3561SOL     OW11242   2.770   1.397   0.061
 3561SOL    HW111243   2.700   1.385   0.125
 3561SOL    HW211244   2.724   1.407  13.878
 3562SOL     OW11245   2.522   1.793   0.943
 3562SOL    HW111246   2.505   1.884   0.916
 3562SOL    HW211247   2.616   1.783   0.935
 3563SOL     OW11248   2.730   0.968   0.854
 3563SOL    HW111249   2.780   0.896   0.893
 3563SOL    HW211250   2.694   1.016   0.929
 3564SOL     OW11251   2.959   1.010   0.110
 3564SOL    HW111252   2.949   1.057   0.027
 3564SOL    HW211253   3.034   0.952   0.095
 3565SOL     OW11254   3.716   1.556   0.841
 3565SOL    HW111255   3.637   1.542   0.789
 3565SOL    HW211256   3.712   1.490   0.910
 3566SOL     OW11257   2.088   1.302   1.856
 3566SOL    HW111258   2.021   1.239   1.829
 3566SOL    HW211259   2.074   1.313   1.950
 3567SOL     OW11260   1.942   1.222   0.664
 3567SOL    HW111261   1.955   1.178   0.748
 3567SOL    HW211262   2.019   1.197   0.612
 3568SOL     OW11263   2.542   1.403   1.627
 3568SOL    HW111264   2.464   1.360   1.660
 3568SOL    HW211265   2.539   1.491   1.665
 3569SOL     OW11266   3.677   0.182   1.244
 3569SOL    HW111267   3.678   0.086   1.252
 3569SOL    HW211268   3.694   0.198   1.151
 3570SOL     OW11269   2.293   0.435   0.532
 3570SOL    HW111270   2.325   0.364   0.476
 3570SOL    HW211271   2.245   0.392   0.602
 3571SOL     OW11272   3.560   1.491   1.097
 3571SOL    HW111273   3.481   1.468   1.048
 3571SOL    HW211274   3.571   1.420   1.160
 3572SOL     OW11275   2.192   0.556   1.294
 3572SOL    HW111276   2.245   0.497   1.348
 3572SOL    HW211277   2.211   0.529   1.204
 3573SOL     OW11278   2.691   1.578   0.678
 3573SOL    HW111279   2.677   1.637   0.604
 3573SOL    HW211280   2.614   1.520   0.676
 3574SOL     OW11281   3.323   0.252   1.110
 3574SOL    HW111282   3.337   0.164   1.146
 3574SOL    HW211283   3.267   0.295   1.175
 3575SOL     OW11284   2.867   0.028   1.147
 3575SOL    HW111285   2.788   3.986   1.113
 3575SOL    HW211286   2.930   3.957   1.155
 3576SOL     OW11287   2.634   1.322   0.319
 3576SOL    HW111288   2.606   1.233   0.337
 3576SOL    HW211289   2.718   1.330   0.366
 3577SOL     OW11290   2.483   1.555   1.285
 3577SOL    HW111291   2.484   1.638   1.334
 3577SOL    HW211292   2.571   1.548   1.248
 3578SOL     OW11293   3.183   0.068   0.129
 3578SOL    HW111294   3.204   3.983   0.091
 3578SOL    HW211295   3.115   0.049   0.194
 3579SOL     OW11296   3.143   0.455   0.684
 3579SOL    HW111297   3.097   0.539   0.679
 3579SOL    HW211298   3.148   0.436   0.778
 3580SOL     OW11299   3.452   0.210   0.867
 3580SOL    HW111300   3.403   0.233   0.946
 3580SOL    HW211301   3.450   0.290   0.815
 3581SOL     OW11302   1.902   1.070   0.309
 3581SOL    HW111303   1.998   1.067   0.307
 3581SOL    HW211304   1.876   0.981   0.330
 3582SOL     OW11305   2.758   1.652   0.342
 3582SOL    HW111306   2.683   1.625   0.290
 3582SOL    HW211307   2.726   1.726   0.395
 3583SOL     OW11308   2.090   0.620   1.983
 3583SOL    HW111309   2.000   0.627   2.015
 3583SOL    HW211310   2.082   0.600   1.890
 3584SOL     OW11311   2.079   0.299   2.853
 3584SOL    HW111312   2.116   0.257   2.930
 3584SOL    HW211313   1.995   0.256   2.840
 3585SOL     OW11314   1.871   0.396   2.496
 3585SOL    HW111315   1.784   0.411   2.533
 3585SOL    HW211316   1.858   0.326   2.433
 3586SOL     OW11317   2.430   1.289   3.038
 3586SOL    HW111318   2.343   1.292   2.999
 3586SOL    HW211319   2.445   1.378   3.070
 3587SOL     OW11320   3.424   1.512   2.569
 3587SOL    HW111321   3.381   1.492   2.652
 3587SOL    HW211322   3.353   1.517   2.506
 3588SOL     OW11323   2.994   0.698   2.561
 3588SOL    HW111324   3.042   0.780   2.548
 3588SOL    HW211325   2.947   0.711   2.643
 3589SOL     OW11326   3.622   0.623   2.089
 3589SOL    HW111327   3.605   0.611   1.996
 3589SOL    HW211328   3.606   0.536   2.127
 3590SOL     OW11329   2.617   1.141   2.905
 3590SOL    HW111330   2.548   1.177   2.961
 3590SOL    HW211331   2.652   1.218   2.860
 3591SOL     OW11332   2.731   0.772   3.685
 3591SOL    HW111333   2.717   0.843   3.748
 3591SOL    HW211334   2.754   0.816   3.603
 3592SOL     OW11335   2.548   1.001   2.508
 3592SOL    HW111336   2.613   0.991   2.577
 3592SOL    HW211337   2.479   1.054   2.548
 3593SOL     OW11338   2.573   1.150   3.675
 3593SOL    HW111339   2.621   1.228   3.704
 3593SOL    HW211340   2.491   1.183   3.640
 3594SOL     OW11341   2.193   1.420   2.931
 3594SOL    HW111342   2.118   1.386   2.883
 3594SOL    HW211343   2.241   1.472   2.866
 3595SOL     OW11344   3.322   1.501   3.218
 3595SOL    HW111345   3.374   1.580   3.227
 3595SOL    HW211346   3.259   1.505   3.290
 3596SOL     OW11347   2.306   0.395   3.356
 3596SOL    HW111348   2.395   0.361   3.354
 3596SOL    HW211349   2.251   0.317   3.364
 3597SOL     OW11350   3.473   0.450   2.598
 3597SOL    HW111351   3.403   0.483   2.542
 3597SOL    HW211352   3.496   0.525   2.653
 3598SOL     OW11353   2.100   1.699   2.331
 3598SOL    HW111354   2.132   1.766   2.391
 3598SOL    HW211355   2.169   1.689   2.266
 3599SOL     OW11356   2.998   1.342   3.555
 3599SOL    HW111357   3.040   1.337   3.642
 3599SOL    HW211358   2.946   1.262   3.549
 3600SOL     OW11359   2.089   1.434   2.398
 3600SOL    HW111360   2.080   1.530   2.395
 3600SOL    HW211361   2.027   1.406   2.465
 3601SOL     OW11362   2.122   1.090   2.753
 3601SOL    HW111363   2.118   1.003   2.793
 3601SOL    HW211364   2.064   1.144   2.807
 3602SOL     OW11365   2.472   1.792   3.291
 3602SOL    HW111366   2.391   1.774   3.338
 3602SOL    HW211367   2.497   1.880   3.318
 3603SOL     OW11368   2.446   0.983   1.997
 3603SOL    HW111369   2.493   1.030   1.929
 3603SOL    HW211370   2.485   1.014   2.079
 3604SOL     OW11371   3.443   0.139   3.319
 3604SOL    HW111372   3.468   0.213   3.262
 3604SOL    HW211373   3.410   0.181   3.399
 3605SOL     OW11374   1.978   0.655   2.422
 3605SOL    HW111375   1.951   0.567   2.445
 3605SOL    HW211376   1.970   0.705   2.503
 3606SOL     OW11377   3.702   1.757   2.198
 3606SOL    HW111378   3.770   1.733   2.260
 3606SOL    HW211379   3.721   1.848   2.176
 3607SOL     OW11380   1.864   1.600   2.016
 3607SOL    HW111381   1.856   1.505   2.003
 3607SOL    HW211382   1.881   1.610   2.110
 3608SOL     OW11383   3.549   0.917   2.506
 3608SOL    HW111384   3.634   0.875   2.490
 3608SOL    HW211385   3.532   0.968   2.426
 3609SOL     OW11386   3.504   1.105   2.293
 3609SOL    HW111387   3.589   1.112   2.249
 3609SOL    HW211388   3.510   1.168   2.366
 3610SOL     OW11389   1.985   0.749   3.443
 3610SOL    HW111390   2.076   0.778   3.449
 3610SOL    HW211391   1.933   0.829   3.451
 3611SOL     OW11392   2.476   1.386   2.596
 3611SOL    HW111393   2.430   1.303   2.605
 3611SOL    HW211394   2.459   1.413   2.506
 3612SOL     OW11395   3.150   1.238   3.285
 3612SOL    HW111396   3.182   1.171   3.225
 3612SOL    HW211397   3.208   1.232   3.361
 3613SOL     OW11398   2.681   0.003   2.378
 3613SOL    HW111399   2.726   0.084   2.354
 3613SOL    HW211400   2.588   0.027   2.379
 3614SOL     OW11401   2.052   0.964   3.136
 3614SOL    HW111402   2.137   0.923   3.120
 3614SOL    HW211403   1.990   0.912   3.084
 3615SOL     OW11404   3.391   0.994   2.062
 3615SOL    HW111405   3.321   0.938   2.095
 3615SOL    HW211406   3.433   1.030   2.140
 3616SOL     OW11407   3.046   1.808   3.484
 3616SOL    HW111408   3.057   1.866   3.410
 3616SOL    HW211409   3.064   1.720   3.449
 3617SOL     OW11410   2.217   0.254   3.694
 3617SOL    HW111411   2.261   0.339   3.693
 3617SOL    HW211412   2.124   0.275   3.701
 3618SOL     OW11413   3.328   1.420   2.812
 3618SOL    HW111414   3.261   1.435   2.878
 3618SOL    HW211415   3.316   1.329   2.787
 3619SOL     OW11416   3.517   1.743   2.441
 3619SOL    HW111417   3.500   1.711   2.352
 3619SOL    HW211418   3.495   1.669   2.497
 3620SOL     OW11419   2.457   0.721   2.129
 3620SOL    HW111420   2.462   0.803   2.080
 3620SOL    HW211421   2.393   0.737   2.198
 3621SOL     OW11422   3.137   0.367   2.803
 3621SOL    HW111423   3.050   0.328   2.809
 3621SOL    HW211424   3.194   0.305   2.848
 3622SOL     OW11425   3.440   1.670   2.171
 3622SOL    HW111426   3.530   1.701   2.166
 3622SOL    HW211427   3.414   1.654   2.081
 3623SOL     OW11428   2.658   0.616   3.314
 3623SOL    HW111429   2.629   0.591   3.402
 3623SOL    HW211430   2.618   0.551   3.257
 3624SOL     OW11431   3.254   0.476   3.539
 3624SOL    HW111432   3.259   0.521   3.624
 3624SOL    HW211433   3.312   0.401   3.549
 3625SOL     OW11434   2.815   0.888   3.446
 3625SOL    HW111435   2.870   0.818   3.409
 3625SOL    HW211436   2.767   0.922   3.370
 3626SOL     OW11437   2.854   0.403   3.102
 3626SOL    HW111438   2.770   0.426   3.142
 3626SOL    HW211439   2.831   0.374   3.013
 3627SOL     OW11440   2.913   0.699   2.287
 3627SOL    HW111441   2.929   0.692   2.382
 3627SOL    HW211442   2.831   0.653   2.274
 3628SOL     OW11443   1.950   0.822   2.638
 3628SOL    HW111444   2.030   0.814   2.690
 3628SOL    HW211445   1.906   0.900   2.674
 3629SOL     OW11446   2.756   0.351   2.061
 3629SOL    HW111447   2.798   0.410   1.998
 3629SOL    HW211448   2.751   0.267   2.016
 3630SOL     OW11449   3.571   0.574   3.691
 3630SOL    HW111450   3.533   0.649   3.644
 3630SOL    HW211451   3.596   0.512   3.622
 3631SOL     OW11452   3.238   1.141   2.402
 3631SOL    HW111453   3.318   1.130   2.351
 3631SOL    HW211454   3.186   1.204   2.352
 3632SOL     OW11455   2.419   0.198   2.743
 3632SOL    HW111456   2.422   0.217   2.837
 3632SOL    HW211457   2.415   0.284   2.702
 3633SOL     OW11458   2.866   1.443   2.333
 3633SOL    HW111459   2.831   1.516   2.283
 3633SOL    HW211460   2.847   1.465   2.425
 3634SOL     OW11461   2.218   1.799   2.726
 3634SOL    HW111462   2.255   1.711   2.737
 3634SOL    HW211463   2.288   1.858   2.755
 3635SOL     OW11464   3.666   1.062   2.729
 3635SOL    HW111465   3.612   1.038   2.654
 3635SOL    HW211466   3.605   1.065   2.802
 3636SOL     OW11467   3.089   1.539   3.376
 3636SOL    HW111468   3.076   1.467   3.437
 3636SOL    HW211469   3.026   1.523   3.305
 3637SOL     OW11470   2.181   0.959   2.113
 3637SOL    HW111471   2.264   0.978   2.068
 3637SOL    HW211472   2.151   0.876   2.075
 3638SOL     OW11473   3.341   0.744   2.591
 3638SOL    HW111474   3.335   0.703   2.677
 3638SOL    HW211475   3.418   0.801   2.597
 3639SOL     OW11476   2.329   1.264   3.600
 3639SOL    HW111477   2.302   1.268   3.508
 3639SOL    HW211478   2.247   1.261   3.649
 3640SOL     OW11479   2.984   1.778   2.092
 3640SOL    HW111480   2.911   1.736   2.137
 3640SOL    HW211481   3.008   1.716   2.023
 3641SOL     OW11482   2.034   0.275   3.361
 3641SOL    HW111483   1.976   0.351   3.353
 3641SOL    HW211484   2.041   0.260   3.455
 3642SOL     OW11485   3.488   1.383   1.949
 3642SOL    HW111486   3.445   1.467   1.934
 3642SOL    HW211487   3.420   1.318   1.930
 3643SOL     OW11488   2.339   1.714   2.197
 3643SOL    HW111489   2.378   1.789   2.242
 3643SOL    HW211490   2.395   1.700   2.121
 3644SOL     OW11491   3.297   0.167   2.264
 3644SOL    HW111492   3.254   0.095   2.219
 3644SOL    HW211493   3.372   0.127   2.307
 3645SOL     OW11494   2.154   1.766   3.084
 3645SOL    HW111495   2.193   1.685   3.115
 3645SOL    HW211496   2.114   1.743   3.000
 3646SOL     OW11497   2.799   1.698   2.761
 3646SOL    HW111498   2.877   1.648   2.782
 3646SOL    HW211499   2.756   1.648   2.691
 3647SOL     OW11500   2.256   0.695   2.337
 3647SOL    HW111501   2.275   0.603   2.349
 3647SOL    HW211502   2.162   0.703   2.355
 3648SOL     OW11503   3.392   0.230   3.589
 3648SOL    HW111504   3.387   0.256   3.681
 3648SOL    HW211505   3.370   0.137   3.588
 3649SOL     OW11506   2.505   0.132   1.969
 3649SOL    HW111507   2.532   0.049   2.009
 3649SOL    HW211508   2.442   0.107   1.902
 3650SOL     OW11509   2.638   0.281   3.628
 3650SOL    HW111510   2.707   0.215   3.633
 3650SOL    HW211511   2.579   0.259   3.700
 3651SOL     OW11512   2.738   1.522   3.056
 3651SOL    HW111513   2.722   1.486   2.969
 3651SOL    HW211514   2.808   1.468   3.092
 3652SOL     OW11515   3.203   0.587   3.292
 3652SOL    HW111516   3.233   0.559   3.379
 3652SOL    HW211517   3.237   0.676   3.283
 3653SOL     OW11518   2.678   1.394   2.803
 3653SOL    HW111519   2.762   1.382   2.759
 3653SOL    HW211520   2.614   1.396   2.731
 3654SOL     OW11521   2.791   0.511   2.763
 3654SOL    HW111522   2.767   0.503   2.671
 3654SOL    HW211523   2.819   0.423   2.788
 3655SOL     OW11524   2.407   0.057   2.353
 3655SOL    HW111525   2.333   0.062   2.413
 3655SOL    HW211526   2.403   0.138   2.302
 3656SOL     OW11527   3.289   1.199   1.903
 3656SOL    HW111528   3.320   1.123   1.953
 3656SOL    HW211529   3.204   1.220   1.941
 3657SOL     OW11530   2.190   0.043   2.072
 3657SOL    HW111531   2.201   0.111   2.005
 3657SOL    HW211532   2.273   0.042   2.119
 3658SOL     OW11533   2.803   0.249   2.323
 3658SOL    HW111534   2.778   0.290   2.240
 3658SOL    HW211535   2.898   0.252   2.323
 3659SOL     OW11536   2.942   0.683   3.321
 3659SOL    HW111537   2.871   0.618   3.328
 3659SOL    HW211538   3.022   0.630   3.316
 3660SOL     OW11539   3.084   1.571   2.656
 3660SOL    HW111540   3.100   1.637   2.589
 3660SOL    HW211541   3.153   1.585   2.721
 3661SOL     OW11542   2.332   1.150   2.594
 3661SOL    HW111543   2.263   1.131   2.658
 3661SOL    HW211544   2.291   1.135   2.509
 3662SOL     OW11545   3.130   1.793   2.471
 3662SOL    HW111546   3.177   1.854   2.414
 3662SOL    HW211547   3.063   1.847   2.513
 3663SOL     OW11548   2.884   0.544   1.888
 3663SOL    HW111549   2.841   0.627   1.869
 3663SOL    HW211550   2.948   0.566   1.957
 3664SOL     OW11551   1.942   0.551   3.258
 3664SOL    HW111552   2.033   0.552   3.228
 3664SOL    HW211553   1.936   0.624   3.319
 3665SOL     OW11554   2.426   0.231   3.023
 3665SOL    HW111555   2.451   0.140   3.033
 3665SOL    HW211556   2.336   0.236   3.055
 3666SOL     OW11557   2.732   0.461   2.501
 3666SOL    HW111558   2.684   0.515   2.438
 3666SOL    HW211559   2.752   0.381   2.453
 3667SOL     OW11560   2.857   0.040   2.642
 3667SOL    HW111561   2.822   0.068   2.557
 3667SOL    HW211562   2.868   3.946   2.634
 3668SOL     OW11563   3.301   1.162   2.720
 3668SOL    HW111564   3.230   1.098   2.718
 3668SOL    HW211565   3.326   1.173   2.628
 3669SOL     OW11566   3.327   0.607   2.838
 3669SOL    HW111567   3.274   0.527   2.843
 3669SOL    HW211568   3.387   0.601   2.912
 3670SOL     OW11569   3.722   0.824   2.237
 3670SOL    HW111570   3.764   0.767   2.301
 3670SOL    HW211571   3.683   0.764   2.173
 3671SOL     OW11572   2.354   1.419   2.016
 3671SOL    HW111573   2.279   1.392   2.070
 3671SOL    HW211574   2.339   1.376   1.932
 3672SOL     OW11575   3.529   1.265   2.507
 3672SOL    HW111576   3.624   1.269   2.516
 3672SOL    HW211577   3.499   1.354   2.528
 3673SOL     OW11578   3.257   0.574   1.931
 3673SOL    HW111579   3.193   0.556   2.001
 3673SOL    HW211580   3.342   0.557   1.971
 3674SOL     OW11581   2.389   0.266   2.179
 3674SOL    HW111582   2.442   0.227   2.110
 3674SOL    HW211583   2.361   0.351   2.142
 3675SOL     OW11584   3.614   1.234   3.430
 3675SOL    HW111585   3.701   1.199   3.413
 3675SOL    HW211586   3.630   1.324   3.461
 3676SOL     OW11587   2.920   1.354   3.196
 3676SOL    HW111588   2.845   1.322   3.246
 3676SOL    HW211589   2.995   1.312   3.236
 3677SOL     OW11590   3.467   1.628   3.517
 3677SOL    HW111591   3.460   1.662   3.428
 3677SOL    HW211592   3.549   1.577   3.517
 3678SOL     OW11593   2.992   1.205   2.967
 3678SOL    HW111594   2.932   1.242   3.031
 3678SOL    HW211595   2.960   1.238   2.883
 3679SOL     OW11596   3.491   1.097   2.937
 3679SOL    HW111597   3.483   1.158   3.010
 3679SOL    HW211598   3.414   1.113   2.884
 3680SOL     OW11599   2.775   0.114   3.263
 3680SOL    HW111600   2.794   0.088   3.174
 3680SOL    HW211601   2.855   0.156   3.294
 3681SOL     OW11602   2.846   1.115   3.585
 3681SOL    HW111603   2.754   1.131   3.607
 3681SOL    HW211604   2.844   1.037   3.530
 3682SOL     OW11605   2.571   1.062   2.233
 3682SOL    HW111606   2.557   1.045   2.326
 3682SOL    HW211607   2.646   1.008   2.210
 3683SOL     OW11608   2.282   0.815   3.113
 3683SOL    HW111609   2.350   0.824   3.180
 3683SOL    HW211610   2.246   0.727   3.126
 3684SOL     OW11611   3.129   0.375   3.138
 3684SOL    HW111612   3.163   0.453   3.182
 3684SOL    HW211613   3.041   0.401   3.108
 3685SOL     OW11614   1.934   1.578   3.215
 3685SOL    HW111615   1.899   1.641   3.153
 3685SOL    HW211616   2.028   1.580   3.201
 3686SOL     OW11617   2.209   1.110   2.353
 3686SOL    HW111618   2.214   1.185   2.293
 3686SOL    HW211619   2.207   1.034   2.295
 3687SOL     OW11620   2.417   0.534   2.719
 3687SOL    HW111621   2.431   0.594   2.646
 3687SOL    HW211622   2.481   0.561   2.785
 3688SOL     OW11623   3.110   1.349   2.251
 3688SOL    HW111624   3.166   1.420   2.282
 3688SOL    HW211625   3.023   1.370   2.285
 3689SOL     OW11626   3.144   1.459   3.009
 3689SOL    HW111627   3.201   1.462   3.087
 3689SOL    HW211628   3.090   1.381   3.022
 3690SOL     OW11629   3.435   0.632   2.346
 3690SOL    HW111630   3.395   0.689   2.411
 3690SOL    HW211631   3.483   0.691   2.289
 3691SOL     OW11632   2.214   1.516   3.179
 3691SOL    HW111633   2.200   1.473   3.094
 3691SOL    HW211634   2.309   1.527   3.184
 3692SOL     OW11635   2.278   0.744   3.464
 3692SOL    HW111636   2.339   0.790   3.405
 3692SOL    HW211637   2.319   0.660   3.480
 3693SOL     OW11638   3.465   0.777   3.544
 3693SOL    HW111639   3.379   0.820   3.538
 3693SOL    HW211640   3.517   0.820   3.476
 3694SOL     OW11641   2.880   0.127   3.641
 3694SOL    HW111642   2.923   0.203   3.602
 3694SOL    HW211643   2.862   0.069   3.568
 3695SOL     OW11644   2.349   0.034   3.624
 3695SOL    HW111645   2.353   0.045   3.529
 3695SOL    HW211646   2.290   0.104   3.654
 3696SOL     OW11647   2.446   0.873   2.894
 3696SOL    HW111648   2.475   0.964   2.894
 3696SOL    HW211649   2.389   0.866   2.970
 3697SOL     OW11650   3.217   0.859   2.890
 3697SOL    HW111651   3.133   0.848   2.845
 3697SOL    HW211652   3.259   0.773   2.883
 3698SOL     OW11653   3.064   0.536   2.122
 3698SOL    HW111654   3.072   0.457   2.175
 3698SOL    HW211655   3.021   0.599   2.179
 3699SOL     OW11656   2.163   0.210   3.105
 3699SOL    HW111657   2.122   0.239   3.186
 3699SOL    HW211658   2.151   0.115   3.104
 3700SOL     OW11659   1.907   1.313   3.140
 3700SOL    HW111660   1.941   1.257   3.210
 3700SOL    HW211661   1.915   1.402   3.174
 3701SOL     OW11662   2.585   0.632   2.916
 3701SOL    HW111663   2.661   0.618   2.858
 3701SOL    HW211664   2.556   0.721   2.896
 3702SOL     OW11665   3.594   0.957   3.722
 3702SOL    HW111666   3.550   0.898   3.661
 3702SOL    HW211667   3.531   0.971   3.792
 3703SOL     OW11668   2.184   0.056   2.511
 3703SOL    HW111669   2.164   0.149   2.523
 3703SOL    HW211670   2.146   0.014   2.588
 3704SOL     OW11671   3.473   0.390   2.242
 3704SOL    HW111672   3.438   0.321   2.299
 3704SOL    HW211673   3.451   0.472   2.287
 3705SOL     OW11674   2.891   0.759   2.821
 3705SOL    HW111675   2.885   0.776   2.915
 3705SOL    HW211676   2.864   0.668   2.812
 3706SOL     OW11677   2.844   1.567   3.580
 3706SOL    HW111678   2.829   1.610   3.496
 3706SOL    HW211679   2.887   1.484   3.557
 3707SOL     OW11680   3.706   1.501   3.461
 3707SOL    HW111681   3.729   1.529   3.373
 3707SOL    HW211682   3.787   1.513   3.512
 3708SOL     OW11683   2.215   0.915   3.671
 3708SOL    HW111684   2.296   0.935   3.717
 3708SOL    HW211685   2.240   0.853   3.603
 3709SOL     OW11686   3.366   0.275   1.997
 3709SOL    HW111687   3.291   0.216   2.008
 3709SOL    HW211688   3.379   0.314   2.083
 3710SOL     OW11689   3.151   0.826   1.891
 3710SOL    HW111690   3.194   0.741   1.895
 3710SOL    HW211691   3.184   0.866   1.811
 3711SOL     OW11692   2.928   1.336   2.717
 3711SOL    HW111693   2.932   1.264   2.654
 3711SOL    HW211694   2.989   1.402   2.682
 3712SOL     OW11695   2.170   0.809   2.809
 3712SOL    HW111696   2.263   0.831   2.802
 3712SOL    HW211697   2.168   0.719   2.841
 3713SOL     OW11698   2.198   0.535   2.875
 3713SOL    HW111699   2.157   0.450   2.860
 3713SOL    HW211700   2.274   0.536   2.817
 3714SOL     OW11701   2.995   0.382   3.557
 3714SOL    HW111702   2.946   0.436   3.619
 3714SOL    HW211703   3.082   0.421   3.552
 3715SOL     OW11704   3.013   0.225   3.343
 3715SOL    HW111705   3.004   0.280   3.421
 3715SOL    HW211706   3.037   0.287   3.274
 3716SOL     OW11707   1.866   1.318   2.056
 3716SOL    HW111708   1.779   1.331   2.019
 3716SOL    HW211709   1.865   1.229   2.090
 3717SOL     OW11710   1.978   1.717   2.842
 3717SOL    HW111711   1.936   1.662   2.777
 3717SOL    HW211712   2.043   1.768   2.794
 3718SOL     OW11713   2.361   1.569   2.771
 3718SOL    HW111714   2.430   1.632   2.794
 3718SOL    HW211715   2.404   1.507   2.712
 3719SOL     OW11716   2.843   0.789   3.087
 3719SOL    HW111717   2.899   0.769   3.162
 3719SOL    HW211718   2.757   0.754   3.111
 3720SOL     OW11719   1.895   0.547   2.979
 3720SOL    HW111720   1.970   0.521   2.925
 3720SOL    HW211721   1.929   0.547   3.069
 3721SOL     OW11722   2.065   0.526   3.575
 3721SOL    HW111723   2.134   0.505   3.513
 3721SOL    HW211724   2.020   0.601   3.536
 3722SOL     OW11725   3.241   0.937   3.520
 3722SOL    HW111726   3.262   1.031   3.518
 3722SOL    HW211727   3.237   0.912   3.428
 3723SOL     OW11728   2.679   0.572   2.224
 3723SOL    HW111729   2.684   0.496   2.166
 3723SOL    HW211730   2.604   0.622   2.191
 3724SOL     OW11731   3.502   0.602   3.046
 3724SOL    HW111732   3.491   0.541   3.120
 3724SOL    HW211733   3.588   0.581   3.010
 3725SOL     OW11734   2.115   1.539   3.569
 3725SOL    HW111735   2.096   1.608   3.632
 3725SOL    HW211736   2.117   1.459   3.622
 3726SOL     OW11737   2.566   0.454   3.120
 3726SOL    HW111738   2.517   0.377   3.094
 3726SOL    HW211739   2.559   0.514   3.045
 3727SOL     OW11740   2.787   1.679   3.331
 3727SOL    HW111741   2.764   1.643   3.245
 3727SOL    HW211742   2.783   1.774   3.318
 3728SOL     OW11743   2.326   0.494   2.046
 3728SOL    HW111744   2.384   0.567   2.070
 3728SOL    HW211745   2.240   0.534   2.034
 3729SOL     OW11746   2.006   1.141   3.334
 3729SOL    HW111747   2.008   1.090   3.416
 3729SOL    HW211748   2.023   1.076   3.266
 3730SOL     OW11749   3.185   1.046   3.085
 3730SOL    HW111750   3.209   0.983   3.017
 3730SOL    HW211751   3.117   1.099   3.045
 3731SOL     OW11752   3.175   0.855   2.167
 3731SOL    HW111753   3.099   0.827   2.219
 3731SOL    HW211754   3.148   0.843   2.076
 3732SOL     OW11755   3.640   1.743   3.017
 3732SOL    HW111756   3.695   1.770   2.944
 3732SOL    HW211757   3.612   1.654   2.994
 3733SOL     OW11758   3.103   1.734   2.974
 3733SOL    HW111759   3.185   1.755   2.929
 3733SOL    HW211760   3.110   1.640   2.992
 3734SOL     OW11761   1.948   1.264   2.876
 3734SOL    HW111762   1.932   1.279   2.969
 3734SOL    HW211763   1.874   1.212   2.847
 3735SOL     OW11764   2.542   1.664   3.591
 3735SOL    HW111765   2.492   1.746   3.590
 3735SOL    HW211766   2.609   1.676   3.524
 3736SOL     OW11767   3.552   0.121   2.349
 3736SOL    HW111768   3.634   0.135   2.301
 3736SOL    HW211769   3.554   0.028   2.371
 3737SOL     OW11770   3.252   1.567   2.348
 3737SOL    HW111771   3.312   1.600   2.281
 3737SOL    HW211772   3.204   1.645   2.377
 3738SOL     OW11773   2.031   1.743   3.720
 3738SOL    HW111774   1.968   1.692   3.772
 3738SOL    HW211775   2.009   1.834   3.740
 3739SOL     OW11776   3.139   0.926   2.533
 3739SOL    HW111777   3.213   0.866   2.542
 3739SOL    HW211778   3.173   0.999   2.480
 3740SOL     OW11779   2.674   1.273   3.290
 3740SOL    HW111780   2.646   1.313   3.373
 3740SOL    HW211781   2.604   1.294   3.228
 3741SOL     OW11782   2.535   1.621   2.013
 3741SOL    HW111783   2.545   1.631   1.918
 3741SOL    HW211784   2.480   1.544   2.023
 3742SOL     OW11785   3.484   1.727   3.253
 3742SOL    HW111786   3.538   1.732   3.174
 3742SOL    HW211787   3.471   1.818   3.279
 3743SOL     OW11788   3.703   0.181   2.833
 3743SOL    HW111789   3.727   0.097   2.794
 3743SOL    HW211790   3.616   0.200   2.796
 3744SOL     OW11791   2.126   0.317   2.577
 3744SOL    HW111792   2.040   0.352   2.555
 3744SOL    HW211793   2.125   0.307   2.672
 3745SOL     OW11794   3.069   1.605   1.894
 3745SOL    HW111795   3.059   1.514   1.921
 3745SOL    HW211796   3.004   1.617   1.825
 3746SOL     OW11797   2.686   1.006   3.234
 3746SOL    HW111798   2.728   1.002   3.148
 3746SOL    HW211799   2.685   1.099   3.257
 3747SOL     OW11800   2.778   0.910   2.152
 3747SOL    HW111801   2.839   0.943   2.086
 3747SOL    HW211802   2.826   0.841   2.197
 3748SOL     OW11803   3.352   1.627   1.905
 3748SOL    HW111804   3.258   1.619   1.890
 3748SOL    HW211805   3.389   1.633   1.817
 3749SOL     OW11806   2.232   1.298   3.354
 3749SOL    HW111807   2.219   1.376   3.301
 3749SOL    HW211808   2.154   1.245   3.338
 3750SOL     OW11809   3.464   1.280   3.140
 3750SOL    HW111810   3.532   1.273   3.207
 3750SOL    HW211811   3.407   1.350   3.171
 3751SOL     OW11812   2.916   1.108   2.570
 3751SOL    HW111813   2.845   1.057   2.608
 3751SOL    HW211814   2.979   1.042   2.539
 3752SOL     OW11815   2.876   0.248   2.831
 3752SOL    HW111816   2.866   0.198   2.750
 3752SOL    HW211817   2.871   0.183   2.900
 3753SOL     OW11818   2.465   1.489   2.343
 3753SOL    HW111819   2.507   1.440   2.273
 3753SOL    HW211820   2.403   1.547   2.298
 3754SOL     OW11821   3.582   0.393   3.234
 3754SOL    HW111822   3.654   0.456   3.234
 3754SOL    HW211823   3.613   0.321   3.180
 3755SOL     OW11824   2.121   1.345   2.149
 3755SOL    HW111825   2.028   1.341   2.128
 3755SOL    HW211826   2.124   1.380   2.238
 3756SOL     OW11827   1.975   1.024   3.582
 3756SOL    HW111828   1.899   1.000   3.635
 3756SOL    HW211829   2.049   0.985   3.629
 3757SOL     OW11830   2.554   0.250   3.362
 3757SOL    HW111831   2.622   0.197   3.321
 3757SOL    HW211832   2.581   0.258   3.453
 3758SOL     OW11833   1.961   0.318   1.853
 3758SOL    HW111834   1.891   0.337   1.915
 3758SOL    HW211835   1.971   0.399   1.803
 3759SOL     OW11836   3.289   0.857   3.261
 3759SOL    HW111837   3.239   0.919   3.207
 3759SOL    HW211838   3.377   0.860   3.225
 3760SOL     OW11839   1.943   0.153   2.202
 3760SOL    HW111840   1.913   0.213   2.135
 3760SOL    HW211841   2.029   0.124   2.172
 3761SOL     OW11842   3.040   1.339   1.979
 3761SOL    HW111843   2.950   1.308   1.982
 3761SOL    HW211844   3.068   1.339   2.071
 3762SOL     OW11845   2.483   0.829   3.296
 3762SOL    HW111846   2.539   0.905   3.281
 3762SOL    HW211847   2.543   0.756   3.304
 3763SOL     OW11848   3.345   1.780   2.841
 3763SOL    HW111849   3.368   1.840   2.771
 3763SOL    HW211850   3.428   1.755   2.880
 3764SOL     OW11851   2.580   0.562   3.567
 3764SOL    HW111852   2.621   0.625   3.626
 3764SOL    HW211853   2.607   0.476   3.600
 3765SOL     OW11854   3.334   1.199   3.493
 3765SOL    HW111855   3.323   1.213   3.587
 3765SOL    HW211856   3.427   1.214   3.478
 3766SOL     OW11857   2.238   1.745   3.431
 3766SOL    HW111858   2.163   1.764   3.374
 3766SOL    HW211859   2.217   1.661   3.472
 3767SOL     OW11860   3.527   0.881   3.121
 3767SOL    HW111861   3.526   0.796   3.077
 3767SOL    HW211862   3.521   0.945   3.050
 3768SOL     OW11863   3.084   0.336   2.306
 3768SOL    HW111864   3.152   0.269   2.297
 3768SOL    HW211865   3.105   0.380   2.388
 3769SOL     OW11866   2.452   0.737   2.532
 3769SOL    HW111867   2.491   0.823   2.517
 3769SOL    HW211868   2.385   0.729   2.465
 3770SOL     OW11869   3.617   0.381   3.504
 3770SOL    HW111870   3.596   0.389   3.411
 3770SOL    HW211871   3.557   0.313   3.536
 3771SOL     OW11872   3.615   0.931   3.376
 3771SOL    HW111873   3.607   1.025   3.392
 3771SOL    HW211874   3.592   0.920   3.283
 3772SOL     OW11875   2.723   1.367   1.897
 3772SOL    HW111876   2.686   1.393   1.982
 3772SOL    HW211877   2.742   1.449   1.852
 3773SOL     OW11878   2.522   1.794   2.806
 3773SOL    HW111879   2.506   1.884   2.778
 3773SOL    HW211880   2.617   1.782   2.797
 3774SOL     OW11881   2.730   0.968   2.717
 3774SOL    HW111882   2.780   0.896   2.756
 3774SOL    HW211883   2.694   1.016   2.792
 3775SOL     OW11884   2.941   0.989   1.951
 3775SOL    HW111885   2.919   1.040   1.873
 3775SOL    HW211886   3.015   0.935   1.924
 3776SOL     OW11887   3.715   1.556   2.704
 3776SOL    HW111888   3.636   1.540   2.652
 3776SOL    HW211889   3.714   1.489   2.772
 3777SOL     OW11890   2.088   1.302   3.718
 3777SOL    HW111891   2.021   1.239   3.691
 3777SOL    HW211892   2.073   1.313   3.812
 3778SOL     OW11893   1.943   1.225   2.526
 3778SOL    HW111894   1.955   1.181   2.610
 3778SOL    HW211895   2.016   1.194   2.472
 3779SOL     OW11896   2.542   1.403   3.489
 3779SOL    HW111897   2.464   1.360   3.522
 3779SOL    HW211898   2.539   1.491   3.527
 3780SOL     OW11899   3.677   0.182   3.106
 3780SOL    HW111900   3.678   0.086   3.114
 3780SOL    HW211901   3.694   0.198   3.013
 3781SOL     OW11902   2.290   0.434   2.387
 3781SOL    HW111903   2.324   0.363   2.333
 3781SOL    HW211904   2.243   0.391   2.458
 3782SOL     OW11905   3.559   1.491   2.960
 3782SOL    HW111906   3.481   1.468   2.911
 3782SOL    HW211907   3.571   1.420   3.022
 3783SOL     OW11908   2.192   0.556   3.156
 3783SOL    HW111909   2.245   0.497   3.210
 3783SOL    HW211910   2.211   0.529   3.066
 3784SOL     OW11911   2.690   1.578   2.540
 3784SOL    HW111912   2.677   1.636   2.465
 3784SOL    HW211913   2.614   1.519   2.539
 3785SOL     OW11914   3.323   0.252   2.973
 3785SOL    HW111915   3.337   0.164   3.008
 3785SOL    HW211916   3.267   0.295   3.037
 3786SOL     OW11917   2.867   0.028   3.009
 3786SOL    HW111918   2.788   3.986   2.975
 3786SOL    HW211919   2.930   3.957   3.017
 3787SOL     OW11920   2.635   1.333   2.176
 3787SOL    HW111921   2.604   1.243   2.184
 3787SOL    HW211922   2.716   1.335   2.228
 3788SOL     OW11923   2.483   1.555   3.148
 3788SOL    HW111924   2.484   1.638   3.196
 3788SOL    HW211925   2.571   1.548   3.110
 3789SOL     OW11926   3.175   0.071   2.022
 3789SOL    HW111927   3.183   3.993   1.967
 3789SOL    HW211928   3.090   0.061   2.064
 3790SOL     OW11929   3.144   0.457   2.548
 3790SOL    HW111930   3.097   0.540   2.543
 3790SOL    HW211931   3.148   0.437   2.641
 3791SOL     OW11932   3.452   0.210   2.729
 3791SOL    HW111933   3.403   0.233   2.808
 3791SOL    HW211934   3.451   0.290   2.676
 3792SOL     OW11935   1.906   1.070   2.167
 3792SOL    HW111936   2.000   1.062   2.151
 3792SOL    HW211937   1.878   0.982   2.192
 3793SOL     OW11938   2.749   1.653   2.202
 3793SOL    HW111939   2.674   1.638   2.144
 3793SOL    HW211940   2.723   1.727   2.256
 3794SOL     OW11941   2.090   0.620   3.845
 3794SOL    HW111942   2.000   0.627   3.877
 3794SOL    HW211943   2.082   0.600   3.752
 3795SOL     OW11944   2.079   0.299   4.715
 3795SOL    HW111945   2.116   0.257   4.792
 3795SOL    HW211946   1.995   0.256   4.702
 3796SOL     OW11947   1.871   0.396   4.358
 3796SOL    HW111948   1.784   0.411   4.395
 3796SOL    HW211949   1.858   0.326   4.295
 3797SOL     OW11950   2.430   1.289   4.900
 3797SOL    HW111951   2.343   1.293   4.860
 3797SOL    HW211952   2.445   1.378   4.932
 3798SOL     OW11953   3.424   1.512   4.431
 3798SOL    HW111954   3.381   1.492   4.514
 3798SOL    HW211955   3.352   1.517   4.368
 3799SOL     OW11956   2.994   0.698   4.423
 3799SOL    HW111957   3.042   0.780   4.409
 3799SOL    HW211958   2.947   0.711   4.505
 3800SOL     OW11959   3.622   0.622   3.951
 3800SOL    HW111960   3.605   0.611   3.858
 3800SOL    HW211961   3.606   0.536   3.989
 3801SOL     OW11962   2.617   1.141   4.766
 3801SOL    HW111963   2.548   1.176   4.823
 3801SOL    HW211964   2.652   1.218   4.722
 3802SOL     OW11965   2.731   0.772   5.547
 3802SOL    HW111966   2.716   0.843   5.609
 3802SOL    HW211967   2.754   0.816   5.465
 3803SOL     OW11968   2.548   1.001   4.370
 3803SOL    HW111969   2.613   0.991   4.439
 3803SOL    HW211970   2.479   1.054   4.410
 3804SOL     OW11971   2.573   1.150   5.537
 3804SOL    HW111972   2.621   1.228   5.564
 3804SOL    HW211973   2.491   1.184   5.502
 3805SOL     OW11974   2.194   1.420   4.792
 3805SOL    HW111975   2.118   1.386   4.745
 3805SOL    HW211976   2.241   1.472   4.728
 3806SOL     OW11977   3.322   1.500   5.080
 3806SOL    HW111978   3.374   1.580   5.089
 3806SOL    HW211979   3.258   1.505   5.151
 3807SOL     OW11980   2.306   0.394   5.218
 3807SOL    HW111981   2.396   0.361   5.216
 3807SOL    HW211982   2.251   0.316   5.226
 3808SOL     OW11983   3.473   0.450   4.460
 3808SOL    HW111984   3.403   0.483   4.404
 3808SOL    HW211985   3.496   0.525   4.515
 3809SOL     OW11986   2.095   1.698   4.186
 3809SOL    HW111987   2.127   1.765   4.247
 3809SOL    HW211988   2.166   1.688   4.123
 3810SOL     OW11989   2.999   1.342   5.417
 3810SOL    HW111990   3.038   1.337   5.504
 3810SOL    HW211991   2.946   1.262   5.411
 3811SOL     OW11992   2.090   1.435   4.260
 3811SOL    HW111993   2.078   1.530   4.255
 3811SOL    HW211994   2.028   1.407   4.327
 3812SOL     OW11995   2.121   1.090   4.615
 3812SOL    HW111996   2.118   1.003   4.655
 3812SOL    HW211997   2.064   1.144   4.669
 3813SOL     OW11998   2.472   1.792   5.152
 3813SOL    HW111999   2.391   1.774   5.201
 3813SOL    HW212000   2.497   1.880   5.180
 3814SOL     OW12001   2.446   0.983   3.859
 3814SOL    HW112002   2.493   1.030   3.791
 3814SOL    HW212003   2.485   1.014   3.941
 3815SOL     OW12004   3.443   0.139   5.181
 3815SOL    HW112005   3.467   0.213   5.124
 3815SOL    HW212006   3.410   0.181   5.261
 3816SOL     OW12007   1.978   0.655   4.284
 3816SOL    HW112008   1.951   0.567   4.307
 3816SOL    HW212009   1.970   0.705   4.365
 3817SOL     OW12010   3.702   1.757   4.060
 3817SOL    HW112011   3.770   1.733   4.122
 3817SOL    HW212012   3.721   1.848   4.038
 3818SOL     OW12013   1.866   1.601   3.878
 3818SOL    HW112014   1.857   1.507   3.865
 3818SOL    HW212015   1.884   1.611   3.972
 3819SOL     OW12016   3.549   0.917   4.368
 3819SOL    HW112017   3.634   0.875   4.352
 3819SOL    HW212018   3.532   0.968   4.288
 3820SOL     OW12019   3.504   1.105   4.155
 3820SOL    HW112020   3.589   1.112   4.111
 3820SOL    HW212021   3.510   1.168   4.228
 3821SOL     OW12022   1.985   0.749   5.305
 3821SOL    HW112023   2.076   0.778   5.311
 3821SOL    HW212024   1.933   0.829   5.313
 3822SOL     OW12025   2.476   1.386   4.458
 3822SOL    HW112026   2.430   1.303   4.468
 3822SOL    HW212027   2.459   1.414   4.368
 3823SOL     OW12028   3.150   1.238   5.147
 3823SOL    HW112029   3.182   1.171   5.087
 3823SOL    HW212030   3.208   1.232   5.223
 3824SOL     OW12031   2.681   0.003   4.240
 3824SOL    HW112032   2.726   0.084   4.216
 3824SOL    HW212033   2.588   0.027   4.241
 3825SOL     OW12034   2.052   0.964   4.997
 3825SOL    HW112035   2.137   0.923   4.982
 3825SOL    HW212036   1.990   0.912   4.946
 3826SOL     OW12037   3.391   0.994   3.924
 3826SOL    HW112038   3.321   0.938   3.957
 3826SOL    HW212039   3.433   1.030   4.002
 3827SOL     OW12040   3.048   1.808   5.347
 3827SOL    HW112041   3.057   1.866   5.271
 3827SOL    HW212042   3.064   1.720   5.311
 3828SOL     OW12043   2.217   0.254   5.556
 3828SOL    HW112044   2.261   0.339   5.555
 3828SOL    HW212045   2.124   0.275   5.563
 3829SOL     OW12046   3.328   1.420   4.674
 3829SOL    HW112047   3.261   1.435   4.741
 3829SOL    HW212048   3.317   1.329   4.649
 3830SOL     OW12049   3.517   1.743   4.303
 3830SOL    HW112050   3.500   1.711   4.214
 3830SOL    HW212051   3.495   1.669   4.359
 3831SOL     OW12052   2.457   0.721   3.991
 3831SOL    HW112053   2.462   0.803   3.942
 3831SOL    HW212054   2.393   0.737   4.060
 3832SOL     OW12055   3.137   0.367   4.665
 3832SOL    HW112056   3.050   0.328   4.671
 3832SOL    HW212057   3.194   0.305   4.710
 3833SOL     OW12058   3.440   1.670   4.033
 3833SOL    HW112059   3.530   1.701   4.028
 3833SOL    HW212060   3.414   1.654   3.943
 3834SOL     OW12061   2.658   0.616   5.176
 3834SOL    HW112062   2.629   0.591   5.264
 3834SOL    HW212063   2.618   0.551   5.119
 3835SOL     OW12064   3.254   0.476   5.401
 3835SOL    HW112065   3.259   0.521   5.485
 3835SOL    HW212066   3.312   0.401   5.411
 3836SOL     OW12067   2.815   0.887   5.307
 3836SOL    HW112068   2.870   0.818   5.271
 3836SOL    HW212069   2.767   0.922   5.232
 3837SOL     OW12070   2.854   0.403   4.964
 3837SOL    HW112071   2.770   0.426   5.004
 3837SOL    HW212072   2.831   0.374   4.875
 3838SOL     OW12073   2.913   0.699   4.149
 3838SOL    HW112074   2.929   0.692   4.244
 3838SOL    HW212075   2.831   0.653   4.136
 3839SOL     OW12076   1.950   0.822   4.500
 3839SOL    HW112077   2.030   0.814   4.552
 3839SOL    HW212078   1.907   0.900   4.536
 3840SOL     OW12079   2.756   0.351   3.923
 3840SOL    HW112080   2.798   0.410   3.860
 3840SOL    HW212081   2.751   0.267   3.878
 3841SOL     OW12082   3.571   0.574   5.553
 3841SOL    HW112083   3.533   0.649   5.506
 3841SOL    HW212084   3.596   0.513   5.484
 3842SOL     OW12085   3.238   1.141   4.264
 3842SOL    HW112086   3.318   1.130   4.213
 3842SOL    HW212087   3.186   1.204   4.214
 3843SOL     OW12088   2.419   0.198   4.605
 3843SOL    HW112089   2.422   0.217   4.699
 3843SOL    HW212090   2.415   0.284   4.564
 3844SOL     OW12091   2.866   1.443   4.196
 3844SOL    HW112092   2.831   1.516   4.145
 3844SOL    HW212093   2.847   1.465   4.287
 3845SOL     OW12094   2.219   1.803   4.588
 3845SOL    HW112095   2.255   1.714   4.599
 3845SOL    HW212096   2.290   1.861   4.617
 3846SOL     OW12097   3.666   1.062   4.591
 3846SOL    HW112098   3.612   1.038   4.516
 3846SOL    HW212099   3.605   1.065   4.664
 3847SOL     OW12100   3.089   1.539   5.237
 3847SOL    HW112101   3.076   1.467   5.299
 3847SOL    HW212102   3.026   1.523   5.168
 3848SOL     OW12103   2.181   0.959   3.975
 3848SOL    HW112104   2.264   0.978   3.930
 3848SOL    HW212105   2.152   0.876   3.937
 3849SOL     OW12106   3.341   0.744   4.453
 3849SOL    HW112107   3.335   0.703   4.539
 3849SOL    HW212108   3.418   0.801   4.459
 3850SOL     OW12109   2.329   1.264   5.463
 3850SOL    HW112110   2.302   1.269   5.371
 3850SOL    HW212111   2.247   1.261   5.512
 3851SOL     OW12112   2.984   1.778   3.954
 3851SOL    HW112113   2.911   1.736   3.999
 3851SOL    HW212114   3.008   1.716   3.885
 3852SOL     OW12115   2.033   0.275   5.223
 3852SOL    HW112116   1.976   0.351   5.215
 3852SOL    HW212117   2.041   0.260   5.317
 3853SOL     OW12118   3.488   1.383   3.811
 3853SOL    HW112119   3.445   1.467   3.796
 3853SOL    HW212120   3.420   1.318   3.792
 3854SOL     OW12121   2.339   1.714   4.059
 3854SOL    HW112122   2.378   1.788   4.105
 3854SOL    HW212123   2.395   1.700   3.983
 3855SOL     OW12124   3.297   0.167   4.126
 3855SOL    HW112125   3.254   0.094   4.081
 3855SOL    HW212126   3.372   0.127   4.169
 3856SOL     OW12127   2.155   1.768   4.945
 3856SOL    HW112128   2.195   1.686   4.977
 3856SOL    HW212129   2.114   1.743   4.863
 3857SOL     OW12130   2.798   1.698   4.623
 3857SOL    HW112131   2.877   1.648   4.644
 3857SOL    HW212132   2.756   1.648   4.553
 3858SOL     OW12133   2.256   0.695   4.199
 3858SOL    HW112134   2.275   0.603   4.211
 3858SOL    HW212135   2.162   0.703   4.217
 3859SOL     OW12136   3.392   0.230   5.451
 3859SOL    HW112137   3.387   0.256   5.543
 3859SOL    HW212138   3.370   0.137   5.450
 3860SOL     OW12139   2.505   0.132   3.831
 3860SOL    HW112140   2.532   0.049   3.871
 3860SOL    HW212141   2.442   0.107   3.764
 3861SOL     OW12142   2.638   0.281   5.490
 3861SOL    HW112143   2.707   0.215   5.495
 3861SOL    HW212144   2.579   0.259   5.562
 3862SOL     OW12145   2.738   1.522   4.918
 3862SOL    HW112146   2.722   1.486   4.831
 3862SOL    HW212147   2.808   1.468   4.954
 3863SOL     OW12148   3.203   0.587   5.154
 3863SOL    HW112149   3.233   0.559   5.241
 3863SOL    HW212150   3.237   0.676   5.145
 3864SOL     OW12151   2.678   1.394   4.665
 3864SOL    HW112152   2.762   1.382   4.621
 3864SOL    HW212153   2.614   1.396   4.593
 3865SOL     OW12154   2.791   0.511   4.625
 3865SOL    HW112155   2.767   0.503   4.533
 3865SOL    HW212156   2.819   0.423   4.650
 3866SOL     OW12157   2.407   0.057   4.215
 3866SOL    HW112158   2.333   0.062   4.275
 3866SOL    HW212159   2.403   0.138   4.164
 3867SOL     OW12160   3.289   1.199   3.765
 3867SOL    HW112161   3.320   1.123   3.815
 3867SOL    HW212162   3.204   1.220   3.803
 3868SOL     OW12163   2.190   0.043   3.934
 3868SOL    HW112164   2.201   0.111   3.867
 3868SOL    HW212165   2.273   0.042   3.981
 3869SOL     OW12166   2.803   0.249   4.185
 3869SOL    HW112167   2.778   0.290   4.102
 3869SOL    HW212168   2.898   0.252   4.185
 3870SOL     OW12169   2.942   0.683   5.183
 3870SOL    HW112170   2.871   0.619   5.190
 3870SOL    HW212171   3.022   0.630   5.178
 3871SOL     OW12172   3.084   1.571   4.518
 3871SOL    HW112173   3.100   1.637   4.451
 3871SOL    HW212174   3.153   1.585   4.583
 3872SOL     OW12175   2.332   1.150   4.456
 3872SOL    HW112176   2.263   1.131   4.520
 3872SOL    HW212177   2.291   1.135   4.371
 3873SOL     OW12178   3.130   1.793   4.333
 3873SOL    HW112179   3.177   1.854   4.276
 3873SOL    HW212180   3.063   1.847   4.375
 3874SOL     OW12181   2.884   0.544   3.750
 3874SOL    HW112182   2.841   0.627   3.731
 3874SOL    HW212183   2.948   0.566   3.819
 3875SOL     OW12184   1.942   0.551   5.120
 3875SOL    HW112185   2.033   0.552   5.090
 3875SOL    HW212186   1.936   0.624   5.182
 3876SOL     OW12187   2.426   0.231   4.885
 3876SOL    HW112188   2.451   0.140   4.895
 3876SOL    HW212189   2.336   0.236   4.917
 3877SOL     OW12190   2.732   0.461   4.363
 3877SOL    HW112191   2.684   0.515   4.300
 3877SOL    HW212192   2.752   0.381   4.315
 3878SOL     OW12193   2.857   0.040   4.504
 3878SOL    HW112194   2.822   0.068   4.419
 3878SOL    HW212195   2.868   3.946   4.496
 3879SOL     OW12196   3.301   1.162   4.582
 3879SOL    HW112197   3.230   1.098   4.580
 3879SOL    HW212198   3.326   1.173   4.490
 3880SOL     OW12199   3.327   0.607   4.700
 3880SOL    HW112200   3.274   0.527   4.705
 3880SOL    HW212201   3.387   0.601   4.774
 3881SOL     OW12202   3.722   0.824   4.099
 3881SOL    HW112203   3.764   0.767   4.163
 3881SOL    HW212204   3.683   0.764   4.035
 3882SOL     OW12205   2.354   1.419   3.878
 3882SOL    HW112206   2.279   1.392   3.932
 3882SOL    HW212207   2.339   1.376   3.794
 3883SOL     OW12208   3.529   1.265   4.369
 3883SOL    HW112209   3.624   1.269   4.378
 3883SOL    HW212210   3.499   1.354   4.390
 3884SOL     OW12211   3.257   0.574   3.793
 3884SOL    HW112212   3.193   0.556   3.863
 3884SOL    HW212213   3.342   0.558   3.833
 3885SOL     OW12214   2.389   0.266   4.041
 3885SOL    HW112215   2.442   0.227   3.972
 3885SOL    HW212216   2.361   0.350   4.004
 3886SOL     OW12217   3.614   1.234   5.292
 3886SOL    HW112218   3.701   1.199   5.275
 3886SOL    HW212219   3.630   1.323   5.323
 3887SOL     OW12220   2.919   1.354   5.057
 3887SOL    HW112221   2.845   1.322   5.108
 3887SOL    HW212222   2.995   1.312   5.098
 3888SOL     OW12223   3.468   1.628   5.379
 3888SOL    HW112224   3.460   1.662   5.290
 3888SOL    HW212225   3.549   1.577   5.379
 3889SOL     OW12226   2.992   1.205   4.829
 3889SOL    HW112227   2.933   1.242   4.893
 3889SOL    HW212228   2.960   1.238   4.745
 3890SOL     OW12229   3.491   1.097   4.800
 3890SOL    HW112230   3.483   1.158   4.872
 3890SOL    HW212231   3.414   1.113   4.746
 3891SOL     OW12232   2.775   0.114   5.125
 3891SOL    HW112233   2.794   0.088   5.036
 3891SOL    HW212234   2.855   0.156   5.156
 3892SOL     OW12235   2.847   1.115   5.448
 3892SOL    HW112236   2.755   1.132   5.470
 3892SOL    HW212237   2.844   1.037   5.392
 3893SOL     OW12238   2.571   1.062   4.095
 3893SOL    HW112239   2.557   1.045   4.188
 3893SOL    HW212240   2.646   1.008   4.072
 3894SOL     OW12241   2.282   0.815   4.975
 3894SOL    HW112242   2.350   0.824   5.042
 3894SOL    HW212243   2.246   0.727   4.988
 3895SOL     OW12244   3.129   0.375   5.000
 3895SOL    HW112245   3.163   0.453   5.044
 3895SOL    HW212246   3.041   0.401   4.970
 3896SOL     OW12247   1.935   1.578   5.077
 3896SOL    HW112248   1.900   1.641   5.015
 3896SOL    HW212249   2.029   1.579   5.063
 3897SOL     OW12250   2.209   1.110   4.215
 3897SOL    HW112251   2.214   1.185   4.155
 3897SOL    HW212252   2.206   1.034   4.157
 3898SOL     OW12253   2.417   0.534   4.581
 3898SOL    HW112254   2.431   0.594   4.508
 3898SOL    HW212255   2.481   0.561   4.647
 3899SOL     OW12256   3.110   1.349   4.113
 3899SOL    HW112257   3.166   1.420   4.144
 3899SOL    HW212258   3.023   1.370   4.147
 3900SOL     OW12259   3.145   1.459   4.871
 3900SOL    HW112260   3.201   1.462   4.949
 3900SOL    HW212261   3.090   1.381   4.885
 3901SOL     OW12262   3.435   0.632   4.208
 3901SOL    HW112263   3.395   0.689   4.273
 3901SOL    HW212264   3.483   0.692   4.151
 3902SOL     OW12265   2.214   1.517   5.040
 3902SOL    HW112266   2.200   1.474   4.956
 3902SOL    HW212267   2.309   1.527   5.046
 3903SOL     OW12268   2.278   0.744   5.325
 3903SOL    HW112269   2.339   0.789   5.267
 3903SOL    HW212270   2.320   0.659   5.342
 3904SOL     OW12271   3.465   0.777   5.406
 3904SOL    HW112272   3.379   0.820   5.400
 3904SOL    HW212273   3.517   0.820   5.338
 3905SOL     OW12274   2.879   0.127   5.503
 3905SOL    HW112275   2.923   0.203   5.464
 3905SOL    HW212276   2.862   0.069   5.430
 3906SOL     OW12277   2.349   0.034   5.486
 3906SOL    HW112278   2.353   0.045   5.391
 3906SOL    HW212279   2.290   0.104   5.516
 3907SOL     OW12280   2.446   0.873   4.756
 3907SOL    HW112281   2.475   0.964   4.756
 3907SOL    HW212282   2.389   0.866   4.832
 3908SOL     OW12283   3.217   0.859   4.752
 3908SOL    HW112284   3.133   0.848   4.707
 3908SOL    HW212285   3.259   0.773   4.745
 3909SOL     OW12286   3.064   0.536   3.984
 3909SOL    HW112287   3.072   0.457   4.037
 3909SOL    HW212288   3.021   0.599   4.041
 3910SOL     OW12289   2.163   0.210   4.966
 3910SOL    HW112290   2.122   0.239   5.048
 3910SOL    HW212291   2.151   0.115   4.966
 3911SOL     OW12292   1.907   1.313   5.002
 3911SOL    HW112293   1.941   1.257   5.072
 3911SOL    HW212294   1.915   1.402   5.036
 3912SOL     OW12295   2.585   0.632   4.778
 3912SOL    HW112296   2.660   0.618   4.720
 3912SOL    HW212297   2.556   0.721   4.758
 3913SOL     OW12298   3.595   0.957   5.584
 3913SOL    HW112299   3.551   0.898   5.523
 3913SOL    HW212300   3.531   0.971   5.654
 3914SOL     OW12301   2.184   0.056   4.373
 3914SOL    HW112302   2.164   0.149   4.385
 3914SOL    HW212303   2.146   0.014   4.450
 3915SOL     OW12304   3.473   0.390   4.104
 3915SOL    HW112305   3.438   0.321   4.161
 3915SOL    HW212306   3.451   0.472   4.149
 3916SOL     OW12307   2.891   0.759   4.683
 3916SOL    HW112308   2.885   0.776   4.777
 3916SOL    HW212309   2.864   0.668   4.674
 3917SOL     OW12310   2.846   1.569   5.441
 3917SOL    HW112311   2.830   1.611   5.357
 3917SOL    HW212312   2.886   1.485   5.419
 3918SOL     OW12313   3.706   1.501   5.323
 3918SOL    HW112314   3.729   1.529   5.235
 3918SOL    HW212315   3.787   1.513   5.373
 3919SOL     OW12316   2.215   0.915   5.531
 3919SOL    HW112317   2.297   0.936   5.576
 3919SOL    HW212318   2.241   0.853   5.463
 3920SOL     OW12319   3.366   0.275   3.859
 3920SOL    HW112320   3.291   0.216   3.870
 3920SOL    HW212321   3.379   0.314   3.945
 3921SOL     OW12322   3.151   0.826   3.753
 3921SOL    HW112323   3.194   0.741   3.757
 3921SOL    HW212324   3.184   0.866   3.672
 3922SOL     OW12325   2.928   1.336   4.579
 3922SOL    HW112326   2.932   1.264   4.516
 3922SOL    HW212327   2.989   1.402   4.544
 3923SOL     OW12328   2.170   0.809   4.671
 3923SOL    HW112329   2.263   0.831   4.664
 3923SOL    HW212330   2.168   0.719   4.703
 3924SOL     OW12331   2.198   0.535   4.737
 3924SOL    HW112332   2.157   0.450   4.722
 3924SOL    HW212333   2.274   0.536   4.679
 3925SOL     OW12334   2.995   0.382   5.419
 3925SOL    HW112335   2.946   0.436   5.481
 3925SOL    HW212336   3.082   0.421   5.414
 3926SOL     OW12337   3.013   0.226   5.205
 3926SOL    HW112338   3.004   0.280   5.283
 3926SOL    HW212339   3.037   0.287   5.136
 3927SOL     OW12340   1.866   1.318   3.918
 3927SOL    HW112341   1.779   1.331   3.881
 3927SOL    HW212342   1.865   1.229   3.952
 3928SOL     OW12343   1.981   1.718   4.710
 3928SOL    HW112344   1.938   1.663   4.644
 3928SOL    HW212345   2.040   1.773   4.660
 3929SOL     OW12346   2.360   1.570   4.633
 3929SOL    HW112347   2.429   1.633   4.656
 3929SOL    HW212348   2.403   1.508   4.574
 3930SOL     OW12349   2.843   0.789   4.949
 3930SOL    HW112350   2.899   0.769   5.024
 3930SOL    HW212351   2.757   0.755   4.973
 3931SOL     OW12352   1.895   0.547   4.841
 3931SOL    HW112353   1.971   0.521   4.788
 3931SOL    HW212354   1.929   0.547   4.931
 3932SOL     OW12355   2.065   0.526   5.437
 3932SOL    HW112356   2.134   0.505   5.375
 3932SOL    HW212357   2.019   0.601   5.398
 3933SOL     OW12358   3.241   0.937   5.382
 3933SOL    HW112359   3.262   1.031   5.380
 3933SOL    HW212360   3.237   0.912   5.290
 3934SOL     OW12361   2.679   0.572   4.086
 3934SOL    HW112362   2.684   0.496   4.028
 3934SOL    HW212363   2.604   0.622   4.054
 3935SOL     OW12364   3.502   0.602   4.908
 3935SOL    HW112365   3.491   0.541   4.982
 3935SOL    HW212366   3.588   0.581   4.872
 3936SOL     OW12367   2.115   1.536   5.430
 3936SOL    HW112368   2.098   1.607   5.492
 3936SOL    HW212369   2.117   1.457   5.484
 3937SOL     OW12370   2.566   0.454   4.982
 3937SOL    HW112371   2.517   0.377   4.956
 3937SOL    HW212372   2.559   0.514   4.907
 3938SOL     OW12373   2.788   1.679   5.192
 3938SOL    HW112374   2.763   1.643   5.107
 3938SOL    HW212375   2.783   1.774   5.180
 3939SOL     OW12376   2.326   0.494   3.908
 3939SOL    HW112377   2.384   0.567   3.932
 3939SOL    HW212378   2.240   0.534   3.896
 3940SOL     OW12379   2.006   1.141   5.196
 3940SOL    HW112380   2.008   1.090   5.278
 3940SOL    HW212381   2.023   1.076   5.128
 3941SOL     OW12382   3.185   1.045   4.947
 3941SOL    HW112383   3.209   0.983   4.878
 3941SOL    HW212384   3.117   1.099   4.907
 3942SOL     OW12385   3.175   0.855   4.029
 3942SOL    HW112386   3.099   0.827   4.081
 3942SOL    HW212387   3.148   0.843   3.938
 3943SOL     OW12388   3.640   1.743   4.879
 3943SOL    HW112389   3.695   1.770   4.806
 3943SOL    HW212390   3.612   1.654   4.856
 3944SOL     OW12391   3.103   1.734   4.835
 3944SOL    HW112392   3.185   1.755   4.791
 3944SOL    HW212393   3.110   1.640   4.854
 3945SOL     OW12394   1.948   1.264   4.738
 3945SOL    HW112395   1.932   1.280   4.831
 3945SOL    HW212396   1.874   1.212   4.709
 3946SOL     OW12397   2.540   1.664   5.451
 3946SOL    HW112398   2.491   1.746   5.453
 3946SOL    HW212399   2.609   1.678   5.385
 3947SOL     OW12400   3.552   0.121   4.211
 3947SOL    HW112401   3.634   0.135   4.163
 3947SOL    HW212402   3.554   0.028   4.233
 3948SOL     OW12403   3.252   1.567   4.210
 3948SOL    HW112404   3.312   1.600   4.143
 3948SOL    HW212405   3.204   1.645   4.239
 3949SOL     OW12406   2.039   1.740   5.583
 3949SOL    HW112407   1.977   1.692   5.637
 3949SOL    HW212408   2.013   1.832   5.592
 3950SOL     OW12409   3.139   0.926   4.395
 3950SOL    HW112410   3.214   0.866   4.404
 3950SOL    HW212411   3.173   0.999   4.342
 3951SOL     OW12412   2.674   1.273   5.152
 3951SOL    HW112413   2.646   1.313   5.235
 3951SOL    HW212414   2.604   1.294   5.090
 3952SOL     OW12415   2.535   1.621   3.875
 3952SOL    HW112416   2.545   1.631   3.780
 3952SOL    HW212417   2.480   1.544   3.885
 3953SOL     OW12418   3.484   1.727   5.115
 3953SOL    HW112419   3.538   1.732   5.036
 3953SOL    HW212420   3.471   1.818   5.141
 3954SOL     OW12421   3.703   0.181   4.695
 3954SOL    HW112422   3.727   0.097   4.656
 3954SOL    HW212423   3.616   0.200   4.658
 3955SOL     OW12424   2.126   0.317   4.439
 3955SOL    HW112425   2.040   0.352   4.417
 3955SOL    HW212426   2.125   0.307   4.534
 3956SOL     OW12427   3.069   1.605   3.756
 3956SOL    HW112428   3.059   1.514   3.783
 3956SOL    HW212429   3.004   1.617   3.687
 3957SOL     OW12430   2.686   1.006   5.096
 3957SOL    HW112431   2.728   1.003   5.010
 3957SOL    HW212432   2.685   1.099   5.119
 3958SOL     OW12433   2.778   0.910   4.014
 3958SOL    HW112434   2.839   0.943   3.948
 3958SOL    HW212435   2.826   0.841   4.059
 3959SOL     OW12436   3.352   1.627   3.767
 3959SOL    HW112437   3.258   1.619   3.752
 3959SOL    HW212438   3.389   1.633   3.679
 3960SOL     OW12439   2.232   1.298   5.217
 3960SOL    HW112440   2.219   1.376   5.163
 3960SOL    HW212441   2.154   1.245   5.200
 3961SOL     OW12442   3.464   1.280   5.002
 3961SOL    HW112443   3.532   1.273   5.069
 3961SOL    HW212444   3.407   1.350   5.033
 3962SOL     OW12445   2.916   1.108   4.432
 3962SOL    HW112446   2.845   1.057   4.470
 3962SOL    HW212447   2.979   1.042   4.401
 3963SOL     OW12448   2.876   0.248   4.693
 3963SOL    HW112449   2.866   0.198   4.612
 3963SOL    HW212450   2.871   0.183   4.762
 3964SOL     OW12451   2.465   1.489   4.205
 3964SOL    HW112452   2.507   1.440   4.135
 3964SOL    HW212453   2.403   1.547   4.160
 3965SOL     OW12454   3.582   0.393   5.096
 3965SOL    HW112455   3.654   0.456   5.096
 3965SOL    HW212456   3.613   0.321   5.042
 3966SOL     OW12457   2.121   1.345   4.011
 3966SOL    HW112458   2.028   1.341   3.990
 3966SOL    HW212459   2.124   1.380   4.100
 3967SOL     OW12460   1.975   1.026   5.445
 3967SOL    HW112461   1.899   1.001   5.497
 3967SOL    HW212462   2.049   0.986   5.491
 3968SOL     OW12463   2.554   0.250   5.224
 3968SOL    HW112464   2.622   0.197   5.183
 3968SOL    HW212465   2.581   0.258   5.315
 3969SOL     OW12466   1.961   0.318   3.715
 3969SOL    HW112467   1.891   0.337   3.777
 3969SOL    HW212468   1.971   0.399   3.665
 3970SOL     OW12469   3.289   0.857   5.123
 3970SOL    HW112470   3.239   0.919   5.069
 3970SOL    HW212471   3.377   0.860   5.087
 3971SOL     OW12472   1.943   0.153   4.064
 3971SOL    HW112473   1.913   0.213   3.997
 3971SOL    HW212474   2.029   0.124   4.034
 3972SOL     OW12475   3.040   1.339   3.841
 3972SOL    HW112476   2.950   1.308   3.844
 3972SOL    HW212477   3.068   1.339   3.933
 3973SOL     OW12478   2.483   0.829   5.158
 3973SOL    HW112479   2.539   0.905   5.143
 3973SOL    HW212480   2.544   0.756   5.166
 3974SOL     OW12481   3.345   1.780   4.703
 3974SOL    HW112482   3.368   1.840   4.633
 3974SOL    HW212483   3.428   1.755   4.742
 3975SOL     OW12484   2.580   0.562   5.429
 3975SOL    HW112485   2.621   0.625   5.488
 3975SOL    HW212486   2.607   0.476   5.462
 3976SOL     OW12487   3.334   1.198   5.355
 3976SOL    HW112488   3.322   1.213   5.449
 3976SOL    HW212489   3.427   1.214   5.340
 3977SOL     OW12490   2.238   1.745   5.293
 3977SOL    HW112491   2.163   1.761   5.235
 3977SOL    HW212492   2.218   1.661   5.334
 3978SOL     OW12493   3.528   0.881   4.983
 3978SOL    HW112494   3.526   0.796   4.939
 3978SOL    HW212495   3.521   0.945   4.912
 3979SOL     OW12496   3.084   0.336   4.168
 3979SOL    HW112497   3.152   0.269   4.159
 3979SOL    HW212498   3.105   0.380   4.250
 3980SOL     OW12499   2.452   0.737   4.394
 3980SOL    HW112500   2.491   0.823   4.379
 3980SOL    HW212501   2.385   0.729   4.327
 3981SOL     OW12502   3.617   0.381   5.366
 3981SOL    HW112503   3.596   0.389   5.273
 3981SOL    HW212504   3.557   0.313   5.398
 3982SOL     OW12505   3.615   0.931   5.238
 3982SOL    HW112506   3.607   1.025   5.254
 3982SOL    HW212507   3.592   0.920   5.145
 3983SOL     OW12508   2.723   1.367   3.759
 3983SOL    HW112509   2.686   1.393   3.844
 3983SOL    HW212510   2.742   1.449   3.714
 3984SOL     OW12511   2.523   1.794   4.668
 3984SOL    HW112512   2.507   1.884   4.640
 3984SOL    HW212513   2.617   1.782   4.659
 3985SOL     OW12514   2.730   0.968   4.579
 3985SOL    HW112515   2.780   0.896   4.618
 3985SOL    HW212516   2.694   1.016   4.654
 3986SOL     OW12517   2.941   0.989   3.813
 3986SOL    HW112518   2.919   1.040   3.735
 3986SOL    HW212519   3.015   0.935   3.786
 3987SOL     OW12520   3.715   1.556   4.566
 3987SOL    HW112521   3.636   1.540   4.514
 3987SOL    HW212522   3.714   1.489   4.634
 3988SOL     OW12523   2.086   1.299   5.580
 3988SOL    HW112524   2.023   1.235   5.547
 3988SOL    HW212525   2.060   1.314   5.671
 3989SOL     OW12526   1.943   1.226   4.388
 3989SOL    HW112527   1.955   1.181   4.472
 3989SOL    HW212528   2.016   1.194   4.334
 3990SOL     OW12529   2.542   1.404   5.350
 3990SOL    HW112530   2.464   1.360   5.384
 3990SOL    HW212531   2.539   1.491   5.388
 3991SOL     OW12532   3.677   0.182   4.968
 3991SOL    HW112533   3.678   0.086   4.976
 3991SOL    HW212534   3.694   0.198   4.875
 3992SOL     OW12535   2.290   0.434   4.249
 3992SOL    HW112536   2.324   0.363   4.195
 3992SOL    HW212537   2.243   0.391   4.320
 3993SOL     OW12538   3.559   1.491   4.821
 3993SOL    HW112539   3.481   1.468   4.773
 3993SOL    HW212540   3.571   1.420   4.884
 3994SOL     OW12541   2.192   0.555   5.018
 3994SOL    HW112542   2.245   0.497   5.072
 3994SOL    HW212543   2.211   0.529   4.928
 3995SOL     OW12544   2.690   1.578   4.402
 3995SOL    HW112545   2.677   1.635   4.327
 3995SOL    HW212546   2.614   1.519   4.401
 3996SOL     OW12547   3.323   0.252   4.835
 3996SOL    HW112548   3.337   0.164   4.870
 3996SOL    HW212549   3.267   0.295   4.899
 3997SOL     OW12550   2.867   0.028   4.871
 3997SOL    HW112551   2.788   3.986   4.837
 3997SOL    HW212552   2.930   3.957   4.879
 3998SOL     OW12553   2.636   1.333   4.038
 3998SOL    HW112554   2.604   1.243   4.046
 3998SOL    HW212555   2.716   1.335   4.090
 3999SOL     OW12556   2.483   1.555   5.009
 3999SOL    HW112557   2.484   1.638   5.058
 3999SOL    HW212558   2.571   1.548   4.972
 4000SOL     OW12559   3.175   0.071   3.883
 4000SOL    HW112560   3.183   3.993   3.829
 4000SOL    HW212561   3.090   0.062   3.926
 4001SOL     OW12562   3.144   0.457   4.410
 4001SOL    HW112563   3.098   0.540   4.405
 4001SOL    HW212564   3.148   0.437   4.503
 4002SOL     OW12565   3.452   0.210   4.591
 4002SOL    HW112566   3.403   0.233   4.670
 4002SOL    HW212567   3.451   0.290   4.538
 4003SOL     OW12568   1.906   1.071   4.029
 4003SOL    HW112569   2.000   1.062   4.013
 4003SOL    HW212570   1.878   0.982   4.054
 4004SOL     OW12571   2.749   1.653   4.063
 4004SOL    HW112572   2.674   1.638   4.006
 4004SOL    HW212573   2.723   1.727   4.118
 4005SOL     OW12574   2.091   0.620   5.707
 4005SOL    HW112575   2.001   0.628   5.739
 4005SOL    HW212576   2.081   0.600   5.614
 4006SOL     OW12577   2.079   0.299   6.576
 4006SOL    HW112578   2.116   0.256   6.654
 4006SOL    HW212579   1.995   0.256   6.564
 4007SOL     OW12580   1.871   0.395   6.221
 4007SOL    HW112581   1.784   0.412   6.258
 4007SOL    HW212582   1.857   0.327   6.155
 4008SOL     OW12583   3.425   1.512   6.293
 4008SOL    HW112584   3.382   1.492   6.376
 4008SOL    HW212585   3.354   1.516   6.230
 4009SOL     OW12586   2.994   0.698   6.285
 4009SOL    HW112587   3.042   0.780   6.272
 4009SOL    HW212588   2.947   0.711   6.367
 4010SOL     OW12589   3.622   0.622   5.813
 4010SOL    HW112590   3.605   0.611   5.720
 4010SOL    HW212591   3.606   0.536   5.851
 4011SOL     OW12592   2.611   1.142   6.626
 4011SOL    HW112593   2.541   1.173   6.683
 4011SOL    HW212594   2.645   1.221   6.585
 4012SOL     OW12595   2.732   0.771   7.410
 4012SOL    HW112596   2.718   0.841   7.473
 4012SOL    HW212597   2.754   0.816   7.328
 4013SOL     OW12598   2.544   1.006   6.231
 4013SOL    HW112599   2.608   0.994   6.301
 4013SOL    HW212600   2.469   1.047   6.275
 4014SOL     OW12601   2.564   1.156   7.387
 4014SOL    HW112602   2.610   1.233   7.421
 4014SOL    HW212603   2.482   1.190   7.352
 4015SOL     OW12604   3.322   1.501   6.942
 4015SOL    HW112605   3.375   1.580   6.951
 4015SOL    HW212606   3.258   1.507   7.012
 4016SOL     OW12607   2.306   0.395   7.080
 4016SOL    HW112608   2.395   0.360   7.078
 4016SOL    HW212609   2.250   0.317   7.088
 4017SOL     OW12610   3.473   0.450   6.322
 4017SOL    HW112611   3.403   0.483   6.266
 4017SOL    HW212612   3.497   0.525   6.376
 4018SOL     OW12613   2.073   1.709   6.031
 4018SOL    HW112614   2.096   1.785   6.084
 4018SOL    HW212615   2.141   1.706   5.964
 4019SOL     OW12616   2.996   1.343   7.279
 4019SOL    HW112617   3.042   1.339   7.363
 4019SOL    HW212618   2.947   1.262   7.274
 4020SOL     OW12619   2.144   1.094   6.479
 4020SOL    HW112620   2.128   1.003   6.505
 4020SOL    HW212621   2.078   1.144   6.526
 4021SOL     OW12622   2.446   0.982   5.721
 4021SOL    HW112623   2.493   1.030   5.652
 4021SOL    HW212624   2.484   1.014   5.802
 4022SOL     OW12625   3.443   0.139   7.043
 4022SOL    HW112626   3.468   0.212   6.986
 4022SOL    HW212627   3.410   0.181   7.122
 4023SOL     OW12628   1.978   0.656   6.145
 4023SOL    HW112629   1.951   0.568   6.170
 4023SOL    HW212630   1.969   0.707   6.226
 4024SOL     OW12631   3.702   1.757   5.922
 4024SOL    HW112632   3.770   1.733   5.984
 4024SOL    HW212633   3.721   1.848   5.900
 4025SOL     OW12634   1.874   1.598   5.737
 4025SOL    HW112635   1.868   1.504   5.722
 4025SOL    HW212636   1.843   1.609   5.827
 4026SOL     OW12637   3.549   0.917   6.230
 4026SOL    HW112638   3.633   0.875   6.214
 4026SOL    HW212639   3.532   0.968   6.150
 4027SOL     OW12640   3.504   1.105   6.018
 4027SOL    HW112641   3.589   1.111   5.973
 4027SOL    HW212642   3.510   1.168   6.090
 4028SOL     OW12643   1.986   0.746   7.167
 4028SOL    HW112644   2.076   0.777   7.172
 4028SOL    HW212645   1.933   0.826   7.177
 4029SOL     OW12646   3.151   1.234   7.011
 4029SOL    HW112647   3.184   1.169   6.950
 4029SOL    HW212648   3.212   1.230   7.086
 4030SOL     OW12649   2.681   0.004   6.102
 4030SOL    HW112650   2.726   0.084   6.078
 4030SOL    HW212651   2.588   0.028   6.103
 4031SOL     OW12652   2.055   0.960   6.866
 4031SOL    HW112653   2.138   0.917   6.842
 4031SOL    HW212654   1.992   0.927   6.802
 4032SOL     OW12655   3.391   0.994   5.786
 4032SOL    HW112656   3.321   0.938   5.819
 4032SOL    HW212657   3.433   1.030   5.864
 4033SOL     OW12658   3.042   1.806   7.206
 4033SOL    HW112659   3.053   1.872   7.138
 4033SOL    HW212660   3.068   1.723   7.164
 4034SOL     OW12661   2.217   0.254   7.419
 4034SOL    HW112662   2.261   0.339   7.417
 4034SOL    HW212663   2.124   0.275   7.426
 4035SOL     OW12664   3.328   1.420   6.535
 4035SOL    HW112665   3.261   1.434   6.603
 4035SOL    HW212666   3.317   1.328   6.510
 4036SOL     OW12667   3.516   1.743   6.165
 4036SOL    HW112668   3.501   1.711   6.076
 4036SOL    HW212669   3.496   1.669   6.221
 4037SOL     OW12670   2.457   0.721   5.853
 4037SOL    HW112671   2.462   0.804   5.805
 4037SOL    HW212672   2.392   0.737   5.922
 4038SOL     OW12673   3.137   0.367   6.527
 4038SOL    HW112674   3.050   0.328   6.533
 4038SOL    HW212675   3.194   0.305   6.572
 4039SOL     OW12676   3.440   1.670   5.895
 4039SOL    HW112677   3.530   1.701   5.889
 4039SOL    HW212678   3.414   1.654   5.805
 4040SOL     OW12679   2.657   0.617   7.039
 4040SOL    HW112680   2.629   0.591   7.126
 4040SOL    HW212681   2.618   0.551   6.981
 4041SOL     OW12682   3.254   0.476   7.263
 4041SOL    HW112683   3.260   0.521   7.348
 4041SOL    HW212684   3.312   0.401   7.273
 4042SOL     OW12685   2.815   0.889   7.169
 4042SOL    HW112686   2.870   0.819   7.134
 4042SOL    HW212687   2.766   0.921   7.094
 4043SOL     OW12688   2.854   0.404   6.825
 4043SOL    HW112689   2.769   0.425   6.865
 4043SOL    HW212690   2.832   0.374   6.737
 4044SOL     OW12691   2.914   0.698   6.011
 4044SOL    HW112692   2.929   0.691   6.106
 4044SOL    HW212693   2.831   0.653   5.998
 4045SOL     OW12694   1.947   0.821   6.363
 4045SOL    HW112695   2.028   0.813   6.414
 4045SOL    HW212696   1.906   0.900   6.397
 4046SOL     OW12697   2.756   0.351   5.785
 4046SOL    HW112698   2.798   0.410   5.722
 4046SOL    HW212699   2.751   0.268   5.740
 4047SOL     OW12700   3.571   0.574   7.415
 4047SOL    HW112701   3.533   0.649   7.368
 4047SOL    HW212702   3.596   0.513   7.346
 4048SOL     OW12703   3.238   1.141   6.126
 4048SOL    HW112704   3.318   1.129   6.075
 4048SOL    HW212705   3.187   1.204   6.076
 4049SOL     OW12706   2.419   0.198   6.467
 4049SOL    HW112707   2.423   0.217   6.561
 4049SOL    HW212708   2.415   0.284   6.426
 4050SOL     OW12709   2.872   1.441   6.053
 4050SOL    HW112710   2.829   1.514   6.008
 4050SOL    HW212711   2.843   1.448   6.144
 4051SOL     OW12712   3.666   1.062   6.453
 4051SOL    HW112713   3.612   1.038   6.378
 4051SOL    HW212714   3.605   1.065   6.527
 4052SOL     OW12715   3.093   1.538   7.097
 4052SOL    HW112716   3.077   1.465   7.157
 4052SOL    HW212717   3.021   1.533   7.034
 4053SOL     OW12718   2.181   0.951   5.829
 4053SOL    HW112719   2.264   0.971   5.786
 4053SOL    HW212720   2.151   0.870   5.788
 4054SOL     OW12721   3.341   0.745   6.315
 4054SOL    HW112722   3.335   0.703   6.401
 4054SOL    HW212723   3.418   0.801   6.321
 4055SOL     OW12724   2.984   1.776   5.818
 4055SOL    HW112725   2.911   1.734   5.863
 4055SOL    HW212726   3.007   1.716   5.748
 4056SOL     OW12727   2.034   0.276   7.084
 4056SOL    HW112728   1.977   0.352   7.074
 4056SOL    HW212729   2.039   0.261   7.179
 4057SOL     OW12730   3.488   1.383   5.673
 4057SOL    HW112731   3.445   1.467   5.658
 4057SOL    HW212732   3.420   1.318   5.654
 4058SOL     OW12733   3.297   0.167   5.988
 4058SOL    HW112734   3.253   0.094   5.944
 4058SOL    HW212735   3.372   0.127   6.031
 4059SOL     OW12736   2.824   1.685   6.490
 4059SOL    HW112737   2.912   1.649   6.492
 4059SOL    HW212738   2.779   1.638   6.420
 4060SOL     OW12739   2.257   0.695   6.060
 4060SOL    HW112740   2.274   0.602   6.073
 4060SOL    HW212741   2.163   0.704   6.079
 4061SOL     OW12742   3.392   0.230   7.313
 4061SOL    HW112743   3.387   0.255   7.405
 4061SOL    HW212744   3.370   0.137   7.312
 4062SOL     OW12745   2.505   0.132   5.693
 4062SOL    HW112746   2.532   0.049   5.733
 4062SOL    HW212747   2.442   0.107   5.626
 4063SOL     OW12748   2.638   0.282   7.353
 4063SOL    HW112749   2.707   0.215   7.356
 4063SOL    HW212750   2.579   0.259   7.425
 4064SOL     OW12751   2.735   1.514   6.799
 4064SOL    HW112752   2.716   1.500   6.706
 4064SOL    HW212753   2.814   1.464   6.816
 4065SOL     OW12754   3.202   0.587   7.017
 4065SOL    HW112755   3.233   0.559   7.103
 4065SOL    HW212756   3.237   0.676   7.007
 4066SOL     OW12757   2.678   1.387   6.524
 4066SOL    HW112758   2.767   1.376   6.492
 4066SOL    HW212759   2.631   1.430   6.453
 4067SOL     OW12760   2.792   0.511   6.487
 4067SOL    HW112761   2.768   0.503   6.394
 4067SOL    HW212762   2.819   0.423   6.512
 4068SOL     OW12763   2.407   0.057   6.078
 4068SOL    HW112764   2.333   0.062   6.137
 4068SOL    HW212765   2.402   0.138   6.026
 4069SOL     OW12766   3.289   1.199   5.627
 4069SOL    HW112767   3.320   1.124   5.677
 4069SOL    HW212768   3.204   1.220   5.664
 4070SOL     OW12769   2.190   0.043   5.796
 4070SOL    HW112770   2.201   0.111   5.729
 4070SOL    HW212771   2.274   0.042   5.843
 4071SOL     OW12772   2.803   0.249   6.047
 4071SOL    HW112773   2.778   0.290   5.964
 4071SOL    HW212774   2.898   0.252   6.047
 4072SOL     OW12775   2.941   0.683   7.045
 4072SOL    HW112776   2.872   0.617   7.052
 4072SOL    HW212777   3.022   0.631   7.039
 4073SOL     OW12778   3.083   1.573   6.383
 4073SOL    HW112779   3.103   1.633   6.312
 4073SOL    HW212780   3.155   1.583   6.445
 4074SOL     OW12781   3.136   1.791   6.189
 4074SOL    HW112782   3.184   1.848   6.130
 4074SOL    HW212783   3.081   1.850   6.241
 4075SOL     OW12784   2.884   0.544   5.612
 4075SOL    HW112785   2.840   0.627   5.593
 4075SOL    HW212786   2.948   0.566   5.681
 4076SOL     OW12787   1.943   0.550   6.982
 4076SOL    HW112788   2.034   0.553   6.952
 4076SOL    HW212789   1.935   0.624   7.043
 4077SOL     OW12790   2.426   0.231   6.747
 4077SOL    HW112791   2.451   0.139   6.757
 4077SOL    HW212792   2.336   0.236   6.779
 4078SOL     OW12793   2.732   0.461   6.224
 4078SOL    HW112794   2.684   0.515   6.161
 4078SOL    HW212795   2.753   0.381   6.177
 4079SOL     OW12796   2.857   0.041   6.366
 4079SOL    HW112797   2.822   0.068   6.281
 4079SOL    HW212798   2.868   3.946   6.358
 4080SOL     OW12799   3.301   1.162   6.443
 4080SOL    HW112800   3.230   1.098   6.441
 4080SOL    HW212801   3.327   1.172   6.352
 4081SOL     OW12802   3.327   0.607   6.562
 4081SOL    HW112803   3.275   0.526   6.567
 4081SOL    HW212804   3.387   0.600   6.636
 4082SOL     OW12805   3.722   0.824   5.961
 4082SOL    HW112806   3.764   0.767   6.025
 4082SOL    HW212807   3.683   0.764   5.897
 4083SOL     OW12808   2.350   1.423   5.740
 4083SOL    HW112809   2.278   1.390   5.794
 4083SOL    HW212810   2.338   1.379   5.656
 4084SOL     OW12811   3.529   1.265   6.232
 4084SOL    HW112812   3.624   1.268   6.241
 4084SOL    HW212813   3.499   1.353   6.252
 4085SOL     OW12814   3.257   0.574   5.655
 4085SOL    HW112815   3.193   0.556   5.725
 4085SOL    HW212816   3.342   0.557   5.695
 4086SOL     OW12817   2.388   0.266   5.903
 4086SOL    HW112818   2.442   0.227   5.834
 4086SOL    HW212819   2.361   0.350   5.866
 4087SOL     OW12820   3.614   1.234   7.155
 4087SOL    HW112821   3.701   1.199   7.137
 4087SOL    HW212822   3.630   1.324   7.185
 4088SOL     OW12823   2.925   1.343   6.914
 4088SOL    HW112824   2.852   1.315   6.969
 4088SOL    HW212825   3.002   1.307   6.957
 4089SOL     OW12826   3.467   1.627   7.240
 4089SOL    HW112827   3.460   1.662   7.152
 4089SOL    HW212828   3.549   1.576   7.240
 4090SOL     OW12829   2.990   1.199   6.687
 4090SOL    HW112830   2.938   1.242   6.754
 4090SOL    HW212831   2.961   1.237   6.605
 4091SOL     OW12832   3.491   1.097   6.661
 4091SOL    HW112833   3.483   1.158   6.734
 4091SOL    HW212834   3.414   1.113   6.608
 4092SOL     OW12835   2.774   0.115   6.987
 4092SOL    HW112836   2.794   0.088   6.898
 4092SOL    HW212837   2.855   0.156   7.018
 4093SOL     OW12838   2.842   1.117   7.308
 4093SOL    HW112839   2.750   1.129   7.332
 4093SOL    HW212840   2.843   1.038   7.253
 4094SOL     OW12841   2.569   1.063   5.956
 4094SOL    HW112842   2.553   1.046   6.048
 4094SOL    HW212843   2.645   1.010   5.934
 4095SOL     OW12844   2.286   0.813   6.834
 4095SOL    HW112845   2.352   0.821   6.903
 4095SOL    HW212846   2.247   0.727   6.848
 4096SOL     OW12847   3.128   0.375   6.862
 4096SOL    HW112848   3.162   0.453   6.906
 4096SOL    HW212849   3.041   0.401   6.832
 4097SOL     OW12850   2.209   1.090   6.065
 4097SOL    HW112851   2.215   1.163   6.004
 4097SOL    HW212852   2.205   1.012   6.010
 4098SOL     OW12853   2.417   0.534   6.443
 4098SOL    HW112854   2.431   0.594   6.370
 4098SOL    HW212855   2.482   0.561   6.509
 4099SOL     OW12856   3.114   1.347   5.974
 4099SOL    HW112857   3.169   1.418   6.005
 4099SOL    HW212858   3.026   1.369   6.006
 4100SOL     OW12859   3.146   1.457   6.734
 4100SOL    HW112860   3.203   1.463   6.811
 4100SOL    HW212861   3.090   1.382   6.751
 4101SOL     OW12862   3.436   0.632   6.070
 4101SOL    HW112863   3.394   0.689   6.135
 4101SOL    HW212864   3.483   0.691   6.012
 4102SOL     OW12865   2.279   0.745   7.190
 4102SOL    HW112866   2.340   0.789   7.131
 4102SOL    HW212867   2.318   0.659   7.205
 4103SOL     OW12868   3.464   0.778   7.268
 4103SOL    HW112869   3.379   0.820   7.262
 4103SOL    HW212870   3.517   0.820   7.201
 4104SOL     OW12871   2.879   0.128   7.365
 4104SOL    HW112872   2.924   0.203   7.326
 4104SOL    HW212873   2.862   0.068   7.292
 4105SOL     OW12874   2.349   0.034   7.349
 4105SOL    HW112875   2.353   0.045   7.254
 4105SOL    HW212876   2.290   0.103   7.378
 4106SOL     OW12877   2.448   0.868   6.616
 4106SOL    HW112878   2.469   0.961   6.613
 4106SOL    HW212879   2.388   0.859   6.690
 4107SOL     OW12880   3.218   0.858   6.614
 4107SOL    HW112881   3.135   0.849   6.568
 4107SOL    HW212882   3.260   0.772   6.607
 4108SOL     OW12883   3.064   0.536   5.846
 4108SOL    HW112884   3.072   0.457   5.899
 4108SOL    HW212885   3.021   0.599   5.903
 4109SOL     OW12886   2.163   0.210   6.829
 4109SOL    HW112887   2.121   0.240   6.910
 4109SOL    HW212888   2.150   0.115   6.828
 4110SOL     OW12889   1.905   1.293   6.868
 4110SOL    HW112890   1.946   1.239   6.936
 4110SOL    HW212891   1.963   1.369   6.860
 4111SOL     OW12892   2.588   0.631   6.641
 4111SOL    HW112893   2.661   0.617   6.581
 4111SOL    HW212894   2.557   0.719   6.621
 4112SOL     OW12895   3.595   0.957   7.446
 4112SOL    HW112896   3.551   0.898   7.385
 4112SOL    HW212897   3.531   0.971   7.516
 4113SOL     OW12898   2.184   0.056   6.235
 4113SOL    HW112899   2.164   0.149   6.247
 4113SOL    HW212900   2.146   0.014   6.312
 4114SOL     OW12901   3.473   0.390   5.966
 4114SOL    HW112902   3.438   0.321   6.023
 4114SOL    HW212903   3.451   0.472   6.011
 4115SOL     OW12904   2.890   0.760   6.546
 4115SOL    HW112905   2.885   0.778   6.639
 4115SOL    HW212906   2.863   0.669   6.537
 4116SOL     OW12907   2.836   1.563   7.305
 4116SOL    HW112908   2.818   1.608   7.223
 4116SOL    HW212909   2.889   1.487   7.281
 4117SOL     OW12910   3.706   1.500   7.185
 4117SOL    HW112911   3.729   1.529   7.097
 4117SOL    HW212912   3.787   1.513   7.235
 4118SOL     OW12913   2.223   0.919   7.398
 4118SOL    HW112914   2.305   0.927   7.447
 4118SOL    HW212915   2.243   0.856   7.329
 4119SOL     OW12916   3.366   0.275   5.721
 4119SOL    HW112917   3.291   0.216   5.732
 4119SOL    HW212918   3.379   0.314   5.807
 4120SOL     OW12919   3.152   0.827   5.615
 4120SOL    HW112920   3.194   0.741   5.619
 4120SOL    HW212921   3.184   0.866   5.535
 4121SOL     OW12922   2.930   1.335   6.444
 4121SOL    HW112923   2.933   1.264   6.381
 4121SOL    HW212924   2.990   1.401   6.408
 4122SOL     OW12925   2.169   0.806   6.531
 4122SOL    HW112926   2.261   0.828   6.521
 4122SOL    HW212927   2.168   0.717   6.564
 4123SOL     OW12928   2.200   0.534   6.601
 4123SOL    HW112929   2.158   0.449   6.584
 4123SOL    HW212930   2.275   0.535   6.542
 4124SOL     OW12931   2.995   0.382   7.281
 4124SOL    HW112932   2.947   0.436   7.343
 4124SOL    HW212933   3.082   0.421   7.276
 4125SOL     OW12934   3.013   0.225   7.067
 4125SOL    HW112935   3.004   0.280   7.145
 4125SOL    HW212936   3.037   0.287   6.998
 4126SOL     OW12937   1.871   1.317   5.777
 4126SOL    HW112938   1.783   1.331   5.741
 4126SOL    HW212939   1.869   1.227   5.811
 4127SOL     OW12940   2.841   0.792   6.812
 4127SOL    HW112941   2.897   0.770   6.887
 4127SOL    HW212942   2.757   0.750   6.832
 4128SOL     OW12943   1.894   0.543   6.703
 4128SOL    HW112944   1.971   0.523   6.649
 4128SOL    HW212945   1.928   0.548   6.793
 4129SOL     OW12946   2.065   0.526   7.299
 4129SOL    HW112947   2.134   0.504   7.236
 4129SOL    HW212948   2.020   0.600   7.261
 4130SOL     OW12949   3.240   0.938   7.244
 4130SOL    HW112950   3.263   1.031   7.242
 4130SOL    HW212951   3.237   0.912   7.152
 4131SOL     OW12952   2.678   0.572   5.948
 4131SOL    HW112953   2.684   0.497   5.890
 4131SOL    HW212954   2.604   0.622   5.916
 4132SOL     OW12955   3.502   0.602   6.770
 4132SOL    HW112956   3.492   0.541   6.844
 4132SOL    HW212957   3.588   0.581   6.734
 4133SOL     OW12958   2.567   0.454   6.844
 4133SOL    HW112959   2.517   0.376   6.819
 4133SOL    HW212960   2.560   0.513   6.770
 4134SOL     OW12961   2.806   1.653   7.038
 4134SOL    HW112962   2.768   1.627   6.954
 4134SOL    HW212963   2.817   1.747   7.031
 4135SOL     OW12964   2.326   0.494   5.771
 4135SOL    HW112965   2.384   0.567   5.794
 4135SOL    HW212966   2.240   0.534   5.758
 4136SOL     OW12967   2.013   1.138   7.062
 4136SOL    HW112968   2.022   1.091   7.144
 4136SOL    HW212969   2.035   1.073   6.995
 4137SOL     OW12970   3.185   1.045   6.809
 4137SOL    HW112971   3.210   0.982   6.741
 4137SOL    HW212972   3.116   1.098   6.768
 4138SOL     OW12973   3.175   0.855   5.892
 4138SOL    HW112974   3.098   0.827   5.942
 4138SOL    HW212975   3.148   0.843   5.800
 4139SOL     OW12976   3.640   1.743   6.741
 4139SOL    HW112977   3.695   1.771   6.668
 4139SOL    HW212978   3.612   1.655   6.718
 4140SOL     OW12979   3.107   1.731   6.699
 4140SOL    HW112980   3.189   1.752   6.653
 4140SOL    HW212981   3.113   1.637   6.716
 4141SOL     OW12982   1.951   1.232   6.607
 4141SOL    HW112983   1.926   1.255   6.697
 4141SOL    HW212984   1.868   1.214   6.563
 4142SOL     OW12985   3.552   0.121   6.073
 4142SOL    HW112986   3.634   0.135   6.025
 4142SOL    HW212987   3.554   0.028   6.095
 4143SOL     OW12988   3.254   1.565   6.072
 4143SOL    HW112989   3.314   1.598   6.005
 4143SOL    HW212990   3.205   1.643   6.100
 4144SOL     OW12991   3.139   0.926   6.257
 4144SOL    HW112992   3.213   0.867   6.266
 4144SOL    HW212993   3.173   0.999   6.205
 4145SOL     OW12994   2.679   1.277   7.025
 4145SOL    HW112995   2.675   1.315   7.113
 4145SOL    HW212996   2.630   1.339   6.970
 4146SOL     OW12997   2.556   1.607   5.734
 4146SOL    HW112998   2.550   1.622   5.640
 4146SOL    HW212999   2.489   1.540   5.751
 4147SOL     OW13000   3.484   1.726   6.977
 4147SOL    HW113001   3.538   1.732   6.898
 4147SOL    HW213002   3.472   1.817   7.004
 4148SOL     OW13003   3.703   0.181   6.557
 4148SOL    HW113004   3.727   0.097   6.518
 4148SOL    HW213005   3.616   0.200   6.520
 4149SOL     OW13006   2.126   0.316   6.301
 4149SOL    HW113007   2.040   0.352   6.279
 4149SOL    HW213008   2.125   0.307   6.396
 4150SOL     OW13009   3.069   1.605   5.618
 4150SOL    HW113010   3.059   1.514   5.644
 4150SOL    HW213011   3.004   1.617   5.549
 4151SOL     OW13012   2.684   1.007   6.957
 4151SOL    HW113013   2.734   0.998   6.877
 4151SOL    HW213014   2.686   1.101   6.976
 4152SOL     OW13015   2.778   0.911   5.878
 4152SOL    HW113016   2.838   0.944   5.811
 4152SOL    HW213017   2.826   0.841   5.922
 4153SOL     OW13018   3.352   1.627   5.629
 4153SOL    HW113019   3.258   1.619   5.614
 4153SOL    HW213020   3.389   1.633   5.541
 4154SOL     OW13021   3.464   1.279   6.864
 4154SOL    HW113022   3.533   1.273   6.930
 4154SOL    HW213023   3.407   1.350   6.896
 4155SOL     OW13024   2.915   1.109   6.294
 4155SOL    HW113025   2.844   1.057   6.331
 4155SOL    HW213026   2.978   1.044   6.263
 4156SOL     OW13027   2.876   0.248   6.555
 4156SOL    HW113028   2.866   0.198   6.474
 4156SOL    HW213029   2.871   0.182   6.625
 4157SOL     OW13030   3.582   0.393   6.958
 4157SOL    HW113031   3.654   0.456   6.958
 4157SOL    HW213032   3.613   0.321   6.904
 4158SOL     OW13033   2.126   1.344   5.886
 4158SOL    HW113034   2.033   1.339   5.863
 4158SOL    HW213035   2.128   1.389   5.971
 4159SOL     OW13036   1.976   1.007   7.299
 4159SOL    HW113037   1.900   0.998   7.356
 4159SOL    HW213038   2.050   0.984   7.354
 4160SOL     OW13039   2.554   0.251   7.086
 4160SOL    HW113040   2.622   0.197   7.045
 4160SOL    HW213041   2.581   0.258   7.178
 4161SOL     OW13042   1.961   0.318   5.577
 4161SOL    HW113043   1.891   0.337   5.640
 4161SOL    HW213044   1.971   0.399   5.527
 4162SOL     OW13045   3.289   0.857   6.985
 4162SOL    HW113046   3.239   0.919   6.931
 4162SOL    HW213047   3.377   0.860   6.949
 4163SOL     OW13048   1.943   0.153   5.926
 4163SOL    HW113049   1.913   0.213   5.859
 4163SOL    HW213050   2.029   0.124   5.895
 4164SOL     OW13051   3.040   1.339   5.703
 4164SOL    HW113052   2.949   1.309   5.705
 4164SOL    HW213053   3.068   1.338   5.794
 4165SOL     OW13054   2.483   0.829   7.021
 4165SOL    HW113055   2.541   0.904   7.003
 4165SOL    HW213056   2.542   0.754   7.029
 4166SOL     OW13057   3.346   1.778   6.562
 4166SOL    HW113058   3.370   1.842   6.495
 4166SOL    HW213059   3.428   1.755   6.605
 4167SOL     OW13060   2.581   0.561   7.291
 4167SOL    HW113061   2.621   0.623   7.351
 4167SOL    HW213062   2.607   0.475   7.323
 4168SOL     OW13063   3.335   1.198   7.218
 4168SOL    HW113064   3.324   1.213   7.312
 4168SOL    HW213065   3.428   1.214   7.201
 4169SOL     OW13066   3.527   0.881   6.845
 4169SOL    HW113067   3.526   0.796   6.801
 4169SOL    HW213068   3.521   0.944   6.774
 4170SOL     OW13069   3.084   0.336   6.030
 4170SOL    HW113070   3.152   0.269   6.021
 4170SOL    HW213071   3.105   0.380   6.112
 4171SOL     OW13072   2.452   0.738   6.255
 4171SOL    HW113073   2.491   0.823   6.236
 4171SOL    HW213074   2.383   0.728   6.189
 4172SOL     OW13075   3.617   0.381   7.228
 4172SOL    HW113076   3.596   0.389   7.135
 4172SOL    HW213077   3.557   0.313   7.260
 4173SOL     OW13078   3.615   0.931   7.100
 4173SOL    HW113079   3.607   1.025   7.116
 4173SOL    HW213080   3.592   0.921   7.007
 4174SOL     OW13081   2.726   1.365   5.616
 4174SOL    HW113082   2.690   1.383   5.703
 4174SOL    HW213083   2.739   1.451   5.577
 4175SOL     OW13084   2.727   0.967   6.440
 4175SOL    HW113085   2.779   0.896   6.477
 4175SOL    HW213086   2.694   1.016   6.516
 4176SOL     OW13087   2.941   0.988   5.676
 4176SOL    HW113088   2.918   1.040   5.598
 4176SOL    HW213089   3.015   0.935   5.648
 4177SOL     OW13090   3.716   1.556   6.427
 4177SOL    HW113091   3.636   1.540   6.376
 4177SOL    HW213092   3.714   1.490   6.496
 4178SOL     OW13093   1.932   1.134   6.210
 4178SOL    HW113094   1.931   1.145   6.305
 4178SOL    HW213095   2.024   1.142   6.185
 4179SOL     OW13096   3.676   0.182   6.830
 4179SOL    HW113097   3.678   0.086   6.838
 4179SOL    HW213098   3.694   0.198   6.737
 4180SOL     OW13099   2.291   0.434   6.111
 4180SOL    HW113100   2.324   0.362   6.057
 4180SOL    HW213101   2.243   0.391   6.182
 4181SOL     OW13102   3.560   1.491   6.683
 4181SOL    HW113103   3.481   1.467   6.634
 4181SOL    HW213104   3.571   1.420   6.746
 4182SOL     OW13105   2.192   0.556   6.880
 4182SOL    HW113106   2.246   0.497   6.933
 4182SOL    HW213107   2.211   0.529   6.789
 4183SOL     OW13108   2.700   1.550   6.255
 4183SOL    HW113109   2.726   1.603   6.180
 4183SOL    HW213110   2.605   1.551   6.253
 4184SOL     OW13111   3.323   0.252   6.697
 4184SOL    HW113112   3.337   0.164   6.731
 4184SOL    HW213113   3.267   0.295   6.761
 4185SOL     OW13114   2.867   0.028   6.733
 4185SOL    HW113115   2.788   3.986   6.699
 4185SOL    HW213116   2.930   3.956   6.741
 4186SOL     OW13117   2.653   1.328   5.886
 4186SOL    HW113118   2.607   1.246   5.901
 4186SOL    HW213119   2.724   1.328   5.950
 4187SOL     OW13120   3.175   0.071   5.745
 4187SOL    HW113121   3.183   3.993   5.691
 4187SOL    HW213122   3.090   0.062   5.788
 4188SOL     OW13123   3.145   0.457   6.272
 4188SOL    HW113124   3.098   0.540   6.267
 4188SOL    HW213125   3.148   0.437   6.366
 4189SOL     OW13126   3.452   0.210   6.453
 4189SOL    HW113127   3.403   0.234   6.532
 4189SOL    HW213128   3.451   0.290   6.400
 4190SOL     OW13129   1.905   1.067   5.881
 4190SOL    HW113130   2.000   1.062   5.874
 4190SOL    HW213131   1.878   0.980   5.912
 4191SOL     OW13132   2.730   1.655   5.947
 4191SOL    HW113133   2.678   1.619   5.875
 4191SOL    HW213134   2.688   1.738   5.968
 4192SOL     OW13135   2.091   0.621   7.568
 4192SOL    HW113136   2.001   0.628   7.600
 4192SOL    HW213137   2.082   0.600   7.475
 4193SOL     OW13138   2.079   0.299   8.439
 4193SOL    HW113139   2.116   0.257   8.516
 4193SOL    HW213140   1.995   0.256   8.426
 4194SOL     OW13141   1.871   0.395   8.083
 4194SOL    HW113142   1.783   0.411   8.119
 4194SOL    HW213143   1.857   0.327   8.018
 4195SOL     OW13144   2.429   1.290   8.623
 4195SOL    HW113145   2.342   1.293   8.585
 4195SOL    HW213146   2.445   1.378   8.657
 4196SOL     OW13147   3.424   1.512   8.155
 4196SOL    HW113148   3.381   1.492   8.238
 4196SOL    HW213149   3.353   1.517   8.092
 4197SOL     OW13150   2.994   0.698   8.147
 4197SOL    HW113151   3.042   0.780   8.134
 4197SOL    HW213152   2.947   0.711   8.229
 4198SOL     OW13153   3.621   0.622   7.675
 4198SOL    HW113154   3.604   0.611   7.582
 4198SOL    HW213155   3.607   0.536   7.713
 4199SOL     OW13156   2.616   1.141   8.491
 4199SOL    HW113157   2.547   1.176   8.547
 4199SOL    HW213158   2.652   1.218   8.447
 4200SOL     OW13159   2.731   0.772   9.271
 4200SOL    HW113160   2.717   0.843   9.334
 4200SOL    HW213161   2.754   0.816   9.189
 4201SOL     OW13162   2.549   1.002   8.093
 4201SOL    HW113163   2.613   0.990   8.163
 4201SOL    HW213164   2.478   1.052   8.133
 4202SOL     OW13165   2.573   1.150   9.261
 4202SOL    HW113166   2.621   1.228   9.290
 4202SOL    HW213167   2.491   1.184   9.225
 4203SOL     OW13168   2.194   1.421   8.516
 4203SOL    HW113169   2.118   1.386   8.469
 4203SOL    HW213170   2.239   1.475   8.452
 4204SOL     OW13171   3.322   1.501   8.804
 4204SOL    HW113172   3.375   1.580   8.813
 4204SOL    HW213173   3.259   1.505   8.876
 4205SOL     OW13174   2.306   0.395   8.942
 4205SOL    HW113175   2.395   0.361   8.940
 4205SOL    HW213176   2.251   0.317   8.950
 4206SOL     OW13177   3.473   0.450   8.184
 4206SOL    HW113178   3.403   0.483   8.128
 4206SOL    HW213179   3.497   0.525   8.239
 4207SOL     OW13180   2.998   1.342   9.141
 4207SOL    HW113181   3.040   1.337   9.228
 4207SOL    HW213182   2.946   1.262   9.135
 4208SOL     OW13183   2.116   1.430   8.010
 4208SOL    HW113184   2.072   1.514   7.999
 4208SOL    HW213185   2.053   1.376   8.058
 4209SOL     OW13186   2.123   1.090   8.339
 4209SOL    HW113187   2.118   1.003   8.378
 4209SOL    HW213188   2.065   1.144   8.393
 4210SOL     OW13189   2.471   1.792   8.878
 4210SOL    HW113190   2.391   1.776   8.928
 4210SOL    HW213191   2.495   1.882   8.901
 4211SOL     OW13192   2.450   0.981   7.580
 4211SOL    HW113193   2.496   1.032   7.512
 4211SOL    HW213194   2.486   1.014   7.662
 4212SOL     OW13195   3.443   0.139   8.905
 4212SOL    HW113196   3.468   0.212   8.848
 4212SOL    HW213197   3.410   0.181   8.984
 4213SOL     OW13198   1.982   0.650   8.011
 4213SOL    HW113199   1.953   0.562   8.035
 4213SOL    HW213200   1.973   0.702   8.092
 4214SOL     OW13201   3.702   1.757   7.784
 4214SOL    HW113202   3.770   1.733   7.846
 4214SOL    HW213203   3.721   1.848   7.762
 4215SOL     OW13204   3.549   0.917   8.092
 4215SOL    HW113205   3.634   0.875   8.076
 4215SOL    HW213206   3.532   0.968   8.012
 4216SOL     OW13207   3.504   1.105   7.879
 4216SOL    HW113208   3.589   1.112   7.835
 4216SOL    HW213209   3.510   1.168   7.952
 4217SOL     OW13210   1.985   0.749   9.029
 4217SOL    HW113211   2.076   0.778   9.035
 4217SOL    HW213212   1.933   0.829   9.037
 4218SOL     OW13213   2.472   1.389   8.170
 4218SOL    HW113214   2.440   1.303   8.196
 4218SOL    HW213215   2.426   1.408   8.088
 4219SOL     OW13216   3.150   1.238   8.871
 4219SOL    HW113217   3.182   1.171   8.810
 4219SOL    HW213218   3.208   1.232   8.947
 4220SOL     OW13219   2.681   0.003   7.964
 4220SOL    HW113220   2.726   0.084   7.940
 4220SOL    HW213221   2.588   0.028   7.965
 4221SOL     OW13222   2.052   0.964   8.722
 4221SOL    HW113223   2.137   0.923   8.706
 4221SOL    HW213224   1.990   0.912   8.670
 4222SOL     OW13225   3.390   0.995   7.648
 4222SOL    HW113226   3.321   0.938   7.682
 4222SOL    HW213227   3.433   1.030   7.726
 4223SOL     OW13228   3.046   1.808   9.071
 4223SOL    HW113229   3.057   1.866   8.996
 4223SOL    HW213230   3.064   1.720   9.035
 4224SOL     OW13231   2.217   0.254   9.280
 4224SOL    HW113232   2.261   0.339   9.279
 4224SOL    HW213233   2.124   0.275   9.287
 4225SOL     OW13234   3.327   1.420   8.398
 4225SOL    HW113235   3.260   1.435   8.465
 4225SOL    HW213236   3.316   1.329   8.372
 4226SOL     OW13237   3.517   1.743   8.027
 4226SOL    HW113238   3.501   1.712   7.938
 4226SOL    HW213239   3.496   1.668   8.083
 4227SOL     OW13240   2.456   0.721   7.715
 4227SOL    HW113241   2.461   0.804   7.667
 4227SOL    HW213242   2.391   0.738   7.784
 4228SOL     OW13243   3.137   0.367   8.389
 4228SOL    HW113244   3.050   0.328   8.395
 4228SOL    HW213245   3.194   0.305   8.434
 4229SOL     OW13246   3.441   1.668   7.758
 4229SOL    HW113247   3.531   1.700   7.752
 4229SOL    HW213248   3.414   1.654   7.667
 4230SOL     OW13249   2.658   0.616   8.900
 4230SOL    HW113250   2.629   0.591   8.988
 4230SOL    HW213251   2.618   0.551   8.843
 4231SOL     OW13252   3.254   0.476   9.125
 4231SOL    HW113253   3.259   0.521   9.210
 4231SOL    HW213254   3.312   0.401   9.135
 4232SOL     OW13255   2.815   0.888   9.032
 4232SOL    HW113256   2.870   0.818   8.995
 4232SOL    HW213257   2.767   0.922   8.956
 4233SOL     OW13258   2.854   0.403   8.688
 4233SOL    HW113259   2.770   0.426   8.728
 4233SOL    HW213260   2.831   0.374   8.599
 4234SOL     OW13261   2.913   0.699   7.873
 4234SOL    HW113262   2.929   0.692   7.967
 4234SOL    HW213263   2.831   0.653   7.860
 4235SOL     OW13264   1.950   0.821   8.224
 4235SOL    HW113265   2.030   0.814   8.276
 4235SOL    HW213266   1.907   0.899   8.259
 4236SOL     OW13267   2.756   0.351   7.647
 4236SOL    HW113268   2.798   0.410   7.584
 4236SOL    HW213269   2.750   0.267   7.602
 4237SOL     OW13270   3.571   0.574   9.277
 4237SOL    HW113271   3.533   0.649   9.230
 4237SOL    HW213272   3.596   0.513   9.208
 4238SOL     OW13273   3.238   1.141   7.988
 4238SOL    HW113274   3.319   1.130   7.937
 4238SOL    HW213275   3.187   1.204   7.937
 4239SOL     OW13276   2.419   0.198   8.329
 4239SOL    HW113277   2.422   0.217   8.423
 4239SOL    HW213278   2.415   0.284   8.288
 4240SOL     OW13279   2.866   1.443   7.919
 4240SOL    HW113280   2.829   1.517   7.869
 4240SOL    HW213281   2.852   1.467   8.011
 4241SOL     OW13282   2.220   1.804   8.285
 4241SOL    HW113283   2.259   1.719   8.308
 4241SOL    HW213284   2.286   1.868   8.309
 4242SOL     OW13285   3.666   1.062   8.315
 4242SOL    HW113286   3.612   1.039   8.240
 4242SOL    HW213287   3.605   1.065   8.389
 4243SOL     OW13288   3.089   1.539   8.962
 4243SOL    HW113289   3.076   1.467   9.023
 4243SOL    HW213290   3.026   1.523   8.892
 4244SOL     OW13291   2.181   0.946   7.704
 4244SOL    HW113292   2.255   0.979   7.655
 4244SOL    HW213293   2.153   0.868   7.657
 4245SOL     OW13294   3.341   0.745   8.177
 4245SOL    HW113295   3.335   0.703   8.263
 4245SOL    HW213296   3.418   0.801   8.183
 4246SOL     OW13297   2.330   1.264   9.185
 4246SOL    HW113298   2.302   1.269   9.093
 4246SOL    HW213299   2.248   1.261   9.234
 4247SOL     OW13300   2.985   1.770   7.689
 4247SOL    HW113301   2.905   1.730   7.721
 4247SOL    HW213302   3.009   1.718   7.612
 4248SOL     OW13303   2.034   0.275   8.947
 4248SOL    HW113304   1.976   0.351   8.939
 4248SOL    HW213305   2.041   0.260   9.041
 4249SOL     OW13306   3.488   1.382   7.535
 4249SOL    HW113307   3.446   1.466   7.521
 4249SOL    HW213308   3.420   1.317   7.515
 4250SOL     OW13309   3.297   0.167   7.850
 4250SOL    HW113310   3.254   0.095   7.804
 4250SOL    HW213311   3.372   0.127   7.893
 4251SOL     OW13312   2.164   1.785   8.670
 4251SOL    HW113313   2.199   1.704   8.708
 4251SOL    HW213314   2.120   1.757   8.590
 4252SOL     OW13315   2.802   1.697   8.350
 4252SOL    HW113316   2.882   1.648   8.370
 4252SOL    HW213317   2.759   1.646   8.282
 4253SOL     OW13318   2.257   0.694   7.924
 4253SOL    HW113319   2.276   0.601   7.936
 4253SOL    HW213320   2.164   0.703   7.942
 4254SOL     OW13321   3.392   0.230   9.175
 4254SOL    HW113322   3.387   0.256   9.267
 4254SOL    HW213323   3.370   0.137   9.174
 4255SOL     OW13324   2.505   0.132   7.556
 4255SOL    HW113325   2.532   0.049   7.595
 4255SOL    HW213326   2.442   0.107   7.488
 4256SOL     OW13327   2.638   0.281   9.214
 4256SOL    HW113328   2.707   0.215   9.219
 4256SOL    HW213329   2.579   0.259   9.286
 4257SOL     OW13330   2.738   1.522   8.642
 4257SOL    HW113331   2.723   1.486   8.555
 4257SOL    HW213332   2.808   1.468   8.679
 4258SOL     OW13333   3.203   0.587   8.878
 4258SOL    HW113334   3.233   0.559   8.965
 4258SOL    HW213335   3.237   0.676   8.869
 4259SOL     OW13336   2.678   1.392   8.387
 4259SOL    HW113337   2.764   1.381   8.347
 4259SOL    HW213338   2.617   1.397   8.313
 4260SOL     OW13339   2.791   0.511   8.349
 4260SOL    HW113340   2.767   0.503   8.257
 4260SOL    HW213341   2.819   0.423   8.374
 4261SOL     OW13342   2.407   0.057   7.940
 4261SOL    HW113343   2.333   0.062   7.999
 4261SOL    HW213344   2.402   0.138   7.888
 4262SOL     OW13345   3.289   1.198   7.488
 4262SOL    HW113346   3.320   1.123   7.539
 4262SOL    HW213347   3.205   1.220   7.528
 4263SOL     OW13348   2.190   0.042   7.657
 4263SOL    HW113349   2.200   0.110   7.591
 4263SOL    HW213350   2.274   0.042   7.704
 4264SOL     OW13351   2.803   0.249   7.909
 4264SOL    HW113352   2.778   0.289   7.826
 4264SOL    HW213353   2.898   0.252   7.909
 4265SOL     OW13354   2.942   0.683   8.907
 4265SOL    HW113355   2.871   0.618   8.914
 4265SOL    HW213356   3.022   0.630   8.902
 4266SOL     OW13357   3.083   1.572   8.242
 4266SOL    HW113358   3.101   1.637   8.175
 4266SOL    HW213359   3.154   1.584   8.306
 4267SOL     OW13360   2.334   1.150   8.181
 4267SOL    HW113361   2.264   1.130   8.243
 4267SOL    HW213362   2.294   1.135   8.095
 4268SOL     OW13363   3.130   1.793   8.057
 4268SOL    HW113364   3.178   1.851   7.999
 4268SOL    HW213365   3.066   1.850   8.100
 4269SOL     OW13366   2.885   0.544   7.475
 4269SOL    HW113367   2.841   0.626   7.455
 4269SOL    HW213368   2.948   0.566   7.543
 4270SOL     OW13369   1.942   0.551   8.844
 4270SOL    HW113370   2.033   0.552   8.814
 4270SOL    HW213371   1.936   0.624   8.905
 4271SOL     OW13372   2.426   0.232   8.609
 4271SOL    HW113373   2.451   0.140   8.619
 4271SOL    HW213374   2.336   0.236   8.641
 4272SOL     OW13375   2.732   0.461   8.087
 4272SOL    HW113376   2.684   0.515   8.024
 4272SOL    HW213377   2.753   0.381   8.039
 4273SOL     OW13378   2.857   0.040   8.228
 4273SOL    HW113379   2.822   0.068   8.143
 4273SOL    HW213380   2.868   3.946   8.220
 4274SOL     OW13381   3.301   1.162   8.306
 4274SOL    HW113382   3.230   1.097   8.303
 4274SOL    HW213383   3.327   1.173   8.214
 4275SOL     OW13384   3.327   0.607   8.424
 4275SOL    HW113385   3.274   0.527   8.429
 4275SOL    HW213386   3.387   0.601   8.498
 4276SOL     OW13387   3.722   0.824   7.823
 4276SOL    HW113388   3.763   0.767   7.887
 4276SOL    HW213389   3.683   0.764   7.759
 4277SOL     OW13390   3.528   1.264   8.094
 4277SOL    HW113391   3.624   1.268   8.103
 4277SOL    HW213392   3.499   1.353   8.114
 4278SOL     OW13393   3.257   0.575   7.517
 4278SOL    HW113394   3.194   0.556   7.587
 4278SOL    HW213395   3.342   0.557   7.557
 4279SOL     OW13396   2.388   0.266   7.765
 4279SOL    HW113397   2.442   0.227   7.696
 4279SOL    HW213398   2.361   0.350   7.728
 4280SOL     OW13399   3.614   1.234   9.017
 4280SOL    HW113400   3.701   1.199   8.999
 4280SOL    HW213401   3.630   1.324   9.047
 4281SOL     OW13402   2.919   1.353   8.781
 4281SOL    HW113403   2.845   1.322   8.832
 4281SOL    HW213404   2.995   1.312   8.822
 4282SOL     OW13405   3.467   1.628   9.103
 4282SOL    HW113406   3.460   1.662   9.014
 4282SOL    HW213407   3.549   1.577   9.103
 4283SOL     OW13408   2.992   1.205   8.553
 4283SOL    HW113409   2.933   1.243   8.618
 4283SOL    HW213410   2.960   1.237   8.469
 4284SOL     OW13411   3.491   1.097   8.524
 4284SOL    HW113412   3.483   1.158   8.596
 4284SOL    HW213413   3.414   1.113   8.470
 4285SOL     OW13414   2.775   0.114   8.849
 4285SOL    HW113415   2.794   0.088   8.760
 4285SOL    HW213416   2.855   0.156   8.880
 4286SOL     OW13417   2.846   1.115   9.171
 4286SOL    HW113418   2.754   1.131   9.193
 4286SOL    HW213419   2.844   1.037   9.116
 4287SOL     OW13420   2.572   1.064   7.817
 4287SOL    HW113421   2.555   1.046   7.910
 4287SOL    HW213422   2.647   1.009   7.795
 4288SOL     OW13423   2.282   0.815   8.699
 4288SOL    HW113424   2.350   0.824   8.766
 4288SOL    HW213425   2.246   0.727   8.712
 4289SOL     OW13426   3.128   0.375   8.724
 4289SOL    HW113427   3.163   0.453   8.768
 4289SOL    HW213428   3.041   0.401   8.694
 4290SOL     OW13429   1.936   1.578   8.803
 4290SOL    HW113430   1.902   1.638   8.737
 4290SOL    HW213431   2.030   1.576   8.787
 4291SOL     OW13432   2.216   1.105   7.940
 4291SOL    HW113433   2.194   1.176   7.879
 4291SOL    HW213434   2.217   1.026   7.885
 4292SOL     OW13435   2.417   0.534   8.305
 4292SOL    HW113436   2.431   0.594   8.232
 4292SOL    HW213437   2.481   0.561   8.371
 4293SOL     OW13438   3.110   1.349   7.837
 4293SOL    HW113439   3.166   1.421   7.868
 4293SOL    HW213440   3.023   1.370   7.871
 4294SOL     OW13441   3.144   1.459   8.596
 4294SOL    HW113442   3.201   1.462   8.673
 4294SOL    HW213443   3.090   1.381   8.609
 4295SOL     OW13444   3.435   0.632   7.932
 4295SOL    HW113445   3.395   0.689   7.997
 4295SOL    HW213446   3.484   0.691   7.875
 4296SOL     OW13447   2.211   1.525   8.762
 4296SOL    HW113448   2.198   1.480   8.678
 4296SOL    HW213449   2.306   1.533   8.770
 4297SOL     OW13450   2.278   0.744   9.050
 4297SOL    HW113451   2.339   0.789   8.991
 4297SOL    HW213452   2.319   0.660   9.066
 4298SOL     OW13453   3.464   0.777   9.130
 4298SOL    HW113454   3.379   0.820   9.124
 4298SOL    HW213455   3.517   0.820   9.063
 4299SOL     OW13456   2.879   0.128   9.227
 4299SOL    HW113457   2.923   0.203   9.188
 4299SOL    HW213458   2.862   0.069   9.154
 4300SOL     OW13459   2.349   0.034   9.210
 4300SOL    HW113460   2.353   0.045   9.115
 4300SOL    HW213461   2.290   0.104   9.240
 4301SOL     OW13462   2.446   0.873   8.480
 4301SOL    HW113463   2.475   0.964   8.480
 4301SOL    HW213464   2.389   0.866   8.556
 4302SOL     OW13465   3.217   0.859   8.476
 4302SOL    HW113466   3.134   0.848   8.431
 4302SOL    HW213467   3.260   0.773   8.469
 4303SOL     OW13468   3.064   0.536   7.708
 4303SOL    HW113469   3.072   0.457   7.761
 4303SOL    HW213470   3.020   0.599   7.765
 4304SOL     OW13471   2.163   0.210   8.691
 4304SOL    HW113472   2.122   0.239   8.772
 4304SOL    HW213473   2.151   0.115   8.690
 4305SOL     OW13474   1.908   1.313   8.726
 4305SOL    HW113475   1.941   1.256   8.796
 4305SOL    HW213476   1.914   1.401   8.761
 4306SOL     OW13477   2.586   0.632   8.502
 4306SOL    HW113478   2.661   0.618   8.444
 4306SOL    HW213479   2.556   0.721   8.482
 4307SOL     OW13480   3.595   0.957   9.308
 4307SOL    HW113481   3.551   0.898   9.247
 4307SOL    HW213482   3.531   0.971   9.378
 4308SOL     OW13483   2.184   0.056   8.097
 4308SOL    HW113484   2.164   0.149   8.109
 4308SOL    HW213485   2.146   0.014   8.174
 4309SOL     OW13486   3.472   0.390   7.828
 4309SOL    HW113487   3.438   0.321   7.885
 4309SOL    HW213488   3.450   0.472   7.873
 4310SOL     OW13489   2.891   0.759   8.407
 4310SOL    HW113490   2.885   0.776   8.501
 4310SOL    HW213491   2.864   0.668   8.398
 4311SOL     OW13492   2.844   1.567   9.166
 4311SOL    HW113493   2.829   1.610   9.082
 4311SOL    HW213494   2.887   1.484   9.143
 4312SOL     OW13495   3.706   1.501   9.047
 4312SOL    HW113496   3.729   1.529   8.959
 4312SOL    HW213497   3.787   1.513   9.098
 4313SOL     OW13498   2.215   0.915   9.257
 4313SOL    HW113499   2.296   0.935   9.303
 4313SOL    HW213500   2.240   0.853   9.189
 4314SOL     OW13501   3.366   0.275   7.583
 4314SOL    HW113502   3.291   0.216   7.594
 4314SOL    HW213503   3.379   0.314   7.670
 4315SOL     OW13504   3.151   0.826   7.477
 4315SOL    HW113505   3.194   0.741   7.481
 4315SOL    HW213506   3.184   0.866   7.397
 4316SOL     OW13507   2.928   1.337   8.303
 4316SOL    HW113508   2.932   1.264   8.240
 4316SOL    HW213509   2.989   1.402   8.268
 4317SOL     OW13510   2.170   0.810   8.395
 4317SOL    HW113511   2.263   0.830   8.388
 4317SOL    HW213512   2.168   0.719   8.427
 4318SOL     OW13513   2.198   0.535   8.461
 4318SOL    HW113514   2.157   0.450   8.446
 4318SOL    HW213515   2.274   0.536   8.403
 4319SOL     OW13516   2.995   0.382   9.143
 4319SOL    HW113517   2.946   0.436   9.205
 4319SOL    HW213518   3.082   0.421   9.138
 4320SOL     OW13519   3.013   0.225   8.929
 4320SOL    HW113520   3.004   0.280   9.007
 4320SOL    HW213521   3.037   0.287   8.860
 4321SOL     OW13522   1.853   1.271   7.643
 4321SOL    HW113523   1.759   1.263   7.623
 4321SOL    HW213524   1.875   1.188   7.686
 4322SOL     OW13525   1.981   1.726   8.436
 4322SOL    HW113526   1.938   1.667   8.374
 4322SOL    HW213527   2.030   1.788   8.381
 4323SOL     OW13528   2.360   1.572   8.356
 4323SOL    HW113529   2.426   1.637   8.380
 4323SOL    HW213530   2.406   1.511   8.298
 4324SOL     OW13531   2.843   0.789   8.673
 4324SOL    HW113532   2.898   0.769   8.748
 4324SOL    HW213533   2.757   0.754   8.696
 4325SOL     OW13534   1.895   0.547   8.565
 4325SOL    HW113535   1.970   0.521   8.511
 4325SOL    HW213536   1.929   0.547   8.655
 4326SOL     OW13537   2.065   0.526   9.161
 4326SOL    HW113538   2.134   0.505   9.099
 4326SOL    HW213539   2.020   0.601   9.122
 4327SOL     OW13540   3.241   0.937   9.106
 4327SOL    HW113541   3.262   1.031   9.104
 4327SOL    HW213542   3.237   0.912   9.014
 4328SOL     OW13543   2.679   0.572   7.810
 4328SOL    HW113544   2.684   0.497   7.751
 4328SOL    HW213545   2.604   0.622   7.778
 4329SOL     OW13546   3.502   0.602   8.632
 4329SOL    HW113547   3.491   0.541   8.706
 4329SOL    HW213548   3.588   0.581   8.596
 4330SOL     OW13549   2.115   1.537   9.156
 4330SOL    HW113550   2.098   1.607   9.218
 4330SOL    HW213551   2.116   1.457   9.209
 4331SOL     OW13552   2.566   0.454   8.706
 4331SOL    HW113553   2.517   0.377   8.680
 4331SOL    HW213554   2.559   0.514   8.631
 4332SOL     OW13555   2.788   1.679   8.916
 4332SOL    HW113556   2.763   1.643   8.831
 4332SOL    HW213557   2.783   1.774   8.905
 4333SOL     OW13558   2.326   0.494   7.633
 4333SOL    HW113559   2.383   0.567   7.657
 4333SOL    HW213560   2.240   0.534   7.620
 4334SOL     OW13561   2.006   1.141   8.921
 4334SOL    HW113562   2.008   1.091   9.002
 4334SOL    HW213563   2.024   1.076   8.852
 4335SOL     OW13564   3.185   1.045   8.671
 4335SOL    HW113565   3.209   0.983   8.603
 4335SOL    HW213566   3.117   1.099   8.631
 4336SOL     OW13567   3.174   0.855   7.754
 4336SOL    HW113568   3.099   0.826   7.805
 4336SOL    HW213569   3.148   0.842   7.662
 4337SOL     OW13570   3.641   1.743   8.604
 4337SOL    HW113571   3.696   1.770   8.530
 4337SOL    HW213572   3.612   1.655   8.580
 4338SOL     OW13573   3.102   1.733   8.559
 4338SOL    HW113574   3.185   1.755   8.515
 4338SOL    HW213575   3.110   1.640   8.578
 4339SOL     OW13576   1.949   1.265   8.461
 4339SOL    HW113577   1.932   1.280   8.554
 4339SOL    HW213578   1.874   1.213   8.431
 4340SOL     OW13579   2.538   1.667   9.177
 4340SOL    HW113580   2.487   1.747   9.177
 4340SOL    HW213581   2.605   1.680   9.110
 4341SOL     OW13582   3.552   0.121   7.935
 4341SOL    HW113583   3.634   0.135   7.887
 4341SOL    HW213584   3.554   0.028   7.957
 4342SOL     OW13585   3.252   1.567   7.934
 4342SOL    HW113586   3.313   1.599   7.867
 4342SOL    HW213587   3.203   1.645   7.961
 4343SOL     OW13588   2.037   1.741   9.307
 4343SOL    HW113589   1.972   1.697   9.362
 4343SOL    HW213590   2.006   1.831   9.301
 4344SOL     OW13591   3.139   0.926   8.119
 4344SOL    HW113592   3.213   0.867   8.128
 4344SOL    HW213593   3.173   0.999   8.066
 4345SOL     OW13594   2.674   1.273   8.877
 4345SOL    HW113595   2.646   1.313   8.959
 4345SOL    HW213596   2.604   1.295   8.815
 4346SOL     OW13597   3.483   1.727   8.839
 4346SOL    HW113598   3.538   1.732   8.760
 4346SOL    HW213599   3.471   1.818   8.865
 4347SOL     OW13600   3.703   0.181   8.419
 4347SOL    HW113601   3.727   0.097   8.380
 4347SOL    HW213602   3.616   0.200   8.382
 4348SOL     OW13603   2.126   0.316   8.163
 4348SOL    HW113604   2.040   0.351   8.141
 4348SOL    HW213605   2.125   0.307   8.258
 4349SOL     OW13606   3.070   1.608   7.479
 4349SOL    HW113607   3.057   1.517   7.504
 4349SOL    HW213608   3.006   1.623   7.410
 4350SOL     OW13609   2.686   1.006   8.821
 4350SOL    HW113610   2.729   1.002   8.735
 4350SOL    HW213611   2.685   1.099   8.843
 4351SOL     OW13612   2.778   0.910   7.737
 4351SOL    HW113613   2.840   0.943   7.672
 4351SOL    HW213614   2.825   0.841   7.783
 4352SOL     OW13615   3.353   1.624   7.491
 4352SOL    HW113616   3.259   1.621   7.477
 4352SOL    HW213617   3.390   1.632   7.403
 4353SOL     OW13618   2.232   1.300   8.939
 4353SOL    HW113619   2.217   1.379   8.886
 4353SOL    HW213620   2.154   1.246   8.924
 4354SOL     OW13621   3.464   1.280   8.726
 4354SOL    HW113622   3.532   1.273   8.793
 4354SOL    HW213623   3.407   1.350   8.757
 4355SOL     OW13624   2.916   1.108   8.156
 4355SOL    HW113625   2.845   1.057   8.194
 4355SOL    HW213626   2.979   1.043   8.125
 4356SOL     OW13627   2.876   0.248   8.417
 4356SOL    HW113628   2.866   0.198   8.336
 4356SOL    HW213629   2.871   0.183   8.486
 4357SOL     OW13630   3.582   0.393   8.820
 4357SOL    HW113631   3.654   0.456   8.820
 4357SOL    HW213632   3.613   0.321   8.766
 4358SOL     OW13633   2.123   1.290   7.766
 4358SOL    HW113634   2.056   1.317   7.703
 4358SOL    HW213635   2.123   1.359   7.832
 4359SOL     OW13636   1.975   1.025   9.168
 4359SOL    HW113637   1.899   1.000   9.221
 4359SOL    HW213638   2.049   0.985   9.214
 4360SOL     OW13639   2.554   0.250   8.948
 4360SOL    HW113640   2.622   0.197   8.907
 4360SOL    HW213641   2.581   0.258   9.039
 4361SOL     OW13642   1.961   0.318   7.439
 4361SOL    HW113643   1.890   0.337   7.500
 4361SOL    HW213644   1.972   0.399   7.389
 4362SOL     OW13645   3.289   0.857   8.847
 4362SOL    HW113646   3.239   0.919   8.793
 4362SOL    HW213647   3.377   0.859   8.811
 4363SOL     OW13648   1.944   0.153   7.788
 4363SOL    HW113649   1.912   0.213   7.721
 4363SOL    HW213650   2.029   0.124   7.757
 4364SOL     OW13651   3.041   1.339   7.567
 4364SOL    HW113652   2.954   1.299   7.574
 4364SOL    HW213653   3.073   1.343   7.657
 4365SOL     OW13654   2.483   0.829   8.882
 4365SOL    HW113655   2.539   0.905   8.867
 4365SOL    HW213656   2.543   0.756   8.890
 4366SOL     OW13657   3.345   1.780   8.427
 4366SOL    HW113658   3.368   1.840   8.357
 4366SOL    HW213659   3.428   1.755   8.466
 4367SOL     OW13660   2.580   0.562   9.153
 4367SOL    HW113661   2.621   0.625   9.212
 4367SOL    HW213662   2.607   0.476   9.186
 4368SOL     OW13663   3.334   1.199   9.079
 4368SOL    HW113664   3.323   1.213   9.173
 4368SOL    HW213665   3.427   1.214   9.063
 4369SOL     OW13666   2.238   1.746   9.019
 4369SOL    HW113667   2.156   1.762   8.973
 4369SOL    HW213668   2.225   1.661   9.062
 4370SOL     OW13669   3.527   0.881   8.707
 4370SOL    HW113670   3.526   0.796   8.663
 4370SOL    HW213671   3.521   0.944   8.636
 4371SOL     OW13672   3.084   0.336   7.892
 4371SOL    HW113673   3.152   0.269   7.883
 4371SOL    HW213674   3.105   0.380   7.974
 4372SOL     OW13675   2.452   0.737   8.118
 4372SOL    HW113676   2.491   0.824   8.102
 4372SOL    HW213677   2.385   0.728   8.051
 4373SOL     OW13678   3.617   0.381   9.090
 4373SOL    HW113679   3.596   0.389   8.997
 4373SOL    HW213680   3.557   0.313   9.122
 4374SOL     OW13681   3.615   0.931   8.962
 4374SOL    HW113682   3.607   1.025   8.978
 4374SOL    HW213683   3.592   0.920   8.869
 4375SOL     OW13684   2.696   1.373   7.464
 4375SOL    HW113685   2.686   1.385   7.559
 4375SOL    HW213686   2.735   1.455   7.434
 4376SOL     OW13687   2.523   1.791   8.389
 4376SOL    HW113688   2.504   1.882   8.365
 4376SOL    HW213689   2.619   1.785   8.385
 4377SOL     OW13690   2.730   0.968   8.303
 4377SOL    HW113691   2.780   0.896   8.341
 4377SOL    HW213692   2.694   1.015   8.378
 4378SOL     OW13693   2.941   0.990   7.536
 4378SOL    HW113694   2.920   1.040   7.457
 4378SOL    HW213695   3.015   0.935   7.511
 4379SOL     OW13696   3.716   1.557   8.290
 4379SOL    HW113697   3.637   1.540   8.238
 4379SOL    HW213698   3.714   1.489   8.357
 4380SOL     OW13699   2.089   1.301   9.304
 4380SOL    HW113700   2.021   1.239   9.278
 4380SOL    HW213701   2.075   1.313   9.398
 4381SOL     OW13702   1.950   1.229   8.109
 4381SOL    HW113703   1.956   1.184   8.193
 4381SOL    HW213704   2.010   1.181   8.052
 4382SOL     OW13705   2.543   1.404   9.075
 4382SOL    HW113706   2.464   1.360   9.108
 4382SOL    HW213707   2.539   1.492   9.113
 4383SOL     OW13708   3.676   0.182   8.692
 4383SOL    HW113709   3.678   0.086   8.700
 4383SOL    HW213710   3.694   0.198   8.599
 4384SOL     OW13711   2.291   0.433   7.973
 4384SOL    HW113712   2.324   0.362   7.919
 4384SOL    HW213713   2.243   0.390   8.044
 4385SOL     OW13714   3.559   1.491   8.546
 4385SOL    HW113715   3.480   1.468   8.497
 4385SOL    HW213716   3.571   1.420   8.608
 4386SOL     OW13717   2.192   0.556   8.742
 4386SOL    HW113718   2.245   0.497   8.796
 4386SOL    HW213719   2.211   0.529   8.652
 4387SOL     OW13720   2.692   1.573   8.130
 4387SOL    HW113721   2.673   1.637   8.061
 4387SOL    HW213722   2.615   1.515   8.129
 4388SOL     OW13723   3.323   0.252   8.559
 4388SOL    HW113724   3.337   0.164   8.594
 4388SOL    HW213725   3.267   0.295   8.623
 4389SOL     OW13726   2.867   0.028   8.595
 4389SOL    HW113727   2.788   3.986   8.561
 4389SOL    HW213728   2.930   3.957   8.603
 4390SOL     OW13729   2.657   1.325   7.740
 4390SOL    HW113730   2.614   1.243   7.761
 4390SOL    HW213731   2.723   1.336   7.808
 4391SOL     OW13732   2.482   1.556   8.734
 4391SOL    HW113733   2.484   1.638   8.783
 4391SOL    HW213734   2.570   1.548   8.697
 4392SOL     OW13735   3.175   0.071   7.608
 4392SOL    HW113736   3.184   3.994   7.553
 4392SOL    HW213737   3.089   0.061   7.650
 4393SOL     OW13738   3.144   0.457   8.134
 4393SOL    HW113739   3.097   0.540   8.129
 4393SOL    HW213740   3.148   0.437   8.227
 4394SOL     OW13741   3.452   0.210   8.315
 4394SOL    HW113742   3.403   0.233   8.394
 4394SOL    HW213743   3.451   0.290   8.262
 4395SOL     OW13744   1.909   1.052   7.778
 4395SOL    HW113745   2.003   1.049   7.757
 4395SOL    HW213746   1.886   0.961   7.796
 4396SOL     OW13747   2.736   1.649   7.791
 4396SOL    HW113748   2.657   1.626   7.742
 4396SOL    HW213749   2.708   1.722   7.848
 4397SOL     OW13750   2.090   0.620   9.431
 4397SOL    HW113751   2.000   0.627   9.463
 4397SOL    HW213752   2.082   0.600   9.338
 4398SOL     OW13753   2.079   0.299  10.301
 4398SOL    HW113754   2.116   0.257  10.378
 4398SOL    HW213755   1.995   0.256  10.288
 4399SOL     OW13756   1.871   0.396   9.944
 4399SOL    HW113757   1.784   0.411   9.981
 4399SOL    HW213758   1.858   0.326   9.880
 4400SOL     OW13759   2.430   1.289  10.486
 4400SOL    HW113760   2.343   1.293  10.446
 4400SOL    HW213761   2.446   1.378  10.518
 4401SOL     OW13762   3.424   1.512  10.017
 4401SOL    HW113763   3.381   1.492  10.100
 4401SOL    HW213764   3.353   1.517   9.954
 4402SOL     OW13765   2.994   0.698  10.009
 4402SOL    HW113766   3.042   0.780   9.995
 4402SOL    HW213767   2.947   0.711  10.091
 4403SOL     OW13768   3.622   0.623   9.537
 4403SOL    HW113769   3.605   0.611   9.444
 4403SOL    HW213770   3.606   0.536   9.575
 4404SOL     OW13771   2.617   1.141  10.353
 4404SOL    HW113772   2.548   1.176  10.409
 4404SOL    HW213773   2.652   1.218  10.308
 4405SOL     OW13774   2.731   0.772  11.133
 4405SOL    HW113775   2.717   0.843  11.196
 4405SOL    HW213776   2.754   0.816  11.051
 4406SOL     OW13777   2.548   1.001   9.956
 4406SOL    HW113778   2.613   0.991  10.025
 4406SOL    HW213779   2.479   1.054   9.995
 4407SOL     OW13780   2.574   1.150  11.123
 4407SOL    HW113781   2.621   1.228  11.152
 4407SOL    HW213782   2.491   1.184  11.088
 4408SOL     OW13783   2.194   1.420  10.378
 4408SOL    HW113784   2.118   1.387  10.330
 4408SOL    HW213785   2.241   1.474  10.315
 4409SOL     OW13786   3.322   1.500  10.666
 4409SOL    HW113787   3.374   1.580  10.675
 4409SOL    HW213788   3.258   1.505  10.737
 4410SOL     OW13789   2.306   0.394  10.804
 4410SOL    HW113790   2.395   0.361  10.802
 4410SOL    HW213791   2.251   0.316  10.812
 4411SOL     OW13792   3.473   0.450  10.046
 4411SOL    HW113793   3.403   0.483   9.990
 4411SOL    HW213794   3.496   0.525  10.101
 4412SOL     OW13795   2.091   1.694   9.769
 4412SOL    HW113796   2.105   1.764   9.834
 4412SOL    HW213797   2.170   1.696   9.715
 4413SOL     OW13798   2.999   1.342  11.003
 4413SOL    HW113799   3.039   1.337  11.090
 4413SOL    HW213800   2.946   1.262  10.997
 4414SOL     OW13801   2.091   1.433   9.846
 4414SOL    HW113802   2.080   1.527   9.838
 4414SOL    HW213803   2.029   1.407   9.914
 4415SOL     OW13804   2.121   1.090  10.200
 4415SOL    HW113805   2.117   1.003  10.240
 4415SOL    HW213806   2.064   1.144  10.255
 4416SOL     OW13807   2.473   1.791  10.741
 4416SOL    HW113808   2.391   1.775  10.789
 4416SOL    HW213809   2.497   1.881  10.766
 4417SOL     OW13810   2.446   0.983   9.445
 4417SOL    HW113811   2.493   1.030   9.377
 4417SOL    HW213812   2.485   1.014   9.527
 4418SOL     OW13813   3.443   0.139  10.767
 4418SOL    HW113814   3.468   0.212  10.710
 4418SOL    HW213815   3.410   0.181  10.846
 4419SOL     OW13816   1.978   0.655   9.870
 4419SOL    HW113817   1.951   0.567   9.893
 4419SOL    HW213818   1.970   0.705   9.951
 4420SOL     OW13819   3.702   1.757   9.646
 4420SOL    HW113820   3.770   1.733   9.708
 4420SOL    HW213821   3.721   1.848   9.624
 4421SOL     OW13822   1.864   1.606   9.467
 4421SOL    HW113823   1.855   1.512   9.450
 4421SOL    HW213824   1.889   1.611   9.559
 4422SOL     OW13825   3.549   0.917   9.954
 4422SOL    HW113826   3.634   0.875   9.938
 4422SOL    HW213827   3.532   0.968   9.874
 4423SOL     OW13828   3.504   1.105   9.741
 4423SOL    HW113829   3.589   1.112   9.697
 4423SOL    HW213830   3.510   1.168   9.814
 4424SOL     OW13831   1.985   0.749  10.891
 4424SOL    HW113832   2.076   0.778  10.897
 4424SOL    HW213833   1.933   0.829  10.899
 4425SOL     OW13834   2.477   1.387  10.044
 4425SOL    HW113835   2.431   1.304  10.054
 4425SOL    HW213836   2.459   1.414   9.954
 4426SOL     OW13837   3.150   1.238  10.733
 4426SOL    HW113838   3.182   1.171  10.673
 4426SOL    HW213839   3.208   1.232  10.809
 4427SOL     OW13840   2.681   0.003   9.826
 4427SOL    HW113841   2.726   0.084   9.802
 4427SOL    HW213842   2.588   0.027   9.827
 4428SOL     OW13843   2.051   0.964  10.584
 4428SOL    HW113844   2.137   0.923  10.568
 4428SOL    HW213845   1.990   0.912  10.531
 4429SOL     OW13846   3.391   0.994   9.510
 4429SOL    HW113847   3.321   0.938   9.543
 4429SOL    HW213848   3.433   1.030   9.588
 4430SOL     OW13849   3.047   1.808  10.933
 4430SOL    HW113850   3.057   1.866  10.858
 4430SOL    HW213851   3.064   1.720  10.897
 4431SOL     OW13852   2.217   0.254  11.142
 4431SOL    HW113853   2.261   0.339  11.141
 4431SOL    HW213854   2.124   0.275  11.149
 4432SOL     OW13855   3.328   1.420  10.260
 4432SOL    HW113856   3.261   1.435  10.327
 4432SOL    HW213857   3.317   1.329  10.235
 4433SOL     OW13858   3.517   1.743   9.889
 4433SOL    HW113859   3.500   1.711   9.800
 4433SOL    HW213860   3.495   1.669   9.945
 4434SOL     OW13861   2.457   0.721   9.577
 4434SOL    HW113862   2.462   0.803   9.528
 4434SOL    HW213863   2.393   0.737   9.646
 4435SOL     OW13864   3.137   0.367  10.251
 4435SOL    HW113865   3.050   0.328  10.257
 4435SOL    HW213866   3.194   0.305  10.296
 4436SOL     OW13867   3.440   1.670   9.620
 4436SOL    HW113868   3.530   1.701   9.614
 4436SOL    HW213869   3.414   1.654   9.529
 4437SOL     OW13870   2.658   0.616  10.763
 4437SOL    HW113871   2.629   0.591  10.850
 4437SOL    HW213872   2.618   0.551  10.705
 4438SOL     OW13873   3.254   0.476  10.987
 4438SOL    HW113874   3.259   0.521  11.072
 4438SOL    HW213875   3.312   0.401  10.997
 4439SOL     OW13876   2.815   0.888  10.894
 4439SOL    HW113877   2.870   0.818  10.857
 4439SOL    HW213878   2.767   0.922  10.818
 4440SOL     OW13879   2.854   0.403  10.550
 4440SOL    HW113880   2.770   0.426  10.590
 4440SOL    HW213881   2.831   0.374  10.461
 4441SOL     OW13882   2.913   0.699   9.735
 4441SOL    HW113883   2.929   0.692   9.830
 4441SOL    HW213884   2.831   0.653   9.722
 4442SOL     OW13885   1.950   0.822  10.086
 4442SOL    HW113886   2.030   0.814  10.138
 4442SOL    HW213887   1.906   0.900  10.122
 4443SOL     OW13888   2.756   0.351   9.509
 4443SOL    HW113889   2.798   0.410   9.446
 4443SOL    HW213890   2.751   0.267   9.464
 4444SOL     OW13891   3.571   0.574  11.139
 4444SOL    HW113892   3.533   0.649  11.092
 4444SOL    HW213893   3.596   0.513  11.070
 4445SOL     OW13894   3.238   1.141   9.850
 4445SOL    HW113895   3.318   1.130   9.799
 4445SOL    HW213896   3.186   1.204   9.800
 4446SOL     OW13897   2.419   0.198  10.191
 4446SOL    HW113898   2.422   0.217  10.285
 4446SOL    HW213899   2.415   0.284  10.150
 4447SOL     OW13900   2.866   1.444   9.781
 4447SOL    HW113901   2.830   1.518   9.732
 4447SOL    HW213902   2.847   1.465   9.872
 4448SOL     OW13903   2.226   1.800  10.142
 4448SOL    HW113904   2.259   1.713  10.167
 4448SOL    HW213905   2.292   1.861  10.175
 4449SOL     OW13906   3.666   1.062  10.177
 4449SOL    HW113907   3.612   1.038  10.102
 4449SOL    HW213908   3.605   1.065  10.250
 4450SOL     OW13909   3.089   1.539  10.823
 4450SOL    HW113910   3.076   1.466  10.884
 4450SOL    HW213911   3.026   1.524  10.754
 4451SOL     OW13912   2.181   0.959   9.561
 4451SOL    HW113913   2.264   0.978   9.516
 4451SOL    HW213914   2.152   0.876   9.523
 4452SOL     OW13915   3.341   0.744  10.039
 4452SOL    HW113916   3.335   0.703  10.125
 4452SOL    HW213917   3.418   0.801  10.045
 4453SOL     OW13918   2.330   1.264  11.048
 4453SOL    HW113919   2.303   1.268  10.957
 4453SOL    HW213920   2.248   1.261  11.097
 4454SOL     OW13921   2.984   1.778   9.541
 4454SOL    HW113922   2.910   1.737   9.586
 4454SOL    HW213923   3.008   1.716   9.472
 4455SOL     OW13924   2.034   0.275  10.809
 4455SOL    HW113925   1.976   0.351  10.801
 4455SOL    HW213926   2.041   0.260  10.903
 4456SOL     OW13927   3.488   1.383   9.397
 4456SOL    HW113928   3.445   1.467   9.382
 4456SOL    HW213929   3.420   1.318   9.378
 4457SOL     OW13930   2.338   1.715   9.652
 4457SOL    HW113931   2.373   1.790   9.700
 4457SOL    HW213932   2.394   1.708   9.575
 4458SOL     OW13933   3.297   0.167   9.712
 4458SOL    HW113934   3.254   0.095   9.667
 4458SOL    HW213935   3.372   0.127   9.755
 4459SOL     OW13936   2.159   1.766  10.536
 4459SOL    HW113937   2.198   1.684  10.567
 4459SOL    HW213938   2.119   1.743  10.452
 4460SOL     OW13939   2.799   1.699  10.208
 4460SOL    HW113940   2.877   1.648  10.230
 4460SOL    HW213941   2.756   1.649  10.138
 4461SOL     OW13942   2.256   0.695   9.785
 4461SOL    HW113943   2.275   0.602   9.797
 4461SOL    HW213944   2.162   0.703   9.803
 4462SOL     OW13945   3.393   0.230  11.037
 4462SOL    HW113946   3.387   0.256  11.129
 4462SOL    HW213947   3.370   0.137  11.036
 4463SOL     OW13948   2.505   0.132   9.417
 4463SOL    HW113949   2.532   0.049   9.457
 4463SOL    HW213950   2.442   0.107   9.350
 4464SOL     OW13951   2.638   0.281  11.076
 4464SOL    HW113952   2.707   0.215  11.081
 4464SOL    HW213953   2.579   0.259  11.148
 4465SOL     OW13954   2.738   1.522  10.504
 4465SOL    HW113955   2.722   1.486  10.417
 4465SOL    HW213956   2.808   1.468  10.540
 4466SOL     OW13957   3.203   0.587  10.740
 4466SOL    HW113958   3.233   0.559  10.827
 4466SOL    HW213959   3.237   0.676  10.731
 4467SOL     OW13960   2.678   1.394  10.251
 4467SOL    HW113961   2.762   1.382  10.207
 4467SOL    HW213962   2.614   1.396  10.180
 4468SOL     OW13963   2.791   0.511  10.211
 4468SOL    HW113964   2.767   0.503  10.119
 4468SOL    HW213965   2.819   0.423  10.236
 4469SOL     OW13966   2.407   0.057   9.801
 4469SOL    HW113967   2.333   0.062   9.861
 4469SOL    HW213968   2.403   0.138   9.750
 4470SOL     OW13969   3.289   1.199   9.351
 4470SOL    HW113970   3.320   1.123   9.401
 4470SOL    HW213971   3.204   1.221   9.388
 4471SOL     OW13972   2.190   0.043   9.520
 4471SOL    HW113973   2.201   0.111   9.453
 4471SOL    HW213974   2.273   0.042   9.567
 4472SOL     OW13975   2.803   0.249   9.771
 4472SOL    HW113976   2.778   0.290   9.688
 4472SOL    HW213977   2.898   0.252   9.771
 4473SOL     OW13978   2.942   0.683  10.769
 4473SOL    HW113979   2.871   0.619  10.776
 4473SOL    HW213980   3.022   0.630  10.764
 4474SOL     OW13981   3.084   1.571  10.104
 4474SOL    HW113982   3.100   1.637  10.037
 4474SOL    HW213983   3.153   1.585  10.169
 4475SOL     OW13984   2.332   1.150  10.042
 4475SOL    HW113985   2.263   1.131  10.106
 4475SOL    HW213986   2.291   1.135   9.957
 4476SOL     OW13987   3.130   1.793   9.919
 4476SOL    HW113988   3.177   1.854   9.862
 4476SOL    HW213989   3.064   1.848   9.962
 4477SOL     OW13990   2.884   0.544   9.337
 4477SOL    HW113991   2.841   0.627   9.317
 4477SOL    HW213992   2.948   0.566   9.405
 4478SOL     OW13993   1.942   0.551  10.706
 4478SOL    HW113994   2.033   0.552  10.676
 4478SOL    HW213995   1.936   0.624  10.768
 4479SOL     OW13996   2.426   0.231  10.471
 4479SOL    HW113997   2.451   0.140  10.481
 4479SOL    HW213998   2.336   0.236  10.503
 4480SOL     OW13999   2.732   0.461   9.949
 4480SOL    HW114000   2.684   0.515   9.886
 4480SOL    HW214001   2.752   0.381   9.901
 4481SOL     OW14002   2.857   0.040  10.090
 4481SOL    HW114003   2.822   0.068  10.005
 4481SOL    HW214004   2.868   3.946  10.082
 4482SOL     OW14005   3.301   1.162  10.168
 4482SOL    HW114006   3.230   1.098  10.166
 4482SOL    HW214007   3.326   1.173  10.076
 4483SOL     OW14008   3.327   0.607  10.286
 4483SOL    HW114009   3.274   0.527  10.291
 4483SOL    HW214010   3.387   0.601  10.360
 4484SOL     OW14011   3.722   0.824   9.685
 4484SOL    HW114012   3.764   0.767   9.749
 4484SOL    HW214013   3.683   0.764   9.621
 4485SOL     OW14014   2.354   1.419   9.465
 4485SOL    HW114015   2.280   1.393   9.518
 4485SOL    HW214016   2.339   1.377   9.380
 4486SOL     OW14017   3.529   1.265   9.955
 4486SOL    HW114018   3.624   1.269   9.964
 4486SOL    HW214019   3.499   1.354   9.976
 4487SOL     OW14020   3.257   0.574   9.379
 4487SOL    HW114021   3.193   0.556   9.449
 4487SOL    HW214022   3.342   0.558   9.419
 4488SOL     OW14023   2.389   0.266   9.627
 4488SOL    HW114024   2.442   0.227   9.558
 4488SOL    HW214025   2.361   0.350   9.590
 4489SOL     OW14026   3.614   1.234  10.878
 4489SOL    HW114027   3.701   1.199  10.861
 4489SOL    HW214028   3.630   1.323  10.909
 4490SOL     OW14029   2.919   1.354  10.643
 4490SOL    HW114030   2.845   1.322  10.694
 4490SOL    HW214031   2.995   1.312  10.684
 4491SOL     OW14032   3.468   1.628  10.965
 4491SOL    HW114033   3.460   1.662  10.876
 4491SOL    HW214034   3.549   1.577  10.965
 4492SOL     OW14035   2.992   1.205  10.415
 4492SOL    HW114036   2.933   1.242  10.479
 4492SOL    HW214037   2.960   1.238  10.331
 4493SOL     OW14038   3.491   1.097  10.386
 4493SOL    HW114039   3.483   1.158  10.458
 4493SOL    HW214040   3.414   1.113  10.332
 4494SOL     OW14041   2.775   0.114  10.711
 4494SOL    HW114042   2.794   0.088  10.622
 4494SOL    HW214043   2.855   0.156  10.742
 4495SOL     OW14044   2.846   1.115  11.033
 4495SOL    HW114045   2.755   1.131  11.055
 4495SOL    HW214046   2.844   1.037  10.978
 4496SOL     OW14047   2.571   1.062   9.681
 4496SOL    HW114048   2.556   1.045   9.774
 4496SOL    HW214049   2.646   1.008   9.658
 4497SOL     OW14050   2.282   0.815  10.561
 4497SOL    HW114051   2.350   0.824  10.628
 4497SOL    HW214052   2.246   0.727  10.574
 4498SOL     OW14053   3.129   0.375  10.586
 4498SOL    HW114054   3.163   0.453  10.630
 4498SOL    HW214055   3.041   0.401  10.556
 4499SOL     OW14056   1.935   1.577  10.664
 4499SOL    HW114057   1.901   1.641  10.601
 4499SOL    HW214058   2.030   1.579  10.650
 4500SOL     OW14059   2.210   1.110   9.801
 4500SOL    HW114060   2.214   1.185   9.741
 4500SOL    HW214061   2.207   1.034   9.743
 4501SOL     OW14062   2.417   0.534  10.167
 4501SOL    HW114063   2.431   0.594  10.094
 4501SOL    HW214064   2.481   0.561  10.233
 4502SOL     OW14065   3.110   1.349   9.699
 4502SOL    HW114066   3.166   1.420   9.730
 4502SOL    HW214067   3.023   1.370   9.733
 4503SOL     OW14068   3.145   1.459  10.457
 4503SOL    HW114069   3.201   1.462  10.535
 4503SOL    HW214070   3.090   1.381  10.470
 4504SOL     OW14071   3.435   0.632   9.794
 4504SOL    HW114072   3.395   0.689   9.859
 4504SOL    HW214073   3.483   0.691   9.737
 4505SOL     OW14074   2.215   1.514  10.627
 4505SOL    HW114075   2.200   1.472  10.542
 4505SOL    HW214076   2.310   1.525  10.632
 4506SOL     OW14077   2.278   0.744  10.912
 4506SOL    HW114078   2.339   0.790  10.853
 4506SOL    HW214079   2.319   0.660  10.928
 4507SOL     OW14080   3.465   0.777  10.992
 4507SOL    HW114081   3.379   0.820  10.986
 4507SOL    HW214082   3.517   0.820  10.924
 4508SOL     OW14083   2.880   0.127  11.089
 4508SOL    HW114084   2.923   0.203  11.050
 4508SOL    HW214085   2.862   0.069  11.016
 4509SOL     OW14086   2.349   0.034  11.072
 4509SOL    HW114087   2.353   0.045  10.977
 4509SOL    HW214088   2.290   0.104  11.102
 4510SOL     OW14089   2.446   0.873  10.342
 4510SOL    HW114090   2.475   0.964  10.341
 4510SOL    HW214091   2.389   0.866  10.418
 4511SOL     OW14092   3.217   0.859  10.338
 4511SOL    HW114093   3.133   0.848  10.293
 4511SOL    HW214094   3.259   0.773  10.331
 4512SOL     OW14095   3.064   0.536   9.570
 4512SOL    HW114096   3.072   0.457   9.623
 4512SOL    HW214097   3.021   0.599   9.627
 4513SOL     OW14098   2.163   0.210  10.553
 4513SOL    HW114099   2.122   0.239  10.634
 4513SOL    HW214100   2.151   0.115  10.552
 4514SOL     OW14101   1.906   1.313  10.588
 4514SOL    HW114102   1.941   1.257  10.658
 4514SOL    HW214103   1.915   1.402  10.622
 4515SOL     OW14104   2.585   0.632  10.364
 4515SOL    HW114105   2.660   0.619  10.306
 4515SOL    HW214106   2.556   0.721  10.344
 4516SOL     OW14107   3.595   0.957  11.170
 4516SOL    HW114108   3.551   0.898  11.109
 4516SOL    HW214109   3.531   0.971  11.240
 4517SOL     OW14110   2.184   0.056   9.959
 4517SOL    HW114111   2.164   0.149   9.971
 4517SOL    HW214112   2.146   0.014  10.036
 4518SOL     OW14113   3.472   0.390   9.690
 4518SOL    HW114114   3.438   0.321   9.747
 4518SOL    HW214115   3.451   0.472   9.735
 4519SOL     OW14116   2.891   0.759  10.269
 4519SOL    HW114117   2.886   0.776  10.363
 4519SOL    HW214118   2.864   0.668  10.260
 4520SOL     OW14119   2.844   1.567  11.028
 4520SOL    HW114120   2.829   1.610  10.944
 4520SOL    HW214121   2.887   1.485  11.005
 4521SOL     OW14122   3.706   1.501  10.909
 4521SOL    HW114123   3.729   1.529  10.821
 4521SOL    HW214124   3.787   1.513  10.959
 4522SOL     OW14125   2.214   0.915  11.119
 4522SOL    HW114126   2.296   0.935  11.164
 4522SOL    HW214127   2.240   0.853  11.051
 4523SOL     OW14128   3.366   0.275   9.445
 4523SOL    HW114129   3.291   0.216   9.456
 4523SOL    HW214130   3.379   0.314   9.531
 4524SOL     OW14131   3.151   0.826   9.339
 4524SOL    HW114132   3.194   0.741   9.343
 4524SOL    HW214133   3.184   0.866   9.259
 4525SOL     OW14134   2.928   1.336  10.165
 4525SOL    HW114135   2.932   1.264  10.102
 4525SOL    HW214136   2.989   1.401  10.130
 4526SOL     OW14137   2.170   0.809  10.257
 4526SOL    HW114138   2.263   0.831  10.250
 4526SOL    HW214139   2.168   0.719  10.289
 4527SOL     OW14140   2.198   0.535  10.323
 4527SOL    HW114141   2.157   0.450  10.308
 4527SOL    HW214142   2.275   0.536  10.265
 4528SOL     OW14143   2.995   0.382  11.005
 4528SOL    HW114144   2.946   0.436  11.067
 4528SOL    HW214145   3.082   0.421  11.000
 4529SOL     OW14146   3.013   0.225  10.791
 4529SOL    HW114147   3.004   0.280  10.869
 4529SOL    HW214148   3.037   0.287  10.722
 4530SOL     OW14149   1.866   1.319   9.503
 4530SOL    HW114150   1.779   1.332   9.467
 4530SOL    HW214151   1.865   1.230   9.538
 4531SOL     OW14152   1.979   1.728  10.298
 4531SOL    HW114153   1.942   1.666  10.236
 4531SOL    HW214154   2.018   1.796  10.243
 4532SOL     OW14155   2.361   1.570  10.220
 4532SOL    HW114156   2.428   1.635  10.243
 4532SOL    HW214157   2.405   1.510  10.161
 4533SOL     OW14158   2.843   0.789  10.535
 4533SOL    HW114159   2.899   0.769  10.610
 4533SOL    HW214160   2.757   0.755  10.559
 4534SOL     OW14161   1.895   0.546  10.427
 4534SOL    HW114162   1.970   0.521  10.373
 4534SOL    HW214163   1.929   0.547  10.517
 4535SOL     OW14164   2.065   0.526  11.023
 4535SOL    HW114165   2.134   0.505  10.961
 4535SOL    HW214166   2.020   0.601  10.984
 4536SOL     OW14167   3.241   0.937  10.968
 4536SOL    HW114168   3.262   1.031  10.966
 4536SOL    HW214169   3.237   0.912  10.876
 4537SOL     OW14170   2.679   0.572   9.672
 4537SOL    HW114171   2.684   0.496   9.613
 4537SOL    HW214172   2.604   0.622   9.640
 4538SOL     OW14173   3.502   0.602  10.494
 4538SOL    HW114174   3.491   0.541  10.568
 4538SOL    HW214175   3.588   0.581  10.458
 4539SOL     OW14176   2.115   1.536  11.017
 4539SOL    HW114177   2.098   1.606  11.081
 4539SOL    HW214178   2.117   1.456  11.070
 4540SOL     OW14179   2.566   0.454  10.568
 4540SOL    HW114180   2.517   0.377  10.542
 4540SOL    HW214181   2.559   0.514  10.493
 4541SOL     OW14182   2.788   1.679  10.778
 4541SOL    HW114183   2.763   1.643  10.693
 4541SOL    HW214184   2.783   1.774  10.766
 4542SOL     OW14185   2.326   0.494   9.494
 4542SOL    HW114186   2.383   0.567   9.518
 4542SOL    HW214187   2.240   0.534   9.482
 4543SOL     OW14188   2.005   1.141  10.782
 4543SOL    HW114189   2.008   1.090  10.864
 4543SOL    HW214190   2.023   1.076  10.714
 4544SOL     OW14191   3.185   1.045  10.533
 4544SOL    HW114192   3.209   0.983  10.465
 4544SOL    HW214193   3.117   1.099  10.493
 4545SOL     OW14194   3.175   0.855   9.615
 4545SOL    HW114195   3.099   0.827   9.667
 4545SOL    HW214196   3.148   0.843   9.524
 4546SOL     OW14197   3.641   1.743  10.466
 4546SOL    HW114198   3.695   1.770  10.392
 4546SOL    HW214199   3.612   1.654  10.442
 4547SOL     OW14200   3.103   1.734  10.422
 4547SOL    HW114201   3.185   1.755  10.377
 4547SOL    HW214202   3.109   1.640  10.440
 4548SOL     OW14203   1.948   1.264  10.324
 4548SOL    HW114204   1.931   1.279  10.417
 4548SOL    HW214205   1.874   1.211  10.295
 4549SOL     OW14206   2.539   1.666  11.040
 4549SOL    HW114207   2.486   1.746  11.038
 4549SOL    HW214208   2.605   1.680  10.972
 4550SOL     OW14209   3.552   0.121   9.797
 4550SOL    HW114210   3.634   0.135   9.749
 4550SOL    HW214211   3.554   0.028   9.819
 4551SOL     OW14212   3.252   1.567   9.796
 4551SOL    HW114213   3.312   1.600   9.729
 4551SOL    HW214214   3.204   1.645   9.825
 4552SOL     OW14215   2.039   1.738  11.171
 4552SOL    HW114216   1.971   1.698  11.226
 4552SOL    HW214217   2.008   1.828  11.157
 4553SOL     OW14218   3.139   0.926   9.981
 4553SOL    HW114219   3.214   0.866   9.990
 4553SOL    HW214220   3.173   0.999   9.928
 4554SOL     OW14221   2.674   1.273  10.739
 4554SOL    HW114222   2.646   1.313  10.821
 4554SOL    HW214223   2.604   1.295  10.677
 4555SOL     OW14224   2.537   1.620   9.461
 4555SOL    HW114225   2.544   1.631   9.366
 4555SOL    HW214226   2.480   1.544   9.472
 4556SOL     OW14227   3.484   1.727  10.701
 4556SOL    HW114228   3.538   1.732  10.622
 4556SOL    HW214229   3.471   1.818  10.727
 4557SOL     OW14230   3.703   0.181  10.281
 4557SOL    HW114231   3.727   0.097  10.242
 4557SOL    HW214232   3.616   0.200  10.244
 4558SOL     OW14233   2.126   0.317  10.025
 4558SOL    HW114234   2.040   0.352  10.003
 4558SOL    HW214235   2.125   0.307  10.120
 4559SOL     OW14236   3.069   1.605   9.342
 4559SOL    HW114237   3.059   1.514   9.369
 4559SOL    HW214238   3.004   1.617   9.273
 4560SOL     OW14239   2.686   1.006  10.682
 4560SOL    HW114240   2.728   1.003  10.596
 4560SOL    HW214241   2.685   1.099  10.705
 4561SOL     OW14242   2.778   0.910   9.600
 4561SOL    HW114243   2.839   0.943   9.534
 4561SOL    HW214244   2.826   0.841   9.645
 4562SOL     OW14245   3.352   1.627   9.353
 4562SOL    HW114246   3.258   1.619   9.338
 4562SOL    HW214247   3.389   1.633   9.265
 4563SOL     OW14248   2.232   1.297  10.803
 4563SOL    HW114249   2.220   1.375  10.749
 4563SOL    HW214250   2.154   1.245  10.787
 4564SOL     OW14251   3.464   1.280  10.588
 4564SOL    HW114252   3.532   1.273  10.655
 4564SOL    HW214253   3.407   1.350  10.619
 4565SOL     OW14254   2.916   1.108  10.018
 4565SOL    HW114255   2.845   1.057  10.056
 4565SOL    HW214256   2.979   1.042   9.987
 4566SOL     OW14257   2.876   0.248  10.279
 4566SOL    HW114258   2.866   0.198  10.198
 4566SOL    HW214259   2.871   0.183  10.348
 4567SOL     OW14260   2.464   1.489   9.791
 4567SOL    HW114261   2.507   1.440   9.720
 4567SOL    HW214262   2.403   1.547   9.746
 4568SOL     OW14263   3.582   0.393  10.682
 4568SOL    HW114264   3.654   0.456  10.682
 4568SOL    HW214265   3.614   0.321  10.628
 4569SOL     OW14266   2.121   1.345   9.596
 4569SOL    HW114267   2.028   1.341   9.575
 4569SOL    HW214268   2.125   1.379   9.685
 4570SOL     OW14269   1.975   1.024  11.030
 4570SOL    HW114270   1.899   1.000  11.083
 4570SOL    HW214271   2.049   0.985  11.077
 4571SOL     OW14272   2.554   0.250  10.810
 4571SOL    HW114273   2.622   0.197  10.769
 4571SOL    HW214274   2.581   0.258  10.901
 4572SOL     OW14275   1.961   0.318   9.301
 4572SOL    HW114276   1.891   0.337   9.363
 4572SOL    HW214277   1.971   0.399   9.251
 4573SOL     OW14278   3.289   0.857  10.709
 4573SOL    HW114279   3.239   0.919  10.655
 4573SOL    HW214280   3.377   0.860  10.673
 4574SOL     OW14281   1.943   0.153   9.650
 4574SOL    HW114282   1.913   0.213   9.583
 4574SOL    HW214283   2.029   0.124   9.620
 4575SOL     OW14284   3.040   1.339   9.427
 4575SOL    HW114285   2.950   1.308   9.430
 4575SOL    HW214286   3.068   1.339   9.519
 4576SOL     OW14287   2.483   0.829  10.744
 4576SOL    HW114288   2.538   0.905  10.729
 4576SOL    HW214289   2.544   0.756  10.752
 4577SOL     OW14290   3.345   1.780  10.289
 4577SOL    HW114291   3.368   1.840  10.219
 4577SOL    HW214292   3.428   1.754  10.328
 4578SOL     OW14293   2.580   0.562  11.015
 4578SOL    HW114294   2.621   0.625  11.074
 4578SOL    HW214295   2.607   0.476  11.048
 4579SOL     OW14296   3.334   1.199  10.941
 4579SOL    HW114297   3.323   1.213  11.035
 4579SOL    HW214298   3.427   1.214  10.926
 4580SOL     OW14299   2.238   1.746  10.881
 4580SOL    HW114300   2.165   1.760  10.822
 4580SOL    HW214301   2.220   1.663  10.924
 4581SOL     OW14302   3.528   0.881  10.569
 4581SOL    HW114303   3.526   0.796  10.525
 4581SOL    HW214304   3.521   0.945  10.498
 4582SOL     OW14305   3.083   0.336   9.754
 4582SOL    HW114306   3.152   0.269   9.745
 4582SOL    HW214307   3.105   0.380   9.836
 4583SOL     OW14308   2.452   0.737   9.980
 4583SOL    HW114309   2.490   0.823   9.965
 4583SOL    HW214310   2.385   0.729   9.913
 4584SOL     OW14311   3.617   0.381  10.952
 4584SOL    HW114312   3.596   0.389  10.859
 4584SOL    HW214313   3.557   0.313  10.984
 4585SOL     OW14314   3.615   0.931  10.824
 4585SOL    HW114315   3.607   1.025  10.840
 4585SOL    HW214316   3.592   0.920  10.731
 4586SOL     OW14317   2.724   1.367   9.345
 4586SOL    HW114318   2.686   1.393   9.429
 4586SOL    HW214319   2.741   1.449   9.300
 4587SOL     OW14320   2.523   1.794  10.254
 4587SOL    HW114321   2.507   1.884  10.227
 4587SOL    HW214322   2.618   1.783  10.245
 4588SOL     OW14323   2.730   0.968  10.165
 4588SOL    HW114324   2.780   0.896  10.204
 4588SOL    HW214325   2.694   1.016  10.240
 4589SOL     OW14326   2.941   0.989   9.399
 4589SOL    HW114327   2.919   1.040   9.321
 4589SOL    HW214328   3.015   0.935   9.372
 4590SOL     OW14329   3.715   1.556  10.152
 4590SOL    HW114330   3.636   1.540  10.100
 4590SOL    HW214331   3.714   1.489  10.220
 4591SOL     OW14332   2.089   1.301  11.166
 4591SOL    HW114333   2.020   1.239  11.140
 4591SOL    HW214334   2.075   1.313  11.260
 4592SOL     OW14335   1.942   1.226   9.975
 4592SOL    HW114336   1.955   1.181  10.059
 4592SOL    HW214337   2.015   1.196   9.920
 4593SOL     OW14338   2.543   1.404  10.938
 4593SOL    HW114339   2.464   1.360  10.970
 4593SOL    HW214340   2.539   1.492  10.975
 4594SOL     OW14341   3.677   0.182  10.554
 4594SOL    HW114342   3.678   0.086  10.562
 4594SOL    HW214343   3.694   0.198  10.461
 4595SOL     OW14344   2.290   0.434   9.835
 4595SOL    HW114345   2.324   0.363   9.781
 4595SOL    HW214346   2.243   0.391   9.906
 4596SOL     OW14347   3.559   1.491  10.408
 4596SOL    HW114348   3.481   1.468  10.359
 4596SOL    HW214349   3.571   1.420  10.470
 4597SOL     OW14350   2.192   0.555  10.604
 4597SOL    HW114351   2.245   0.497  10.658
 4597SOL    HW214352   2.211   0.529  10.514
 4598SOL     OW14353   2.689   1.578   9.987
 4598SOL    HW114354   2.673   1.632   9.909
 4598SOL    HW214355   2.614   1.519   9.990
 4599SOL     OW14356   3.324   0.252  10.421
 4599SOL    HW114357   3.337   0.164  10.456
 4599SOL    HW214358   3.267   0.295  10.485
 4600SOL     OW14359   2.867   0.028  10.457
 4600SOL    HW114360   2.788   3.986  10.423
 4600SOL    HW214361   2.930   3.957  10.465
 4601SOL     OW14362   2.636   1.333   9.624
 4601SOL    HW114363   2.604   1.242   9.632
 4601SOL    HW214364   2.716   1.334   9.676
 4602SOL     OW14365   2.483   1.555  10.596
 4602SOL    HW114366   2.484   1.638  10.645
 4602SOL    HW214367   2.571   1.548  10.559
 4603SOL     OW14368   3.175   0.071   9.470
 4603SOL    HW114369   3.183   3.993   9.415
 4603SOL    HW214370   3.090   0.061   9.513
 4604SOL     OW14371   3.144   0.457   9.996
 4604SOL    HW114372   3.098   0.540   9.991
 4604SOL    HW214373   3.148   0.437  10.089
 4605SOL     OW14374   3.452   0.210  10.177
 4605SOL    HW114375   3.403   0.233  10.256
 4605SOL    HW214376   3.451   0.290  10.124
 4606SOL     OW14377   1.906   1.071   9.615
 4606SOL    HW114378   2.000   1.063   9.599
 4606SOL    HW214379   1.878   0.983   9.640
 4607SOL     OW14380   2.747   1.655   9.652
 4607SOL    HW114381   2.675   1.637   9.591
 4607SOL    HW214382   2.716   1.729   9.704
 4608SOL     OW14383   2.090   0.620  11.293
 4608SOL    HW114384   2.000   0.627  11.324
 4608SOL    HW214385   2.082   0.600  11.200
 4609SOL     OW14386   2.079   0.299  12.163
 4609SOL    HW114387   2.116   0.257  12.240
 4609SOL    HW214388   1.995   0.256  12.150
 4610SOL     OW14389   1.871   0.396  11.806
 4610SOL    HW114390   1.784   0.411  11.843
 4610SOL    HW214391   1.858   0.326  11.742
 4611SOL     OW14392   2.430   1.289  12.348
 4611SOL    HW114393   2.343   1.293  12.307
 4611SOL    HW214394   2.446   1.378  12.379
 4612SOL     OW14395   3.424   1.512  11.879
 4612SOL    HW114396   3.381   1.492  11.962
 4612SOL    HW214397   3.353   1.517  11.816
 4613SOL     OW14398   2.994   0.698  11.871
 4613SOL    HW114399   3.042   0.780  11.857
 4613SOL    HW214400   2.947   0.711  11.953
 4614SOL     OW14401   3.622   0.622  11.399
 4614SOL    HW114402   3.605   0.611  11.306
 4614SOL    HW214403   3.606   0.536  11.437
 4615SOL     OW14404   2.617   1.141  12.215
 4615SOL    HW114405   2.548   1.176  12.271
 4615SOL    HW214406   2.652   1.218  12.170
 4616SOL     OW14407   2.731   0.772  12.995
 4616SOL    HW114408   2.716   0.844  13.056
 4616SOL    HW214409   2.754   0.815  12.913
 4617SOL     OW14410   2.548   1.001  11.818
 4617SOL    HW114411   2.613   0.991  11.888
 4617SOL    HW214412   2.479   1.054  11.857
 4618SOL     OW14413   2.574   1.150  12.985
 4618SOL    HW114414   2.621   1.229  13.014
 4618SOL    HW214415   2.491   1.184  12.950
 4619SOL     OW14416   2.194   1.420  12.240
 4619SOL    HW114417   2.118   1.387  12.192
 4619SOL    HW214418   2.241   1.474  12.177
 4620SOL     OW14419   3.322   1.500  12.528
 4620SOL    HW114420   3.374   1.580  12.537
 4620SOL    HW214421   3.258   1.505  12.599
 4621SOL     OW14422   2.306   0.395  12.666
 4621SOL    HW114423   2.395   0.361  12.664
 4621SOL    HW214424   2.251   0.317  12.674
 4622SOL     OW14425   3.473   0.450  11.908
 4622SOL    HW114426   3.403   0.483  11.852
 4622SOL    HW214427   3.496   0.525  11.963
 4623SOL     OW14428   2.093   1.692  11.631
 4623SOL    HW114429   2.108   1.759  11.697
 4623SOL    HW214430   2.171   1.695  11.575
 4624SOL     OW14431   2.999   1.342  12.865
 4624SOL    HW114432   3.039   1.337  12.952
 4624SOL    HW214433   2.946   1.262  12.858
 4625SOL     OW14434   2.092   1.431  11.708
 4625SOL    HW114435   2.082   1.526  11.699
 4625SOL    HW214436   2.029   1.406  11.776
 4626SOL     OW14437   2.121   1.090  12.062
 4626SOL    HW114438   2.117   1.003  12.102
 4626SOL    HW214439   2.064   1.144  12.117
 4627SOL     OW14440   2.473   1.791  12.603
 4627SOL    HW114441   2.392   1.774  12.651
 4627SOL    HW214442   2.497   1.881  12.627
 4628SOL     OW14443   2.446   0.983  11.307
 4628SOL    HW114444   2.493   1.031  11.239
 4628SOL    HW214445   2.485   1.014  11.389
 4629SOL     OW14446   3.443   0.139  12.629
 4629SOL    HW114447   3.467   0.213  12.572
 4629SOL    HW214448   3.410   0.181  12.708
 4630SOL     OW14449   1.978   0.655  11.732
 4630SOL    HW114450   1.951   0.567  11.755
 4630SOL    HW214451   1.970   0.705  11.813
 4631SOL     OW14452   3.702   1.757  11.508
 4631SOL    HW114453   3.770   1.733  11.570
 4631SOL    HW214454   3.721   1.848  11.486
 4632SOL     OW14455   1.861   1.607  11.330
 4632SOL    HW114456   1.853   1.513  11.312
 4632SOL    HW214457   1.889   1.611  11.422
 4633SOL     OW14458   3.549   0.917  11.816
 4633SOL    HW114459   3.633   0.875  11.800
 4633SOL    HW214460   3.532   0.968  11.736
 4634SOL     OW14461   3.504   1.105  11.603
 4634SOL    HW114462   3.589   1.112  11.559
 4634SOL    HW214463   3.510   1.168  11.676
 4635SOL     OW14464   1.985   0.749  12.753
 4635SOL    HW114465   2.076   0.778  12.759
 4635SOL    HW214466   1.933   0.829  12.761
 4636SOL     OW14467   2.477   1.387  11.906
 4636SOL    HW114468   2.430   1.304  11.916
 4636SOL    HW214469   2.459   1.414  11.816
 4637SOL     OW14470   3.150   1.238  12.595
 4637SOL    HW114471   3.182   1.171  12.535
 4637SOL    HW214472   3.208   1.232  12.671
 4638SOL     OW14473   2.681   0.003  11.688
 4638SOL    HW114474   2.726   0.084  11.664
 4638SOL    HW214475   2.588   0.027  11.689
 4639SOL     OW14476   2.051   0.964  12.446
 4639SOL    HW114477   2.137   0.923  12.430
 4639SOL    HW214478   1.990   0.912  12.393
 4640SOL     OW14479   3.391   0.994  11.372
 4640SOL    HW114480   3.321   0.938  11.405
 4640SOL    HW214481   3.433   1.030  11.450
 4641SOL     OW14482   3.047   1.808  12.795
 4641SOL    HW114483   3.057   1.866  12.720
 4641SOL    HW214484   3.064   1.720  12.759
 4642SOL     OW14485   2.217   0.254  13.004
 4642SOL    HW114486   2.261   0.339  13.003
 4642SOL    HW214487   2.124   0.275  13.012
 4643SOL     OW14488   3.328   1.420  12.122
 4643SOL    HW114489   3.261   1.435  12.189
 4643SOL    HW214490   3.317   1.329  12.097
 4644SOL     OW14491   3.517   1.743  11.751
 4644SOL    HW114492   3.500   1.711  11.662
 4644SOL    HW214493   3.495   1.669  11.807
 4645SOL     OW14494   2.457   0.721  11.439
 4645SOL    HW114495   2.462   0.803  11.390
 4645SOL    HW214496   2.393   0.737  11.508
 4646SOL     OW14497   3.137   0.367  12.113
 4646SOL    HW114498   3.050   0.328  12.119
 4646SOL    HW214499   3.194   0.305  12.158
 4647SOL     OW14500   3.440   1.670  11.482
 4647SOL    HW114501   3.530   1.701  11.475
 4647SOL    HW214502   3.414   1.654  11.391
 4648SOL     OW14503   2.658   0.616  12.625
 4648SOL    HW114504   2.629   0.591  12.712
 4648SOL    HW214505   2.618   0.551  12.567
 4649SOL     OW14506   3.254   0.476  12.849
 4649SOL    HW114507   3.259   0.521  12.934
 4649SOL    HW214508   3.312   0.401  12.859
 4650SOL     OW14509   2.815   0.888  12.755
 4650SOL    HW114510   2.870   0.818  12.719
 4650SOL    HW214511   2.767   0.922  12.680
 4651SOL     OW14512   2.854   0.403  12.412
 4651SOL    HW114513   2.770   0.426  12.452
 4651SOL    HW214514   2.831   0.374  12.323
 4652SOL     OW14515   2.914   0.699  11.597
 4652SOL    HW114516   2.929   0.692  11.692
 4652SOL    HW214517   2.831   0.653  11.584
 4653SOL     OW14518   1.950   0.822  11.948
 4653SOL    HW114519   2.030   0.814  12.000
 4653SOL    HW214520   1.906   0.900  11.984
 4654SOL     OW14521   2.756   0.351  11.371
 4654SOL    HW114522   2.798   0.410  11.308
 4654SOL    HW214523   2.751   0.267  11.326
 4655SOL     OW14524   3.571   0.575  13.001
 4655SOL    HW114525   3.533   0.649  12.954
 4655SOL    HW214526   3.595   0.513  12.933
 4656SOL     OW14527   3.238   1.141  11.712
 4656SOL    HW114528   3.318   1.130  11.661
 4656SOL    HW214529   3.186   1.204  11.662
 4657SOL     OW14530   2.419   0.198  12.053
 4657SOL    HW114531   2.422   0.217  12.147
 4657SOL    HW214532   2.415   0.284  12.012
 4658SOL     OW14533   2.867   1.444  11.643
 4658SOL    HW114534   2.830   1.517  11.594
 4658SOL    HW214535   2.847   1.465  11.735
 4659SOL     OW14536   2.227   1.800  12.005
 4659SOL    HW114537   2.260   1.714  12.030
 4659SOL    HW214538   2.293   1.861  12.037
 4660SOL     OW14539   3.666   1.062  12.039
 4660SOL    HW114540   3.612   1.038  11.964
 4660SOL    HW214541   3.605   1.065  12.112
 4661SOL     OW14542   3.089   1.539  12.685
 4661SOL    HW114543   3.076   1.466  12.746
 4661SOL    HW214544   3.026   1.524  12.616
 4662SOL     OW14545   2.181   0.959  11.423
 4662SOL    HW114546   2.264   0.978  11.378
 4662SOL    HW214547   2.152   0.877  11.385
 4663SOL     OW14548   3.341   0.744  11.901
 4663SOL    HW114549   3.335   0.703  11.987
 4663SOL    HW214550   3.418   0.801  11.907
 4664SOL     OW14551   2.330   1.264  12.911
 4664SOL    HW114552   2.303   1.268  12.819
 4664SOL    HW214553   2.248   1.261  12.960
 4665SOL     OW14554   2.984   1.778  11.403
 4665SOL    HW114555   2.910   1.737  11.447
 4665SOL    HW214556   3.008   1.716  11.334
 4666SOL     OW14557   2.034   0.275  12.671
 4666SOL    HW114558   1.976   0.351  12.663
 4666SOL    HW214559   2.041   0.260  12.765
 4667SOL     OW14560   3.488   1.383  11.259
 4667SOL    HW114561   3.445   1.467  11.244
 4667SOL    HW214562   3.420   1.318  11.240
 4668SOL     OW14563   2.339   1.715  11.513
 4668SOL    HW114564   2.373   1.791  11.561
 4668SOL    HW214565   2.395   1.707  11.436
 4669SOL     OW14566   3.297   0.167  11.574
 4669SOL    HW114567   3.254   0.095  11.529
 4669SOL    HW214568   3.372   0.127  11.617
 4670SOL     OW14569   2.157   1.764  12.403
 4670SOL    HW114570   2.198   1.682  12.432
 4670SOL    HW214571   2.120   1.743  12.317
 4671SOL     OW14572   2.799   1.699  12.070
 4671SOL    HW114573   2.877   1.648  12.091
 4671SOL    HW214574   2.756   1.649  12.000
 4672SOL     OW14575   2.256   0.695  11.647
 4672SOL    HW114576   2.275   0.602  11.659
 4672SOL    HW214577   2.162   0.703  11.665
 4673SOL     OW14578   3.392   0.230  12.898
 4673SOL    HW114579   3.387   0.255  12.991
 4673SOL    HW214580   3.370   0.137  12.898
 4674SOL     OW14581   2.505   0.132  11.279
 4674SOL    HW114582   2.532   0.049  11.319
 4674SOL    HW214583   2.442   0.107  11.212
 4675SOL     OW14584   2.638   0.282  12.939
 4675SOL    HW114585   2.707   0.215  12.942
 4675SOL    HW214586   2.579   0.259  13.010
 4676SOL     OW14587   2.738   1.522  12.366
 4676SOL    HW114588   2.722   1.486  12.279
 4676SOL    HW214589   2.808   1.468  12.402
 4677SOL     OW14590   3.203   0.587  12.602
 4677SOL    HW114591   3.233   0.559  12.689
 4677SOL    HW214592   3.237   0.676  12.593
 4678SOL     OW14593   2.678   1.394  12.113
 4678SOL    HW114594   2.762   1.382  12.069
 4678SOL    HW214595   2.614   1.396  12.042
 4679SOL     OW14596   2.791   0.511  12.073
 4679SOL    HW114597   2.767   0.503  11.981
 4679SOL    HW214598   2.819   0.423  12.098
 4680SOL     OW14599   2.407   0.057  11.663
 4680SOL    HW114600   2.333   0.062  11.723
 4680SOL    HW214601   2.403   0.138  11.612
 4681SOL     OW14602   3.289   1.199  11.213
 4681SOL    HW114603   3.320   1.124  11.263
 4681SOL    HW214604   3.204   1.221  11.250
 4682SOL     OW14605   2.190   0.043  11.382
 4682SOL    HW114606   2.201   0.111  11.315
 4682SOL    HW214607   2.273   0.042  11.429
 4683SOL     OW14608   2.803   0.249  11.633
 4683SOL    HW114609   2.778   0.290  11.550
 4683SOL    HW214610   2.898   0.252  11.633
 4684SOL     OW14611   2.942   0.683  12.631
 4684SOL    HW114612   2.871   0.618  12.637
 4684SOL    HW214613   3.021   0.630  12.626
 4685SOL     OW14614   3.084   1.571  11.966
 4685SOL    HW114615   3.100   1.637  11.899
 4685SOL    HW214616   3.153   1.585  12.031
 4686SOL     OW14617   2.332   1.150  11.904
 4686SOL    HW114618   2.263   1.131  11.968
 4686SOL    HW214619   2.291   1.135  11.819
 4687SOL     OW14620   3.130   1.793  11.781
 4687SOL    HW114621   3.177   1.854  11.724
 4687SOL    HW214622   3.064   1.848  11.824
 4688SOL     OW14623   2.884   0.544  11.198
 4688SOL    HW114624   2.840   0.627  11.179
 4688SOL    HW214625   2.948   0.566  11.267
 4689SOL     OW14626   1.942   0.551  12.568
 4689SOL    HW114627   2.033   0.552  12.538
 4689SOL    HW214628   1.936   0.624  12.630
 4690SOL     OW14629   2.426   0.231  12.333
 4690SOL    HW114630   2.451   0.140  12.343
 4690SOL    HW214631   2.336   0.236  12.365
 4691SOL     OW14632   2.732   0.461  11.811
 4691SOL    HW114633   2.684   0.515  11.748
 4691SOL    HW214634   2.752   0.381  11.763
 4692SOL     OW14635   2.857   0.040  11.952
 4692SOL    HW114636   2.822   0.068  11.867
 4692SOL    HW214637   2.868   3.946  11.944
 4693SOL     OW14638   3.301   1.162  12.030
 4693SOL    HW114639   3.230   1.098  12.028
 4693SOL    HW214640   3.326   1.173  11.938
 4694SOL     OW14641   3.327   0.607  12.148
 4694SOL    HW114642   3.274   0.527  12.153
 4694SOL    HW214643   3.387   0.600  12.222
 4695SOL     OW14644   3.722   0.824  11.547
 4695SOL    HW114645   3.764   0.767  11.611
 4695SOL    HW214646   3.683   0.764  11.483
 4696SOL     OW14647   2.355   1.419  11.327
 4696SOL    HW114648   2.280   1.393  11.380
 4696SOL    HW214649   2.339   1.378  11.242
 4697SOL     OW14650   3.529   1.265  11.817
 4697SOL    HW114651   3.624   1.269  11.826
 4697SOL    HW214652   3.499   1.354  11.838
 4698SOL     OW14653   3.257   0.574  11.241
 4698SOL    HW114654   3.193   0.556  11.311
 4698SOL    HW214655   3.342   0.558  11.281
 4699SOL     OW14656   2.389   0.266  11.489
 4699SOL    HW114657   2.442   0.227  11.420
 4699SOL    HW214658   2.361   0.350  11.452
 4700SOL     OW14659   3.614   1.234  12.741
 4700SOL    HW114660   3.701   1.199  12.723
 4700SOL    HW214661   3.630   1.323  12.771
 4701SOL     OW14662   2.919   1.354  12.505
 4701SOL    HW114663   2.845   1.322  12.556
 4701SOL    HW214664   2.995   1.312  12.546
 4702SOL     OW14665   3.468   1.628  12.827
 4702SOL    HW114666   3.460   1.662  12.738
 4702SOL    HW214667   3.549   1.577  12.827
 4703SOL     OW14668   2.992   1.205  12.277
 4703SOL    HW114669   2.933   1.242  12.341
 4703SOL    HW214670   2.960   1.237  12.193
 4704SOL     OW14671   3.491   1.097  12.248
 4704SOL    HW114672   3.483   1.158  12.320
 4704SOL    HW214673   3.414   1.113  12.194
 4705SOL     OW14674   2.775   0.115  12.573
 4705SOL    HW114675   2.794   0.088  12.484
 4705SOL    HW214676   2.855   0.156  12.604
 4706SOL     OW14677   2.846   1.115  12.896
 4706SOL    HW114678   2.754   1.132  12.917
 4706SOL    HW214679   2.844   1.037  12.840
 4707SOL     OW14680   2.571   1.062  11.543
 4707SOL    HW114681   2.556   1.044  11.636
 4707SOL    HW214682   2.646   1.008  11.520
 4708SOL     OW14683   2.282   0.815  12.423
 4708SOL    HW114684   2.350   0.824  12.490
 4708SOL    HW214685   2.246   0.727  12.436
 4709SOL     OW14686   3.129   0.375  12.448
 4709SOL    HW114687   3.163   0.453  12.492
 4709SOL    HW214688   3.041   0.401  12.417
 4710SOL     OW14689   1.935   1.577  12.525
 4710SOL    HW114690   1.900   1.641  12.464
 4710SOL    HW214691   2.029   1.580  12.512
 4711SOL     OW14692   2.210   1.110  11.663
 4711SOL    HW114693   2.214   1.185  11.604
 4711SOL    HW214694   2.207   1.034  11.604
 4712SOL     OW14695   2.417   0.534  12.029
 4712SOL    HW114696   2.431   0.594  11.956
 4712SOL    HW214697   2.481   0.561  12.095
 4713SOL     OW14698   3.110   1.348  11.561
 4713SOL    HW114699   3.166   1.420  11.592
 4713SOL    HW214700   3.023   1.370  11.595
 4714SOL     OW14701   3.145   1.459  12.319
 4714SOL    HW114702   3.201   1.462  12.397
 4714SOL    HW214703   3.090   1.381  12.332
 4715SOL     OW14704   3.435   0.632  11.656
 4715SOL    HW114705   3.395   0.689  11.721
 4715SOL    HW214706   3.483   0.691  11.599
 4716SOL     OW14707   2.216   1.512  12.490
 4716SOL    HW114708   2.201   1.471  12.404
 4716SOL    HW214709   2.311   1.524  12.494
 4717SOL     OW14710   2.278   0.745  12.774
 4717SOL    HW114711   2.339   0.790  12.715
 4717SOL    HW214712   2.319   0.660  12.790
 4718SOL     OW14713   3.464   0.778  12.854
 4718SOL    HW114714   3.379   0.820  12.847
 4718SOL    HW214715   3.517   0.820  12.786
 4719SOL     OW14716   2.880   0.128  12.952
 4719SOL    HW114717   2.923   0.203  12.912
 4719SOL    HW214718   2.862   0.069  12.878
 4720SOL     OW14719   2.349   0.034  12.934
 4720SOL    HW114720   2.353   0.045  12.839
 4720SOL    HW214721   2.290   0.104  12.964
 4721SOL     OW14722   2.446   0.873  12.204
 4721SOL    HW114723   2.475   0.964  12.203
 4721SOL    HW214724   2.389   0.866  12.280
 4722SOL     OW14725   3.217   0.859  12.200
 4722SOL    HW114726   3.134   0.848  12.155
 4722SOL    HW214727   3.259   0.773  12.193
 4723SOL     OW14728   3.064   0.536  11.432
 4723SOL    HW114729   3.072   0.457  11.485
 4723SOL    HW214730   3.021   0.599  11.489
 4724SOL     OW14731   2.163   0.210  12.415
 4724SOL    HW114732   2.122   0.239  12.496
 4724SOL    HW214733   2.151   0.115  12.414
 4725SOL     OW14734   1.905   1.313  12.450
 4725SOL    HW114735   1.940   1.257  12.520
 4725SOL    HW214736   1.915   1.402  12.483
 4726SOL     OW14737   2.585   0.632  12.226
 4726SOL    HW114738   2.660   0.619  12.168
 4726SOL    HW214739   2.556   0.721  12.206
 4727SOL     OW14740   3.595   0.955  13.034
 4727SOL    HW114741   3.551   0.898  12.972
 4727SOL    HW214742   3.531   0.970  13.103
 4728SOL     OW14743   2.184   0.056  11.821
 4728SOL    HW114744   2.164   0.149  11.833
 4728SOL    HW214745   2.146   0.014  11.898
 4729SOL     OW14746   3.473   0.390  11.552
 4729SOL    HW114747   3.438   0.321  11.609
 4729SOL    HW214748   3.451   0.472  11.597
 4730SOL     OW14749   2.891   0.759  12.131
 4730SOL    HW114750   2.886   0.776  12.225
 4730SOL    HW214751   2.864   0.668  12.122
 4731SOL     OW14752   2.844   1.566  12.890
 4731SOL    HW114753   2.829   1.610  12.806
 4731SOL    HW214754   2.887   1.484  12.867
 4732SOL     OW14755   3.706   1.501  12.771
 4732SOL    HW114756   3.729   1.529  12.683
 4732SOL    HW214757   3.787   1.513  12.822
 4733SOL     OW14758   2.215   0.914  12.982
 4733SOL    HW114759   2.297   0.935  13.026
 4733SOL    HW214760   2.239   0.853  12.913
 4734SOL     OW14761   3.366   0.275  11.307
 4734SOL    HW114762   3.291   0.216  11.318
 4734SOL    HW214763   3.379   0.314  11.393
 4735SOL     OW14764   3.152   0.827  11.201
 4735SOL    HW114765   3.194   0.741  11.205
 4735SOL    HW214766   3.184   0.866  11.120
 4736SOL     OW14767   2.928   1.336  12.027
 4736SOL    HW114768   2.932   1.264  11.964
 4736SOL    HW214769   2.989   1.401  11.992
 4737SOL     OW14770   2.170   0.809  12.119
 4737SOL    HW114771   2.263   0.831  12.112
 4737SOL    HW214772   2.168   0.719  12.151
 4738SOL     OW14773   2.199   0.535  12.185
 4738SOL    HW114774   2.157   0.450  12.170
 4738SOL    HW214775   2.275   0.536  12.127
 4739SOL     OW14776   2.995   0.381  12.867
 4739SOL    HW114777   2.946   0.436  12.929
 4739SOL    HW214778   3.082   0.421  12.862
 4740SOL     OW14779   3.013   0.225  12.653
 4740SOL    HW114780   3.004   0.280  12.731
 4740SOL    HW214781   3.037   0.287  12.584
 4741SOL     OW14782   1.866   1.319  11.366
 4741SOL    HW114783   1.779   1.332  11.329
 4741SOL    HW214784   1.865   1.230  11.400
 4742SOL     OW14785   1.977   1.730  12.157
 4742SOL    HW114786   1.940   1.666  12.096
 4742SOL    HW214787   2.017   1.797  12.101
 4743SOL     OW14788   2.361   1.570  12.082
 4743SOL    HW114789   2.428   1.635  12.104
 4743SOL    HW214790   2.404   1.510  12.023
 4744SOL     OW14791   2.843   0.789  12.397
 4744SOL    HW114792   2.899   0.769  12.472
 4744SOL    HW214793   2.757   0.754  12.421
 4745SOL     OW14794   1.895   0.547  12.289
 4745SOL    HW114795   1.970   0.521  12.235
 4745SOL    HW214796   1.929   0.547  12.379
 4746SOL     OW14797   2.065   0.526  12.886
 4746SOL    HW114798   2.134   0.505  12.823
 4746SOL    HW214799   2.020   0.601  12.847
 4747SOL     OW14800   3.241   0.938  12.830
 4747SOL    HW114801   3.262   1.031  12.828
 4747SOL    HW214802   3.237   0.912  12.738
 4748SOL     OW14803   2.679   0.572  11.534
 4748SOL    HW114804   2.684   0.496  11.475
 4748SOL    HW214805   2.604   0.622  11.502
 4749SOL     OW14806   3.502   0.602  12.356
 4749SOL    HW114807   3.491   0.541  12.430
 4749SOL    HW214808   3.588   0.581  12.320
 4750SOL     OW14809   2.115   1.536  12.879
 4750SOL    HW114810   2.099   1.605  12.943
 4750SOL    HW214811   2.117   1.455  12.931
 4751SOL     OW14812   2.566   0.454  12.430
 4751SOL    HW114813   2.517   0.377  12.404
 4751SOL    HW214814   2.559   0.514  12.355
 4752SOL     OW14815   2.788   1.679  12.640
 4752SOL    HW114816   2.763   1.643  12.555
 4752SOL    HW214817   2.783   1.774  12.629
 4753SOL     OW14818   2.326   0.494  11.356
 4753SOL    HW114819   2.383   0.567  11.380
 4753SOL    HW214820   2.240   0.534  11.344
 4754SOL     OW14821   2.005   1.141  12.645
 4754SOL    HW114822   2.008   1.090  12.726
 4754SOL    HW214823   2.023   1.076  12.576
 4755SOL     OW14824   3.185   1.045  12.395
 4755SOL    HW114825   3.209   0.983  12.327
 4755SOL    HW214826   3.117   1.099  12.355
 4756SOL     OW14827   3.175   0.855  11.477
 4756SOL    HW114828   3.099   0.827  11.529
 4756SOL    HW214829   3.148   0.843  11.386
 4757SOL     OW14830   3.641   1.743  12.328
 4757SOL    HW114831   3.695   1.770  12.254
 4757SOL    HW214832   3.612   1.654  12.304
 4758SOL     OW14833   3.103   1.734  12.284
 4758SOL    HW114834   3.185   1.755  12.239
 4758SOL    HW214835   3.110   1.640  12.302
 4759SOL     OW14836   1.948   1.263  12.186
 4759SOL    HW114837   1.931   1.279  12.279
 4759SOL    HW214838   1.874   1.211  12.157
 4760SOL     OW14839   2.539   1.666  12.901
 4760SOL    HW114840   2.486   1.746  12.900
 4760SOL    HW214841   2.605   1.680  12.834
 4761SOL     OW14842   3.552   0.121  11.659
 4761SOL    HW114843   3.634   0.135  11.611
 4761SOL    HW214844   3.554   0.028  11.681
 4762SOL     OW14845   3.252   1.567  11.658
 4762SOL    HW114846   3.312   1.600  11.591
 4762SOL    HW214847   3.204   1.645  11.686
 4763SOL     OW14848   2.039   1.736  13.034
 4763SOL    HW114849   1.970   1.698  13.088
 4763SOL    HW214850   2.010   1.826  13.018
 4764SOL     OW14851   3.139   0.926  11.843
 4764SOL    HW114852   3.214   0.866  11.852
 4764SOL    HW214853   3.173   0.999  11.790
 4765SOL     OW14854   2.674   1.273  12.601
 4765SOL    HW114855   2.646   1.313  12.683
 4765SOL    HW214856   2.604   1.295  12.539
 4766SOL     OW14857   2.537   1.620  11.323
 4766SOL    HW114858   2.545   1.631  11.228
 4766SOL    HW214859   2.480   1.544  11.334
 4767SOL     OW14860   3.484   1.727  12.563
 4767SOL    HW114861   3.538   1.732  12.484
 4767SOL    HW214862   3.471   1.818  12.589
 4768SOL     OW14863   3.703   0.181  12.143
 4768SOL    HW114864   3.727   0.097  12.104
 4768SOL    HW214865   3.616   0.200  12.106
 4769SOL     OW14866   2.126   0.317  11.887
 4769SOL    HW114867   2.040   0.352  11.865
 4769SOL    HW214868   2.125   0.307  11.982
 4770SOL     OW14869   3.069   1.605  11.204
 4770SOL    HW114870   3.059   1.514  11.231
 4770SOL    HW214871   3.004   1.617  11.135
 4771SOL     OW14872   2.686   1.006  12.544
 4771SOL    HW114873   2.728   1.002  12.458
 4771SOL    HW214874   2.685   1.099  12.567
 4772SOL     OW14875   2.778   0.910  11.462
 4772SOL    HW114876   2.839   0.943  11.396
 4772SOL    HW214877   2.826   0.841  11.507
 4773SOL     OW14878   3.352   1.627  11.215
 4773SOL    HW114879   3.258   1.619  11.200
 4773SOL    HW214880   3.389   1.633  11.127
 4774SOL     OW14881   2.232   1.296  12.665
 4774SOL    HW114882   2.221   1.374  12.611
 4774SOL    HW214883   2.153   1.244  12.649
 4775SOL     OW14884   3.464   1.280  12.450
 4775SOL    HW114885   3.532   1.273  12.517
 4775SOL    HW214886   3.407   1.350  12.481
 4776SOL     OW14887   2.916   1.108  11.880
 4776SOL    HW114888   2.845   1.057  11.918
 4776SOL    HW214889   2.978   1.042  11.849
 4777SOL     OW14890   2.876   0.248  12.141
 4777SOL    HW114891   2.866   0.198  12.060
 4777SOL    HW214892   2.871   0.183  12.210
 4778SOL     OW14893   2.464   1.489  11.653
 4778SOL    HW114894   2.507   1.440  11.583
 4778SOL    HW214895   2.403   1.547  11.607
 4779SOL     OW14896   3.582   0.393  12.545
 4779SOL    HW114897   3.654   0.456  12.544
 4779SOL    HW214898   3.614   0.321  12.490
 4780SOL     OW14899   2.121   1.345  11.458
 4780SOL    HW114900   2.028   1.342  11.437
 4780SOL    HW214901   2.125   1.378  11.547
 4781SOL     OW14902   1.975   1.024  12.892
 4781SOL    HW114903   1.899   1.000  12.945
 4781SOL    HW214904   2.049   0.985  12.939
 4782SOL     OW14905   2.554   0.250  12.672
 4782SOL    HW114906   2.622   0.197  12.631
 4782SOL    HW214907   2.581   0.258  12.763
 4783SOL     OW14908   1.961   0.318  11.163
 4783SOL    HW114909   1.890   0.337  11.225
 4783SOL    HW214910   1.971   0.399  11.113
 4784SOL     OW14911   3.289   0.857  12.571
 4784SOL    HW114912   3.239   0.919  12.517
 4784SOL    HW214913   3.377   0.860  12.535
 4785SOL     OW14914   1.943   0.153  11.512
 4785SOL    HW114915   1.913   0.214  11.445
 4785SOL    HW214916   2.029   0.124  11.482
 4786SOL     OW14917   3.040   1.339  11.289
 4786SOL    HW114918   2.949   1.309  11.291
 4786SOL    HW214919   3.068   1.339  11.381
 4787SOL     OW14920   2.483   0.829  12.606
 4787SOL    HW114921   2.539   0.905  12.591
 4787SOL    HW214922   2.544   0.756  12.614
 4788SOL     OW14923   3.345   1.780  12.151
 4788SOL    HW114924   3.368   1.840  12.081
 4788SOL    HW214925   3.428   1.755  12.190
 4789SOL     OW14926   2.580   0.562  12.877
 4789SOL    HW114927   2.621   0.625  12.936
 4789SOL    HW214928   2.607   0.476  12.910
 4790SOL     OW14929   3.334   1.198  12.803
 4790SOL    HW114930   3.323   1.213  12.897
 4790SOL    HW214931   3.427   1.214  12.788
 4791SOL     OW14932   2.238   1.745  12.743
 4791SOL    HW114933   2.166   1.759  12.682
 4791SOL    HW214934   2.219   1.662  12.785
 4792SOL     OW14935   3.528   0.881  12.431
 4792SOL    HW114936   3.526   0.796  12.387
 4792SOL    HW214937   3.521   0.945  12.360
 4793SOL     OW14938   3.083   0.336  11.616
 4793SOL    HW114939   3.152   0.269  11.607
 4793SOL    HW214940   3.105   0.380  11.698
 4794SOL     OW14941   2.452   0.737  11.842
 4794SOL    HW114942   2.490   0.823  11.827
 4794SOL    HW214943   2.385   0.729  11.775
 4795SOL     OW14944   3.617   0.381  12.814
 4795SOL    HW114945   3.596   0.389  12.721
 4795SOL    HW214946   3.557   0.313  12.846
 4796SOL     OW14947   3.615   0.931  12.686
 4796SOL    HW114948   3.607   1.025  12.702
 4796SOL    HW214949   3.592   0.920  12.594
 4797SOL     OW14950   2.724   1.367  11.208
 4797SOL    HW114951   2.686   1.393  11.291
 4797SOL    HW214952   2.742   1.449  11.162
 4798SOL     OW14953   2.524   1.794  12.116
 4798SOL    HW114954   2.508   1.884  12.090
 4798SOL    HW214955   2.618   1.782  12.107
 4799SOL     OW14956   2.730   0.968  12.027
 4799SOL    HW114957   2.780   0.896  12.066
 4799SOL    HW214958   2.694   1.016  12.102
 4800SOL     OW14959   2.941   0.989  11.261
 4800SOL    HW114960   2.919   1.040  11.184
 4800SOL    HW214961   3.015   0.935  11.234
 4801SOL     OW14962   3.715   1.556  12.014
 4801SOL    HW114963   3.636   1.540  11.962
 4801SOL    HW214964   3.714   1.489  12.082
 4802SOL     OW14965   2.088   1.300  13.028
 4802SOL    HW114966   2.020   1.239  13.001
 4802SOL    HW214967   2.074   1.313  13.122
 4803SOL     OW14968   1.942   1.225  11.837
 4803SOL    HW114969   1.955   1.180  11.921
 4803SOL    HW214970   2.015   1.196  11.783
 4804SOL     OW14971   2.543   1.404  12.800
 4804SOL    HW114972   2.464   1.361  12.832
 4804SOL    HW214973   2.539   1.492  12.837
 4805SOL     OW14974   3.677   0.182  12.416
 4805SOL    HW114975   3.679   0.086  12.424
 4805SOL    HW214976   3.694   0.198  12.323
 4806SOL     OW14977   2.290   0.434  11.697
 4806SOL    HW114978   2.324   0.363  11.643
 4806SOL    HW214979   2.243   0.391  11.768
 4807SOL     OW14980   3.559   1.491  12.270
 4807SOL    HW114981   3.481   1.468  12.221
 4807SOL    HW214982   3.571   1.420  12.332
 4808SOL     OW14983   2.192   0.555  12.466
 4808SOL    HW114984   2.245   0.497  12.520
 4808SOL    HW214985   2.211   0.529  12.376
 4809SOL     OW14986   2.689   1.578  11.849
 4809SOL    HW114987   2.674   1.632  11.771
 4809SOL    HW214988   2.614   1.519  11.852
 4810SOL     OW14989   3.324   0.252  12.283
 4810SOL    HW114990   3.337   0.164  12.318
 4810SOL    HW214991   3.267   0.295  12.347
 4811SOL     OW14992   2.867   0.028  12.319
 4811SOL    HW114993   2.788   3.986  12.285
 4811SOL    HW214994   2.930   3.957  12.327
 4812SOL     OW14995   2.636   1.333  11.487
 4812SOL    HW114996   2.604   1.243  11.494
 4812SOL    HW214997   2.716   1.334  11.538
 4813SOL     OW14998   2.483   1.555  12.458
 4813SOL    HW114999   2.484   1.638  12.507
 4813SOL    HW215000   2.571   1.549  12.420
 4814SOL     OW15001   3.175   0.071  11.332
 4814SOL    HW115002   3.183   3.993  11.277
 4814SOL    HW215003   3.090   0.062  11.375
 4815SOL     OW15004   3.144   0.457  11.858
 4815SOL    HW115005   3.098   0.540  11.853
 4815SOL    HW215006   3.148   0.437  11.951
 4816SOL     OW15007   3.452   0.210  12.039
 4816SOL    HW115008   3.403   0.233  12.118
 4816SOL    HW215009   3.451   0.290  11.986
 4817SOL     OW15010   1.906   1.071  11.477
 4817SOL    HW115011   2.000   1.063  11.461
 4817SOL    HW215012   1.878   0.982  11.502
 4818SOL     OW15013   2.747   1.655  11.514
 4818SOL    HW115014   2.675   1.637  11.453
 4818SOL    HW215015   2.716   1.729  11.566
 4819SOL     OW15016   2.090   0.620  13.156
 4819SOL    HW115017   2.000   0.626  13.186
 4819SOL    HW215018   2.082   0.600  13.062
 4820SOL     OW15019   2.114   0.264   0.127
 4820SOL    HW115020   2.151   0.325   0.190
 4820SOL    HW215021   2.019   0.279   0.131
 4821SOL     OW15022   1.871   0.389  13.646
 4821SOL    HW115023   1.778   0.400  13.666
 4821SOL    HW215024   1.878   0.301  13.611
 4822SOL     OW15025   3.390   1.499  13.725
 4822SOL    HW115026   3.332   1.437  13.769
 4822SOL    HW215027   3.345   1.520  13.643
 4823SOL     OW15028   2.992   0.700  13.734
 4823SOL    HW115029   3.046   0.775  13.708
 4823SOL    HW215030   2.938   0.733  13.805
 4824SOL     OW15031   3.629   0.620  13.260
 4824SOL    HW115032   3.609   0.612  13.167
 4824SOL    HW215033   3.605   0.535  13.298
 4825SOL     OW15034   2.546   1.012  13.672
 4825SOL    HW115035   2.601   0.990  13.748
 4825SOL    HW215036   2.472   1.060  13.708
 4826SOL     OW15037   3.479   0.461  13.765
 4826SOL    HW115038   3.395   0.471  13.721
 4826SOL    HW215039   3.499   0.548  13.799
 4827SOL     OW15040   2.095   1.691  13.497
 4827SOL    HW115041   2.113   1.760  13.561
 4827SOL    HW215042   2.170   1.693  13.438
 4828SOL     OW15043   2.096   1.429  13.569
 4828SOL    HW115044   2.085   1.524  13.561
 4828SOL    HW215045   2.031   1.403  13.635
 4829SOL     OW15046   2.101   1.107   0.025
 4829SOL    HW115047   2.121   1.043   0.094
 4829SOL    HW215048   2.034   1.164   0.064
 4830SOL     OW15049   2.446   0.983  13.168
 4830SOL    HW115050   2.492   1.030  13.099
 4830SOL    HW215051   2.485   1.014  13.250
 4831SOL     OW15052   1.980   0.657  13.588
 4831SOL    HW115053   1.950   0.567  13.601
 4831SOL    HW215054   1.964   0.700  13.672
 4832SOL     OW15055   3.701   1.758  13.370
 4832SOL    HW115056   3.771   1.732  13.430
 4832SOL    HW215057   3.721   1.849  13.348
 4833SOL     OW15058   1.859   1.608  13.194
 4833SOL    HW115059   1.851   1.515  13.174
 4833SOL    HW215060   1.890   1.610  13.285
 4834SOL     OW15061   3.546   0.914  13.667
 4834SOL    HW115062   3.635   0.884  13.649
 4834SOL    HW215063   3.525   0.971  13.593
 4835SOL     OW15064   3.504   1.105  13.463
 4835SOL    HW115065   3.588   1.110  13.417
 4835SOL    HW215066   3.511   1.168  13.534
 4836SOL     OW15067   2.466   1.384  13.760
 4836SOL    HW115068   2.423   1.299  13.767
 4836SOL    HW215069   2.444   1.415  13.672
 4837SOL     OW15070   2.682   0.003  13.551
 4837SOL    HW115071   2.726   0.084  13.524
 4837SOL    HW215072   2.589   0.026  13.548
 4838SOL     OW15073   3.390   0.994  13.234
 4838SOL    HW115074   3.321   0.937  13.268
 4838SOL    HW215075   3.431   1.031  13.313
 4839SOL     OW15076   3.516   1.742  13.613
 4839SOL    HW115077   3.497   1.712  13.524
 4839SOL    HW215078   3.510   1.663  13.667
 4840SOL     OW15079   2.456   0.722  13.299
 4840SOL    HW115080   2.460   0.804  13.250
 4840SOL    HW215081   2.391   0.738  13.368
 4841SOL     OW15082   3.105   0.339   0.053
 4841SOL    HW115083   3.016   0.325   0.084
 4841SOL    HW215084   3.160   0.297   0.119
 4842SOL     OW15085   3.440   1.673  13.342
 4842SOL    HW115086   3.531   1.702  13.337
 4842SOL    HW215087   3.415   1.656  13.252
 4843SOL     OW15088   2.911   0.696  13.459
 4843SOL    HW115089   2.925   0.684  13.553
 4843SOL    HW215090   2.829   0.650  13.441
 4844SOL     OW15091   1.942   0.817  13.811
 4844SOL    HW115092   2.024   0.815  13.860
 4844SOL    HW215093   1.897   0.895  13.844
 4845SOL     OW15094   2.756   0.351  13.232
 4845SOL    HW115095   2.797   0.410  13.169
 4845SOL    HW215096   2.752   0.267  13.187
 4846SOL     OW15097   3.225   1.135  13.553
 4846SOL    HW115098   3.315   1.135  13.520
 4846SOL    HW215099   3.182   1.207  13.506
 4847SOL     OW15100   2.863   1.441  13.503
 4847SOL    HW115101   2.831   1.516  13.454
 4847SOL    HW215102   2.834   1.455  13.593
 4848SOL     OW15103   2.267   1.787  13.851
 4848SOL    HW115104   2.243   1.703  13.891
 4848SOL    HW215105   2.342   1.817   0.003
 4849SOL     OW15106   3.652   1.054  13.898
 4849SOL    HW115107   3.592   1.049  13.824
 4849SOL    HW215108   3.595   1.050   0.075
 4850SOL     OW15109   2.182   0.959  13.286
 4850SOL    HW115110   2.263   0.978  13.240
 4850SOL    HW215111   2.151   0.877  13.247
 4851SOL     OW15112   3.353   0.731  13.752
 4851SOL    HW115113   3.338   0.694  13.838
 4851SOL    HW215114   3.420   0.797  13.765
 4852SOL     OW15115   2.984   1.778  13.264
 4852SOL    HW115116   2.910   1.737  13.310
 4852SOL    HW215117   3.008   1.716  13.195
 4853SOL     OW15118   3.488   1.382  13.120
 4853SOL    HW115119   3.445   1.467  13.106
 4853SOL    HW215120   3.420   1.317  13.102
 4854SOL     OW15121   2.339   1.715  13.374
 4854SOL    HW115122   2.373   1.790  13.422
 4854SOL    HW215123   2.396   1.709  13.296
 4855SOL     OW15124   3.285   0.163  13.442
 4855SOL    HW115125   3.250   0.104  13.375
 4855SOL    HW215126   3.374   0.133  13.457
 4856SOL     OW15127   2.786   1.690   0.010
 4856SOL    HW115128   2.816   1.624   0.073
 4856SOL    HW215129   2.746   1.639  13.839
 4857SOL     OW15130   2.255   0.698  13.508
 4857SOL    HW115131   2.276   0.605  13.518
 4857SOL    HW215132   2.161   0.704  13.524
 4858SOL     OW15133   2.505   0.132  13.141
 4858SOL    HW115134   2.532   0.049  13.180
 4858SOL    HW215135   2.442   0.107  13.073
 4859SOL     OW15136   2.411   0.057  13.527
 4859SOL    HW115137   2.336   0.060  13.586
 4859SOL    HW215138   2.404   0.136  13.474
 4860SOL     OW15139   3.290   1.199  13.075
 4860SOL    HW115140   3.319   1.123  13.126
 4860SOL    HW215141   3.204   1.221  13.112
 4861SOL     OW15142   2.191   0.044  13.242
 4861SOL    HW115143   2.203   0.111  13.175
 4861SOL    HW215144   2.276   0.040  13.287
 4862SOL     OW15145   2.802   0.247  13.493
 4862SOL    HW115146   2.775   0.289  13.412
 4862SOL    HW215147   2.897   0.254  13.494
 4863SOL     OW15148   2.326   1.143  13.771
 4863SOL    HW115149   2.252   1.130  13.831
 4863SOL    HW215150   2.288   1.131  13.684
 4864SOL     OW15151   3.132   1.796  13.634
 4864SOL    HW115152   3.175   1.862  13.581
 4864SOL    HW215153   3.064   1.844  13.682
 4865SOL     OW15154   2.884   0.544  13.060
 4865SOL    HW115155   2.840   0.627  13.040
 4865SOL    HW215156   2.948   0.567  13.128
 4866SOL     OW15157   2.758   0.474  13.667
 4866SOL    HW115158   2.689   0.519  13.619
 4866SOL    HW215159   2.764   0.388  13.627
 4867SOL     OW15160   2.863   0.039  13.796
 4867SOL    HW115161   2.830   0.064  13.709
 4867SOL    HW215162   2.885   3.946  13.788
 4868SOL     OW15163   3.728   0.822  13.409
 4868SOL    HW115164   3.774   0.765  13.471
 4868SOL    HW215165   3.688   0.761  13.346
 4869SOL     OW15166   2.355   1.419  13.189
 4869SOL    HW115167   2.280   1.392  13.242
 4869SOL    HW215168   2.339   1.378  13.103
 4870SOL     OW15169   3.539   1.268  13.668
 4870SOL    HW115170   3.633   1.272  13.685
 4870SOL    HW215171   3.505   1.351  13.700
 4871SOL     OW15172   3.256   0.575  13.104
 4871SOL    HW115173   3.193   0.555  13.173
 4871SOL    HW215174   3.341   0.555  13.142
 4872SOL     OW15175   2.390   0.266  13.350
 4872SOL    HW115176   2.443   0.226  13.281
 4872SOL    HW215177   2.362   0.350  13.313
 4873SOL     OW15178   2.571   1.063  13.401
 4873SOL    HW115179   2.556   1.048  13.494
 4873SOL    HW215180   2.647   1.009  13.379
 4874SOL     OW15181   2.213   1.109  13.526
 4874SOL    HW115182   2.215   1.186  13.468
 4874SOL    HW215183   2.208   1.034  13.466
 4875SOL     OW15184   2.432   0.541  13.864
 4875SOL    HW115185   2.444   0.609  13.798
 4875SOL    HW215186   2.488   0.568   0.037
 4876SOL     OW15187   3.108   1.351  13.419
 4876SOL    HW115188   3.163   1.425  13.447
 4876SOL    HW215189   3.021   1.372  13.454
 4877SOL     OW15190   3.446   0.632  13.512
 4877SOL    HW115191   3.406   0.681  13.584
 4877SOL    HW215192   3.482   0.699  13.454
 4878SOL     OW15193   3.065   0.533  13.296
 4878SOL    HW115194   3.070   0.454  13.349
 4878SOL    HW215195   3.021   0.597  13.352
 4879SOL     OW15196   2.194   0.052  13.685
 4879SOL    HW115197   2.172   0.145  13.696
 4879SOL    HW215198   2.118   0.006  13.721
 4880SOL     OW15199   3.461   0.390  13.407
 4880SOL    HW115200   3.439   0.322  13.471
 4880SOL    HW215201   3.446   0.472  13.454
 4881SOL     OW15202   3.365   0.278  13.167
 4881SOL    HW115203   3.292   0.217  13.180
 4881SOL    HW215204   3.379   0.317  13.253
 4882SOL     OW15205   3.151   0.827  13.063
 4882SOL    HW115206   3.194   0.741  13.066
 4882SOL    HW215207   3.184   0.867  12.982
 4883SOL     OW15208   1.866   1.320  13.228
 4883SOL    HW115209   1.779   1.333  13.191
 4883SOL    HW215210   1.865   1.230  13.262
 4884SOL     OW15211   2.678   0.575  13.388
 4884SOL    HW115212   2.682   0.497  13.333
 4884SOL    HW215213   2.602   0.623  13.357
 4885SOL     OW15214   2.326   0.493  13.218
 4885SOL    HW115215   2.383   0.567  13.241
 4885SOL    HW215216   2.240   0.533  13.206
 4886SOL     OW15217   3.177   0.849  13.338
 4886SOL    HW115218   3.098   0.829  13.389
 4886SOL    HW215219   3.150   0.840  13.247
 4887SOL     OW15220   3.542   0.115  13.472
 4887SOL    HW115221   3.633   0.127  13.447
 4887SOL    HW215222   3.545   0.050  13.542
 4888SOL     OW15223   3.245   1.573  13.508
 4888SOL    HW115224   3.305   1.609  13.444
 4888SOL    HW215225   3.199   1.649  13.544
 4889SOL     OW15226   3.151   0.913  13.685
 4889SOL    HW115227   3.229   0.859  13.669
 4889SOL    HW215228   3.172   0.997  13.644
 4890SOL     OW15229   2.537   1.620  13.184
 4890SOL    HW115230   2.545   1.631  13.090
 4890SOL    HW215231   2.480   1.544  13.195
 4891SOL     OW15232   3.674   0.162   0.060
 4891SOL    HW115233   3.709   0.073   0.062
 4891SOL    HW215234   3.582   0.150   0.035
 4892SOL     OW15235   2.138   0.312  13.745
 4892SOL    HW115236   2.047   0.331  13.721
 4892SOL    HW215237   2.138   0.306  13.840
 4893SOL     OW15238   3.069   1.605  13.066
 4893SOL    HW115239   3.059   1.513  13.092
 4893SOL    HW215240   3.004   1.617  12.997
 4894SOL     OW15241   2.781   0.913  13.329
 4894SOL    HW115242   2.840   0.943  13.260
 4894SOL    HW215243   2.826   0.839  13.369
 4895SOL     OW15244   3.352   1.627  13.077
 4895SOL    HW115245   3.258   1.619  13.062
 4895SOL    HW215246   3.389   1.633  12.989
 4896SOL     OW15247   2.912   1.090  13.755
 4896SOL    HW115248   2.825   1.053  13.743
 4896SOL    HW215249   2.964   1.053  13.684
 4897SOL     OW15250   2.459   1.489  13.508
 4897SOL    HW115251   2.504   1.441  13.438
 4897SOL    HW215252   2.402   1.550  13.462
 4898SOL     OW15253   2.121   1.344  13.319
 4898SOL    HW115254   2.028   1.341  13.299
 4898SOL    HW215255   2.126   1.378  13.408
 4899SOL     OW15256   1.960   0.318  13.025
 4899SOL    HW115257   1.889   0.337  13.086
 4899SOL    HW215258   1.971   0.399  12.975
 4900SOL     OW15259   1.952   0.155  13.367
 4900SOL    HW115260   1.923   0.216  13.300
 4900SOL    HW215261   2.037   0.123  13.335
 4901SOL     OW15262   3.040   1.338  13.149
 4901SOL    HW115263   2.949   1.309  13.152
 4901SOL    HW215264   3.068   1.340  13.241
 4902SOL     OW15265   3.080   0.332  13.485
 4902SOL    HW115266   3.149   0.268  13.472
 4902SOL    HW215267   3.109   0.383  13.561
 4903SOL     OW15268   2.455   0.750  13.692
 4903SOL    HW115269   2.489   0.837  13.672
 4903SOL    HW215270   2.385   0.736  13.628
 4904SOL     OW15271   2.725   1.367  13.070
 4904SOL    HW115272   2.686   1.394  13.153
 4904SOL    HW215273   2.742   1.449  13.023
 4905SOL     OW15274   2.515   1.848   0.068
 4905SOL    HW115275   2.528   1.942   0.053
 4905SOL    HW215276   2.604   1.814   0.079
 4906SOL     OW15277   2.690   0.965  13.895
 4906SOL    HW115278   2.724   0.885   0.035
 4906SOL    HW215279   2.713   1.034   0.058
 4907SOL     OW15280   2.940   0.987  13.123
 4907SOL    HW115281   2.918   1.039  13.046
 4907SOL    HW215282   3.014   0.934  13.096
 4908SOL     OW15283   1.947   1.228  13.702
 4908SOL    HW115284   1.949   1.171  13.779
 4908SOL    HW215285   2.018   1.196  13.646
 4909SOL     OW15286   2.291   0.437  13.552
 4909SOL    HW115287   2.326   0.365  13.500
 4909SOL    HW215288   2.252   0.395  13.628
 4910SOL     OW15289   3.542   1.458   0.347
 4910SOL    HW115290   3.512   1.437   0.258
 4910SOL    HW215291   3.630   1.420   0.351
 4911SOL     OW15292   2.681   1.551  13.709
 4911SOL    HW115293   2.659   1.606  13.634
 4911SOL    HW215294   2.603   1.496  13.722
 4912SOL     OW15295   2.635   1.334  13.347
 4912SOL    HW115296   2.604   1.243  13.354
 4912SOL    HW215297   2.716   1.336  13.398
 4913SOL     OW15298   3.175   0.074  13.201
 4913SOL    HW115299   3.193   3.998  13.145
 4913SOL    HW215300   3.086   0.058  13.234
 4914SOL     OW15301   3.156   0.460  13.716
 4914SOL    HW115302   3.105   0.542  13.716
 4914SOL    HW215303   3.149   0.428  13.806
 4915SOL     OW15304   1.907   1.071  13.339
 4915SOL    HW115305   2.001   1.063  13.321
 4915SOL    HW215306   1.879   0.983  13.362
 4916SOL     OW15307   2.747   1.654  13.376
 4916SOL    HW115308   2.675   1.638  13.315
 4916SOL    HW215309   2.717   1.727  13.429
 4917SOL     OW15310   2.097   2.501   0.106
 4917SOL    HW115311   2.011   2.471   0.135
 4917SOL    HW215312   2.116   2.448   0.029
 4918SOL     OW15313   1.871   2.283   0.632
 4918SOL    HW115314   1.781   2.279   0.664
 4918SOL    HW215315   1.881   2.204   0.578
 4919SOL     OW15316   2.429   3.152   1.176
 4919SOL    HW115317   2.342   3.157   1.137
 4919SOL    HW215318   2.445   3.240   1.210
 4920SOL     OW15319   3.424   3.374   0.708
 4920SOL    HW115320   3.380   3.351   0.789
 4920SOL    HW215321   3.354   3.376   0.642
 4921SOL     OW15322   2.992   2.560   0.700
 4921SOL    HW115323   3.041   2.641   0.686
 4921SOL    HW215324   2.946   2.575   0.783
 4922SOL     OW15325   3.624   2.465   0.230
 4922SOL    HW115326   3.635   2.426   0.143
 4922SOL    HW215327   3.587   2.395   0.283
 4923SOL     OW15328   2.615   3.003   1.041
 4923SOL    HW115329   2.546   3.038   1.099
 4923SOL    HW215330   2.652   3.080   0.998
 4924SOL     OW15331   2.729   2.633   1.822
 4924SOL    HW115332   2.717   2.704   1.885
 4924SOL    HW215333   2.754   2.678   1.741
 4925SOL     OW15334   2.547   2.861   0.647
 4925SOL    HW115335   2.613   2.852   0.716
 4925SOL    HW215336   2.478   2.915   0.686
 4926SOL     OW15337   2.574   3.013   1.813
 4926SOL    HW115338   2.621   3.091   1.841
 4926SOL    HW215339   2.491   3.046   1.777
 4927SOL     OW15340   2.194   3.285   1.067
 4927SOL    HW115341   2.119   3.249   1.018
 4927SOL    HW215342   2.241   3.337   1.003
 4928SOL     OW15343   3.321   3.363   1.355
 4928SOL    HW115344   3.375   3.442   1.365
 4928SOL    HW215345   3.258   3.367   1.427
 4929SOL     OW15346   2.283   2.233   1.475
 4929SOL    HW115347   2.371   2.198   1.489
 4929SOL    HW215348   2.225   2.158   1.488
 4930SOL     OW15349   3.473   2.308   0.743
 4930SOL    HW115350   3.399   2.331   0.686
 4930SOL    HW215351   3.488   2.387   0.795
 4931SOL     OW15352   2.082   3.574   0.483
 4931SOL    HW115353   2.111   3.643   0.543
 4931SOL    HW215354   2.144   3.578   0.410
 4932SOL     OW15355   2.998   3.204   1.693
 4932SOL    HW115356   3.040   3.198   1.780
 4932SOL    HW215357   2.946   3.124   1.686
 4933SOL     OW15358   2.082   3.303   0.531
 4933SOL    HW115359   2.074   3.398   0.535
 4933SOL    HW215360   2.027   3.271   0.602
 4934SOL     OW15361   2.121   2.953   0.890
 4934SOL    HW115362   2.117   2.867   0.932
 4934SOL    HW215363   2.064   3.009   0.944
 4935SOL     OW15364   2.472   3.648   1.429
 4935SOL    HW115365   2.390   3.633   1.476
 4935SOL    HW215366   2.498   3.737   1.453
 4936SOL     OW15367   2.430   2.841   0.160
 4936SOL    HW115368   2.457   2.886   0.080
 4936SOL    HW215369   2.482   2.881   0.230
 4937SOL     OW15370   3.457   1.987   1.466
 4937SOL    HW115371   3.467   2.068   1.418
 4937SOL    HW215372   3.444   2.015   1.557
 4938SOL     OW15373   1.983   2.523   0.560
 4938SOL    HW115374   1.950   2.436   0.581
 4938SOL    HW215375   1.972   2.573   0.640
 4939SOL     OW15376   3.697   3.615   0.340
 4939SOL    HW115377   3.764   3.581   0.400
 4939SOL    HW215378   3.722   3.706   0.326
 4940SOL     OW15379   1.883   3.466   0.106
 4940SOL    HW115380   1.889   3.374   0.134
 4940SOL    HW215381   1.868   3.515   0.186
 4941SOL     OW15382   3.549   2.780   0.646
 4941SOL    HW115383   3.633   2.738   0.629
 4941SOL    HW215384   3.530   2.830   0.566
 4942SOL     OW15385   3.505   2.967   0.433
 4942SOL    HW115386   3.591   2.972   0.392
 4942SOL    HW215387   3.508   3.030   0.505
 4943SOL     OW15388   1.983   2.607   1.583
 4943SOL    HW115389   2.075   2.634   1.593
 4943SOL    HW215390   1.933   2.688   1.593
 4944SOL     OW15391   2.477   3.250   0.735
 4944SOL    HW115392   2.430   3.166   0.744
 4944SOL    HW215393   2.460   3.276   0.644
 4945SOL     OW15394   3.150   3.099   1.423
 4945SOL    HW115395   3.182   3.033   1.363
 4945SOL    HW215396   3.208   3.094   1.499
 4946SOL     OW15397   2.702   1.862   0.517
 4946SOL    HW115398   2.741   1.946   0.493
 4946SOL    HW215399   2.608   1.877   0.514
 4947SOL     OW15400   2.052   2.828   1.273
 4947SOL    HW115401   2.136   2.785   1.257
 4947SOL    HW215402   1.989   2.774   1.227
 4948SOL     OW15403   3.393   2.858   0.204
 4948SOL    HW115404   3.324   2.799   0.236
 4948SOL    HW215405   3.431   2.895   0.284
 4949SOL     OW15406   3.077   3.665   1.626
 4949SOL    HW115407   3.056   3.725   1.555
 4949SOL    HW215408   3.079   3.579   1.585
 4950SOL     OW15409   3.327   3.282   0.950
 4950SOL    HW115410   3.260   3.296   1.017
 4950SOL    HW215411   3.316   3.191   0.924
 4951SOL     OW15412   3.516   3.604   0.587
 4951SOL    HW115413   3.506   3.577   0.496
 4951SOL    HW215414   3.496   3.526   0.638
 4952SOL     OW15415   2.459   2.581   0.263
 4952SOL    HW115416   2.462   2.664   0.215
 4952SOL    HW215417   2.399   2.598   0.336
 4953SOL     OW15418   3.140   2.217   0.933
 4953SOL    HW115419   3.051   2.183   0.941
 4953SOL    HW215420   3.192   2.164   0.993
 4954SOL     OW15421   3.421   3.595   0.313
 4954SOL    HW115422   3.517   3.596   0.313
 4954SOL    HW215423   3.398   3.557   0.228
 4955SOL     OW15424   2.654   2.480   1.449
 4955SOL    HW115425   2.630   2.456   1.538
 4955SOL    HW215426   2.614   2.412   1.394
 4956SOL     OW15427   3.255   2.335   1.678
 4956SOL    HW115428   3.258   2.380   1.763
 4956SOL    HW215429   3.315   2.261   1.688
 4957SOL     OW15430   2.815   2.749   1.583
 4957SOL    HW115431   2.870   2.679   1.547
 4957SOL    HW215432   2.768   2.784   1.507
 4958SOL     OW15433   2.855   2.275   1.237
 4958SOL    HW115434   2.769   2.295   1.274
 4958SOL    HW215435   2.836   2.229   1.156
 4959SOL     OW15436   2.913   2.563   0.429
 4959SOL    HW115437   2.929   2.555   0.523
 4959SOL    HW215438   2.830   2.517   0.415
 4960SOL     OW15439   1.951   2.686   0.776
 4960SOL    HW115440   2.032   2.680   0.828
 4960SOL    HW215441   1.906   2.763   0.812
 4961SOL     OW15442   1.985   3.705   1.576
 4961SOL    HW115443   1.986   3.685   1.670
 4961SOL    HW215444   1.892   3.706   1.553
 4962SOL     OW15445   2.732   2.221   0.215
 4962SOL    HW115446   2.770   2.281   0.151
 4962SOL    HW215447   2.744   2.134   0.176
 4963SOL     OW15448   3.572   2.436   1.828
 4963SOL    HW115449   3.534   2.510   1.780
 4963SOL    HW215450   3.596   2.374   1.760
 4964SOL     OW15451   3.238   3.003   0.543
 4964SOL    HW115452   3.317   2.991   0.490
 4964SOL    HW215453   3.186   3.067   0.493
 4965SOL     OW15454   2.410   2.051   0.895
 4965SOL    HW115455   2.412   2.076   0.988
 4965SOL    HW215456   2.428   2.133   0.848
 4966SOL     OW15457   2.867   3.305   0.474
 4966SOL    HW115458   2.833   3.379   0.425
 4966SOL    HW215459   2.847   3.326   0.566
 4967SOL     OW15460   2.213   3.673   0.842
 4967SOL    HW115461   2.263   3.593   0.859
 4967SOL    HW215462   2.274   3.744   0.862
 4968SOL     OW15463   3.666   2.922   0.868
 4968SOL    HW115464   3.612   2.899   0.792
 4968SOL    HW215465   3.605   2.926   0.941
 4969SOL     OW15466   3.090   3.399   1.512
 4969SOL    HW115467   3.076   3.327   1.573
 4969SOL    HW215468   3.023   3.386   1.444
 4970SOL     OW15469   2.173   2.801   0.231
 4970SOL    HW115470   2.265   2.813   0.206
 4970SOL    HW215471   2.159   2.706   0.225
 4971SOL     OW15472   3.340   2.605   0.727
 4971SOL    HW115473   3.334   2.563   0.812
 4971SOL    HW215474   3.417   2.661   0.733
 4972SOL     OW15475   2.329   3.127   1.737
 4972SOL    HW115476   2.302   3.132   1.645
 4972SOL    HW215477   2.247   3.125   1.786
 4973SOL     OW15478   2.988   3.640   0.232
 4973SOL    HW115479   2.924   3.594   0.287
 4973SOL    HW215480   3.014   3.575   0.167
 4974SOL     OW15481   3.493   3.238   0.085
 4974SOL    HW115482   3.456   3.321   0.055
 4974SOL    HW215483   3.426   3.173   0.066
 4975SOL     OW15484   2.338   3.595   0.324
 4975SOL    HW115485   2.371   3.659   0.387
 4975SOL    HW215486   2.415   3.570   0.273
 4976SOL     OW15487   3.265   1.972   0.437
 4976SOL    HW115488   3.260   1.940   0.347
 4976SOL    HW215489   3.359   1.969   0.458
 4977SOL     OW15490   2.121   3.654   1.225
 4977SOL    HW115491   2.169   3.585   1.271
 4977SOL    HW215492   2.107   3.619   1.137
 4978SOL     OW15493   2.800   3.562   0.900
 4978SOL    HW115494   2.877   3.510   0.921
 4978SOL    HW215495   2.756   3.513   0.831
 4979SOL     OW15496   2.255   2.556   0.473
 4979SOL    HW115497   2.275   2.464   0.485
 4979SOL    HW215498   2.162   2.564   0.495
 4980SOL     OW15499   3.397   2.087   1.725
 4980SOL    HW115500   3.406   2.108   1.818
 4980SOL    HW215501   3.329   2.020   1.723
 4981SOL     OW15502   2.626   2.139   1.754
 4981SOL    HW115503   2.704   2.084   1.753
 4981SOL    HW215504   2.581   2.115   1.835
 4982SOL     OW15505   2.738   3.382   1.195
 4982SOL    HW115506   2.722   3.347   1.107
 4982SOL    HW215507   2.808   3.328   1.230
 4983SOL     OW15508   3.202   2.451   1.433
 4983SOL    HW115509   3.233   2.420   1.518
 4983SOL    HW215510   3.239   2.539   1.424
 4984SOL     OW15511   2.678   3.255   0.941
 4984SOL    HW115512   2.762   3.244   0.897
 4984SOL    HW215513   2.614   3.258   0.870
 4985SOL     OW15514   2.789   2.370   0.902
 4985SOL    HW115515   2.765   2.362   0.810
 4985SOL    HW215516   2.822   2.283   0.926
 4986SOL     OW15517   2.447   1.923   0.482
 4986SOL    HW115518   2.373   1.915   0.543
 4986SOL    HW215519   2.428   2.002   0.432
 4987SOL     OW15520   3.292   3.067   0.045
 4987SOL    HW115521   3.312   2.986   0.092
 4987SOL    HW215522   3.200   3.084   0.064
 4988SOL     OW15523   2.807   2.111   0.461
 4988SOL    HW115524   2.775   2.150   0.379
 4988SOL    HW215525   2.901   2.129   0.461
 4989SOL     OW15526   2.943   2.544   1.459
 4989SOL    HW115527   2.876   2.476   1.464
 4989SOL    HW215528   3.025   2.496   1.453
 4990SOL     OW15529   3.083   3.433   0.794
 4990SOL    HW115530   3.100   3.499   0.728
 4990SOL    HW215531   3.153   3.444   0.858
 4991SOL     OW15532   2.331   3.012   0.731
 4991SOL    HW115533   2.263   2.993   0.795
 4991SOL    HW215534   2.289   2.999   0.646
 4992SOL     OW15535   3.129   3.658   0.607
 4992SOL    HW115536   3.176   3.722   0.553
 4992SOL    HW215537   3.058   3.707   0.647
 4993SOL     OW15538   2.859   2.406   0.057
 4993SOL    HW115539   2.858   2.396  13.862
 4993SOL    HW215540   2.952   2.404   0.081
 4994SOL     OW15541   1.939   2.423   1.386
 4994SOL    HW115542   2.032   2.420   1.365
 4994SOL    HW215543   1.932   2.489   1.455
 4995SOL     OW15544   2.417   2.083   1.170
 4995SOL    HW115545   2.467   2.006   1.196
 4995SOL    HW215546   2.333   2.074   1.216
 4996SOL     OW15547   2.726   2.320   0.639
 4996SOL    HW115548   2.687   2.376   0.572
 4996SOL    HW215549   2.751   2.240   0.592
 4997SOL     OW15550   2.874   1.916   0.751
 4997SOL    HW115551   2.819   1.905   0.674
 4997SOL    HW215552   2.854   1.840   0.806
 4998SOL     OW15553   3.300   3.024   0.857
 4998SOL    HW115554   3.230   2.959   0.856
 4998SOL    HW215555   3.325   3.035   0.765
 4999SOL     OW15556   3.327   2.469   0.975
 4999SOL    HW115557   3.276   2.388   0.978
 4999SOL    HW215558   3.387   2.462   1.050
 5000SOL     OW15559   3.724   2.677   0.372
 5000SOL    HW115560   3.765   2.623   0.438
 5000SOL    HW215561   3.683   2.615   0.312
 5001SOL     OW15562   2.351   3.267   0.157
 5001SOL    HW115563   2.276   3.236   0.207
 5001SOL    HW215564   2.332   3.241   0.067
 5002SOL     OW15565   3.528   3.126   0.646
 5002SOL    HW115566   3.623   3.129   0.656
 5002SOL    HW215567   3.499   3.216   0.662
 5003SOL     OW15568   3.283   2.447   0.087
 5003SOL    HW115569   3.216   2.439   0.154
 5003SOL    HW215570   3.321   2.359   0.079
 5004SOL     OW15571   2.384   2.126   0.318
 5004SOL    HW115572   2.439   2.091   0.248
 5004SOL    HW215573   2.352   2.210   0.284
 5005SOL     OW15574   3.614   3.097   1.568
 5005SOL    HW115575   3.701   3.061   1.551
 5005SOL    HW215576   3.630   3.186   1.598
 5006SOL     OW15577   2.920   3.214   1.332
 5006SOL    HW115578   2.845   3.184   1.384
 5006SOL    HW215579   2.996   3.173   1.374
 5007SOL     OW15580   3.469   3.491   1.656
 5007SOL    HW115581   3.460   3.524   1.566
 5007SOL    HW215582   3.550   3.440   1.655
 5008SOL     OW15583   2.992   3.066   1.104
 5008SOL    HW115584   2.933   3.105   1.169
 5008SOL    HW215585   2.960   3.100   1.020
 5009SOL     OW15586   3.491   2.959   1.076
 5009SOL    HW115587   3.484   3.020   1.149
 5009SOL    HW215588   3.414   2.975   1.022
 5010SOL     OW15589   2.779   1.960   1.394
 5010SOL    HW115590   2.803   1.939   1.304
 5010SOL    HW215591   2.857   1.998   1.432
 5011SOL     OW15592   2.846   2.977   1.723
 5011SOL    HW115593   2.754   2.993   1.745
 5011SOL    HW215594   2.844   2.899   1.667
 5012SOL     OW15595   2.577   2.921   0.377
 5012SOL    HW115596   2.562   2.903   0.470
 5012SOL    HW215597   2.652   2.866   0.353
 5013SOL     OW15598   2.280   2.675   1.251
 5013SOL    HW115599   2.348   2.687   1.317
 5013SOL    HW215600   2.246   2.588   1.268
 5014SOL     OW15601   3.127   2.238   1.277
 5014SOL    HW115602   3.160   2.316   1.323
 5014SOL    HW215603   3.037   2.261   1.254
 5015SOL     OW15604   1.933   3.435   1.353
 5015SOL    HW115605   1.905   3.510   1.300
 5015SOL    HW215606   2.029   3.438   1.348
 5016SOL     OW15607   2.208   2.975   0.487
 5016SOL    HW115608   2.207   3.047   0.424
 5016SOL    HW215609   2.214   2.896   0.434
 5017SOL     OW15610   2.407   2.398   0.864
 5017SOL    HW115611   2.421   2.455   0.788
 5017SOL    HW215612   2.475   2.424   0.926
 5018SOL     OW15613   3.110   3.208   0.397
 5018SOL    HW115614   3.166   3.281   0.424
 5018SOL    HW215615   3.023   3.232   0.430
 5019SOL     OW15616   3.144   3.321   1.148
 5019SOL    HW115617   3.201   3.325   1.225
 5019SOL    HW215618   3.089   3.244   1.162
 5020SOL     OW15619   3.443   2.485   0.484
 5020SOL    HW115620   3.394   2.535   0.549
 5020SOL    HW215621   3.473   2.551   0.421
 5021SOL     OW15622   2.208   3.391   1.313
 5021SOL    HW115623   2.196   3.347   1.229
 5021SOL    HW215624   2.302   3.402   1.321
 5022SOL     OW15625   2.277   2.608   1.603
 5022SOL    HW115626   2.339   2.651   1.544
 5022SOL    HW215627   2.321   2.527   1.629
 5023SOL     OW15628   3.465   2.640   1.681
 5023SOL    HW115629   3.379   2.683   1.676
 5023SOL    HW215630   3.517   2.683   1.614
 5024SOL     OW15631   2.857   1.988   1.752
 5024SOL    HW115632   2.915   2.060   1.728
 5024SOL    HW215633   2.905   1.909   1.728
 5025SOL     OW15634   2.374   1.895   1.747
 5025SOL    HW115635   2.326   1.840   1.685
 5025SOL    HW215636   2.315   1.969   1.764
 5026SOL     OW15637   2.446   2.735   1.032
 5026SOL    HW115638   2.478   2.825   1.031
 5026SOL    HW215639   2.390   2.730   1.109
 5027SOL     OW15640   3.218   2.721   1.028
 5027SOL    HW115641   3.135   2.710   0.982
 5027SOL    HW215642   3.260   2.635   1.022
 5028SOL     OW15643   3.081   2.405   0.273
 5028SOL    HW115644   3.085   2.324   0.324
 5028SOL    HW215645   3.025   2.463   0.324
 5029SOL     OW15646   1.908   3.173   1.276
 5029SOL    HW115647   1.941   3.119   1.347
 5029SOL    HW215648   1.914   3.262   1.309
 5030SOL     OW15649   2.583   2.490   1.055
 5030SOL    HW115650   2.660   2.475   1.001
 5030SOL    HW215651   2.557   2.580   1.037
 5031SOL     OW15652   3.593   2.821   1.859
 5031SOL    HW115653   3.551   2.759   1.800
 5031SOL    HW215654   3.530   2.834   1.930
 5032SOL     OW15655   2.224   1.906   0.616
 5032SOL    HW115656   2.145   1.955   0.592
 5032SOL    HW215657   2.205   1.873   0.704
 5033SOL     OW15658   3.482   2.238   0.372
 5033SOL    HW115659   3.505   2.172   0.436
 5033SOL    HW215660   3.457   2.315   0.423
 5034SOL     OW15661   2.889   2.620   0.960
 5034SOL    HW115662   2.885   2.638   1.054
 5034SOL    HW215663   2.863   2.528   0.951
 5035SOL     OW15664   2.847   3.430   1.719
 5035SOL    HW115665   2.829   3.471   1.635
 5035SOL    HW215666   2.889   3.347   1.696
 5036SOL     OW15667   3.706   3.363   1.599
 5036SOL    HW115668   3.729   3.392   1.510
 5036SOL    HW215669   3.786   3.374   1.649
 5037SOL     OW15670   2.216   2.781   1.808
 5037SOL    HW115671   2.298   2.798   1.855
 5037SOL    HW215672   2.240   2.718   1.740
 5038SOL     OW15673   3.412   2.122   0.136
 5038SOL    HW115674   3.353   2.051   0.160
 5038SOL    HW215675   3.435   2.163   0.220
 5039SOL     OW15676   3.153   2.691   0.055
 5039SOL    HW115677   3.201   2.608   0.060
 5039SOL    HW215678   3.171   2.724  13.867
 5040SOL     OW15679   2.928   3.198   0.854
 5040SOL    HW115680   2.932   3.126   0.791
 5040SOL    HW215681   2.989   3.263   0.819
 5041SOL     OW15682   2.172   2.672   0.946
 5041SOL    HW115683   2.264   2.695   0.938
 5041SOL    HW215684   2.172   2.586   0.986
 5042SOL     OW15685   2.186   2.359   1.013
 5042SOL    HW115686   2.146   2.287   0.965
 5042SOL    HW215687   2.266   2.379   0.963
 5043SOL     OW15688   2.996   2.238   1.682
 5043SOL    HW115689   2.948   2.292   1.745
 5043SOL    HW215690   3.083   2.276   1.679
 5044SOL     OW15691   3.021   2.064   1.470
 5044SOL    HW115692   3.011   2.127   1.542
 5044SOL    HW215693   3.063   2.114   1.400
 5045SOL     OW15694   1.881   3.174   0.181
 5045SOL    HW115695   1.800   3.187   0.131
 5045SOL    HW215696   1.873   3.087   0.219
 5046SOL     OW15697   1.958   3.643   0.938
 5046SOL    HW115698   1.927   3.564   0.893
 5046SOL    HW215699   2.043   3.660   0.899
 5047SOL     OW15700   2.357   3.437   0.906
 5047SOL    HW115701   2.425   3.500   0.930
 5047SOL    HW215702   2.402   3.375   0.849
 5048SOL     OW15703   2.843   2.652   1.226
 5048SOL    HW115704   2.902   2.631   1.298
 5048SOL    HW215705   2.758   2.618   1.253
 5049SOL     OW15706   1.899   2.399   1.117
 5049SOL    HW115707   1.984   2.399   1.072
 5049SOL    HW215708   1.922   2.413   1.209
 5050SOL     OW15709   2.059   2.386   1.724
 5050SOL    HW115710   2.119   2.354   1.657
 5050SOL    HW215711   2.012   2.458   1.681
 5051SOL     OW15712   3.240   2.800   1.658
 5051SOL    HW115713   3.261   2.893   1.656
 5051SOL    HW215714   3.237   2.774   1.566
 5052SOL     OW15715   2.676   2.438   0.374
 5052SOL    HW115716   2.688   2.363   0.315
 5052SOL    HW215717   2.605   2.488   0.334
 5053SOL     OW15718   3.503   2.464   1.185
 5053SOL    HW115719   3.492   2.403   1.258
 5053SOL    HW215720   3.589   2.442   1.149
 5054SOL     OW15721   2.105   3.412   1.726
 5054SOL    HW115722   2.082   3.478   1.791
 5054SOL    HW215723   2.107   3.329   1.775
 5055SOL     OW15724   2.560   2.312   1.259
 5055SOL    HW115725   2.510   2.237   1.227
 5055SOL    HW215726   2.558   2.374   1.187
 5056SOL     OW15727   2.790   3.535   1.468
 5056SOL    HW115728   2.763   3.498   1.384
 5056SOL    HW215729   2.782   3.629   1.457
 5057SOL     OW15730   2.303   2.360   0.229
 5057SOL    HW115731   2.368   2.429   0.237
 5057SOL    HW215732   2.227   2.404   0.190
 5058SOL     OW15733   2.007   3.003   1.473
 5058SOL    HW115734   2.008   2.952   1.554
 5058SOL    HW215735   2.025   2.939   1.404
 5059SOL     OW15736   3.185   2.908   1.223
 5059SOL    HW115737   3.209   2.845   1.155
 5059SOL    HW215738   3.117   2.961   1.183
 5060SOL     OW15739   3.175   2.720   0.326
 5060SOL    HW115740   3.100   2.686   0.375
 5060SOL    HW215741   3.151   2.705   0.234
 5061SOL     OW15742   3.637   3.604   1.153
 5061SOL    HW115743   3.696   3.630   1.082
 5061SOL    HW215744   3.611   3.515   1.131
 5062SOL     OW15745   3.106   3.596   1.111
 5062SOL    HW115746   3.188   3.616   1.067
 5062SOL    HW215747   3.111   3.502   1.130
 5063SOL     OW15748   1.947   3.127   1.012
 5063SOL    HW115749   1.932   3.142   1.106
 5063SOL    HW215750   1.873   3.074   0.984
 5064SOL     OW15751   2.540   3.526   1.730
 5064SOL    HW115752   2.484   3.603   1.734
 5064SOL    HW215753   2.601   3.544   1.658
 5065SOL     OW15754   2.786   1.969   0.131
 5065SOL    HW115755   2.820   1.959   0.042
 5065SOL    HW215756   2.836   1.907   0.183
 5066SOL     OW15757   3.569   2.009   0.514
 5066SOL    HW115758   3.648   2.001   0.460
 5066SOL    HW215759   3.560   1.922   0.555
 5067SOL     OW15760   3.251   3.434   0.485
 5067SOL    HW115761   3.314   3.468   0.421
 5067SOL    HW215762   3.204   3.511   0.516
 5068SOL     OW15763   1.995   3.653   1.839
 5068SOL    HW115764   1.943   3.589   1.888
 5068SOL    HW215765   2.045   3.700   1.906
 5069SOL     OW15766   3.138   2.787   0.671
 5069SOL    HW115767   3.212   2.727   0.679
 5069SOL    HW215768   3.172   2.860   0.618
 5070SOL     OW15769   2.674   3.136   1.429
 5070SOL    HW115770   2.646   3.175   1.512
 5070SOL    HW215771   2.605   3.159   1.367
 5071SOL     OW15772   2.545   3.451   0.181
 5071SOL    HW115773   2.525   3.498   0.100
 5071SOL    HW215774   2.488   3.374   0.179
 5072SOL     OW15775   3.483   3.588   1.390
 5072SOL    HW115776   3.538   3.592   1.311
 5072SOL    HW215777   3.471   3.680   1.415
 5073SOL     OW15778   3.700   2.043   0.967
 5073SOL    HW115779   3.731   1.956   0.942
 5073SOL    HW215780   3.613   2.051   0.927
 5074SOL     OW15781   3.084   3.461   0.033
 5074SOL    HW115782   3.072   3.371   0.061
 5074SOL    HW215783   3.039   3.466  13.848
 5075SOL     OW15784   2.686   2.868   1.372
 5075SOL    HW115785   2.731   2.865   1.287
 5075SOL    HW215786   2.684   2.961   1.395
 5076SOL     OW15787   2.784   2.773   0.288
 5076SOL    HW115788   2.853   2.812   0.235
 5076SOL    HW215789   2.827   2.702   0.336
 5077SOL     OW15790   3.349   3.505   0.065
 5077SOL    HW115791   3.256   3.485   0.055
 5077SOL    HW215792   3.385   3.500  13.877
 5078SOL     OW15793   2.231   3.165   1.491
 5078SOL    HW115794   2.217   3.242   1.436
 5078SOL    HW215795   2.154   3.111   1.476
 5079SOL     OW15796   3.464   3.142   1.278
 5079SOL    HW115797   3.532   3.135   1.345
 5079SOL    HW215798   3.407   3.212   1.310
 5080SOL     OW15799   2.915   2.969   0.707
 5080SOL    HW115800   2.845   2.918   0.746
 5080SOL    HW215801   2.979   2.904   0.678
 5081SOL     OW15802   2.882   2.102   0.966
 5081SOL    HW115803   2.878   2.055   0.883
 5081SOL    HW215804   2.879   2.034   1.033
 5082SOL     OW15805   2.466   3.351   0.480
 5082SOL    HW115806   2.511   3.300   0.413
 5082SOL    HW215807   2.399   3.400   0.433
 5083SOL     OW15808   3.585   2.252   1.379
 5083SOL    HW115809   3.657   2.315   1.375
 5083SOL    HW215810   3.614   2.180   1.323
 5084SOL     OW15811   2.131   3.186   0.296
 5084SOL    HW115812   2.047   3.195   0.252
 5084SOL    HW215813   2.119   3.232   0.379
 5085SOL     OW15814   1.974   2.885   1.719
 5085SOL    HW115815   1.898   2.862   1.772
 5085SOL    HW215816   2.048   2.848   1.767
 5086SOL     OW15817   2.535   2.059   1.500
 5086SOL    HW115818   2.619   2.038   1.458
 5086SOL    HW215819   2.560   2.090   1.587
 5087SOL     OW15820   1.872   2.288   0.052
 5087SOL    HW115821   1.863   2.193   0.058
 5087SOL    HW215822   1.931   2.302  13.878
 5088SOL     OW15823   3.289   2.720   1.400
 5088SOL    HW115824   3.240   2.782   1.345
 5088SOL    HW215825   3.378   2.722   1.363
 5089SOL     OW15826   3.048   3.209   0.122
 5089SOL    HW115827   2.954   3.195   0.111
 5089SOL    HW215828   3.063   3.196   0.216
 5090SOL     OW15829   2.481   2.692   1.433
 5090SOL    HW115830   2.537   2.769   1.419
 5090SOL    HW215831   2.543   2.620   1.441
 5091SOL     OW15832   3.347   3.643   0.982
 5091SOL    HW115833   3.371   3.694   0.904
 5091SOL    HW215834   3.430   3.613   1.018
 5092SOL     OW15835   2.579   2.424   1.701
 5092SOL    HW115836   2.620   2.487   1.761
 5092SOL    HW215837   2.604   2.338   1.736
 5093SOL     OW15838   3.334   3.061   1.631
 5093SOL    HW115839   3.323   3.075   1.725
 5093SOL    HW215840   3.427   3.076   1.615
 5094SOL     OW15841   2.239   3.602   1.564
 5094SOL    HW115842   2.154   3.643   1.549
 5094SOL    HW215843   2.218   3.518   1.606
 5095SOL     OW15844   3.528   2.743   1.259
 5095SOL    HW115845   3.526   2.657   1.215
 5095SOL    HW215846   3.521   2.806   1.187
 5096SOL     OW15847   3.081   2.182   0.454
 5096SOL    HW115848   3.144   2.111   0.448
 5096SOL    HW215849   3.108   2.231   0.532
 5097SOL     OW15850   2.447   2.598   0.672
 5097SOL    HW115851   2.489   2.683   0.658
 5097SOL    HW215852   2.382   2.591   0.603
 5098SOL     OW15853   3.622   2.227   1.650
 5098SOL    HW115854   3.605   2.240   1.556
 5098SOL    HW215855   3.552   2.169   1.679
 5099SOL     OW15856   3.617   2.791   1.513
 5099SOL    HW115857   3.609   2.885   1.530
 5099SOL    HW215858   3.593   2.781   1.421
 5100SOL     OW15859   2.769   3.260   0.062
 5100SOL    HW115860   2.699   3.246   0.126
 5100SOL    HW215861   2.724   3.269  13.878
 5101SOL     OW15862   2.522   3.652   0.941
 5101SOL    HW115863   2.501   3.743   0.919
 5101SOL    HW215864   2.618   3.648   0.935
 5102SOL     OW15865   2.729   2.829   0.855
 5102SOL    HW115866   2.780   2.758   0.894
 5102SOL    HW215867   2.695   2.878   0.929
 5103SOL     OW15868   2.960   2.871   0.109
 5103SOL    HW115869   2.950   2.918   0.026
 5103SOL    HW215870   3.034   2.813   0.094
 5104SOL     OW15871   3.715   3.416   0.841
 5104SOL    HW115872   3.635   3.400   0.790
 5104SOL    HW215873   3.712   3.350   0.910
 5105SOL     OW15874   2.088   3.164   1.856
 5105SOL    HW115875   2.021   3.103   1.826
 5105SOL    HW215876   2.069   3.176   1.949
 5106SOL     OW15877   1.946   3.092   0.666
 5106SOL    HW115878   1.953   3.044   0.748
 5106SOL    HW215879   2.017   3.059   0.612
 5107SOL     OW15880   2.544   3.265   1.629
 5107SOL    HW115881   2.464   3.223   1.660
 5107SOL    HW215882   2.541   3.354   1.666
 5108SOL     OW15883   3.675   2.041   1.239
 5108SOL    HW115884   3.668   1.946   1.242
 5108SOL    HW215885   3.689   2.061   1.146
 5109SOL     OW15886   2.291   2.292   0.533
 5109SOL    HW115887   2.324   2.236   0.463
 5109SOL    HW215888   2.251   2.232   0.596
 5110SOL     OW15889   3.559   3.352   1.096
 5110SOL    HW115890   3.480   3.327   1.049
 5110SOL    HW215891   3.572   3.282   1.160
 5111SOL     OW15892   2.193   2.416   1.289
 5111SOL    HW115893   2.238   2.356   1.348
 5111SOL    HW215894   2.210   2.382   1.202
 5112SOL     OW15895   2.690   3.441   0.677
 5112SOL    HW115896   2.676   3.493   0.598
 5112SOL    HW215897   2.614   3.382   0.681
 5113SOL     OW15898   3.293   2.089   1.117
 5113SOL    HW115899   3.316   2.007   1.161
 5113SOL    HW215900   3.242   2.137   1.182
 5114SOL     OW15901   2.870   1.879   1.141
 5114SOL    HW115902   2.817   1.812   1.099
 5114SOL    HW215903   2.959   1.842   1.143
 5115SOL     OW15904   2.635   3.185   0.320
 5115SOL    HW115905   2.606   3.095   0.337
 5115SOL    HW215906   2.718   3.192   0.366
 5116SOL     OW15907   2.482   3.416   1.285
 5116SOL    HW115908   2.483   3.497   1.335
 5116SOL    HW215909   2.570   3.409   1.247
 5117SOL     OW15910   3.210   1.928   0.164
 5117SOL    HW115911   3.244   1.866   0.098
 5117SOL    HW215912   3.128   1.889   0.193
 5118SOL     OW15913   3.156   2.323   0.679
 5118SOL    HW115914   3.105   2.403   0.687
 5118SOL    HW215915   3.154   2.284   0.767
 5119SOL     OW15916   3.445   2.062   0.877
 5119SOL    HW115917   3.387   2.085   0.950
 5119SOL    HW215918   3.446   2.140   0.822
 5120SOL     OW15919   1.902   2.931   0.309
 5120SOL    HW115920   1.997   2.927   0.306
 5120SOL    HW215921   1.874   2.841   0.328
 5121SOL     OW15922   2.756   3.519   0.346
 5121SOL    HW115923   2.683   3.489   0.291
 5121SOL    HW215924   2.721   3.594   0.393
 5122SOL     OW15925   2.094   2.493   1.983
 5122SOL    HW115926   2.009   2.467   2.019
 5122SOL    HW215927   2.092   2.464   1.892
 5123SOL     OW15928   1.869   2.287   2.492
 5123SOL    HW115929   1.779   2.281   2.525
 5123SOL    HW215930   1.880   2.208   2.439
 5124SOL     OW15931   2.429   3.152   3.038
 5124SOL    HW115932   2.342   3.156   2.999
 5124SOL    HW215933   2.445   3.240   3.072
 5125SOL     OW15934   3.424   3.374   2.570
 5125SOL    HW115935   3.382   3.352   2.653
 5125SOL    HW215936   3.352   3.377   2.507
 5126SOL     OW15937   2.992   2.560   2.562
 5126SOL    HW115938   3.041   2.641   2.547
 5126SOL    HW215939   2.946   2.575   2.644
 5127SOL     OW15940   3.628   2.469   2.091
 5127SOL    HW115941   3.609   2.460   1.998
 5127SOL    HW215942   3.594   2.388   2.131
 5128SOL     OW15943   2.615   3.003   2.904
 5128SOL    HW115944   2.547   3.039   2.961
 5128SOL    HW215945   2.652   3.080   2.860
 5129SOL     OW15946   2.729   2.633   3.684
 5129SOL    HW115947   2.717   2.704   3.747
 5129SOL    HW215948   2.754   2.678   3.603
 5130SOL     OW15949   2.548   2.862   2.508
 5130SOL    HW115950   2.613   2.852   2.577
 5130SOL    HW215951   2.479   2.915   2.547
 5131SOL     OW15952   2.574   3.013   3.675
 5131SOL    HW115953   2.621   3.091   3.703
 5131SOL    HW215954   2.491   3.046   3.639
 5132SOL     OW15955   2.193   3.285   2.929
 5132SOL    HW115956   2.120   3.248   2.880
 5132SOL    HW215957   2.241   3.337   2.865
 5133SOL     OW15958   3.321   3.363   3.217
 5133SOL    HW115959   3.374   3.442   3.228
 5133SOL    HW215960   3.258   3.367   3.288
 5134SOL     OW15961   2.284   2.234   3.337
 5134SOL    HW115962   2.372   2.199   3.352
 5134SOL    HW215963   2.226   2.158   3.348
 5135SOL     OW15964   3.473   2.309   2.605
 5135SOL    HW115965   3.400   2.332   2.547
 5135SOL    HW215966   3.487   2.387   2.658
 5136SOL     OW15967   2.083   3.578   2.341
 5136SOL    HW115968   2.115   3.638   2.408
 5136SOL    HW215969   2.154   3.574   2.276
 5137SOL     OW15970   2.998   3.204   3.555
 5137SOL    HW115971   3.040   3.198   3.642
 5137SOL    HW215972   2.946   3.124   3.548
 5138SOL     OW15973   2.091   3.304   2.397
 5138SOL    HW115974   2.073   3.398   2.402
 5138SOL    HW215975   2.032   3.264   2.462
 5139SOL     OW15976   2.122   2.954   2.753
 5139SOL    HW115977   2.117   2.867   2.794
 5139SOL    HW215978   2.064   3.008   2.806
 5140SOL     OW15979   2.472   3.648   3.291
 5140SOL    HW115980   2.390   3.633   3.338
 5140SOL    HW215981   2.498   3.737   3.315
 5141SOL     OW15982   2.447   2.844   1.997
 5141SOL    HW115983   2.493   2.893   1.928
 5141SOL    HW215984   2.485   2.876   2.078
 5142SOL     OW15985   3.457   1.987   3.328
 5142SOL    HW115986   3.468   2.068   3.280
 5142SOL    HW215987   3.444   2.015   3.419
 5143SOL     OW15988   1.984   2.524   2.422
 5143SOL    HW115989   1.949   2.438   2.442
 5143SOL    HW215990   1.973   2.574   2.503
 5144SOL     OW15991   3.700   3.614   2.203
 5144SOL    HW115992   3.770   3.589   2.263
 5144SOL    HW215993   3.720   3.705   2.179
 5145SOL     OW15994   1.891   3.454   1.984
 5145SOL    HW115995   1.876   3.362   2.006
 5145SOL    HW215996   1.870   3.501   2.065
 5146SOL     OW15997   3.550   2.781   2.506
 5146SOL    HW115998   3.633   2.738   2.488
 5146SOL    HW215999   3.531   2.830   2.427
 5147SOL     OW16000   3.503   2.967   2.293
 5147SOL    HW116001   3.588   2.973   2.249
 5147SOL    HW216002   3.510   3.030   2.365
 5148SOL     OW16003   1.983   2.608   3.444
 5148SOL    HW116004   2.074   2.636   3.455
 5148SOL    HW216005   1.932   2.688   3.454
 5149SOL     OW16006   2.477   3.250   2.597
 5149SOL    HW116007   2.431   3.166   2.606
 5149SOL    HW216008   2.459   3.276   2.506
 5150SOL     OW16009   3.150   3.099   3.285
 5150SOL    HW116010   3.182   3.033   3.225
 5150SOL    HW216011   3.208   3.094   3.361
 5151SOL     OW16012   2.700   1.862   2.379
 5151SOL    HW116013   2.740   1.946   2.355
 5151SOL    HW216014   2.606   1.879   2.374
 5152SOL     OW16015   2.052   2.829   3.134
 5152SOL    HW116016   2.136   2.786   3.119
 5152SOL    HW216017   1.989   2.774   3.089
 5153SOL     OW16018   3.391   2.857   2.062
 5153SOL    HW116019   3.321   2.800   2.095
 5153SOL    HW216020   3.432   2.892   2.140
 5154SOL     OW16021   3.078   3.665   3.488
 5154SOL    HW116022   3.056   3.725   3.417
 5154SOL    HW216023   3.079   3.579   3.447
 5155SOL     OW16024   3.327   3.282   2.812
 5155SOL    HW116025   3.260   3.297   2.879
 5155SOL    HW216026   3.316   3.191   2.786
 5156SOL     OW16027   3.511   3.604   2.442
 5156SOL    HW116028   3.502   3.571   2.353
 5156SOL    HW216029   3.493   3.529   2.498
 5157SOL     OW16030   2.459   2.586   2.130
 5157SOL    HW116031   2.463   2.667   2.080
 5157SOL    HW216032   2.393   2.602   2.198
 5158SOL     OW16033   3.140   2.217   2.795
 5158SOL    HW116034   3.051   2.183   2.803
 5158SOL    HW216035   3.192   2.164   2.855
 5159SOL     OW16036   3.437   3.538   2.170
 5159SOL    HW116037   3.529   3.563   2.166
 5159SOL    HW216038   3.413   3.517   2.079
 5160SOL     OW16039   2.654   2.480   3.310
 5160SOL    HW116040   2.630   2.456   3.400
 5160SOL    HW216041   2.614   2.412   3.256
 5161SOL     OW16042   3.255   2.335   3.540
 5161SOL    HW116043   3.258   2.380   3.625
 5161SOL    HW216044   3.315   2.261   3.550
 5162SOL     OW16045   2.815   2.749   3.445
 5162SOL    HW116046   2.870   2.679   3.409
 5162SOL    HW216047   2.768   2.784   3.370
 5163SOL     OW16048   2.855   2.275   3.100
 5163SOL    HW116049   2.769   2.295   3.136
 5163SOL    HW216050   2.837   2.229   3.018
 5164SOL     OW16051   2.914   2.560   2.287
 5164SOL    HW116052   2.930   2.554   2.382
 5164SOL    HW216053   2.831   2.514   2.274
 5165SOL     OW16054   1.950   2.685   2.640
 5165SOL    HW116055   2.032   2.680   2.690
 5165SOL    HW216056   1.906   2.763   2.674
 5166SOL     OW16057   1.985   3.704   3.438
 5166SOL    HW116058   1.986   3.685   3.532
 5166SOL    HW216059   1.892   3.706   3.415
 5167SOL     OW16060   2.758   2.212   2.058
 5167SOL    HW116061   2.798   2.273   1.996
 5167SOL    HW216062   2.767   2.127   2.016
 5168SOL     OW16063   3.572   2.436   3.690
 5168SOL    HW116064   3.534   2.510   3.642
 5168SOL    HW216065   3.596   2.374   3.622
 5169SOL     OW16066   3.238   3.003   2.403
 5169SOL    HW116067   3.318   2.991   2.351
 5169SOL    HW216068   3.186   3.066   2.352
 5170SOL     OW16069   2.409   2.051   2.757
 5170SOL    HW116070   2.411   2.075   2.849
 5170SOL    HW216071   2.428   2.132   2.710
 5171SOL     OW16072   2.867   3.307   2.333
 5171SOL    HW116073   2.829   3.380   2.285
 5171SOL    HW216074   2.847   3.327   2.425
 5172SOL     OW16075   2.213   3.672   2.702
 5172SOL    HW116076   2.263   3.592   2.720
 5172SOL    HW216077   2.273   3.743   2.724
 5173SOL     OW16078   3.666   2.923   2.729
 5173SOL    HW116079   3.612   2.899   2.654
 5173SOL    HW216080   3.605   2.926   2.802
 5174SOL     OW16081   3.089   3.399   3.374
 5174SOL    HW116082   3.076   3.327   3.435
 5174SOL    HW216083   3.023   3.386   3.306
 5175SOL     OW16084   2.180   2.819   2.113
 5175SOL    HW116085   2.261   2.837   2.066
 5175SOL    HW216086   2.148   2.737   2.075
 5176SOL     OW16087   3.341   2.606   2.588
 5176SOL    HW116088   3.334   2.564   2.674
 5176SOL    HW216089   3.419   2.661   2.595
 5177SOL     OW16090   2.329   3.127   3.599
 5177SOL    HW116091   2.302   3.132   3.507
 5177SOL    HW216092   2.247   3.125   3.648
 5178SOL     OW16093   2.976   3.643   2.085
 5178SOL    HW116094   2.912   3.596   2.139
 5178SOL    HW216095   3.006   3.578   2.021
 5179SOL     OW16096   3.487   3.246   1.951
 5179SOL    HW116097   3.444   3.330   1.933
 5179SOL    HW216098   3.420   3.180   1.931
 5180SOL     OW16099   2.330   3.596   2.187
 5180SOL    HW116100   2.367   3.662   2.246
 5180SOL    HW216101   2.402   3.572   2.130
 5181SOL     OW16102   3.263   1.970   2.296
 5181SOL    HW116103   3.255   1.944   2.204
 5181SOL    HW216104   3.357   1.975   2.312
 5182SOL     OW16105   2.121   3.654   3.087
 5182SOL    HW116106   2.169   3.585   3.134
 5182SOL    HW216107   2.107   3.618   3.000
 5183SOL     OW16108   2.800   3.562   2.762
 5183SOL    HW116109   2.877   3.510   2.784
 5183SOL    HW216110   2.755   3.513   2.693
 5184SOL     OW16111   2.257   2.556   2.338
 5184SOL    HW116112   2.275   2.463   2.348
 5184SOL    HW216113   2.163   2.565   2.355
 5185SOL     OW16114   3.397   2.087   3.587
 5185SOL    HW116115   3.406   2.108   3.680
 5185SOL    HW216116   3.329   2.020   3.585
 5186SOL     OW16117   2.509   1.986   1.967
 5186SOL    HW116118   2.571   1.918   1.994
 5186SOL    HW216119   2.461   1.947   1.894
 5187SOL     OW16120   2.626   2.139   3.616
 5187SOL    HW116121   2.704   2.084   3.615
 5187SOL    HW216122   2.581   2.115   3.697
 5188SOL     OW16123   2.738   3.383   3.056
 5188SOL    HW116124   2.722   3.347   2.969
 5188SOL    HW216125   2.808   3.328   3.092
 5189SOL     OW16126   3.202   2.451   3.295
 5189SOL    HW116127   3.233   2.420   3.380
 5189SOL    HW216128   3.239   2.539   3.286
 5190SOL     OW16129   2.678   3.256   2.803
 5190SOL    HW116130   2.762   3.244   2.759
 5190SOL    HW216131   2.614   3.258   2.732
 5191SOL     OW16132   2.789   2.370   2.765
 5191SOL    HW116133   2.766   2.362   2.672
 5191SOL    HW216134   2.822   2.283   2.788
 5192SOL     OW16135   2.445   1.926   2.338
 5192SOL    HW116136   2.371   1.916   2.398
 5192SOL    HW216137   2.427   2.006   2.290
 5193SOL     OW16138   3.290   3.061   1.903
 5193SOL    HW116139   3.321   2.986   1.953
 5193SOL    HW216140   3.204   3.082   1.940
 5194SOL     OW16141   2.805   2.112   2.320
 5194SOL    HW116142   2.778   2.151   2.238
 5194SOL    HW216143   2.900   2.127   2.324
 5195SOL     OW16144   2.943   2.544   3.321
 5195SOL    HW116145   2.876   2.476   3.326
 5195SOL    HW216146   3.025   2.496   3.315
 5196SOL     OW16147   3.084   3.432   2.656
 5196SOL    HW116148   3.100   3.500   2.590
 5196SOL    HW216149   3.153   3.444   2.721
 5197SOL     OW16150   2.332   3.012   2.594
 5197SOL    HW116151   2.263   2.993   2.657
 5197SOL    HW216152   2.291   2.997   2.509
 5198SOL     OW16153   3.129   3.657   2.469
 5198SOL    HW116154   3.175   3.722   2.415
 5198SOL    HW216155   3.057   3.706   2.509
 5199SOL     OW16156   2.885   2.402   1.885
 5199SOL    HW116157   2.842   2.485   1.866
 5199SOL    HW216158   2.950   2.424   1.952
 5200SOL     OW16159   1.939   2.424   3.248
 5200SOL    HW116160   2.032   2.420   3.227
 5200SOL    HW216161   1.932   2.490   3.317
 5201SOL     OW16162   2.416   2.083   3.032
 5201SOL    HW116163   2.467   2.006   3.058
 5201SOL    HW216164   2.333   2.073   3.077
 5202SOL     OW16165   2.726   2.319   2.502
 5202SOL    HW116166   2.685   2.375   2.436
 5202SOL    HW216167   2.751   2.240   2.454
 5203SOL     OW16168   2.874   1.916   2.614
 5203SOL    HW116169   2.819   1.905   2.536
 5203SOL    HW216170   2.854   1.840   2.668
 5204SOL     OW16171   3.300   3.024   2.719
 5204SOL    HW116172   3.230   2.959   2.718
 5204SOL    HW216173   3.325   3.034   2.627
 5205SOL     OW16174   3.327   2.469   2.837
 5205SOL    HW116175   3.276   2.388   2.840
 5205SOL    HW216176   3.387   2.462   2.912
 5206SOL     OW16177   3.723   2.679   2.237
 5206SOL    HW116178   3.767   2.624   2.301
 5206SOL    HW216179   3.686   2.618   2.173
 5207SOL     OW16180   2.353   3.280   2.017
 5207SOL    HW116181   2.277   3.252   2.069
 5207SOL    HW216182   2.338   3.239   1.931
 5208SOL     OW16183   3.528   3.127   2.507
 5208SOL    HW116184   3.624   3.130   2.516
 5208SOL    HW216185   3.500   3.216   2.528
 5209SOL     OW16186   3.256   2.433   1.933
 5209SOL    HW116187   3.194   2.414   2.004
 5209SOL    HW216188   3.340   2.401   1.966
 5210SOL     OW16189   2.384   2.130   2.173
 5210SOL    HW116190   2.428   2.081   2.103
 5210SOL    HW216191   2.361   2.214   2.132
 5211SOL     OW16192   3.614   3.097   3.430
 5211SOL    HW116193   3.701   3.061   3.413
 5211SOL    HW216194   3.630   3.186   3.460
 5212SOL     OW16195   2.919   3.214   3.195
 5212SOL    HW116196   2.845   3.184   3.246
 5212SOL    HW216197   2.995   3.174   3.236
 5213SOL     OW16198   3.469   3.491   3.518
 5213SOL    HW116199   3.460   3.524   3.428
 5213SOL    HW216200   3.550   3.440   3.517
 5214SOL     OW16201   2.992   3.066   2.966
 5214SOL    HW116202   2.933   3.105   3.031
 5214SOL    HW216203   2.960   3.100   2.882
 5215SOL     OW16204   3.492   2.959   2.937
 5215SOL    HW116205   3.484   3.020   3.010
 5215SOL    HW216206   3.414   2.975   2.884
 5216SOL     OW16207   2.779   1.960   3.256
 5216SOL    HW116208   2.803   1.939   3.166
 5216SOL    HW216209   2.858   1.998   3.294
 5217SOL     OW16210   2.846   2.977   3.585
 5217SOL    HW116211   2.754   2.993   3.607
 5217SOL    HW216212   2.844   2.899   3.529
 5218SOL     OW16213   2.571   2.924   2.233
 5218SOL    HW116214   2.556   2.906   2.326
 5218SOL    HW216215   2.647   2.870   2.209
 5219SOL     OW16216   2.280   2.676   3.113
 5219SOL    HW116217   2.348   2.687   3.179
 5219SOL    HW216218   2.246   2.588   3.130
 5220SOL     OW16219   3.127   2.238   3.139
 5220SOL    HW116220   3.160   2.316   3.185
 5220SOL    HW216221   3.037   2.261   3.116
 5221SOL     OW16222   1.933   3.435   3.215
 5221SOL    HW116223   1.905   3.510   3.163
 5221SOL    HW216224   2.029   3.437   3.211
 5222SOL     OW16225   2.209   2.973   2.352
 5222SOL    HW116226   2.213   3.046   2.290
 5222SOL    HW216227   2.206   2.895   2.296
 5223SOL     OW16228   2.407   2.398   2.725
 5223SOL    HW116229   2.422   2.456   2.650
 5223SOL    HW216230   2.475   2.424   2.788
 5224SOL     OW16231   3.110   3.211   2.251
 5224SOL    HW116232   3.166   3.282   2.282
 5224SOL    HW216233   3.023   3.232   2.285
 5225SOL     OW16234   3.144   3.321   3.009
 5225SOL    HW116235   3.201   3.324   3.087
 5225SOL    HW216236   3.089   3.244   3.023
 5226SOL     OW16237   3.441   2.483   2.343
 5226SOL    HW116238   3.394   2.536   2.407
 5226SOL    HW216239   3.484   2.546   2.285
 5227SOL     OW16240   2.208   3.391   3.175
 5227SOL    HW116241   2.196   3.347   3.091
 5227SOL    HW216242   2.302   3.402   3.183
 5228SOL     OW16243   2.277   2.608   3.465
 5228SOL    HW116244   2.340   2.651   3.406
 5228SOL    HW216245   2.321   2.527   3.491
 5229SOL     OW16246   3.465   2.640   3.544
 5229SOL    HW116247   3.379   2.683   3.538
 5229SOL    HW216248   3.517   2.683   3.476
 5230SOL     OW16249   2.857   1.988   3.614
 5230SOL    HW116250   2.915   2.060   3.590
 5230SOL    HW216251   2.905   1.909   3.590
 5231SOL     OW16252   2.372   1.896   3.610
 5231SOL    HW116253   2.325   1.840   3.548
 5231SOL    HW216254   2.312   1.968   3.628
 5232SOL     OW16255   2.447   2.734   2.894
 5232SOL    HW116256   2.478   2.825   2.892
 5232SOL    HW216257   2.390   2.730   2.971
 5233SOL     OW16258   3.218   2.721   2.890
 5233SOL    HW116259   3.134   2.710   2.844
 5233SOL    HW216260   3.260   2.636   2.884
 5234SOL     OW16261   3.065   2.390   2.127
 5234SOL    HW116262   3.074   2.312   2.182
 5234SOL    HW216263   3.023   2.455   2.184
 5235SOL     OW16264   1.908   3.173   3.138
 5235SOL    HW116265   1.941   3.118   3.209
 5235SOL    HW216266   1.914   3.262   3.171
 5236SOL     OW16267   2.583   2.490   2.917
 5236SOL    HW116268   2.660   2.475   2.863
 5236SOL    HW216269   2.557   2.580   2.899
 5237SOL     OW16270   3.593   2.821   3.721
 5237SOL    HW116271   3.551   2.759   3.662
 5237SOL    HW216272   3.530   2.834   3.792
 5238SOL     OW16273   2.222   1.902   2.474
 5238SOL    HW116274   2.146   1.955   2.454
 5238SOL    HW216275   2.207   1.872   2.564
 5239SOL     OW16276   3.480   2.237   2.228
 5239SOL    HW116277   3.507   2.173   2.293
 5239SOL    HW216278   3.457   2.315   2.279
 5240SOL     OW16279   2.889   2.620   2.822
 5240SOL    HW116280   2.885   2.638   2.916
 5240SOL    HW216281   2.864   2.528   2.813
 5241SOL     OW16282   2.847   3.430   3.581
 5241SOL    HW116283   2.829   3.471   3.497
 5241SOL    HW216284   2.889   3.347   3.559
 5242SOL     OW16285   3.706   3.363   3.461
 5242SOL    HW116286   3.729   3.392   3.372
 5242SOL    HW216287   3.786   3.374   3.512
 5243SOL     OW16288   2.216   2.781   3.670
 5243SOL    HW116289   2.298   2.798   3.717
 5243SOL    HW216290   2.239   2.718   3.602
 5244SOL     OW16291   3.391   2.135   1.989
 5244SOL    HW116292   3.326   2.070   2.015
 5244SOL    HW216293   3.424   2.170   2.072
 5245SOL     OW16294   3.152   2.687   1.892
 5245SOL    HW116295   3.196   2.602   1.896
 5245SOL    HW216296   3.184   2.727   1.811
 5246SOL     OW16297   2.928   3.198   2.716
 5246SOL    HW116298   2.932   3.126   2.654
 5246SOL    HW216299   2.989   3.263   2.681
 5247SOL     OW16300   2.172   2.673   2.809
 5247SOL    HW116301   2.264   2.695   2.799
 5247SOL    HW216302   2.172   2.586   2.848
 5248SOL     OW16303   2.187   2.360   2.874
 5248SOL    HW116304   2.145   2.288   2.826
 5248SOL    HW216305   2.266   2.380   2.825
 5249SOL     OW16306   2.996   2.238   3.544
 5249SOL    HW116307   2.948   2.292   3.607
 5249SOL    HW216308   3.083   2.276   3.541
 5250SOL     OW16309   3.021   2.064   3.332
 5250SOL    HW116310   3.011   2.127   3.404
 5250SOL    HW216311   3.063   2.114   3.262
 5251SOL     OW16312   1.867   3.182   2.057
 5251SOL    HW116313   1.780   3.196   2.020
 5251SOL    HW216314   1.864   3.092   2.091
 5252SOL     OW16315   1.958   3.643   2.799
 5252SOL    HW116316   1.927   3.564   2.755
 5252SOL    HW216317   2.043   3.661   2.760
 5253SOL     OW16318   2.357   3.437   2.767
 5253SOL    HW116319   2.425   3.500   2.792
 5253SOL    HW216320   2.402   3.374   2.711
 5254SOL     OW16321   2.843   2.652   3.088
 5254SOL    HW116322   2.901   2.631   3.161
 5254SOL    HW216323   2.758   2.618   3.115
 5255SOL     OW16324   1.899   2.399   2.980
 5255SOL    HW116325   1.984   2.400   2.934
 5255SOL    HW216326   1.921   2.413   3.072
 5256SOL     OW16327   2.061   2.388   3.585
 5256SOL    HW116328   2.121   2.356   3.518
 5256SOL    HW216329   2.014   2.460   3.542
 5257SOL     OW16330   3.240   2.800   3.520
 5257SOL    HW116331   3.261   2.893   3.518
 5257SOL    HW216332   3.237   2.774   3.428
 5258SOL     OW16333   2.678   2.431   2.225
 5258SOL    HW116334   2.683   2.357   2.165
 5258SOL    HW216335   2.605   2.484   2.193
 5259SOL     OW16336   3.503   2.464   3.047
 5259SOL    HW116337   3.492   2.403   3.120
 5259SOL    HW216338   3.589   2.442   3.011
 5260SOL     OW16339   2.105   3.412   3.588
 5260SOL    HW116340   2.082   3.478   3.653
 5260SOL    HW216341   2.108   3.329   3.636
 5261SOL     OW16342   2.560   2.311   3.121
 5261SOL    HW116343   2.510   2.237   3.089
 5261SOL    HW216344   2.558   2.374   3.049
 5262SOL     OW16345   2.790   3.535   3.330
 5262SOL    HW116346   2.764   3.498   3.246
 5262SOL    HW216347   2.782   3.629   3.319
 5263SOL     OW16348   2.325   2.360   2.052
 5263SOL    HW116349   2.383   2.434   2.073
 5263SOL    HW216350   2.241   2.401   2.034
 5264SOL     OW16351   2.008   3.003   3.335
 5264SOL    HW116352   2.008   2.953   3.416
 5264SOL    HW216353   2.025   2.939   3.266
 5265SOL     OW16354   3.185   2.908   3.085
 5265SOL    HW116355   3.209   2.845   3.016
 5265SOL    HW216356   3.117   2.961   3.045
 5266SOL     OW16357   3.174   2.718   2.168
 5266SOL    HW116358   3.099   2.688   2.218
 5266SOL    HW216359   3.148   2.705   2.076
 5267SOL     OW16360   3.637   3.604   3.015
 5267SOL    HW116361   3.695   3.630   2.944
 5267SOL    HW216362   3.611   3.515   2.993
 5268SOL     OW16363   3.105   3.596   2.973
 5268SOL    HW116364   3.188   3.616   2.929
 5268SOL    HW216365   3.111   3.502   2.992
 5269SOL     OW16366   1.946   3.129   2.874
 5269SOL    HW116367   1.932   3.142   2.967
 5269SOL    HW216368   1.873   3.074   2.845
 5270SOL     OW16369   2.540   3.526   3.592
 5270SOL    HW116370   2.484   3.603   3.597
 5270SOL    HW216371   2.601   3.544   3.520
 5271SOL     OW16372   3.573   2.010   2.374
 5271SOL    HW116373   3.642   1.998   2.308
 5271SOL    HW216374   3.562   1.924   2.414
 5272SOL     OW16375   3.252   3.430   2.348
 5272SOL    HW116376   3.312   3.463   2.281
 5272SOL    HW216377   3.204   3.508   2.378
 5273SOL     OW16378   1.995   3.653   3.701
 5273SOL    HW116379   1.943   3.589   3.750
 5273SOL    HW216380   2.045   3.700   3.768
 5274SOL     OW16381   3.139   2.788   2.533
 5274SOL    HW116382   3.213   2.727   2.541
 5274SOL    HW216383   3.173   2.860   2.480
 5275SOL     OW16384   2.674   3.136   3.291
 5275SOL    HW116385   2.646   3.175   3.373
 5275SOL    HW216386   2.605   3.158   3.229
 5276SOL     OW16387   2.537   3.479   2.019
 5276SOL    HW116388   2.545   3.496   1.925
 5276SOL    HW216389   2.479   3.403   2.025
 5277SOL     OW16390   3.483   3.588   3.252
 5277SOL    HW116391   3.538   3.592   3.173
 5277SOL    HW216392   3.471   3.680   3.277
 5278SOL     OW16393   3.699   2.043   2.830
 5278SOL    HW116394   3.730   1.956   2.804
 5278SOL    HW216395   3.613   2.051   2.789
 5279SOL     OW16396   3.069   3.467   1.897
 5279SOL    HW116397   3.059   3.375   1.921
 5279SOL    HW216398   3.008   3.480   1.825
 5280SOL     OW16399   2.686   2.868   3.234
 5280SOL    HW116400   2.730   2.864   3.149
 5280SOL    HW216401   2.684   2.961   3.257
 5281SOL     OW16402   2.778   2.772   2.152
 5281SOL    HW116403   2.839   2.805   2.086
 5281SOL    HW216404   2.827   2.704   2.198
 5282SOL     OW16405   3.351   3.492   1.904
 5282SOL    HW116406   3.257   3.481   1.888
 5282SOL    HW216407   3.390   3.497   1.816
 5283SOL     OW16408   2.231   3.165   3.353
 5283SOL    HW116409   2.217   3.242   3.298
 5283SOL    HW216410   2.154   3.111   3.338
 5284SOL     OW16411   3.464   3.142   3.140
 5284SOL    HW116412   3.532   3.134   3.207
 5284SOL    HW216413   3.407   3.212   3.172
 5285SOL     OW16414   2.916   2.970   2.569
 5285SOL    HW116415   2.845   2.919   2.608
 5285SOL    HW216416   2.979   2.904   2.539
 5286SOL     OW16417   2.882   2.102   2.828
 5286SOL    HW116418   2.878   2.055   2.745
 5286SOL    HW216419   2.879   2.034   2.895
 5287SOL     OW16420   2.466   3.352   2.342
 5287SOL    HW116421   2.511   3.301   2.274
 5287SOL    HW216422   2.397   3.400   2.295
 5288SOL     OW16423   3.585   2.252   3.241
 5288SOL    HW116424   3.657   2.315   3.237
 5288SOL    HW216425   3.614   2.180   3.185
 5289SOL     OW16426   2.122   3.206   2.151
 5289SOL    HW116427   2.029   3.203   2.128
 5289SOL    HW216428   2.124   3.244   2.239
 5290SOL     OW16429   1.974   2.886   3.582
 5290SOL    HW116430   1.898   2.862   3.634
 5290SOL    HW216431   2.048   2.848   3.629
 5291SOL     OW16432   2.535   2.059   3.362
 5291SOL    HW116433   2.619   2.038   3.320
 5291SOL    HW216434   2.560   2.090   3.449
 5292SOL     OW16435   1.898   2.281   1.927
 5292SOL    HW116436   1.857   2.198   1.899
 5292SOL    HW216437   1.947   2.310   1.850
 5293SOL     OW16438   3.289   2.720   3.262
 5293SOL    HW116439   3.240   2.782   3.207
 5293SOL    HW216440   3.378   2.722   3.225
 5294SOL     OW16441   3.040   3.200   1.979
 5294SOL    HW116442   2.949   3.171   1.981
 5294SOL    HW216443   3.067   3.200   2.071
 5295SOL     OW16444   2.481   2.692   3.295
 5295SOL    HW116445   2.537   2.769   3.281
 5295SOL    HW216446   2.543   2.619   3.303
 5296SOL     OW16447   3.347   3.642   2.844
 5296SOL    HW116448   3.372   3.695   2.768
 5296SOL    HW216449   3.430   3.613   2.881
 5297SOL     OW16450   2.580   2.424   3.563
 5297SOL    HW116451   2.620   2.487   3.623
 5297SOL    HW216452   2.604   2.338   3.598
 5298SOL     OW16453   3.334   3.061   3.493
 5298SOL    HW116454   3.323   3.075   3.587
 5298SOL    HW216455   3.427   3.076   3.477
 5299SOL     OW16456   2.239   3.602   3.426
 5299SOL    HW116457   2.154   3.643   3.411
 5299SOL    HW216458   2.218   3.518   3.468
 5300SOL     OW16459   3.528   2.743   3.121
 5300SOL    HW116460   3.526   2.657   3.077
 5300SOL    HW216461   3.521   2.806   3.049
 5301SOL     OW16462   3.079   2.181   2.319
 5301SOL    HW116463   3.142   2.109   2.311
 5301SOL    HW216464   3.108   2.230   2.396
 5302SOL     OW16465   2.448   2.598   2.534
 5302SOL    HW116466   2.490   2.683   2.519
 5302SOL    HW216467   2.383   2.591   2.465
 5303SOL     OW16468   3.622   2.227   3.512
 5303SOL    HW116469   3.605   2.240   3.418
 5303SOL    HW216470   3.552   2.169   3.541
 5304SOL     OW16471   3.617   2.791   3.375
 5304SOL    HW116472   3.609   2.885   3.392
 5304SOL    HW216473   3.593   2.781   3.283
 5305SOL     OW16474   2.725   3.229   1.899
 5305SOL    HW116475   2.685   3.257   1.981
 5305SOL    HW216476   2.741   3.311   1.851
 5306SOL     OW16477   2.522   3.652   2.803
 5306SOL    HW116478   2.501   3.743   2.781
 5306SOL    HW216479   2.618   3.648   2.798
 5307SOL     OW16480   2.730   2.830   2.717
 5307SOL    HW116481   2.780   2.758   2.756
 5307SOL    HW216482   2.695   2.878   2.792
 5308SOL     OW16483   2.941   2.850   1.951
 5308SOL    HW116484   2.919   2.901   1.873
 5308SOL    HW216485   3.015   2.797   1.924
 5309SOL     OW16486   3.714   3.417   2.703
 5309SOL    HW116487   3.635   3.398   2.653
 5309SOL    HW216488   3.716   3.350   2.771
 5310SOL     OW16489   2.088   3.164   3.718
 5310SOL    HW116490   2.021   3.102   3.688
 5310SOL    HW216491   2.069   3.176   3.811
 5311SOL     OW16492   1.947   3.095   2.527
 5311SOL    HW116493   1.953   3.047   2.610
 5311SOL    HW216494   2.014   3.055   2.471
 5312SOL     OW16495   2.544   3.265   3.491
 5312SOL    HW116496   2.464   3.223   3.522
 5312SOL    HW216497   2.541   3.354   3.528
 5313SOL     OW16498   3.675   2.041   3.101
 5313SOL    HW116499   3.668   1.946   3.105
 5313SOL    HW216500   3.689   2.061   3.008
 5314SOL     OW16501   2.291   2.292   2.385
 5314SOL    HW116502   2.325   2.233   2.318
 5314SOL    HW216503   2.251   2.234   2.450
 5315SOL     OW16504   3.559   3.352   2.959
 5315SOL    HW116505   3.480   3.327   2.912
 5315SOL    HW216506   3.572   3.282   3.023
 5316SOL     OW16507   2.193   2.417   3.151
 5316SOL    HW116508   2.238   2.356   3.210
 5316SOL    HW216509   2.210   2.382   3.064
 5317SOL     OW16510   2.689   3.440   2.539
 5317SOL    HW116511   2.674   3.490   2.459
 5317SOL    HW216512   2.614   3.381   2.545
 5318SOL     OW16513   3.293   2.089   2.979
 5318SOL    HW116514   3.316   2.007   3.023
 5318SOL    HW216515   3.242   2.137   3.044
 5319SOL     OW16516   2.870   1.879   3.003
 5319SOL    HW116517   2.817   1.812   2.961
 5319SOL    HW216518   2.959   1.842   3.005
 5320SOL     OW16519   2.634   3.194   2.179
 5320SOL    HW116520   2.603   3.104   2.185
 5320SOL    HW216521   2.717   3.195   2.227
 5321SOL     OW16522   2.482   3.416   3.147
 5321SOL    HW116523   2.483   3.497   3.197
 5321SOL    HW216524   2.570   3.409   3.109
 5322SOL     OW16525   3.215   1.916   2.028
 5322SOL    HW116526   3.245   1.848   1.966
 5322SOL    HW216527   3.128   1.887   2.053
 5323SOL     OW16528   3.157   2.323   2.542
 5323SOL    HW116529   3.105   2.403   2.549
 5323SOL    HW216530   3.154   2.285   2.630
 5324SOL     OW16531   3.444   2.062   2.739
 5324SOL    HW116532   3.387   2.085   2.812
 5324SOL    HW216533   3.446   2.140   2.684
 5325SOL     OW16534   1.906   2.932   2.169
 5325SOL    HW116535   1.999   2.924   2.150
 5325SOL    HW216536   1.877   2.844   2.191
 5326SOL     OW16537   2.747   3.519   2.206
 5326SOL    HW116538   2.676   3.500   2.144
 5326SOL    HW216539   2.716   3.595   2.255
 5327SOL     OW16540   2.094   2.492   3.846
 5327SOL    HW116541   2.008   2.467   3.880
 5327SOL    HW216542   2.092   2.464   3.754
 5328SOL     OW16543   1.866   2.289   4.351
 5328SOL    HW116544   1.777   2.284   4.386
 5328SOL    HW216545   1.873   2.212   4.293
 5329SOL     OW16546   2.429   3.152   4.900
 5329SOL    HW116547   2.342   3.156   4.861
 5329SOL    HW216548   2.445   3.240   4.934
 5330SOL     OW16549   3.424   3.374   4.432
 5330SOL    HW116550   3.382   3.352   4.515
 5330SOL    HW216551   3.352   3.377   4.369
 5331SOL     OW16552   2.992   2.560   4.424
 5331SOL    HW116553   3.041   2.641   4.409
 5331SOL    HW216554   2.946   2.575   4.506
 5332SOL     OW16555   3.628   2.469   3.953
 5332SOL    HW116556   3.609   2.460   3.860
 5332SOL    HW216557   3.594   2.388   3.993
 5333SOL     OW16558   2.615   3.003   4.766
 5333SOL    HW116559   2.547   3.039   4.823
 5333SOL    HW216560   2.652   3.080   4.722
 5334SOL     OW16561   2.728   2.635   5.547
 5334SOL    HW116562   2.722   2.705   5.611
 5334SOL    HW216563   2.753   2.678   5.465
 5335SOL     OW16564   2.548   2.862   4.370
 5335SOL    HW116565   2.613   2.852   4.439
 5335SOL    HW216566   2.479   2.915   4.410
 5336SOL     OW16567   2.574   3.013   5.536
 5336SOL    HW116568   2.621   3.092   5.565
 5336SOL    HW216569   2.492   3.047   5.500
 5337SOL     OW16570   2.193   3.285   4.791
 5337SOL    HW116571   2.120   3.248   4.742
 5337SOL    HW216572   2.241   3.337   4.727
 5338SOL     OW16573   3.321   3.363   5.079
 5338SOL    HW116574   3.374   3.442   5.090
 5338SOL    HW216575   3.258   3.367   5.151
 5339SOL     OW16576   2.285   2.235   5.200
 5339SOL    HW116577   2.374   2.202   5.214
 5339SOL    HW216578   2.229   2.158   5.207
 5340SOL     OW16579   3.473   2.309   4.467
 5340SOL    HW116580   3.400   2.332   4.410
 5340SOL    HW216581   3.487   2.387   4.520
 5341SOL     OW16582   2.083   3.578   4.203
 5341SOL    HW116583   2.115   3.638   4.270
 5341SOL    HW216584   2.154   3.574   4.138
 5342SOL     OW16585   2.998   3.204   5.417
 5342SOL    HW116586   3.040   3.198   5.504
 5342SOL    HW216587   2.946   3.124   5.410
 5343SOL     OW16588   2.091   3.304   4.259
 5343SOL    HW116589   2.073   3.398   4.264
 5343SOL    HW216590   2.032   3.264   4.324
 5344SOL     OW16591   2.121   2.954   4.615
 5344SOL    HW116592   2.117   2.867   4.656
 5344SOL    HW216593   2.064   3.008   4.669
 5345SOL     OW16594   2.472   3.648   5.153
 5345SOL    HW116595   2.390   3.633   5.200
 5345SOL    HW216596   2.498   3.737   5.177
 5346SOL     OW16597   2.447   2.844   3.859
 5346SOL    HW116598   2.493   2.893   3.790
 5346SOL    HW216599   2.485   2.876   3.940
 5347SOL     OW16600   3.457   1.987   5.191
 5347SOL    HW116601   3.467   2.069   5.142
 5347SOL    HW216602   3.444   2.014   5.281
 5348SOL     OW16603   1.985   2.525   4.284
 5348SOL    HW116604   1.949   2.438   4.303
 5348SOL    HW216605   1.974   2.574   4.365
 5349SOL     OW16606   3.700   3.614   4.065
 5349SOL    HW116607   3.770   3.589   4.125
 5349SOL    HW216608   3.720   3.705   4.041
 5350SOL     OW16609   1.891   3.454   3.846
 5350SOL    HW116610   1.876   3.362   3.868
 5350SOL    HW216611   1.870   3.501   3.927
 5351SOL     OW16612   3.550   2.781   4.368
 5351SOL    HW116613   3.633   2.738   4.350
 5351SOL    HW216614   3.531   2.830   4.289
 5352SOL     OW16615   3.503   2.967   4.155
 5352SOL    HW116616   3.588   2.973   4.111
 5352SOL    HW216617   3.510   3.030   4.227
 5353SOL     OW16618   1.984   2.608   5.306
 5353SOL    HW116619   2.075   2.635   5.315
 5353SOL    HW216620   1.933   2.689   5.315
 5354SOL     OW16621   2.477   3.250   4.459
 5354SOL    HW116622   2.431   3.166   4.468
 5354SOL    HW216623   2.459   3.276   4.368
 5355SOL     OW16624   3.150   3.099   5.147
 5355SOL    HW116625   3.182   3.033   5.087
 5355SOL    HW216626   3.208   3.094   5.223
 5356SOL     OW16627   2.701   1.862   4.241
 5356SOL    HW116628   2.741   1.946   4.217
 5356SOL    HW216629   2.607   1.879   4.236
 5357SOL     OW16630   2.052   2.828   4.997
 5357SOL    HW116631   2.136   2.786   4.981
 5357SOL    HW216632   1.989   2.774   4.950
 5358SOL     OW16633   3.391   2.857   3.924
 5358SOL    HW116634   3.321   2.800   3.957
 5358SOL    HW216635   3.432   2.892   4.002
 5359SOL     OW16636   3.077   3.665   5.350
 5359SOL    HW116637   3.056   3.725   5.279
 5359SOL    HW216638   3.079   3.579   5.309
 5360SOL     OW16639   3.327   3.282   4.674
 5360SOL    HW116640   3.260   3.297   4.741
 5360SOL    HW216641   3.316   3.191   4.648
 5361SOL     OW16642   3.511   3.604   4.304
 5361SOL    HW116643   3.502   3.571   4.215
 5361SOL    HW216644   3.493   3.529   4.360
 5362SOL     OW16645   2.459   2.586   3.992
 5362SOL    HW116646   2.463   2.667   3.942
 5362SOL    HW216647   2.393   2.602   4.060
 5363SOL     OW16648   3.140   2.217   4.657
 5363SOL    HW116649   3.051   2.183   4.665
 5363SOL    HW216650   3.192   2.164   4.717
 5364SOL     OW16651   3.437   3.538   4.032
 5364SOL    HW116652   3.529   3.563   4.028
 5364SOL    HW216653   3.413   3.517   3.941
 5365SOL     OW16654   2.654   2.480   5.172
 5365SOL    HW116655   2.630   2.456   5.262
 5365SOL    HW216656   2.614   2.412   5.118
 5366SOL     OW16657   3.256   2.336   5.402
 5366SOL    HW116658   3.258   2.380   5.487
 5366SOL    HW216659   3.315   2.261   5.412
 5367SOL     OW16660   2.815   2.749   5.307
 5367SOL    HW116661   2.870   2.679   5.271
 5367SOL    HW216662   2.768   2.783   5.232
 5368SOL     OW16663   2.856   2.275   4.961
 5368SOL    HW116664   2.770   2.295   4.999
 5368SOL    HW216665   2.836   2.229   4.880
 5369SOL     OW16666   2.914   2.560   4.149
 5369SOL    HW116667   2.930   2.554   4.244
 5369SOL    HW216668   2.831   2.514   4.136
 5370SOL     OW16669   1.950   2.685   4.502
 5370SOL    HW116670   2.032   2.680   4.553
 5370SOL    HW216671   1.906   2.763   4.536
 5371SOL     OW16672   1.985   3.704   5.300
 5371SOL    HW116673   1.986   3.685   5.394
 5371SOL    HW216674   1.892   3.707   5.277
 5372SOL     OW16675   2.758   2.212   3.920
 5372SOL    HW116676   2.798   2.273   3.858
 5372SOL    HW216677   2.766   2.127   3.878
 5373SOL     OW16678   3.573   2.437   5.552
 5373SOL    HW116679   3.534   2.510   5.504
 5373SOL    HW216680   3.596   2.373   5.484
 5374SOL     OW16681   3.238   3.004   4.265
 5374SOL    HW116682   3.318   2.991   4.213
 5374SOL    HW216683   3.186   3.066   4.214
 5375SOL     OW16684   2.408   2.051   4.619
 5375SOL    HW116685   2.410   2.075   4.711
 5375SOL    HW216686   2.428   2.133   4.573
 5376SOL     OW16687   2.867   3.307   4.195
 5376SOL    HW116688   2.829   3.380   4.147
 5376SOL    HW216689   2.847   3.327   4.287
 5377SOL     OW16690   2.213   3.672   4.564
 5377SOL    HW116691   2.263   3.592   4.582
 5377SOL    HW216692   2.273   3.743   4.586
 5378SOL     OW16693   3.666   2.923   4.591
 5378SOL    HW116694   3.612   2.899   4.515
 5378SOL    HW216695   3.605   2.927   4.664
 5379SOL     OW16696   3.089   3.399   5.236
 5379SOL    HW116697   3.076   3.327   5.297
 5379SOL    HW216698   3.023   3.386   5.168
 5380SOL     OW16699   2.180   2.819   3.975
 5380SOL    HW116700   2.261   2.837   3.928
 5380SOL    HW216701   2.148   2.737   3.937
 5381SOL     OW16702   3.341   2.606   4.450
 5381SOL    HW116703   3.334   2.564   4.536
 5381SOL    HW216704   3.419   2.661   4.457
 5382SOL     OW16705   2.329   3.127   5.461
 5382SOL    HW116706   2.302   3.132   5.369
 5382SOL    HW216707   2.247   3.125   5.510
 5383SOL     OW16708   2.976   3.643   3.947
 5383SOL    HW116709   2.912   3.596   4.001
 5383SOL    HW216710   3.006   3.578   3.883
 5384SOL     OW16711   3.487   3.246   3.813
 5384SOL    HW116712   3.444   3.330   3.795
 5384SOL    HW216713   3.420   3.180   3.793
 5385SOL     OW16714   2.330   3.597   4.049
 5385SOL    HW116715   2.367   3.662   4.108
 5385SOL    HW216716   2.402   3.572   3.992
 5386SOL     OW16717   3.263   1.970   4.158
 5386SOL    HW116718   3.255   1.944   4.066
 5386SOL    HW216719   3.357   1.975   4.174
 5387SOL     OW16720   2.121   3.654   4.949
 5387SOL    HW116721   2.169   3.585   4.996
 5387SOL    HW216722   2.107   3.618   4.862
 5388SOL     OW16723   2.800   3.562   4.624
 5388SOL    HW116724   2.877   3.510   4.646
 5388SOL    HW216725   2.755   3.513   4.555
 5389SOL     OW16726   2.257   2.557   4.200
 5389SOL    HW116727   2.275   2.463   4.210
 5389SOL    HW216728   2.163   2.565   4.217
 5390SOL     OW16729   3.397   2.087   5.449
 5390SOL    HW116730   3.406   2.108   5.542
 5390SOL    HW216731   3.328   2.020   5.446
 5391SOL     OW16732   2.509   1.986   3.829
 5391SOL    HW116733   2.570   1.918   3.856
 5391SOL    HW216734   2.460   1.947   3.756
 5392SOL     OW16735   2.631   2.143   5.475
 5392SOL    HW116736   2.709   2.088   5.471
 5392SOL    HW216737   2.584   2.112   5.552
 5393SOL     OW16738   2.738   3.382   4.919
 5393SOL    HW116739   2.722   3.347   4.831
 5393SOL    HW216740   2.808   3.328   4.954
 5394SOL     OW16741   3.202   2.451   5.157
 5394SOL    HW116742   3.233   2.420   5.242
 5394SOL    HW216743   3.239   2.539   5.149
 5395SOL     OW16744   2.678   3.256   4.665
 5395SOL    HW116745   2.762   3.244   4.621
 5395SOL    HW216746   2.614   3.258   4.594
 5396SOL     OW16747   2.789   2.370   4.627
 5396SOL    HW116748   2.766   2.362   4.534
 5396SOL    HW216749   2.822   2.283   4.650
 5397SOL     OW16750   2.446   1.926   4.200
 5397SOL    HW116751   2.371   1.914   4.259
 5397SOL    HW216752   2.427   2.006   4.152
 5398SOL     OW16753   3.290   3.061   3.765
 5398SOL    HW116754   3.321   2.986   3.815
 5398SOL    HW216755   3.204   3.081   3.802
 5399SOL     OW16756   2.806   2.112   4.182
 5399SOL    HW116757   2.778   2.151   4.100
 5399SOL    HW216758   2.900   2.128   4.186
 5400SOL     OW16759   2.943   2.544   5.183
 5400SOL    HW116760   2.876   2.476   5.189
 5400SOL    HW216761   3.025   2.496   5.177
 5401SOL     OW16762   3.084   3.432   4.518
 5401SOL    HW116763   3.100   3.500   4.452
 5401SOL    HW216764   3.153   3.444   4.583
 5402SOL     OW16765   2.332   3.012   4.456
 5402SOL    HW116766   2.263   2.993   4.519
 5402SOL    HW216767   2.291   2.997   4.371
 5403SOL     OW16768   3.129   3.657   4.331
 5403SOL    HW116769   3.175   3.722   4.277
 5403SOL    HW216770   3.057   3.706   4.371
 5404SOL     OW16771   2.885   2.402   3.747
 5404SOL    HW116772   2.842   2.485   3.728
 5404SOL    HW216773   2.950   2.424   3.814
 5405SOL     OW16774   1.938   2.424   5.110
 5405SOL    HW116775   2.032   2.419   5.089
 5405SOL    HW216776   1.932   2.489   5.179
 5406SOL     OW16777   2.416   2.083   4.894
 5406SOL    HW116778   2.466   2.006   4.920
 5406SOL    HW216779   2.332   2.073   4.940
 5407SOL     OW16780   2.726   2.319   4.364
 5407SOL    HW116781   2.685   2.375   4.298
 5407SOL    HW216782   2.751   2.240   4.316
 5408SOL     OW16783   2.874   1.916   4.475
 5408SOL    HW116784   2.819   1.905   4.398
 5408SOL    HW216785   2.854   1.840   4.530
 5409SOL     OW16786   3.300   3.024   4.581
 5409SOL    HW116787   3.230   2.959   4.580
 5409SOL    HW216788   3.325   3.034   4.489
 5410SOL     OW16789   3.327   2.469   4.699
 5410SOL    HW116790   3.276   2.388   4.702
 5410SOL    HW216791   3.387   2.462   4.774
 5411SOL     OW16792   3.723   2.679   4.099
 5411SOL    HW116793   3.767   2.624   4.163
 5411SOL    HW216794   3.686   2.618   4.035
 5412SOL     OW16795   2.353   3.280   3.879
 5412SOL    HW116796   2.277   3.252   3.931
 5412SOL    HW216797   2.339   3.239   3.793
 5413SOL     OW16798   3.528   3.127   4.369
 5413SOL    HW116799   3.624   3.130   4.378
 5413SOL    HW216800   3.500   3.216   4.390
 5414SOL     OW16801   3.256   2.433   3.795
 5414SOL    HW116802   3.194   2.414   3.866
 5414SOL    HW216803   3.340   2.401   3.828
 5415SOL     OW16804   2.384   2.130   4.035
 5415SOL    HW116805   2.428   2.081   3.966
 5415SOL    HW216806   2.361   2.214   3.994
 5416SOL     OW16807   3.614   3.097   5.292
 5416SOL    HW116808   3.701   3.061   5.275
 5416SOL    HW216809   3.630   3.186   5.322
 5417SOL     OW16810   2.920   3.215   5.057
 5417SOL    HW116811   2.845   3.184   5.108
 5417SOL    HW216812   2.996   3.174   5.098
 5418SOL     OW16813   3.469   3.491   5.380
 5418SOL    HW116814   3.460   3.524   5.290
 5418SOL    HW216815   3.550   3.440   5.379
 5419SOL     OW16816   2.992   3.067   4.828
 5419SOL    HW116817   2.933   3.105   4.893
 5419SOL    HW216818   2.960   3.100   4.744
 5420SOL     OW16819   3.492   2.959   4.799
 5420SOL    HW116820   3.484   3.020   4.872
 5420SOL    HW216821   3.414   2.975   4.746
 5421SOL     OW16822   2.779   1.960   5.118
 5421SOL    HW116823   2.803   1.939   5.028
 5421SOL    HW216824   2.857   1.998   5.156
 5422SOL     OW16825   2.846   2.977   5.446
 5422SOL    HW116826   2.754   2.993   5.469
 5422SOL    HW216827   2.844   2.899   5.391
 5423SOL     OW16828   2.571   2.924   4.095
 5423SOL    HW116829   2.557   2.906   4.188
 5423SOL    HW216830   2.647   2.870   4.071
 5424SOL     OW16831   2.280   2.676   4.975
 5424SOL    HW116832   2.349   2.687   5.041
 5424SOL    HW216833   2.246   2.588   4.991
 5425SOL     OW16834   3.127   2.238   5.001
 5425SOL    HW116835   3.160   2.316   5.047
 5425SOL    HW216836   3.037   2.261   4.978
 5426SOL     OW16837   1.933   3.435   5.076
 5426SOL    HW116838   1.905   3.510   5.025
 5426SOL    HW216839   2.029   3.438   5.073
 5427SOL     OW16840   2.209   2.973   4.214
 5427SOL    HW116841   2.213   3.046   4.152
 5427SOL    HW216842   2.206   2.895   4.158
 5428SOL     OW16843   2.408   2.398   4.587
 5428SOL    HW116844   2.422   2.456   4.511
 5428SOL    HW216845   2.475   2.424   4.650
 5429SOL     OW16846   3.110   3.211   4.113
 5429SOL    HW116847   3.166   3.282   4.144
 5429SOL    HW216848   3.023   3.232   4.147
 5430SOL     OW16849   3.144   3.321   4.871
 5430SOL    HW116850   3.201   3.324   4.949
 5430SOL    HW216851   3.089   3.244   4.885
 5431SOL     OW16852   3.441   2.483   4.205
 5431SOL    HW116853   3.394   2.536   4.269
 5431SOL    HW216854   3.484   2.547   4.147
 5432SOL     OW16855   2.208   3.390   5.037
 5432SOL    HW116856   2.196   3.347   4.953
 5432SOL    HW216857   2.302   3.402   5.045
 5433SOL     OW16858   2.277   2.610   5.328
 5433SOL    HW116859   2.339   2.652   5.269
 5433SOL    HW216860   2.320   2.528   5.353
 5434SOL     OW16861   3.465   2.640   5.406
 5434SOL    HW116862   3.379   2.682   5.400
 5434SOL    HW216863   3.517   2.683   5.338
 5435SOL     OW16864   2.858   1.988   5.473
 5435SOL    HW116865   2.918   2.059   5.452
 5435SOL    HW216866   2.907   1.908   5.450
 5436SOL     OW16867   2.373   1.896   5.472
 5436SOL    HW116868   2.325   1.842   5.410
 5436SOL    HW216869   2.309   1.962   5.501
 5437SOL     OW16870   2.446   2.735   4.756
 5437SOL    HW116871   2.478   2.825   4.754
 5437SOL    HW216872   2.390   2.730   4.833
 5438SOL     OW16873   3.218   2.721   4.752
 5438SOL    HW116874   3.134   2.710   4.706
 5438SOL    HW216875   3.260   2.636   4.746
 5439SOL     OW16876   3.065   2.390   3.989
 5439SOL    HW116877   3.074   2.312   4.044
 5439SOL    HW216878   3.023   2.455   4.046
 5440SOL     OW16879   1.907   3.173   5.000
 5440SOL    HW116880   1.941   3.118   5.071
 5440SOL    HW216881   1.914   3.262   5.033
 5441SOL     OW16882   2.582   2.490   4.779
 5441SOL    HW116883   2.660   2.475   4.725
 5441SOL    HW216884   2.557   2.580   4.761
 5442SOL     OW16885   3.593   2.821   5.583
 5442SOL    HW116886   3.551   2.759   5.524
 5442SOL    HW216887   3.530   2.834   5.654
 5443SOL     OW16888   2.222   1.896   4.333
 5443SOL    HW116889   2.148   1.954   4.313
 5443SOL    HW216890   2.208   1.869   4.423
 5444SOL     OW16891   3.480   2.237   4.090
 5444SOL    HW116892   3.507   2.173   4.155
 5444SOL    HW216893   3.457   2.315   4.141
 5445SOL     OW16894   2.889   2.620   4.684
 5445SOL    HW116895   2.885   2.638   4.778
 5445SOL    HW216896   2.864   2.529   4.676
 5446SOL     OW16897   2.847   3.430   5.443
 5446SOL    HW116898   2.829   3.471   5.359
 5446SOL    HW216899   2.889   3.347   5.421
 5447SOL     OW16900   3.706   3.363   5.323
 5447SOL    HW116901   3.729   3.392   5.234
 5447SOL    HW216902   3.786   3.374   5.373
 5448SOL     OW16903   2.216   2.780   5.536
 5448SOL    HW116904   2.299   2.800   5.578
 5448SOL    HW216905   2.238   2.718   5.467
 5449SOL     OW16906   3.391   2.135   3.851
 5449SOL    HW116907   3.326   2.070   3.877
 5449SOL    HW216908   3.424   2.170   3.934
 5450SOL     OW16909   3.152   2.687   3.754
 5450SOL    HW116910   3.196   2.602   3.758
 5450SOL    HW216911   3.184   2.727   3.673
 5451SOL     OW16912   2.928   3.198   4.578
 5451SOL    HW116913   2.932   3.126   4.516
 5451SOL    HW216914   2.989   3.263   4.543
 5452SOL     OW16915   2.172   2.673   4.671
 5452SOL    HW116916   2.264   2.695   4.661
 5452SOL    HW216917   2.172   2.586   4.710
 5453SOL     OW16918   2.186   2.361   4.736
 5453SOL    HW116919   2.146   2.289   4.688
 5453SOL    HW216920   2.266   2.380   4.687
 5454SOL     OW16921   2.996   2.238   5.406
 5454SOL    HW116922   2.948   2.292   5.469
 5454SOL    HW216923   3.084   2.276   5.403
 5455SOL     OW16924   3.022   2.064   5.194
 5455SOL    HW116925   3.011   2.126   5.265
 5455SOL    HW216926   3.063   2.115   5.124
 5456SOL     OW16927   1.867   3.182   3.919
 5456SOL    HW116928   1.780   3.196   3.882
 5456SOL    HW216929   1.864   3.092   3.953
 5457SOL     OW16930   1.958   3.643   4.661
 5457SOL    HW116931   1.927   3.564   4.617
 5457SOL    HW216932   2.043   3.661   4.622
 5458SOL     OW16933   2.357   3.437   4.630
 5458SOL    HW116934   2.425   3.500   4.654
 5458SOL    HW216935   2.402   3.374   4.573
 5459SOL     OW16936   2.843   2.652   4.950
 5459SOL    HW116937   2.901   2.631   5.022
 5459SOL    HW216938   2.758   2.617   4.977
 5460SOL     OW16939   1.900   2.398   4.841
 5460SOL    HW116940   1.984   2.400   4.796
 5460SOL    HW216941   1.921   2.413   4.934
 5461SOL     OW16942   2.061   2.391   5.452
 5461SOL    HW116943   2.122   2.356   5.388
 5461SOL    HW216944   2.014   2.461   5.406
 5462SOL     OW16945   3.241   2.800   5.382
 5462SOL    HW116946   3.261   2.893   5.380
 5462SOL    HW216947   3.237   2.774   5.290
 5463SOL     OW16948   2.678   2.431   4.087
 5463SOL    HW116949   2.683   2.357   4.027
 5463SOL    HW216950   2.605   2.484   4.055
 5464SOL     OW16951   3.503   2.464   4.909
 5464SOL    HW116952   3.492   2.403   4.982
 5464SOL    HW216953   3.589   2.442   4.873
 5465SOL     OW16954   2.105   3.412   5.450
 5465SOL    HW116955   2.082   3.478   5.515
 5465SOL    HW216956   2.108   3.330   5.499
 5466SOL     OW16957   2.560   2.311   4.983
 5466SOL    HW116958   2.509   2.237   4.951
 5466SOL    HW216959   2.558   2.374   4.911
 5467SOL     OW16960   2.790   3.535   5.192
 5467SOL    HW116961   2.764   3.498   5.108
 5467SOL    HW216962   2.782   3.629   5.181
 5468SOL     OW16963   2.325   2.361   3.914
 5468SOL    HW116964   2.383   2.434   3.935
 5468SOL    HW216965   2.240   2.401   3.896
 5469SOL     OW16966   2.007   3.003   5.197
 5469SOL    HW116967   2.008   2.952   5.278
 5469SOL    HW216968   2.024   2.939   5.128
 5470SOL     OW16969   3.186   2.908   4.946
 5470SOL    HW116970   3.209   2.845   4.878
 5470SOL    HW216971   3.117   2.961   4.907
 5471SOL     OW16972   3.174   2.718   4.030
 5471SOL    HW116973   3.099   2.688   4.080
 5471SOL    HW216974   3.148   2.705   3.938
 5472SOL     OW16975   3.637   3.604   4.877
 5472SOL    HW116976   3.695   3.630   4.806
 5472SOL    HW216977   3.611   3.515   4.855
 5473SOL     OW16978   3.105   3.596   4.835
 5473SOL    HW116979   3.188   3.616   4.791
 5473SOL    HW216980   3.111   3.502   4.854
 5474SOL     OW16981   1.946   3.128   4.736
 5474SOL    HW116982   1.931   3.142   4.829
 5474SOL    HW216983   1.873   3.074   4.707
 5475SOL     OW16984   2.540   3.526   5.454
 5475SOL    HW116985   2.485   3.604   5.458
 5475SOL    HW216986   2.601   3.543   5.383
 5476SOL     OW16987   3.573   2.010   4.236
 5476SOL    HW116988   3.642   1.998   4.170
 5476SOL    HW216989   3.562   1.924   4.276
 5477SOL     OW16990   3.252   3.430   4.210
 5477SOL    HW116991   3.312   3.463   4.143
 5477SOL    HW216992   3.204   3.508   4.240
 5478SOL     OW16993   1.995   3.653   5.563
 5478SOL    HW116994   1.943   3.589   5.612
 5478SOL    HW216995   2.045   3.700   5.630
 5479SOL     OW16996   3.139   2.788   4.395
 5479SOL    HW116997   3.213   2.727   4.403
 5479SOL    HW216998   3.173   2.860   4.342
 5480SOL     OW16999   2.674   3.136   5.153
 5480SOL    HW117000   2.646   3.175   5.235
 5480SOL    HW217001   2.605   3.158   5.091
 5481SOL     OW17002   2.537   3.479   3.881
 5481SOL    HW117003   2.545   3.496   3.787
 5481SOL    HW217004   2.479   3.403   3.887
 5482SOL     OW17005   3.483   3.588   5.114
 5482SOL    HW117006   3.538   3.592   5.035
 5482SOL    HW217007   3.471   3.680   5.139
 5483SOL     OW17008   3.700   2.043   4.692
 5483SOL    HW117009   3.730   1.956   4.666
 5483SOL    HW217010   3.613   2.051   4.651
 5484SOL     OW17011   3.069   3.467   3.759
 5484SOL    HW117012   3.059   3.375   3.783
 5484SOL    HW217013   3.008   3.480   3.687
 5485SOL     OW17014   2.686   2.868   5.096
 5485SOL    HW117015   2.730   2.864   5.012
 5485SOL    HW217016   2.685   2.961   5.119
 5486SOL     OW17017   2.778   2.773   4.014
 5486SOL    HW117018   2.839   2.805   3.948
 5486SOL    HW217019   2.827   2.704   4.060
 5487SOL     OW17020   3.351   3.492   3.766
 5487SOL    HW117021   3.257   3.481   3.750
 5487SOL    HW217022   3.390   3.497   3.678
 5488SOL     OW17023   2.231   3.165   5.215
 5488SOL    HW117024   2.217   3.242   5.160
 5488SOL    HW217025   2.154   3.111   5.200
 5489SOL     OW17026   3.464   3.142   5.002
 5489SOL    HW117027   3.532   3.134   5.069
 5489SOL    HW217028   3.407   3.212   5.034
 5490SOL     OW17029   2.916   2.970   4.431
 5490SOL    HW117030   2.845   2.919   4.470
 5490SOL    HW217031   2.979   2.904   4.401
 5491SOL     OW17032   2.882   2.102   4.690
 5491SOL    HW117033   2.878   2.054   4.607
 5491SOL    HW217034   2.879   2.034   4.757
 5492SOL     OW17035   2.466   3.352   4.204
 5492SOL    HW117036   2.511   3.301   4.136
 5492SOL    HW217037   2.397   3.400   4.157
 5493SOL     OW17038   3.585   2.252   5.102
 5493SOL    HW117039   3.657   2.315   5.099
 5493SOL    HW217040   3.614   2.180   5.047
 5494SOL     OW17041   2.122   3.206   4.013
 5494SOL    HW117042   2.029   3.203   3.990
 5494SOL    HW217043   2.124   3.244   4.101
 5495SOL     OW17044   1.975   2.886   5.444
 5495SOL    HW117045   1.898   2.862   5.496
 5495SOL    HW217046   2.049   2.847   5.491
 5496SOL     OW17047   2.536   2.060   5.223
 5496SOL    HW117048   2.619   2.038   5.182
 5496SOL    HW217049   2.560   2.091   5.311
 5497SOL     OW17050   1.897   2.281   3.783
 5497SOL    HW117051   1.859   2.198   3.755
 5497SOL    HW217052   1.948   2.312   3.708
 5498SOL     OW17053   3.290   2.720   5.124
 5498SOL    HW117054   3.240   2.782   5.069
 5498SOL    HW217055   3.378   2.722   5.087
 5499SOL     OW17056   3.040   3.200   3.841
 5499SOL    HW117057   2.949   3.170   3.843
 5499SOL    HW217058   3.067   3.200   3.933
 5500SOL     OW17059   2.481   2.692   5.157
 5500SOL    HW117060   2.537   2.769   5.143
 5500SOL    HW217061   2.542   2.619   5.166
 5501SOL     OW17062   3.347   3.642   4.706
 5501SOL    HW117063   3.372   3.695   4.630
 5501SOL    HW217064   3.430   3.613   4.743
 5502SOL     OW17065   2.579   2.424   5.425
 5502SOL    HW117066   2.620   2.486   5.486
 5502SOL    HW217067   2.603   2.338   5.459
 5503SOL     OW17068   3.334   3.061   5.355
 5503SOL    HW117069   3.323   3.075   5.449
 5503SOL    HW217070   3.427   3.076   5.340
 5504SOL     OW17071   2.239   3.602   5.288
 5504SOL    HW117072   2.154   3.643   5.273
 5504SOL    HW217073   2.218   3.518   5.329
 5505SOL     OW17074   3.528   2.743   4.983
 5505SOL    HW117075   3.526   2.657   4.939
 5505SOL    HW217076   3.521   2.806   4.911
 5506SOL     OW17077   3.079   2.182   4.181
 5506SOL    HW117078   3.142   2.110   4.173
 5506SOL    HW217079   3.108   2.230   4.258
 5507SOL     OW17080   2.448   2.598   4.396
 5507SOL    HW117081   2.490   2.683   4.381
 5507SOL    HW217082   2.383   2.591   4.327
 5508SOL     OW17083   3.622   2.227   5.373
 5508SOL    HW117084   3.605   2.240   5.280
 5508SOL    HW217085   3.553   2.169   5.403
 5509SOL     OW17086   3.617   2.791   5.237
 5509SOL    HW117087   3.609   2.885   5.254
 5509SOL    HW217088   3.593   2.781   5.145
 5510SOL     OW17089   2.725   3.229   3.761
 5510SOL    HW117090   2.685   3.257   3.843
 5510SOL    HW217091   2.741   3.311   3.713
 5511SOL     OW17092   2.522   3.652   4.665
 5511SOL    HW117093   2.501   3.743   4.643
 5511SOL    HW217094   2.617   3.648   4.660
 5512SOL     OW17095   2.730   2.830   4.579
 5512SOL    HW117096   2.780   2.758   4.618
 5512SOL    HW217097   2.695   2.878   4.654
 5513SOL     OW17098   2.941   2.851   3.813
 5513SOL    HW117099   2.919   2.901   3.735
 5513SOL    HW217100   3.015   2.797   3.786
 5514SOL     OW17101   3.714   3.417   4.565
 5514SOL    HW117102   3.635   3.398   4.515
 5514SOL    HW217103   3.716   3.350   4.633
 5515SOL     OW17104   2.087   3.164   5.580
 5515SOL    HW117105   2.020   3.104   5.549
 5515SOL    HW217106   2.067   3.177   5.673
 5516SOL     OW17107   1.947   3.095   4.389
 5516SOL    HW117108   1.953   3.047   4.472
 5516SOL    HW217109   2.014   3.055   4.333
 5517SOL     OW17110   2.544   3.266   5.352
 5517SOL    HW117111   2.464   3.223   5.384
 5517SOL    HW217112   2.541   3.354   5.390
 5518SOL     OW17113   3.676   2.041   4.963
 5518SOL    HW117114   3.668   1.946   4.967
 5518SOL    HW217115   3.689   2.061   4.870
 5519SOL     OW17116   2.292   2.292   4.247
 5519SOL    HW117117   2.325   2.233   4.179
 5519SOL    HW217118   2.252   2.235   4.312
 5520SOL     OW17119   3.559   3.352   4.821
 5520SOL    HW117120   3.480   3.327   4.774
 5520SOL    HW217121   3.572   3.282   4.885
 5521SOL     OW17122   2.193   2.417   5.013
 5521SOL    HW117123   2.238   2.357   5.072
 5521SOL    HW217124   2.210   2.382   4.926
 5522SOL     OW17125   2.689   3.440   4.401
 5522SOL    HW117126   2.674   3.490   4.321
 5522SOL    HW217127   2.614   3.381   4.407
 5523SOL     OW17128   3.293   2.089   4.841
 5523SOL    HW117129   3.315   2.007   4.885
 5523SOL    HW217130   3.242   2.137   4.906
 5524SOL     OW17131   2.871   1.879   4.865
 5524SOL    HW117132   2.817   1.812   4.824
 5524SOL    HW217133   2.959   1.842   4.867
 5525SOL     OW17134   2.634   3.194   4.041
 5525SOL    HW117135   2.603   3.104   4.047
 5525SOL    HW217136   2.717   3.195   4.089
 5526SOL     OW17137   2.482   3.416   5.008
 5526SOL    HW117138   2.483   3.497   5.059
 5526SOL    HW217139   2.570   3.409   4.971
 5527SOL     OW17140   3.215   1.916   3.889
 5527SOL    HW117141   3.245   1.848   3.828
 5527SOL    HW217142   3.128   1.887   3.915
 5528SOL     OW17143   3.157   2.323   4.404
 5528SOL    HW117144   3.105   2.403   4.411
 5528SOL    HW217145   3.154   2.284   4.492
 5529SOL     OW17146   3.445   2.062   4.601
 5529SOL    HW117147   3.387   2.085   4.674
 5529SOL    HW217148   3.446   2.140   4.546
 5530SOL     OW17149   1.906   2.932   4.031
 5530SOL    HW117150   1.999   2.924   4.012
 5530SOL    HW217151   1.877   2.844   4.053
 5531SOL     OW17152   2.747   3.519   4.068
 5531SOL    HW117153   2.676   3.500   4.006
 5531SOL    HW217154   2.716   3.595   4.117
 5532SOL     OW17155   2.093   2.498   5.711
 5532SOL    HW117156   2.007   2.475   5.746
 5532SOL    HW217157   2.092   2.467   5.621
 5533SOL     OW17158   1.881   2.244   6.204
 5533SOL    HW117159   1.830   2.302   6.259
 5533SOL    HW217160   1.817   2.201   6.147
 5534SOL     OW17161   2.428   3.152   6.763
 5534SOL    HW117162   2.342   3.159   6.721
 5534SOL    HW217163   2.446   3.240   6.796
 5535SOL     OW17164   3.424   3.374   6.294
 5535SOL    HW117165   3.382   3.351   6.377
 5535SOL    HW217166   3.352   3.377   6.231
 5536SOL     OW17167   3.000   2.560   6.289
 5536SOL    HW117168   3.044   2.643   6.274
 5536SOL    HW217169   2.952   2.572   6.372
 5537SOL     OW17170   3.630   2.468   5.815
 5537SOL    HW117171   3.610   2.460   5.722
 5537SOL    HW217172   3.594   2.390   5.855
 5538SOL     OW17173   2.614   3.003   6.625
 5538SOL    HW117174   2.547   3.037   6.684
 5538SOL    HW217175   2.650   3.081   6.582
 5539SOL     OW17176   2.735   2.641   7.410
 5539SOL    HW117177   2.726   2.716   7.470
 5539SOL    HW217178   2.758   2.681   7.326
 5540SOL     OW17179   2.560   2.892   6.228
 5540SOL    HW117180   2.616   2.861   6.298
 5540SOL    HW217181   2.484   2.929   6.272
 5541SOL     OW17182   2.572   3.012   7.401
 5541SOL    HW117183   2.621   3.090   7.428
 5541SOL    HW217184   2.491   3.046   7.364
 5542SOL     OW17185   2.195   3.285   6.654
 5542SOL    HW117186   2.119   3.251   6.606
 5542SOL    HW217187   2.242   3.338   6.589
 5543SOL     OW17188   3.321   3.362   6.941
 5543SOL    HW117189   3.374   3.441   6.952
 5543SOL    HW217190   3.257   3.366   7.013
 5544SOL     OW17191   3.473   2.309   6.329
 5544SOL    HW117192   3.398   2.331   6.273
 5544SOL    HW217193   3.484   2.385   6.385
 5545SOL     OW17194   2.083   3.578   6.065
 5545SOL    HW117195   2.115   3.638   6.132
 5545SOL    HW217196   2.154   3.574   6.001
 5546SOL     OW17197   2.998   3.204   7.280
 5546SOL    HW117198   3.040   3.197   7.366
 5546SOL    HW217199   2.947   3.123   7.271
 5547SOL     OW17200   2.090   3.304   6.120
 5547SOL    HW117201   2.074   3.398   6.125
 5547SOL    HW217202   2.032   3.266   6.186
 5548SOL     OW17203   2.122   2.956   6.483
 5548SOL    HW117204   2.086   2.872   6.514
 5548SOL    HW217205   2.070   3.022   6.529
 5549SOL     OW17206   2.472   3.649   7.014
 5549SOL    HW117207   2.390   3.634   7.062
 5549SOL    HW217208   2.498   3.737   7.039
 5550SOL     OW17209   2.448   2.847   5.718
 5550SOL    HW117210   2.495   2.896   5.650
 5550SOL    HW217211   2.486   2.878   5.800
 5551SOL     OW17212   3.460   1.985   7.054
 5551SOL    HW117213   3.462   2.067   7.004
 5551SOL    HW217214   3.444   2.012   7.144
 5552SOL     OW17215   3.700   3.614   5.927
 5552SOL    HW117216   3.770   3.589   5.987
 5552SOL    HW217217   3.720   3.705   5.903
 5553SOL     OW17218   1.891   3.453   5.709
 5553SOL    HW117219   1.875   3.362   5.730
 5553SOL    HW217220   1.871   3.501   5.789
 5554SOL     OW17221   3.551   2.783   6.231
 5554SOL    HW117222   3.634   2.739   6.212
 5554SOL    HW217223   3.531   2.831   6.151
 5555SOL     OW17224   3.503   2.968   6.016
 5555SOL    HW117225   3.588   2.973   5.973
 5555SOL    HW217226   3.509   3.030   6.089
 5556SOL     OW17227   2.476   3.250   6.321
 5556SOL    HW117228   2.432   3.166   6.330
 5556SOL    HW217229   2.460   3.276   6.230
 5557SOL     OW17230   3.150   3.100   7.009
 5557SOL    HW117231   3.182   3.033   6.948
 5557SOL    HW217232   3.209   3.093   7.084
 5558SOL     OW17233   2.052   2.826   6.863
 5558SOL    HW117234   2.135   2.781   6.848
 5558SOL    HW217235   1.987   2.771   6.818
 5559SOL     OW17236   3.391   2.857   5.786
 5559SOL    HW117237   3.321   2.800   5.818
 5559SOL    HW217238   3.432   2.892   5.864
 5560SOL     OW17239   3.077   3.665   7.212
 5560SOL    HW117240   3.055   3.725   7.141
 5560SOL    HW217241   3.078   3.578   7.171
 5561SOL     OW17242   3.327   3.282   6.535
 5561SOL    HW117243   3.260   3.297   6.602
 5561SOL    HW217244   3.316   3.191   6.510
 5562SOL     OW17245   3.511   3.604   6.166
 5562SOL    HW117246   3.501   3.571   6.077
 5562SOL    HW217247   3.493   3.529   6.222
 5563SOL     OW17248   2.459   2.590   5.844
 5563SOL    HW117249   2.476   2.665   5.786
 5563SOL    HW217250   2.401   2.624   5.911
 5564SOL     OW17251   3.141   2.214   6.518
 5564SOL    HW117252   3.051   2.185   6.532
 5564SOL    HW217253   3.193   2.162   6.580
 5565SOL     OW17254   3.437   3.538   5.894
 5565SOL    HW117255   3.529   3.563   5.890
 5565SOL    HW217256   3.413   3.517   5.803
 5566SOL     OW17257   2.683   2.434   7.034
 5566SOL    HW117258   2.650   2.431   7.124
 5566SOL    HW217259   2.605   2.427   6.979
 5567SOL     OW17260   3.257   2.336   7.263
 5567SOL    HW117261   3.257   2.380   7.348
 5567SOL    HW217262   3.315   2.261   7.275
 5568SOL     OW17263   2.813   2.747   7.169
 5568SOL    HW117264   2.870   2.680   7.131
 5568SOL    HW217265   2.762   2.780   7.095
 5569SOL     OW17266   2.871   2.295   6.821
 5569SOL    HW117267   2.799   2.334   6.870
 5569SOL    HW217268   2.829   2.257   6.743
 5570SOL     OW17269   2.914   2.560   6.013
 5570SOL    HW117270   2.930   2.549   6.107
 5570SOL    HW217271   2.832   2.514   5.997
 5571SOL     OW17272   1.984   3.703   7.161
 5571SOL    HW117273   1.986   3.685   7.255
 5571SOL    HW217274   1.891   3.708   7.139
 5572SOL     OW17275   2.756   2.214   5.779
 5572SOL    HW117276   2.799   2.271   5.714
 5572SOL    HW217277   2.744   2.131   5.733
 5573SOL     OW17278   3.575   2.437   7.414
 5573SOL    HW117279   3.535   2.510   7.367
 5573SOL    HW217280   3.596   2.373   7.346
 5574SOL     OW17281   3.239   3.005   6.127
 5574SOL    HW117282   3.318   2.991   6.075
 5574SOL    HW217283   3.187   3.066   6.075
 5575SOL     OW17284   2.867   3.307   6.057
 5575SOL    HW117285   2.829   3.381   6.009
 5575SOL    HW217286   2.848   3.326   6.149
 5576SOL     OW17287   2.213   3.672   6.426
 5576SOL    HW117288   2.264   3.592   6.444
 5576SOL    HW217289   2.273   3.743   6.448
 5577SOL     OW17290   3.667   2.923   6.452
 5577SOL    HW117291   3.613   2.898   6.377
 5577SOL    HW217292   3.605   2.927   6.526
 5578SOL     OW17293   3.089   3.399   7.098
 5578SOL    HW117294   3.076   3.327   7.159
 5578SOL    HW217295   3.025   3.383   7.029
 5579SOL     OW17296   2.186   2.805   5.840
 5579SOL    HW117297   2.263   2.834   5.792
 5579SOL    HW217298   2.152   2.731   5.789
 5580SOL     OW17299   3.342   2.605   6.310
 5580SOL    HW117300   3.332   2.563   6.396
 5580SOL    HW217301   3.419   2.661   6.320
 5581SOL     OW17302   2.328   3.126   7.322
 5581SOL    HW117303   2.301   3.132   7.231
 5581SOL    HW217304   2.246   3.130   7.371
 5582SOL     OW17305   2.976   3.643   5.809
 5582SOL    HW117306   2.912   3.596   5.863
 5582SOL    HW217307   3.006   3.578   5.745
 5583SOL     OW17308   3.487   3.246   5.674
 5583SOL    HW117309   3.444   3.330   5.657
 5583SOL    HW217310   3.420   3.180   5.655
 5584SOL     OW17311   2.330   3.596   5.911
 5584SOL    HW117312   2.367   3.662   5.970
 5584SOL    HW217313   2.403   3.572   5.854
 5585SOL     OW17314   3.268   1.965   6.020
 5585SOL    HW117315   3.259   1.943   5.928
 5585SOL    HW217316   3.363   1.973   6.034
 5586SOL     OW17317   2.121   3.654   6.811
 5586SOL    HW117318   2.170   3.586   6.857
 5586SOL    HW217319   2.107   3.618   6.723
 5587SOL     OW17320   2.800   3.562   6.486
 5587SOL    HW117321   2.876   3.509   6.508
 5587SOL    HW217322   2.755   3.513   6.417
 5588SOL     OW17323   3.396   2.087   7.311
 5588SOL    HW117324   3.406   2.106   7.405
 5588SOL    HW217325   3.322   2.026   7.307
 5589SOL     OW17326   2.532   1.983   5.677
 5589SOL    HW117327   2.577   1.907   5.714
 5589SOL    HW217328   2.475   1.946   5.609
 5590SOL     OW17329   2.738   3.383   6.781
 5590SOL    HW117330   2.723   3.347   6.693
 5590SOL    HW217331   2.808   3.329   6.817
 5591SOL     OW17332   3.204   2.451   7.018
 5591SOL    HW117333   3.233   2.420   7.104
 5591SOL    HW217334   3.238   2.540   7.012
 5592SOL     OW17335   2.677   3.257   6.527
 5592SOL    HW117336   2.762   3.244   6.484
 5592SOL    HW217337   2.614   3.258   6.456
 5593SOL     OW17338   2.782   2.370   6.493
 5593SOL    HW117339   2.778   2.370   6.398
 5593SOL    HW217340   2.816   2.283   6.516
 5594SOL     OW17341   3.290   3.061   5.627
 5594SOL    HW117342   3.321   2.985   5.677
 5594SOL    HW217343   3.204   3.081   5.665
 5595SOL     OW17344   2.833   2.157   6.038
 5595SOL    HW117345   2.800   2.175   5.950
 5595SOL    HW217346   2.928   2.161   6.030
 5596SOL     OW17347   2.941   2.544   7.041
 5596SOL    HW117348   2.872   2.478   7.049
 5596SOL    HW217349   3.022   2.494   7.036
 5597SOL     OW17350   3.084   3.432   6.379
 5597SOL    HW117351   3.101   3.500   6.314
 5597SOL    HW217352   3.153   3.443   6.444
 5598SOL     OW17353   2.330   3.012   6.319
 5598SOL    HW117354   2.262   2.992   6.384
 5598SOL    HW217355   2.288   2.995   6.235
 5599SOL     OW17356   3.129   3.658   6.193
 5599SOL    HW117357   3.175   3.722   6.139
 5599SOL    HW217358   3.057   3.706   6.233
 5600SOL     OW17359   2.887   2.403   5.608
 5600SOL    HW117360   2.843   2.486   5.590
 5600SOL    HW217361   2.949   2.423   5.677
 5601SOL     OW17362   2.770   2.351   6.222
 5601SOL    HW117363   2.696   2.388   6.173
 5601SOL    HW217364   2.794   2.273   6.172
 5602SOL     OW17365   3.299   3.024   6.443
 5602SOL    HW117366   3.231   2.958   6.444
 5602SOL    HW217367   3.322   3.033   6.350
 5603SOL     OW17368   3.328   2.469   6.560
 5603SOL    HW117369   3.275   2.389   6.565
 5603SOL    HW217370   3.387   2.463   6.636
 5604SOL     OW17371   3.724   2.679   5.961
 5604SOL    HW117372   3.768   2.623   6.025
 5604SOL    HW217373   3.687   2.618   5.898
 5605SOL     OW17374   2.352   3.280   5.741
 5605SOL    HW117375   2.277   3.252   5.793
 5605SOL    HW217376   2.339   3.239   5.655
 5606SOL     OW17377   3.529   3.128   6.229
 5606SOL    HW117378   3.624   3.131   6.240
 5606SOL    HW217379   3.500   3.216   6.252
 5607SOL     OW17380   3.256   2.434   5.657
 5607SOL    HW117381   3.193   2.416   5.727
 5607SOL    HW217382   3.340   2.401   5.691
 5608SOL     OW17383   2.330   2.092   5.834
 5608SOL    HW117384   2.411   2.066   5.790
 5608SOL    HW217385   2.329   2.188   5.826
 5609SOL     OW17386   3.613   3.097   7.154
 5609SOL    HW117387   3.700   3.061   7.137
 5609SOL    HW217388   3.630   3.186   7.184
 5610SOL     OW17389   2.920   3.217   6.922
 5610SOL    HW117390   2.845   3.184   6.971
 5610SOL    HW217391   2.996   3.174   6.961
 5611SOL     OW17392   3.469   3.491   7.242
 5611SOL    HW117393   3.460   3.524   7.153
 5611SOL    HW217394   3.550   3.440   7.241
 5612SOL     OW17395   2.995   3.071   6.690
 5612SOL    HW117396   2.932   3.102   6.755
 5612SOL    HW217397   2.960   3.099   6.606
 5613SOL     OW17398   3.492   2.959   6.661
 5613SOL    HW117399   3.484   3.020   6.734
 5613SOL    HW217400   3.413   2.974   6.609
 5614SOL     OW17401   2.846   2.976   7.308
 5614SOL    HW117402   2.754   2.992   7.329
 5614SOL    HW217403   2.845   2.898   7.251
 5615SOL     OW17404   2.569   2.922   5.955
 5615SOL    HW117405   2.561   2.914   6.050
 5615SOL    HW217406   2.645   2.868   5.933
 5616SOL     OW17407   2.283   2.674   6.846
 5616SOL    HW117408   2.369   2.696   6.883
 5616SOL    HW217409   2.284   2.578   6.840
 5617SOL     OW17410   3.134   2.239   6.860
 5617SOL    HW117411   3.165   2.315   6.909
 5617SOL    HW217412   3.043   2.261   6.837
 5618SOL     OW17413   1.933   3.435   6.938
 5618SOL    HW117414   1.905   3.511   6.887
 5618SOL    HW217415   2.029   3.438   6.935
 5619SOL     OW17416   2.205   2.974   6.075
 5619SOL    HW117417   2.216   3.049   6.016
 5619SOL    HW217418   2.206   2.897   6.017
 5620SOL     OW17419   3.110   3.211   5.974
 5620SOL    HW117420   3.166   3.282   6.006
 5620SOL    HW217421   3.023   3.232   6.009
 5621SOL     OW17422   3.144   3.321   6.732
 5621SOL    HW117423   3.199   3.323   6.811
 5621SOL    HW217424   3.090   3.243   6.742
 5622SOL     OW17425   3.441   2.483   6.066
 5622SOL    HW117426   3.394   2.534   6.132
 5622SOL    HW217427   3.482   2.549   6.010
 5623SOL     OW17428   2.209   3.390   6.900
 5623SOL    HW117429   2.197   3.347   6.815
 5623SOL    HW217430   2.303   3.402   6.907
 5624SOL     OW17431   3.466   2.641   7.269
 5624SOL    HW117432   3.379   2.682   7.263
 5624SOL    HW217433   3.517   2.684   7.200
 5625SOL     OW17434   2.928   1.986   7.395
 5625SOL    HW117435   2.944   2.064   7.342
 5625SOL    HW217436   2.961   1.914   7.341
 5626SOL     OW17437   2.447   2.729   6.615
 5626SOL    HW117438   2.483   2.817   6.601
 5626SOL    HW217439   2.375   2.742   6.676
 5627SOL     OW17440   3.217   2.721   6.612
 5627SOL    HW117441   3.131   2.708   6.573
 5627SOL    HW217442   3.259   2.636   6.607
 5628SOL     OW17443   3.064   2.394   5.849
 5628SOL    HW117444   3.080   2.317   5.904
 5628SOL    HW217445   3.020   2.456   5.907
 5629SOL     OW17446   2.258   2.054   6.920
 5629SOL    HW117447   2.168   2.057   6.953
 5629SOL    HW217448   2.257   1.988   6.852
 5630SOL     OW17449   1.906   3.175   6.860
 5630SOL    HW117450   1.938   3.120   6.931
 5630SOL    HW217451   1.913   3.264   6.893
 5631SOL     OW17452   2.628   2.525   6.690
 5631SOL    HW117453   2.651   2.463   6.621
 5631SOL    HW217454   2.564   2.583   6.650
 5632SOL     OW17455   3.593   2.822   7.445
 5632SOL    HW117456   3.552   2.759   7.386
 5632SOL    HW217457   3.529   2.834   7.515
 5633SOL     OW17458   3.480   2.237   5.952
 5633SOL    HW117459   3.507   2.173   6.017
 5633SOL    HW217460   3.457   2.315   6.002
 5634SOL     OW17461   2.894   2.620   6.544
 5634SOL    HW117462   2.890   2.642   6.637
 5634SOL    HW217463   2.855   2.532   6.539
 5635SOL     OW17464   2.846   3.429   7.305
 5635SOL    HW117465   2.828   3.471   7.221
 5635SOL    HW217466   2.889   3.347   7.282
 5636SOL     OW17467   3.706   3.363   7.185
 5636SOL    HW117468   3.729   3.392   7.097
 5636SOL    HW217469   3.787   3.374   7.236
 5637SOL     OW17470   3.392   2.134   5.713
 5637SOL    HW117471   3.326   2.070   5.739
 5637SOL    HW217472   3.424   2.171   5.796
 5638SOL     OW17473   3.152   2.687   5.616
 5638SOL    HW117474   3.195   2.602   5.620
 5638SOL    HW217475   3.184   2.727   5.535
 5639SOL     OW17476   2.926   3.199   6.439
 5639SOL    HW117477   2.930   3.125   6.378
 5639SOL    HW217478   2.988   3.262   6.404
 5640SOL     OW17479   2.996   2.240   7.261
 5640SOL    HW117480   2.950   2.300   7.320
 5640SOL    HW217481   3.085   2.275   7.256
 5641SOL     OW17482   3.038   2.051   7.062
 5641SOL    HW117483   3.013   2.117   7.127
 5641SOL    HW217484   3.061   2.102   6.984
 5642SOL     OW17485   1.867   3.179   5.782
 5642SOL    HW117486   1.780   3.195   5.744
 5642SOL    HW217487   1.861   3.090   5.816
 5643SOL     OW17488   1.958   3.642   6.523
 5643SOL    HW117489   1.927   3.564   6.479
 5643SOL    HW217490   2.043   3.660   6.485
 5644SOL     OW17491   2.357   3.437   6.491
 5644SOL    HW117492   2.425   3.500   6.516
 5644SOL    HW217493   2.402   3.374   6.435
 5645SOL     OW17494   2.848   2.665   6.809
 5645SOL    HW117495   2.890   2.630   6.888
 5645SOL    HW217496   2.768   2.613   6.800
 5646SOL     OW17497   3.240   2.800   7.245
 5646SOL    HW117498   3.261   2.893   7.242
 5646SOL    HW217499   3.236   2.773   7.153
 5647SOL     OW17500   2.679   2.439   5.940
 5647SOL    HW117501   2.683   2.359   5.888
 5647SOL    HW217502   2.603   2.486   5.906
 5648SOL     OW17503   3.503   2.465   6.771
 5648SOL    HW117504   3.491   2.404   6.844
 5648SOL    HW217505   3.589   2.442   6.735
 5649SOL     OW17506   2.106   3.413   7.312
 5649SOL    HW117507   2.083   3.480   7.376
 5649SOL    HW217508   2.107   3.331   7.362
 5650SOL     OW17509   2.788   3.535   7.056
 5650SOL    HW117510   2.764   3.497   6.971
 5650SOL    HW217511   2.781   3.630   7.042
 5651SOL     OW17512   2.328   2.359   5.777
 5651SOL    HW117513   2.385   2.433   5.797
 5651SOL    HW217514   2.242   2.400   5.760
 5652SOL     OW17515   2.000   3.007   7.056
 5652SOL    HW117516   2.013   2.962   7.139
 5652SOL    HW217517   2.019   2.941   6.989
 5653SOL     OW17518   3.187   2.908   6.808
 5653SOL    HW117519   3.209   2.844   6.740
 5653SOL    HW217520   3.118   2.962   6.769
 5654SOL     OW17521   3.174   2.719   5.892
 5654SOL    HW117522   3.100   2.687   5.944
 5654SOL    HW217523   3.147   2.704   5.801
 5655SOL     OW17524   3.637   3.604   6.739
 5655SOL    HW117525   3.695   3.630   6.668
 5655SOL    HW217526   3.611   3.515   6.717
 5656SOL     OW17527   3.106   3.596   6.698
 5656SOL    HW117528   3.188   3.616   6.654
 5656SOL    HW217529   3.111   3.502   6.717
 5657SOL     OW17530   1.953   3.139   6.596
 5657SOL    HW117531   1.934   3.149   6.689
 5657SOL    HW217532   1.884   3.081   6.564
 5658SOL     OW17533   2.540   3.525   7.316
 5658SOL    HW117534   2.485   3.603   7.320
 5658SOL    HW217535   2.602   3.542   7.245
 5659SOL     OW17536   3.573   2.010   6.098
 5659SOL    HW117537   3.642   1.998   6.033
 5659SOL    HW217538   3.563   1.923   6.138
 5660SOL     OW17539   3.252   3.430   6.072
 5660SOL    HW117540   3.312   3.464   6.005
 5660SOL    HW217541   3.204   3.508   6.102
 5661SOL     OW17542   1.996   3.653   7.425
 5661SOL    HW117543   1.944   3.590   7.474
 5661SOL    HW217544   2.045   3.701   7.492
 5662SOL     OW17545   3.140   2.790   6.258
 5662SOL    HW117546   3.213   2.728   6.264
 5662SOL    HW217547   3.174   2.862   6.205
 5663SOL     OW17548   2.675   3.134   7.014
 5663SOL    HW117549   2.646   3.174   7.096
 5663SOL    HW217550   2.604   3.154   6.952
 5664SOL     OW17551   2.537   3.479   5.743
 5664SOL    HW117552   2.546   3.496   5.650
 5664SOL    HW217553   2.479   3.403   5.749
 5665SOL     OW17554   3.483   3.588   6.976
 5665SOL    HW117555   3.537   3.592   6.898
 5665SOL    HW217556   3.471   3.680   7.001
 5666SOL     OW17557   3.699   2.043   6.553
 5666SOL    HW117558   3.730   1.956   6.528
 5666SOL    HW217559   3.613   2.051   6.513
 5667SOL     OW17560   3.069   3.467   5.621
 5667SOL    HW117561   3.059   3.375   5.646
 5667SOL    HW217562   3.008   3.480   5.549
 5668SOL     OW17563   2.682   2.861   6.962
 5668SOL    HW117564   2.728   2.850   6.879
 5668SOL    HW217565   2.683   2.956   6.977
 5669SOL     OW17566   2.776   2.771   5.875
 5669SOL    HW117567   2.839   2.804   5.810
 5669SOL    HW217568   2.824   2.703   5.922
 5670SOL     OW17569   3.351   3.492   5.628
 5670SOL    HW117570   3.257   3.480   5.612
 5670SOL    HW217571   3.390   3.497   5.540
 5671SOL     OW17572   2.228   3.165   7.077
 5671SOL    HW117573   2.220   3.243   7.023
 5671SOL    HW217574   2.149   3.115   7.059
 5672SOL     OW17575   3.465   3.142   6.864
 5672SOL    HW117576   3.531   3.134   6.933
 5672SOL    HW217577   3.407   3.212   6.895
 5673SOL     OW17578   2.916   2.969   6.295
 5673SOL    HW117579   2.843   2.917   6.331
 5673SOL    HW217580   2.979   2.903   6.266
 5674SOL     OW17581   2.882   2.106   6.554
 5674SOL    HW117582   2.858   2.058   6.475
 5674SOL    HW217583   2.881   2.040   6.623
 5675SOL     OW17584   2.465   3.352   6.066
 5675SOL    HW117585   2.511   3.301   5.998
 5675SOL    HW217586   2.398   3.400   6.018
 5676SOL     OW17587   3.586   2.253   6.964
 5676SOL    HW117588   3.657   2.316   6.960
 5676SOL    HW217589   3.614   2.180   6.909
 5677SOL     OW17590   2.121   3.205   5.875
 5677SOL    HW117591   2.029   3.202   5.852
 5677SOL    HW217592   2.124   3.244   5.963
 5678SOL     OW17593   1.992   2.908   7.318
 5678SOL    HW117594   1.904   2.879   7.339
 5678SOL    HW217595   2.045   2.828   7.320
 5679SOL     OW17596   1.895   2.276   5.645
 5679SOL    HW117597   1.863   2.193   5.610
 5679SOL    HW217598   1.950   2.312   5.575
 5680SOL     OW17599   3.290   2.721   6.987
 5680SOL    HW117600   3.239   2.781   6.932
 5680SOL    HW217601   3.378   2.723   6.949
 5681SOL     OW17602   3.040   3.201   5.703
 5681SOL    HW117603   2.950   3.169   5.705
 5681SOL    HW217604   3.068   3.200   5.795
 5682SOL     OW17605   3.347   3.643   6.568
 5682SOL    HW117606   3.372   3.695   6.491
 5682SOL    HW217607   3.430   3.613   6.605
 5683SOL     OW17608   3.334   3.061   7.217
 5683SOL    HW117609   3.323   3.075   7.311
 5683SOL    HW217610   3.427   3.076   7.201
 5684SOL     OW17611   2.239   3.602   7.150
 5684SOL    HW117612   2.154   3.643   7.134
 5684SOL    HW217613   2.218   3.518   7.191
 5685SOL     OW17614   3.528   2.743   6.845
 5685SOL    HW117615   3.525   2.657   6.802
 5685SOL    HW217616   3.521   2.805   6.773
 5686SOL     OW17617   3.102   2.189   6.034
 5686SOL    HW117618   3.160   2.112   6.033
 5686SOL    HW217619   3.124   2.235   6.116
 5687SOL     OW17620   3.622   2.227   7.235
 5687SOL    HW117621   3.605   2.240   7.142
 5687SOL    HW217622   3.552   2.168   7.265
 5688SOL     OW17623   3.618   2.791   7.099
 5688SOL    HW117624   3.608   2.885   7.116
 5688SOL    HW217625   3.594   2.781   7.007
 5689SOL     OW17626   2.724   3.229   5.622
 5689SOL    HW117627   2.685   3.257   5.705
 5689SOL    HW217628   2.741   3.311   5.575
 5690SOL     OW17629   2.522   3.652   6.528
 5690SOL    HW117630   2.501   3.743   6.505
 5690SOL    HW217631   2.617   3.647   6.522
 5691SOL     OW17632   2.727   2.825   6.441
 5691SOL    HW117633   2.778   2.754   6.480
 5691SOL    HW217634   2.695   2.875   6.516
 5692SOL     OW17635   2.940   2.850   5.674
 5692SOL    HW117636   2.920   2.901   5.596
 5692SOL    HW217637   3.015   2.796   5.649
 5693SOL     OW17638   3.713   3.417   6.427
 5693SOL    HW117639   3.635   3.398   6.377
 5693SOL    HW217640   3.716   3.350   6.495
 5694SOL     OW17641   2.088   3.165   7.440
 5694SOL    HW117642   2.031   3.097   7.404
 5694SOL    HW217643   2.056   3.178   7.530
 5695SOL     OW17644   1.948   3.092   6.249
 5695SOL    HW117645   1.957   3.046   6.333
 5695SOL    HW217646   2.016   3.054   6.193
 5696SOL     OW17647   2.544   3.265   7.214
 5696SOL    HW117648   2.464   3.222   7.247
 5696SOL    HW217649   2.541   3.353   7.251
 5697SOL     OW17650   3.679   2.042   6.825
 5697SOL    HW117651   3.667   1.947   6.829
 5697SOL    HW217652   3.691   2.061   6.732
 5698SOL     OW17653   3.559   3.352   6.683
 5698SOL    HW117654   3.480   3.327   6.635
 5698SOL    HW217655   3.572   3.282   6.747
 5699SOL     OW17656   2.689   3.441   6.263
 5699SOL    HW117657   2.673   3.489   6.182
 5699SOL    HW217658   2.614   3.381   6.270
 5700SOL     OW17659   3.295   2.088   6.704
 5700SOL    HW117660   3.312   2.005   6.749
 5700SOL    HW217661   3.244   2.139   6.766
 5701SOL     OW17662   2.877   1.881   6.714
 5701SOL    HW117663   2.822   1.815   6.673
 5701SOL    HW217664   2.962   1.838   6.724
 5702SOL     OW17665   2.634   3.194   5.903
 5702SOL    HW117666   2.604   3.103   5.909
 5702SOL    HW217667   2.717   3.194   5.952
 5703SOL     OW17668   2.482   3.416   6.871
 5703SOL    HW117669   2.484   3.498   6.920
 5703SOL    HW217670   2.570   3.409   6.833
 5704SOL     OW17671   3.215   1.916   5.752
 5704SOL    HW117672   3.244   1.849   5.690
 5704SOL    HW217673   3.127   1.888   5.778
 5705SOL     OW17674   3.158   2.322   6.267
 5705SOL    HW117675   3.105   2.401   6.272
 5705SOL    HW217676   3.154   2.284   6.354
 5706SOL     OW17677   3.444   2.061   6.463
 5706SOL    HW117678   3.388   2.084   6.537
 5706SOL    HW217679   3.445   2.140   6.409
 5707SOL     OW17680   1.900   2.924   5.894
 5707SOL    HW117681   1.995   2.917   5.886
 5707SOL    HW217682   1.868   2.834   5.890
 5708SOL     OW17683   2.747   3.519   5.930
 5708SOL    HW117684   2.676   3.500   5.868
 5708SOL    HW217685   2.716   3.595   5.979
 5709SOL     OW17686   2.429   3.152   8.624
 5709SOL    HW117687   2.341   3.157   8.585
 5709SOL    HW217688   2.445   3.240   8.658
 5710SOL     OW17689   3.424   3.374   8.156
 5710SOL    HW117690   3.382   3.352   8.239
 5710SOL    HW217691   3.352   3.377   8.093
 5711SOL     OW17692   2.990   2.560   8.148
 5711SOL    HW117693   3.040   2.640   8.132
 5711SOL    HW217694   2.946   2.576   8.232
 5712SOL     OW17695   3.628   2.469   7.678
 5712SOL    HW117696   3.609   2.461   7.584
 5712SOL    HW217697   3.593   2.388   7.716
 5713SOL     OW17698   2.614   3.003   8.489
 5713SOL    HW117699   2.546   3.038   8.546
 5713SOL    HW217700   2.652   3.079   8.446
 5714SOL     OW17701   2.730   2.633   9.270
 5714SOL    HW117702   2.717   2.704   9.333
 5714SOL    HW217703   2.753   2.678   9.189
 5715SOL     OW17704   2.546   2.859   8.097
 5715SOL    HW117705   2.613   2.852   8.165
 5715SOL    HW217706   2.479   2.915   8.135
 5716SOL     OW17707   2.573   3.013   9.261
 5716SOL    HW117708   2.621   3.091   9.289
 5716SOL    HW217709   2.491   3.046   9.225
 5717SOL     OW17710   2.194   3.285   8.515
 5717SOL    HW117711   2.119   3.249   8.466
 5717SOL    HW217712   2.241   3.337   8.451
 5718SOL     OW17713   3.321   3.363   8.803
 5718SOL    HW117714   3.375   3.442   8.813
 5718SOL    HW217715   3.258   3.367   8.875
 5719SOL     OW17716   2.294   2.257   8.948
 5719SOL    HW117717   2.386   2.232   8.946
 5719SOL    HW217718   2.247   2.173   8.955
 5720SOL     OW17719   3.473   2.308   8.191
 5720SOL    HW117720   3.400   2.330   8.134
 5720SOL    HW217721   3.489   2.388   8.241
 5721SOL     OW17722   2.084   3.577   7.927
 5721SOL    HW117723   2.114   3.638   7.994
 5721SOL    HW217724   2.155   3.574   7.863
 5722SOL     OW17725   2.998   3.204   9.141
 5722SOL    HW117726   3.040   3.198   9.227
 5722SOL    HW217727   2.946   3.124   9.134
 5723SOL     OW17728   2.090   3.303   7.984
 5723SOL    HW117729   2.075   3.398   7.987
 5723SOL    HW217730   2.030   3.267   8.049
 5724SOL     OW17731   2.122   2.953   8.338
 5724SOL    HW117732   2.116   2.866   8.378
 5724SOL    HW217733   2.064   3.008   8.392
 5725SOL     OW17734   2.472   3.648   8.877
 5725SOL    HW117735   2.390   3.633   8.924
 5725SOL    HW217736   2.498   3.737   8.901
 5726SOL     OW17737   2.449   2.846   7.588
 5726SOL    HW117738   2.490   2.891   7.514
 5726SOL    HW217739   2.494   2.880   7.665
 5727SOL     OW17740   3.457   1.987   8.914
 5727SOL    HW117741   3.468   2.068   8.866
 5727SOL    HW217742   3.443   2.015   9.005
 5728SOL     OW17743   3.700   3.614   7.789
 5728SOL    HW117744   3.770   3.589   7.849
 5728SOL    HW217745   3.720   3.705   7.765
 5729SOL     OW17746   1.892   3.455   7.570
 5729SOL    HW117747   1.875   3.363   7.592
 5729SOL    HW217748   1.871   3.503   7.651
 5730SOL     OW17749   3.550   2.782   8.093
 5730SOL    HW117750   3.633   2.737   8.074
 5730SOL    HW217751   3.530   2.830   8.013
 5731SOL     OW17752   3.503   2.967   7.880
 5731SOL    HW117753   3.588   2.973   7.835
 5731SOL    HW217754   3.509   3.030   7.952
 5732SOL     OW17755   1.982   2.604   9.032
 5732SOL    HW117756   2.074   2.627   9.045
 5732SOL    HW217757   1.934   2.686   9.042
 5733SOL     OW17758   2.477   3.250   8.183
 5733SOL    HW117759   2.431   3.166   8.192
 5733SOL    HW217760   2.459   3.276   8.092
 5734SOL     OW17761   3.150   3.099   8.871
 5734SOL    HW117762   3.182   3.033   8.811
 5734SOL    HW217763   3.208   3.094   8.947
 5735SOL     OW17764   2.673   1.842   7.986
 5735SOL    HW117765   2.709   1.918   7.941
 5735SOL    HW217766   2.580   1.863   7.997
 5736SOL     OW17767   2.053   2.829   8.720
 5736SOL    HW117768   2.137   2.785   8.705
 5736SOL    HW217769   1.988   2.773   8.677
 5737SOL     OW17770   3.391   2.857   7.647
 5737SOL    HW117771   3.321   2.800   7.680
 5737SOL    HW217772   3.432   2.892   7.727
 5738SOL     OW17773   3.077   3.665   9.074
 5738SOL    HW117774   3.056   3.725   9.003
 5738SOL    HW217775   3.079   3.579   9.033
 5739SOL     OW17776   2.261   2.159   9.262
 5739SOL    HW117777   2.311   2.231   9.300
 5739SOL    HW217778   2.169   2.184   9.274
 5740SOL     OW17779   3.327   3.282   8.397
 5740SOL    HW117780   3.260   3.297   8.465
 5740SOL    HW217781   3.316   3.191   8.372
 5741SOL     OW17782   3.511   3.605   8.028
 5741SOL    HW117783   3.502   3.571   7.939
 5741SOL    HW217784   3.493   3.529   8.084
 5742SOL     OW17785   2.467   2.599   7.731
 5742SOL    HW117786   2.491   2.661   7.662
 5742SOL    HW217787   2.400   2.645   7.782
 5743SOL     OW17788   3.139   2.218   8.383
 5743SOL    HW117789   3.050   2.182   8.392
 5743SOL    HW217790   3.192   2.165   8.442
 5744SOL     OW17791   3.437   3.538   7.756
 5744SOL    HW117792   3.529   3.563   7.752
 5744SOL    HW217793   3.413   3.517   7.666
 5745SOL     OW17794   2.655   2.481   8.899
 5745SOL    HW117795   2.630   2.457   8.988
 5745SOL    HW217796   2.615   2.415   8.843
 5746SOL     OW17797   3.255   2.336   9.126
 5746SOL    HW117798   3.258   2.380   9.211
 5746SOL    HW217799   3.315   2.261   9.136
 5747SOL     OW17800   2.815   2.749   9.031
 5747SOL    HW117801   2.870   2.679   8.995
 5747SOL    HW217802   2.768   2.783   8.956
 5748SOL     OW17803   2.855   2.275   8.685
 5748SOL    HW117804   2.769   2.296   8.723
 5748SOL    HW217805   2.834   2.228   8.604
 5749SOL     OW17806   2.914   2.563   7.872
 5749SOL    HW117807   2.929   2.554   7.966
 5749SOL    HW217808   2.833   2.514   7.856
 5750SOL     OW17809   1.946   2.697   8.210
 5750SOL    HW117810   2.026   2.678   8.259
 5750SOL    HW217811   1.907   2.771   8.257
 5751SOL     OW17812   1.985   3.704   9.024
 5751SOL    HW117813   1.986   3.685   9.118
 5751SOL    HW217814   1.892   3.707   9.001
 5752SOL     OW17815   2.793   2.232   7.611
 5752SOL    HW117816   2.832   2.291   7.547
 5752SOL    HW217817   2.814   2.144   7.579
 5753SOL     OW17818   3.572   2.437   9.276
 5753SOL    HW117819   3.534   2.510   9.228
 5753SOL    HW217820   3.596   2.374   9.209
 5754SOL     OW17821   3.238   3.004   7.989
 5754SOL    HW117822   3.317   2.990   7.938
 5754SOL    HW217823   3.186   3.065   7.937
 5755SOL     OW17824   2.408   2.048   8.336
 5755SOL    HW117825   2.422   2.069   8.428
 5755SOL    HW217826   2.422   2.131   8.290
 5756SOL     OW17827   2.867   3.307   7.919
 5756SOL    HW117828   2.829   3.380   7.871
 5756SOL    HW217829   2.848   3.327   8.011
 5757SOL     OW17830   2.213   3.672   8.288
 5757SOL    HW117831   2.263   3.593   8.306
 5757SOL    HW217832   2.272   3.744   8.309
 5758SOL     OW17833   3.667   2.923   8.315
 5758SOL    HW117834   3.613   2.898   8.239
 5758SOL    HW217835   3.605   2.927   8.388
 5759SOL     OW17836   3.089   3.399   8.960
 5759SOL    HW117837   3.076   3.327   9.021
 5759SOL    HW217838   3.023   3.386   8.892
 5760SOL     OW17839   2.199   2.816   7.701
 5760SOL    HW117840   2.281   2.839   7.656
 5760SOL    HW217841   2.162   2.745   7.648
 5761SOL     OW17842   3.339   2.608   8.176
 5761SOL    HW117843   3.334   2.564   8.261
 5761SOL    HW217844   3.419   2.661   8.181
 5762SOL     OW17845   2.329   3.127   9.185
 5762SOL    HW117846   2.302   3.132   9.093
 5762SOL    HW217847   2.247   3.125   9.234
 5763SOL     OW17848   2.975   3.643   7.671
 5763SOL    HW117849   2.912   3.596   7.725
 5763SOL    HW217850   3.006   3.578   7.607
 5764SOL     OW17851   3.487   3.246   7.537
 5764SOL    HW117852   3.444   3.330   7.519
 5764SOL    HW217853   3.421   3.180   7.517
 5765SOL     OW17854   2.330   3.596   7.773
 5765SOL    HW117855   2.367   3.662   7.832
 5765SOL    HW217856   2.403   3.572   7.716
 5766SOL     OW17857   3.263   1.966   7.884
 5766SOL    HW117858   3.253   1.944   7.792
 5766SOL    HW217859   3.358   1.975   7.897
 5767SOL     OW17860   2.121   3.654   8.673
 5767SOL    HW117861   2.169   3.585   8.720
 5767SOL    HW217862   2.107   3.618   8.586
 5768SOL     OW17863   2.800   3.562   8.348
 5768SOL    HW117864   2.878   3.510   8.369
 5768SOL    HW217865   2.756   3.513   8.279
 5769SOL     OW17866   3.397   2.087   9.173
 5769SOL    HW117867   3.406   2.108   9.266
 5769SOL    HW217868   3.328   2.020   9.171
 5770SOL     OW17869   2.627   2.141   9.204
 5770SOL    HW117870   2.705   2.084   9.203
 5770SOL    HW217871   2.578   2.111   9.281
 5771SOL     OW17872   2.738   3.382   8.643
 5771SOL    HW117873   2.722   3.347   8.555
 5771SOL    HW217874   2.808   3.328   8.678
 5772SOL     OW17875   3.202   2.451   8.881
 5772SOL    HW117876   3.233   2.420   8.966
 5772SOL    HW217877   3.239   2.539   8.872
 5773SOL     OW17878   2.678   3.255   8.389
 5773SOL    HW117879   2.763   3.244   8.345
 5773SOL    HW217880   2.614   3.258   8.318
 5774SOL     OW17881   2.787   2.370   8.350
 5774SOL    HW117882   2.763   2.362   8.257
 5774SOL    HW217883   2.821   2.284   8.373
 5775SOL     OW17884   2.407   1.923   7.992
 5775SOL    HW117885   2.326   1.904   8.040
 5775SOL    HW217886   2.381   1.987   7.926
 5776SOL     OW17887   3.291   3.061   7.489
 5776SOL    HW117888   3.322   2.985   7.538
 5776SOL    HW217889   3.204   3.080   7.526
 5777SOL     OW17890   2.943   2.544   8.907
 5777SOL    HW117891   2.876   2.476   8.913
 5777SOL    HW217892   3.026   2.496   8.901
 5778SOL     OW17893   3.083   3.432   8.242
 5778SOL    HW117894   3.100   3.500   8.176
 5778SOL    HW217895   3.153   3.444   8.306
 5779SOL     OW17896   2.331   3.012   8.178
 5779SOL    HW117897   2.263   2.994   8.243
 5779SOL    HW217898   2.289   2.997   8.094
 5780SOL     OW17899   3.129   3.658   8.055
 5780SOL    HW117900   3.175   3.722   8.001
 5780SOL    HW217901   3.057   3.707   8.096
 5781SOL     OW17902   2.902   2.421   7.450
 5781SOL    HW117903   2.844   2.497   7.438
 5781SOL    HW217904   2.957   2.445   7.524
 5782SOL     OW17905   1.940   2.422   8.834
 5782SOL    HW117906   2.033   2.419   8.813
 5782SOL    HW217907   1.933   2.487   8.904
 5783SOL     OW17908   2.459   2.085   8.602
 5783SOL    HW117909   2.502   2.007   8.637
 5783SOL    HW217910   2.375   2.089   8.647
 5784SOL     OW17911   2.724   2.322   8.083
 5784SOL    HW117912   2.684   2.378   8.016
 5784SOL    HW217913   2.782   2.264   8.033
 5785SOL     OW17914   2.866   1.914   8.200
 5785SOL    HW117915   2.810   1.892   8.125
 5785SOL    HW217916   2.856   1.841   8.260
 5786SOL     OW17917   3.300   3.025   8.305
 5786SOL    HW117918   3.231   2.959   8.303
 5786SOL    HW217919   3.326   3.034   8.213
 5787SOL     OW17920   3.327   2.470   8.424
 5787SOL    HW117921   3.277   2.388   8.426
 5787SOL    HW217922   3.387   2.463   8.498
 5788SOL     OW17923   3.723   2.679   7.823
 5788SOL    HW117924   3.767   2.623   7.887
 5788SOL    HW217925   3.686   2.618   7.760
 5789SOL     OW17926   2.352   3.280   7.604
 5789SOL    HW117927   2.276   3.251   7.656
 5789SOL    HW217928   2.338   3.240   7.518
 5790SOL     OW17929   3.528   3.127   8.093
 5790SOL    HW117930   3.624   3.130   8.102
 5790SOL    HW217931   3.500   3.216   8.114
 5791SOL     OW17932   3.258   2.434   7.519
 5791SOL    HW117933   3.194   2.416   7.588
 5791SOL    HW217934   3.340   2.398   7.552
 5792SOL     OW17935   3.614   3.097   9.016
 5792SOL    HW117936   3.701   3.061   8.999
 5792SOL    HW217937   3.630   3.186   9.046
 5793SOL     OW17938   2.920   3.214   8.780
 5793SOL    HW117939   2.845   3.184   8.832
 5793SOL    HW217940   2.996   3.174   8.822
 5794SOL     OW17941   3.469   3.491   9.104
 5794SOL    HW117942   3.460   3.524   9.014
 5794SOL    HW217943   3.550   3.440   9.103
 5795SOL     OW17944   2.991   3.066   8.552
 5795SOL    HW117945   2.933   3.105   8.618
 5795SOL    HW217946   2.960   3.100   8.468
 5796SOL     OW17947   3.492   2.959   8.523
 5796SOL    HW117948   3.484   3.020   8.596
 5796SOL    HW217949   3.414   2.975   8.470
 5797SOL     OW17950   2.780   1.959   8.842
 5797SOL    HW117951   2.805   1.939   8.752
 5797SOL    HW217952   2.859   1.998   8.880
 5798SOL     OW17953   2.846   2.977   9.171
 5798SOL    HW117954   2.754   2.993   9.193
 5798SOL    HW217955   2.844   2.899   9.115
 5799SOL     OW17956   2.572   2.923   7.823
 5799SOL    HW117957   2.560   2.905   7.916
 5799SOL    HW217958   2.648   2.871   7.798
 5800SOL     OW17959   2.280   2.674   8.698
 5800SOL    HW117960   2.348   2.687   8.765
 5800SOL    HW217961   2.246   2.586   8.715
 5801SOL     OW17962   3.127   2.238   8.725
 5801SOL    HW117963   3.160   2.316   8.771
 5801SOL    HW217964   3.037   2.261   8.702
 5802SOL     OW17965   1.933   3.435   8.801
 5802SOL    HW117966   1.905   3.510   8.749
 5802SOL    HW217967   2.029   3.438   8.797
 5803SOL     OW17968   2.208   2.973   7.934
 5803SOL    HW117969   2.215   3.054   7.884
 5803SOL    HW217970   2.211   2.904   7.868
 5804SOL     OW17971   2.409   2.399   8.309
 5804SOL    HW117972   2.427   2.458   8.236
 5804SOL    HW217973   2.474   2.422   8.375
 5805SOL     OW17974   3.110   3.211   7.837
 5805SOL    HW117975   3.166   3.282   7.868
 5805SOL    HW217976   3.023   3.232   7.871
 5806SOL     OW17977   3.145   3.321   8.596
 5806SOL    HW117978   3.201   3.325   8.673
 5806SOL    HW217979   3.089   3.244   8.610
 5807SOL     OW17980   3.443   2.483   7.931
 5807SOL    HW117981   3.394   2.538   7.992
 5807SOL    HW217982   3.483   2.545   7.870
 5808SOL     OW17983   2.208   3.391   8.761
 5808SOL    HW117984   2.196   3.347   8.677
 5808SOL    HW217985   2.302   3.402   8.769
 5809SOL     OW17986   2.276   2.609   9.050
 5809SOL    HW117987   2.340   2.651   8.993
 5809SOL    HW217988   2.314   2.524   9.070
 5810SOL     OW17989   3.465   2.640   9.130
 5810SOL    HW117990   3.379   2.683   9.124
 5810SOL    HW217991   3.517   2.683   9.062
 5811SOL     OW17992   2.857   1.987   9.200
 5811SOL    HW117993   2.915   2.059   9.176
 5811SOL    HW217994   2.905   1.908   9.176
 5812SOL     OW17995   2.371   1.906   9.200
 5812SOL    HW117996   2.315   1.856   9.141
 5812SOL    HW217997   2.327   1.991   9.209
 5813SOL     OW17998   2.442   2.736   8.478
 5813SOL    HW117999   2.477   2.825   8.479
 5813SOL    HW218000   2.389   2.730   8.557
 5814SOL     OW18001   3.218   2.721   8.476
 5814SOL    HW118002   3.136   2.710   8.429
 5814SOL    HW218003   3.261   2.636   8.470
 5815SOL     OW18004   3.070   2.396   7.712
 5815SOL    HW118005   3.076   2.315   7.764
 5815SOL    HW218006   3.022   2.457   7.769
 5816SOL     OW18007   2.230   2.060   8.732
 5816SOL    HW118008   2.146   2.081   8.773
 5816SOL    HW218009   2.225   1.966   8.712
 5817SOL     OW18010   1.909   3.173   8.723
 5817SOL    HW118011   1.941   3.118   8.795
 5817SOL    HW218012   1.915   3.262   8.757
 5818SOL     OW18013   2.582   2.490   8.502
 5818SOL    HW118014   2.660   2.475   8.449
 5818SOL    HW218015   2.558   2.581   8.484
 5819SOL     OW18016   3.593   2.821   9.307
 5819SOL    HW118017   3.551   2.759   9.248
 5819SOL    HW218018   3.530   2.834   9.378
 5820SOL     OW18019   3.482   2.237   7.814
 5820SOL    HW118020   3.508   2.173   7.879
 5820SOL    HW218021   3.457   2.315   7.865
 5821SOL     OW18022   2.888   2.620   8.408
 5821SOL    HW118023   2.885   2.638   8.502
 5821SOL    HW218024   2.863   2.528   8.400
 5822SOL     OW18025   2.847   3.430   9.167
 5822SOL    HW118026   2.829   3.471   9.083
 5822SOL    HW218027   2.889   3.347   9.145
 5823SOL     OW18028   3.706   3.363   9.047
 5823SOL    HW118029   3.729   3.392   8.958
 5823SOL    HW218030   3.786   3.374   9.098
 5824SOL     OW18031   2.214   2.778   9.259
 5824SOL    HW118032   2.297   2.797   9.303
 5824SOL    HW218033   2.238   2.717   9.189
 5825SOL     OW18034   3.393   2.134   7.576
 5825SOL    HW118035   3.326   2.071   7.601
 5825SOL    HW218036   3.424   2.170   7.658
 5826SOL     OW18037   3.153   2.688   7.480
 5826SOL    HW118038   3.195   2.602   7.483
 5826SOL    HW218039   3.184   2.727   7.398
 5827SOL     OW18040   2.928   3.198   8.302
 5827SOL    HW118041   2.932   3.126   8.240
 5827SOL    HW218042   2.989   3.263   8.267
 5828SOL     OW18043   2.170   2.670   8.390
 5828SOL    HW118044   2.263   2.694   8.390
 5828SOL    HW218045   2.168   2.584   8.431
 5829SOL     OW18046   2.185   2.365   8.457
 5829SOL    HW118047   2.153   2.283   8.421
 5829SOL    HW218048   2.265   2.384   8.407
 5830SOL     OW18049   2.996   2.238   9.130
 5830SOL    HW118050   2.948   2.292   9.193
 5830SOL    HW218051   3.083   2.276   9.127
 5831SOL     OW18052   3.022   2.064   8.918
 5831SOL    HW118053   3.012   2.126   8.990
 5831SOL    HW218054   3.064   2.115   8.848
 5832SOL     OW18055   1.868   3.183   7.640
 5832SOL    HW118056   1.781   3.199   7.605
 5832SOL    HW218057   1.864   3.094   7.676
 5833SOL     OW18058   1.958   3.642   8.385
 5833SOL    HW118059   1.927   3.563   8.341
 5833SOL    HW218060   2.043   3.660   8.346
 5834SOL     OW18061   2.357   3.437   8.354
 5834SOL    HW118062   2.424   3.501   8.378
 5834SOL    HW218063   2.402   3.375   8.297
 5835SOL     OW18064   2.842   2.652   8.674
 5835SOL    HW118065   2.902   2.631   8.746
 5835SOL    HW218066   2.758   2.617   8.702
 5836SOL     OW18067   1.903   2.395   8.565
 5836SOL    HW118068   1.988   2.400   8.521
 5836SOL    HW218069   1.923   2.410   8.658
 5837SOL     OW18070   2.071   2.382   9.179
 5837SOL    HW118071   2.125   2.353   9.105
 5837SOL    HW218072   2.008   2.442   9.140
 5838SOL     OW18073   3.240   2.800   9.106
 5838SOL    HW118074   3.261   2.893   9.104
 5838SOL    HW218075   3.237   2.774   9.014
 5839SOL     OW18076   2.684   2.428   7.809
 5839SOL    HW118077   2.698   2.358   7.744
 5839SOL    HW218078   2.607   2.474   7.777
 5840SOL     OW18079   3.503   2.464   8.633
 5840SOL    HW118080   3.492   2.403   8.706
 5840SOL    HW218081   3.589   2.442   8.597
 5841SOL     OW18082   2.106   3.412   9.174
 5841SOL    HW118083   2.082   3.478   9.239
 5841SOL    HW218084   2.108   3.329   9.223
 5842SOL     OW18085   2.560   2.317   8.710
 5842SOL    HW118086   2.522   2.236   8.675
 5842SOL    HW218087   2.558   2.378   8.637
 5843SOL     OW18088   2.790   3.535   8.916
 5843SOL    HW118089   2.763   3.498   8.832
 5843SOL    HW218090   2.782   3.629   8.905
 5844SOL     OW18091   2.007   3.003   8.921
 5844SOL    HW118092   2.008   2.952   9.002
 5844SOL    HW218093   2.025   2.939   8.852
 5845SOL     OW18094   3.185   2.908   8.671
 5845SOL    HW118095   3.209   2.845   8.603
 5845SOL    HW218096   3.116   2.961   8.631
 5846SOL     OW18097   3.173   2.720   7.755
 5846SOL    HW118098   3.098   2.685   7.804
 5846SOL    HW218099   3.150   2.705   7.663
 5847SOL     OW18100   3.637   3.604   8.601
 5847SOL    HW118101   3.696   3.631   8.530
 5847SOL    HW218102   3.611   3.515   8.579
 5848SOL     OW18103   3.105   3.596   8.559
 5848SOL    HW118104   3.188   3.616   8.515
 5848SOL    HW218105   3.111   3.502   8.578
 5849SOL     OW18106   1.947   3.128   8.460
 5849SOL    HW118107   1.933   3.142   8.553
 5849SOL    HW218108   1.873   3.075   8.431
 5850SOL     OW18109   2.540   3.526   9.178
 5850SOL    HW118110   2.484   3.603   9.182
 5850SOL    HW218111   2.601   3.543   9.106
 5851SOL     OW18112   3.575   2.011   7.961
 5851SOL    HW118113   3.642   1.998   7.895
 5851SOL    HW218114   3.563   1.924   8.000
 5852SOL     OW18115   3.252   3.430   7.934
 5852SOL    HW118116   3.312   3.463   7.867
 5852SOL    HW218117   3.204   3.508   7.964
 5853SOL     OW18118   1.995   3.653   9.287
 5853SOL    HW118119   1.943   3.589   9.336
 5853SOL    HW218120   2.045   3.700   9.354
 5854SOL     OW18121   3.138   2.788   8.119
 5854SOL    HW118122   3.212   2.727   8.128
 5854SOL    HW218123   3.172   2.860   8.066
 5855SOL     OW18124   2.674   3.136   8.877
 5855SOL    HW118125   2.646   3.175   8.960
 5855SOL    HW218126   2.605   3.158   8.815
 5856SOL     OW18127   2.537   3.478   7.605
 5856SOL    HW118128   2.546   3.495   7.511
 5856SOL    HW218129   2.478   3.403   7.611
 5857SOL     OW18130   3.483   3.588   8.838
 5857SOL    HW118131   3.538   3.592   8.759
 5857SOL    HW218132   3.471   3.680   8.863
 5858SOL     OW18133   3.699   2.043   8.416
 5858SOL    HW118134   3.731   1.956   8.390
 5858SOL    HW218135   3.613   2.051   8.374
 5859SOL     OW18136   3.069   3.467   7.483
 5859SOL    HW118137   3.059   3.375   7.507
 5859SOL    HW218138   3.009   3.480   7.410
 5860SOL     OW18139   2.686   2.868   8.820
 5860SOL    HW118140   2.732   2.864   8.736
 5860SOL    HW218141   2.685   2.961   8.843
 5861SOL     OW18142   2.779   2.776   7.739
 5861SOL    HW118143   2.839   2.807   7.672
 5861SOL    HW218144   2.826   2.704   7.782
 5862SOL     OW18145   3.351   3.493   7.490
 5862SOL    HW118146   3.257   3.481   7.474
 5862SOL    HW218147   3.390   3.497   7.403
 5863SOL     OW18148   2.231   3.165   8.939
 5863SOL    HW118149   2.217   3.242   8.885
 5863SOL    HW218150   2.154   3.111   8.924
 5864SOL     OW18151   3.464   3.141   8.726
 5864SOL    HW118152   3.532   3.134   8.792
 5864SOL    HW218153   3.407   3.212   8.758
 5865SOL     OW18154   2.915   2.969   8.155
 5865SOL    HW118155   2.845   2.917   8.194
 5865SOL    HW218156   2.979   2.905   8.125
 5866SOL     OW18157   2.881   2.102   8.413
 5866SOL    HW118158   2.876   2.054   8.331
 5866SOL    HW218159   2.878   2.034   8.481
 5867SOL     OW18160   2.464   3.351   7.928
 5867SOL    HW118161   2.511   3.301   7.861
 5867SOL    HW218162   2.399   3.401   7.880
 5868SOL     OW18163   3.585   2.252   8.827
 5868SOL    HW118164   3.657   2.315   8.823
 5868SOL    HW218165   3.614   2.180   8.771
 5869SOL     OW18166   2.122   3.202   7.741
 5869SOL    HW118167   2.030   3.204   7.714
 5869SOL    HW218168   2.123   3.243   7.827
 5870SOL     OW18169   1.975   2.885   9.168
 5870SOL    HW118170   1.898   2.862   9.220
 5870SOL    HW218171   2.049   2.847   9.215
 5871SOL     OW18172   2.539   2.059   8.947
 5871SOL    HW118173   2.624   2.037   8.909
 5871SOL    HW218174   2.561   2.089   9.036
 5872SOL     OW18175   3.289   2.720   8.848
 5872SOL    HW118176   3.240   2.782   8.793
 5872SOL    HW218177   3.378   2.722   8.811
 5873SOL     OW18178   3.040   3.201   7.565
 5873SOL    HW118179   2.950   3.168   7.567
 5873SOL    HW218180   3.068   3.200   7.657
 5874SOL     OW18181   2.481   2.692   8.880
 5874SOL    HW118182   2.537   2.769   8.866
 5874SOL    HW218183   2.542   2.620   8.890
 5875SOL     OW18184   3.347   3.642   8.430
 5875SOL    HW118185   3.371   3.695   8.353
 5875SOL    HW218186   3.430   3.613   8.467
 5876SOL     OW18187   2.579   2.423   9.150
 5876SOL    HW118188   2.620   2.485   9.210
 5876SOL    HW218189   2.604   2.337   9.185
 5877SOL     OW18190   3.334   3.061   9.079
 5877SOL    HW118191   3.323   3.075   9.173
 5877SOL    HW218192   3.427   3.076   9.063
 5878SOL     OW18193   2.239   3.602   9.012
 5878SOL    HW118194   2.154   3.643   8.997
 5878SOL    HW218195   2.218   3.518   9.054
 5879SOL     OW18196   3.528   2.743   8.707
 5879SOL    HW118197   3.526   2.657   8.663
 5879SOL    HW218198   3.521   2.806   8.635
 5880SOL     OW18199   3.093   2.192   7.901
 5880SOL    HW118200   3.147   2.113   7.897
 5880SOL    HW218201   3.121   2.236   7.982
 5881SOL     OW18202   2.449   2.595   8.117
 5881SOL    HW118203   2.500   2.676   8.110
 5881SOL    HW218204   2.376   2.608   8.056
 5882SOL     OW18205   3.622   2.227   9.098
 5882SOL    HW118206   3.605   2.240   9.004
 5882SOL    HW218207   3.552   2.169   9.127
 5883SOL     OW18208   3.617   2.791   8.961
 5883SOL    HW118209   3.609   2.885   8.978
 5883SOL    HW218210   3.593   2.781   8.869
 5884SOL     OW18211   2.723   3.230   7.484
 5884SOL    HW118212   2.684   3.260   7.566
 5884SOL    HW218213   2.742   3.310   7.435
 5885SOL     OW18214   2.522   3.652   8.389
 5885SOL    HW118215   2.501   3.743   8.367
 5885SOL    HW218216   2.617   3.648   8.384
 5886SOL     OW18217   2.729   2.828   8.303
 5886SOL    HW118218   2.781   2.758   8.342
 5886SOL    HW218219   2.695   2.878   8.378
 5887SOL     OW18220   2.941   2.852   7.537
 5887SOL    HW118221   2.920   2.901   7.457
 5887SOL    HW218222   3.015   2.797   7.512
 5888SOL     OW18223   3.714   3.417   8.289
 5888SOL    HW118224   3.635   3.398   8.238
 5888SOL    HW218225   3.716   3.349   8.357
 5889SOL     OW18226   2.088   3.164   9.304
 5889SOL    HW118227   2.021   3.103   9.273
 5889SOL    HW218228   2.069   3.176   9.397
 5890SOL     OW18229   1.946   3.094   8.114
 5890SOL    HW118230   1.949   3.047   8.197
 5890SOL    HW218231   2.017   3.055   8.062
 5891SOL     OW18232   2.544   3.265   9.077
 5891SOL    HW118233   2.464   3.223   9.108
 5891SOL    HW218234   2.541   3.354   9.114
 5892SOL     OW18235   3.675   2.041   8.687
 5892SOL    HW118236   3.668   1.946   8.690
 5892SOL    HW218237   3.689   2.061   8.594
 5893SOL     OW18238   3.559   3.353   8.546
 5893SOL    HW118239   3.480   3.327   8.498
 5893SOL    HW218240   3.572   3.282   8.609
 5894SOL     OW18241   2.194   2.414   8.738
 5894SOL    HW118242   2.242   2.357   8.799
 5894SOL    HW218243   2.212   2.377   8.652
 5895SOL     OW18244   2.690   3.441   8.125
 5895SOL    HW118245   2.675   3.491   8.045
 5895SOL    HW218246   2.614   3.382   8.130
 5896SOL     OW18247   3.293   2.089   8.566
 5896SOL    HW118248   3.317   2.007   8.609
 5896SOL    HW218249   3.242   2.137   8.631
 5897SOL     OW18250   2.871   1.880   8.588
 5897SOL    HW118251   2.817   1.811   8.548
 5897SOL    HW218252   2.959   1.843   8.591
 5898SOL     OW18253   2.633   3.195   7.767
 5898SOL    HW118254   2.604   3.104   7.772
 5898SOL    HW218255   2.717   3.195   7.813
 5899SOL     OW18256   2.482   3.416   8.733
 5899SOL    HW118257   2.483   3.497   8.783
 5899SOL    HW218258   2.570   3.409   8.695
 5900SOL     OW18259   3.215   1.918   7.616
 5900SOL    HW118260   3.238   1.855   7.547
 5900SOL    HW218261   3.126   1.893   7.641
 5901SOL     OW18262   3.162   2.325   8.132
 5901SOL    HW118263   3.108   2.404   8.138
 5901SOL    HW218264   3.156   2.286   8.220
 5902SOL     OW18265   3.444   2.062   8.325
 5902SOL    HW118266   3.387   2.085   8.398
 5902SOL    HW218267   3.446   2.140   8.270
 5903SOL     OW18268   1.903   2.933   7.749
 5903SOL    HW118269   1.999   2.932   7.746
 5903SOL    HW218270   1.879   2.845   7.775
 5904SOL     OW18271   2.747   3.519   7.792
 5904SOL    HW118272   2.676   3.500   7.730
 5904SOL    HW218273   2.716   3.595   7.841
 5905SOL     OW18274   2.087   2.477   9.436
 5905SOL    HW118275   1.996   2.484   9.465
 5905SOL    HW218276   2.081   2.450   9.345
 5906SOL     OW18277   1.857   2.287   9.933
 5906SOL    HW118278   1.771   2.287   9.976
 5906SOL    HW218279   1.855   2.211   9.875
 5907SOL     OW18280   2.429   3.152  10.486
 5907SOL    HW118281   2.342   3.156  10.447
 5907SOL    HW218282   2.445   3.240  10.520
 5908SOL     OW18283   3.424   3.374  10.018
 5908SOL    HW118284   3.382   3.352  10.101
 5908SOL    HW218285   3.352   3.377   9.955
 5909SOL     OW18286   2.991   2.560  10.010
 5909SOL    HW118287   3.041   2.641   9.995
 5909SOL    HW218288   2.946   2.575  10.092
 5910SOL     OW18289   3.628   2.469   9.540
 5910SOL    HW118290   3.608   2.460   9.446
 5910SOL    HW218291   3.594   2.388   9.579
 5911SOL     OW18292   2.615   3.003  10.352
 5911SOL    HW118293   2.547   3.039  10.409
 5911SOL    HW218294   2.652   3.080  10.308
 5912SOL     OW18295   2.729   2.633  11.132
 5912SOL    HW118296   2.717   2.704  11.195
 5912SOL    HW218297   2.753   2.677  11.050
 5913SOL     OW18298   2.548   2.862   9.956
 5913SOL    HW118299   2.613   2.852  10.026
 5913SOL    HW218300   2.479   2.915   9.996
 5914SOL     OW18301   2.573   3.013  11.123
 5914SOL    HW118302   2.621   3.091  11.151
 5914SOL    HW218303   2.491   3.046  11.087
 5915SOL     OW18304   2.193   3.285  10.377
 5915SOL    HW118305   2.120   3.248  10.328
 5915SOL    HW218306   2.241   3.337  10.313
 5916SOL     OW18307   3.321   3.363  10.665
 5916SOL    HW118308   3.374   3.442  10.676
 5916SOL    HW218309   3.258   3.367  10.737
 5917SOL     OW18310   2.292   2.238  10.781
 5917SOL    HW118311   2.382   2.209  10.797
 5917SOL    HW218312   2.238   2.165  10.810
 5918SOL     OW18313   3.473   2.309  10.053
 5918SOL    HW118314   3.400   2.332   9.995
 5918SOL    HW218315   3.487   2.387  10.106
 5919SOL     OW18316   2.083   3.578   9.789
 5919SOL    HW118317   2.115   3.638   9.856
 5919SOL    HW218318   2.154   3.574   9.725
 5920SOL     OW18319   2.998   3.204  11.003
 5920SOL    HW118320   3.040   3.198  11.090
 5920SOL    HW218321   2.946   3.124  10.996
 5921SOL     OW18322   2.091   3.304   9.845
 5921SOL    HW118323   2.073   3.398   9.850
 5921SOL    HW218324   2.032   3.265   9.910
 5922SOL     OW18325   2.121   2.953  10.201
 5922SOL    HW118326   2.117   2.867  10.242
 5922SOL    HW218327   2.064   3.008  10.255
 5923SOL     OW18328   2.472   3.648  10.739
 5923SOL    HW118329   2.390   3.633  10.786
 5923SOL    HW218330   2.498   3.737  10.763
 5924SOL     OW18331   2.447   2.844   9.445
 5924SOL    HW118332   2.493   2.893   9.376
 5924SOL    HW218333   2.486   2.876   9.527
 5925SOL     OW18334   3.457   1.987  10.777
 5925SOL    HW118335   3.467   2.068  10.728
 5925SOL    HW218336   3.443   2.014  10.867
 5926SOL     OW18337   1.984   2.522   9.870
 5926SOL    HW118338   1.945   2.437   9.888
 5926SOL    HW218339   1.973   2.571   9.952
 5927SOL     OW18340   3.700   3.614   9.651
 5927SOL    HW118341   3.770   3.589   9.711
 5927SOL    HW218342   3.720   3.705   9.627
 5928SOL     OW18343   1.891   3.454   9.432
 5928SOL    HW118344   1.876   3.362   9.454
 5928SOL    HW218345   1.870   3.501   9.513
 5929SOL     OW18346   3.550   2.781   9.954
 5929SOL    HW118347   3.633   2.738   9.936
 5929SOL    HW218348   3.531   2.830   9.875
 5930SOL     OW18349   3.503   2.967   9.741
 5930SOL    HW118350   3.588   2.973   9.697
 5930SOL    HW218351   3.510   3.030   9.813
 5931SOL     OW18352   1.982   2.604  10.895
 5931SOL    HW118353   2.074   2.628  10.906
 5931SOL    HW218354   1.935   2.687  10.904
 5932SOL     OW18355   2.477   3.250  10.045
 5932SOL    HW118356   2.431   3.166  10.054
 5932SOL    HW218357   2.459   3.276   9.954
 5933SOL     OW18358   3.150   3.099  10.733
 5933SOL    HW118359   3.182   3.033  10.673
 5933SOL    HW218360   3.208   3.094  10.809
 5934SOL     OW18361   2.675   1.864   9.819
 5934SOL    HW118362   2.715   1.949   9.798
 5934SOL    HW218363   2.581   1.883   9.826
 5935SOL     OW18364   2.052   2.829  10.582
 5935SOL    HW118365   2.137   2.786  10.567
 5935SOL    HW218366   1.989   2.773  10.537
 5936SOL     OW18367   3.391   2.857   9.510
 5936SOL    HW118368   3.321   2.800   9.543
 5936SOL    HW218369   3.432   2.892   9.588
 5937SOL     OW18370   3.077   3.665  10.936
 5937SOL    HW118371   3.056   3.725  10.865
 5937SOL    HW218372   3.079   3.579  10.895
 5938SOL     OW18373   2.264   2.165  11.116
 5938SOL    HW118374   2.311   2.232  11.164
 5938SOL    HW218375   2.171   2.188  11.127
 5939SOL     OW18376   3.327   3.282  10.260
 5939SOL    HW118377   3.260   3.297  10.327
 5939SOL    HW218378   3.316   3.191  10.234
 5940SOL     OW18379   3.511   3.604   9.890
 5940SOL    HW118380   3.502   3.571   9.801
 5940SOL    HW218381   3.493   3.529   9.946
 5941SOL     OW18382   2.457   2.583   9.577
 5941SOL    HW118383   2.463   2.664   9.527
 5941SOL    HW218384   2.392   2.601   9.645
 5942SOL     OW18385   3.140   2.217  10.243
 5942SOL    HW118386   3.051   2.183  10.252
 5942SOL    HW218387   3.192   2.164  10.303
 5943SOL     OW18388   3.437   3.538   9.618
 5943SOL    HW118389   3.529   3.563   9.614
 5943SOL    HW218390   3.413   3.517   9.527
 5944SOL     OW18391   2.654   2.480  10.760
 5944SOL    HW118392   2.629   2.455  10.849
 5944SOL    HW218393   2.615   2.412  10.704
 5945SOL     OW18394   3.256   2.336  10.988
 5945SOL    HW118395   3.258   2.380  11.073
 5945SOL    HW218396   3.315   2.261  10.998
 5946SOL     OW18397   2.815   2.749  10.893
 5946SOL    HW118398   2.870   2.679  10.857
 5946SOL    HW218399   2.768   2.784  10.818
 5947SOL     OW18400   2.855   2.275  10.547
 5947SOL    HW118401   2.769   2.295  10.584
 5947SOL    HW218402   2.837   2.229  10.466
 5948SOL     OW18403   2.914   2.560   9.736
 5948SOL    HW118404   2.930   2.554   9.830
 5948SOL    HW218405   2.831   2.514   9.722
 5949SOL     OW18406   1.950   2.685  10.088
 5949SOL    HW118407   2.031   2.679  10.138
 5949SOL    HW218408   1.906   2.763  10.122
 5950SOL     OW18409   1.985   3.704  10.886
 5950SOL    HW118410   1.986   3.685  10.980
 5950SOL    HW218411   1.892   3.706  10.863
 5951SOL     OW18412   2.757   2.214   9.508
 5951SOL    HW118413   2.799   2.272   9.445
 5951SOL    HW218414   2.757   2.128   9.465
 5952SOL     OW18415   3.572   2.437  11.138
 5952SOL    HW118416   3.534   2.510  11.090
 5952SOL    HW218417   3.596   2.373  11.070
 5953SOL     OW18418   3.238   3.004   9.851
 5953SOL    HW118419   3.318   2.991   9.799
 5953SOL    HW218420   3.186   3.066   9.800
 5954SOL     OW18421   2.411   2.053  10.201
 5954SOL    HW118422   2.409   2.072  10.295
 5954SOL    HW218423   2.429   2.138  10.161
 5955SOL     OW18424   2.867   3.307   9.781
 5955SOL    HW118425   2.829   3.380   9.733
 5955SOL    HW218426   2.847   3.327   9.873
 5956SOL     OW18427   2.213   3.672  10.150
 5956SOL    HW118428   2.263   3.592  10.168
 5956SOL    HW218429   2.273   3.743  10.172
 5957SOL     OW18430   3.667   2.923  10.177
 5957SOL    HW118431   3.613   2.899  10.101
 5957SOL    HW218432   3.605   2.926  10.250
 5958SOL     OW18433   3.089   3.399  10.822
 5958SOL    HW118434   3.076   3.327  10.883
 5958SOL    HW218435   3.023   3.386  10.754
 5959SOL     OW18436   2.182   2.820   9.562
 5959SOL    HW118437   2.263   2.840   9.516
 5959SOL    HW218438   2.150   2.739   9.522
 5960SOL     OW18439   3.341   2.606  10.037
 5960SOL    HW118440   3.334   2.564  10.122
 5960SOL    HW218441   3.419   2.661  10.043
 5961SOL     OW18442   2.329   3.127  11.047
 5961SOL    HW118443   2.302   3.132  10.955
 5961SOL    HW218444   2.247   3.125  11.096
 5962SOL     OW18445   2.976   3.643   9.533
 5962SOL    HW118446   2.912   3.596   9.587
 5962SOL    HW218447   3.006   3.578   9.469
 5963SOL     OW18448   3.487   3.246   9.399
 5963SOL    HW118449   3.444   3.330   9.381
 5963SOL    HW218450   3.420   3.180   9.379
 5964SOL     OW18451   2.330   3.596   9.635
 5964SOL    HW118452   2.367   3.662   9.694
 5964SOL    HW218453   2.403   3.572   9.578
 5965SOL     OW18454   3.263   1.970   9.744
 5965SOL    HW118455   3.255   1.944   9.652
 5965SOL    HW218456   3.357   1.975   9.760
 5966SOL     OW18457   2.121   3.654  10.535
 5966SOL    HW118458   2.169   3.585  10.582
 5966SOL    HW218459   2.107   3.618  10.448
 5967SOL     OW18460   2.800   3.562  10.210
 5967SOL    HW118461   2.877   3.510  10.232
 5967SOL    HW218462   2.755   3.513  10.141
 5968SOL     OW18463   2.256   2.557   9.785
 5968SOL    HW118464   2.275   2.464   9.797
 5968SOL    HW218465   2.162   2.564   9.803
 5969SOL     OW18466   3.396   2.087  11.035
 5969SOL    HW118467   3.406   2.108  11.128
 5969SOL    HW218468   3.328   2.020  11.032
 5970SOL     OW18469   2.512   1.984   9.421
 5970SOL    HW118470   2.573   1.911   9.432
 5970SOL    HW218471   2.453   1.955   9.351
 5971SOL     OW18472   2.627   2.140  11.066
 5971SOL    HW118473   2.705   2.084  11.064
 5971SOL    HW218474   2.578   2.111  11.142
 5972SOL     OW18475   2.738   3.382  10.505
 5972SOL    HW118476   2.722   3.347  10.417
 5972SOL    HW218477   2.808   3.328  10.540
 5973SOL     OW18478   3.202   2.451  10.743
 5973SOL    HW118479   3.233   2.420  10.828
 5973SOL    HW218480   3.239   2.539  10.735
 5974SOL     OW18481   2.678   3.256  10.251
 5974SOL    HW118482   2.762   3.244  10.207
 5974SOL    HW218483   2.614   3.258  10.180
 5975SOL     OW18484   2.789   2.370  10.213
 5975SOL    HW118485   2.765   2.362  10.120
 5975SOL    HW218486   2.822   2.284  10.237
 5976SOL     OW18487   2.407   1.928   9.814
 5976SOL    HW118488   2.346   1.941   9.887
 5976SOL    HW218489   2.394   2.004   9.758
 5977SOL     OW18490   3.290   3.061   9.351
 5977SOL    HW118491   3.321   2.986   9.401
 5977SOL    HW218492   3.204   3.081   9.388
 5978SOL     OW18493   2.801   2.110   9.769
 5978SOL    HW118494   2.776   2.150   9.686
 5978SOL    HW218495   2.896   2.123   9.774
 5979SOL     OW18496   2.943   2.544  10.769
 5979SOL    HW118497   2.876   2.475  10.774
 5979SOL    HW218498   3.025   2.496  10.763
 5980SOL     OW18499   3.084   3.432  10.104
 5980SOL    HW118500   3.100   3.500  10.038
 5980SOL    HW218501   3.153   3.444  10.169
 5981SOL     OW18502   2.332   3.012  10.042
 5981SOL    HW118503   2.263   2.993  10.106
 5981SOL    HW218504   2.291   2.997   9.957
 5982SOL     OW18505   3.129   3.657   9.917
 5982SOL    HW118506   3.175   3.722   9.863
 5982SOL    HW218507   3.057   3.706   9.957
 5983SOL     OW18508   2.886   2.402   9.333
 5983SOL    HW118509   2.843   2.486   9.314
 5983SOL    HW218510   2.951   2.424   9.400
 5984SOL     OW18511   1.938   2.423  10.696
 5984SOL    HW118512   2.031   2.419  10.675
 5984SOL    HW218513   1.933   2.488  10.766
 5985SOL     OW18514   2.412   2.082  10.479
 5985SOL    HW118515   2.462   2.005  10.506
 5985SOL    HW218516   2.330   2.076  10.527
 5986SOL     OW18517   2.726   2.319   9.950
 5986SOL    HW118518   2.685   2.376   9.884
 5986SOL    HW218519   2.751   2.240   9.901
 5987SOL     OW18520   2.875   1.917  10.062
 5987SOL    HW118521   2.820   1.908   9.984
 5987SOL    HW218522   2.854   1.840  10.115
 5988SOL     OW18523   3.300   3.024  10.167
 5988SOL    HW118524   3.230   2.959  10.166
 5988SOL    HW218525   3.325   3.034  10.075
 5989SOL     OW18526   3.327   2.469  10.285
 5989SOL    HW118527   3.276   2.388  10.288
 5989SOL    HW218528   3.387   2.462  10.360
 5990SOL     OW18529   3.723   2.679   9.685
 5990SOL    HW118530   3.767   2.623   9.749
 5990SOL    HW218531   3.686   2.618   9.621
 5991SOL     OW18532   2.353   3.280   9.465
 5991SOL    HW118533   2.277   3.252   9.517
 5991SOL    HW218534   2.338   3.239   9.379
 5992SOL     OW18535   3.528   3.127   9.955
 5992SOL    HW118536   3.624   3.130   9.964
 5992SOL    HW218537   3.500   3.216   9.976
 5993SOL     OW18538   3.256   2.433   9.382
 5993SOL    HW118539   3.194   2.414   9.452
 5993SOL    HW218540   3.340   2.401   9.414
 5994SOL     OW18541   2.385   2.127   9.627
 5994SOL    HW118542   2.431   2.075   9.561
 5994SOL    HW218543   2.363   2.209   9.583
 5995SOL     OW18544   3.614   3.097  10.878
 5995SOL    HW118545   3.701   3.061  10.861
 5995SOL    HW218546   3.630   3.186  10.908
 5996SOL     OW18547   2.920   3.215  10.643
 5996SOL    HW118548   2.845   3.184  10.694
 5996SOL    HW218549   2.996   3.174  10.684
 5997SOL     OW18550   3.469   3.491  10.966
 5997SOL    HW118551   3.460   3.524  10.876
 5997SOL    HW218552   3.550   3.440  10.965
 5998SOL     OW18553   2.992   3.067  10.414
 5998SOL    HW118554   2.933   3.105  10.479
 5998SOL    HW218555   2.960   3.100  10.330
 5999SOL     OW18556   3.492   2.959  10.385
 5999SOL    HW118557   3.484   3.020  10.458
 5999SOL    HW218558   3.414   2.975  10.332
 6000SOL     OW18559   2.779   1.959  10.705
 6000SOL    HW118560   2.803   1.939  10.614
 6000SOL    HW218561   2.858   1.998  10.742
 6001SOL     OW18562   2.846   2.977  11.033
 6001SOL    HW118563   2.754   2.993  11.055
 6001SOL    HW218564   2.844   2.899  10.977
 6002SOL     OW18565   2.571   2.924   9.681
 6002SOL    HW118566   2.557   2.906   9.774
 6002SOL    HW218567   2.647   2.870   9.658
 6003SOL     OW18568   2.280   2.676  10.561
 6003SOL    HW118569   2.348   2.687  10.627
 6003SOL    HW218570   2.246   2.588  10.577
 6004SOL     OW18571   3.127   2.238  10.587
 6004SOL    HW118572   3.160   2.316  10.633
 6004SOL    HW218573   3.037   2.261  10.564
 6005SOL     OW18574   1.933   3.435  10.663
 6005SOL    HW118575   1.905   3.510  10.611
 6005SOL    HW218576   2.029   3.438  10.659
 6006SOL     OW18577   2.209   2.973   9.800
 6006SOL    HW118578   2.213   3.047   9.739
 6006SOL    HW218579   2.206   2.896   9.744
 6007SOL     OW18580   2.409   2.397  10.172
 6007SOL    HW118581   2.423   2.455  10.097
 6007SOL    HW218582   2.476   2.424  10.235
 6008SOL     OW18583   3.110   3.211   9.699
 6008SOL    HW118584   3.166   3.282   9.730
 6008SOL    HW218585   3.023   3.232   9.733
 6009SOL     OW18586   3.144   3.321  10.457
 6009SOL    HW118587   3.201   3.324  10.535
 6009SOL    HW218588   3.089   3.244  10.471
 6010SOL     OW18589   3.441   2.483   9.791
 6010SOL    HW118590   3.394   2.536   9.855
 6010SOL    HW218591   3.484   2.546   9.733
 6011SOL     OW18592   2.208   3.391  10.623
 6011SOL    HW118593   2.196   3.347  10.539
 6011SOL    HW218594   2.302   3.402  10.631
 6012SOL     OW18595   2.276   2.610  10.912
 6012SOL    HW118596   2.339   2.652  10.854
 6012SOL    HW218597   2.317   2.526  10.936
 6013SOL     OW18598   3.465   2.640  10.992
 6013SOL    HW118599   3.379   2.683  10.986
 6013SOL    HW218600   3.517   2.683  10.924
 6014SOL     OW18601   2.857   1.987  11.062
 6014SOL    HW118602   2.915   2.059  11.038
 6014SOL    HW218603   2.905   1.908  11.038
 6015SOL     OW18604   2.372   1.907  11.061
 6015SOL    HW118605   2.316   1.855  11.004
 6015SOL    HW218606   2.328   1.992  11.068
 6016SOL     OW18607   2.446   2.735  10.342
 6016SOL    HW118608   2.477   2.825  10.340
 6016SOL    HW218609   2.390   2.730  10.419
 6017SOL     OW18610   3.218   2.721  10.338
 6017SOL    HW118611   3.134   2.710  10.292
 6017SOL    HW218612   3.260   2.636  10.332
 6018SOL     OW18613   3.065   2.390   9.575
 6018SOL    HW118614   3.073   2.312   9.630
 6018SOL    HW218615   3.023   2.454   9.632
 6019SOL     OW18616   1.908   3.173  10.586
 6019SOL    HW118617   1.941   3.118  10.657
 6019SOL    HW218618   1.915   3.262  10.619
 6020SOL     OW18619   2.582   2.490  10.365
 6020SOL    HW118620   2.660   2.475  10.311
 6020SOL    HW218621   2.557   2.580  10.347
 6021SOL     OW18622   3.593   2.821  11.169
 6021SOL    HW118623   3.551   2.759  11.110
 6021SOL    HW218624   3.530   2.834  11.240
 6022SOL     OW18625   3.480   2.237   9.676
 6022SOL    HW118626   3.507   2.173   9.741
 6022SOL    HW218627   3.457   2.315   9.727
 6023SOL     OW18628   2.889   2.620  10.270
 6023SOL    HW118629   2.885   2.638  10.364
 6023SOL    HW218630   2.864   2.529  10.261
 6024SOL     OW18631   2.847   3.430  11.029
 6024SOL    HW118632   2.829   3.471  10.945
 6024SOL    HW218633   2.889   3.347  11.007
 6025SOL     OW18634   3.706   3.363  10.909
 6025SOL    HW118635   3.729   3.392  10.820
 6025SOL    HW218636   3.786   3.374  10.960
 6026SOL     OW18637   2.214   2.778  11.121
 6026SOL    HW118638   2.297   2.798  11.165
 6026SOL    HW218639   2.238   2.717  11.051
 6027SOL     OW18640   3.391   2.135   9.437
 6027SOL    HW118641   3.326   2.070   9.463
 6027SOL    HW218642   3.424   2.170   9.520
 6028SOL     OW18643   3.152   2.687   9.340
 6028SOL    HW118644   3.196   2.602   9.344
 6028SOL    HW218645   3.184   2.727   9.259
 6029SOL     OW18646   2.928   3.198  10.164
 6029SOL    HW118647   2.932   3.126  10.102
 6029SOL    HW218648   2.989   3.263  10.129
 6030SOL     OW18649   2.172   2.673  10.256
 6030SOL    HW118650   2.264   2.695  10.248
 6030SOL    HW218651   2.172   2.585  10.296
 6031SOL     OW18652   2.187   2.365  10.320
 6031SOL    HW118653   2.146   2.292  10.272
 6031SOL    HW218654   2.267   2.382  10.272
 6032SOL     OW18655   2.996   2.238  10.992
 6032SOL    HW118656   2.948   2.292  11.055
 6032SOL    HW218657   3.083   2.276  10.989
 6033SOL     OW18658   3.022   2.064  10.780
 6033SOL    HW118659   3.012   2.126  10.852
 6033SOL    HW218660   3.063   2.115  10.710
 6034SOL     OW18661   1.867   3.182   9.505
 6034SOL    HW118662   1.780   3.197   9.468
 6034SOL    HW218663   1.864   3.092   9.539
 6035SOL     OW18664   1.958   3.643  10.247
 6035SOL    HW118665   1.927   3.564  10.203
 6035SOL    HW218666   2.043   3.661  10.208
 6036SOL     OW18667   2.357   3.437  10.216
 6036SOL    HW118668   2.425   3.500  10.240
 6036SOL    HW218669   2.402   3.374  10.159
 6037SOL     OW18670   2.843   2.652  10.536
 6037SOL    HW118671   2.901   2.631  10.609
 6037SOL    HW218672   2.758   2.617  10.562
 6038SOL     OW18673   1.901   2.396  10.427
 6038SOL    HW118674   1.985   2.401  10.383
 6038SOL    HW218675   1.921   2.410  10.520
 6039SOL     OW18676   2.068   2.382  11.042
 6039SOL    HW118677   2.118   2.351  10.966
 6039SOL    HW218678   2.004   2.443  11.004
 6040SOL     OW18679   3.240   2.800  10.968
 6040SOL    HW118680   3.261   2.893  10.966
 6040SOL    HW218681   3.237   2.774  10.876
 6041SOL     OW18682   2.678   2.432   9.674
 6041SOL    HW118683   2.685   2.358   9.614
 6041SOL    HW218684   2.605   2.483   9.641
 6042SOL     OW18685   3.503   2.464  10.495
 6042SOL    HW118686   3.492   2.403  10.568
 6042SOL    HW218687   3.589   2.442  10.459
 6043SOL     OW18688   2.105   3.412  11.036
 6043SOL    HW118689   2.082   3.478  11.101
 6043SOL    HW218690   2.108   3.329  11.085
 6044SOL     OW18691   2.562   2.311  10.569
 6044SOL    HW118692   2.509   2.237  10.538
 6044SOL    HW218693   2.559   2.374  10.497
 6045SOL     OW18694   2.790   3.535  10.778
 6045SOL    HW118695   2.764   3.498  10.694
 6045SOL    HW218696   2.782   3.629  10.767
 6046SOL     OW18697   2.326   2.356   9.492
 6046SOL    HW118698   2.384   2.428   9.517
 6046SOL    HW218699   2.240   2.396   9.483
 6047SOL     OW18700   2.007   3.003  10.783
 6047SOL    HW118701   2.009   2.952  10.864
 6047SOL    HW218702   2.025   2.939  10.714
 6048SOL     OW18703   3.185   2.908  10.533
 6048SOL    HW118704   3.209   2.845  10.465
 6048SOL    HW218705   3.117   2.961  10.493
 6049SOL     OW18706   3.174   2.718   9.616
 6049SOL    HW118707   3.098   2.688   9.666
 6049SOL    HW218708   3.149   2.704   9.524
 6050SOL     OW18709   3.637   3.604  10.463
 6050SOL    HW118710   3.695   3.630  10.392
 6050SOL    HW218711   3.611   3.515  10.441
 6051SOL     OW18712   3.105   3.596  10.421
 6051SOL    HW118713   3.188   3.616  10.377
 6051SOL    HW218714   3.111   3.502  10.440
 6052SOL     OW18715   1.946   3.129  10.322
 6052SOL    HW118716   1.932   3.142  10.415
 6052SOL    HW218717   1.873   3.074  10.294
 6053SOL     OW18718   2.540   3.526  11.040
 6053SOL    HW118719   2.484   3.603  11.044
 6053SOL    HW218720   2.601   3.543  10.968
 6054SOL     OW18721   3.573   2.010   9.822
 6054SOL    HW118722   3.642   1.998   9.756
 6054SOL    HW218723   3.563   1.924   9.862
 6055SOL     OW18724   3.252   3.430   9.796
 6055SOL    HW118725   3.312   3.463   9.729
 6055SOL    HW218726   3.204   3.508   9.826
 6056SOL     OW18727   1.995   3.653  11.149
 6056SOL    HW118728   1.943   3.589  11.198
 6056SOL    HW218729   2.045   3.700  11.216
 6057SOL     OW18730   3.139   2.788   9.981
 6057SOL    HW118731   3.213   2.727   9.989
 6057SOL    HW218732   3.173   2.860   9.928
 6058SOL     OW18733   2.674   3.136  10.739
 6058SOL    HW118734   2.646   3.175  10.821
 6058SOL    HW218735   2.605   3.158  10.677
 6059SOL     OW18736   2.537   3.479   9.467
 6059SOL    HW118737   2.545   3.496   9.373
 6059SOL    HW218738   2.479   3.403   9.473
 6060SOL     OW18739   3.483   3.588  10.700
 6060SOL    HW118740   3.538   3.592  10.621
 6060SOL    HW218741   3.471   3.680  10.725
 6061SOL     OW18742   3.700   2.043  10.278
 6061SOL    HW118743   3.730   1.956  10.252
 6061SOL    HW218744   3.613   2.051  10.237
 6062SOL     OW18745   3.069   3.467   9.345
 6062SOL    HW118746   3.059   3.375   9.369
 6062SOL    HW218747   3.008   3.480   9.273
 6063SOL     OW18748   2.686   2.868  10.682
 6063SOL    HW118749   2.730   2.864  10.598
 6063SOL    HW218750   2.685   2.961  10.705
 6064SOL     OW18751   2.778   2.772   9.600
 6064SOL    HW118752   2.839   2.805   9.534
 6064SOL    HW218753   2.827   2.704   9.646
 6065SOL     OW18754   3.351   3.492   9.352
 6065SOL    HW118755   3.257   3.481   9.336
 6065SOL    HW218756   3.390   3.497   9.264
 6066SOL     OW18757   2.231   3.165  10.801
 6066SOL    HW118758   2.217   3.242  10.746
 6066SOL    HW218759   2.154   3.111  10.786
 6067SOL     OW18760   3.464   3.142  10.588
 6067SOL    HW118761   3.532   3.134  10.655
 6067SOL    HW218762   3.407   3.212  10.620
 6068SOL     OW18763   2.916   2.970  10.017
 6068SOL    HW118764   2.845   2.919  10.056
 6068SOL    HW218765   2.979   2.904   9.987
 6069SOL     OW18766   2.882   2.102  10.277
 6069SOL    HW118767   2.879   2.055  10.194
 6069SOL    HW218768   2.879   2.034  10.343
 6070SOL     OW18769   2.466   3.352   9.790
 6070SOL    HW118770   2.511   3.301   9.722
 6070SOL    HW218771   2.397   3.400   9.743
 6071SOL     OW18772   3.585   2.252  10.689
 6071SOL    HW118773   3.657   2.315  10.685
 6071SOL    HW218774   3.614   2.180  10.633
 6072SOL     OW18775   2.122   3.206   9.599
 6072SOL    HW118776   2.029   3.203   9.576
 6072SOL    HW218777   2.124   3.244   9.687
 6073SOL     OW18778   1.975   2.885  11.029
 6073SOL    HW118779   1.898   2.862  11.082
 6073SOL    HW218780   2.049   2.847  11.077
 6074SOL     OW18781   2.537   2.060  10.809
 6074SOL    HW118782   2.621   2.038  10.769
 6074SOL    HW218783   2.560   2.090  10.897
 6075SOL     OW18784   3.290   2.720  10.710
 6075SOL    HW118785   3.240   2.782  10.655
 6075SOL    HW218786   3.378   2.722  10.673
 6076SOL     OW18787   3.040   3.200   9.427
 6076SOL    HW118788   2.949   3.170   9.429
 6076SOL    HW218789   3.067   3.200   9.519
 6077SOL     OW18790   2.481   2.692  10.743
 6077SOL    HW118791   2.537   2.769  10.728
 6077SOL    HW218792   2.543   2.619  10.751
 6078SOL     OW18793   3.347   3.642  10.292
 6078SOL    HW118794   3.371   3.695  10.216
 6078SOL    HW218795   3.430   3.613  10.329
 6079SOL     OW18796   2.578   2.423  11.012
 6079SOL    HW118797   2.620   2.485  11.072
 6079SOL    HW218798   2.604   2.337  11.046
 6080SOL     OW18799   3.334   3.061  10.941
 6080SOL    HW118800   3.323   3.075  11.035
 6080SOL    HW218801   3.427   3.076  10.925
 6081SOL     OW18802   2.239   3.602  10.874
 6081SOL    HW118803   2.154   3.643  10.859
 6081SOL    HW218804   2.218   3.518  10.915
 6082SOL     OW18805   3.528   2.743  10.569
 6082SOL    HW118806   3.526   2.657  10.525
 6082SOL    HW218807   3.521   2.806  10.497
 6083SOL     OW18808   3.078   2.181   9.768
 6083SOL    HW118809   3.141   2.109   9.759
 6083SOL    HW218810   3.108   2.230   9.844
 6084SOL     OW18811   2.448   2.598   9.982
 6084SOL    HW118812   2.490   2.683   9.967
 6084SOL    HW218813   2.383   2.591   9.913
 6085SOL     OW18814   3.622   2.227  10.960
 6085SOL    HW118815   3.605   2.240  10.866
 6085SOL    HW218816   3.552   2.169  10.989
 6086SOL     OW18817   3.617   2.791  10.823
 6086SOL    HW118818   3.609   2.885  10.840
 6086SOL    HW218819   3.593   2.781  10.731
 6087SOL     OW18820   2.725   3.229   9.347
 6087SOL    HW118821   2.685   3.257   9.429
 6087SOL    HW218822   2.741   3.311   9.299
 6088SOL     OW18823   2.522   3.652  10.251
 6088SOL    HW118824   2.501   3.743  10.229
 6088SOL    HW218825   2.617   3.648  10.246
 6089SOL     OW18826   2.730   2.830  10.165
 6089SOL    HW118827   2.780   2.758  10.204
 6089SOL    HW218828   2.695   2.878  10.240
 6090SOL     OW18829   2.940   2.850   9.399
 6090SOL    HW118830   2.919   2.901   9.321
 6090SOL    HW218831   3.015   2.796   9.372
 6091SOL     OW18832   3.714   3.417  10.151
 6091SOL    HW118833   3.635   3.398  10.101
 6091SOL    HW218834   3.716   3.350  10.219
 6092SOL     OW18835   2.088   3.164  11.166
 6092SOL    HW118836   2.021   3.103  11.136
 6092SOL    HW218837   2.069   3.176  11.259
 6093SOL     OW18838   1.947   3.094   9.975
 6093SOL    HW118839   1.954   3.047  10.058
 6093SOL    HW218840   2.014   3.055   9.920
 6094SOL     OW18841   2.544   3.265  10.939
 6094SOL    HW118842   2.464   3.223  10.970
 6094SOL    HW218843   2.541   3.354  10.976
 6095SOL     OW18844   3.676   2.041  10.549
 6095SOL    HW118845   3.668   1.946  10.553
 6095SOL    HW218846   3.689   2.061  10.456
 6096SOL     OW18847   2.294   2.294   9.834
 6096SOL    HW118848   2.324   2.233   9.767
 6096SOL    HW218849   2.242   2.240   9.894
 6097SOL     OW18850   3.559   3.352  10.407
 6097SOL    HW118851   3.480   3.327  10.360
 6097SOL    HW218852   3.572   3.282  10.470
 6098SOL     OW18853   2.193   2.417  10.598
 6098SOL    HW118854   2.238   2.356  10.657
 6098SOL    HW218855   2.209   2.382  10.511
 6099SOL     OW18856   2.689   3.440   9.987
 6099SOL    HW118857   2.674   3.491   9.907
 6099SOL    HW218858   2.614   3.381   9.993
 6100SOL     OW18859   3.293   2.089  10.427
 6100SOL    HW118860   3.315   2.007  10.471
 6100SOL    HW218861   3.242   2.137  10.492
 6101SOL     OW18862   2.871   1.880  10.451
 6101SOL    HW118863   2.817   1.812  10.410
 6101SOL    HW218864   2.959   1.842  10.453
 6102SOL     OW18865   2.634   3.194   9.627
 6102SOL    HW118866   2.603   3.104   9.633
 6102SOL    HW218867   2.717   3.195   9.675
 6103SOL     OW18868   2.482   3.416  10.595
 6103SOL    HW118869   2.483   3.497  10.645
 6103SOL    HW218870   2.570   3.409  10.557
 6104SOL     OW18871   3.215   1.915   9.476
 6104SOL    HW118872   3.245   1.848   9.414
 6104SOL    HW218873   3.128   1.887   9.501
 6105SOL     OW18874   3.157   2.323   9.990
 6105SOL    HW118875   3.105   2.403   9.997
 6105SOL    HW218876   3.154   2.285  10.078
 6106SOL     OW18877   3.445   2.062  10.187
 6106SOL    HW118878   3.387   2.085  10.260
 6106SOL    HW218879   3.446   2.140  10.132
 6107SOL     OW18880   1.905   2.932   9.617
 6107SOL    HW118881   1.999   2.924   9.599
 6107SOL    HW218882   1.877   2.843   9.639
 6108SOL     OW18883   2.747   3.519   9.654
 6108SOL    HW118884   2.676   3.500   9.592
 6108SOL    HW218885   2.716   3.595   9.703
 6109SOL     OW18886   2.087   2.477  11.299
 6109SOL    HW118887   1.996   2.485  11.328
 6109SOL    HW218888   2.080   2.450  11.207
 6110SOL     OW18889   1.855   2.287  11.795
 6110SOL    HW118890   1.770   2.288  11.840
 6110SOL    HW218891   1.851   2.210  11.739
 6111SOL     OW18892   2.429   3.152  12.348
 6111SOL    HW118893   2.342   3.156  12.309
 6111SOL    HW218894   2.445   3.240  12.382
 6112SOL     OW18895   3.424   3.374  11.880
 6112SOL    HW118896   3.381   3.352  11.963
 6112SOL    HW218897   3.352   3.377  11.817
 6113SOL     OW18898   2.991   2.560  11.872
 6113SOL    HW118899   3.041   2.641  11.857
 6113SOL    HW218900   2.946   2.575  11.954
 6114SOL     OW18901   3.628   2.469  11.402
 6114SOL    HW118902   3.609   2.460  11.308
 6114SOL    HW218903   3.594   2.388  11.441
 6115SOL     OW18904   2.615   3.003  12.214
 6115SOL    HW118905   2.547   3.039  12.271
 6115SOL    HW218906   2.652   3.080  12.170
 6116SOL     OW18907   2.729   2.633  12.994
 6116SOL    HW118908   2.717   2.705  13.056
 6116SOL    HW218909   2.754   2.677  12.912
 6117SOL     OW18910   2.548   2.862  11.818
 6117SOL    HW118911   2.613   2.852  11.888
 6117SOL    HW218912   2.479   2.915  11.858
 6118SOL     OW18913   2.573   3.013  12.985
 6118SOL    HW118914   2.621   3.091  13.013
 6118SOL    HW218915   2.491   3.046  12.949
 6119SOL     OW18916   2.193   3.285  12.239
 6119SOL    HW118917   2.120   3.248  12.190
 6119SOL    HW218918   2.241   3.337  12.175
 6120SOL     OW18919   3.321   3.363  12.527
 6120SOL    HW118920   3.374   3.442  12.538
 6120SOL    HW218921   3.258   3.367  12.598
 6121SOL     OW18922   2.294   2.238  12.642
 6121SOL    HW118923   2.384   2.210  12.657
 6121SOL    HW218924   2.241   2.168  12.679
 6122SOL     OW18925   3.473   2.309  11.915
 6122SOL    HW118926   3.400   2.332  11.857
 6122SOL    HW218927   3.487   2.387  11.968
 6123SOL     OW18928   2.083   3.578  11.651
 6123SOL    HW118929   2.115   3.638  11.718
 6123SOL    HW218930   2.154   3.574  11.587
 6124SOL     OW18931   2.998   3.204  12.865
 6124SOL    HW118932   3.039   3.198  12.951
 6124SOL    HW218933   2.946   3.124  12.858
 6125SOL     OW18934   2.091   3.304  11.707
 6125SOL    HW118935   2.073   3.398  11.712
 6125SOL    HW218936   2.032   3.265  11.772
 6126SOL     OW18937   2.121   2.953  12.063
 6126SOL    HW118938   2.117   2.867  12.104
 6126SOL    HW218939   2.064   3.008  12.117
 6127SOL     OW18940   2.472   3.648  12.601
 6127SOL    HW118941   2.390   3.633  12.648
 6127SOL    HW218942   2.498   3.737  12.625
 6128SOL     OW18943   2.447   2.844  11.307
 6128SOL    HW118944   2.493   2.892  11.239
 6128SOL    HW218945   2.486   2.875  11.389
 6129SOL     OW18946   3.457   1.987  12.639
 6129SOL    HW118947   3.467   2.068  12.590
 6129SOL    HW218948   3.443   2.014  12.729
 6130SOL     OW18949   1.983   2.522  11.732
 6130SOL    HW118950   1.945   2.436  11.750
 6130SOL    HW218951   1.972   2.570  11.814
 6131SOL     OW18952   3.700   3.614  11.513
 6131SOL    HW118953   3.770   3.589  11.573
 6131SOL    HW218954   3.720   3.705  11.489
 6132SOL     OW18955   1.891   3.454  11.294
 6132SOL    HW118956   1.876   3.362  11.316
 6132SOL    HW218957   1.870   3.501  11.375
 6133SOL     OW18958   3.550   2.781  11.816
 6133SOL    HW118959   3.633   2.738  11.798
 6133SOL    HW218960   3.531   2.830  11.737
 6134SOL     OW18961   3.503   2.967  11.603
 6134SOL    HW118962   3.588   2.973  11.559
 6134SOL    HW218963   3.510   3.030  11.675
 6135SOL     OW18964   1.982   2.604  12.756
 6135SOL    HW118965   2.074   2.627  12.768
 6135SOL    HW218966   1.935   2.686  12.767
 6136SOL     OW18967   2.477   3.250  11.907
 6136SOL    HW118968   2.431   3.166  11.916
 6136SOL    HW218969   2.459   3.276  11.816
 6137SOL     OW18970   3.150   3.099  12.595
 6137SOL    HW118971   3.183   3.033  12.535
 6137SOL    HW218972   3.208   3.094  12.671
 6138SOL     OW18973   2.675   1.864  11.681
 6138SOL    HW118974   2.715   1.949  11.661
 6138SOL    HW218975   2.581   1.883  11.688
 6139SOL     OW18976   2.052   2.829  12.444
 6139SOL    HW118977   2.137   2.786  12.429
 6139SOL    HW218978   1.989   2.773  12.400
 6140SOL     OW18979   3.391   2.857  11.372
 6140SOL    HW118980   3.321   2.800  11.405
 6140SOL    HW218981   3.432   2.892  11.450
 6141SOL     OW18982   3.077   3.665  12.798
 6141SOL    HW118983   3.055   3.725  12.727
 6141SOL    HW218984   3.079   3.579  12.757
 6142SOL     OW18985   2.262   2.165  12.975
 6142SOL    HW118986   2.309   2.229  13.028
 6142SOL    HW218987   2.170   2.191  12.983
 6143SOL     OW18988   3.327   3.282  12.122
 6143SOL    HW118989   3.260   3.297  12.189
 6143SOL    HW218990   3.316   3.191  12.096
 6144SOL     OW18991   3.511   3.604  11.752
 6144SOL    HW118992   3.502   3.571  11.663
 6144SOL    HW218993   3.493   3.529  11.808
 6145SOL     OW18994   2.457   2.582  11.439
 6145SOL    HW118995   2.463   2.664  11.389
 6145SOL    HW218996   2.392   2.600  11.507
 6146SOL     OW18997   3.140   2.217  12.105
 6146SOL    HW118998   3.051   2.183  12.114
 6146SOL    HW218999   3.192   2.164  12.165
 6147SOL     OW19000   3.437   3.538  11.480
 6147SOL    HW119001   3.529   3.563  11.476
 6147SOL    HW219002   3.413   3.517  11.389
 6148SOL     OW19003   2.654   2.480  12.621
 6148SOL    HW119004   2.629   2.456  12.711
 6148SOL    HW219005   2.615   2.412  12.566
 6149SOL     OW19006   3.256   2.336  12.850
 6149SOL    HW119007   3.258   2.380  12.935
 6149SOL    HW219008   3.315   2.261  12.860
 6150SOL     OW19009   2.815   2.749  12.755
 6150SOL    HW119010   2.870   2.679  12.719
 6150SOL    HW219011   2.768   2.784  12.680
 6151SOL     OW19012   2.855   2.275  12.410
 6151SOL    HW119013   2.769   2.295  12.446
 6151SOL    HW219014   2.837   2.229  12.328
 6152SOL     OW19015   2.914   2.560  11.598
 6152SOL    HW119016   2.930   2.554  11.692
 6152SOL    HW219017   2.831   2.514  11.584
 6153SOL     OW19018   1.950   2.685  11.950
 6153SOL    HW119019   2.031   2.679  12.000
 6153SOL    HW219020   1.906   2.763  11.984
 6154SOL     OW19021   1.985   3.705  12.748
 6154SOL    HW119022   1.986   3.685  12.842
 6154SOL    HW219023   1.892   3.706  12.725
 6155SOL     OW19024   2.757   2.214  11.369
 6155SOL    HW119025   2.799   2.272  11.307
 6155SOL    HW219026   2.757   2.128  11.326
 6156SOL     OW19027   3.572   2.437  13.001
 6156SOL    HW119028   3.534   2.510  12.953
 6156SOL    HW219029   3.596   2.374  12.933
 6157SOL     OW19030   3.238   3.004  11.713
 6157SOL    HW119031   3.318   2.991  11.661
 6157SOL    HW219032   3.186   3.066  11.662
 6158SOL     OW19033   2.411   2.054  12.064
 6158SOL    HW119034   2.408   2.072  12.157
 6158SOL    HW219035   2.430   2.138  12.023
 6159SOL     OW19036   2.867   3.307  11.643
 6159SOL    HW119037   2.829   3.380  11.595
 6159SOL    HW219038   2.847   3.327  11.735
 6160SOL     OW19039   2.213   3.672  12.012
 6160SOL    HW119040   2.263   3.592  12.030
 6160SOL    HW219041   2.273   3.743  12.034
 6161SOL     OW19042   3.667   2.923  12.039
 6161SOL    HW119043   3.612   2.899  11.963
 6161SOL    HW219044   3.605   2.927  12.112
 6162SOL     OW19045   3.089   3.399  12.684
 6162SOL    HW119046   3.076   3.327  12.745
 6162SOL    HW219047   3.023   3.386  12.616
 6163SOL     OW19048   2.182   2.820  11.424
 6163SOL    HW119049   2.263   2.840  11.378
 6163SOL    HW219050   2.150   2.739  11.384
 6164SOL     OW19051   3.341   2.606  11.898
 6164SOL    HW119052   3.334   2.564  11.984
 6164SOL    HW219053   3.419   2.661  11.905
 6165SOL     OW19054   2.329   3.127  12.909
 6165SOL    HW119055   2.302   3.132  12.817
 6165SOL    HW219056   2.247   3.125  12.958
 6166SOL     OW19057   2.976   3.643  11.395
 6166SOL    HW119058   2.912   3.596  11.449
 6166SOL    HW219059   3.006   3.578  11.331
 6167SOL     OW19060   3.487   3.246  11.261
 6167SOL    HW119061   3.444   3.330  11.243
 6167SOL    HW219062   3.420   3.180  11.241
 6168SOL     OW19063   2.330   3.596  11.497
 6168SOL    HW119064   2.367   3.662  11.556
 6168SOL    HW219065   2.403   3.572  11.440
 6169SOL     OW19066   3.263   1.970  11.606
 6169SOL    HW119067   3.255   1.944  11.514
 6169SOL    HW219068   3.357   1.975  11.622
 6170SOL     OW19069   2.121   3.654  12.397
 6170SOL    HW119070   2.169   3.585  12.444
 6170SOL    HW219071   2.107   3.618  12.310
 6171SOL     OW19072   2.800   3.562  12.072
 6171SOL    HW119073   2.877   3.510  12.094
 6171SOL    HW219074   2.755   3.513  12.003
 6172SOL     OW19075   2.256   2.557  11.647
 6172SOL    HW119076   2.275   2.464  11.659
 6172SOL    HW219077   2.162   2.564  11.665
 6173SOL     OW19078   3.396   2.087  12.897
 6173SOL    HW119079   3.406   2.108  12.990
 6173SOL    HW219080   3.328   2.020  12.895
 6174SOL     OW19081   2.511   1.984  11.282
 6174SOL    HW119082   2.572   1.912  11.295
 6174SOL    HW219083   2.452   1.955  11.213
 6175SOL     OW19084   2.627   2.140  12.927
 6175SOL    HW119085   2.705   2.084  12.926
 6175SOL    HW219086   2.578   2.111  13.004
 6176SOL     OW19087   2.738   3.383  12.367
 6176SOL    HW119088   2.722   3.347  12.279
 6176SOL    HW219089   2.808   3.328  12.402
 6177SOL     OW19090   3.202   2.451  12.604
 6177SOL    HW119091   3.233   2.420  12.690
 6177SOL    HW219092   3.239   2.539  12.597
 6178SOL     OW19093   2.678   3.256  12.113
 6178SOL    HW119094   2.762   3.244  12.069
 6178SOL    HW219095   2.614   3.258  12.042
 6179SOL     OW19096   2.789   2.370  12.075
 6179SOL    HW119097   2.765   2.362  11.982
 6179SOL    HW219098   2.822   2.284  12.099
 6180SOL     OW19099   2.407   1.928  11.676
 6180SOL    HW119100   2.347   1.941  11.749
 6180SOL    HW219101   2.394   2.004  11.620
 6181SOL     OW19102   3.290   3.061  11.213
 6181SOL    HW119103   3.321   2.986  11.263
 6181SOL    HW219104   3.204   3.081  11.250
 6182SOL     OW19105   2.801   2.110  11.631
 6182SOL    HW119106   2.776   2.150  11.548
 6182SOL    HW219107   2.896   2.123  11.636
 6183SOL     OW19108   2.943   2.544  12.631
 6183SOL    HW119109   2.876   2.476  12.636
 6183SOL    HW219110   3.025   2.495  12.625
 6184SOL     OW19111   3.084   3.432  11.966
 6184SOL    HW119112   3.100   3.500  11.900
 6184SOL    HW219113   3.153   3.444  12.031
 6185SOL     OW19114   2.332   3.012  11.904
 6185SOL    HW119115   2.263   2.993  11.968
 6185SOL    HW219116   2.291   2.997  11.819
 6186SOL     OW19117   3.129   3.657  11.779
 6186SOL    HW119118   3.175   3.722  11.725
 6186SOL    HW219119   3.057   3.706  11.819
 6187SOL     OW19120   2.885   2.402  11.195
 6187SOL    HW119121   2.842   2.486  11.176
 6187SOL    HW219122   2.951   2.424  11.262
 6188SOL     OW19123   1.938   2.423  12.558
 6188SOL    HW119124   2.031   2.419  12.536
 6188SOL    HW219125   1.933   2.488  12.628
 6189SOL     OW19126   2.411   2.082  12.341
 6189SOL    HW119127   2.461   2.006  12.369
 6189SOL    HW219128   2.330   2.078  12.391
 6190SOL     OW19129   2.726   2.319  11.812
 6190SOL    HW119130   2.685   2.376  11.746
 6190SOL    HW219131   2.751   2.240  11.763
 6191SOL     OW19132   2.875   1.917  11.924
 6191SOL    HW119133   2.820   1.908  11.846
 6191SOL    HW219134   2.854   1.840  11.977
 6192SOL     OW19135   3.300   3.024  12.029
 6192SOL    HW119136   3.230   2.959  12.028
 6192SOL    HW219137   3.325   3.034  11.937
 6193SOL     OW19138   3.327   2.469  12.147
 6193SOL    HW119139   3.276   2.388  12.150
 6193SOL    HW219140   3.387   2.462  12.222
 6194SOL     OW19141   3.723   2.679  11.547
 6194SOL    HW119142   3.767   2.623  11.611
 6194SOL    HW219143   3.686   2.618  11.483
 6195SOL     OW19144   2.353   3.280  11.327
 6195SOL    HW119145   2.277   3.252  11.379
 6195SOL    HW219146   2.339   3.239  11.241
 6196SOL     OW19147   3.528   3.127  11.817
 6196SOL    HW119148   3.624   3.130  11.826
 6196SOL    HW219149   3.500   3.216  11.838
 6197SOL     OW19150   3.256   2.433  11.244
 6197SOL    HW119151   3.194   2.414  11.314
 6197SOL    HW219152   3.340   2.401  11.276
 6198SOL     OW19153   2.386   2.127  11.489
 6198SOL    HW119154   2.431   2.075  11.423
 6198SOL    HW219155   2.363   2.209  11.445
 6199SOL     OW19156   3.614   3.097  12.740
 6199SOL    HW119157   3.701   3.061  12.723
 6199SOL    HW219158   3.630   3.186  12.771
 6200SOL     OW19159   2.920   3.214  12.505
 6200SOL    HW119160   2.845   3.184  12.556
 6200SOL    HW219161   2.996   3.174  12.546
 6201SOL     OW19162   3.469   3.491  12.828
 6201SOL    HW119163   3.460   3.524  12.738
 6201SOL    HW219164   3.550   3.440  12.827
 6202SOL     OW19165   2.992   3.067  12.276
 6202SOL    HW119166   2.933   3.105  12.341
 6202SOL    HW219167   2.960   3.100  12.192
 6203SOL     OW19168   3.492   2.959  12.247
 6203SOL    HW119169   3.484   3.020  12.321
 6203SOL    HW219170   3.414   2.975  12.194
 6204SOL     OW19171   2.780   1.959  12.567
 6204SOL    HW119172   2.803   1.939  12.476
 6204SOL    HW219173   2.859   1.998  12.604
 6205SOL     OW19174   2.846   2.977  12.895
 6205SOL    HW119175   2.754   2.993  12.917
 6205SOL    HW219176   2.844   2.899  12.839
 6206SOL     OW19177   2.571   2.924  11.543
 6206SOL    HW119178   2.557   2.906  11.636
 6206SOL    HW219179   2.647   2.870  11.520
 6207SOL     OW19180   2.280   2.676  12.423
 6207SOL    HW119181   2.348   2.687  12.489
 6207SOL    HW219182   2.246   2.588  12.439
 6208SOL     OW19183   3.127   2.238  12.449
 6208SOL    HW119184   3.160   2.316  12.494
 6208SOL    HW219185   3.037   2.261  12.426
 6209SOL     OW19186   1.933   3.435  12.525
 6209SOL    HW119187   1.905   3.510  12.473
 6209SOL    HW219188   2.029   3.437  12.521
 6210SOL     OW19189   2.209   2.973  11.662
 6210SOL    HW119190   2.213   3.047  11.601
 6210SOL    HW219191   2.206   2.896  11.606
 6211SOL     OW19192   2.409   2.397  12.033
 6211SOL    HW119193   2.423   2.455  11.959
 6211SOL    HW219194   2.476   2.424  12.097
 6212SOL     OW19195   3.110   3.211  11.561
 6212SOL    HW119196   3.166   3.282  11.592
 6212SOL    HW219197   3.023   3.232  11.595
 6213SOL     OW19198   3.144   3.321  12.319
 6213SOL    HW119199   3.201   3.324  12.397
 6213SOL    HW219200   3.089   3.244  12.333
 6214SOL     OW19201   3.441   2.483  11.653
 6214SOL    HW119202   3.394   2.536  11.717
 6214SOL    HW219203   3.484   2.546  11.595
 6215SOL     OW19204   2.208   3.391  12.485
 6215SOL    HW119205   2.196   3.347  12.401
 6215SOL    HW219206   2.302   3.402  12.493
 6216SOL     OW19207   2.276   2.609  12.775
 6216SOL    HW119208   2.339   2.652  12.716
 6216SOL    HW219209   2.317   2.526  12.798
 6217SOL     OW19210   3.465   2.640  12.854
 6217SOL    HW119211   3.379   2.683  12.848
 6217SOL    HW219212   3.517   2.683  12.786
 6218SOL     OW19213   2.857   1.987  12.924
 6218SOL    HW119214   2.915   2.060  12.900
 6218SOL    HW219215   2.905   1.908  12.900
 6219SOL     OW19216   2.371   1.906  12.922
 6219SOL    HW119217   2.315   1.855  12.865
 6219SOL    HW219218   2.328   1.992  12.928
 6220SOL     OW19219   2.446   2.735  12.204
 6220SOL    HW119220   2.477   2.825  12.203
 6220SOL    HW219221   2.390   2.730  12.281
 6221SOL     OW19222   3.218   2.721  12.200
 6221SOL    HW119223   3.134   2.710  12.154
 6221SOL    HW219224   3.260   2.636  12.194
 6222SOL     OW19225   3.065   2.390  11.437
 6222SOL    HW119226   3.073   2.312  11.492
 6222SOL    HW219227   3.023   2.455  11.494
 6223SOL     OW19228   1.908   3.173  12.448
 6223SOL    HW119229   1.941   3.118  12.519
 6223SOL    HW219230   1.915   3.262  12.481
 6224SOL     OW19231   2.582   2.490  12.227
 6224SOL    HW119232   2.660   2.475  12.173
 6224SOL    HW219233   2.557   2.580  12.209
 6225SOL     OW19234   3.593   2.820  13.032
 6225SOL    HW119235   3.551   2.759  12.972
 6225SOL    HW219236   3.530   2.833  13.102
 6226SOL     OW19237   3.480   2.237  11.538
 6226SOL    HW119238   3.507   2.173  11.603
 6226SOL    HW219239   3.457   2.315  11.589
 6227SOL     OW19240   2.889   2.620  12.132
 6227SOL    HW119241   2.885   2.638  12.226
 6227SOL    HW219242   2.864   2.529  12.123
 6228SOL     OW19243   2.847   3.430  12.891
 6228SOL    HW119244   2.829   3.471  12.807
 6228SOL    HW219245   2.889   3.347  12.869
 6229SOL     OW19246   3.706   3.363  12.771
 6229SOL    HW119247   3.729   3.392  12.682
 6229SOL    HW219248   3.786   3.375  12.822
 6230SOL     OW19249   2.214   2.779  12.983
 6230SOL    HW119250   2.297   2.797  13.027
 6230SOL    HW219251   2.238   2.717  12.913
 6231SOL     OW19252   3.391   2.135  11.299
 6231SOL    HW119253   3.326   2.070  11.325
 6231SOL    HW219254   3.424   2.170  11.382
 6232SOL     OW19255   3.152   2.687  11.202
 6232SOL    HW119256   3.196   2.602  11.206
 6232SOL    HW219257   3.184   2.727  11.121
 6233SOL     OW19258   2.928   3.198  12.026
 6233SOL    HW119259   2.932   3.126  11.964
 6233SOL    HW219260   2.989   3.263  11.991
 6234SOL     OW19261   2.172   2.672  12.118
 6234SOL    HW119262   2.264   2.695  12.110
 6234SOL    HW219263   2.172   2.585  12.158
 6235SOL     OW19264   2.187   2.365  12.182
 6235SOL    HW119265   2.146   2.293  12.134
 6235SOL    HW219266   2.268   2.383  12.133
 6236SOL     OW19267   2.996   2.238  12.854
 6236SOL    HW119268   2.948   2.292  12.917
 6236SOL    HW219269   3.083   2.276  12.851
 6237SOL     OW19270   3.022   2.064  12.642
 6237SOL    HW119271   3.012   2.126  12.714
 6237SOL    HW219272   3.063   2.115  12.572
 6238SOL     OW19273   1.867   3.182  11.367
 6238SOL    HW119274   1.780   3.197  11.330
 6238SOL    HW219275   1.864   3.092  11.401
 6239SOL     OW19276   1.958   3.643  12.109
 6239SOL    HW119277   1.927   3.564  12.065
 6239SOL    HW219278   2.043   3.661  12.070
 6240SOL     OW19279   2.357   3.437  12.078
 6240SOL    HW119280   2.425   3.500  12.102
 6240SOL    HW219281   2.402   3.374  12.021
 6241SOL     OW19282   2.843   2.652  12.398
 6241SOL    HW119283   2.901   2.631  12.471
 6241SOL    HW219284   2.758   2.617  12.425
 6242SOL     OW19285   1.901   2.396  12.289
 6242SOL    HW119286   1.986   2.401  12.245
 6242SOL    HW219287   1.921   2.409  12.382
 6243SOL     OW19288   2.066   2.381  12.904
 6243SOL    HW119289   2.118   2.353  12.828
 6243SOL    HW219290   2.003   2.443  12.867
 6244SOL     OW19291   3.241   2.800  12.830
 6244SOL    HW119292   3.261   2.893  12.828
 6244SOL    HW219293   3.237   2.774  12.738
 6245SOL     OW19294   2.678   2.431  11.536
 6245SOL    HW119295   2.685   2.358  11.476
 6245SOL    HW219296   2.605   2.483  11.503
 6246SOL     OW19297   3.503   2.464  12.357
 6246SOL    HW119298   3.492   2.403  12.430
 6246SOL    HW219299   3.589   2.442  12.321
 6247SOL     OW19300   2.105   3.412  12.898
 6247SOL    HW119301   2.082   3.478  12.963
 6247SOL    HW219302   2.108   3.329  12.947
 6248SOL     OW19303   2.562   2.310  12.431
 6248SOL    HW119304   2.509   2.237  12.400
 6248SOL    HW219305   2.559   2.374  12.359
 6249SOL     OW19306   2.790   3.535  12.640
 6249SOL    HW119307   2.764   3.498  12.556
 6249SOL    HW219308   2.782   3.629  12.629
 6250SOL     OW19309   2.326   2.355  11.352
 6250SOL    HW119310   2.384   2.427  11.377
 6250SOL    HW219311   2.240   2.395  11.344
 6251SOL     OW19312   2.007   3.003  12.645
 6251SOL    HW119313   2.008   2.952  12.726
 6251SOL    HW219314   2.025   2.939  12.576
 6252SOL     OW19315   3.185   2.908  12.395
 6252SOL    HW119316   3.209   2.845  12.326
 6252SOL    HW219317   3.117   2.961  12.355
 6253SOL     OW19318   3.174   2.718  11.478
 6253SOL    HW119319   3.099   2.688  11.528
 6253SOL    HW219320   3.149   2.704  11.386
 6254SOL     OW19321   3.637   3.604  12.325
 6254SOL    HW119322   3.695   3.630  12.254
 6254SOL    HW219323   3.611   3.515  12.303
 6255SOL     OW19324   3.105   3.596  12.283
 6255SOL    HW119325   3.188   3.616  12.239
 6255SOL    HW219326   3.111   3.502  12.302
 6256SOL     OW19327   1.946   3.129  12.184
 6256SOL    HW119328   1.932   3.142  12.277
 6256SOL    HW219329   1.873   3.074  12.156
 6257SOL     OW19330   2.540   3.526  12.902
 6257SOL    HW119331   2.485   3.603  12.906
 6257SOL    HW219332   2.601   3.543  12.830
 6258SOL     OW19333   3.573   2.010  11.684
 6258SOL    HW119334   3.642   1.998  11.618
 6258SOL    HW219335   3.563   1.924  11.724
 6259SOL     OW19336   3.252   3.430  11.658
 6259SOL    HW119337   3.312   3.463  11.591
 6259SOL    HW219338   3.204   3.508  11.688
 6260SOL     OW19339   1.995   3.653  13.011
 6260SOL    HW119340   1.943   3.589  13.060
 6260SOL    HW219341   2.044   3.700  13.078
 6261SOL     OW19342   3.139   2.788  11.843
 6261SOL    HW119343   3.213   2.727  11.851
 6261SOL    HW219344   3.173   2.860  11.790
 6262SOL     OW19345   2.674   3.136  12.601
 6262SOL    HW119346   2.646   3.175  12.683
 6262SOL    HW219347   2.605   3.158  12.539
 6263SOL     OW19348   2.537   3.479  11.329
 6263SOL    HW119349   2.545   3.496  11.235
 6263SOL    HW219350   2.479   3.403  11.335
 6264SOL     OW19351   3.483   3.588  12.562
 6264SOL    HW119352   3.538   3.592  12.483
 6264SOL    HW219353   3.471   3.680  12.587
 6265SOL     OW19354   3.700   2.043  12.140
 6265SOL    HW119355   3.730   1.956  12.114
 6265SOL    HW219356   3.613   2.051  12.099
 6266SOL     OW19357   3.069   3.467  11.207
 6266SOL    HW119358   3.059   3.375  11.231
 6266SOL    HW219359   3.008   3.480  11.135
 6267SOL     OW19360   2.686   2.868  12.544
 6267SOL    HW119361   2.730   2.864  12.460
 6267SOL    HW219362   2.685   2.961  12.567
 6268SOL     OW19363   2.778   2.772  11.462
 6268SOL    HW119364   2.839   2.805  11.396
 6268SOL    HW219365   2.827   2.704  11.508
 6269SOL     OW19366   3.351   3.492  11.214
 6269SOL    HW119367   3.257   3.481  11.198
 6269SOL    HW219368   3.390   3.497  11.126
 6270SOL     OW19369   2.231   3.165  12.663
 6270SOL    HW119370   2.217   3.242  12.609
 6270SOL    HW219371   2.154   3.111  12.648
 6271SOL     OW19372   3.464   3.142  12.450
 6271SOL    HW119373   3.532   3.134  12.517
 6271SOL    HW219374   3.407   3.212  12.482
 6272SOL     OW19375   2.916   2.970  11.879
 6272SOL    HW119376   2.845   2.919  11.918
 6272SOL    HW219377   2.979   2.904  11.849
 6273SOL     OW19378   2.882   2.102  12.138
 6273SOL    HW119379   2.879   2.055  12.055
 6273SOL    HW219380   2.879   2.034  12.205
 6274SOL     OW19381   2.466   3.352  11.652
 6274SOL    HW119382   2.511   3.301  11.584
 6274SOL    HW219383   2.397   3.400  11.605
 6275SOL     OW19384   3.585   2.252  12.551
 6275SOL    HW119385   3.657   2.315  12.547
 6275SOL    HW219386   3.614   2.180  12.495
 6276SOL     OW19387   2.122   3.206  11.461
 6276SOL    HW119388   2.029   3.203  11.438
 6276SOL    HW219389   2.124   3.244  11.549
 6277SOL     OW19390   1.974   2.885  12.891
 6277SOL    HW119391   1.898   2.862  12.944
 6277SOL    HW219392   2.049   2.847  12.939
 6278SOL     OW19393   2.538   2.060  12.671
 6278SOL    HW119394   2.622   2.038  12.631
 6278SOL    HW219395   2.560   2.089  12.759
 6279SOL     OW19396   3.290   2.720  12.572
 6279SOL    HW119397   3.240   2.782  12.517
 6279SOL    HW219398   3.378   2.722  12.535
 6280SOL     OW19399   3.040   3.200  11.289
 6280SOL    HW119400   2.949   3.170  11.291
 6280SOL    HW219401   3.067   3.200  11.381
 6281SOL     OW19402   2.481   2.692  12.605
 6281SOL    HW119403   2.537   2.769  12.590
 6281SOL    HW219404   2.543   2.619  12.613
 6282SOL     OW19405   3.347   3.642  12.154
 6282SOL    HW119406   3.371   3.695  12.077
 6282SOL    HW219407   3.430   3.613  12.191
 6283SOL     OW19408   2.579   2.423  12.874
 6283SOL    HW119409   2.620   2.485  12.934
 6283SOL    HW219410   2.604   2.337  12.908
 6284SOL     OW19411   3.334   3.061  12.803
 6284SOL    HW119412   3.323   3.075  12.897
 6284SOL    HW219413   3.427   3.076  12.788
 6285SOL     OW19414   2.239   3.601  12.736
 6285SOL    HW119415   2.153   3.643  12.721
 6285SOL    HW219416   2.218   3.518  12.778
 6286SOL     OW19417   3.528   2.743  12.431
 6286SOL    HW119418   3.526   2.657  12.387
 6286SOL    HW219419   3.521   2.806  12.359
 6287SOL     OW19420   3.078   2.181  11.630
 6287SOL    HW119421   3.141   2.109  11.621
 6287SOL    HW219422   3.108   2.230  11.706
 6288SOL     OW19423   2.448   2.598  11.844
 6288SOL    HW119424   2.490   2.683  11.829
 6288SOL    HW219425   2.383   2.591  11.775
 6289SOL     OW19426   3.622   2.227  12.822
 6289SOL    HW119427   3.605   2.240  12.729
 6289SOL    HW219428   3.552   2.169  12.851
 6290SOL     OW19429   3.617   2.791  12.685
 6290SOL    HW119430   3.609   2.885  12.702
 6290SOL    HW219431   3.593   2.781  12.593
 6291SOL     OW19432   2.725   3.229  11.209
 6291SOL    HW119433   2.685   3.257  11.291
 6291SOL    HW219434   2.741   3.311  11.161
 6292SOL     OW19435   2.522   3.652  12.113
 6292SOL    HW119436   2.501   3.743  12.091
 6292SOL    HW219437   2.617   3.648  12.108
 6293SOL     OW19438   2.730   2.830  12.027
 6293SOL    HW119439   2.780   2.758  12.066
 6293SOL    HW219440   2.695   2.878  12.102
 6294SOL     OW19441   2.940   2.850  11.261
 6294SOL    HW119442   2.919   2.901  11.183
 6294SOL    HW219443   3.015   2.796  11.234
 6295SOL     OW19444   3.714   3.417  12.013
 6295SOL    HW119445   3.635   3.398  11.963
 6295SOL    HW219446   3.716   3.350  12.081
 6296SOL     OW19447   2.088   3.164  13.028
 6296SOL    HW119448   2.020   3.103  12.997
 6296SOL    HW219449   2.068   3.177  13.121
 6297SOL     OW19450   1.947   3.094  11.837
 6297SOL    HW119451   1.954   3.047  11.920
 6297SOL    HW219452   2.015   3.055  11.782
 6298SOL     OW19453   2.544   3.265  12.801
 6298SOL    HW119454   2.464   3.223  12.832
 6298SOL    HW219455   2.541   3.354  12.838
 6299SOL     OW19456   3.676   2.041  12.411
 6299SOL    HW119457   3.668   1.946  12.415
 6299SOL    HW219458   3.689   2.061  12.318
 6300SOL     OW19459   2.293   2.294  11.695
 6300SOL    HW119460   2.324   2.232  11.629
 6300SOL    HW219461   2.247   2.240  11.759
 6301SOL     OW19462   3.559   3.352  12.269
 6301SOL    HW119463   3.480   3.327  12.222
 6301SOL    HW219464   3.572   3.282  12.333
 6302SOL     OW19465   2.193   2.417  12.460
 6302SOL    HW119466   2.238   2.355  12.519
 6302SOL    HW219467   2.209   2.382  12.372
 6303SOL     OW19468   2.689   3.440  11.849
 6303SOL    HW119469   2.674   3.490  11.769
 6303SOL    HW219470   2.614   3.381  11.855
 6304SOL     OW19471   3.293   2.089  12.289
 6304SOL    HW119472   3.315   2.007  12.333
 6304SOL    HW219473   3.242   2.137  12.354
 6305SOL     OW19474   2.871   1.880  12.313
 6305SOL    HW119475   2.817   1.812  12.272
 6305SOL    HW219476   2.959   1.842  12.315
 6306SOL     OW19477   2.634   3.194  11.489
 6306SOL    HW119478   2.603   3.104  11.495
 6306SOL    HW219479   2.717   3.195  11.537
 6307SOL     OW19480   2.482   3.416  12.457
 6307SOL    HW119481   2.483   3.497  12.507
 6307SOL    HW219482   2.570   3.409  12.419
 6308SOL     OW19483   3.215   1.915  11.338
 6308SOL    HW119484   3.245   1.849  11.276
 6308SOL    HW219485   3.128   1.887  11.363
 6309SOL     OW19486   3.157   2.323  11.852
 6309SOL    HW119487   3.105   2.403  11.859
 6309SOL    HW219488   3.154   2.285  11.940
 6310SOL     OW19489   3.445   2.062  12.049
 6310SOL    HW119490   3.387   2.085  12.122
 6310SOL    HW219491   3.446   2.140  11.994
 6311SOL     OW19492   1.905   2.932  11.479
 6311SOL    HW119493   1.999   2.924  11.461
 6311SOL    HW219494   1.877   2.843  11.501
 6312SOL     OW19495   2.747   3.519  11.516
 6312SOL    HW119496   2.676   3.500  11.454
 6312SOL    HW219497   2.716   3.595  11.565
 6313SOL     OW19498   2.086   2.478  13.161
 6313SOL    HW119499   1.995   2.484  13.192
 6313SOL    HW219500   2.079   2.450  13.070
 6314SOL     OW19501   1.878   2.271  13.654
 6314SOL    HW119502   1.789   2.285  13.688
 6314SOL    HW219503   1.866   2.216  13.576
 6315SOL     OW19504   3.388   3.359  13.726
 6315SOL    HW119505   3.331   3.295  13.768
 6315SOL    HW219506   3.343   3.381  13.644
 6316SOL     OW19507   2.990   2.562  13.732
 6316SOL    HW119508   3.044   2.638  13.709
 6316SOL    HW219509   2.943   2.589  13.811
 6317SOL     OW19510   3.637   2.467  13.262
 6317SOL    HW119511   3.613   2.460  13.169
 6317SOL    HW219512   3.594   2.392  13.303
 6318SOL     OW19513   2.546   2.872  13.672
 6318SOL    HW119514   2.601   2.852  13.748
 6318SOL    HW219515   2.472   2.921  13.708
 6319SOL     OW19516   3.485   2.323  13.755
 6319SOL    HW119517   3.398   2.316  13.717
 6319SOL    HW219518   3.479   2.397  13.815
 6320SOL     OW19519   2.084   3.579  13.517
 6320SOL    HW119520   2.120   3.627  13.591
 6320SOL    HW219521   2.155   3.577  13.453
 6321SOL     OW19522   2.093   3.303  13.569
 6321SOL    HW119523   2.073   3.397  13.574
 6321SOL    HW219524   2.033   3.262  13.631
 6322SOL     OW19525   2.102   2.969   0.026
 6322SOL    HW119526   2.121   2.905   0.095
 6322SOL    HW219527   2.033   3.024   0.063
 6323SOL     OW19528   2.447   2.844  13.168
 6323SOL    HW119529   2.492   2.892  13.099
 6323SOL    HW219530   2.485   2.876  13.249
 6324SOL     OW19531   1.979   2.524  13.591
 6324SOL    HW119532   1.950   2.435  13.610
 6324SOL    HW219533   1.967   2.572  13.673
 6325SOL     OW19534   3.699   3.614  13.374
 6325SOL    HW119535   3.770   3.588  13.432
 6325SOL    HW219536   3.718   3.706  13.353
 6326SOL     OW19537   1.890   3.454  13.156
 6326SOL    HW119538   1.876   3.362  13.178
 6326SOL    HW219539   1.871   3.502  13.237
 6327SOL     OW19540   3.548   2.778  13.669
 6327SOL    HW119541   3.635   2.745  13.649
 6327SOL    HW219542   3.526   2.834  13.594
 6328SOL     OW19543   3.503   2.966  13.462
 6328SOL    HW119544   3.588   2.971  13.418
 6328SOL    HW219545   3.511   3.030  13.534
 6329SOL     OW19546   2.468   3.246  13.760
 6329SOL    HW119547   2.424   3.161  13.768
 6329SOL    HW219548   2.445   3.277  13.673
 6330SOL     OW19549   2.674   1.862  13.543
 6330SOL    HW119550   2.714   1.947  13.522
 6330SOL    HW219551   2.581   1.881  13.551
 6331SOL     OW19552   3.390   2.856  13.234
 6331SOL    HW119553   3.321   2.799  13.267
 6331SOL    HW219554   3.431   2.893  13.312
 6332SOL     OW19555   3.513   3.598  13.614
 6332SOL    HW119556   3.498   3.569  13.524
 6332SOL    HW219557   3.507   3.519  13.667
 6333SOL     OW19558   2.455   2.581  13.299
 6333SOL    HW119559   2.461   2.663  13.250
 6333SOL    HW219560   2.389   2.599  13.367
 6334SOL     OW19561   3.120   2.192   0.047
 6334SOL    HW119562   3.040   2.145   0.071
 6334SOL    HW219563   3.190   2.143   0.091
 6335SOL     OW19564   3.437   3.539  13.340
 6335SOL    HW119565   3.529   3.564  13.337
 6335SOL    HW219566   3.415   3.518  13.250
 6336SOL     OW19567   2.911   2.558  13.459
 6336SOL    HW119568   2.926   2.548  13.553
 6336SOL    HW219569   2.829   2.512  13.442
 6337SOL     OW19570   1.946   2.685  13.808
 6337SOL    HW119571   2.025   2.676  13.862
 6337SOL    HW219572   1.900   2.760  13.846
 6338SOL     OW19573   2.756   2.213  13.231
 6338SOL    HW119574   2.798   2.272  13.168
 6338SOL    HW219575   2.759   2.127  13.189
 6339SOL     OW19576   3.225   2.998  13.555
 6339SOL    HW119577   3.315   2.995  13.520
 6339SOL    HW219578   3.183   3.068  13.506
 6340SOL     OW19579   2.864   3.304  13.503
 6340SOL    HW119580   2.829   3.379  13.456
 6340SOL    HW219581   2.834   3.317  13.593
 6341SOL     OW19582   2.253   3.665  13.803
 6341SOL    HW119583   2.218   3.592  13.854
 6341SOL    HW219584   2.311   3.710  13.865
 6342SOL     OW19585   3.651   2.918  13.899
 6342SOL    HW119586   3.594   2.906  13.823
 6342SOL    HW219587   3.592   2.910   0.074
 6343SOL     OW19588   2.181   2.821  13.286
 6343SOL    HW119589   2.263   2.840  13.239
 6343SOL    HW219590   2.150   2.739  13.248
 6344SOL     OW19591   3.350   2.595  13.745
 6344SOL    HW119592   3.339   2.553  13.831
 6344SOL    HW219593   3.423   2.656  13.758
 6345SOL     OW19594   2.975   3.644  13.256
 6345SOL    HW119595   2.913   3.597  13.311
 6345SOL    HW219596   3.006   3.578  13.193
 6346SOL     OW19597   3.487   3.245  13.122
 6346SOL    HW119598   3.444   3.329  13.105
 6346SOL    HW219599   3.420   3.180  13.103
 6347SOL     OW19600   2.329   3.596  13.357
 6347SOL    HW119601   2.366   3.660  13.418
 6347SOL    HW219602   2.403   3.572  13.301
 6348SOL     OW19603   3.264   1.974  13.465
 6348SOL    HW119604   3.255   1.946  13.374
 6348SOL    HW219605   3.359   1.974  13.481
 6349SOL     OW19606   2.794   3.548   0.010
 6349SOL    HW119607   2.814   3.481   0.075
 6349SOL    HW219608   2.748   3.502  13.840
 6350SOL     OW19609   2.252   2.566  13.506
 6350SOL    HW119610   2.270   2.472  13.512
 6350SOL    HW219611   2.159   2.573  13.525
 6351SOL     OW19612   2.511   1.985  13.142
 6351SOL    HW119613   2.572   1.913  13.155
 6351SOL    HW219614   2.453   1.955  13.073
 6352SOL     OW19615   2.407   1.926  13.538
 6352SOL    HW119616   2.341   1.936  13.607
 6352SOL    HW219617   2.394   2.001  13.481
 6353SOL     OW19618   3.290   3.061  13.075
 6353SOL    HW119619   3.320   2.985  13.125
 6353SOL    HW219620   3.204   3.081  13.112
 6354SOL     OW19621   2.800   2.107  13.494
 6354SOL    HW119622   2.774   2.148  13.411
 6354SOL    HW219623   2.895   2.121  13.499
 6355SOL     OW19624   2.326   3.005  13.771
 6355SOL    HW119625   2.253   2.992  13.831
 6355SOL    HW219626   2.288   2.993  13.684
 6356SOL     OW19627   3.131   3.660  13.629
 6356SOL    HW119628   3.176   3.728  13.578
 6356SOL    HW219629   3.063   3.708  13.677
 6357SOL     OW19630   2.886   2.402  13.057
 6357SOL    HW119631   2.843   2.486  13.038
 6357SOL    HW219632   2.950   2.423  13.124
 6358SOL     OW19633   2.756   2.332  13.670
 6358SOL    HW119634   2.691   2.380  13.617
 6358SOL    HW219635   2.763   2.247  13.627
 6359SOL     OW19636   2.886   1.902  13.777
 6359SOL    HW119637   2.828   1.910  13.701
 6359SOL    HW219638   2.858   1.822  13.820
 6360SOL     OW19639   3.728   2.678  13.410
 6360SOL    HW119640   3.775   2.623  13.472
 6360SOL    HW219641   3.691   2.616  13.346
 6361SOL     OW19642   2.353   3.280  13.189
 6361SOL    HW119643   2.277   3.252  13.242
 6361SOL    HW219644   2.338   3.239  13.104
 6362SOL     OW19645   3.539   3.131  13.667
 6362SOL    HW119646   3.633   3.134  13.684
 6362SOL    HW219647   3.505   3.214  13.701
 6363SOL     OW19648   3.256   2.433  13.105
 6363SOL    HW119649   3.194   2.415  13.176
 6363SOL    HW219650   3.340   2.401  13.138
 6364SOL     OW19651   2.389   2.124  13.353
 6364SOL    HW119652   2.433   2.075  13.283
 6364SOL    HW219653   2.363   2.206  13.312
 6365SOL     OW19654   2.571   2.925  13.401
 6365SOL    HW119655   2.556   2.909  13.494
 6365SOL    HW219656   2.647   2.871  13.379
 6366SOL     OW19657   2.212   2.973  13.525
 6366SOL    HW119658   2.213   3.047  13.465
 6366SOL    HW219659   2.208   2.896  13.468
 6367SOL     OW19660   2.447   2.395  13.858
 6367SOL    HW119661   2.449   2.468  13.797
 6367SOL    HW219662   2.488   2.429   0.038
 6368SOL     OW19663   3.108   3.214  13.418
 6368SOL    HW119664   3.163   3.286  13.447
 6368SOL    HW219665   3.022   3.233  13.454
 6369SOL     OW19666   3.444   2.487  13.501
 6369SOL    HW119667   3.402   2.528  13.576
 6369SOL    HW219668   3.478   2.560  13.450
 6370SOL     OW19669   3.065   2.390  13.299
 6370SOL    HW119670   3.073   2.312  13.353
 6370SOL    HW219671   3.022   2.454  13.356
 6371SOL     OW19672   3.481   2.237  13.399
 6371SOL    HW119673   3.505   2.173  13.467
 6371SOL    HW219674   3.458   2.316  13.447
 6372SOL     OW19675   3.391   2.135  13.161
 6372SOL    HW119676   3.326   2.070  13.187
 6372SOL    HW219677   3.425   2.170  13.244
 6373SOL     OW19678   3.151   2.687  13.063
 6373SOL    HW119679   3.195   2.602  13.067
 6373SOL    HW219680   3.184   2.727  12.983
 6374SOL     OW19681   1.868   3.182  13.228
 6374SOL    HW119682   1.781   3.197  13.191
 6374SOL    HW219683   1.864   3.093  13.263
 6375SOL     OW19684   2.677   2.434  13.391
 6375SOL    HW119685   2.683   2.358  13.333
 6375SOL    HW219686   2.602   2.483  13.359
 6376SOL     OW19687   2.326   2.352  13.209
 6376SOL    HW119688   2.384   2.424  13.236
 6376SOL    HW219689   2.239   2.392  13.204
 6377SOL     OW19690   3.175   2.714  13.338
 6377SOL    HW119691   3.098   2.688  13.389
 6377SOL    HW219692   3.149   2.702  13.247
 6378SOL     OW19693   3.577   2.009  13.548
 6378SOL    HW119694   3.643   1.998  13.480
 6378SOL    HW219695   3.565   1.922  13.585
 6379SOL     OW19696   3.245   3.435  13.508
 6379SOL    HW119697   3.305   3.472  13.443
 6379SOL    HW219698   3.200   3.512  13.545
 6380SOL     OW19699   3.149   2.776  13.685
 6380SOL    HW119700   3.226   2.720  13.671
 6380SOL    HW219701   3.172   2.859  13.644
 6381SOL     OW19702   2.537   3.479  13.191
 6381SOL    HW119703   2.545   3.496  13.097
 6381SOL    HW219704   2.478   3.403  13.196
 6382SOL     OW19705   3.683   2.021   0.085
 6382SOL    HW119706   3.696   1.934   0.049
 6382SOL    HW219707   3.588   2.035   0.079
 6383SOL     OW19708   2.112   2.286  13.802
 6383SOL    HW119709   2.057   2.267  13.727
 6383SOL    HW219710   2.140   2.200  13.834
 6384SOL     OW19711   3.069   3.467  13.069
 6384SOL    HW119712   3.059   3.375  13.093
 6384SOL    HW219713   3.008   3.480  12.997
 6385SOL     OW19714   2.780   2.775  13.328
 6385SOL    HW119715   2.840   2.805  13.259
 6385SOL    HW219716   2.827   2.701  13.369
 6386SOL     OW19717   3.351   3.492  13.076
 6386SOL    HW119718   3.257   3.480  13.060
 6386SOL    HW219719   3.390   3.497  12.988
 6387SOL     OW19720   2.912   2.953  13.754
 6387SOL    HW119721   2.825   2.913  13.743
 6387SOL    HW219722   2.966   2.912  13.687
 6388SOL     OW19723   2.462   3.353  13.507
 6388SOL    HW119724   2.507   3.303  13.440
 6388SOL    HW219725   2.395   3.403  13.460
 6389SOL     OW19726   2.122   3.206  13.323
 6389SOL    HW119727   2.029   3.203  13.301
 6389SOL    HW219728   2.124   3.244  13.411
 6390SOL     OW19729   3.040   3.200  13.149
 6390SOL    HW119730   2.949   3.171  13.152
 6390SOL    HW219731   3.067   3.201  13.241
 6391SOL     OW19732   3.078   2.181  13.491
 6391SOL    HW119733   3.141   2.110  13.481
 6391SOL    HW219734   3.109   2.230  13.568
 6392SOL     OW19735   2.451   2.610  13.693
 6392SOL    HW119736   2.488   2.697  13.674
 6392SOL    HW219737   2.380   2.600  13.629
 6393SOL     OW19738   2.725   3.229  13.070
 6393SOL    HW119739   2.685   3.257  13.152
 6393SOL    HW219740   2.741   3.311  13.023
 6394SOL     OW19741   2.513   3.712   0.066
 6394SOL    HW119742   2.510   3.806   0.083
 6394SOL    HW219743   2.604   3.688   0.079
 6395SOL     OW19744   2.691   2.826  13.895
 6395SOL    HW119745   2.724   2.744   0.032
 6395SOL    HW219746   2.715   2.893   0.059
 6396SOL     OW19747   2.940   2.849  13.123
 6396SOL    HW119748   2.918   2.901  13.045
 6396SOL    HW219749   3.015   2.796  13.096
 6397SOL     OW19750   1.953   3.094  13.699
 6397SOL    HW119751   1.947   3.038  13.776
 6397SOL    HW219752   2.019   3.053  13.644
 6398SOL     OW19753   2.281   2.304  13.546
 6398SOL    HW119754   2.322   2.228  13.504
 6398SOL    HW219755   2.284   2.283  13.640
 6399SOL     OW19756   3.542   3.325   0.343
 6399SOL    HW119757   3.511   3.297   0.257
 6399SOL    HW219758   3.627   3.283   0.353
 6400SOL     OW19759   2.680   3.413  13.709
 6400SOL    HW119760   2.657   3.464  13.632
 6400SOL    HW219761   2.603   3.359  13.726
 6401SOL     OW19762   2.634   3.195  13.348
 6401SOL    HW119763   2.604   3.105  13.354
 6401SOL    HW219764   2.717   3.196  13.397
 6402SOL     OW19765   3.215   1.915  13.199
 6402SOL    HW119766   3.245   1.848  13.137
 6402SOL    HW219767   3.127   1.887  13.225
 6403SOL     OW19768   3.166   2.322  13.713
 6403SOL    HW119769   3.110   2.400  13.719
 6403SOL    HW219770   3.152   2.276  13.796
 6404SOL     OW19771   1.906   2.932  13.340
 6404SOL    HW119772   2.000   2.923  13.321
 6404SOL    HW219773   1.878   2.843  13.361
 6405SOL     OW19774   2.747   3.519  13.378
 6405SOL    HW119775   2.676   3.501  13.317
 6405SOL    HW219776   2.716   3.593  13.429
 6406SOL     OW19777   2.094   3.984   0.985
 6406SOL    HW119778   2.117   3.963   1.076
 6406SOL    HW219779   2.003   3.953   0.976
 6407SOL     OW19780   1.878   0.063   0.711
 6407SOL    HW119781   1.801   0.111   0.679
 6407SOL    HW219782   1.907   0.012   0.635
 6408SOL     OW19783   3.660   0.359   0.254
 6408SOL    HW119784   3.636   0.307   0.177
 6408SOL    HW219785   3.581   0.362   0.307
 6409SOL     OW19786   2.301   0.096   1.507
 6409SOL    HW119787   2.373   0.055   1.460
 6409SOL    HW219788   2.225   0.042   1.485
 6410SOL     OW19789   3.459   3.849   1.462
 6410SOL    HW119790   3.461   3.935   1.420
 6410SOL    HW219791   3.445   3.868   1.555
 6411SOL     OW19792   2.668   3.727   0.505
 6411SOL    HW119793   2.696   3.818   0.496
 6411SOL    HW219794   2.573   3.732   0.515
 6412SOL     OW19795   3.130   0.062   0.937
 6412SOL    HW119796   3.058   0.007   0.905
 6412SOL    HW219797   3.186   0.002   0.987
 6413SOL     OW19798   2.416   3.904   0.891
 6413SOL    HW119799   2.410   3.925   0.984
 6413SOL    HW219800   2.411   3.990   0.847
 6414SOL     OW19801   2.053   3.983   1.490
 6414SOL    HW119802   1.999   0.062   1.496
 6414SOL    HW219803   2.017   3.924   1.556
 6415SOL     OW19804   3.270   3.840   0.427
 6415SOL    HW119805   3.262   3.798   0.341
 6415SOL    HW219806   3.360   3.822   0.454
 6416SOL     OW19807   3.398   3.940   1.724
 6416SOL    HW119808   3.423   3.943   1.817
 6416SOL    HW219809   3.330   3.872   1.720
 6417SOL     OW19810   2.635   3.960   1.744
 6417SOL    HW119811   2.688   3.929   1.818
 6417SOL    HW219812   2.549   3.975   1.782
 6418SOL     OW19813   2.396   3.783   0.512
 6418SOL    HW119814   2.346   3.783   0.594
 6418SOL    HW219815   2.406   3.876   0.491
 6419SOL     OW19816   2.134   3.743   0.210
 6419SOL    HW119817   2.166   3.829   0.183
 6419SOL    HW219818   2.213   3.695   0.234
 6420SOL     OW19819   2.420   3.944   1.168
 6420SOL    HW119820   2.461   3.870   1.213
 6420SOL    HW219821   2.328   3.940   1.196
 6421SOL     OW19822   2.882   3.768   0.738
 6421SOL    HW119823   2.817   3.756   0.668
 6421SOL    HW219824   2.858   3.702   0.804
 6422SOL     OW19825   2.784   3.804   1.399
 6422SOL    HW119826   2.813   3.783   1.310
 6422SOL    HW219827   2.858   3.853   1.437
 6423SOL     OW19828   3.128   0.076   1.265
 6423SOL    HW119829   3.142   0.144   1.331
 6423SOL    HW219830   3.060   0.112   1.208
 6424SOL     OW19831   2.370   3.749   1.755
 6424SOL    HW119832   2.316   3.704   1.691
 6424SOL    HW219833   2.337   3.839   1.755
 6425SOL     OW19834   2.157   3.921   1.252
 6425SOL    HW119835   2.113   3.939   1.335
 6425SOL    HW219836   2.145   3.827   1.239
 6426SOL     OW19837   3.460   3.939   0.153
 6426SOL    HW119838   3.380   3.887   0.156
 6426SOL    HW219839   3.436   0.023   0.193
 6427SOL     OW19840   3.025   3.923   1.473
 6427SOL    HW119841   3.029   3.996   1.535
 6427SOL    HW219842   3.066   3.957   1.393
 6428SOL     OW19843   2.780   3.824   0.150
 6428SOL    HW119844   2.811   3.815   0.060
 6428SOL    HW219845   2.839   3.768   0.202
 6429SOL     OW19846   3.587   3.863   0.529
 6429SOL    HW119847   3.656   3.849   0.465
 6429SOL    HW219848   3.567   3.775   0.562
 6430SOL     OW19849   3.697   3.895   0.963
 6430SOL    HW119850   3.730   3.809   0.939
 6430SOL    HW219851   3.611   3.900   0.921
 6431SOL     OW19852   2.537   3.911   1.492
 6431SOL    HW119853   2.619   3.904   1.444
 6431SOL    HW219854   2.563   3.933   1.581
 6432SOL     OW19855   1.927   3.860   0.341
 6432SOL    HW119856   1.908   3.937   0.287
 6432SOL    HW219857   2.008   3.825   0.304
 6433SOL     OW19858   3.052   0.010   0.466
 6433SOL    HW119859   3.118   3.941   0.467
 6433SOL    HW219860   3.074   0.065   0.541
 6434SOL     OW19861   3.647   0.049   1.630
 6434SOL    HW119862   3.606   0.080   1.550
 6434SOL    HW219863   3.576   0.006   1.678
 6435SOL     OW19864   3.678   3.910   1.236
 6435SOL    HW119865   3.668   3.818   1.260
 6435SOL    HW219866   3.687   3.910   1.141
 6436SOL     OW19867   3.301   3.933   1.117
 6436SOL    HW119868   3.329   3.852   1.159
 6436SOL    HW219869   3.242   3.974   1.181
 6437SOL     OW19870   2.876   3.737   1.149
 6437SOL    HW119871   2.819   3.681   1.097
 6437SOL    HW219872   2.962   3.694   1.144
 6438SOL     OW19873   3.214   3.783   0.151
 6438SOL    HW119874   3.252   3.712   0.099
 6438SOL    HW219875   3.130   3.747   0.183
 6439SOL     OW19876   3.146   0.163   0.681
 6439SOL    HW119877   3.141   0.258   0.688
 6439SOL    HW219878   3.151   0.132   0.771
 6440SOL     OW19879   3.441   3.930   0.879
 6440SOL    HW119880   3.389   3.932   0.959
 6440SOL    HW219881   3.438   0.021   0.847
 6441SOL     OW19882   2.094   3.982   2.846
 6441SOL    HW119883   2.118   3.963   2.937
 6441SOL    HW219884   2.003   3.953   2.838
 6442SOL     OW19885   1.876   0.062   2.575
 6442SOL    HW119886   1.804   0.115   2.542
 6442SOL    HW219887   1.905   0.011   2.498
 6443SOL     OW19888   3.635   0.320   2.046
 6443SOL    HW119889   3.559   0.305   1.990
 6443SOL    HW219890   3.598   0.340   2.132
 6444SOL     OW19891   2.301   0.096   3.368
 6444SOL    HW119892   2.373   0.055   3.323
 6444SOL    HW219893   2.225   0.042   3.347
 6445SOL     OW19894   3.459   3.849   3.324
 6445SOL    HW119895   3.460   3.935   3.282
 6445SOL    HW219896   3.445   3.867   3.417
 6446SOL     OW19897   2.668   3.729   2.365
 6446SOL    HW119898   2.694   3.821   2.360
 6446SOL    HW219899   2.573   3.732   2.376
 6447SOL     OW19900   3.130   0.062   2.801
 6447SOL    HW119901   3.059   0.007   2.768
 6447SOL    HW219902   3.186   0.002   2.850
 6448SOL     OW19903   2.415   3.905   2.753
 6448SOL    HW119904   2.411   3.924   2.846
 6448SOL    HW219905   2.411   3.991   2.710
 6449SOL     OW19906   2.053   3.983   3.352
 6449SOL    HW119907   1.999   0.063   3.358
 6449SOL    HW219908   2.017   3.924   3.418
 6450SOL     OW19909   3.267   3.834   2.290
 6450SOL    HW119910   3.258   3.800   2.201
 6450SOL    HW219911   3.360   3.821   2.312
 6451SOL     OW19912   3.398   3.940   3.586
 6451SOL    HW119913   3.423   3.943   3.678
 6451SOL    HW219914   3.330   3.872   3.582
 6452SOL     OW19915   2.489   3.849   1.987
 6452SOL    HW119916   2.580   3.820   1.989
 6452SOL    HW219917   2.450   3.802   1.914
 6453SOL     OW19918   2.635   3.960   3.606
 6453SOL    HW119919   2.688   3.929   3.680
 6453SOL    HW219920   2.549   3.976   3.644
 6454SOL     OW19921   2.396   3.785   2.375
 6454SOL    HW119922   2.347   3.788   2.457
 6454SOL    HW219923   2.406   3.877   2.350
 6455SOL     OW19924   2.149   3.757   2.041
 6455SOL    HW119925   2.190   3.842   2.029
 6455SOL    HW219926   2.217   3.702   2.080
 6456SOL     OW19927   2.420   3.943   3.030
 6456SOL    HW119928   2.461   3.870   3.075
 6456SOL    HW219929   2.328   3.940   3.058
 6457SOL     OW19930   2.882   3.768   2.600
 6457SOL    HW119931   2.817   3.755   2.530
 6457SOL    HW219932   2.858   3.702   2.666
 6458SOL     OW19933   2.784   3.804   3.261
 6458SOL    HW119934   2.813   3.784   3.172
 6458SOL    HW219935   2.857   3.853   3.299
 6459SOL     OW19936   3.128   0.076   3.127
 6459SOL    HW119937   3.142   0.144   3.193
 6459SOL    HW219938   3.061   0.112   3.069
 6460SOL     OW19939   2.370   3.749   3.617
 6460SOL    HW119940   2.316   3.704   3.553
 6460SOL    HW219941   2.337   3.839   3.617
 6461SOL     OW19942   2.157   3.921   3.114
 6461SOL    HW119943   2.113   3.940   3.196
 6461SOL    HW219944   2.145   3.827   3.100
 6462SOL     OW19945   3.443   3.955   1.985
 6462SOL    HW119946   3.379   3.898   2.027
 6462SOL    HW219947   3.456   0.027   2.047
 6463SOL     OW19948   3.025   3.923   3.335
 6463SOL    HW119949   3.029   3.996   3.397
 6463SOL    HW219950   3.066   3.957   3.255
 6464SOL     OW19951   2.763   3.812   1.966
 6464SOL    HW119952   2.824   3.775   1.903
 6464SOL    HW219953   2.802   3.792   2.051
 6465SOL     OW19954   3.589   3.860   2.385
 6465SOL    HW119955   3.657   3.846   2.320
 6465SOL    HW219956   3.569   3.772   2.419
 6466SOL     OW19957   3.696   3.896   2.826
 6466SOL    HW119958   3.730   3.809   2.802
 6466SOL    HW219959   3.611   3.901   2.784
 6467SOL     OW19960   2.537   3.911   3.354
 6467SOL    HW119961   2.619   3.904   3.306
 6467SOL    HW219962   2.563   3.933   3.443
 6468SOL     OW19963   1.907   0.053   1.897
 6468SOL    HW119964   1.867   0.031   1.813
 6468SOL    HW219965   1.939   0.142   1.885
 6469SOL     OW19966   1.925   3.866   2.172
 6469SOL    HW119967   1.913   3.955   2.139
 6469SOL    HW219968   2.007   3.837   2.132
 6470SOL     OW19969   3.053   0.012   2.329
 6470SOL    HW119970   3.123   3.946   2.326
 6470SOL    HW219971   3.076   0.067   2.404
 6471SOL     OW19972   3.647   0.049   3.492
 6471SOL    HW119973   3.606   0.080   3.412
 6471SOL    HW219974   3.576   0.006   3.540
 6472SOL     OW19975   3.679   3.910   3.098
 6472SOL    HW119976   3.668   3.818   3.122
 6472SOL    HW219977   3.687   3.910   3.003
 6473SOL     OW19978   3.301   3.933   2.980
 6473SOL    HW119979   3.330   3.852   3.022
 6473SOL    HW219980   3.242   3.974   3.043
 6474SOL     OW19981   2.876   3.737   3.011
 6474SOL    HW119982   2.818   3.681   2.959
 6474SOL    HW219983   2.962   3.694   3.006
 6475SOL     OW19984   3.216   3.771   2.020
 6475SOL    HW119985   3.248   3.701   1.963
 6475SOL    HW219986   3.129   3.742   2.046
 6476SOL     OW19987   3.144   0.162   2.545
 6476SOL    HW119988   3.143   0.257   2.550
 6476SOL    HW219989   3.150   0.133   2.636
 6477SOL     OW19990   3.441   3.930   2.740
 6477SOL    HW119991   3.389   3.932   2.821
 6477SOL    HW219992   3.438   0.020   2.708
 6478SOL     OW19993   2.094   3.982   4.708
 6478SOL    HW119994   2.118   3.963   4.799
 6478SOL    HW219995   2.003   3.953   4.700
 6479SOL     OW19996   1.876   0.061   4.437
 6479SOL    HW119997   1.804   0.115   4.404
 6479SOL    HW219998   1.905   0.011   4.360
 6480SOL     OW19999   3.635   0.320   3.908
 6480SOL    HW120000   3.559   0.305   3.852
 6480SOL    HW220001   3.598   0.340   3.994
 6481SOL     OW20002   2.300   0.096   5.230
 6481SOL    HW120003   2.374   0.055   5.185
 6481SOL    HW220004   2.225   0.042   5.209
 6482SOL     OW20005   3.459   3.849   5.186
 6482SOL    HW120006   3.460   3.935   5.144
 6482SOL    HW220007   3.445   3.867   5.279
 6483SOL     OW20008   2.668   3.729   4.227
 6483SOL    HW120009   2.694   3.821   4.222
 6483SOL    HW220010   2.573   3.732   4.238
 6484SOL     OW20011   3.130   0.062   4.663
 6484SOL    HW120012   3.059   0.007   4.630
 6484SOL    HW220013   3.186   0.002   4.712
 6485SOL     OW20014   2.415   3.905   4.614
 6485SOL    HW120015   2.411   3.924   4.708
 6485SOL    HW220016   2.411   3.991   4.572
 6486SOL     OW20017   2.052   3.984   5.213
 6486SOL    HW120018   2.000   0.063   5.220
 6486SOL    HW220019   2.016   3.926   5.281
 6487SOL     OW20020   3.267   3.834   4.152
 6487SOL    HW120021   3.258   3.800   4.063
 6487SOL    HW220022   3.360   3.821   4.174
 6488SOL     OW20023   3.398   3.939   5.448
 6488SOL    HW120024   3.423   3.943   5.541
 6488SOL    HW220025   3.330   3.872   5.444
 6489SOL     OW20026   2.489   3.849   3.849
 6489SOL    HW120027   2.580   3.820   3.851
 6489SOL    HW220028   2.450   3.802   3.776
 6490SOL     OW20029   2.635   3.960   5.468
 6490SOL    HW120030   2.688   3.929   5.542
 6490SOL    HW220031   2.549   3.976   5.506
 6491SOL     OW20032   2.396   3.785   4.237
 6491SOL    HW120033   2.347   3.788   4.319
 6491SOL    HW220034   2.406   3.877   4.212
 6492SOL     OW20035   2.149   3.757   3.903
 6492SOL    HW120036   2.190   3.842   3.892
 6492SOL    HW220037   2.217   3.702   3.942
 6493SOL     OW20038   2.420   3.943   4.892
 6493SOL    HW120039   2.461   3.870   4.937
 6493SOL    HW220040   2.328   3.940   4.920
 6494SOL     OW20041   2.882   3.768   4.462
 6494SOL    HW120042   2.817   3.755   4.392
 6494SOL    HW220043   2.859   3.702   4.528
 6495SOL     OW20044   2.784   3.804   5.123
 6495SOL    HW120045   2.813   3.784   5.034
 6495SOL    HW220046   2.857   3.853   5.161
 6496SOL     OW20047   3.128   0.076   4.989
 6496SOL    HW120048   3.142   0.144   5.055
 6496SOL    HW220049   3.061   0.112   4.931
 6497SOL     OW20050   2.370   3.749   5.479
 6497SOL    HW120051   2.316   3.704   5.415
 6497SOL    HW220052   2.337   3.839   5.479
 6498SOL     OW20053   2.157   3.921   4.976
 6498SOL    HW120054   2.113   3.940   5.058
 6498SOL    HW220055   2.145   3.827   4.962
 6499SOL     OW20056   3.443   3.955   3.847
 6499SOL    HW120057   3.379   3.898   3.889
 6499SOL    HW220058   3.456   0.027   3.909
 6500SOL     OW20059   3.025   3.923   5.197
 6500SOL    HW120060   3.029   3.996   5.259
 6500SOL    HW220061   3.066   3.957   5.117
 6501SOL     OW20062   2.763   3.812   3.828
 6501SOL    HW120063   2.824   3.775   3.765
 6501SOL    HW220064   2.802   3.792   3.913
 6502SOL     OW20065   3.589   3.860   4.247
 6502SOL    HW120066   3.657   3.846   4.182
 6502SOL    HW220067   3.569   3.772   4.281
 6503SOL     OW20068   3.696   3.896   4.688
 6503SOL    HW120069   3.730   3.809   4.664
 6503SOL    HW220070   3.611   3.901   4.646
 6504SOL     OW20071   2.537   3.911   5.216
 6504SOL    HW120072   2.619   3.904   5.168
 6504SOL    HW220073   2.563   3.933   5.305
 6505SOL     OW20074   1.907   0.053   3.759
 6505SOL    HW120075   1.867   0.031   3.675
 6505SOL    HW220076   1.939   0.142   3.747
 6506SOL     OW20077   1.925   3.866   4.034
 6506SOL    HW120078   1.913   3.955   4.002
 6506SOL    HW220079   2.007   3.837   3.994
 6507SOL     OW20080   3.053   0.012   4.191
 6507SOL    HW120081   3.123   3.946   4.188
 6507SOL    HW220082   3.076   0.067   4.266
 6508SOL     OW20083   3.647   0.049   5.354
 6508SOL    HW120084   3.606   0.080   5.274
 6508SOL    HW220085   3.576   0.006   5.402
 6509SOL     OW20086   3.679   3.910   4.960
 6509SOL    HW120087   3.668   3.818   4.984
 6509SOL    HW220088   3.687   3.910   4.865
 6510SOL     OW20089   3.301   3.933   4.842
 6510SOL    HW120090   3.329   3.852   4.884
 6510SOL    HW220091   3.242   3.974   4.905
 6511SOL     OW20092   2.876   3.737   4.873
 6511SOL    HW120093   2.818   3.681   4.821
 6511SOL    HW220094   2.962   3.694   4.868
 6512SOL     OW20095   3.216   3.771   3.882
 6512SOL    HW120096   3.248   3.701   3.825
 6512SOL    HW220097   3.129   3.742   3.908
 6513SOL     OW20098   3.144   0.162   4.407
 6513SOL    HW120099   3.143   0.257   4.412
 6513SOL    HW220100   3.150   0.133   4.498
 6514SOL     OW20101   3.441   3.930   4.602
 6514SOL    HW120102   3.389   3.932   4.683
 6514SOL    HW220103   3.438   0.020   4.570
 6515SOL     OW20104   2.095   3.981   6.570
 6515SOL    HW120105   2.118   3.963   6.661
 6515SOL    HW220106   2.003   3.953   6.562
 6516SOL     OW20107   1.876   0.060   6.299
 6516SOL    HW120108   1.805   0.116   6.267
 6516SOL    HW220109   1.905   0.012   6.222
 6517SOL     OW20110   3.635   0.320   5.770
 6517SOL    HW120111   3.559   0.305   5.714
 6517SOL    HW220112   3.598   0.340   5.856
 6518SOL     OW20113   2.301   0.096   7.093
 6518SOL    HW120114   2.373   0.054   7.046
 6518SOL    HW220115   2.225   0.042   7.071
 6519SOL     OW20116   3.459   3.849   7.048
 6519SOL    HW120117   3.460   3.935   7.006
 6519SOL    HW220118   3.445   3.868   7.141
 6520SOL     OW20119   2.668   3.729   6.089
 6520SOL    HW120120   2.694   3.821   6.084
 6520SOL    HW220121   2.573   3.732   6.100
 6521SOL     OW20122   3.129   0.062   6.525
 6521SOL    HW120123   3.059   0.007   6.491
 6521SOL    HW220124   3.186   0.002   6.574
 6522SOL     OW20125   2.415   3.905   6.476
 6522SOL    HW120126   2.410   3.924   6.570
 6522SOL    HW220127   2.411   3.991   6.434
 6523SOL     OW20128   2.052   3.984   7.075
 6523SOL    HW120129   2.000   0.063   7.081
 6523SOL    HW220130   2.017   3.926   7.143
 6524SOL     OW20131   3.267   3.835   6.014
 6524SOL    HW120132   3.258   3.800   5.925
 6524SOL    HW220133   3.359   3.821   6.036
 6525SOL     OW20134   3.398   3.940   7.310
 6525SOL    HW120135   3.423   3.943   7.402
 6525SOL    HW220136   3.331   3.872   7.306
 6526SOL     OW20137   2.489   3.849   5.712
 6526SOL    HW120138   2.580   3.820   5.713
 6526SOL    HW220139   2.450   3.802   5.638
 6527SOL     OW20140   2.635   3.960   7.330
 6527SOL    HW120141   2.688   3.929   7.404
 6527SOL    HW220142   2.548   3.976   7.368
 6528SOL     OW20143   2.396   3.785   6.099
 6528SOL    HW120144   2.348   3.788   6.182
 6528SOL    HW220145   2.406   3.877   6.074
 6529SOL     OW20146   2.149   3.757   5.765
 6529SOL    HW120147   2.190   3.843   5.754
 6529SOL    HW220148   2.217   3.702   5.804
 6530SOL     OW20149   2.420   3.943   6.754
 6530SOL    HW120150   2.461   3.870   6.798
 6530SOL    HW220151   2.328   3.940   6.782
 6531SOL     OW20152   2.881   3.768   6.324
 6531SOL    HW120153   2.817   3.755   6.254
 6531SOL    HW220154   2.859   3.702   6.390
 6532SOL     OW20155   2.784   3.804   6.985
 6532SOL    HW120156   2.813   3.784   6.896
 6532SOL    HW220157   2.858   3.853   7.023
 6533SOL     OW20158   3.128   0.076   6.851
 6533SOL    HW120159   3.141   0.144   6.917
 6533SOL    HW220160   3.061   0.111   6.793
 6534SOL     OW20161   2.370   3.750   7.341
 6534SOL    HW120162   2.316   3.704   7.277
 6534SOL    HW220163   2.338   3.840   7.340
 6535SOL     OW20164   2.157   3.921   6.838
 6535SOL    HW120165   2.113   3.939   6.920
 6535SOL    HW220166   2.144   3.827   6.824
 6536SOL     OW20167   3.443   3.955   5.709
 6536SOL    HW120168   3.379   3.898   5.751
 6536SOL    HW220169   3.456   0.028   5.771
 6537SOL     OW20170   3.025   3.923   7.059
 6537SOL    HW120171   3.029   3.996   7.121
 6537SOL    HW220172   3.066   3.956   6.979
 6538SOL     OW20173   2.763   3.812   5.690
 6538SOL    HW120174   2.824   3.775   5.627
 6538SOL    HW220175   2.802   3.792   5.775
 6539SOL     OW20176   3.589   3.860   6.109
 6539SOL    HW120177   3.657   3.846   6.044
 6539SOL    HW220178   3.569   3.772   6.143
 6540SOL     OW20179   3.697   3.896   6.550
 6540SOL    HW120180   3.730   3.809   6.526
 6540SOL    HW220181   3.611   3.901   6.508
 6541SOL     OW20182   2.537   3.911   7.078
 6541SOL    HW120183   2.619   3.903   7.030
 6541SOL    HW220184   2.563   3.933   7.167
 6542SOL     OW20185   1.908   0.052   5.620
 6542SOL    HW120186   1.867   0.031   5.536
 6542SOL    HW220187   1.939   0.142   5.609
 6543SOL     OW20188   1.925   3.866   5.896
 6543SOL    HW120189   1.913   3.956   5.864
 6543SOL    HW220190   2.007   3.837   5.856
 6544SOL     OW20191   3.054   0.012   6.053
 6544SOL    HW120192   3.123   3.946   6.050
 6544SOL    HW220193   3.076   0.067   6.128
 6545SOL     OW20194   3.647   0.049   7.217
 6545SOL    HW120195   3.606   0.080   7.136
 6545SOL    HW220196   3.576   0.006   7.264
 6546SOL     OW20197   3.679   3.910   6.822
 6546SOL    HW120198   3.668   3.818   6.846
 6546SOL    HW220199   3.687   3.910   6.727
 6547SOL     OW20200   3.301   3.933   6.703
 6547SOL    HW120201   3.329   3.852   6.745
 6547SOL    HW220202   3.243   3.974   6.767
 6548SOL     OW20203   2.876   3.736   6.735
 6548SOL    HW120204   2.819   3.680   6.683
 6548SOL    HW220205   2.962   3.694   6.730
 6549SOL     OW20206   3.216   3.771   5.744
 6549SOL    HW120207   3.248   3.701   5.687
 6549SOL    HW220208   3.129   3.742   5.770
 6550SOL     OW20209   3.145   0.162   6.269
 6550SOL    HW120210   3.143   0.257   6.274
 6550SOL    HW220211   3.150   0.133   6.360
 6551SOL     OW20212   3.441   3.931   6.464
 6551SOL    HW120213   3.389   3.932   6.545
 6551SOL    HW220214   3.438   0.021   6.432
 6552SOL     OW20215   2.094   3.982   8.432
 6552SOL    HW120216   2.118   3.963   8.523
 6552SOL    HW220217   2.003   3.953   8.424
 6553SOL     OW20218   1.876   0.061   8.161
 6553SOL    HW120219   1.805   0.116   8.129
 6553SOL    HW220220   1.905   0.011   8.084
 6554SOL     OW20221   3.635   0.321   7.632
 6554SOL    HW120222   3.559   0.305   7.576
 6554SOL    HW220223   3.598   0.340   7.718
 6555SOL     OW20224   2.301   0.096   8.954
 6555SOL    HW120225   2.373   0.055   8.909
 6555SOL    HW220226   2.225   0.042   8.933
 6556SOL     OW20227   3.459   3.849   8.910
 6556SOL    HW120228   3.461   3.935   8.868
 6556SOL    HW220229   3.445   3.868   9.003
 6557SOL     OW20230   2.668   3.729   7.952
 6557SOL    HW120231   2.695   3.821   7.946
 6557SOL    HW220232   2.573   3.732   7.962
 6558SOL     OW20233   3.129   0.062   8.387
 6558SOL    HW120234   3.059   0.007   8.353
 6558SOL    HW220235   3.186   0.002   8.436
 6559SOL     OW20236   2.415   3.905   8.339
 6559SOL    HW120237   2.410   3.924   8.432
 6559SOL    HW220238   2.411   3.990   8.296
 6560SOL     OW20239   2.053   3.984   8.938
 6560SOL    HW120240   1.999   0.063   8.944
 6560SOL    HW220241   2.017   3.925   9.004
 6561SOL     OW20242   3.267   3.834   7.876
 6561SOL    HW120243   3.258   3.800   7.787
 6561SOL    HW220244   3.359   3.820   7.898
 6562SOL     OW20245   3.398   3.940   9.172
 6562SOL    HW120246   3.423   3.943   9.265
 6562SOL    HW220247   3.330   3.872   9.168
 6563SOL     OW20248   2.489   3.849   7.574
 6563SOL    HW120249   2.580   3.820   7.575
 6563SOL    HW220250   2.450   3.802   7.500
 6564SOL     OW20251   2.635   3.960   9.192
 6564SOL    HW120252   2.688   3.929   9.266
 6564SOL    HW220253   2.549   3.976   9.230
 6565SOL     OW20254   2.396   3.785   7.961
 6565SOL    HW120255   2.347   3.788   8.043
 6565SOL    HW220256   2.406   3.877   7.936
 6566SOL     OW20257   2.149   3.757   7.627
 6566SOL    HW120258   2.190   3.843   7.616
 6566SOL    HW220259   2.217   3.703   7.665
 6567SOL     OW20260   2.420   3.943   8.616
 6567SOL    HW120261   2.461   3.870   8.662
 6567SOL    HW220262   2.328   3.940   8.643
 6568SOL     OW20263   2.882   3.768   8.186
 6568SOL    HW120264   2.817   3.755   8.116
 6568SOL    HW220265   2.858   3.702   8.252
 6569SOL     OW20266   2.785   3.804   8.847
 6569SOL    HW120267   2.813   3.784   8.758
 6569SOL    HW220268   2.858   3.853   8.885
 6570SOL     OW20269   3.128   0.076   8.713
 6570SOL    HW120270   3.142   0.144   8.779
 6570SOL    HW220271   3.061   0.112   8.655
 6571SOL     OW20272   2.370   3.749   9.203
 6571SOL    HW120273   2.316   3.704   9.139
 6571SOL    HW220274   2.337   3.839   9.203
 6572SOL     OW20275   2.157   3.921   8.700
 6572SOL    HW120276   2.113   3.940   8.782
 6572SOL    HW220277   2.145   3.827   8.686
 6573SOL     OW20278   3.443   3.955   7.571
 6573SOL    HW120279   3.379   3.898   7.613
 6573SOL    HW220280   3.456   0.027   7.633
 6574SOL     OW20281   3.025   3.923   8.921
 6574SOL    HW120282   3.029   3.996   8.983
 6574SOL    HW220283   3.066   3.957   8.841
 6575SOL     OW20284   2.763   3.811   7.552
 6575SOL    HW120285   2.824   3.775   7.488
 6575SOL    HW220286   2.803   3.792   7.637
 6576SOL     OW20287   3.589   3.860   7.971
 6576SOL    HW120288   3.657   3.846   7.906
 6576SOL    HW220289   3.569   3.772   8.005
 6577SOL     OW20290   3.696   3.896   8.412
 6577SOL    HW120291   3.730   3.809   8.388
 6577SOL    HW220292   3.611   3.901   8.370
 6578SOL     OW20293   2.537   3.911   8.940
 6578SOL    HW120294   2.619   3.904   8.892
 6578SOL    HW220295   2.563   3.933   9.029
 6579SOL     OW20296   1.908   0.053   7.482
 6579SOL    HW120297   1.867   0.031   7.398
 6579SOL    HW220298   1.939   0.142   7.471
 6580SOL     OW20299   1.925   3.866   7.758
 6580SOL    HW120300   1.913   3.955   7.726
 6580SOL    HW220301   2.007   3.837   7.718
 6581SOL     OW20302   3.053   0.011   7.916
 6581SOL    HW120303   3.122   3.946   7.912
 6581SOL    HW220304   3.076   0.067   7.990
 6582SOL     OW20305   3.647   0.049   9.078
 6582SOL    HW120306   3.606   0.080   8.998
 6582SOL    HW220307   3.576   0.006   9.126
 6583SOL     OW20308   3.678   3.910   8.684
 6583SOL    HW120309   3.668   3.818   8.708
 6583SOL    HW220310   3.687   3.910   8.589
 6584SOL     OW20311   3.301   3.933   8.565
 6584SOL    HW120312   3.330   3.852   8.608
 6584SOL    HW220313   3.242   3.974   8.629
 6585SOL     OW20314   2.876   3.736   8.597
 6585SOL    HW120315   2.819   3.680   8.545
 6585SOL    HW220316   2.962   3.694   8.592
 6586SOL     OW20317   3.216   3.771   7.606
 6586SOL    HW120318   3.249   3.700   7.550
 6586SOL    HW220319   3.129   3.742   7.632
 6587SOL     OW20320   3.144   0.162   8.131
 6587SOL    HW120321   3.143   0.257   8.136
 6587SOL    HW220322   3.150   0.133   8.222
 6588SOL     OW20323   3.441   3.930   8.326
 6588SOL    HW120324   3.389   3.932   8.407
 6588SOL    HW220325   3.438   0.020   8.294
 6589SOL     OW20326   2.094   3.982  10.294
 6589SOL    HW120327   2.118   3.963  10.385
 6589SOL    HW220328   2.003   3.953  10.286
 6590SOL     OW20329   1.876   0.061  10.023
 6590SOL    HW120330   1.804   0.115   9.990
 6590SOL    HW220331   1.905   0.011   9.946
 6591SOL     OW20332   3.635   0.320   9.494
 6591SOL    HW120333   3.559   0.305   9.438
 6591SOL    HW220334   3.598   0.340   9.580
 6592SOL     OW20335   2.300   0.096  10.817
 6592SOL    HW120336   2.373   0.055  10.771
 6592SOL    HW220337   2.225   0.042  10.795
 6593SOL     OW20338   3.459   3.849  10.772
 6593SOL    HW120339   3.461   3.935  10.730
 6593SOL    HW220340   3.445   3.867  10.865
 6594SOL     OW20341   2.668   3.729   9.813
 6594SOL    HW120342   2.694   3.821   9.808
 6594SOL    HW220343   2.573   3.732   9.824
 6595SOL     OW20344   3.130   0.062  10.249
 6595SOL    HW120345   3.059   0.007  10.216
 6595SOL    HW220346   3.186   0.002  10.298
 6596SOL     OW20347   2.415   3.905  10.201
 6596SOL    HW120348   2.411   3.924  10.294
 6596SOL    HW220349   2.411   3.991  10.158
 6597SOL     OW20350   2.052   3.984  10.799
 6597SOL    HW120351   2.000   0.063  10.806
 6597SOL    HW220352   2.017   3.925  10.866
 6598SOL     OW20353   3.267   3.834   9.738
 6598SOL    HW120354   3.258   3.800   9.649
 6598SOL    HW220355   3.360   3.821   9.760
 6599SOL     OW20356   3.398   3.940  11.034
 6599SOL    HW120357   3.423   3.942  11.127
 6599SOL    HW220358   3.330   3.872  11.030
 6600SOL     OW20359   2.489   3.849   9.436
 6600SOL    HW120360   2.580   3.820   9.437
 6600SOL    HW220361   2.450   3.802   9.362
 6601SOL     OW20362   2.635   3.960  11.054
 6601SOL    HW120363   2.688   3.929  11.128
 6601SOL    HW220364   2.549   3.976  11.092
 6602SOL     OW20365   2.396   3.785   9.823
 6602SOL    HW120366   2.347   3.788   9.905
 6602SOL    HW220367   2.406   3.877   9.798
 6603SOL     OW20368   2.149   3.757   9.489
 6603SOL    HW120369   2.190   3.843   9.478
 6603SOL    HW220370   2.217   3.702   9.528
 6604SOL     OW20371   2.420   3.943  10.478
 6604SOL    HW120372   2.461   3.870  10.523
 6604SOL    HW220373   2.328   3.940  10.506
 6605SOL     OW20374   2.882   3.768  10.048
 6605SOL    HW120375   2.817   3.755   9.978
 6605SOL    HW220376   2.858   3.702  10.114
 6606SOL     OW20377   2.784   3.804  10.709
 6606SOL    HW120378   2.813   3.784  10.620
 6606SOL    HW220379   2.857   3.853  10.747
 6607SOL     OW20380   3.128   0.076  10.575
 6607SOL    HW120381   3.142   0.144  10.641
 6607SOL    HW220382   3.061   0.112  10.517
 6608SOL     OW20383   2.370   3.749  11.065
 6608SOL    HW120384   2.316   3.704  11.001
 6608SOL    HW220385   2.337   3.839  11.065
 6609SOL     OW20386   2.157   3.921  10.561
 6609SOL    HW120387   2.113   3.940  10.644
 6609SOL    HW220388   2.145   3.827  10.548
 6610SOL     OW20389   3.443   3.955   9.433
 6610SOL    HW120390   3.379   3.898   9.475
 6610SOL    HW220391   3.456   0.027   9.495
 6611SOL     OW20392   3.025   3.923  10.783
 6611SOL    HW120393   3.029   3.996  10.845
 6611SOL    HW220394   3.066   3.957  10.703
 6612SOL     OW20395   2.763   3.812   9.414
 6612SOL    HW120396   2.824   3.775   9.351
 6612SOL    HW220397   2.802   3.792   9.499
 6613SOL     OW20398   3.589   3.860   9.833
 6613SOL    HW120399   3.657   3.846   9.768
 6613SOL    HW220400   3.569   3.772   9.867
 6614SOL     OW20401   3.696   3.896  10.274
 6614SOL    HW120402   3.730   3.809  10.250
 6614SOL    HW220403   3.611   3.901  10.232
 6615SOL     OW20404   2.537   3.911  10.802
 6615SOL    HW120405   2.619   3.904  10.754
 6615SOL    HW220406   2.563   3.933  10.891
 6616SOL     OW20407   1.907   0.053   9.344
 6616SOL    HW120408   1.867   0.031   9.260
 6616SOL    HW220409   1.939   0.142   9.333
 6617SOL     OW20410   1.925   3.866   9.620
 6617SOL    HW120411   1.913   3.955   9.588
 6617SOL    HW220412   2.007   3.837   9.580
 6618SOL     OW20413   3.053   0.012   9.777
 6618SOL    HW120414   3.123   3.946   9.774
 6618SOL    HW220415   3.076   0.067   9.852
 6619SOL     OW20416   3.647   0.049  10.940
 6619SOL    HW120417   3.606   0.080  10.860
 6619SOL    HW220418   3.576   0.006  10.988
 6620SOL     OW20419   3.679   3.910  10.546
 6620SOL    HW120420   3.668   3.818  10.570
 6620SOL    HW220421   3.687   3.910  10.451
 6621SOL     OW20422   3.301   3.933  10.427
 6621SOL    HW120423   3.330   3.852  10.470
 6621SOL    HW220424   3.242   3.974  10.491
 6622SOL     OW20425   2.876   3.737  10.459
 6622SOL    HW120426   2.818   3.681  10.407
 6622SOL    HW220427   2.962   3.694  10.454
 6623SOL     OW20428   3.216   3.771   9.468
 6623SOL    HW120429   3.248   3.701   9.411
 6623SOL    HW220430   3.129   3.742   9.495
 6624SOL     OW20431   3.144   0.162   9.993
 6624SOL    HW120432   3.143   0.257   9.998
 6624SOL    HW220433   3.150   0.133  10.084
 6625SOL     OW20434   3.441   3.930  10.188
 6625SOL    HW120435   3.389   3.932  10.269
 6625SOL    HW220436   3.438   0.020  10.156
 6626SOL     OW20437   2.094   3.982  12.156
 6626SOL    HW120438   2.118   3.963  12.247
 6626SOL    HW220439   2.003   3.953  12.148
 6627SOL     OW20440   1.876   0.061  11.885
 6627SOL    HW120441   1.804   0.115  11.852
 6627SOL    HW220442   1.905   0.011  11.808
 6628SOL     OW20443   3.635   0.320  11.356
 6628SOL    HW120444   3.559   0.305  11.300
 6628SOL    HW220445   3.598   0.340  11.442
 6629SOL     OW20446   2.301   0.096  12.678
 6629SOL    HW120447   2.373   0.055  12.633
 6629SOL    HW220448   2.225   0.042  12.657
 6630SOL     OW20449   3.459   3.849  12.634
 6630SOL    HW120450   3.460   3.936  12.592
 6630SOL    HW220451   3.445   3.867  12.727
 6631SOL     OW20452   2.668   3.729  11.675
 6631SOL    HW120453   2.694   3.821  11.670
 6631SOL    HW220454   2.573   3.732  11.686
 6632SOL     OW20455   3.130   0.062  12.111
 6632SOL    HW120456   3.059   0.007  12.078
 6632SOL    HW220457   3.186   0.002  12.160
 6633SOL     OW20458   2.415   3.905  12.063
 6633SOL    HW120459   2.411   3.924  12.156
 6633SOL    HW220460   2.411   3.991  12.020
 6634SOL     OW20461   2.053   3.983  12.662
 6634SOL    HW120462   1.999   0.062  12.668
 6634SOL    HW220463   2.017   3.924  12.728
 6635SOL     OW20464   3.267   3.834  11.600
 6635SOL    HW120465   3.258   3.800  11.511
 6635SOL    HW220466   3.360   3.821  11.622
 6636SOL     OW20467   3.397   3.940  12.896
 6636SOL    HW120468   3.421   3.944  12.989
 6636SOL    HW220469   3.330   3.872  12.892
 6637SOL     OW20470   2.489   3.849  11.298
 6637SOL    HW120471   2.580   3.820  11.299
 6637SOL    HW220472   2.450   3.802  11.224
 6638SOL     OW20473   2.635   3.960  12.917
 6638SOL    HW120474   2.688   3.929  12.990
 6638SOL    HW220475   2.548   3.975  12.954
 6639SOL     OW20476   2.396   3.785  11.685
 6639SOL    HW120477   2.347   3.788  11.767
 6639SOL    HW220478   2.406   3.877  11.660
 6640SOL     OW20479   2.149   3.757  11.351
 6640SOL    HW120480   2.190   3.842  11.340
 6640SOL    HW220481   2.217   3.702  11.390
 6641SOL     OW20482   2.420   3.943  12.340
 6641SOL    HW120483   2.461   3.870  12.385
 6641SOL    HW220484   2.328   3.940  12.368
 6642SOL     OW20485   2.882   3.768  11.910
 6642SOL    HW120486   2.817   3.755  11.840
 6642SOL    HW220487   2.859   3.702  11.976
 6643SOL     OW20488   2.784   3.804  12.571
 6643SOL    HW120489   2.813   3.784  12.482
 6643SOL    HW220490   2.858   3.853  12.609
 6644SOL     OW20491   3.128   0.076  12.437
 6644SOL    HW120492   3.141   0.144  12.503
 6644SOL    HW220493   3.061   0.111  12.379
 6645SOL     OW20494   2.370   3.749  12.927
 6645SOL    HW120495   2.316   3.704  12.863
 6645SOL    HW220496   2.337   3.839  12.927
 6646SOL     OW20497   2.157   3.921  12.423
 6646SOL    HW120498   2.113   3.940  12.506
 6646SOL    HW220499   2.145   3.827  12.410
 6647SOL     OW20500   3.443   3.955  11.295
 6647SOL    HW120501   3.379   3.898  11.337
 6647SOL    HW220502   3.456   0.028  11.357
 6648SOL     OW20503   3.025   3.923  12.645
 6648SOL    HW120504   3.029   3.996  12.707
 6648SOL    HW220505   3.066   3.957  12.565
 6649SOL     OW20506   2.763   3.812  11.276
 6649SOL    HW120507   2.824   3.775  11.213
 6649SOL    HW220508   2.802   3.792  11.361
 6650SOL     OW20509   3.589   3.860  11.695
 6650SOL    HW120510   3.657   3.846  11.630
 6650SOL    HW220511   3.569   3.772  11.729
 6651SOL     OW20512   3.696   3.896  12.136
 6651SOL    HW120513   3.730   3.809  12.112
 6651SOL    HW220514   3.611   3.901  12.094
 6652SOL     OW20515   2.537   3.911  12.664
 6652SOL    HW120516   2.619   3.903  12.616
 6652SOL    HW220517   2.563   3.933  12.753
 6653SOL     OW20518   1.907   0.053  11.206
 6653SOL    HW120519   1.867   0.031  11.122
 6653SOL    HW220520   1.939   0.142  11.195
 6654SOL     OW20521   1.925   3.866  11.482
 6654SOL    HW120522   1.913   3.955  11.450
 6654SOL    HW220523   2.007   3.837  11.442
 6655SOL     OW20524   3.053   0.012  11.639
 6655SOL    HW120525   3.123   3.946  11.636
 6655SOL    HW220526   3.076   0.067  11.714
 6656SOL     OW20527   3.647   0.049  12.802
 6656SOL    HW120528   3.605   0.080  12.721
 6656SOL    HW220529   3.576   0.006  12.850
 6657SOL     OW20530   3.679   3.910  12.408
 6657SOL    HW120531   3.668   3.818  12.432
 6657SOL    HW220532   3.687   3.910  12.313
 6658SOL     OW20533   3.301   3.933  12.290
 6658SOL    HW120534   3.329   3.852  12.332
 6658SOL    HW220535   3.242   3.974  12.353
 6659SOL     OW20536   2.876   3.737  12.321
 6659SOL    HW120537   2.818   3.681  12.269
 6659SOL    HW220538   2.962   3.694  12.316
 6660SOL     OW20539   3.216   3.771  11.330
 6660SOL    HW120540   3.248   3.701  11.273
 6660SOL    HW220541   3.129   3.742  11.357
 6661SOL     OW20542   3.144   0.162  11.855
 6661SOL    HW120543   3.143   0.257  11.860
 6661SOL    HW220544   3.150   0.133  11.946
 6662SOL     OW20545   3.441   3.930  12.050
 6662SOL    HW120546   3.389   3.932  12.131
 6662SOL    HW220547   3.438   0.021  12.018
 6663SOL     OW20548   1.882   0.090  13.687
 6663SOL    HW120549   1.801   0.109  13.735
 6663SOL    HW220550   1.871   0.000  13.656
 6664SOL     OW20551   3.635   0.318  13.217
 6664SOL    HW120552   3.558   0.305  13.162
 6664SOL    HW220553   3.599   0.333  13.305
 6665SOL     OW20554   3.465   0.174  13.765
 6665SOL    HW120555   3.377   0.156  13.734
 6665SOL    HW220556   3.459   0.261  13.806
 6666SOL     OW20557   2.670   3.730  13.539
 6666SOL    HW120558   2.694   3.822  13.532
 6666SOL    HW220559   2.575   3.730  13.549
 6667SOL     OW20560   3.268   3.837  13.460
 6667SOL    HW120561   3.262   3.800  13.372
 6667SOL    HW220562   3.360   3.828  13.484
 6668SOL     OW20563   2.489   3.850  13.159
 6668SOL    HW120564   2.580   3.820  13.161
 6668SOL    HW220565   2.450   3.802  13.086
 6669SOL     OW20566   2.398   3.782  13.546
 6669SOL    HW120567   2.344   3.773  13.624
 6669SOL    HW220568   2.402   3.876  13.531
 6670SOL     OW20569   2.149   3.757  13.212
 6670SOL    HW120570   2.191   3.842  13.201
 6670SOL    HW220571   2.215   3.702  13.253
 6671SOL     OW20572   2.874   3.764  13.773
 6671SOL    HW120573   2.817   3.759  13.696
 6671SOL    HW220574   2.854   3.685  13.823
 6672SOL     OW20575   3.442   3.959  13.157
 6672SOL    HW120576   3.384   3.897  13.201
 6672SOL    HW220577   3.473   0.016  13.227
 6673SOL     OW20578   2.763   3.812  13.138
 6673SOL    HW120579   2.824   3.775  13.074
 6673SOL    HW220580   2.802   3.791  13.223
 6674SOL     OW20581   3.590   3.858  13.565
 6674SOL    HW120582   3.658   3.848  13.498
 6674SOL    HW220583   3.573   3.769  13.596
 6675SOL     OW20584   3.712   3.892   0.047
 6675SOL    HW120585   3.744   3.803   0.057
 6675SOL    HW220586   3.622   3.890   0.081
 6676SOL     OW20587   1.908   0.052  13.066
 6676SOL    HW120588   1.867   0.031  12.982
 6676SOL    HW220589   1.939   0.142  13.056
 6677SOL     OW20590   1.923   3.867  13.343
 6677SOL    HW120591   1.915   3.959  13.318
 6677SOL    HW220592   2.005   3.839  13.302
 6678SOL     OW20593   3.049   0.004  13.514
 6678SOL    HW120594   3.122   3.945  13.496
 6678SOL    HW220595   3.082   0.063  13.582
 6679SOL     OW20596   3.217   3.771  13.192
 6679SOL    HW120597   3.248   3.700  13.135
 6679SOL    HW220598   3.129   3.743  13.219
 6680SOL     OW20599   3.172   0.157  13.734
 6680SOL    HW120600   3.136   0.244  13.716
 6680SOL    HW220601   3.155   0.143  13.827
 6681SOL     OW20602   3.955   0.631   0.125
 6681SOL    HW120603   3.889   0.629   0.195
 6681SOL    HW220604   3.917   0.576   0.056
 6682SOL     OW20605   3.953   0.296   0.992
 6682SOL    HW120606   3.964   0.273   1.084
 6682SOL    HW220607   3.867   0.261   0.968
 6683SOL     OW20608   3.731   0.393   0.639
 6683SOL    HW120609   3.644   0.407   0.675
 6683SOL    HW220610   3.722   0.316   0.583
 6684SOL     OW20611   0.013   1.523   1.050
 6684SOL    HW120612   3.962   1.442   1.036
 6684SOL    HW220613   0.081   1.520   0.983
 6685SOL     OW20614   3.947   1.718   0.473
 6685SOL    HW120615   3.946   1.792   0.534
 6685SOL    HW220616   0.039   1.706   0.450
 6686SOL     OW20617   3.937   1.438   0.508
 6686SOL    HW120618   3.926   1.533   0.512
 6686SOL    HW220619   3.884   1.405   0.581
 6687SOL     OW20620   3.809   0.648   0.557
 6687SOL    HW120621   3.793   0.557   0.582
 6687SOL    HW220622   3.812   0.696   0.640
 6688SOL     OW20623   3.697   1.616   0.101
 6688SOL    HW120624   3.731   1.529   0.119
 6688SOL    HW220625   3.700   1.661   0.185
 6689SOL     OW20626   3.826   0.749   1.578
 6689SOL    HW120627   3.909   0.790   1.602
 6689SOL    HW220628   3.764   0.822   1.573
 6690SOL     OW20629   3.804   0.818   0.772
 6690SOL    HW120630   3.897   0.813   0.792
 6690SOL    HW220631   3.772   0.891   0.824
 6691SOL     OW20632   3.847   1.869   1.569
 6691SOL    HW120633   3.848   1.840   1.660
 6691SOL    HW220634   3.764   1.836   1.534
 6692SOL     OW20635   3.924   0.310   1.520
 6692SOL    HW120636   3.849   0.357   1.484
 6692SOL    HW220637   3.886   0.247   1.580
 6693SOL     OW20638   3.807   0.548   1.391
 6693SOL    HW120639   3.902   0.546   1.379
 6693SOL    HW220640   3.792   0.624   1.447
 6694SOL     OW20641   3.791   1.573   1.349
 6694SOL    HW120642   3.764   1.636   1.282
 6694SOL    HW220643   3.886   1.580   1.351
 6695SOL     OW20644   0.070   1.094   0.533
 6695SOL    HW120645   0.083   1.152   0.457
 6695SOL    HW220646   0.141   1.030   0.527
 6696SOL     OW20647   0.006   0.215   1.245
 6696SOL    HW120648   3.979   0.240   1.334
 6696SOL    HW220649   0.005   0.119   1.246
 6697SOL     OW20650   3.752   1.311   1.278
 6697SOL    HW120651   3.796   1.262   1.347
 6697SOL    HW220652   3.766   1.403   1.301
 6698SOL     OW20653   3.742   1.317   0.172
 6698SOL    HW120654   3.659   1.332   0.127
 6698SOL    HW220655   3.730   1.234   0.218
 6699SOL     OW20656   3.801   1.794   0.938
 6699SOL    HW120657   3.779   1.713   0.892
 6699SOL    HW220658   3.895   1.805   0.923
 6700SOL     OW20659   0.214   1.552   0.869
 6700SOL    HW120660   0.289   1.612   0.870
 6700SOL    HW220661   0.232   1.491   0.799
 6701SOL     OW20662   3.753   0.535   1.117
 6701SOL    HW120663   3.833   0.527   1.064
 6701SOL    HW220664   3.784   0.546   1.206
 6702SOL     OW20665   3.906   0.530   1.714
 6702SOL    HW120666   3.943   0.477   1.643
 6702SOL    HW220667   3.861   0.602   1.669
 6703SOL     OW20668   3.943   1.533   1.726
 6703SOL    HW120669   3.935   1.614   1.778
 6703SOL    HW220670   3.989   1.473   1.784
 6704SOL     OW20671   3.860   1.132   1.473
 6704SOL    HW120672   3.932   1.124   1.536
 6704SOL    HW220673   3.893   1.093   1.393
 6705SOL     OW20674   3.811   1.267   1.013
 6705SOL    HW120675   3.783   1.278   1.104
 6705SOL    HW220676   3.749   1.202   0.977
 6706SOL     OW20677   3.841   1.791   1.826
 6706SOL    HW120678   3.790   1.726   1.874
 6706SOL    HW220679   3.893   1.835   1.894
 6707SOL     OW20680   3.802   0.403   0.003
 6707SOL    HW120681   3.765   0.321   0.036
 6707SOL    HW220682   3.775   0.406  13.812
 6708SOL     OW20683   3.793   0.145   0.348
 6708SOL    HW120684   3.757   0.222   0.304
 6708SOL    HW220685   3.888   0.159   0.347
 6709SOL     OW20686   3.800   1.235   0.664
 6709SOL    HW120687   3.793   1.187   0.747
 6709SOL    HW220688   3.884   1.207   0.627
 6710SOL     OW20689   3.752   1.080   0.306
 6710SOL    HW120690   3.848   1.085   0.307
 6710SOL    HW220691   3.733   0.988   0.328
 6711SOL     OW20692   3.956   0.631   1.970
 6711SOL    HW120693   3.875   0.634   2.020
 6711SOL    HW220694   3.930   0.598   1.884
 6712SOL     OW20695   3.954   0.294   2.853
 6712SOL    HW120696   3.964   0.273   2.946
 6712SOL    HW220697   3.867   0.261   2.830
 6713SOL     OW20698   3.731   0.392   2.500
 6713SOL    HW120699   3.644   0.408   2.537
 6713SOL    HW220700   3.721   0.316   2.444
 6714SOL     OW20701   0.012   1.523   2.911
 6714SOL    HW120702   3.963   1.442   2.898
 6714SOL    HW220703   0.081   1.520   2.845
 6715SOL     OW20704   3.942   1.720   2.336
 6715SOL    HW120705   3.947   1.792   2.399
 6715SOL    HW220706   0.032   1.703   2.311
 6716SOL     OW20707   3.943   1.439   2.371
 6716SOL    HW120708   3.922   1.532   2.373
 6716SOL    HW220709   3.886   1.400   2.438
 6717SOL     OW20710   3.808   0.648   2.420
 6717SOL    HW120711   3.794   0.557   2.445
 6717SOL    HW220712   3.811   0.696   2.503
 6718SOL     OW20713   3.755   1.596   1.991
 6718SOL    HW120714   3.735   1.504   2.009
 6718SOL    HW220715   3.725   1.643   2.068
 6719SOL     OW20716   3.826   0.749   3.440
 6719SOL    HW120717   3.909   0.790   3.464
 6719SOL    HW220718   3.764   0.822   3.435
 6720SOL     OW20719   3.804   0.817   2.635
 6720SOL    HW120720   3.897   0.813   2.655
 6720SOL    HW220721   3.772   0.891   2.687
 6721SOL     OW20722   3.847   1.869   3.431
 6721SOL    HW120723   3.848   1.839   3.522
 6721SOL    HW220724   3.764   1.836   3.396
 6722SOL     OW20725   3.924   0.310   3.382
 6722SOL    HW120726   3.849   0.357   3.346
 6722SOL    HW220727   3.886   0.247   3.443
 6723SOL     OW20728   3.807   0.548   3.253
 6723SOL    HW120729   3.902   0.546   3.241
 6723SOL    HW220730   3.792   0.624   3.309
 6724SOL     OW20731   0.267   0.290   2.195
 6724SOL    HW120732   0.312   0.225   2.143
 6724SOL    HW220733   0.301   0.374   2.164
 6725SOL     OW20734   3.791   1.573   3.211
 6725SOL    HW120735   3.764   1.636   3.144
 6725SOL    HW220736   3.886   1.580   3.213
 6726SOL     OW20737   0.067   1.093   2.389
 6726SOL    HW120738   0.066   1.139   2.305
 6726SOL    HW220739   0.129   1.021   2.377
 6727SOL     OW20740   0.006   0.215   3.107
 6727SOL    HW120741   3.979   0.240   3.196
 6727SOL    HW220742   0.005   0.120   3.108
 6728SOL     OW20743   3.752   1.311   3.140
 6728SOL    HW120744   3.796   1.262   3.210
 6728SOL    HW220745   3.766   1.403   3.163
 6729SOL     OW20746   3.728   1.327   2.049
 6729SOL    HW120747   3.642   1.340   2.009
 6729SOL    HW220748   3.721   1.243   2.095
 6730SOL     OW20749   3.801   1.795   2.800
 6730SOL    HW120750   3.779   1.714   2.754
 6730SOL    HW220751   3.895   1.805   2.785
 6731SOL     OW20752   0.214   1.553   2.731
 6731SOL    HW120753   0.290   1.611   2.733
 6731SOL    HW220754   0.233   1.490   2.662
 6732SOL     OW20755   3.753   0.535   2.979
 6732SOL    HW120756   3.833   0.528   2.927
 6732SOL    HW220757   3.784   0.546   3.069
 6733SOL     OW20758   3.906   0.530   3.576
 6733SOL    HW120759   3.943   0.477   3.505
 6733SOL    HW220760   3.861   0.602   3.531
 6734SOL     OW20761   3.943   1.533   3.588
 6734SOL    HW120762   3.935   1.614   3.640
 6734SOL    HW220763   3.989   1.473   3.646
 6735SOL     OW20764   3.860   1.132   3.335
 6735SOL    HW120765   3.932   1.125   3.397
 6735SOL    HW220766   3.893   1.093   3.255
 6736SOL     OW20767   3.810   1.267   2.875
 6736SOL    HW120768   3.783   1.278   2.966
 6736SOL    HW220769   3.749   1.202   2.839
 6737SOL     OW20770   3.841   1.791   3.688
 6737SOL    HW120771   3.790   1.726   3.736
 6737SOL    HW220772   3.893   1.835   3.756
 6738SOL     OW20773   3.823   0.316   1.857
 6738SOL    HW120774   3.754   0.334   1.920
 6738SOL    HW220775   3.824   0.393   1.800
 6739SOL     OW20776   3.778   0.152   2.207
 6739SOL    HW120777   3.746   0.208   2.136
 6739SOL    HW220778   3.873   0.153   2.197
 6740SOL     OW20779   3.801   1.238   2.526
 6740SOL    HW120780   3.794   1.188   2.608
 6740SOL    HW220781   3.880   1.204   2.484
 6741SOL     OW20782   3.752   1.082   2.172
 6741SOL    HW120783   3.843   1.083   2.141
 6741SOL    HW220784   3.735   0.990   2.192
 6742SOL     OW20785   3.956   0.631   3.832
 6742SOL    HW120786   3.875   0.634   3.882
 6742SOL    HW220787   3.930   0.598   3.746
 6743SOL     OW20788   3.954   0.294   4.715
 6743SOL    HW120789   3.964   0.273   4.808
 6743SOL    HW220790   3.867   0.261   4.692
 6744SOL     OW20791   3.731   0.392   4.362
 6744SOL    HW120792   3.644   0.408   4.399
 6744SOL    HW220793   3.720   0.316   4.306
 6745SOL     OW20794   0.012   1.523   4.773
 6745SOL    HW120795   3.963   1.442   4.760
 6745SOL    HW220796   0.081   1.520   4.707
 6746SOL     OW20797   3.942   1.720   4.198
 6746SOL    HW120798   3.947   1.792   4.261
 6746SOL    HW220799   0.032   1.703   4.173
 6747SOL     OW20800   3.943   1.439   4.233
 6747SOL    HW120801   3.922   1.532   4.235
 6747SOL    HW220802   3.886   1.400   4.300
 6748SOL     OW20803   3.808   0.648   4.282
 6748SOL    HW120804   3.794   0.557   4.307
 6748SOL    HW220805   3.811   0.696   4.365
 6749SOL     OW20806   3.755   1.596   3.853
 6749SOL    HW120807   3.735   1.504   3.871
 6749SOL    HW220808   3.725   1.643   3.930
 6750SOL     OW20809   3.826   0.749   5.302
 6750SOL    HW120810   3.909   0.790   5.327
 6750SOL    HW220811   3.764   0.822   5.297
 6751SOL     OW20812   3.804   0.817   4.497
 6751SOL    HW120813   3.897   0.813   4.517
 6751SOL    HW220814   3.772   0.891   4.549
 6752SOL     OW20815   3.847   1.869   5.293
 6752SOL    HW120816   3.848   1.839   5.384
 6752SOL    HW220817   3.764   1.836   5.258
 6753SOL     OW20818   3.924   0.310   5.244
 6753SOL    HW120819   3.849   0.357   5.208
 6753SOL    HW220820   3.886   0.247   5.305
 6754SOL     OW20821   3.807   0.548   5.115
 6754SOL    HW120822   3.902   0.546   5.103
 6754SOL    HW220823   3.792   0.624   5.171
 6755SOL     OW20824   0.267   0.290   4.057
 6755SOL    HW120825   0.313   0.225   4.005
 6755SOL    HW220826   0.301   0.374   4.026
 6756SOL     OW20827   3.791   1.573   5.073
 6756SOL    HW120828   3.764   1.636   5.006
 6756SOL    HW220829   3.886   1.580   5.075
 6757SOL     OW20830   0.067   1.093   4.251
 6757SOL    HW120831   0.066   1.139   4.167
 6757SOL    HW220832   0.129   1.021   4.239
 6758SOL     OW20833   0.006   0.215   4.970
 6758SOL    HW120834   3.979   0.240   5.058
 6758SOL    HW220835   0.005   0.120   4.970
 6759SOL     OW20836   3.752   1.311   5.002
 6759SOL    HW120837   3.796   1.262   5.072
 6759SOL    HW220838   3.766   1.403   5.025
 6760SOL     OW20839   3.728   1.327   3.911
 6760SOL    HW120840   3.642   1.340   3.871
 6760SOL    HW220841   3.721   1.243   3.957
 6761SOL     OW20842   3.801   1.795   4.662
 6761SOL    HW120843   3.779   1.714   4.616
 6761SOL    HW220844   3.895   1.805   4.647
 6762SOL     OW20845   0.214   1.552   4.593
 6762SOL    HW120846   0.290   1.611   4.594
 6762SOL    HW220847   0.233   1.490   4.524
 6763SOL     OW20848   3.753   0.535   4.841
 6763SOL    HW120849   3.833   0.528   4.789
 6763SOL    HW220850   3.784   0.546   4.931
 6764SOL     OW20851   3.906   0.530   5.438
 6764SOL    HW120852   3.943   0.477   5.367
 6764SOL    HW220853   3.861   0.602   5.393
 6765SOL     OW20854   3.943   1.534   5.450
 6765SOL    HW120855   3.934   1.614   5.502
 6765SOL    HW220856   3.989   1.473   5.509
 6766SOL     OW20857   3.860   1.132   5.197
 6766SOL    HW120858   3.932   1.125   5.259
 6766SOL    HW220859   3.893   1.093   5.117
 6767SOL     OW20860   3.810   1.267   4.737
 6767SOL    HW120861   3.783   1.278   4.828
 6767SOL    HW220862   3.749   1.202   4.701
 6768SOL     OW20863   3.841   1.791   5.550
 6768SOL    HW120864   3.790   1.726   5.598
 6768SOL    HW220865   3.892   1.835   5.618
 6769SOL     OW20866   3.823   0.316   3.719
 6769SOL    HW120867   3.754   0.334   3.782
 6769SOL    HW220868   3.824   0.393   3.662
 6770SOL     OW20869   3.778   0.152   4.069
 6770SOL    HW120870   3.746   0.208   3.998
 6770SOL    HW220871   3.873   0.153   4.059
 6771SOL     OW20872   3.801   1.238   4.388
 6771SOL    HW120873   3.794   1.188   4.470
 6771SOL    HW220874   3.880   1.203   4.347
 6772SOL     OW20875   3.752   1.082   4.034
 6772SOL    HW120876   3.843   1.083   4.002
 6772SOL    HW220877   3.735   0.990   4.054
 6773SOL     OW20878   3.956   0.631   5.694
 6773SOL    HW120879   3.875   0.634   5.744
 6773SOL    HW220880   3.930   0.598   5.608
 6774SOL     OW20881   3.954   0.294   6.577
 6774SOL    HW120882   3.964   0.273   6.670
 6774SOL    HW220883   3.867   0.261   6.554
 6775SOL     OW20884   3.731   0.392   6.224
 6775SOL    HW120885   3.644   0.407   6.261
 6775SOL    HW220886   3.721   0.316   6.168
 6776SOL     OW20887   0.012   1.523   6.635
 6776SOL    HW120888   3.963   1.442   6.622
 6776SOL    HW220889   0.081   1.520   6.569
 6777SOL     OW20890   3.941   1.720   6.060
 6777SOL    HW120891   3.947   1.792   6.123
 6777SOL    HW220892   0.032   1.703   6.035
 6778SOL     OW20893   3.943   1.439   6.096
 6778SOL    HW120894   3.922   1.532   6.097
 6778SOL    HW220895   3.886   1.400   6.162
 6779SOL     OW20896   3.808   0.648   6.144
 6779SOL    HW120897   3.794   0.557   6.169
 6779SOL    HW220898   3.812   0.696   6.227
 6780SOL     OW20899   3.756   1.596   5.715
 6780SOL    HW120900   3.735   1.504   5.733
 6780SOL    HW220901   3.725   1.643   5.792
 6781SOL     OW20902   3.826   0.749   7.164
 6781SOL    HW120903   3.910   0.790   7.188
 6781SOL    HW220904   3.765   0.823   7.160
 6782SOL     OW20905   3.804   0.817   6.359
 6782SOL    HW120906   3.897   0.812   6.379
 6782SOL    HW220907   3.772   0.891   6.411
 6783SOL     OW20908   3.848   1.868   7.154
 6783SOL    HW120909   3.849   1.838   7.245
 6783SOL    HW220910   3.763   1.839   7.120
 6784SOL     OW20911   3.924   0.310   7.106
 6784SOL    HW120912   3.849   0.357   7.070
 6784SOL    HW220913   3.886   0.247   7.166
 6785SOL     OW20914   3.807   0.548   6.977
 6785SOL    HW120915   3.902   0.546   6.965
 6785SOL    HW220916   3.792   0.624   7.033
 6786SOL     OW20917   0.267   0.290   5.919
 6786SOL    HW120918   0.313   0.225   5.867
 6786SOL    HW220919   0.301   0.374   5.888
 6787SOL     OW20920   3.790   1.572   6.935
 6787SOL    HW120921   3.763   1.637   6.869
 6787SOL    HW220922   3.886   1.580   6.937
 6788SOL     OW20923   0.067   1.093   6.113
 6788SOL    HW120924   0.066   1.139   6.029
 6788SOL    HW220925   0.129   1.022   6.101
 6789SOL     OW20926   0.006   0.215   6.831
 6789SOL    HW120927   3.980   0.240   6.920
 6789SOL    HW220928   0.005   0.119   6.832
 6790SOL     OW20929   3.751   1.311   6.864
 6790SOL    HW120930   3.796   1.262   6.933
 6790SOL    HW220931   3.765   1.403   6.887
 6791SOL     OW20932   3.728   1.326   5.773
 6791SOL    HW120933   3.642   1.340   5.733
 6791SOL    HW220934   3.721   1.243   5.819
 6792SOL     OW20935   3.801   1.795   6.523
 6792SOL    HW120936   3.779   1.713   6.478
 6792SOL    HW220937   3.895   1.805   6.509
 6793SOL     OW20938   0.214   1.552   6.455
 6793SOL    HW120939   0.289   1.611   6.456
 6793SOL    HW220940   0.233   1.490   6.385
 6794SOL     OW20941   3.753   0.535   6.703
 6794SOL    HW120942   3.833   0.528   6.650
 6794SOL    HW220943   3.784   0.546   6.793
 6795SOL     OW20944   3.906   0.530   7.300
 6795SOL    HW120945   3.943   0.477   7.229
 6795SOL    HW220946   3.861   0.602   7.255
 6796SOL     OW20947   3.943   1.533   7.312
 6796SOL    HW120948   3.934   1.615   7.362
 6796SOL    HW220949   3.989   1.474   7.372
 6797SOL     OW20950   3.860   1.131   7.060
 6797SOL    HW120951   3.932   1.125   7.121
 6797SOL    HW220952   3.894   1.093   6.979
 6798SOL     OW20953   3.810   1.267   6.599
 6798SOL    HW120954   3.783   1.278   6.690
 6798SOL    HW220955   3.750   1.202   6.563
 6799SOL     OW20956   3.842   1.790   7.412
 6799SOL    HW120957   3.790   1.726   7.460
 6799SOL    HW220958   3.893   1.835   7.480
 6800SOL     OW20959   3.823   0.316   5.580
 6800SOL    HW120960   3.754   0.334   5.644
 6800SOL    HW220961   3.824   0.393   5.524
 6801SOL     OW20962   3.778   0.152   5.931
 6801SOL    HW120963   3.746   0.208   5.860
 6801SOL    HW220964   3.873   0.153   5.921
 6802SOL     OW20965   3.801   1.238   6.250
 6802SOL    HW120966   3.794   1.188   6.332
 6802SOL    HW220967   3.880   1.203   6.208
 6803SOL     OW20968   3.752   1.082   5.896
 6803SOL    HW120969   3.843   1.083   5.864
 6803SOL    HW220970   3.735   0.990   5.916
 6804SOL     OW20971   3.956   0.631   7.556
 6804SOL    HW120972   3.875   0.634   7.606
 6804SOL    HW220973   3.930   0.598   7.470
 6805SOL     OW20974   3.954   0.294   8.439
 6805SOL    HW120975   3.964   0.273   8.532
 6805SOL    HW220976   3.867   0.261   8.416
 6806SOL     OW20977   3.731   0.392   8.086
 6806SOL    HW120978   3.644   0.407   8.123
 6806SOL    HW220979   3.721   0.316   8.030
 6807SOL     OW20980   0.013   1.522   8.498
 6807SOL    HW120981   3.963   1.442   8.484
 6807SOL    HW220982   0.081   1.520   8.431
 6808SOL     OW20983   3.941   1.719   7.923
 6808SOL    HW120984   3.947   1.792   7.985
 6808SOL    HW220985   0.032   1.703   7.897
 6809SOL     OW20986   3.943   1.439   7.958
 6809SOL    HW120987   3.923   1.532   7.959
 6809SOL    HW220988   3.886   1.401   8.024
 6810SOL     OW20989   3.807   0.648   8.006
 6810SOL    HW120990   3.794   0.557   8.031
 6810SOL    HW220991   3.811   0.696   8.089
 6811SOL     OW20992   3.756   1.596   7.577
 6811SOL    HW120993   3.735   1.504   7.595
 6811SOL    HW220994   3.725   1.643   7.654
 6812SOL     OW20995   3.826   0.749   9.026
 6812SOL    HW120996   3.909   0.790   9.050
 6812SOL    HW220997   3.764   0.822   9.021
 6813SOL     OW20998   3.804   0.817   8.221
 6813SOL    HW120999   3.897   0.813   8.241
 6813SOL    HW221000   3.772   0.891   8.273
 6814SOL     OW21001   3.847   1.869   9.017
 6814SOL    HW121002   3.848   1.840   9.108
 6814SOL    HW221003   3.764   1.836   8.982
 6815SOL     OW21004   3.924   0.310   8.968
 6815SOL    HW121005   3.849   0.357   8.932
 6815SOL    HW221006   3.886   0.247   9.029
 6816SOL     OW21007   3.807   0.548   8.839
 6816SOL    HW121008   3.902   0.546   8.827
 6816SOL    HW221009   3.792   0.624   8.895
 6817SOL     OW21010   0.267   0.290   7.781
 6817SOL    HW121011   0.312   0.225   7.729
 6817SOL    HW221012   0.301   0.374   7.750
 6818SOL     OW21013   3.791   1.573   8.797
 6818SOL    HW121014   3.764   1.636   8.730
 6818SOL    HW221015   3.886   1.580   8.799
 6819SOL     OW21016   0.067   1.093   7.975
 6819SOL    HW121017   0.066   1.139   7.892
 6819SOL    HW221018   0.130   1.022   7.963
 6820SOL     OW21019   0.006   0.215   8.694
 6820SOL    HW121020   3.979   0.240   8.782
 6820SOL    HW221021   0.005   0.119   8.694
 6821SOL     OW21022   3.752   1.312   8.726
 6821SOL    HW121023   3.796   1.262   8.795
 6821SOL    HW221024   3.765   1.403   8.749
 6822SOL     OW21025   3.729   1.326   7.635
 6822SOL    HW121026   3.643   1.340   7.595
 6822SOL    HW221027   3.721   1.243   7.681
 6823SOL     OW21028   3.801   1.795   8.386
 6823SOL    HW121029   3.779   1.714   8.340
 6823SOL    HW221030   3.895   1.805   8.372
 6824SOL     OW21031   0.214   1.553   8.317
 6824SOL    HW121032   0.289   1.611   8.318
 6824SOL    HW221033   0.233   1.490   8.247
 6825SOL     OW21034   3.753   0.535   8.565
 6825SOL    HW121035   3.833   0.528   8.513
 6825SOL    HW221036   3.784   0.546   8.655
 6826SOL     OW21037   3.906   0.530   9.162
 6826SOL    HW121038   3.943   0.477   9.091
 6826SOL    HW221039   3.861   0.602   9.117
 6827SOL     OW21040   3.943   1.533   9.174
 6827SOL    HW121041   3.935   1.614   9.226
 6827SOL    HW221042   3.989   1.473   9.232
 6828SOL     OW21043   3.860   1.131   8.921
 6828SOL    HW121044   3.932   1.125   8.983
 6828SOL    HW221045   3.893   1.093   8.841
 6829SOL     OW21046   3.810   1.267   8.461
 6829SOL    HW121047   3.783   1.278   8.552
 6829SOL    HW221048   3.750   1.202   8.425
 6830SOL     OW21049   3.841   1.791   9.274
 6830SOL    HW121050   3.790   1.726   9.322
 6830SOL    HW221051   3.893   1.835   9.342
 6831SOL     OW21052   3.823   0.316   7.442
 6831SOL    HW121053   3.753   0.334   7.506
 6831SOL    HW221054   3.824   0.393   7.385
 6832SOL     OW21055   3.778   0.152   7.793
 6832SOL    HW121056   3.746   0.209   7.722
 6832SOL    HW221057   3.873   0.153   7.783
 6833SOL     OW21058   3.800   1.238   8.112
 6833SOL    HW121059   3.794   1.188   8.194
 6833SOL    HW221060   3.879   1.204   8.070
 6834SOL     OW21061   3.752   1.082   7.758
 6834SOL    HW121062   3.843   1.083   7.726
 6834SOL    HW221063   3.735   0.990   7.778
 6835SOL     OW21064   3.956   0.631   9.418
 6835SOL    HW121065   3.875   0.634   9.468
 6835SOL    HW221066   3.930   0.598   9.332
 6836SOL     OW21067   3.954   0.294  10.301
 6836SOL    HW121068   3.964   0.273  10.394
 6836SOL    HW221069   3.867   0.261  10.278
 6837SOL     OW21070   3.731   0.392   9.948
 6837SOL    HW121071   3.644   0.408   9.985
 6837SOL    HW221072   3.720   0.316   9.892
 6838SOL     OW21073   0.012   1.523  10.359
 6838SOL    HW121074   3.963   1.442  10.346
 6838SOL    HW221075   0.081   1.520  10.293
 6839SOL     OW21076   3.941   1.720   9.784
 6839SOL    HW121077   3.947   1.792   9.847
 6839SOL    HW221078   0.032   1.703   9.759
 6840SOL     OW21079   3.943   1.439   9.820
 6840SOL    HW121080   3.922   1.532   9.821
 6840SOL    HW221081   3.886   1.400   9.886
 6841SOL     OW21082   3.808   0.648   9.868
 6841SOL    HW121083   3.794   0.557   9.893
 6841SOL    HW221084   3.811   0.696   9.951
 6842SOL     OW21085   3.756   1.596   9.439
 6842SOL    HW121086   3.735   1.504   9.457
 6842SOL    HW221087   3.725   1.643   9.516
 6843SOL     OW21088   3.826   0.749  10.888
 6843SOL    HW121089   3.909   0.790  10.912
 6843SOL    HW221090   3.764   0.822  10.883
 6844SOL     OW21091   3.804   0.817  10.083
 6844SOL    HW121092   3.897   0.813  10.103
 6844SOL    HW221093   3.772   0.891  10.135
 6845SOL     OW21094   3.847   1.869  10.879
 6845SOL    HW121095   3.848   1.840  10.970
 6845SOL    HW221096   3.764   1.836  10.844
 6846SOL     OW21097   3.924   0.310  10.830
 6846SOL    HW121098   3.849   0.357  10.794
 6846SOL    HW221099   3.886   0.247  10.891
 6847SOL     OW21100   3.807   0.548  10.701
 6847SOL    HW121101   3.902   0.546  10.689
 6847SOL    HW221102   3.792   0.624  10.757
 6848SOL     OW21103   0.267   0.290   9.643
 6848SOL    HW121104   0.312   0.225   9.591
 6848SOL    HW221105   0.301   0.374   9.612
 6849SOL     OW21106   3.791   1.573  10.659
 6849SOL    HW121107   3.764   1.636  10.592
 6849SOL    HW221108   3.886   1.580  10.661
 6850SOL     OW21109   0.067   1.093   9.837
 6850SOL    HW121110   0.066   1.139   9.753
 6850SOL    HW221111   0.129   1.021   9.825
 6851SOL     OW21112   0.006   0.215  10.556
 6851SOL    HW121113   3.979   0.240  10.644
 6851SOL    HW221114   0.005   0.120  10.556
 6852SOL     OW21115   3.752   1.311  10.588
 6852SOL    HW121116   3.796   1.262  10.658
 6852SOL    HW221117   3.766   1.403  10.611
 6853SOL     OW21118   3.728   1.327   9.497
 6853SOL    HW121119   3.642   1.340   9.457
 6853SOL    HW221120   3.721   1.243   9.543
 6854SOL     OW21121   3.801   1.795  10.248
 6854SOL    HW121122   3.779   1.714  10.202
 6854SOL    HW221123   3.895   1.805  10.233
 6855SOL     OW21124   0.214   1.552  10.179
 6855SOL    HW121125   0.290   1.611  10.180
 6855SOL    HW221126   0.233   1.490  10.110
 6856SOL     OW21127   3.753   0.535  10.427
 6856SOL    HW121128   3.833   0.528  10.375
 6856SOL    HW221129   3.784   0.546  10.517
 6857SOL     OW21130   3.906   0.530  11.024
 6857SOL    HW121131   3.943   0.477  10.953
 6857SOL    HW221132   3.861   0.602  10.979
 6858SOL     OW21133   3.943   1.534  11.036
 6858SOL    HW121134   3.934   1.614  11.088
 6858SOL    HW221135   3.989   1.473  11.095
 6859SOL     OW21136   3.860   1.132  10.783
 6859SOL    HW121137   3.932   1.125  10.845
 6859SOL    HW221138   3.893   1.093  10.703
 6860SOL     OW21139   3.810   1.267  10.323
 6860SOL    HW121140   3.783   1.278  10.414
 6860SOL    HW221141   3.749   1.202  10.287
 6861SOL     OW21142   3.841   1.791  11.136
 6861SOL    HW121143   3.790   1.726  11.184
 6861SOL    HW221144   3.893   1.835  11.204
 6862SOL     OW21145   3.823   0.316   9.305
 6862SOL    HW121146   3.754   0.334   9.368
 6862SOL    HW221147   3.824   0.393   9.248
 6863SOL     OW21148   3.778   0.152   9.655
 6863SOL    HW121149   3.746   0.208   9.584
 6863SOL    HW221150   3.873   0.153   9.645
 6864SOL     OW21151   3.801   1.238   9.975
 6864SOL    HW121152   3.794   1.188  10.056
 6864SOL    HW221153   3.880   1.204   9.932
 6865SOL     OW21154   3.752   1.082   9.620
 6865SOL    HW121155   3.843   1.083   9.588
 6865SOL    HW221156   3.735   0.990   9.640
 6866SOL     OW21157   3.956   0.631  11.280
 6866SOL    HW121158   3.875   0.634  11.330
 6866SOL    HW221159   3.930   0.598  11.194
 6867SOL     OW21160   3.954   0.294  12.163
 6867SOL    HW121161   3.964   0.273  12.256
 6867SOL    HW221162   3.867   0.261  12.140
 6868SOL     OW21163   3.731   0.392  11.810
 6868SOL    HW121164   3.644   0.408  11.847
 6868SOL    HW221165   3.720   0.316  11.754
 6869SOL     OW21166   0.012   1.523  12.222
 6869SOL    HW121167   3.963   1.442  12.208
 6869SOL    HW221168   0.081   1.520  12.155
 6870SOL     OW21169   3.941   1.720  11.646
 6870SOL    HW121170   3.947   1.792  11.709
 6870SOL    HW221171   0.032   1.703  11.621
 6871SOL     OW21172   3.943   1.439  11.682
 6871SOL    HW121173   3.922   1.532  11.683
 6871SOL    HW221174   3.886   1.400  11.748
 6872SOL     OW21175   3.808   0.648  11.730
 6872SOL    HW121176   3.794   0.557  11.755
 6872SOL    HW221177   3.811   0.696  11.813
 6873SOL     OW21178   3.756   1.596  11.301
 6873SOL    HW121179   3.735   1.504  11.319
 6873SOL    HW221180   3.725   1.643  11.378
 6874SOL     OW21181   3.826   0.749  12.750
 6874SOL    HW121182   3.909   0.790  12.774
 6874SOL    HW221183   3.764   0.822  12.745
 6875SOL     OW21184   3.804   0.817  11.945
 6875SOL    HW121185   3.897   0.813  11.965
 6875SOL    HW221186   3.772   0.891  11.997
 6876SOL     OW21187   3.847   1.869  12.741
 6876SOL    HW121188   3.849   1.840  12.832
 6876SOL    HW221189   3.764   1.836  12.707
 6877SOL     OW21190   3.924   0.311  12.692
 6877SOL    HW121191   3.849   0.357  12.656
 6877SOL    HW221192   3.886   0.247  12.752
 6878SOL     OW21193   3.807   0.548  12.563
 6878SOL    HW121194   3.902   0.546  12.551
 6878SOL    HW221195   3.792   0.624  12.619
 6879SOL     OW21196   0.267   0.290  11.505
 6879SOL    HW121197   0.313   0.225  11.453
 6879SOL    HW221198   0.301   0.374  11.474
 6880SOL     OW21199   3.791   1.573  12.521
 6880SOL    HW121200   3.764   1.636  12.454
 6880SOL    HW221201   3.886   1.580  12.523
 6881SOL     OW21202   0.067   1.093  11.699
 6881SOL    HW121203   0.066   1.139  11.615
 6881SOL    HW221204   0.129   1.021  11.687
 6882SOL     OW21205   0.006   0.215  12.418
 6882SOL    HW121206   3.979   0.240  12.506
 6882SOL    HW221207   0.005   0.119  12.418
 6883SOL     OW21208   3.752   1.311  12.450
 6883SOL    HW121209   3.796   1.262  12.520
 6883SOL    HW221210   3.766   1.403  12.473
 6884SOL     OW21211   3.728   1.326  11.359
 6884SOL    HW121212   3.642   1.340  11.319
 6884SOL    HW221213   3.721   1.243  11.405
 6885SOL     OW21214   3.801   1.795  12.110
 6885SOL    HW121215   3.779   1.714  12.064
 6885SOL    HW221216   3.895   1.805  12.095
 6886SOL     OW21217   0.214   1.553  12.041
 6886SOL    HW121218   0.289   1.611  12.042
 6886SOL    HW221219   0.233   1.490  11.972
 6887SOL     OW21220   3.753   0.535  12.289
 6887SOL    HW121221   3.833   0.528  12.237
 6887SOL    HW221222   3.784   0.546  12.379
 6888SOL     OW21223   3.907   0.530  12.886
 6888SOL    HW121224   3.943   0.477  12.815
 6888SOL    HW221225   3.862   0.602  12.841
 6889SOL     OW21226   3.943   1.534  12.899
 6889SOL    HW121227   3.935   1.614  12.950
 6889SOL    HW221228   3.987   1.473  12.957
 6890SOL     OW21229   3.860   1.132  12.645
 6890SOL    HW121230   3.933   1.125  12.707
 6890SOL    HW221231   3.893   1.093  12.564
 6891SOL     OW21232   3.810   1.267  12.185
 6891SOL    HW121233   3.783   1.278  12.276
 6891SOL    HW221234   3.749   1.202  12.149
 6892SOL     OW21235   3.842   1.792  13.000
 6892SOL    HW121236   3.791   1.726  13.047
 6892SOL    HW221237   3.893   1.836  13.068
 6893SOL     OW21238   3.823   0.316  11.167
 6893SOL    HW121239   3.754   0.334  11.230
 6893SOL    HW221240   3.824   0.393  11.110
 6894SOL     OW21241   3.778   0.152  11.517
 6894SOL    HW121242   3.746   0.208  11.446
 6894SOL    HW221243   3.873   0.153  11.507
 6895SOL     OW21244   3.801   1.238  11.837
 6895SOL    HW121245   3.794   1.188  11.918
 6895SOL    HW221246   3.880   1.204  11.794
 6896SOL     OW21247   3.752   1.082  11.482
 6896SOL    HW121248   3.843   1.083  11.450
 6896SOL    HW221249   3.735   0.990  11.502
 6897SOL     OW21250   3.954   0.629  13.144
 6897SOL    HW121251   3.871   0.634  13.190
 6897SOL    HW221252   3.931   0.598  13.056
 6898SOL     OW21253   3.721   0.389  13.646
 6898SOL    HW121254   3.631   0.407  13.673
 6898SOL    HW221255   3.720   0.298  13.617
 6899SOL     OW21256   3.941   1.716  13.503
 6899SOL    HW121257   3.942   1.791  13.562
 6899SOL    HW221258   0.033   1.700  13.482
 6900SOL     OW21259   3.943   1.436  13.541
 6900SOL    HW121260   3.924   1.530  13.543
 6900SOL    HW221261   3.885   1.399  13.608
 6901SOL     OW21262   3.948   1.094   0.003
 6901SOL    HW121263   3.983   1.049   0.079
 6901SOL    HW221264   3.866   1.133   0.033
 6902SOL     OW21265   3.825   0.648  13.594
 6902SOL    HW121266   3.782   0.564  13.610
 6902SOL    HW221267   3.814   0.697  13.675
 6903SOL     OW21268   3.754   1.596  13.162
 6903SOL    HW121269   3.734   1.504  13.180
 6903SOL    HW221270   3.724   1.643  13.240
 6904SOL     OW21271   3.797   0.809  13.812
 6904SOL    HW121272   3.892   0.815  13.828
 6904SOL    HW221273   3.761   0.889  13.851
 6905SOL     OW21274   0.098   1.810  13.883
 6905SOL    HW121275   0.057   1.735   0.026
 6905SOL    HW221276   0.168   1.836   0.042
 6906SOL     OW21277   0.267   0.294  13.368
 6906SOL    HW121278   0.312   0.223  13.322
 6906SOL    HW221279   0.306   0.374  13.335
 6907SOL     OW21280   0.069   1.092  13.555
 6907SOL    HW121281   0.068   1.142  13.473
 6907SOL    HW221282   0.135   1.024  13.540
 6908SOL     OW21283   3.728   1.327  13.221
 6908SOL    HW121284   3.643   1.340  13.181
 6908SOL    HW221285   3.721   1.243  13.267
 6909SOL     OW21286   0.313   1.534   0.017
 6909SOL    HW121287   0.262   1.611   0.042
 6909SOL    HW221288   0.253   1.483  13.862
 6910SOL     OW21289   3.823   0.317  13.028
 6910SOL    HW121290   3.753   0.334  13.091
 6910SOL    HW221291   3.823   0.394  12.971
 6911SOL     OW21292   3.787   0.153  13.373
 6911SOL    HW121293   3.753   0.209  13.304
 6911SOL    HW221294   3.882   0.153  13.359
 6912SOL     OW21295   3.807   1.233  13.692
 6912SOL    HW121296   3.797   1.170  13.763
 6912SOL    HW221297   3.885   1.203  13.646
 6913SOL     OW21298   3.753   1.081  13.343
 6913SOL    HW121299   3.842   1.083  13.310
 6913SOL    HW221300   3.736   0.989  13.363
 6914SOL     OW21301   3.955   2.496   0.128
 6914SOL    HW121302   3.883   2.495   0.192
 6914SOL    HW221303   3.921   2.447   0.053
 6915SOL     OW21304   3.961   2.126   0.986
 6915SOL    HW121305   3.967   2.122   1.081
 6915SOL    HW221306   3.868   2.112   0.967
 6916SOL     OW21307   3.725   2.245   0.636
 6916SOL    HW121308   3.644   2.267   0.682
 6916SOL    HW221309   3.707   2.161   0.594
 6917SOL     OW21310   0.013   3.382   1.051
 6917SOL    HW121311   3.964   3.302   1.032
 6917SOL    HW221312   0.081   3.384   0.983
 6918SOL     OW21313   3.940   3.576   0.479
 6918SOL    HW121314   3.953   3.650   0.538
 6918SOL    HW221315   0.026   3.562   0.439
 6919SOL     OW21316   3.935   3.298   0.508
 6919SOL    HW121317   3.926   3.393   0.510
 6919SOL    HW221318   3.883   3.268   0.583
 6920SOL     OW21319   3.816   2.503   0.559
 6920SOL    HW121320   3.786   2.416   0.583
 6920SOL    HW221321   3.812   2.553   0.640
 6921SOL     OW21322   3.742   3.469   0.115
 6921SOL    HW121323   3.726   3.377   0.134
 6921SOL    HW221324   3.711   3.516   0.192
 6922SOL     OW21325   3.827   2.603   1.583
 6922SOL    HW121326   3.911   2.642   1.609
 6922SOL    HW221327   3.767   2.678   1.579
 6923SOL     OW21328   3.803   2.678   0.770
 6923SOL    HW121329   3.897   2.675   0.791
 6923SOL    HW221330   3.770   2.751   0.822
 6924SOL     OW21331   3.849   3.720   1.568
 6924SOL    HW121332   3.849   3.693   1.660
 6924SOL    HW221333   3.760   3.700   1.537
 6925SOL     OW21334   3.924   2.155   1.515
 6925SOL    HW121335   3.842   2.198   1.487
 6925SOL    HW221336   3.895   2.073   1.554
 6926SOL     OW21337   3.808   2.411   1.390
 6926SOL    HW121338   3.903   2.406   1.380
 6926SOL    HW221339   3.793   2.484   1.449
 6927SOL     OW21340   3.791   3.434   1.348
 6927SOL    HW121341   3.765   3.500   1.283
 6927SOL    HW221342   3.886   3.441   1.352
 6928SOL     OW21343   0.072   2.953   0.532
 6928SOL    HW121344   0.081   3.015   0.459
 6928SOL    HW221345   0.148   2.896   0.525
 6929SOL     OW21346   0.007   2.075   1.251
 6929SOL    HW121347   3.978   2.104   1.337
 6929SOL    HW221348   0.011   1.979   1.258
 6930SOL     OW21349   3.752   3.174   1.277
 6930SOL    HW121350   3.795   3.124   1.347
 6930SOL    HW221351   3.766   3.265   1.300
 6931SOL     OW21352   3.996   1.921   0.653
 6931SOL    HW121353   0.017   2.013   0.667
 6931SOL    HW221354   0.019   1.879   0.736
 6932SOL     OW21355   3.739   3.177   0.174
 6932SOL    HW121356   3.657   3.188   0.126
 6932SOL    HW221357   3.729   3.094   0.220
 6933SOL     OW21358   3.803   3.652   0.937
 6933SOL    HW121359   3.781   3.571   0.892
 6933SOL    HW221360   3.897   3.662   0.925
 6934SOL     OW21361   0.214   3.420   0.870
 6934SOL    HW121362   0.278   3.490   0.867
 6934SOL    HW221363   0.240   3.359   0.801
 6935SOL     OW21364   3.756   2.401   1.118
 6935SOL    HW121365   3.839   2.396   1.071
 6935SOL    HW221366   3.781   2.407   1.210
 6936SOL     OW21367   3.902   2.378   1.722
 6936SOL    HW121368   3.930   2.318   1.653
 6936SOL    HW221369   3.858   2.449   1.676
 6937SOL     OW21370   3.942   3.394   1.727
 6937SOL    HW121371   3.935   3.477   1.774
 6937SOL    HW221372   3.990   3.336   1.787
 6938SOL     OW21373   3.859   2.994   1.473
 6938SOL    HW121374   3.931   2.987   1.536
 6938SOL    HW221375   3.894   2.957   1.392
 6939SOL     OW21376   3.810   3.128   1.012
 6939SOL    HW121377   3.783   3.141   1.104
 6939SOL    HW221378   3.748   3.063   0.978
 6940SOL     OW21379   3.840   3.650   1.826
 6940SOL    HW121380   3.790   3.585   1.874
 6940SOL    HW221381   3.888   3.698   1.893
 6941SOL     OW21382   3.779   2.269   0.029
 6941SOL    HW121383   3.742   2.186   0.060
 6941SOL    HW221384   3.760   2.271  13.835
 6942SOL     OW21385   3.786   2.021   0.348
 6942SOL    HW121386   3.762   2.048   0.259
 6942SOL    HW221387   3.882   2.021   0.347
 6943SOL     OW21388   3.799   3.096   0.665
 6943SOL    HW121389   3.794   3.049   0.748
 6943SOL    HW221390   3.884   3.072   0.629
 6944SOL     OW21391   3.751   2.938   0.307
 6944SOL    HW121392   3.847   2.943   0.306
 6944SOL    HW221393   3.733   2.846   0.327
 6945SOL     OW21394   3.954   2.495   1.972
 6945SOL    HW121395   3.873   2.491   2.023
 6945SOL    HW221396   3.931   2.457   1.887
 6946SOL     OW21397   3.961   2.125   2.848
 6946SOL    HW121398   3.967   2.122   2.944
 6946SOL    HW221399   3.868   2.112   2.829
 6947SOL     OW21400   3.725   2.242   2.498
 6947SOL    HW121401   3.645   2.268   2.544
 6947SOL    HW221402   3.703   2.158   2.458
 6948SOL     OW21403   0.012   3.383   2.912
 6948SOL    HW121404   3.964   3.301   2.896
 6948SOL    HW221405   0.081   3.384   2.845
 6949SOL     OW21406   3.941   3.582   2.337
 6949SOL    HW121407   3.952   3.655   2.398
 6949SOL    HW221408   0.030   3.563   2.308
 6950SOL     OW21409   3.940   3.301   2.370
 6950SOL    HW121410   3.924   3.395   2.375
 6950SOL    HW221411   3.886   3.263   2.439
 6951SOL     OW21412   3.817   2.503   2.422
 6951SOL    HW121413   3.787   2.415   2.445
 6951SOL    HW221414   3.812   2.553   2.503
 6952SOL     OW21415   3.753   3.458   1.992
 6952SOL    HW121416   3.734   3.366   2.009
 6952SOL    HW221417   3.723   3.503   2.071
 6953SOL     OW21418   3.827   2.603   3.445
 6953SOL    HW121419   3.911   2.642   3.471
 6953SOL    HW221420   3.767   2.678   3.441
 6954SOL     OW21421   3.803   2.677   2.633
 6954SOL    HW121422   3.897   2.674   2.653
 6954SOL    HW221423   3.770   2.751   2.684
 6955SOL     OW21424   3.849   3.720   3.430
 6955SOL    HW121425   3.849   3.692   3.522
 6955SOL    HW221426   3.760   3.701   3.399
 6956SOL     OW21427   3.924   2.155   3.377
 6956SOL    HW121428   3.842   2.198   3.349
 6956SOL    HW221429   3.895   2.073   3.416
 6957SOL     OW21430   0.001   1.885   2.025
 6957SOL    HW121431   0.033   1.974   2.011
 6957SOL    HW221432   0.065   1.846   2.085
 6958SOL     OW21433   3.808   2.410   3.252
 6958SOL    HW121434   3.903   2.406   3.241
 6958SOL    HW221435   3.793   2.484   3.311
 6959SOL     OW21436   0.280   2.149   2.185
 6959SOL    HW121437   0.298   2.077   2.126
 6959SOL    HW221438   0.312   2.227   2.139
 6960SOL     OW21439   3.791   3.434   3.210
 6960SOL    HW121440   3.765   3.500   3.145
 6960SOL    HW221441   3.886   3.441   3.214
 6961SOL     OW21442   0.067   2.953   2.389
 6961SOL    HW121443   0.066   3.003   2.307
 6961SOL    HW221444   0.133   2.885   2.374
 6962SOL     OW21445   0.007   2.075   3.113
 6962SOL    HW121446   3.978   2.104   3.199
 6962SOL    HW221447   0.011   1.979   3.120
 6963SOL     OW21448   3.752   3.173   3.139
 6963SOL    HW121449   3.795   3.124   3.209
 6963SOL    HW221450   3.766   3.265   3.162
 6964SOL     OW21451   4.000   1.920   2.514
 6964SOL    HW121452   0.013   2.014   2.527
 6964SOL    HW221453   0.021   1.880   2.599
 6965SOL     OW21454   3.728   3.188   2.050
 6965SOL    HW121455   3.642   3.201   2.010
 6965SOL    HW221456   3.721   3.104   2.096
 6966SOL     OW21457   3.803   3.653   2.799
 6966SOL    HW121458   3.781   3.572   2.754
 6966SOL    HW221459   3.897   3.662   2.787
 6967SOL     OW21460   0.214   3.419   2.733
 6967SOL    HW121461   0.279   3.489   2.728
 6967SOL    HW221462   0.240   3.357   2.665
 6968SOL     OW21463   3.756   2.401   2.980
 6968SOL    HW121464   3.839   2.396   2.933
 6968SOL    HW221465   3.781   2.407   3.072
 6969SOL     OW21466   3.902   2.378   3.584
 6969SOL    HW121467   3.930   2.318   3.515
 6969SOL    HW221468   3.858   2.449   3.538
 6970SOL     OW21469   3.942   3.394   3.589
 6970SOL    HW121470   3.935   3.477   3.637
 6970SOL    HW221471   3.990   3.336   3.649
 6971SOL     OW21472   3.859   2.994   3.335
 6971SOL    HW121473   3.931   2.987   3.398
 6971SOL    HW221474   3.894   2.956   3.255
 6972SOL     OW21475   3.810   3.129   2.874
 6972SOL    HW121476   3.783   3.141   2.966
 6972SOL    HW221477   3.749   3.064   2.840
 6973SOL     OW21478   3.840   3.650   3.688
 6973SOL    HW121479   3.790   3.585   3.736
 6973SOL    HW221480   3.888   3.698   3.755
 6974SOL     OW21481   3.801   2.197   1.904
 6974SOL    HW121482   3.717   2.162   1.875
 6974SOL    HW221483   3.821   2.268   1.843
 6975SOL     OW21484   3.765   2.022   2.175
 6975SOL    HW121485   3.756   2.088   2.106
 6975SOL    HW221486   3.857   2.026   2.201
 6976SOL     OW21487   3.800   3.100   2.527
 6976SOL    HW121488   3.794   3.051   2.609
 6976SOL    HW221489   3.880   3.068   2.485
 6977SOL     OW21490   3.751   2.941   2.173
 6977SOL    HW121491   3.841   2.943   2.140
 6977SOL    HW221492   3.735   2.849   2.192
 6978SOL     OW21493   3.954   2.495   3.834
 6978SOL    HW121494   3.873   2.491   3.885
 6978SOL    HW221495   3.931   2.457   3.749
 6979SOL     OW21496   3.961   2.125   4.710
 6979SOL    HW121497   3.967   2.122   4.806
 6979SOL    HW221498   3.868   2.112   4.691
 6980SOL     OW21499   3.725   2.243   4.360
 6980SOL    HW121500   3.645   2.268   4.406
 6980SOL    HW221501   3.703   2.158   4.320
 6981SOL     OW21502   0.012   3.383   4.774
 6981SOL    HW121503   3.964   3.301   4.758
 6981SOL    HW221504   0.081   3.384   4.707
 6982SOL     OW21505   3.941   3.582   4.199
 6982SOL    HW121506   3.952   3.655   4.260
 6982SOL    HW221507   0.030   3.563   4.170
 6983SOL     OW21508   3.940   3.301   4.232
 6983SOL    HW121509   3.924   3.395   4.237
 6983SOL    HW221510   3.886   3.263   4.301
 6984SOL     OW21511   3.817   2.503   4.284
 6984SOL    HW121512   3.787   2.415   4.307
 6984SOL    HW221513   3.812   2.553   4.365
 6985SOL     OW21514   3.753   3.458   3.854
 6985SOL    HW121515   3.734   3.366   3.871
 6985SOL    HW221516   3.723   3.503   3.933
 6986SOL     OW21517   3.827   2.603   5.307
 6986SOL    HW121518   3.910   2.642   5.333
 6986SOL    HW221519   3.766   2.677   5.303
 6987SOL     OW21520   3.803   2.677   4.495
 6987SOL    HW121521   3.897   2.674   4.515
 6987SOL    HW221522   3.770   2.751   4.546
 6988SOL     OW21523   3.849   3.720   5.292
 6988SOL    HW121524   3.849   3.692   5.384
 6988SOL    HW221525   3.760   3.701   5.261
 6989SOL     OW21526   3.923   2.155   5.239
 6989SOL    HW121527   3.842   2.198   5.211
 6989SOL    HW221528   3.895   2.073   5.278
 6990SOL     OW21529   0.001   1.885   3.887
 6990SOL    HW121530   0.033   1.974   3.873
 6990SOL    HW221531   0.065   1.846   3.947
 6991SOL     OW21532   3.808   2.410   5.114
 6991SOL    HW121533   3.903   2.406   5.103
 6991SOL    HW221534   3.793   2.484   5.173
 6992SOL     OW21535   0.280   2.149   4.048
 6992SOL    HW121536   0.298   2.077   3.988
 6992SOL    HW221537   0.312   2.227   4.001
 6993SOL     OW21538   3.791   3.434   5.072
 6993SOL    HW121539   3.765   3.500   5.008
 6993SOL    HW221540   3.886   3.441   5.076
 6994SOL     OW21541   0.067   2.953   4.251
 6994SOL    HW121542   0.066   3.003   4.169
 6994SOL    HW221543   0.133   2.885   4.236
 6995SOL     OW21544   0.008   2.075   4.975
 6995SOL    HW121545   3.977   2.104   5.061
 6995SOL    HW221546   0.010   1.979   4.982
 6996SOL     OW21547   3.752   3.173   5.001
 6996SOL    HW121548   3.795   3.124   5.071
 6996SOL    HW221549   3.766   3.265   5.024
 6997SOL     OW21550   4.000   1.920   4.376
 6997SOL    HW121551   0.013   2.014   4.389
 6997SOL    HW221552   0.021   1.880   4.461
 6998SOL     OW21553   3.728   3.188   3.912
 6998SOL    HW121554   3.642   3.201   3.872
 6998SOL    HW221555   3.721   3.104   3.958
 6999SOL     OW21556   3.803   3.653   4.661
 6999SOL    HW121557   3.781   3.572   4.616
 6999SOL    HW221558   3.897   3.662   4.649
 7000SOL     OW21559   0.214   3.419   4.595
 7000SOL    HW121560   0.279   3.489   4.590
 7000SOL    HW221561   0.240   3.357   4.527
 7001SOL     OW21562   3.756   2.401   4.842
 7001SOL    HW121563   3.839   2.396   4.795
 7001SOL    HW221564   3.781   2.407   4.934
 7002SOL     OW21565   3.902   2.378   5.446
 7002SOL    HW121566   3.929   2.317   5.377
 7002SOL    HW221567   3.858   2.449   5.400
 7003SOL     OW21568   3.942   3.394   5.451
 7003SOL    HW121569   3.935   3.477   5.498
 7003SOL    HW221570   3.989   3.336   5.512
 7004SOL     OW21571   3.859   2.994   5.197
 7004SOL    HW121572   3.931   2.986   5.260
 7004SOL    HW221573   3.894   2.956   5.116
 7005SOL     OW21574   3.810   3.129   4.736
 7005SOL    HW121575   3.783   3.141   4.828
 7005SOL    HW221576   3.749   3.064   4.702
 7006SOL     OW21577   3.840   3.650   5.550
 7006SOL    HW121578   3.790   3.585   5.598
 7006SOL    HW221579   3.888   3.698   5.617
 7007SOL     OW21580   3.801   2.197   3.766
 7007SOL    HW121581   3.717   2.162   3.737
 7007SOL    HW221582   3.821   2.268   3.705
 7008SOL     OW21583   3.765   2.022   4.037
 7008SOL    HW121584   3.756   2.088   3.968
 7008SOL    HW221585   3.857   2.026   4.063
 7009SOL     OW21586   3.800   3.100   4.389
 7009SOL    HW121587   3.794   3.051   4.471
 7009SOL    HW221588   3.880   3.068   4.347
 7010SOL     OW21589   3.751   2.941   4.035
 7010SOL    HW121590   3.841   2.943   4.002
 7010SOL    HW221591   3.735   2.849   4.054
 7011SOL     OW21592   3.954   2.494   5.696
 7011SOL    HW121593   3.873   2.491   5.747
 7011SOL    HW221594   3.931   2.457   5.611
 7012SOL     OW21595   3.961   2.125   6.572
 7012SOL    HW121596   3.967   2.122   6.668
 7012SOL    HW221597   3.868   2.112   6.553
 7013SOL     OW21598   3.724   2.243   6.222
 7013SOL    HW121599   3.645   2.269   6.268
 7013SOL    HW221600   3.702   2.159   6.182
 7014SOL     OW21601   0.012   3.383   6.636
 7014SOL    HW121602   3.964   3.302   6.620
 7014SOL    HW221603   0.081   3.384   6.569
 7015SOL     OW21604   3.941   3.582   6.061
 7015SOL    HW121605   3.952   3.655   6.122
 7015SOL    HW221606   0.030   3.562   6.032
 7016SOL     OW21607   3.941   3.301   6.094
 7016SOL    HW121608   3.923   3.395   6.099
 7016SOL    HW221609   3.886   3.263   6.163
 7017SOL     OW21610   3.818   2.503   6.146
 7017SOL    HW121611   3.786   2.415   6.169
 7017SOL    HW221612   3.813   2.553   6.227
 7018SOL     OW21613   3.753   3.458   5.716
 7018SOL    HW121614   3.734   3.366   5.733
 7018SOL    HW221615   3.723   3.503   5.795
 7019SOL     OW21616   3.826   2.603   7.169
 7019SOL    HW121617   3.910   2.643   7.195
 7019SOL    HW221618   3.766   2.677   7.164
 7020SOL     OW21619   3.804   2.677   6.356
 7020SOL    HW121620   3.897   2.674   6.378
 7020SOL    HW221621   3.770   2.751   6.408
 7021SOL     OW21622   3.849   3.720   7.154
 7021SOL    HW121623   3.849   3.693   7.246
 7021SOL    HW221624   3.761   3.699   7.123
 7022SOL     OW21625   3.923   2.156   7.101
 7022SOL    HW121626   3.842   2.198   7.073
 7022SOL    HW221627   3.895   2.073   7.140
 7023SOL     OW21628   0.001   1.885   5.749
 7023SOL    HW121629   0.033   1.974   5.735
 7023SOL    HW221630   0.064   1.845   5.809
 7024SOL     OW21631   3.808   2.411   6.975
 7024SOL    HW121632   3.903   2.406   6.965
 7024SOL    HW221633   3.793   2.484   7.035
 7025SOL     OW21634   0.283   2.149   5.911
 7025SOL    HW121635   0.298   2.076   5.850
 7025SOL    HW221636   0.308   2.227   5.862
 7026SOL     OW21637   3.791   3.435   6.935
 7026SOL    HW121638   3.765   3.499   6.869
 7026SOL    HW221639   3.886   3.441   6.939
 7027SOL     OW21640   0.068   2.953   6.113
 7027SOL    HW121641   0.065   3.002   6.031
 7027SOL    HW221642   0.132   2.884   6.098
 7028SOL     OW21643   0.009   2.075   6.837
 7028SOL    HW121644   3.977   2.105   6.922
 7028SOL    HW221645   0.008   1.980   6.844
 7029SOL     OW21646   3.753   3.173   6.863
 7029SOL    HW121647   3.795   3.124   6.934
 7029SOL    HW221648   3.767   3.265   6.887
 7030SOL     OW21649   4.000   1.920   6.238
 7030SOL    HW121650   0.013   2.014   6.252
 7030SOL    HW221651   0.021   1.880   6.323
 7031SOL     OW21652   3.728   3.188   5.774
 7031SOL    HW121653   3.642   3.201   5.734
 7031SOL    HW221654   3.721   3.104   5.820
 7032SOL     OW21655   3.803   3.653   6.523
 7032SOL    HW121656   3.781   3.572   6.478
 7032SOL    HW221657   3.897   3.662   6.511
 7033SOL     OW21658   0.214   3.419   6.457
 7033SOL    HW121659   0.279   3.489   6.452
 7033SOL    HW221660   0.240   3.357   6.389
 7034SOL     OW21661   3.756   2.400   6.704
 7034SOL    HW121662   3.839   2.396   6.657
 7034SOL    HW221663   3.780   2.407   6.796
 7035SOL     OW21664   3.903   2.378   7.308
 7035SOL    HW121665   3.929   2.317   7.238
 7035SOL    HW221666   3.857   2.449   7.262
 7036SOL     OW21667   3.943   3.394   7.313
 7036SOL    HW121668   3.935   3.477   7.361
 7036SOL    HW221669   3.989   3.336   7.373
 7037SOL     OW21670   3.859   2.995   7.059
 7037SOL    HW121671   3.931   2.986   7.122
 7037SOL    HW221672   3.893   2.956   6.979
 7038SOL     OW21673   3.810   3.129   6.598
 7038SOL    HW121674   3.783   3.141   6.690
 7038SOL    HW221675   3.749   3.064   6.564
 7039SOL     OW21676   3.840   3.651   7.412
 7039SOL    HW121677   3.790   3.585   7.461
 7039SOL    HW221678   3.888   3.699   7.479
 7040SOL     OW21679   3.802   2.197   5.628
 7040SOL    HW121680   3.717   2.163   5.600
 7040SOL    HW221681   3.821   2.268   5.567
 7041SOL     OW21682   3.765   2.022   5.900
 7041SOL    HW121683   3.756   2.088   5.831
 7041SOL    HW221684   3.857   2.026   5.925
 7042SOL     OW21685   3.800   3.100   6.252
 7042SOL    HW121686   3.792   3.050   6.333
 7042SOL    HW221687   3.880   3.067   6.210
 7043SOL     OW21688   3.752   2.941   5.897
 7043SOL    HW121689   3.842   2.943   5.864
 7043SOL    HW221690   3.735   2.849   5.916
 7044SOL     OW21691   3.954   2.495   7.558
 7044SOL    HW121692   3.873   2.491   7.608
 7044SOL    HW221693   3.931   2.457   7.473
 7045SOL     OW21694   3.961   2.125   8.434
 7045SOL    HW121695   3.966   2.122   8.530
 7045SOL    HW221696   3.868   2.112   8.415
 7046SOL     OW21697   3.725   2.242   8.084
 7046SOL    HW121698   3.645   2.267   8.131
 7046SOL    HW221699   3.703   2.159   8.043
 7047SOL     OW21700   0.012   3.382   8.498
 7047SOL    HW121701   3.964   3.301   8.481
 7047SOL    HW221702   0.081   3.384   8.431
 7048SOL     OW21703   3.941   3.582   7.923
 7048SOL    HW121704   3.952   3.655   7.984
 7048SOL    HW221705   0.030   3.562   7.894
 7049SOL     OW21706   3.941   3.301   7.956
 7049SOL    HW121707   3.924   3.395   7.961
 7049SOL    HW221708   3.886   3.263   8.025
 7050SOL     OW21709   3.818   2.503   8.008
 7050SOL    HW121710   3.787   2.415   8.031
 7050SOL    HW221711   3.812   2.552   8.090
 7051SOL     OW21712   3.753   3.458   7.578
 7051SOL    HW121713   3.734   3.366   7.595
 7051SOL    HW221714   3.723   3.503   7.657
 7052SOL     OW21715   3.827   2.603   9.031
 7052SOL    HW121716   3.911   2.642   9.056
 7052SOL    HW221717   3.767   2.678   9.027
 7053SOL     OW21718   3.803   2.677   8.220
 7053SOL    HW121719   3.897   2.674   8.240
 7053SOL    HW221720   3.770   2.751   8.270
 7054SOL     OW21721   3.849   3.720   9.016
 7054SOL    HW121722   3.849   3.692   9.108
 7054SOL    HW221723   3.760   3.700   8.985
 7055SOL     OW21724   3.924   2.155   8.963
 7055SOL    HW121725   3.843   2.198   8.935
 7055SOL    HW221726   3.895   2.073   9.002
 7056SOL     OW21727   0.001   1.885   7.611
 7056SOL    HW121728   0.033   1.974   7.596
 7056SOL    HW221729   0.065   1.846   7.670
 7057SOL     OW21730   3.808   2.410   8.838
 7057SOL    HW121731   3.903   2.406   8.828
 7057SOL    HW221732   3.793   2.484   8.897
 7058SOL     OW21733   0.280   2.149   7.771
 7058SOL    HW121734   0.298   2.077   7.712
 7058SOL    HW221735   0.312   2.227   7.726
 7059SOL     OW21736   3.791   3.434   8.796
 7059SOL    HW121737   3.765   3.500   8.731
 7059SOL    HW221738   3.886   3.441   8.800
 7060SOL     OW21739   0.067   2.953   7.975
 7060SOL    HW121740   0.065   3.002   7.892
 7060SOL    HW221741   0.132   2.885   7.960
 7061SOL     OW21742   0.007   2.075   8.699
 7061SOL    HW121743   3.978   2.104   8.785
 7061SOL    HW221744   0.011   1.979   8.706
 7062SOL     OW21745   3.751   3.173   8.726
 7062SOL    HW121746   3.795   3.124   8.795
 7062SOL    HW221747   3.766   3.265   8.748
 7063SOL     OW21748   4.000   1.920   8.100
 7063SOL    HW121749   0.013   2.013   8.113
 7063SOL    HW221750   0.021   1.881   8.185
 7064SOL     OW21751   3.728   3.188   7.636
 7064SOL    HW121752   3.642   3.201   7.596
 7064SOL    HW221753   3.721   3.104   7.682
 7065SOL     OW21754   3.803   3.653   8.385
 7065SOL    HW121755   3.781   3.572   8.340
 7065SOL    HW221756   3.898   3.662   8.373
 7066SOL     OW21757   0.214   3.419   8.319
 7066SOL    HW121758   0.279   3.489   8.314
 7066SOL    HW221759   0.240   3.357   8.250
 7067SOL     OW21760   3.756   2.401   8.566
 7067SOL    HW121761   3.839   2.396   8.518
 7067SOL    HW221762   3.781   2.407   8.658
 7068SOL     OW21763   3.902   2.378   9.170
 7068SOL    HW121764   3.930   2.318   9.101
 7068SOL    HW221765   3.858   2.449   9.124
 7069SOL     OW21766   3.942   3.394   9.175
 7069SOL    HW121767   3.935   3.477   9.223
 7069SOL    HW221768   3.990   3.336   9.235
 7070SOL     OW21769   3.859   2.994   8.921
 7070SOL    HW121770   3.931   2.987   8.984
 7070SOL    HW221771   3.894   2.956   8.840
 7071SOL     OW21772   3.810   3.129   8.460
 7071SOL    HW121773   3.783   3.141   8.552
 7071SOL    HW221774   3.749   3.064   8.425
 7072SOL     OW21775   3.840   3.650   9.274
 7072SOL    HW121776   3.790   3.585   9.323
 7072SOL    HW221777   3.888   3.699   9.341
 7073SOL     OW21778   3.801   2.197   7.490
 7073SOL    HW121779   3.717   2.163   7.461
 7073SOL    HW221780   3.820   2.268   7.429
 7074SOL     OW21781   3.765   2.022   7.761
 7074SOL    HW121782   3.755   2.088   7.692
 7074SOL    HW221783   3.857   2.026   7.787
 7075SOL     OW21784   3.800   3.100   8.113
 7075SOL    HW121785   3.794   3.051   8.195
 7075SOL    HW221786   3.879   3.068   8.071
 7076SOL     OW21787   3.751   2.941   7.759
 7076SOL    HW121788   3.841   2.943   7.726
 7076SOL    HW221789   3.734   2.849   7.778
 7077SOL     OW21790   3.954   2.495   9.420
 7077SOL    HW121791   3.873   2.491   9.470
 7077SOL    HW221792   3.931   2.457   9.335
 7078SOL     OW21793   3.961   2.125  10.296
 7078SOL    HW121794   3.967   2.122  10.392
 7078SOL    HW221795   3.868   2.112  10.277
 7079SOL     OW21796   3.725   2.242   9.946
 7079SOL    HW121797   3.645   2.268   9.992
 7079SOL    HW221798   3.703   2.158   9.905
 7080SOL     OW21799   0.012   3.382  10.360
 7080SOL    HW121800   3.964   3.301  10.343
 7080SOL    HW221801   0.081   3.384  10.293
 7081SOL     OW21802   3.941   3.582   9.785
 7081SOL    HW121803   3.952   3.655   9.846
 7081SOL    HW221804   0.030   3.563   9.756
 7082SOL     OW21805   3.941   3.301   9.818
 7082SOL    HW121806   3.924   3.395   9.823
 7082SOL    HW221807   3.886   3.263   9.887
 7083SOL     OW21808   3.817   2.503   9.870
 7083SOL    HW121809   3.787   2.415   9.893
 7083SOL    HW221810   3.812   2.553   9.952
 7084SOL     OW21811   3.753   3.458   9.440
 7084SOL    HW121812   3.734   3.366   9.457
 7084SOL    HW221813   3.723   3.503   9.519
 7085SOL     OW21814   3.827   2.603  10.893
 7085SOL    HW121815   3.911   2.642  10.918
 7085SOL    HW221816   3.767   2.678  10.889
 7086SOL     OW21817   3.803   2.677  10.081
 7086SOL    HW121818   3.897   2.674  10.101
 7086SOL    HW221819   3.770   2.751  10.132
 7087SOL     OW21820   3.849   3.720  10.878
 7087SOL    HW121821   3.849   3.692  10.970
 7087SOL    HW221822   3.760   3.701  10.847
 7088SOL     OW21823   3.924   2.155  10.825
 7088SOL    HW121824   3.842   2.198  10.797
 7088SOL    HW221825   3.895   2.072  10.864
 7089SOL     OW21826   0.001   1.885   9.473
 7089SOL    HW121827   0.033   1.974   9.458
 7089SOL    HW221828   0.065   1.846   9.533
 7090SOL     OW21829   3.808   2.410  10.700
 7090SOL    HW121830   3.903   2.406  10.689
 7090SOL    HW221831   3.793   2.484  10.759
 7091SOL     OW21832   0.280   2.149   9.634
 7091SOL    HW121833   0.298   2.077   9.574
 7091SOL    HW221834   0.311   2.227   9.587
 7092SOL     OW21835   3.791   3.434  10.658
 7092SOL    HW121836   3.765   3.500  10.593
 7092SOL    HW221837   3.886   3.441  10.662
 7093SOL     OW21838   0.068   2.953   9.837
 7093SOL    HW121839   0.066   3.002   9.755
 7093SOL    HW221840   0.133   2.885   9.822
 7094SOL     OW21841   0.007   2.075  10.561
 7094SOL    HW121842   3.977   2.104  10.647
 7094SOL    HW221843   0.010   1.979  10.568
 7095SOL     OW21844   3.752   3.173  10.587
 7095SOL    HW121845   3.795   3.124  10.657
 7095SOL    HW221846   3.766   3.265  10.610
 7096SOL     OW21847   4.000   1.920   9.962
 7096SOL    HW121848   0.013   2.014   9.975
 7096SOL    HW221849   0.021   1.880  10.047
 7097SOL     OW21850   3.728   3.188   9.498
 7097SOL    HW121851   3.642   3.201   9.458
 7097SOL    HW221852   3.721   3.104   9.544
 7098SOL     OW21853   3.803   3.653  10.247
 7098SOL    HW121854   3.781   3.572  10.202
 7098SOL    HW221855   3.897   3.662  10.235
 7099SOL     OW21856   0.214   3.419  10.181
 7099SOL    HW121857   0.279   3.489  10.176
 7099SOL    HW221858   0.240   3.357  10.112
 7100SOL     OW21859   3.756   2.401  10.428
 7100SOL    HW121860   3.839   2.396  10.381
 7100SOL    HW221861   3.781   2.407  10.520
 7101SOL     OW21862   3.902   2.378  11.032
 7101SOL    HW121863   3.930   2.318  10.963
 7101SOL    HW221864   3.858   2.449  10.986
 7102SOL     OW21865   3.942   3.394  11.037
 7102SOL    HW121866   3.935   3.477  11.085
 7102SOL    HW221867   3.989   3.336  11.097
 7103SOL     OW21868   3.859   2.994  10.783
 7103SOL    HW121869   3.931   2.987  10.846
 7103SOL    HW221870   3.894   2.956  10.702
 7104SOL     OW21871   3.810   3.129  10.322
 7104SOL    HW121872   3.783   3.141  10.414
 7104SOL    HW221873   3.749   3.064  10.288
 7105SOL     OW21874   3.840   3.650  11.136
 7105SOL    HW121875   3.790   3.585  11.185
 7105SOL    HW221876   3.888   3.698  11.203
 7106SOL     OW21877   3.801   2.197   9.352
 7106SOL    HW121878   3.717   2.162   9.323
 7106SOL    HW221879   3.821   2.268   9.291
 7107SOL     OW21880   3.765   2.022   9.623
 7107SOL    HW121881   3.756   2.088   9.554
 7107SOL    HW221882   3.857   2.026   9.649
 7108SOL     OW21883   3.800   3.100   9.975
 7108SOL    HW121884   3.794   3.051  10.057
 7108SOL    HW221885   3.880   3.068   9.933
 7109SOL     OW21886   3.751   2.941   9.621
 7109SOL    HW121887   3.841   2.943   9.588
 7109SOL    HW221888   3.735   2.849   9.640
 7110SOL     OW21889   3.954   2.495  11.282
 7110SOL    HW121890   3.873   2.491  11.332
 7110SOL    HW221891   3.931   2.457  11.197
 7111SOL     OW21892   3.961   2.125  12.158
 7111SOL    HW121893   3.967   2.122  12.254
 7111SOL    HW221894   3.868   2.112  12.139
 7112SOL     OW21895   3.725   2.242  11.808
 7112SOL    HW121896   3.645   2.268  11.854
 7112SOL    HW221897   3.703   2.158  11.767
 7113SOL     OW21898   0.012   3.383  12.222
 7113SOL    HW121899   3.964   3.301  12.206
 7113SOL    HW221900   0.081   3.384  12.155
 7114SOL     OW21901   3.941   3.582  11.647
 7114SOL    HW121902   3.952   3.655  11.708
 7114SOL    HW221903   0.030   3.563  11.618
 7115SOL     OW21904   3.941   3.301  11.680
 7115SOL    HW121905   3.924   3.395  11.685
 7115SOL    HW221906   3.886   3.263  11.749
 7116SOL     OW21907   3.817   2.503  11.732
 7116SOL    HW121908   3.787   2.415  11.755
 7116SOL    HW221909   3.812   2.553  11.814
 7117SOL     OW21910   3.753   3.458  11.302
 7117SOL    HW121911   3.734   3.366  11.319
 7117SOL    HW221912   3.723   3.503  11.381
 7118SOL     OW21913   3.827   2.603  12.755
 7118SOL    HW121914   3.911   2.642  12.780
 7118SOL    HW221915   3.766   2.677  12.751
 7119SOL     OW21916   3.803   2.677  11.943
 7119SOL    HW121917   3.897   2.674  11.963
 7119SOL    HW221918   3.770   2.751  11.994
 7120SOL     OW21919   3.849   3.720  12.741
 7120SOL    HW121920   3.849   3.693  12.833
 7120SOL    HW221921   3.761   3.700  12.710
 7121SOL     OW21922   3.923   2.155  12.687
 7121SOL    HW121923   3.842   2.198  12.659
 7121SOL    HW221924   3.895   2.072  12.726
 7122SOL     OW21925   0.001   1.885  11.335
 7122SOL    HW121926   0.033   1.974  11.320
 7122SOL    HW221927   0.065   1.846  11.395
 7123SOL     OW21928   3.808   2.410  12.562
 7123SOL    HW121929   3.903   2.406  12.552
 7123SOL    HW221930   3.793   2.484  12.621
 7124SOL     OW21931   0.280   2.149  11.496
 7124SOL    HW121932   0.298   2.077  11.436
 7124SOL    HW221933   0.311   2.227  11.449
 7125SOL     OW21934   3.791   3.434  12.520
 7125SOL    HW121935   3.765   3.500  12.455
 7125SOL    HW221936   3.886   3.441  12.524
 7126SOL     OW21937   0.068   2.953  11.699
 7126SOL    HW121938   0.066   3.002  11.617
 7126SOL    HW221939   0.133   2.885  11.684
 7127SOL     OW21940   0.007   2.075  12.423
 7127SOL    HW121941   3.977   2.104  12.509
 7127SOL    HW221942   0.010   1.979  12.430
 7128SOL     OW21943   3.752   3.173  12.449
 7128SOL    HW121944   3.795   3.124  12.519
 7128SOL    HW221945   3.766   3.265  12.473
 7129SOL     OW21946   4.000   1.920  11.824
 7129SOL    HW121947   0.013   2.014  11.837
 7129SOL    HW221948   0.021   1.880  11.909
 7130SOL     OW21949   3.728   3.188  11.360
 7130SOL    HW121950   3.642   3.201  11.320
 7130SOL    HW221951   3.721   3.104  11.406
 7131SOL     OW21952   3.803   3.653  12.109
 7131SOL    HW121953   3.781   3.572  12.064
 7131SOL    HW221954   3.897   3.662  12.097
 7132SOL     OW21955   0.214   3.419  12.043
 7132SOL    HW121956   0.279   3.489  12.038
 7132SOL    HW221957   0.240   3.357  11.974
 7133SOL     OW21958   3.756   2.401  12.290
 7133SOL    HW121959   3.839   2.396  12.243
 7133SOL    HW221960   3.781   2.407  12.382
 7134SOL     OW21961   3.902   2.378  12.894
 7134SOL    HW121962   3.930   2.318  12.825
 7134SOL    HW221963   3.858   2.449  12.848
 7135SOL     OW21964   3.942   3.395  12.900
 7135SOL    HW121965   3.934   3.477  12.948
 7135SOL    HW221966   3.987   3.336  12.960
 7136SOL     OW21967   3.859   2.994  12.645
 7136SOL    HW121968   3.931   2.987  12.708
 7136SOL    HW221969   3.894   2.956  12.564
 7137SOL     OW21970   3.810   3.129  12.184
 7137SOL    HW121971   3.783   3.141  12.276
 7137SOL    HW221972   3.749   3.064  12.150
 7138SOL     OW21973   3.841   3.652  13.000
 7138SOL    HW121974   3.791   3.586  13.048
 7138SOL    HW221975   3.888   3.700  13.068
 7139SOL     OW21976   3.801   2.197  11.214
 7139SOL    HW121977   3.717   2.162  11.185
 7139SOL    HW221978   3.821   2.268  11.153
 7140SOL     OW21979   3.765   2.022  11.485
 7140SOL    HW121980   3.756   2.088  11.416
 7140SOL    HW221981   3.857   2.026  11.511
 7141SOL     OW21982   3.800   3.100  11.837
 7141SOL    HW121983   3.794   3.051  11.919
 7141SOL    HW221984   3.880   3.068  11.795
 7142SOL     OW21985   3.751   2.941  11.483
 7142SOL    HW121986   3.841   2.943  11.450
 7142SOL    HW221987   3.735   2.849  11.502
 7143SOL     OW21988   3.953   2.494  13.145
 7143SOL    HW121989   3.870   2.490  13.193
 7143SOL    HW221990   3.932   2.457  13.059
 7144SOL     OW21991   3.723   2.244  13.661
 7144SOL    HW121992   3.636   2.273  13.687
 7144SOL    HW221993   3.708   2.159  13.620
 7145SOL     OW21994   3.942   3.579  13.502
 7145SOL    HW121995   3.941   3.656  13.557
 7145SOL    HW221996   0.035   3.564  13.483
 7146SOL     OW21997   3.941   3.298  13.540
 7146SOL    HW121998   3.926   3.392  13.543
 7146SOL    HW221999   3.884   3.262  13.609
 7147SOL     OW22000   3.948   2.954   0.002
 7147SOL    HW122001   3.983   2.911   0.080
 7147SOL    HW222002   3.867   2.995   0.032
 7148SOL     OW22003   3.832   2.504  13.597
 7148SOL    HW122004   3.782   2.424  13.612
 7148SOL    HW222005   3.816   2.557  13.675
 7149SOL     OW22006   3.750   3.458  13.162
 7149SOL    HW122007   3.733   3.366  13.180
 7149SOL    HW222008   3.722   3.504  13.242
 7150SOL     OW22009   3.800   2.673  13.808
 7150SOL    HW122010   3.894   2.681  13.825
 7150SOL    HW222011   3.762   2.750  13.850
 7151SOL     OW22012   0.112   3.636  13.842
 7151SOL    HW122013   0.071   3.577   0.005
 7151SOL    HW222014   0.185   3.676  13.891
 7152SOL     OW22015   0.001   1.887  13.199
 7152SOL    HW122016   0.040   1.972  13.177
 7152SOL    HW222017   0.065   1.846  13.258
 7153SOL     OW22018   0.279   2.150  13.352
 7153SOL    HW122019   0.300   2.076  13.295
 7153SOL    HW222020   0.317   2.226  13.308
 7154SOL     OW22021   0.069   2.954  13.555
 7154SOL    HW122022   0.067   3.006  13.475
 7154SOL    HW222023   0.137   2.888  13.540
 7155SOL     OW22024   3.984   1.926  13.669
 7155SOL    HW122025   0.011   2.017  13.681
 7155SOL    HW222026   0.023   1.879  13.743
 7156SOL     OW22027   3.728   3.188  13.222
 7156SOL    HW122028   3.642   3.202  13.182
 7156SOL    HW222029   3.721   3.105  13.268
 7157SOL     OW22030   0.321   3.404   0.013
 7157SOL    HW122031   0.265   3.478   0.038
 7157SOL    HW222032   0.264   3.348  13.860
 7158SOL     OW22033   3.801   2.197  13.076
 7158SOL    HW122034   3.717   2.163  13.047
 7158SOL    HW222035   3.821   2.268  13.015
 7159SOL     OW22036   3.765   2.023  13.347
 7159SOL    HW122037   3.757   2.087  13.276
 7159SOL    HW222038   3.857   2.027  13.373
 7160SOL     OW22039   3.807   3.095  13.694
 7160SOL    HW122040   3.796   3.031  13.763
 7160SOL    HW222041   3.884   3.066  13.646
 7161SOL     OW22042   3.752   2.940  13.343
 7161SOL    HW122043   3.841   2.943  13.310
 7161SOL    HW222044   3.736   2.848  13.363
 7162SOL     OW22045   3.963   3.975   0.990
 7162SOL    HW122046   3.967   3.969   1.085
 7162SOL    HW222047   3.872   3.952   0.968
 7163SOL     OW22048   3.750   0.062   0.689
 7163SOL    HW122049   3.672   0.117   0.692
 7163SOL    HW222050   3.722   3.983   0.642
 7164SOL     OW22051   3.915   0.004   1.508
 7164SOL    HW122052   3.825   0.036   1.501
 7164SOL    HW222053   3.909   3.931   1.569
 7165SOL     OW22054   3.981   3.769   0.181
 7165SOL    HW122055   0.018   3.834   0.121
 7165SOL    HW222056   0.050   3.703   0.191
 7166SOL     OW22057   0.000   3.935   1.256
 7166SOL    HW122058   3.966   3.944   1.345
 7166SOL    HW222059   0.027   3.843   1.249
 7167SOL     OW22060   0.024   3.777   0.648
 7167SOL    HW122061   0.044   3.870   0.652
 7167SOL    HW222062   0.033   3.746   0.738
 7168SOL     OW22063   3.787   3.869   0.343
 7168SOL    HW122064   3.788   3.963   0.326
 7168SOL    HW222065   3.864   3.836   0.296
 7169SOL     OW22066   3.963   3.974   2.850
 7169SOL    HW122067   3.967   3.969   2.946
 7169SOL    HW222068   3.872   3.952   2.829
 7170SOL     OW22069   3.748   0.060   2.555
 7170SOL    HW122070   3.672   0.118   2.556
 7170SOL    HW222071   3.718   3.983   2.505
 7171SOL     OW22072   3.915   0.004   3.370
 7171SOL    HW122073   3.826   0.037   3.363
 7171SOL    HW222074   3.909   3.931   3.431
 7172SOL     OW22075   3.990   3.756   2.024
 7172SOL    HW122076   0.028   3.834   1.982
 7172SOL    HW222077   0.060   3.722   2.080
 7173SOL     OW22078   0.000   3.935   3.117
 7173SOL    HW122079   3.965   3.944   3.206
 7173SOL    HW222080   0.027   3.843   3.111
 7174SOL     OW22081   0.018   3.778   2.514
 7174SOL    HW122082   0.047   3.869   2.518
 7174SOL    HW222083   0.030   3.744   2.603
 7175SOL     OW22084   3.804   0.051   1.894
 7175SOL    HW122085   3.739   0.019   1.832
 7175SOL    HW222086   3.807   0.145   1.879
 7176SOL     OW22087   3.783   3.870   2.186
 7176SOL    HW122088   3.778   3.962   2.162
 7176SOL    HW222089   3.871   3.843   2.160
 7177SOL     OW22090   3.963   3.973   4.712
 7177SOL    HW122091   3.967   3.969   4.808
 7177SOL    HW222092   3.872   3.952   4.691
 7178SOL     OW22093   3.748   0.060   4.417
 7178SOL    HW122094   3.672   0.118   4.418
 7178SOL    HW222095   3.718   3.983   4.367
 7179SOL     OW22096   3.915   0.004   5.232
 7179SOL    HW122097   3.826   0.037   5.225
 7179SOL    HW222098   3.909   3.930   5.293
 7180SOL     OW22099   3.990   3.756   3.886
 7180SOL    HW122100   0.028   3.834   3.844
 7180SOL    HW222101   0.059   3.722   3.942
 7181SOL     OW22102   0.000   3.935   4.979
 7181SOL    HW122103   3.965   3.944   5.068
 7181SOL    HW222104   0.027   3.843   4.973
 7182SOL     OW22105   0.018   3.778   4.376
 7182SOL    HW122106   0.047   3.869   4.380
 7182SOL    HW222107   0.030   3.744   4.465
 7183SOL     OW22108   3.804   0.051   3.756
 7183SOL    HW122109   3.739   0.019   3.694
 7183SOL    HW222110   3.807   0.145   3.741
 7184SOL     OW22111   3.783   3.870   4.048
 7184SOL    HW122112   3.778   3.962   4.024
 7184SOL    HW222113   3.871   3.843   4.022
 7185SOL     OW22114   3.963   3.974   6.575
 7185SOL    HW122115   3.967   3.969   6.670
 7185SOL    HW222116   3.872   3.952   6.553
 7186SOL     OW22117   3.748   0.060   6.279
 7186SOL    HW122118   3.672   0.118   6.280
 7186SOL    HW222119   3.719   3.983   6.229
 7187SOL     OW22120   3.915   0.004   7.094
 7187SOL    HW122121   3.825   0.036   7.087
 7187SOL    HW222122   3.909   3.930   7.155
 7188SOL     OW22123   3.990   3.756   5.748
 7188SOL    HW122124   0.028   3.834   5.706
 7188SOL    HW222125   0.059   3.722   5.804
 7189SOL     OW22126   0.000   3.935   6.841
 7189SOL    HW122127   3.966   3.944   6.930
 7189SOL    HW222128   0.027   3.843   6.835
 7190SOL     OW22129   0.018   3.778   6.238
 7190SOL    HW122130   0.047   3.869   6.243
 7190SOL    HW222131   0.030   3.744   6.327
 7191SOL     OW22132   3.804   0.051   5.618
 7191SOL    HW122133   3.738   0.019   5.556
 7191SOL    HW222134   3.807   0.145   5.603
 7192SOL     OW22135   3.783   3.870   5.910
 7192SOL    HW122136   3.778   3.962   5.886
 7192SOL    HW222137   3.871   3.843   5.884
 7193SOL     OW22138   3.963   3.974   8.437
 7193SOL    HW122139   3.967   3.969   8.532
 7193SOL    HW222140   3.872   3.952   8.415
 7194SOL     OW22141   3.748   0.060   8.141
 7194SOL    HW122142   3.672   0.118   8.142
 7194SOL    HW222143   3.719   3.983   8.091
 7195SOL     OW22144   3.915   0.004   8.956
 7195SOL    HW122145   3.826   0.037   8.949
 7195SOL    HW222146   3.909   3.930   9.017
 7196SOL     OW22147   3.990   3.757   7.610
 7196SOL    HW122148   0.028   3.834   7.568
 7196SOL    HW222149   0.060   3.722   7.666
 7197SOL     OW22150   0.000   3.935   8.703
 7197SOL    HW122151   3.965   3.944   8.792
 7197SOL    HW222152   0.027   3.843   8.697
 7198SOL     OW22153   0.018   3.778   8.100
 7198SOL    HW122154   0.047   3.869   8.104
 7198SOL    HW222155   0.030   3.744   8.189
 7199SOL     OW22156   3.804   0.051   7.480
 7199SOL    HW122157   3.739   0.019   7.417
 7199SOL    HW222158   3.807   0.145   7.465
 7200SOL     OW22159   3.783   3.870   7.772
 7200SOL    HW122160   3.778   3.962   7.747
 7200SOL    HW222161   3.870   3.842   7.745
 7201SOL     OW22162   3.963   3.974  10.298
 7201SOL    HW122163   3.967   3.969  10.394
 7201SOL    HW222164   3.872   3.952  10.277
 7202SOL     OW22165   3.748   0.060  10.003
 7202SOL    HW122166   3.672   0.118  10.004
 7202SOL    HW222167   3.718   3.983   9.953
 7203SOL     OW22168   3.915   0.004  10.818
 7203SOL    HW122169   3.826   0.037  10.811
 7203SOL    HW222170   3.909   3.930  10.879
 7204SOL     OW22171   3.990   3.756   9.472
 7204SOL    HW122172   0.028   3.834   9.430
 7204SOL    HW222173   0.060   3.722   9.528
 7205SOL     OW22174   0.000   3.935  10.565
 7205SOL    HW122175   3.965   3.944  10.654
 7205SOL    HW222176   0.027   3.843  10.559
 7206SOL     OW22177   0.018   3.778   9.962
 7206SOL    HW122178   0.047   3.869   9.966
 7206SOL    HW222179   0.030   3.744  10.051
 7207SOL     OW22180   3.804   0.051   9.342
 7207SOL    HW122181   3.739   0.019   9.280
 7207SOL    HW222182   3.807   0.145   9.327
 7208SOL     OW22183   3.783   3.870   9.634
 7208SOL    HW122184   3.778   3.962   9.610
 7208SOL    HW222185   3.871   3.843   9.608
 7209SOL     OW22186   3.963   3.974  12.161
 7209SOL    HW122187   3.967   3.969  12.256
 7209SOL    HW222188   3.872   3.952  12.139
 7210SOL     OW22189   3.748   0.060  11.865
 7210SOL    HW122190   3.672   0.118  11.866
 7210SOL    HW222191   3.718   3.983  11.815
 7211SOL     OW22192   3.915   0.003  12.680
 7211SOL    HW122193   3.825   0.036  12.673
 7211SOL    HW222194   3.909   3.930  12.741
 7212SOL     OW22195   3.990   3.756  11.334
 7212SOL    HW122196   0.028   3.834  11.292
 7212SOL    HW222197   0.060   3.722  11.390
 7213SOL     OW22198   0.000   3.935  12.428
 7213SOL    HW122199   3.965   3.944  12.516
 7213SOL    HW222200   0.026   3.843  12.421
 7214SOL     OW22201   0.018   3.778  11.824
 7214SOL    HW122202   0.046   3.869  11.828
 7214SOL    HW222203   0.030   3.744  11.913
 7215SOL     OW22204   3.804   0.051  11.204
 7215SOL    HW122205   3.739   0.019  11.142
 7215SOL    HW222206   3.807   0.145  11.189
 7216SOL     OW22207   3.783   3.870  11.496
 7216SOL    HW122208   3.778   3.962  11.472
 7216SOL    HW222209   3.871   3.843  11.470
 7217SOL     OW22210   3.742   0.082  13.686
 7217SOL    HW122211   3.671   0.110  13.744
 7217SOL    HW222212   3.720   3.991  13.663
 7218SOL     OW22213   3.991   3.760  13.200
 7218SOL    HW122214   0.034   3.833  13.154
 7218SOL    HW222215   0.059   3.723  13.255
 7219SOL     OW22216   3.982   3.792  13.668
 7219SOL    HW122217   0.026   3.876  13.678
 7219SOL    HW222218   0.025   3.734  13.731
 7220SOL     OW22219   3.805   0.051  13.065
 7220SOL    HW122220   3.738   0.019  13.004
 7220SOL    HW222221   3.808   0.145  13.050
 7221SOL     OW22222   3.780   3.871  13.356
 7221SOL    HW122223   3.777   3.964  13.337
 7221SOL    HW222224   3.866   3.842  13.327
   4.00000   4.00000  13.90000
