2gCDOH_2PEG_l14
22215
    1LIG      O    1   2.172   2.098   0.035
    1LIG      C    2   2.133   2.160   0.186
    1LIG     C1    3   2.185   2.097   0.352
    1LIG     O1    4   2.137   2.152   0.503
    1LIG     C2    5   2.186   2.103   0.656
    1LIG     C3    6   2.128   2.163   0.820
    1LIG     O2    7   2.185   2.119   0.972
    1LIG     C4    8   2.127   2.151   1.127
    1LIG     C5    9   2.196   2.095   1.287
    1LIG     O3   10   2.149   2.145   1.438
    1LIG     C6   11   2.194   2.084   1.587
    1LIG     C7   12   2.145   2.147   1.751
    1LIG     O4   13   2.185   2.083   1.900
    1LIG     C8   14   2.136   2.136   2.051
    1LIG     C9   15   2.191   2.078   2.215
    1LIG     O5   16   2.144   2.135   2.365
    1LIG    C10   17   2.185   2.083   2.518
    1LIG    C11   18   2.131   2.151   2.679
    1LIG     O6   19   2.186   2.106   2.831
    1LIG    C12   20   2.130   2.143   2.984
    1LIG    C13   21   2.198   2.089   3.143
    1LIG     O7   22   2.151   2.142   3.293
    1LIG    C14   23   2.197   2.083   3.441
    1LIG    C15   24   2.147   2.147   3.603
    1LIG     O8   25   2.190   2.087   3.752
    1LIG    C16   26   2.139   2.140   3.902
    1LIG    C17   27   2.200   2.087   4.066
    1LIG     O9   28   2.147   2.140   4.215
    1LIG    C18   29   2.195   2.093   4.367
    1LIG    C19   30   2.134   2.155   4.528
    1LIG    O10   31   2.191   2.112   4.679
    1LIG    C20   32   2.131   2.144   4.831
    1LIG    C21   33   2.200   2.090   4.989
    1LIG    O11   34   2.152   2.143   5.139
    1LIG    C22   35   2.197   2.082   5.287
    1LIG    C23   36   2.147   2.146   5.449
    1LIG    O12   37   2.190   2.086   5.597
    1LIG    C24   38   2.139   2.139   5.747
    1LIG    C25   39   2.201   2.087   5.910
    1LIG    O13   40   2.146   2.136   6.059
    1LIG    C26   41   2.198   2.093   6.210
    1LIG    C27   42   2.134   2.150   6.370
    1LIG    O14   43   2.195   2.111   6.519
    1LIG    C28   44   2.139   2.155   6.669
    1LIG    C29   45   2.203   2.098   6.829
    1LIG    O15   46   2.156   2.154   6.978
    1LIG    C30   47   2.199   2.093   7.127
    1LIG    C31   48   2.149   2.155   7.292
    1LIG    O16   49   2.191   2.095   7.443
    1LIG    C32   50   2.141   2.147   7.594
    1LIG    C33   51   2.198   2.089   7.757
    1LIG    O17   52   2.148   2.145   7.906
    1LIG    C34   53   2.196   2.101   8.060
    1LIG    C35   54   2.138   2.165   8.220
    1LIG    O18   55   2.185   2.111   8.370
    1LIG    C36   56   2.138   2.163   8.520
    1LIG    C37   57   2.196   2.100   8.680
    1LIG    O19   58   2.154   2.157   8.830
    1LIG    C38   59   2.200   2.098   8.979
    1LIG    C39   60   2.146   2.159   9.142
    1LIG    O20   61   2.195   2.101   9.290
    1LIG    C40   62   2.144   2.149   9.442
    1LIG    C41   63   2.206   2.096   9.605
    1LIG    O21   64   2.152   2.147   9.754
    1LIG    C42   65   2.199   2.100   9.906
    1LIG    C43   66   2.139   2.164  10.066
    1LIG    O22   67   2.187   2.113  10.216
    1LIG    C44   68   2.136   2.165  10.365
    1LIG    C45   69   2.193   2.102  10.526
    1LIG    O23   70   2.147   2.160  10.675
    1LIG    C46   71   2.190   2.102  10.825
    1LIG    C47   72   2.135   2.165  10.986
    1LIG    O24   73   2.179   2.106  11.136
    1LIG    C48   74   2.130   2.160  11.287
    1LIG    C49   75   2.189   2.100  11.450
    1LIG    O25   76   2.140   2.153  11.601
    1LIG    C50   77   2.190   2.105  11.753
    1LIG    C51   78   2.133   2.168  11.915
    1LIG    O26   79   2.182   2.116  12.066
    1LIG    C52   80   2.133   2.167  12.216
    1LIG    C53   81   2.190   2.104  12.378
    1LIG    O27   82   2.146   2.161  12.529
    1LIG    C54   83   2.189   2.103  12.681
    1LIG    C55   84   2.134   2.165  12.844
    1LIG    O28   85   2.178   2.106  12.995
    1LIG    C56   86   2.131   2.159  13.148
    1LIG    C57   87   2.187   2.097  13.313
    1LIG    O29   88   2.145   2.154  13.466
    1LIG    C58   89   2.179   2.091  13.619
    1LIG    C59   90   2.153   2.169  13.784
    1LIG      H   91   2.023   2.162   0.190
    1LIG     H1   92   2.158   2.266   0.183
    1LIG     H2   93   2.294   2.103   0.351
    1LIG     H3   94   2.162   1.990   0.350
    1LIG     H4   95   2.295   2.116   0.659
    1LIG     H5   96   2.171   1.994   0.658
    1LIG     H6   97   2.020   2.145   0.822
    1LIG     H7   98   2.136   2.272   0.815
    1LIG     H8   99   2.022   2.121   1.128
    1LIG     H9  100   2.120   2.259   1.137
    1LIG    H10  101   2.304   2.115   1.280
    1LIG    H11  102   2.187   1.986   1.286
    1LIG    H12  103   2.304   2.084   1.588
    1LIG    H13  104   2.164   1.979   1.587
    1LIG    H14  105   2.036   2.152   1.747
    1LIG    H15  106   2.180   2.251   1.753
    1LIG    H16  107   2.028   2.121   2.054
    1LIG    H17  108   2.145   2.245   2.051
    1LIG    H18  109   2.300   2.086   2.212
    1LIG    H19  110   2.171   1.970   2.216
    1LIG    H20  111   2.294   2.084   2.523
    1LIG    H21  112   2.156   1.977   2.521
    1LIG    H22  113   2.023   2.141   2.682
    1LIG    H23  114   2.148   2.259   2.672
    1LIG    H24  115   2.024   2.118   2.986
    1LIG    H25  116   2.127   2.252   2.992
    1LIG    H26  117   2.306   2.108   3.136
    1LIG    H27  118   2.188   1.980   3.144
    1LIG    H28  119   2.306   2.083   3.442
    1LIG    H29  120   2.167   1.978   3.442
    1LIG    H30  121   2.038   2.149   3.600
    1LIG    H31  122   2.180   2.251   3.603
    1LIG    H32  123   2.032   2.119   3.907
    1LIG    H33  124   2.143   2.249   3.900
    1LIG    H34  125   2.308   2.105   4.064
    1LIG    H35  126   2.189   1.978   4.067
    1LIG    H36  127   2.304   2.109   4.371
    1LIG    H37  128   2.181   1.985   4.370
    1LIG    H38  129   2.026   2.135   4.528
    1LIG    H39  130   2.141   2.264   4.522
    1LIG    H40  131   2.026   2.113   4.831
    1LIG    H41  132   2.122   2.252   4.840
    1LIG    H42  133   2.307   2.111   4.983
    1LIG    H43  134   2.191   1.981   4.990
    1LIG    H44  135   2.306   2.082   5.288
    1LIG    H45  136   2.167   1.977   5.287
    1LIG    H46  137   2.038   2.149   5.446
    1LIG    H47  138   2.179   2.251   5.448
    1LIG    H48  139   2.033   2.116   5.752
    1LIG    H49  140   2.141   2.248   5.745
    1LIG    H50  141   2.309   2.108   5.908
    1LIG    H51  142   2.194   1.977   5.909
    1LIG    H52  143   2.305   2.116   6.214
    1LIG    H53  144   2.192   1.983   6.215
    1LIG    H54  145   2.029   2.120   6.372
    1LIG    H55  146   2.130   2.259   6.363
    1LIG    H56  147   2.032   2.135   6.670
    1LIG    H57  148   2.147   2.264   6.674
    1LIG    H58  149   2.311   2.113   6.824
    1LIG    H59  150   2.189   1.990   6.830
    1LIG    H60  151   2.308   2.094   7.127
    1LIG    H61  152   2.168   1.988   7.125
    1LIG    H62  153   2.040   2.157   7.290
    1LIG    H63  154   2.182   2.260   7.293
    1LIG    H64  155   2.033   2.133   7.596
    1LIG    H65  156   2.153   2.255   7.595
    1LIG    H66  157   2.307   2.101   7.756
    1LIG    H67  158   2.181   1.981   7.758
    1LIG    H68  159   2.305   2.117   8.063
    1LIG    H69  160   2.182   1.993   8.067
    1LIG    H70  161   2.029   2.158   8.218
    1LIG    H71  162   2.160   2.272   8.219
    1LIG    H72  163   2.029   2.154   8.523
    1LIG    H73  164   2.156   2.271   8.522
    1LIG    H74  165   2.306   2.106   8.675
    1LIG    H75  166   2.174   1.993   8.680
    1LIG    H76  167   2.309   2.103   8.982
    1LIG    H77  168   2.175   1.992   8.978
    1LIG    H78  169   2.037   2.151   9.140
    1LIG    H79  170   2.167   2.267   9.142
    1LIG    H80  171   2.038   2.124   9.447
    1LIG    H81  172   2.144   2.258   9.442
    1LIG    H82  173   2.314   2.113   9.603
    1LIG    H83  174   2.196   1.986   9.605
    1LIG    H84  175   2.308   2.114   9.910
    1LIG    H85  176   2.184   1.992   9.911
    1LIG    H86  177   2.031   2.153  10.063
    1LIG    H87  178   2.156   2.273  10.063
    1LIG    H88  179   2.027   2.155  10.366
    1LIG    H89  180   2.154   2.273  10.367
    1LIG    H90  181   2.302   2.110  10.522
    1LIG    H91  182   2.171   1.995  10.525
    1LIG    H92  183   2.300   2.107  10.829
    1LIG    H93  184   2.166   1.996  10.825
    1LIG    H94  185   2.025   2.161  10.983
    1LIG    H95  186   2.159   2.272  10.986
    1LIG    H96  187   2.022   2.148  11.289
    1LIG    H97  188   2.143   2.268  11.285
    1LIG    H98  189   2.298   2.111  11.448
    1LIG    H99  190   2.172   1.992  11.449
    1LIG   H100  191   2.298   2.119  11.755
    1LIG   H101  192   2.175   1.996  11.757
    1LIG   H102  193   2.024   2.156  11.914
    1LIG   H103  194   2.149   2.276  11.912
    1LIG   H104  195   2.024   2.156  12.218
    1LIG   H105  196   2.150   2.275  12.219
    1LIG   H106  197   2.300   2.112  12.374
    1LIG   H107  198   2.169   1.997  12.377
    1LIG   H108  199   2.298   2.107  12.684
    1LIG   H109  200   2.165   1.996  12.680
    1LIG   H110  201   2.025   2.163  12.841
    1LIG   H111  202   2.159   2.272  12.845
    1LIG   H112  203   2.022   2.152  13.150
    1LIG   H113  204   2.148   2.267  13.147
    1LIG   H114  205   2.297   2.098  13.309
    1LIG   H115  206   2.161   1.990  13.313
    1LIG   H116  207   2.286   2.069  13.618
    1LIG   H117  208   2.129   1.994  13.623
    1LIG   H118  209   2.052   2.210  13.783
    1LIG   H119  210   2.218   2.256  13.783
    2LIG      O  211   1.845   1.860   0.043
    2LIG      C  212   1.904   1.898   0.195
    2LIG     C1  213   1.839   1.848   0.360
    2LIG     O1  214   1.897   1.893   0.511
    2LIG     C2  215   1.840   1.848   0.664
    2LIG     C3  216   1.895   1.905   0.829
    2LIG     O2  217   1.847   1.848   0.979
    2LIG     C4  218   1.888   1.904   1.130
    2LIG     C5  219   1.836   1.840   1.293
    2LIG     O3  220   1.880   1.895   1.445
    2LIG     C6  221   1.832   1.841   1.597
    2LIG     C7  222   1.887   1.902   1.761
    2LIG     O4  223   1.839   1.847   1.912
    2LIG     C8  224   1.885   1.904   2.062
    2LIG     C9  225   1.830   1.844   2.226
    2LIG     O5  226   1.884   1.895   2.376
    2LIG    C10  227   1.830   1.847   2.527
    2LIG    C11  228   1.886   1.905   2.689
    2LIG     O6  229   1.837   1.849   2.838
    2LIG    C12  230   1.881   1.906   2.988
    2LIG    C13  231   1.829   1.842   3.149
    2LIG     O7  232   1.875   1.897   3.300
    2LIG    C14  233   1.828   1.843   3.451
    2LIG    C15  234   1.884   1.904   3.613
    2LIG     O8  235   1.837   1.849   3.763
    2LIG    C16  236   1.884   1.906   3.912
    2LIG    C17  237   1.829   1.846   4.075
    2LIG     O9  238   1.883   1.897   4.224
    2LIG    C18  239   1.827   1.850   4.374
    2LIG    C19  240   1.885   1.906   4.536
    2LIG    O10  241   1.835   1.850   4.684
    2LIG    C20  242   1.879   1.906   4.833
    2LIG    C21  243   1.826   1.842   4.994
    2LIG    O11  244   1.870   1.899   5.144
    2LIG    C22  245   1.826   1.843   5.294
    2LIG    C23  246   1.882   1.904   5.456
    2LIG    O12  247   1.833   1.849   5.605
    2LIG    C24  248   1.879   1.904   5.754
    2LIG    C25  249   1.824   1.841   5.915
    2LIG    O13  250   1.872   1.893   6.065
    2LIG    C26  251   1.823   1.838   6.214
    2LIG    C27  252   1.876   1.904   6.375
    2LIG    O14  253   1.831   1.850   6.525
    2LIG    C28  254   1.878   1.906   6.673
    2LIG    C29  255   1.822   1.845   6.835
    2LIG    O15  256   1.870   1.899   6.986
    2LIG    C30  257   1.821   1.847   7.138
    2LIG    C31  258   1.887   1.900   7.299
    2LIG    O16  259   1.833   1.853   7.450
    2LIG    C32  260   1.884   1.905   7.599
    2LIG    C33  261   1.820   1.855   7.762
    2LIG    O17  262   1.885   1.894   7.911
    2LIG    C34  263   1.824   1.858   8.061
    2LIG    C35  264   1.888   1.910   8.223
    2LIG    O18  265   1.836   1.859   8.372
    2LIG    C36  266   1.883   1.914   8.521
    2LIG    C37  267   1.827   1.852   8.682
    2LIG    O19  268   1.876   1.904   8.833
    2LIG    C38  269   1.833   1.848   8.985
    2LIG    C39  270   1.889   1.910   9.146
    2LIG    O20  271   1.842   1.857   9.296
    2LIG    C40  272   1.890   1.912   9.445
    2LIG    C41  273   1.834   1.852   9.608
    2LIG    O21  274   1.890   1.900   9.757
    2LIG    C42  275   1.833   1.856   9.907
    2LIG    C43  276   1.893   1.910  10.070
    2LIG    O22  277   1.843   1.856  10.218
    2LIG    C44  278   1.888   1.912  10.368
    2LIG    C45  279   1.832   1.848  10.529
    2LIG    O23  280   1.880   1.901  10.680
    2LIG    C46  281   1.839   1.844  10.831
    2LIG    C47  282   1.895   1.906  10.993
    2LIG    O24  283   1.852   1.849  11.143
    2LIG    C48  284   1.896   1.906  11.293
    2LIG    C49  285   1.841   1.844  11.455
    2LIG    O25  286   1.896   1.892  11.606
    2LIG    C50  287   1.836   1.851  11.756
    2LIG    C51  288   1.896   1.905  11.920
    2LIG    O26  289   1.846   1.850  12.070
    2LIG    C52  290   1.890   1.907  12.221
    2LIG    C53  291   1.835   1.845  12.384
    2LIG    O27  292   1.883   1.898  12.537
    2LIG    C54  293   1.841   1.842  12.690
    2LIG    C55  294   1.897   1.905  12.853
    2LIG    O28  295   1.855   1.848  13.005
    2LIG    C56  296   1.900   1.904  13.157
    2LIG    C57  297   1.844   1.844  13.322
    2LIG    O29  298   1.904   1.886  13.474
    2LIG    C58  299   1.839   1.855  13.626
    2LIG    C59  300   1.916   1.879  13.792
    2LIG      H  301   1.901   2.007   0.199
    2LIG     H1  302   2.010   1.871   0.196
    2LIG     H2  303   1.838   1.739   0.359
    2LIG     H3  304   1.733   1.878   0.358
    2LIG     H4  305   1.843   1.738   0.667
    2LIG     H5  306   1.734   1.876   0.664
    2LIG     H6  307   1.868   2.011   0.829
    2LIG     H7  308   2.004   1.902   0.827
    2LIG     H8  309   1.854   2.009   1.132
    2LIG     H9  310   1.997   1.908   1.133
    2LIG    H10  311   1.855   1.732   1.291
    2LIG    H11  312   1.727   1.850   1.288
    2LIG    H12  313   1.853   1.734   1.599
    2LIG    H13  314   1.723   1.850   1.600
    2LIG    H14  315   1.866   2.009   1.760
    2LIG    H15  316   1.997   1.894   1.759
    2LIG    H16  317   1.859   2.010   2.063
    2LIG    H17  318   1.995   1.899   2.065
    2LIG    H18  319   1.843   1.736   2.224
    2LIG    H19  320   1.722   1.860   2.226
    2LIG    H20  321   1.836   1.738   2.529
    2LIG    H21  322   1.723   1.872   2.529
    2LIG    H22  323   1.863   2.012   2.689
    2LIG    H23  324   1.995   1.898   2.688
    2LIG    H24  325   1.851   2.011   2.989
    2LIG    H25  326   1.991   1.906   2.989
    2LIG    H26  327   1.848   1.734   3.148
    2LIG    H27  328   1.720   1.853   3.145
    2LIG    H28  329   1.850   1.736   3.452
    2LIG    H29  330   1.719   1.851   3.454
    2LIG    H30  331   1.863   2.012   3.612
    2LIG    H31  332   1.994   1.896   3.611
    2LIG    H32  333   1.858   2.012   3.913
    2LIG    H33  334   1.993   1.900   3.915
    2LIG    H34  335   1.842   1.737   4.072
    2LIG    H35  336   1.720   1.862   4.075
    2LIG    H36  337   1.832   1.740   4.377
    2LIG    H37  338   1.722   1.877   4.376
    2LIG    H38  339   1.863   2.013   4.537
    2LIG    H39  340   1.994   1.898   4.535
    2LIG    H40  341   1.850   2.011   4.835
    2LIG    H41  342   1.988   1.904   4.835
    2LIG    H42  343   1.845   1.734   4.993
    2LIG    H43  344   1.717   1.852   4.990
    2LIG    H44  345   1.849   1.736   5.295
    2LIG    H45  346   1.717   1.849   5.299
    2LIG    H46  347   1.862   2.012   5.455
    2LIG    H47  348   1.991   1.895   5.454
    2LIG    H48  349   1.854   2.011   5.756
    2LIG    H49  350   1.989   1.898   5.757
    2LIG    H50  351   1.843   1.733   5.912
    2LIG    H51  352   1.715   1.852   5.913
    2LIG    H52  353   1.847   1.731   6.217
    2LIG    H53  354   1.714   1.844   6.215
    2LIG    H54  355   1.848   2.010   6.372
    2LIG    H55  356   1.985   1.902   6.372
    2LIG    H56  357   1.855   2.013   6.674
    2LIG    H57  358   1.988   1.900   6.675
    2LIG    H58  359   1.839   1.737   6.834
    2LIG    H59  360   1.714   1.859   6.831
    2LIG    H60  361   1.829   1.738   7.137
    2LIG    H61  362   1.714   1.868   7.145
    2LIG    H62  363   1.884   2.009   7.298
    2LIG    H63  364   1.994   1.875   7.296
    2LIG    H64  365   1.872   2.013   7.598
    2LIG    H65  366   1.993   1.887   7.602
    2LIG    H66  367   1.812   1.746   7.759
    2LIG    H67  368   1.716   1.890   7.763
    2LIG    H68  369   1.816   1.749   8.066
    2LIG    H69  370   1.723   1.898   8.061
    2LIG    H70  371   1.874   2.019   8.223
    2LIG    H71  372   1.996   1.895   8.219
    2LIG    H72  373   1.859   2.021   8.522
    2LIG    H73  374   1.993   1.910   8.522
    2LIG    H74  375   1.843   1.744   8.680
    2LIG    H75  376   1.718   1.865   8.680
    2LIG    H76  377   1.857   1.741   8.985
    2LIG    H77  378   1.724   1.853   8.990
    2LIG    H78  379   1.867   2.018   9.144
    2LIG    H79  380   1.999   1.903   9.143
    2LIG    H80  381   1.865   2.018   9.446
    2LIG    H81  382   1.999   1.905   9.447
    2LIG    H82  383   1.846   1.743   9.604
    2LIG    H83  384   1.726   1.869   9.609
    2LIG    H84  385   1.831   1.747   9.910
    2LIG    H85  386   1.729   1.890   9.908
    2LIG    H86  387   1.874   2.018  10.070
    2LIG    H87  388   2.002   1.900  10.067
    2LIG    H88  389   1.862   2.018  10.369
    2LIG    H89  390   1.997   1.909  10.370
    2LIG    H90  391   1.849   1.740  10.526
    2LIG    H91  392   1.723   1.859  10.527
    2LIG    H92  393   1.863   1.737  10.832
    2LIG    H93  394   1.730   1.848  10.838
    2LIG    H94  395   1.869   2.013  10.992
    2LIG    H95  396   2.004   1.903  10.988
    2LIG    H96  397   1.868   2.012  11.293
    2LIG    H97  398   2.005   1.904  11.296
    2LIG    H98  399   1.854   1.735  11.451
    2LIG    H99  400   1.733   1.860  11.456
    2LIG   H100  401   1.832   1.741  11.760
    2LIG   H101  402   1.733   1.887  11.756
    2LIG   H102  403   1.877   2.013  11.920
    2LIG   H103  404   2.005   1.895  11.917
    2LIG   H104  405   1.864   2.013  12.221
    2LIG   H105  406   2.000   1.905  12.223
    2LIG   H106  407   1.853   1.737  12.381
    2LIG   H107  408   1.726   1.855  12.381
    2LIG   H108  409   1.864   1.736  12.691
    2LIG   H109  410   1.732   1.848  12.696
    2LIG   H110  411   1.871   2.011  12.852
    2LIG   H111  412   2.007   1.902  12.848
    2LIG   H112  413   1.874   2.010  13.157
    2LIG   H113  414   2.010   1.900  13.159
    2LIG   H114  415   1.849   1.735  13.316
    2LIG   H115  416   1.737   1.867  13.324
    2LIG   H116  417   1.811   1.749  13.625
    2LIG   H117  418   1.745   1.911  13.631
    2LIG   H118  419   1.959   1.979  13.790
    2LIG   H119  420   2.001   1.810  13.791
    3MOL     C1  421   1.304   2.200   6.346
    3MOL     H1  422   1.199   2.167   6.347
    3MOL     O1  423   1.336   2.261   6.473
    3MOL     C2  424   1.473   2.308   6.485
    3MOL     H2  425   1.542   2.225   6.467
    3MOL     C3  426   1.498   2.356   6.630
    3MOL     H3  427   1.606   2.373   6.641
    3MOL     H4  428   1.471   2.276   6.699
    3MOL     O2  429   1.427   2.476   6.665
    3MOL     H5  430   1.478   2.515   6.739
    3MOL     C4  431   1.325   2.302   6.231
    3MOL     H6  432   1.255   2.385   6.246
    3MOL     O3  433   1.301   2.242   6.104
    3MOL     H7  434   1.316   2.145   6.117
    3MOL     C5  435   1.470   2.358   6.236
    3MOL     H8  436   1.538   2.272   6.224
    3MOL     O4  437   1.495   2.454   6.131
    3MOL     H9  438   1.413   2.463   6.077
    3MOL     C6  439   1.497   2.417   6.376
    3MOL    H10  440   1.429   2.501   6.393
    3MOL     O5  441   1.636   2.460   6.379
    3MOL     C7  442   1.661   2.588   6.442
    3MOL    H11  443   1.569   2.628   6.488
    3MOL     O6  444   1.760   2.568   6.546
    3MOL     C8  445   1.889   2.519   6.501
    3MOL    H12  446   1.876   2.423   6.450
    3MOL     C9  447   1.979   2.497   6.624
    3MOL    H13  448   2.065   2.436   6.594
    3MOL    H14  449   1.922   2.439   6.698
    3MOL     O7  450   2.026   2.619   6.681
    3MOL    H15  451   2.113   2.637   6.638
    3MOL    C10  452   1.713   2.689   6.337
    3MOL    H16  453   1.721   2.788   6.385
    3MOL     O8  454   1.617   2.696   6.231
    3MOL    H17  455   1.602   2.603   6.202
    3MOL    C11  456   1.853   2.648   6.283
    3MOL    H18  457   1.842   2.554   6.228
    3MOL     O9  458   1.908   2.750   6.197
    3MOL    H19  459   1.847   2.758   6.120
    3MOL    C12  460   1.948   2.623   6.402
    3MOL    H20  461   1.962   2.718   6.455
    3MOL    O10  462   2.074   2.573   6.349
    3MOL    C13  463   2.189   2.658   6.375
    3MOL    H21  464   2.157   2.761   6.395
    3MOL    O11  465   2.260   2.604   6.490
    3MOL    C14  466   2.321   2.474   6.470
    3MOL    H22  467   2.243   2.403   6.442
    3MOL    C15  468   2.382   2.422   6.604
    3MOL    H23  469   2.362   2.314   6.613
    3MOL    H24  470   2.330   2.472   6.686
    3MOL    O12  471   2.523   2.441   6.618
    3MOL    H25  472   2.566   2.395   6.542
    3MOL    C16  473   2.280   2.663   6.250
    3MOL    H26  474   2.356   2.741   6.266
    3MOL    O13  475   2.198   2.698   6.138
    3MOL    H27  476   2.107   2.695   6.174
    3MOL    C17  477   2.353   2.529   6.224
    3MOL    H28  478   2.277   2.454   6.196
    3MOL    O14  479   2.451   2.540   6.120
    3MOL    H29  480   2.411   2.584   6.041
    3MOL    C18  481   2.422   2.483   6.353
    3MOL    H30  482   2.501   2.555   6.380
    3MOL    O15  483   2.478   2.352   6.327
    3MOL    C19  484   2.622   2.339   6.335
    3MOL    H31  485   2.670   2.438   6.342
    3MOL    O16  486   2.650   2.259   6.453
    3MOL    C20  487   2.592   2.125   6.450
    3MOL    H32  488   2.483   2.134   6.437
    3MOL    C21  489   2.616   2.054   6.587
    3MOL    H33  490   2.536   1.980   6.602
    3MOL    H34  491   2.606   2.128   6.667
    3MOL    O17  492   2.743   1.988   6.595
    3MOL    H35  493   2.728   1.905   6.544
    3MOL    C22  494   2.676   2.268   6.208
    3MOL    H36  495   2.785   2.263   6.214
    3MOL    O18  496   2.638   2.341   6.093
    3MOL    H37  497   2.563   2.400   6.120
    3MOL    C23  498   2.620   2.125   6.196
    3MOL    H38  499   2.511   2.133   6.187
    3MOL    O19  500   2.674   2.057   6.080
    3MOL    H39  501   2.696   2.127   6.014
    3MOL    C24  502   2.651   2.049   6.328
    3MOL    H40  503   2.760   2.043   6.340
    3MOL    O20  504   2.592   1.917   6.320
    3MOL    C25  505   2.683   1.805   6.337
    3MOL    H41  506   2.788   1.837   6.324
    3MOL    O21  507   2.663   1.749   6.468
    3MOL    C26  508   2.529   1.697   6.494
    3MOL    H42  509   2.458   1.780   6.489
    3MOL    C27  510   2.523   1.639   6.639
    3MOL    H43  511   2.419   1.617   6.665
    3MOL    H44  512   2.558   1.717   6.709
    3MOL    O22  513   2.603   1.521   6.653
    3MOL    H45  514   2.649   1.527   6.739
    3MOL    C28  515   2.655   1.698   6.229
    3MOL    H46  516   2.725   1.614   6.245
    3MOL    O23  517   2.677   1.753   6.100
    3MOL    H47  518   2.638   1.843   6.103
    3MOL    C29  519   2.511   1.644   6.242
    3MOL    H48  520   2.442   1.727   6.226
    3MOL    O24  521   2.485   1.540   6.145
    3MOL    H49  522   2.493   1.581   6.056
    3MOL    C30  523   2.489   1.591   6.386
    3MOL    H50  524   2.550   1.501   6.399
    3MOL    O25  525   2.348   1.561   6.397
    3MOL    C31  526   2.314   1.434   6.458
    3MOL    H51  527   2.402   1.390   6.508
    3MOL    O26  528   2.210   1.458   6.557
    3MOL    C32  529   2.083   1.506   6.503
    3MOL    H52  530   2.099   1.600   6.449
    3MOL    C33  531   1.986   1.533   6.620
    3MOL    H53  532   1.902   1.593   6.584
    3MOL    H54  533   2.038   1.593   6.695
    3MOL    O27  534   1.936   1.413   6.681
    3MOL    H55  535   1.845   1.405   6.646
    3MOL    C34  536   2.264   1.332   6.349
    3MOL    H56  537   2.245   1.236   6.398
    3MOL    O28  538   2.364   1.316   6.250
    3MOL    H57  539   2.389   1.406   6.219
    3MOL    C35  540   2.130   1.381   6.285
    3MOL    H58  541   2.149   1.479   6.238
    3MOL    O29  542   2.076   1.288   6.188
    3MOL    H59  543   2.143   1.220   6.164
    3MOL    C36  544   2.031   1.402   6.401
    3MOL    H60  545   2.017   1.307   6.454
    3MOL    O30  546   1.906   1.448   6.345
    3MOL    C37  547   1.798   1.353   6.359
    3MOL    H61  548   1.838   1.252   6.375
    3MOL    O31  549   1.717   1.392   6.472
    3MOL    C38  550   1.651   1.522   6.462
    3MOL    H62  551   1.725   1.602   6.453
    3MOL    C39  552   1.568   1.543   6.591
    3MOL    H63  553   1.494   1.462   6.597
    3MOL    H64  554   1.514   1.638   6.585
    3MOL    O32  555   1.651   1.541   6.708
    3MOL    H65  556   1.588   1.523   6.782
    3MOL    C40  557   1.714   1.349   6.230
    3MOL    H66  558   1.639   1.269   6.242
    3MOL    O33  559   1.799   1.319   6.119
    3MOL    H67  560   1.892   1.329   6.153
    3MOL    C41  561   1.638   1.482   6.207
    3MOL    H68  562   1.713   1.560   6.187
    3MOL    O34  563   1.548   1.472   6.095
    3MOL    H69  564   1.595   1.504   6.014
    3MOL    C42  565   1.561   1.521   6.335
    3MOL    H70  566   1.480   1.448   6.350
    3MOL    O35  567   1.508   1.654   6.312
    3MOL    C43  568   1.364   1.667   6.316
    3MOL    H71  569   1.316   1.568   6.316
    3MOL    O36  570   1.328   1.739   6.436
    3MOL    C44  571   1.383   1.873   6.448
    3MOL    H72  572   1.493   1.869   6.447
    3MOL    C45  573   1.338   1.932   6.586
    3MOL    H73  574   1.229   1.929   6.591
    3MOL    H74  575   1.369   2.037   6.592
    3MOL    O37  576   1.395   1.859   6.695
    3MOL    H75  577   1.378   1.909   6.778
    3MOL    C46  578   1.316   1.745   6.191
    3MOL    H76  579   1.207   1.751   6.194
    3MOL    O38  580   1.357   1.680   6.071
    3MOL    H77  581   1.437   1.626   6.095
    3MOL    C47  582   1.372   1.889   6.193
    3MOL    H78  583   1.482   1.883   6.189
    3MOL    O39  584   1.323   1.964   6.081
    3MOL    H79  585   1.322   1.900   6.006
    3MOL    C48  586   1.333   1.957   6.327
    3MOL    H80  587   1.223   1.964   6.332
    3MOL    O40  588   1.393   2.088   6.327
    4MOL     C1  589   1.321   2.196   7.514
    4MOL     H1  590   1.216   2.164   7.521
    4MOL     O1  591   1.363   2.251   7.642
    4MOL     C2  592   1.497   2.310   7.647
    4MOL     H2  593   1.572   2.233   7.627
    4MOL     C3  594   1.518   2.364   7.792
    4MOL     H3  595   1.619   2.404   7.802
    4MOL     H4  596   1.509   2.280   7.862
    4MOL     O2  597   1.421   2.464   7.825
    4MOL     H5  598   1.452   2.510   7.905
    4MOL     C4  599   1.333   2.302   7.401
    4MOL     H6  600   1.259   2.381   7.420
    4MOL     O3  601   1.307   2.242   7.273
    4MOL     H7  602   1.337   2.148   7.283
    4MOL     C5  603   1.474   2.365   7.400
    4MOL     H8  604   1.545   2.284   7.381
    4MOL     O4  605   1.485   2.466   7.297
    4MOL     H9  606   1.425   2.439   7.224
    4MOL     C6  607   1.507   2.422   7.539
    4MOL    H10  608   1.435   2.501   7.564
    4MOL     O5  609   1.642   2.475   7.532
    4MOL     C7  610   1.663   2.606   7.590
    4MOL    H11  611   1.569   2.646   7.632
    4MOL     O6  612   1.761   2.594   7.696
    4MOL     C8  613   1.891   2.543   7.654
    4MOL    H12  614   1.879   2.445   7.606
    4MOL     C9  615   1.981   2.526   7.779
    4MOL    H13  616   2.062   2.456   7.754
    4MOL    H14  617   1.922   2.480   7.859
    4MOL     O7  618   2.038   2.650   7.822
    4MOL    H15  619   2.127   2.652   7.781
    4MOL    C10  620   1.714   2.705   7.482
    4MOL    H16  621   1.718   2.805   7.526
    4MOL     O8  622   1.626   2.705   7.371
    4MOL    H17  623   1.594   2.613   7.360
    4MOL    C11  624   1.856   2.667   7.432
    4MOL    H18  625   1.846   2.572   7.379
    4MOL     O9  626   1.909   2.769   7.345
    4MOL    H19  627   1.840   2.782   7.275
    4MOL    C12  628   1.950   2.644   7.552
    4MOL    H20  629   1.964   2.741   7.602
    4MOL    O10  630   2.076   2.594   7.502
    4MOL    C13  631   2.192   2.678   7.523
    4MOL    H21  632   2.163   2.782   7.546
    4MOL    O11  633   2.269   2.623   7.633
    4MOL    C14  634   2.322   2.490   7.610
    4MOL    H22  635   2.239   2.425   7.584
    4MOL    C15  636   2.387   2.432   7.740
    4MOL    H23  637   2.384   2.322   7.734
    4MOL    H24  638   2.325   2.460   7.826
    4MOL    O12  639   2.522   2.473   7.761
    4MOL    H25  640   2.575   2.419   7.697
    4MOL    C16  641   2.274   2.681   7.391
    4MOL    H26  642   2.353   2.756   7.399
    4MOL    O13  643   2.184   2.715   7.286
    4MOL    H27  644   2.097   2.715   7.332
    4MOL    C17  645   2.339   2.543   7.363
    4MOL    H28  646   2.258   2.471   7.346
    4MOL    O14  647   2.424   2.546   7.247
    4MOL    H29  648   2.393   2.621   7.190
    4MOL    C18  649   2.417   2.496   7.488
    4MOL    H30  650   2.499   2.566   7.508
    4MOL    O15  651   2.466   2.363   7.458
    4MOL    C19  652   2.609   2.344   7.473
    4MOL    H31  653   2.662   2.440   7.477
    4MOL    O16  654   2.631   2.268   7.594
    4MOL    C20  655   2.572   2.135   7.594
    4MOL    H32  656   2.464   2.144   7.576
    4MOL    C21  657   2.591   2.065   7.731
    4MOL    H33  658   2.515   1.987   7.741
    4MOL    H34  659   2.572   2.139   7.811
    4MOL    O17  660   2.721   2.006   7.749
    4MOL    H35  661   2.722   1.928   7.689
    4MOL    C22  662   2.663   2.268   7.348
    4MOL    H36  663   2.772   2.263   7.355
    4MOL    O18  664   2.625   2.338   7.230
    4MOL    H37  665   2.553   2.399   7.259
    4MOL    C23  666   2.609   2.123   7.342
    4MOL    H38  667   2.501   2.128   7.326
    4MOL    O19  668   2.671   2.051   7.234
    4MOL    H39  669   2.667   2.107   7.154
    4MOL    C24  670   2.635   2.055   7.478
    4MOL    H40  671   2.743   2.049   7.494
    4MOL    O20  672   2.575   1.924   7.476
    4MOL    C25  673   2.664   1.813   7.488
    4MOL    H41  674   2.769   1.844   7.476
    4MOL    O21  675   2.644   1.753   7.618
    4MOL    C26  676   2.511   1.697   7.642
    4MOL    H42  677   2.436   1.776   7.633
    4MOL    C27  678   2.506   1.643   7.788
    4MOL    H43  679   2.411   1.593   7.806
    4MOL    H44  680   2.511   1.729   7.854
    4MOL    O22  681   2.616   1.556   7.818
    4MOL    H45  682   2.596   1.466   7.784
    4MOL    C28  683   2.633   1.711   7.376
    4MOL    H46  684   2.705   1.630   7.387
    4MOL    O23  685   2.643   1.772   7.247
    4MOL    H47  686   2.633   1.869   7.267
    4MOL    C29  687   2.494   1.646   7.393
    4MOL    H48  688   2.419   1.724   7.384
    4MOL    O24  689   2.473   1.547   7.290
    4MOL    H49  690   2.506   1.590   7.208
    4MOL    C30  691   2.479   1.588   7.535
    4MOL    H50  692   2.546   1.503   7.547
    4MOL    O25  693   2.341   1.549   7.547
    4MOL    C31  694   2.314   1.418   7.601
    4MOL    H51  695   2.404   1.375   7.648
    4MOL    O26  696   2.210   1.433   7.700
    4MOL    C32  697   2.085   1.486   7.649
    4MOL    H52  698   2.102   1.583   7.601
    4MOL    C33  699   1.986   1.507   7.766
    4MOL    H53  700   1.901   1.564   7.728
    4MOL    H54  701   2.035   1.568   7.843
    4MOL    O27  702   1.940   1.385   7.822
    4MOL    H55  703   1.860   1.360   7.770
    4MOL    C34  704   2.266   1.323   7.487
    4MOL    H56  705   2.249   1.223   7.530
    4MOL    O28  706   2.366   1.315   7.387
    4MOL    H57  707   2.384   1.408   7.358
    4MOL    C35  708   2.133   1.374   7.426
    4MOL    H58  709   2.151   1.474   7.385
    4MOL    O29  710   2.084   1.286   7.323
    4MOL    H59  711   2.155   1.279   7.254
    4MOL    C36  712   2.033   1.386   7.542
    4MOL    H60  713   2.020   1.288   7.590
    4MOL    O30  714   1.909   1.434   7.488
    4MOL    C37  715   1.800   1.340   7.499
    4MOL    H61  716   1.836   1.237   7.514
    4MOL    O31  717   1.717   1.380   7.611
    4MOL    C38  718   1.654   1.510   7.600
    4MOL    H62  719   1.730   1.589   7.592
    4MOL    C39  720   1.568   1.534   7.726
    4MOL    H63  721   1.493   1.455   7.734
    4MOL    H64  722   1.516   1.630   7.715
    4MOL    O32  723   1.647   1.539   7.845
    4MOL    H65  724   1.651   1.448   7.881
    4MOL    C40  725   1.718   1.342   7.368
    4MOL    H66  726   1.641   1.265   7.376
    4MOL    O33  727   1.804   1.312   7.257
    4MOL    H67  728   1.892   1.287   7.295
    4MOL    C41  729   1.651   1.480   7.347
    4MOL    H68  730   1.730   1.555   7.337
    4MOL    O34  731   1.570   1.479   7.229
    4MOL    H69  732   1.632   1.469   7.153
    4MOL    C42  733   1.567   1.515   7.472
    4MOL    H70  734   1.485   1.443   7.482
    4MOL    O35  735   1.518   1.650   7.455
    4MOL    C43  736   1.375   1.665   7.451
    4MOL    H71  737   1.324   1.568   7.443
    4MOL    O36  738   1.332   1.732   7.573
    4MOL    C44  739   1.388   1.866   7.594
    4MOL    H72  740   1.498   1.861   7.596
    4MOL    C45  741   1.339   1.922   7.730
    4MOL    H73  742   1.231   1.944   7.725
    4MOL    H74  743   1.391   2.017   7.750
    4MOL    O37  744   1.364   1.831   7.837
    4MOL    H75  745   1.409   1.878   7.911
    4MOL    C46  746   1.337   1.751   7.328
    4MOL    H76  747   1.227   1.755   7.322
    4MOL    O38  748   1.389   1.698   7.207
    4MOL    H77  749   1.450   1.623   7.231
    4MOL    C47  750   1.391   1.894   7.342
    4MOL    H78  751   1.500   1.889   7.343
    4MOL    O39  752   1.347   1.973   7.231
    4MOL    H79  753   1.343   1.908   7.157
    4MOL    C48  754   1.344   1.956   7.475
    4MOL    H80  755   1.235   1.964   7.474
    4MOL    O40  756   1.408   2.085   7.484
    5SOL     OW  757   0.226   0.665   0.119
    5SOL    HW1  758   0.132   0.649   0.129
    5SOL    HW2  759   0.250   0.619   0.039
    6SOL     OW  760   0.223   0.292   0.982
    6SOL    HW1  761   0.246   0.251   1.066
    6SOL    HW2  762   0.127   0.284   0.977
    7SOL     OW  763   0.020   0.383   0.634
    7SOL    HW1  764   3.928   0.400   0.656
    7SOL    HW2  765   0.024   0.287   0.624
    8SOL     OW  766   0.585   1.295   1.201
    8SOL    HW1  767   0.499   1.295   1.159
    8SOL    HW2  768   0.597   1.385   1.231
    9SOL     OW  769   1.546   1.492   0.708
    9SOL    HW1  770   1.518   1.474   0.798
    9SOL    HW2  771   1.465   1.489   0.658
   10SOL     OW  772   1.135   0.698   0.694
   10SOL    HW1  773   1.182   0.781   0.684
   10SOL    HW2  774   1.086   0.708   0.776
   11SOL     OW  775   1.778   0.621   0.209
   11SOL    HW1  776   1.788   0.596   0.117
   11SOL    HW2  777   1.781   0.539   0.257
   12SOL     OW  778   0.747   1.136   1.047
   12SOL    HW1  779   0.687   1.174   1.111
   12SOL    HW2  780   0.784   1.212   1.001
   13SOL     OW  781   0.876   0.764   1.826
   13SOL    HW1  782   0.866   0.835   1.890
   13SOL    HW2  783   0.897   0.808   1.744
   14SOL     OW  784   0.684   0.998   0.646
   14SOL    HW1  785   0.750   0.989   0.715
   14SOL    HW2  786   0.615   1.052   0.687
   15SOL     OW  787   0.714   1.148   1.821
   15SOL    HW1  788   0.762   1.225   1.851
   15SOL    HW2  789   0.634   1.184   1.781
   16SOL     OW  790   0.353   1.398   1.079
   16SOL    HW1  791   0.272   1.375   1.034
   16SOL    HW2  792   0.398   1.456   1.018
   17SOL     OW  793   1.445   1.482   1.365
   17SOL    HW1  794   1.491   1.565   1.380
   17SOL    HW2  795   1.373   1.483   1.428
   18SOL     OW  796   0.460   0.409   1.490
   18SOL    HW1  797   0.543   0.362   1.492
   18SOL    HW2  798   0.393   0.341   1.496
   19SOL     OW  799   1.611   0.451   0.735
   19SOL    HW1  800   1.546   0.488   0.675
   19SOL    HW2  801   1.625   0.520   0.800
   20SOL     OW  802   0.222   1.711   0.472
   20SOL    HW1  803   0.243   1.789   0.524
   20SOL    HW2  804   0.288   1.711   0.402
   21SOL     OW  805   1.136   1.342   1.695
   21SOL    HW1  806   1.178   1.335   1.781
   21SOL    HW2  807   1.085   1.262   1.687
   22SOL     OW  808   0.248   1.448   0.541
   22SOL    HW1  809   0.226   1.540   0.527
   22SOL    HW2  810   0.175   1.413   0.592
   23SOL     OW  811   0.250   1.062   0.882
   23SOL    HW1  812   0.271   0.977   0.920
   23SOL    HW2  813   0.197   1.106   0.949
   24SOL     OW  814   0.607   1.795   1.424
   24SOL    HW1  815   0.525   1.777   1.469
   24SOL    HW2  816   0.631   1.883   1.452
   25SOL     OW  817   0.558   0.978   0.173
   25SOL    HW1  818   0.591   1.014   0.090
   25SOL    HW2  819   0.613   1.019   0.240
   26SOL     OW  820   1.585   0.143   1.455
   26SOL    HW1  821   1.617   0.215   1.401
   26SOL    HW2  822   1.546   0.185   1.531
   27SOL     OW  823   0.140   0.656   0.567
   27SOL    HW1  824   0.099   0.570   0.575
   27SOL    HW2  825   0.105   0.707   0.640
   28SOL     OW  826   0.034   1.594   0.141
   28SOL    HW1  827   0.032   1.499   0.153
   28SOL    HW2  828   3.983   1.629   0.214
   29SOL     OW  829   1.686   0.916   0.645
   29SOL    HW1  830   1.771   0.876   0.627
   29SOL    HW2  831   1.667   0.969   0.568
   30SOL     OW  832   1.651   1.105   0.430
   30SOL    HW1  833   1.740   1.102   0.394
   30SOL    HW2  834   1.658   1.165   0.504
   31SOL     OW  835   0.147   0.755   1.589
   31SOL    HW1  836   0.242   0.753   1.581
   31SOL    HW2  837   0.128   0.841   1.627
   32SOL     OW  838   0.612   1.388   0.738
   32SOL    HW1  839   0.567   1.304   0.746
   32SOL    HW2  840   0.599   1.415   0.647
   33SOL     OW  841   1.280   1.231   1.424
   33SOL    HW1  842   1.311   1.165   1.363
   33SOL    HW2  843   1.341   1.226   1.497
   34SOL     OW  844   0.827   0.005   0.525
   34SOL    HW1  845   0.871   0.085   0.495
   34SOL    HW2  846   0.733   0.026   0.522
   35SOL     OW  847   0.183   0.947   1.281
   35SOL    HW1  848   0.272   0.913   1.270
   35SOL    HW2  849   0.132   0.906   1.211
   36SOL     OW  850   1.528   1.003   0.206
   36SOL    HW1  851   1.460   0.945   0.242
   36SOL    HW2  852   1.573   1.038   0.283
   37SOL     OW  853   1.187   1.814   1.627
   37SOL    HW1  854   1.190   1.875   1.552
   37SOL    HW2  855   1.202   1.728   1.588
   38SOL     OW  856   0.349   0.244   1.857
   38SOL    HW1  857   0.392   0.327   1.838
   38SOL    HW2  858   0.257   0.267   1.870
   39SOL     OW  859   1.468   1.416   0.957
   39SOL    HW1  860   1.399   1.433   1.021
   39SOL    HW2  861   1.455   1.325   0.930
   40SOL     OW  862   1.593   1.716   0.565
   40SOL    HW1  863   1.585   1.689   0.473
   40SOL    HW2  864   1.590   1.634   0.614
   41SOL     OW  865   0.592   0.710   0.269
   41SOL    HW1  866   0.592   0.796   0.226
   41SOL    HW2  867   0.531   0.720   0.341
   42SOL     OW  868   1.274   0.374   0.940
   42SOL    HW1  869   1.187   0.336   0.948
   42SOL    HW2  870   1.332   0.314   0.986
   43SOL     OW  871   1.535   1.704   0.297
   43SOL    HW1  872   1.608   1.641   0.302
   43SOL    HW2  873   1.511   1.705   0.205
   44SOL     OW  874   0.794   0.614   1.451
   44SOL    HW1  875   0.766   0.587   1.538
   44SOL    HW2  876   0.760   0.547   1.393
   45SOL     OW  877   1.392   0.475   1.677
   45SOL    HW1  878   1.400   0.521   1.761
   45SOL    HW2  879   1.448   0.397   1.687
   46SOL     OW  880   0.949   0.886   1.587
   46SOL    HW1  881   1.004   0.818   1.548
   46SOL    HW2  882   0.900   0.922   1.514
   47SOL     OW  883   0.996   0.401   1.232
   47SOL    HW1  884   0.908   0.419   1.267
   47SOL    HW2  885   0.981   0.375   1.142
   48SOL     OW  886   1.053   0.704   0.428
   48SOL    HW1  887   1.072   0.696   0.521
   48SOL    HW2  888   0.970   0.659   0.416
   49SOL     OW  889   0.083   0.832   0.789
   49SOL    HW1  890   0.151   0.795   0.846
   49SOL    HW2  891   0.109   0.923   0.775
   50SOL     OW  892   0.131   1.868   1.583
   50SOL    HW1  893   0.139   1.832   1.671
   50SOL    HW2  894   0.038   1.859   1.562
   51SOL     OW  895   0.875   0.361   0.224
   51SOL    HW1  896   0.909   0.420   0.157
   51SOL    HW2  897   0.878   0.274   0.184
   52SOL     OW  898   1.704   0.574   1.831
   52SOL    HW1  899   1.668   0.648   1.781
   52SOL    HW2  900   1.728   0.510   1.764
   53SOL     OW  901   1.383   1.142   0.543
   53SOL    HW1  902   1.461   1.131   0.489
   53SOL    HW2  903   1.327   1.202   0.493
   54SOL     OW  904   0.564   0.197   0.880
   54SOL    HW1  905   0.569   0.222   0.973
   54SOL    HW2  906   0.550   0.279   0.834
   55SOL     OW  907   0.996   1.438   0.474
   55SOL    HW1  908   0.971   1.515   0.422
   55SOL    HW2  909   0.973   1.462   0.564
   56SOL     OW  910   0.363   1.828   0.879
   56SOL    HW1  911   0.422   1.754   0.889
   56SOL    HW2  912   0.419   1.905   0.892
   57SOL     OW  913   1.801   1.042   0.876
   57SOL    HW1  914   1.747   1.034   0.797
   57SOL    HW2  915   1.737   1.053   0.946
   58SOL     OW  916   1.220   1.537   1.516
   58SOL    HW1  917   1.207   1.466   1.578
   58SOL    HW2  918   1.151   1.525   1.450
   59SOL     OW  919   0.304   0.926   0.242
   59SOL    HW1  920   0.395   0.939   0.218
   59SOL    HW2  921   0.289   0.832   0.231
   60SOL     OW  922   1.479   0.753   0.729
   60SOL    HW1  923   1.478   0.712   0.815
   60SOL    HW2  924   1.557   0.808   0.730
   61SOL     OW  925   0.472   1.262   1.738
   61SOL    HW1  926   0.447   1.269   1.646
   61SOL    HW2  927   0.390   1.263   1.786
   62SOL     OW  928   1.121   1.780   0.224
   62SOL    HW1  929   1.057   1.734   0.279
   62SOL    HW2  930   1.150   1.713   0.162
   63SOL     OW  931   0.203   0.292   1.502
   63SOL    HW1  932   0.109   0.310   1.503
   63SOL    HW2  933   0.212   0.212   1.554
   64SOL     OW  934   1.632   1.379   0.090
   64SOL    HW1  935   1.597   1.458   0.047
   64SOL    HW2  936   1.566   1.312   0.075
   65SOL     OW  937   0.471   1.730   0.323
   65SOL    HW1  938   0.513   1.790   0.384
   65SOL    HW2  939   0.543   1.692   0.273
   66SOL     OW  940   1.445   0.139   0.396
   66SOL    HW1  941   1.395   0.060   0.415
   66SOL    HW2  942   1.529   0.127   0.441
   67SOL     OW  943   0.257   1.790   1.229
   67SOL    HW1  944   0.298   1.720   1.279
   67SOL    HW2  945   0.253   1.757   1.139
   68SOL     OW  946   0.939   1.700   0.896
   68SOL    HW1  947   1.018   1.650   0.918
   68SOL    HW2  948   0.898   1.649   0.826
   69SOL     OW  949   0.398   0.693   0.470
   69SOL    HW1  950   0.422   0.602   0.486
   69SOL    HW2  951   0.307   0.700   0.496
   70SOL     OW  952   1.528   0.226   1.726
   70SOL    HW1  953   1.520   0.250   1.818
   70SOL    HW2  954   1.517   0.131   1.725
   71SOL     OW  955   0.627   0.110   0.124
   71SOL    HW1  956   0.723   0.109   0.127
   71SOL    HW2  957   0.607   0.133   0.033
   72SOL     OW  958   0.773   0.287   1.773
   72SOL    HW1  959   0.854   0.236   1.773
   72SOL    HW2  960   0.721   0.249   1.844
   73SOL     OW  961   0.876   1.523   1.194
   73SOL    HW1  962   0.858   1.485   1.109
   73SOL    HW2  963   0.944   1.468   1.232
   74SOL     OW  964   1.337   0.588   1.432
   74SOL    HW1  965   1.369   0.559   1.517
   74SOL    HW2  966   1.373   0.676   1.422
   75SOL     OW  967   0.818   1.388   0.946
   75SOL    HW1  968   0.903   1.378   0.904
   75SOL    HW2  969   0.756   1.395   0.873
   76SOL     OW  970   0.931   0.513   0.897
   76SOL    HW1  971   0.906   0.505   0.805
   76SOL    HW2  972   0.954   0.425   0.924
   77SOL     OW  973   0.553   0.049   0.500
   77SOL    HW1  974   0.478   0.056   0.560
   77SOL    HW2  975   0.545   0.127   0.444
   78SOL     OW  976   1.430   1.210   0.043
   78SOL    HW1  977   1.448   1.130   0.092
   78SOL    HW2  978   1.339   1.231   0.065
   79SOL     OW  979   0.362   3.989   0.178
   79SOL    HW1  980   0.323   0.073   0.156
   79SOL    HW2  981   0.450   0.010   0.208
   80SOL     OW  982   0.947   0.251   0.467
   80SOL    HW1  983   0.914   0.289   0.386
   80SOL    HW2  984   1.042   0.253   0.457
   81SOL     OW  985   1.079   0.687   1.456
   81SOL    HW1  986   1.011   0.620   1.463
   81SOL    HW2  987   1.161   0.638   1.452
   82SOL     OW  988   1.222   1.571   0.794
   82SOL    HW1  989   1.232   1.640   0.728
   82SOL    HW2  990   1.290   1.590   0.859
   83SOL     OW  991   0.465   1.152   0.730
   83SOL    HW1  992   0.396   1.125   0.790
   83SOL    HW2  993   0.428   1.139   0.642
   84SOL     OW  994   1.255   1.792   0.615
   84SOL    HW1  995   1.308   1.854   0.565
   84SOL    HW2  996   1.189   1.847   0.657
   85SOL     OW  997   0.994   0.527   0.047
   85SOL    HW1  998   0.988   0.518  13.852
   85SOL    HW2  999   1.087   0.545   0.063
   86SOL     OW 1000   0.083   0.577   1.391
   86SOL    HW1 1001   0.172   0.558   1.362
   86SOL    HW2 1002   0.093   0.647   1.456
   87SOL     OW 1003   0.571   0.231   1.159
   87SOL    HW1 1004   0.592   0.138   1.167
   87SOL    HW2 1005   0.481   0.238   1.189
   88SOL     OW 1006   0.872   0.463   0.637
   88SOL    HW1 1007   0.826   0.516   0.572
   88SOL    HW2 1008   0.892   0.381   0.592
   89SOL     OW 1009   0.997   0.037   0.781
   89SOL    HW1 1010   0.950   0.068   0.704
   89SOL    HW2 1011   1.011   3.944   0.766
   90SOL     OW 1012   1.440   1.161   0.858
   90SOL    HW1 1013   1.369   1.096   0.856
   90SOL    HW2 1014   1.466   1.170   0.766
   91SOL     OW 1015   1.464   0.610   0.969
   91SOL    HW1 1016   1.407   0.533   0.974
   91SOL    HW2 1017   1.522   0.601   1.045
   92SOL     OW 1018   1.839   0.815   0.387
   92SOL    HW1 1019   1.896   0.762   0.444
   92SOL    HW2 1020   1.813   0.755   0.317
   93SOL     OW 1021   0.490   1.387   0.166
   93SOL    HW1 1022   0.422   1.349   0.222
   93SOL    HW2 1023   0.442   1.431   0.096
   94SOL     OW 1024   1.678   1.259   0.644
   94SOL    HW1 1025   1.772   1.258   0.663
   94SOL    HW2 1026   1.649   1.346   0.671
   95SOL     OW 1027   1.423   0.591   0.087
   95SOL    HW1 1028   1.354   0.579   0.152
   95SOL    HW2 1029   1.472   0.508   0.089
   96SOL     OW 1030   0.532   0.261   0.332
   96SOL    HW1 1031   0.569   0.213   0.257
   96SOL    HW2 1032   0.501   0.343   0.294
   97SOL     OW 1033   1.745   1.232   1.565
   97SOL    HW1 1034   1.832   1.192   1.559
   97SOL    HW2 1035   1.762   1.322   1.592
   98SOL     OW 1036   1.052   1.353   1.333
   98SOL    HW1 1037   0.976   1.321   1.382
   98SOL    HW2 1038   1.127   1.310   1.375
   99SOL     OW 1039   1.607   1.609   1.665
   99SOL    HW1 1040   1.587   1.643   1.578
   99SOL    HW2 1041   1.688   1.560   1.654
  100SOL     OW 1042   1.136   1.214   1.102
  100SOL    HW1 1043   1.073   1.247   1.165
  100SOL    HW2 1044   1.106   1.246   1.017
  101SOL     OW 1045   1.621   1.093   1.075
  101SOL    HW1 1046   1.614   1.157   1.146
  101SOL    HW2 1047   1.547   1.114   1.017
  102SOL     OW 1048   0.911   0.121   1.400
  102SOL    HW1 1049   0.931   0.090   1.312
  102SOL    HW2 1050   0.993   0.161   1.431
  103SOL     OW 1051   0.984   1.116   1.723
  103SOL    HW1 1052   0.892   1.132   1.748
  103SOL    HW2 1053   0.980   1.037   1.669
  104SOL     OW 1054   0.718   1.062   0.378
  104SOL    HW1 1055   0.702   1.041   0.471
  104SOL    HW2 1056   0.792   1.006   0.353
  105SOL     OW 1057   0.425   0.819   1.254
  105SOL    HW1 1058   0.493   0.826   1.321
  105SOL    HW2 1059   0.390   0.731   1.263
  106SOL     OW 1060   1.265   0.374   1.279
  106SOL    HW1 1061   1.298   0.453   1.323
  106SOL    HW2 1062   1.177   0.398   1.250
  107SOL     OW 1063   0.064   1.579   1.343
  107SOL    HW1 1064   0.069   1.612   1.254
  107SOL    HW2 1065   0.155   1.573   1.372
  108SOL     OW 1066   0.358   1.101   0.480
  108SOL    HW1 1067   0.346   1.177   0.423
  108SOL    HW2 1068   0.375   1.028   0.420
  109SOL     OW 1069   0.554   0.527   0.856
  109SOL    HW1 1070   0.566   0.587   0.782
  109SOL    HW2 1071   0.620   0.554   0.920
  110SOL     OW 1072   1.241   1.339   0.399
  110SOL    HW1 1073   1.292   1.416   0.421
  110SOL    HW2 1074   1.153   1.358   0.431
  111SOL     OW 1075   1.282   1.463   1.148
  111SOL    HW1 1076   1.337   1.463   1.226
  111SOL    HW2 1077   1.228   1.384   1.157
  112SOL     OW 1078   1.572   0.639   0.492
  112SOL    HW1 1079   1.529   0.692   0.560
  112SOL    HW2 1080   1.607   0.703   0.431
  113SOL     OW 1081   0.345   1.529   1.316
  113SOL    HW1 1082   0.336   1.476   1.237
  113SOL    HW2 1083   0.440   1.543   1.325
  114SOL     OW 1084   0.422   0.735   1.601
  114SOL    HW1 1085   0.486   0.779   1.546
  114SOL    HW2 1086   0.457   0.647   1.613
  115SOL     OW 1087   1.608   0.783   1.688
  115SOL    HW1 1088   1.522   0.824   1.681
  115SOL    HW2 1089   1.660   0.823   1.619
  116SOL     OW 1090   1.004   0.144   1.782
  116SOL    HW1 1091   1.065   0.211   1.750
  116SOL    HW2 1092   0.996   0.083   1.709
  117SOL     OW 1093   0.488   0.037   1.762
  117SOL    HW1 1094   0.490   0.052   1.667
  117SOL    HW2 1095   0.425   0.100   1.795
  118SOL     OW 1096   0.586   0.876   1.032
  118SOL    HW1 1097   0.621   0.966   1.037
  118SOL    HW2 1098   0.530   0.868   1.109
  119SOL     OW 1099   1.345   0.858   1.021
  119SOL    HW1 1100   1.259   0.841   0.983
  119SOL    HW2 1101   1.392   0.775   1.012
  120SOL     OW 1102   1.217   0.555   0.264
  120SOL    HW1 1103   1.224   0.474   0.316
  120SOL    HW2 1104   1.159   0.611   0.315
  121SOL     OW 1105   0.309   0.211   1.238
  121SOL    HW1 1106   0.266   0.248   1.314
  121SOL    HW2 1107   0.297   0.116   1.246
  122SOL     OW 1108   0.067   1.305   1.280
  122SOL    HW1 1109   0.094   1.261   1.360
  122SOL    HW2 1110   0.055   1.397   1.306
  123SOL     OW 1111   0.722   0.633   1.049
  123SOL    HW1 1112   0.798   0.620   0.991
  123SOL    HW2 1113   0.691   0.721   1.030
  124SOL     OW 1114   1.741   0.960   1.859
  124SOL    HW1 1115   1.696   0.893   1.806
  124SOL    HW2 1116   1.681   0.978   1.931
  125SOL     OW 1117   0.336   0.054   0.665
  125SOL    HW1 1118   0.312   0.146   0.670
  125SOL    HW2 1119   0.291   0.012   0.738
  126SOL     OW 1120   1.576   0.393   0.391
  126SOL    HW1 1121   1.536   0.335   0.456
  126SOL    HW2 1122   1.567   0.481   0.429
  127SOL     OW 1123   1.031   0.759   0.957
  127SOL    HW1 1124   1.020   0.776   1.051
  127SOL    HW2 1125   1.003   0.669   0.945
  128SOL     OW 1126   0.979   1.567   1.721
  128SOL    HW1 1127   0.964   1.610   1.637
  128SOL    HW2 1128   1.022   1.484   1.698
  129SOL     OW 1129   1.850   1.486   1.603
  129SOL    HW1 1130   1.881   1.509   1.515
  129SOL    HW2 1131   1.924   1.504   1.661
  130SOL     OW 1132   0.357   0.923   1.796
  130SOL    HW1 1133   0.433   0.943   1.850
  130SOL    HW2 1134   0.387   0.854   1.737
  131SOL     OW 1135   1.525   0.275   0.144
  131SOL    HW1 1136   1.465   0.200   0.147
  131SOL    HW2 1137   1.532   0.303   0.235
  132SOL     OW 1138   1.285   0.832   0.057
  132SOL    HW1 1139   1.333   0.749   0.061
  132SOL    HW2 1140   1.303   0.865  13.868
  133SOL     OW 1141   1.069   1.340   0.856
  133SOL    HW1 1142   1.074   1.268   0.794
  133SOL    HW2 1143   1.127   1.407   0.821
  134SOL     OW 1144   0.314   0.801   0.950
  134SOL    HW1 1145   0.408   0.816   0.945
  134SOL    HW2 1146   0.306   0.711   0.982
  135SOL     OW 1147   0.341   0.529   1.017
  135SOL    HW1 1148   0.297   0.446   1.000
  135SOL    HW2 1149   0.416   0.530   0.957
  136SOL     OW 1150   1.134   0.379   1.701
  136SOL    HW1 1151   1.086   0.433   1.763
  136SOL    HW2 1152   1.221   0.419   1.696
  137SOL     OW 1153   1.152   0.225   1.482
  137SOL    HW1 1154   1.142   0.279   1.561
  137SOL    HW2 1155   1.181   0.287   1.415
  138SOL     OW 1156   0.017   1.322   0.195
  138SOL    HW1 1157   3.923   1.336   0.184
  138SOL    HW2 1158   0.026   1.228   0.210
  139SOL     OW 1159   0.080   1.798   0.886
  139SOL    HW1 1160   0.092   1.703   0.883
  139SOL    HW2 1161   0.169   1.833   0.893
  140SOL     OW 1162   0.494   1.572   0.908
  140SOL    HW1 1163   0.563   1.633   0.934
  140SOL    HW2 1164   0.538   1.509   0.851
  141SOL     OW 1165   0.971   0.786   1.222
  141SOL    HW1 1166   1.029   0.769   1.296
  141SOL    HW2 1167   0.888   0.745   1.246
  142SOL     OW 1168   0.034   0.585   1.111
  142SOL    HW1 1169   0.084   0.520   1.061
  142SOL    HW2 1170   0.061   0.571   1.202
  143SOL     OW 1171   0.211   0.514   1.722
  143SOL    HW1 1172   0.253   0.470   1.648
  143SOL    HW2 1173   0.170   0.591   1.683
  144SOL     OW 1174   1.380   0.933   1.655
  144SOL    HW1 1175   1.401   1.026   1.651
  144SOL    HW2 1176   1.376   0.905   1.564
  145SOL     OW 1177   0.815   0.581   0.380
  145SOL    HW1 1178   0.825   0.503   0.325
  145SOL    HW2 1179   0.740   0.628   0.342
  146SOL     OW 1180   1.638   0.602   1.179
  146SOL    HW1 1181   1.630   0.541   1.253
  146SOL    HW2 1182   1.727   0.586   1.146
  147SOL     OW 1183   0.302   1.543   1.719
  147SOL    HW1 1184   0.256   1.612   1.768
  147SOL    HW2 1185   0.275   1.462   1.762
  148SOL     OW 1186   0.720   0.449   1.250
  148SOL    HW1 1187   0.666   0.373   1.228
  148SOL    HW2 1188   0.706   0.510   1.177
  149SOL     OW 1189   0.922   1.679   1.471
  149SOL    HW1 1190   0.897   1.639   1.388
  149SOL    HW2 1191   0.916   1.773   1.456
  150SOL     OW 1192   0.420   0.488   0.226
  150SOL    HW1 1193   0.497   0.545   0.233
  150SOL    HW2 1194   0.348   0.548   0.208
  151SOL     OW 1195   0.153   1.133   1.477
  151SOL    HW1 1196   0.153   1.083   1.559
  151SOL    HW2 1197   0.169   1.067   1.409
  152SOL     OW 1198   1.319   1.043   1.219
  152SOL    HW1 1199   1.340   0.980   1.150
  152SOL    HW2 1200   1.254   1.101   1.179
  153SOL     OW 1201   1.318   0.860   0.328
  153SOL    HW1 1202   1.247   0.824   0.382
  153SOL    HW2 1203   1.292   0.842   0.238
  154SOL     OW 1204   1.245   1.736   1.102
  154SOL    HW1 1205   1.330   1.758   1.064
  154SOL    HW2 1206   1.252   1.643   1.124
  155SOL     OW 1207   0.080   1.217   1.026
  155SOL    HW1 1208   0.088   1.242   1.118
  155SOL    HW2 1209   3.987   1.228   1.006
  156SOL     OW 1210   0.681   1.671   1.741
  156SOL    HW1 1211   0.619   1.743   1.729
  156SOL    HW2 1212   0.750   1.688   1.677
  157SOL     OW 1213   0.901   0.105   0.130
  157SOL    HW1 1214   0.941   0.093   0.044
  157SOL    HW2 1215   0.910   0.020   0.173
  158SOL     OW 1216   1.702   0.120   0.499
  158SOL    HW1 1217   1.781   0.130   0.446
  158SOL    HW2 1218   1.691   0.026   0.509
  159SOL     OW 1219   1.358   1.572   0.471
  159SOL    HW1 1220   1.411   1.615   0.404
  159SOL    HW2 1221   1.320   1.644   0.521
  160SOL     OW 1222   0.179   1.759   1.833
  160SOL    HW1 1223   0.122   1.706   1.889
  160SOL    HW2 1224   0.216   1.825   1.892
  161SOL     OW 1225   1.276   0.930   0.672
  161SOL    HW1 1226   1.350   0.871   0.686
  161SOL    HW2 1227   1.312   1.001   0.618
  162SOL     OW 1228   0.802   1.275   1.423
  162SOL    HW1 1229   0.774   1.318   1.504
  162SOL    HW2 1230   0.729   1.288   1.362
  163SOL     OW 1231   0.671   1.588   0.191
  163SOL    HW1 1232   0.667   1.620   0.101
  163SOL    HW2 1233   0.626   1.504   0.188
  164SOL     OW 1234   1.572   1.714   1.413
  164SOL    HW1 1235   1.626   1.708   1.334
  164SOL    HW2 1236   1.559   1.808   1.425
  165SOL     OW 1237   1.840   0.179   0.962
  165SOL    HW1 1238   1.873   0.120   0.895
  165SOL    HW2 1239   1.749   0.197   0.936
  166SOL     OW 1240   0.275   0.319   0.714
  166SOL    HW1 1241   0.190   0.353   0.688
  166SOL    HW2 1242   0.268   0.306   0.809
  167SOL     OW 1243   1.214   1.599   0.034
  167SOL    HW1 1244   1.205   1.507   0.060
  167SOL    HW2 1245   1.174   1.603  13.847
  168SOL     OW 1246   0.823   1.006   1.376
  168SOL    HW1 1247   0.866   0.999   1.291
  168SOL    HW2 1248   0.819   1.100   1.393
  169SOL     OW 1249   0.922   0.912   0.289
  169SOL    HW1 1250   0.992   0.953   0.238
  169SOL    HW2 1251   0.967   0.842   0.337
  170SOL     OW 1252   1.477   1.660   0.040
  170SOL    HW1 1253   1.385   1.633   0.039
  170SOL    HW2 1254   1.506   1.650  13.849
  171SOL     OW 1255   0.374   1.301   1.492
  171SOL    HW1 1256   0.358   1.382   1.443
  171SOL    HW2 1257   0.297   1.247   1.475
  172SOL     OW 1258   1.611   1.281   1.276
  172SOL    HW1 1259   1.674   1.271   1.348
  172SOL    HW2 1260   1.546   1.342   1.309
  173SOL     OW 1261   1.061   1.111   0.712
  173SOL    HW1 1262   0.989   1.060   0.748
  173SOL    HW2 1263   1.126   1.046   0.686
  174SOL     OW 1264   1.016   0.251   0.971
  174SOL    HW1 1265   1.006   0.200   0.890
  174SOL    HW2 1266   1.015   0.185   1.041
  175SOL     OW 1267   0.610   1.484   0.484
  175SOL    HW1 1268   0.656   1.436   0.415
  175SOL    HW2 1269   0.536   1.525   0.439
  176SOL     OW 1270   1.722   0.395   1.370
  176SOL    HW1 1271   1.795   0.456   1.376
  176SOL    HW2 1272   1.754   0.324   1.315
  177SOL     OW 1273   0.268   1.310   0.313
  177SOL    HW1 1274   0.188   1.335   0.268
  177SOL    HW2 1275   0.267   1.363   0.393
  178SOL     OW 1276   0.110   0.998   1.719
  178SOL    HW1 1277   0.051   0.992   1.794
  178SOL    HW2 1278   0.197   0.981   1.755
  179SOL     OW 1279   0.695   0.261   1.506
  179SOL    HW1 1280   0.762   0.207   1.464
  179SOL    HW2 1281   0.724   0.268   1.597
  180SOL     OW 1282   0.070   0.362   0.035
  180SOL    HW1 1283   3.982   0.378   0.071
  180SOL    HW2 1284   0.059   0.374  13.840
  181SOL     OW 1285   1.424   0.856   1.396
  181SOL    HW1 1286   1.374   0.917   1.342
  181SOL    HW2 1287   1.512   0.858   1.360
  182SOL     OW 1288   0.053   0.204   0.319
  182SOL    HW1 1289   0.088   0.279   0.270
  182SOL    HW2 1290   0.129   0.160   0.355
  183SOL     OW 1291   1.186   1.343   0.122
  183SOL    HW1 1292   1.091   1.337   0.111
  183SOL    HW2 1293   1.200   1.329   0.216
  184SOL     OW 1294   0.623   0.828   1.438
  184SOL    HW1 1295   0.680   0.903   1.423
  184SOL    HW2 1296   0.683   0.753   1.445
  185SOL     OW 1297   1.494   1.789   0.986
  185SOL    HW1 1298   1.515   1.863   0.929
  185SOL    HW2 1299   1.577   1.741   0.993
  186SOL     OW 1300   0.719   0.559   1.705
  186SOL    HW1 1301   0.765   0.620   1.764
  186SOL    HW2 1302   0.740   0.472   1.739
  187SOL     OW 1303   1.472   1.193   1.629
  187SOL    HW1 1304   1.461   1.208   1.723
  187SOL    HW2 1305   1.565   1.209   1.612
  188SOL     OW 1306   0.376   1.745   1.555
  188SOL    HW1 1307   0.289   1.784   1.544
  188SOL    HW2 1308   0.360   1.662   1.599
  189SOL     OW 1309   1.662   0.879   1.255
  189SOL    HW1 1310   1.660   0.794   1.212
  189SOL    HW2 1311   1.653   0.943   1.184
  190SOL     OW 1312   1.232   0.336   0.429
  190SOL    HW1 1313   1.293   0.262   0.426
  190SOL    HW2 1314   1.246   0.375   0.515
  191SOL     OW 1315   0.586   0.735   0.675
  191SOL    HW1 1316   0.625   0.821   0.659
  191SOL    HW2 1317   0.522   0.725   0.605
  192SOL     OW 1318   1.747   0.384   1.643
  192SOL    HW1 1319   1.731   0.390   1.549
  192SOL    HW2 1320   1.690   0.314   1.673
  193SOL     OW 1321   1.748   0.933   1.510
  193SOL    HW1 1322   1.733   1.027   1.523
  193SOL    HW2 1323   1.729   0.919   1.417
  194SOL     OW 1324   0.909   1.400   0.074
  194SOL    HW1 1325   0.850   1.377   0.146
  194SOL    HW2 1326   0.856   1.387  13.895
  195SOL     OW 1327   0.664   1.783   0.938
  195SOL    HW1 1328   0.645   1.875   0.919
  195SOL    HW2 1329   0.759   1.776   0.932
  196SOL     OW 1330   0.870   0.970   0.853
  196SOL    HW1 1331   0.920   0.898   0.890
  196SOL    HW2 1332   0.831   1.013   0.929
  197SOL     OW 1333   1.096   1.019   0.113
  197SOL    HW1 1334   1.087   1.062   0.028
  197SOL    HW2 1335   1.169   0.958   0.101
  198SOL     OW 1336   1.852   1.513   0.837
  198SOL    HW1 1337   1.776   1.554   0.797
  198SOL    HW2 1338   1.834   1.517   0.931
  199SOL     OW 1339   0.231   1.304   1.857
  199SOL    HW1 1340   0.154   1.254   1.828
  199SOL    HW2 1341   0.216   1.317   1.951
  200SOL     OW 1342   0.120   1.292   0.736
  200SOL    HW1 1343   0.132   1.243   0.817
  200SOL    HW2 1344   0.104   1.226   0.670
  201SOL     OW 1345   0.684   1.409   1.631
  201SOL    HW1 1346   0.605   1.365   1.663
  201SOL    HW2 1347   0.681   1.497   1.669
  202SOL     OW 1348   1.809   0.183   1.235
  202SOL    HW1 1349   1.812   0.089   1.252
  202SOL    HW2 1350   1.825   0.191   1.141
  203SOL     OW 1351   0.446   0.438   0.535
  203SOL    HW1 1352   0.477   0.363   0.483
  203SOL    HW2 1353   0.392   0.398   0.604
  204SOL     OW 1354   1.699   1.500   1.093
  204SOL    HW1 1355   1.620   1.472   1.047
  204SOL    HW2 1356   1.713   1.433   1.160
  205SOL     OW 1357   0.336   0.561   1.294
  205SOL    HW1 1358   0.391   0.504   1.348
  205SOL    HW2 1359   0.351   0.531   1.204
  206SOL     OW 1360   0.831   1.580   0.675
  206SOL    HW1 1361   0.813   1.649   0.610
  206SOL    HW2 1362   0.756   1.521   0.669
  207SOL     OW 1363   1.458   0.257   1.110
  207SOL    HW1 1364   1.478   0.170   1.146
  207SOL    HW2 1365   1.404   0.298   1.176
  208SOL     OW 1366   1.000   0.024   1.144
  208SOL    HW1 1367   0.917   0.006   1.102
  208SOL    HW2 1368   1.043   3.939   1.152
  209SOL     OW 1369   0.783   1.324   0.320
  209SOL    HW1 1370   0.753   1.235   0.337
  209SOL    HW2 1371   0.861   1.335   0.375
  210SOL     OW 1372   0.621   1.558   1.288
  210SOL    HW1 1373   0.622   1.641   1.336
  210SOL    HW2 1374   0.709   1.551   1.251
  211SOL     OW 1375   1.317   0.069   0.127
  211SOL    HW1 1376   1.331   3.978   0.102
  211SOL    HW2 1377   1.259   0.064   0.204
  212SOL     OW 1378   1.277   0.453   0.680
  212SOL    HW1 1379   1.232   0.537   0.673
  212SOL    HW2 1380   1.281   0.436   0.774
  213SOL     OW 1381   1.586   0.209   0.869
  213SOL    HW1 1382   1.537   0.235   0.946
  213SOL    HW2 1383   1.587   0.288   0.814
  214SOL     OW 1384   0.045   1.026   0.259
  214SOL    HW1 1385   0.138   1.004   0.255
  214SOL    HW2 1386   0.004   0.951   0.303
  215SOL     OW 1387   0.896   1.658   0.342
  215SOL    HW1 1388   0.819   1.631   0.294
  215SOL    HW2 1389   0.866   1.731   0.397
  216SOL     OW 1390   0.232   0.632   1.977
  216SOL    HW1 1391   0.139   0.635   1.997
  216SOL    HW2 1392   0.235   0.600   1.886
  217SOL     OW 1393   0.223   0.291   2.844
  217SOL    HW1 1394   0.245   0.251   2.928
  217SOL    HW2 1395   0.128   0.284   2.838
  218SOL     OW 1396   0.019   0.384   2.499
  218SOL    HW1 1397   3.928   0.401   2.520
  218SOL    HW2 1398   0.024   0.289   2.486
  219SOL     OW 1399   0.585   1.295   3.063
  219SOL    HW1 1400   0.499   1.295   3.021
  219SOL    HW2 1401   0.597   1.385   3.093
  220SOL     OW 1402   1.551   1.503   2.569
  220SOL    HW1 1403   1.521   1.481   2.658
  220SOL    HW2 1404   1.472   1.495   2.515
  221SOL     OW 1405   1.134   0.699   2.555
  221SOL    HW1 1406   1.181   0.782   2.544
  221SOL    HW2 1407   1.086   0.710   2.637
  222SOL     OW 1408   1.779   0.619   2.083
  222SOL    HW1 1409   1.751   0.611   1.991
  222SOL    HW2 1410   1.754   0.535   2.122
  223SOL     OW 1411   0.747   1.136   2.909
  223SOL    HW1 1412   0.687   1.174   2.973
  223SOL    HW2 1413   0.784   1.211   2.863
  224SOL     OW 1414   0.876   0.764   3.688
  224SOL    HW1 1415   0.866   0.835   3.752
  224SOL    HW2 1416   0.897   0.808   3.606
  225SOL     OW 1417   0.685   0.999   2.506
  225SOL    HW1 1418   0.752   0.990   2.574
  225SOL    HW2 1419   0.616   1.052   2.547
  226SOL     OW 1420   0.714   1.148   3.683
  226SOL    HW1 1421   0.762   1.225   3.713
  226SOL    HW2 1422   0.634   1.184   3.643
  227SOL     OW 1423   0.353   1.398   2.941
  227SOL    HW1 1424   0.272   1.373   2.896
  227SOL    HW2 1425   0.398   1.456   2.880
  228SOL     OW 1426   1.445   1.482   3.227
  228SOL    HW1 1427   1.491   1.565   3.241
  228SOL    HW2 1428   1.373   1.483   3.290
  229SOL     OW 1429   0.460   0.409   3.352
  229SOL    HW1 1430   0.543   0.361   3.354
  229SOL    HW2 1431   0.393   0.341   3.358
  230SOL     OW 1432   1.611   0.451   2.598
  230SOL    HW1 1433   1.546   0.483   2.535
  230SOL    HW2 1434   1.621   0.522   2.661
  231SOL     OW 1435   0.218   1.722   2.317
  231SOL    HW1 1436   0.241   1.794   2.375
  231SOL    HW2 1437   0.294   1.713   2.260
  232SOL     OW 1438   1.136   1.342   3.557
  232SOL    HW1 1439   1.178   1.335   3.643
  232SOL    HW2 1440   1.085   1.262   3.549
  233SOL     OW 1441   0.255   1.454   2.399
  233SOL    HW1 1442   0.218   1.541   2.386
  233SOL    HW2 1443   0.191   1.408   2.452
  234SOL     OW 1444   0.249   1.063   2.745
  234SOL    HW1 1445   0.270   0.978   2.783
  234SOL    HW2 1446   0.196   1.107   2.812
  235SOL     OW 1447   0.607   1.795   3.286
  235SOL    HW1 1448   0.525   1.777   3.331
  235SOL    HW2 1449   0.631   1.884   3.314
  236SOL     OW 1450   0.573   0.988   2.003
  236SOL    HW1 1451   0.623   1.031   1.934
  236SOL    HW2 1452   0.613   1.018   2.085
  237SOL     OW 1453   1.585   0.143   3.317
  237SOL    HW1 1454   1.618   0.215   3.263
  237SOL    HW2 1455   1.546   0.185   3.393
  238SOL     OW 1456   0.143   0.654   2.431
  238SOL    HW1 1457   0.101   0.568   2.436
  238SOL    HW2 1458   0.104   0.704   2.503
  239SOL     OW 1459   0.043   1.586   1.997
  239SOL    HW1 1460   0.042   1.496   2.029
  239SOL    HW2 1461   3.956   1.620   2.015
  240SOL     OW 1462   1.686   0.916   2.505
  240SOL    HW1 1463   1.772   0.877   2.487
  240SOL    HW2 1464   1.668   0.970   2.428
  241SOL     OW 1465   1.651   1.105   2.292
  241SOL    HW1 1466   1.738   1.105   2.252
  241SOL    HW2 1467   1.659   1.166   2.365
  242SOL     OW 1468   0.147   0.755   3.451
  242SOL    HW1 1469   0.243   0.753   3.443
  242SOL    HW2 1470   0.128   0.841   3.489
  243SOL     OW 1471   0.613   1.389   2.600
  243SOL    HW1 1472   0.568   1.305   2.607
  243SOL    HW2 1473   0.599   1.416   2.509
  244SOL     OW 1474   1.280   1.231   3.286
  244SOL    HW1 1475   1.311   1.165   3.224
  244SOL    HW2 1476   1.342   1.226   3.359
  245SOL     OW 1477   0.824   0.006   2.380
  245SOL    HW1 1478   0.869   0.087   2.354
  245SOL    HW2 1479   0.731   0.029   2.378
  246SOL     OW 1480   0.183   0.947   3.143
  246SOL    HW1 1481   0.272   0.913   3.132
  246SOL    HW2 1482   0.132   0.907   3.073
  247SOL     OW 1483   1.532   1.000   2.063
  247SOL    HW1 1484   1.463   0.943   2.097
  247SOL    HW2 1485   1.575   1.033   2.142
  248SOL     OW 1486   1.187   1.814   3.488
  248SOL    HW1 1487   1.190   1.875   3.414
  248SOL    HW2 1488   1.202   1.728   3.450
  249SOL     OW 1489   0.349   0.244   3.719
  249SOL    HW1 1490   0.392   0.327   3.700
  249SOL    HW2 1491   0.257   0.267   3.732
  250SOL     OW 1492   1.469   1.418   2.815
  250SOL    HW1 1493   1.400   1.435   2.880
  250SOL    HW2 1494   1.456   1.327   2.790
  251SOL     OW 1495   1.585   1.722   2.405
  251SOL    HW1 1496   1.586   1.678   2.320
  251SOL    HW2 1497   1.586   1.651   2.469
  252SOL     OW 1498   0.596   0.715   2.132
  252SOL    HW1 1499   0.600   0.800   2.088
  252SOL    HW2 1500   0.532   0.727   2.202
  253SOL     OW 1501   1.274   0.374   2.803
  253SOL    HW1 1502   1.187   0.335   2.812
  253SOL    HW2 1503   1.332   0.314   2.850
  254SOL     OW 1504   1.562   1.647   2.148
  254SOL    HW1 1505   1.645   1.689   2.124
  254SOL    HW2 1506   1.519   1.629   2.065
  255SOL     OW 1507   0.794   0.614   3.313
  255SOL    HW1 1508   0.766   0.587   3.400
  255SOL    HW2 1509   0.760   0.547   3.255
  256SOL     OW 1510   1.392   0.475   3.539
  256SOL    HW1 1511   1.400   0.521   3.623
  256SOL    HW2 1512   1.448   0.397   3.549
  257SOL     OW 1513   0.949   0.886   3.449
  257SOL    HW1 1514   1.004   0.818   3.410
  257SOL    HW2 1515   0.900   0.922   3.375
  258SOL     OW 1516   0.996   0.401   3.095
  258SOL    HW1 1517   0.908   0.419   3.129
  258SOL    HW2 1518   0.981   0.375   3.004
  259SOL     OW 1519   1.054   0.701   2.286
  259SOL    HW1 1520   1.072   0.695   2.379
  259SOL    HW2 1521   0.971   0.655   2.275
  260SOL     OW 1522   0.082   0.832   2.651
  260SOL    HW1 1523   0.150   0.796   2.707
  260SOL    HW2 1524   0.110   0.923   2.636
  261SOL     OW 1525   0.130   1.868   3.445
  261SOL    HW1 1526   0.139   1.832   3.533
  261SOL    HW2 1527   0.038   1.859   3.424
  262SOL     OW 1528   0.895   0.352   2.061
  262SOL    HW1 1529   0.937   0.413   2.001
  262SOL    HW2 1530   0.890   0.270   2.013
  263SOL     OW 1531   1.703   0.574   3.693
  263SOL    HW1 1532   1.668   0.648   3.643
  263SOL    HW2 1533   1.728   0.510   3.626
  264SOL     OW 1534   1.381   1.141   2.400
  264SOL    HW1 1535   1.462   1.133   2.349
  264SOL    HW2 1536   1.327   1.200   2.349
  265SOL     OW 1537   0.564   0.195   2.741
  265SOL    HW1 1538   0.568   0.220   2.833
  265SOL    HW2 1539   0.547   0.277   2.694
  266SOL     OW 1540   0.993   1.440   2.329
  266SOL    HW1 1541   0.967   1.518   2.279
  266SOL    HW2 1542   0.975   1.463   2.420
  267SOL     OW 1543   0.363   1.829   2.737
  267SOL    HW1 1544   0.422   1.754   2.748
  267SOL    HW2 1545   0.418   1.906   2.751
  268SOL     OW 1546   1.801   1.043   2.737
  268SOL    HW1 1547   1.748   1.037   2.658
  268SOL    HW2 1548   1.737   1.053   2.808
  269SOL     OW 1549   1.220   1.537   3.378
  269SOL    HW1 1550   1.207   1.466   3.440
  269SOL    HW2 1551   1.151   1.525   3.312
  270SOL     OW 1552   0.310   0.950   2.105
  270SOL    HW1 1553   0.393   0.972   2.062
  270SOL    HW2 1554   0.299   0.857   2.088
  271SOL     OW 1555   1.480   0.752   2.589
  271SOL    HW1 1556   1.479   0.713   2.676
  271SOL    HW2 1557   1.558   0.808   2.589
  272SOL     OW 1558   0.472   1.262   3.600
  272SOL    HW1 1559   0.446   1.269   3.508
  272SOL    HW2 1560   0.390   1.263   3.648
  273SOL     OW 1561   1.124   1.777   2.090
  273SOL    HW1 1562   1.048   1.739   2.134
  273SOL    HW2 1563   1.146   1.714   2.022
  274SOL     OW 1564   0.202   0.292   3.364
  274SOL    HW1 1565   0.108   0.310   3.364
  274SOL    HW2 1566   0.212   0.212   3.416
  275SOL     OW 1567   1.627   1.384   1.947
  275SOL    HW1 1568   1.580   1.465   1.928
  275SOL    HW2 1569   1.563   1.315   1.929
  276SOL     OW 1570   0.465   1.739   2.176
  276SOL    HW1 1571   0.510   1.794   2.241
  276SOL    HW2 1572   0.536   1.700   2.125
  277SOL     OW 1573   1.446   0.175   2.269
  277SOL    HW1 1574   1.392   0.105   2.231
  277SOL    HW2 1575   1.512   0.128   2.320
  278SOL     OW 1576   0.256   1.790   3.091
  278SOL    HW1 1577   0.298   1.720   3.141
  278SOL    HW2 1578   0.253   1.757   3.001
  279SOL     OW 1579   0.940   1.700   2.758
  279SOL    HW1 1580   1.020   1.651   2.779
  279SOL    HW2 1581   0.899   1.649   2.688
  280SOL     OW 1582   0.399   0.695   2.331
  280SOL    HW1 1583   0.424   0.603   2.348
  280SOL    HW2 1584   0.307   0.700   2.357
  281SOL     OW 1585   1.528   0.226   3.588
  281SOL    HW1 1586   1.520   0.250   3.680
  281SOL    HW2 1587   1.517   0.131   3.587
  282SOL     OW 1588   0.647   0.125   1.966
  282SOL    HW1 1589   0.666   0.039   2.004
  282SOL    HW2 1590   0.587   0.107   1.894
  283SOL     OW 1591   0.773   0.287   3.635
  283SOL    HW1 1592   0.854   0.236   3.635
  283SOL    HW2 1593   0.721   0.249   3.706
  284SOL     OW 1594   0.875   1.523   3.057
  284SOL    HW1 1595   0.858   1.485   2.971
  284SOL    HW2 1596   0.944   1.468   3.094
  285SOL     OW 1597   1.337   0.588   3.294
  285SOL    HW1 1598   1.369   0.559   3.379
  285SOL    HW2 1599   1.373   0.676   3.283
  286SOL     OW 1600   0.818   1.388   2.808
  286SOL    HW1 1601   0.903   1.378   2.766
  286SOL    HW2 1602   0.756   1.395   2.735
  287SOL     OW 1603   0.931   0.513   2.759
  287SOL    HW1 1604   0.906   0.504   2.667
  287SOL    HW2 1605   0.955   0.425   2.787
  288SOL     OW 1606   0.548   0.055   2.349
  288SOL    HW1 1607   0.475   0.062   2.410
  288SOL    HW2 1608   0.548   0.138   2.302
  289SOL     OW 1609   1.428   1.199   1.901
  289SOL    HW1 1610   1.458   1.124   1.953
  289SOL    HW2 1611   1.343   1.222   1.938
  290SOL     OW 1612   0.357   0.029   2.063
  290SOL    HW1 1613   0.355   0.089   1.989
  290SOL    HW2 1614   0.445   0.039   2.099
  291SOL     OW 1615   0.946   0.252   2.319
  291SOL    HW1 1616   0.920   0.290   2.235
  291SOL    HW2 1617   1.042   0.259   2.320
  292SOL     OW 1618   1.079   0.687   3.318
  292SOL    HW1 1619   1.011   0.620   3.325
  292SOL    HW2 1620   1.161   0.638   3.314
  293SOL     OW 1621   1.219   1.572   2.657
  293SOL    HW1 1622   1.231   1.638   2.589
  293SOL    HW2 1623   1.289   1.589   2.720
  294SOL     OW 1624   0.467   1.152   2.593
  294SOL    HW1 1625   0.397   1.126   2.653
  294SOL    HW2 1626   0.430   1.137   2.506
  295SOL     OW 1627   1.256   1.788   2.477
  295SOL    HW1 1628   1.307   1.850   2.424
  295SOL    HW2 1629   1.189   1.843   2.519
  296SOL     OW 1630   1.021   0.537   1.894
  296SOL    HW1 1631   0.978   0.621   1.875
  296SOL    HW2 1632   1.085   0.559   1.962
  297SOL     OW 1633   0.083   0.577   3.254
  297SOL    HW1 1634   0.172   0.558   3.224
  297SOL    HW2 1635   0.093   0.647   3.318
  298SOL     OW 1636   0.571   0.230   3.020
  298SOL    HW1 1637   0.592   0.137   3.029
  298SOL    HW2 1638   0.481   0.238   3.050
  299SOL     OW 1639   0.871   0.460   2.499
  299SOL    HW1 1640   0.822   0.514   2.437
  299SOL    HW2 1641   0.892   0.381   2.450
  300SOL     OW 1642   0.998   0.036   2.645
  300SOL    HW1 1643   0.956   0.069   2.565
  300SOL    HW2 1644   1.010   3.943   2.629
  301SOL     OW 1645   1.441   1.161   2.720
  301SOL    HW1 1646   1.369   1.098   2.716
  301SOL    HW2 1647   1.471   1.170   2.630
  302SOL     OW 1648   1.464   0.610   2.831
  302SOL    HW1 1649   1.407   0.533   2.836
  302SOL    HW2 1650   1.522   0.602   2.906
  303SOL     OW 1651   1.841   0.817   2.253
  303SOL    HW1 1652   1.899   0.766   2.309
  303SOL    HW2 1653   1.816   0.756   2.183
  304SOL     OW 1654   0.487   1.424   2.019
  304SOL    HW1 1655   0.411   1.394   2.069
  304SOL    HW2 1656   0.477   1.384   1.933
  305SOL     OW 1657   1.676   1.259   2.510
  305SOL    HW1 1658   1.770   1.256   2.523
  305SOL    HW2 1659   1.651   1.349   2.532
  306SOL     OW 1660   1.395   0.579   1.930
  306SOL    HW1 1661   1.332   0.558   1.999
  306SOL    HW2 1662   1.481   0.561   1.969
  307SOL     OW 1663   0.555   0.270   2.179
  307SOL    HW1 1664   0.607   0.230   2.108
  307SOL    HW2 1665   0.527   0.354   2.143
  308SOL     OW 1666   1.745   1.232   3.427
  308SOL    HW1 1667   1.833   1.193   3.420
  308SOL    HW2 1668   1.762   1.322   3.455
  309SOL     OW 1669   1.052   1.353   3.195
  309SOL    HW1 1670   0.976   1.321   3.244
  309SOL    HW2 1671   1.127   1.310   3.237
  310SOL     OW 1672   1.606   1.609   3.527
  310SOL    HW1 1673   1.586   1.644   3.439
  310SOL    HW2 1674   1.688   1.561   3.515
  311SOL     OW 1675   1.137   1.214   2.964
  311SOL    HW1 1676   1.073   1.248   3.028
  311SOL    HW2 1677   1.106   1.246   2.880
  312SOL     OW 1678   1.621   1.093   2.937
  312SOL    HW1 1679   1.614   1.157   3.008
  312SOL    HW2 1680   1.547   1.114   2.879
  313SOL     OW 1681   0.911   0.121   3.262
  313SOL    HW1 1682   0.931   0.090   3.174
  313SOL    HW2 1683   0.993   0.161   3.293
  314SOL     OW 1684   0.984   1.116   3.585
  314SOL    HW1 1685   0.892   1.132   3.610
  314SOL    HW2 1686   0.980   1.037   3.531
  315SOL     OW 1687   0.708   1.062   2.233
  315SOL    HW1 1688   0.694   1.043   2.326
  315SOL    HW2 1689   0.784   1.009   2.208
  316SOL     OW 1690   0.424   0.819   3.116
  316SOL    HW1 1691   0.493   0.826   3.183
  316SOL    HW2 1692   0.390   0.731   3.125
  317SOL     OW 1693   1.265   0.374   3.141
  317SOL    HW1 1694   1.298   0.453   3.185
  317SOL    HW2 1695   1.177   0.398   3.112
  318SOL     OW 1696   0.064   1.579   3.206
  318SOL    HW1 1697   0.069   1.614   3.117
  318SOL    HW2 1698   0.155   1.573   3.234
  319SOL     OW 1699   0.364   1.104   2.341
  319SOL    HW1 1700   0.359   1.184   2.288
  319SOL    HW2 1701   0.363   1.033   2.277
  320SOL     OW 1702   0.554   0.529   2.717
  320SOL    HW1 1703   0.566   0.589   2.644
  320SOL    HW2 1704   0.619   0.556   2.782
  321SOL     OW 1705   1.237   1.337   2.250
  321SOL    HW1 1706   1.290   1.411   2.279
  321SOL    HW2 1707   1.149   1.356   2.283
  322SOL     OW 1708   1.284   1.462   3.008
  322SOL    HW1 1709   1.338   1.463   3.087
  322SOL    HW2 1710   1.230   1.384   3.017
  323SOL     OW 1711   1.571   0.636   2.352
  323SOL    HW1 1712   1.526   0.686   2.420
  323SOL    HW2 1713   1.619   0.702   2.302
  324SOL     OW 1714   0.345   1.528   3.179
  324SOL    HW1 1715   0.336   1.476   3.099
  324SOL    HW2 1716   0.440   1.543   3.187
  325SOL     OW 1717   0.422   0.735   3.463
  325SOL    HW1 1718   0.486   0.779   3.408
  325SOL    HW2 1719   0.457   0.647   3.475
  326SOL     OW 1720   1.608   0.783   3.550
  326SOL    HW1 1721   1.522   0.824   3.543
  326SOL    HW2 1722   1.660   0.823   3.481
  327SOL     OW 1723   1.004   0.144   3.644
  327SOL    HW1 1724   1.065   0.211   3.612
  327SOL    HW2 1725   0.996   0.083   3.571
  328SOL     OW 1726   0.488   0.037   3.624
  328SOL    HW1 1727   0.489   0.052   3.529
  328SOL    HW2 1728   0.425   0.100   3.657
  329SOL     OW 1729   0.586   0.876   2.894
  329SOL    HW1 1730   0.621   0.965   2.898
  329SOL    HW2 1731   0.530   0.869   2.972
  330SOL     OW 1732   1.345   0.858   2.883
  330SOL    HW1 1733   1.259   0.842   2.844
  330SOL    HW2 1734   1.392   0.775   2.874
  331SOL     OW 1735   1.197   0.539   2.116
  331SOL    HW1 1736   1.206   0.460   2.169
  331SOL    HW2 1737   1.155   0.603   2.174
  332SOL     OW 1738   0.309   0.211   3.100
  332SOL    HW1 1739   0.266   0.248   3.176
  332SOL    HW2 1740   0.296   0.116   3.108
  333SOL     OW 1741   0.066   1.306   3.142
  333SOL    HW1 1742   0.093   1.261   3.222
  333SOL    HW2 1743   0.055   1.397   3.168
  334SOL     OW 1744   0.722   0.632   2.911
  334SOL    HW1 1745   0.798   0.621   2.854
  334SOL    HW2 1746   0.691   0.721   2.892
  335SOL     OW 1747   1.741   0.960   3.721
  335SOL    HW1 1748   1.696   0.893   3.668
  335SOL    HW2 1749   1.681   0.978   3.793
  336SOL     OW 1750   0.336   0.053   2.524
  336SOL    HW1 1751   0.306   0.144   2.525
  336SOL    HW2 1752   0.303   0.016   2.605
  337SOL     OW 1753   1.611   0.397   2.238
  337SOL    HW1 1754   1.562   0.329   2.285
  337SOL    HW2 1755   1.590   0.478   2.285
  338SOL     OW 1756   1.031   0.760   2.819
  338SOL    HW1 1757   1.021   0.776   2.913
  338SOL    HW2 1758   1.004   0.669   2.807
  339SOL     OW 1759   0.979   1.566   3.583
  339SOL    HW1 1760   0.964   1.610   3.499
  339SOL    HW2 1761   1.022   1.484   3.560
  340SOL     OW 1762   1.850   1.487   3.466
  340SOL    HW1 1763   1.882   1.509   3.378
  340SOL    HW2 1764   1.923   1.505   3.524
  341SOL     OW 1765   0.357   0.923   3.658
  341SOL    HW1 1766   0.434   0.943   3.712
  341SOL    HW2 1767   0.387   0.854   3.599
  342SOL     OW 1768   1.500   0.271   1.993
  342SOL    HW1 1769   1.428   0.208   2.006
  342SOL    HW2 1770   1.512   0.310   2.080
  343SOL     OW 1771   1.285   0.827   1.888
  343SOL    HW1 1772   1.327   0.741   1.893
  343SOL    HW2 1773   1.317   0.866   1.807
  344SOL     OW 1774   1.069   1.340   2.719
  344SOL    HW1 1775   1.074   1.268   2.657
  344SOL    HW2 1776   1.127   1.407   2.684
  345SOL     OW 1777   0.313   0.801   2.812
  345SOL    HW1 1778   0.408   0.817   2.807
  345SOL    HW2 1779   0.306   0.711   2.844
  346SOL     OW 1780   0.340   0.529   2.879
  346SOL    HW1 1781   0.297   0.445   2.861
  346SOL    HW2 1782   0.415   0.530   2.819
  347SOL     OW 1783   1.134   0.379   3.563
  347SOL    HW1 1784   1.086   0.433   3.625
  347SOL    HW2 1785   1.221   0.419   3.558
  348SOL     OW 1786   1.152   0.225   3.344
  348SOL    HW1 1787   1.142   0.278   3.423
  348SOL    HW2 1788   1.181   0.287   3.277
  349SOL     OW 1789   0.002   1.313   2.045
  349SOL    HW1 1790   3.908   1.330   2.047
  349SOL    HW2 1791   0.010   1.219   2.063
  350SOL     OW 1792   0.081   1.798   2.748
  350SOL    HW1 1793   0.092   1.703   2.746
  350SOL    HW2 1794   0.170   1.833   2.754
  351SOL     OW 1795   0.493   1.572   2.770
  351SOL    HW1 1796   0.562   1.633   2.796
  351SOL    HW2 1797   0.538   1.509   2.712
  352SOL     OW 1798   0.971   0.786   3.084
  352SOL    HW1 1799   1.029   0.769   3.158
  352SOL    HW2 1800   0.888   0.745   3.108
  353SOL     OW 1801   0.034   0.583   2.973
  353SOL    HW1 1802   0.088   0.523   2.923
  353SOL    HW2 1803   0.061   0.570   3.064
  354SOL     OW 1804   0.211   0.514   3.584
  354SOL    HW1 1805   0.253   0.470   3.510
  354SOL    HW2 1806   0.170   0.592   3.545
  355SOL     OW 1807   1.380   0.933   3.517
  355SOL    HW1 1808   1.401   1.026   3.513
  355SOL    HW2 1809   1.376   0.905   3.426
  356SOL     OW 1810   0.819   0.572   2.228
  356SOL    HW1 1811   0.826   0.496   2.170
  356SOL    HW2 1812   0.744   0.621   2.195
  357SOL     OW 1813   1.638   0.602   3.041
  357SOL    HW1 1814   1.629   0.541   3.115
  357SOL    HW2 1815   1.727   0.586   3.007
  358SOL     OW 1816   0.302   1.543   3.581
  358SOL    HW1 1817   0.256   1.612   3.630
  358SOL    HW2 1818   0.275   1.462   3.624
  359SOL     OW 1819   0.719   0.449   3.112
  359SOL    HW1 1820   0.666   0.373   3.090
  359SOL    HW2 1821   0.706   0.510   3.039
  360SOL     OW 1822   0.922   1.679   3.333
  360SOL    HW1 1823   0.897   1.639   3.250
  360SOL    HW2 1824   0.915   1.773   3.318
  361SOL     OW 1825   0.450   0.492   2.062
  361SOL    HW1 1826   0.514   0.562   2.080
  361SOL    HW2 1827   0.370   0.539   2.036
  362SOL     OW 1828   0.153   1.133   3.339
  362SOL    HW1 1829   0.153   1.083   3.421
  362SOL    HW2 1830   0.169   1.068   3.271
  363SOL     OW 1831   1.319   1.043   3.081
  363SOL    HW1 1832   1.340   0.980   3.012
  363SOL    HW2 1833   1.254   1.101   3.041
  364SOL     OW 1834   1.318   0.856   2.164
  364SOL    HW1 1835   1.243   0.827   2.217
  364SOL    HW2 1836   1.289   0.844   2.074
  365SOL     OW 1837   1.246   1.736   2.965
  365SOL    HW1 1838   1.330   1.758   2.926
  365SOL    HW2 1839   1.252   1.643   2.986
  366SOL     OW 1840   0.080   1.217   2.889
  366SOL    HW1 1841   0.086   1.243   2.981
  366SOL    HW2 1842   3.988   1.229   2.867
  367SOL     OW 1843   0.681   1.671   3.603
  367SOL    HW1 1844   0.619   1.743   3.591
  367SOL    HW2 1845   0.750   1.688   3.539
  368SOL     OW 1846   1.718   0.122   2.355
  368SOL    HW1 1847   1.794   0.134   2.298
  368SOL    HW2 1848   1.706   0.027   2.359
  369SOL     OW 1849   1.362   1.558   2.339
  369SOL    HW1 1850   1.422   1.590   2.271
  369SOL    HW2 1851   1.325   1.637   2.378
  370SOL     OW 1852   0.178   1.759   3.695
  370SOL    HW1 1853   0.122   1.706   3.751
  370SOL    HW2 1854   0.216   1.825   3.754
  371SOL     OW 1855   1.277   0.930   2.533
  371SOL    HW1 1856   1.351   0.871   2.547
  371SOL    HW2 1857   1.313   1.001   2.479
  372SOL     OW 1858   0.802   1.275   3.285
  372SOL    HW1 1859   0.774   1.318   3.366
  372SOL    HW2 1860   0.730   1.289   3.224
  373SOL     OW 1861   0.669   1.626   2.018
  373SOL    HW1 1862   0.682   1.639   1.924
  373SOL    HW2 1863   0.614   1.548   2.024
  374SOL     OW 1864   1.571   1.715   3.275
  374SOL    HW1 1865   1.627   1.708   3.197
  374SOL    HW2 1866   1.557   1.809   3.285
  375SOL     OW 1867   1.840   0.180   2.825
  375SOL    HW1 1868   1.872   0.120   2.758
  375SOL    HW2 1869   1.750   0.198   2.799
  376SOL     OW 1870   0.277   0.321   2.575
  376SOL    HW1 1871   0.192   0.355   2.547
  376SOL    HW2 1872   0.268   0.308   2.669
  377SOL     OW 1873   1.200   1.600   1.894
  377SOL    HW1 1874   1.191   1.509   1.921
  377SOL    HW2 1875   1.132   1.612   1.827
  378SOL     OW 1876   0.823   1.006   3.238
  378SOL    HW1 1877   0.866   0.999   3.153
  378SOL    HW2 1878   0.819   1.100   3.255
  379SOL     OW 1879   0.915   0.911   2.153
  379SOL    HW1 1880   0.976   0.944   2.086
  379SOL    HW2 1881   0.965   0.844   2.199
  380SOL     OW 1882   1.474   1.621   1.898
  380SOL    HW1 1883   1.380   1.616   1.880
  380SOL    HW2 1884   1.515   1.624   1.811
  381SOL     OW 1885   0.374   1.301   3.354
  381SOL    HW1 1886   0.358   1.382   3.305
  381SOL    HW2 1887   0.297   1.247   3.337
  382SOL     OW 1888   1.611   1.281   3.138
  382SOL    HW1 1889   1.674   1.272   3.209
  382SOL    HW2 1890   1.546   1.342   3.171
  383SOL     OW 1891   1.062   1.111   2.574
  383SOL    HW1 1892   0.989   1.061   2.610
  383SOL    HW2 1893   1.126   1.046   2.547
  384SOL     OW 1894   1.015   0.251   2.834
  384SOL    HW1 1895   1.006   0.200   2.753
  384SOL    HW2 1896   1.015   0.185   2.904
  385SOL     OW 1897   0.608   1.487   2.344
  385SOL    HW1 1898   0.656   1.438   2.277
  385SOL    HW2 1899   0.529   1.518   2.299
  386SOL     OW 1900   1.722   0.395   3.232
  386SOL    HW1 1901   1.795   0.457   3.238
  386SOL    HW2 1902   1.754   0.324   3.178
  387SOL     OW 1903   0.256   1.340   2.156
  387SOL    HW1 1904   0.161   1.343   2.139
  387SOL    HW2 1905   0.265   1.382   2.241
  388SOL     OW 1906   0.110   0.998   3.581
  388SOL    HW1 1907   0.051   0.992   3.656
  388SOL    HW2 1908   0.197   0.981   3.617
  389SOL     OW 1909   0.695   0.261   3.368
  389SOL    HW1 1910   0.762   0.207   3.326
  389SOL    HW2 1911   0.724   0.268   3.459
  390SOL     OW 1912   0.088   0.313   1.884
  390SOL    HW1 1913   3.993   0.315   1.878
  390SOL    HW2 1914   0.116   0.397   1.845
  391SOL     OW 1915   1.424   0.856   3.258
  391SOL    HW1 1916   1.374   0.917   3.204
  391SOL    HW2 1917   1.512   0.858   3.222
  392SOL     OW 1918   0.033   0.177   2.145
  392SOL    HW1 1919   0.037   0.222   2.061
  392SOL    HW2 1920   0.107   0.212   2.194
  393SOL     OW 1921   1.176   1.333   1.978
  393SOL    HW1 1922   1.085   1.303   1.978
  393SOL    HW2 1923   1.201   1.332   2.071
  394SOL     OW 1924   0.623   0.828   3.300
  394SOL    HW1 1925   0.680   0.903   3.284
  394SOL    HW2 1926   0.683   0.753   3.307
  395SOL     OW 1927   1.495   1.789   2.848
  395SOL    HW1 1928   1.515   1.864   2.791
  395SOL    HW2 1929   1.578   1.742   2.855
  396SOL     OW 1930   0.719   0.559   3.567
  396SOL    HW1 1931   0.765   0.620   3.626
  396SOL    HW2 1932   0.740   0.472   3.601
  397SOL     OW 1933   1.472   1.193   3.491
  397SOL    HW1 1934   1.461   1.208   3.585
  397SOL    HW2 1935   1.565   1.210   3.474
  398SOL     OW 1936   0.376   1.745   3.417
  398SOL    HW1 1937   0.289   1.784   3.406
  398SOL    HW2 1938   0.360   1.662   3.461
  399SOL     OW 1939   1.662   0.879   3.117
  399SOL    HW1 1940   1.660   0.794   3.074
  399SOL    HW2 1941   1.653   0.943   3.046
  400SOL     OW 1942   1.222   0.340   2.301
  400SOL    HW1 1943   1.291   0.274   2.294
  400SOL    HW2 1944   1.238   0.383   2.384
  401SOL     OW 1945   0.589   0.736   2.535
  401SOL    HW1 1946   0.627   0.822   2.520
  401SOL    HW2 1947   0.522   0.726   2.467
  402SOL     OW 1948   1.747   0.384   3.505
  402SOL    HW1 1949   1.731   0.390   3.411
  402SOL    HW2 1950   1.690   0.314   3.535
  403SOL     OW 1951   1.748   0.933   3.372
  403SOL    HW1 1952   1.733   1.027   3.385
  403SOL    HW2 1953   1.729   0.919   3.279
  404SOL     OW 1954   0.864   1.364   1.906
  404SOL    HW1 1955   0.826   1.390   1.990
  404SOL    HW2 1956   0.877   1.446   1.859
  405SOL     OW 1957   0.664   1.783   2.800
  405SOL    HW1 1958   0.645   1.875   2.781
  405SOL    HW2 1959   0.759   1.776   2.794
  406SOL     OW 1960   0.870   0.971   2.714
  406SOL    HW1 1961   0.920   0.898   2.751
  406SOL    HW2 1962   0.831   1.014   2.790
  407SOL     OW 1963   1.076   0.989   1.951
  407SOL    HW1 1964   1.055   1.041   1.873
  407SOL    HW2 1965   1.150   0.935   1.924
  408SOL     OW 1966   1.851   1.519   2.700
  408SOL    HW1 1967   1.769   1.548   2.659
  408SOL    HW2 1968   1.834   1.521   2.794
  409SOL     OW 1969   0.230   1.304   3.719
  409SOL    HW1 1970   0.154   1.254   3.690
  409SOL    HW2 1971   0.216   1.317   3.813
  410SOL     OW 1972   0.133   1.289   2.588
  410SOL    HW1 1973   0.145   1.235   2.666
  410SOL    HW2 1974   0.106   1.227   2.520
  411SOL     OW 1975   0.684   1.409   3.493
  411SOL    HW1 1976   0.605   1.365   3.525
  411SOL    HW2 1977   0.681   1.496   3.531
  412SOL     OW 1978   1.809   0.184   3.097
  412SOL    HW1 1979   1.812   0.090   3.115
  412SOL    HW2 1980   1.825   0.191   3.003
  413SOL     OW 1981   0.447   0.439   2.393
  413SOL    HW1 1982   0.474   0.362   2.342
  413SOL    HW2 1983   0.392   0.403   2.462
  414SOL     OW 1984   1.700   1.500   2.955
  414SOL    HW1 1985   1.620   1.473   2.909
  414SOL    HW2 1986   1.713   1.433   3.022
  415SOL     OW 1987   0.336   0.561   3.156
  415SOL    HW1 1988   0.391   0.504   3.210
  415SOL    HW2 1989   0.351   0.531   3.066
  416SOL     OW 1990   0.831   1.581   2.536
  416SOL    HW1 1991   0.813   1.648   2.471
  416SOL    HW2 1992   0.756   1.522   2.532
  417SOL     OW 1993   1.459   0.257   2.972
  417SOL    HW1 1994   1.479   0.171   3.009
  417SOL    HW2 1995   1.404   0.299   3.039
  418SOL     OW 1996   1.000   0.024   3.007
  418SOL    HW1 1997   0.917   0.005   2.964
  418SOL    HW2 1998   1.043   3.939   3.015
  419SOL     OW 1999   0.773   1.333   2.182
  419SOL    HW1 2000   0.748   1.242   2.191
  419SOL    HW2 2001   0.854   1.341   2.233
  420SOL     OW 2002   0.621   1.558   3.150
  420SOL    HW1 2003   0.622   1.641   3.198
  420SOL    HW2 2004   0.709   1.551   3.113
  421SOL     OW 2005   1.306   0.073   2.030
  421SOL    HW1 2006   1.315   3.985   1.992
  421SOL    HW2 2007   1.224   0.069   2.079
  422SOL     OW 2008   1.277   0.456   2.545
  422SOL    HW1 2009   1.232   0.540   2.539
  422SOL    HW2 2010   1.281   0.437   2.639
  423SOL     OW 2011   1.586   0.209   2.731
  423SOL    HW1 2012   1.537   0.235   2.808
  423SOL    HW2 2013   1.588   0.288   2.676
  424SOL     OW 2014   0.047   1.045   2.107
  424SOL    HW1 2015   0.141   1.030   2.099
  424SOL    HW2 2016   0.011   0.958   2.125
  425SOL     OW 2017   0.890   1.661   2.199
  425SOL    HW1 2018   0.814   1.645   2.142
  425SOL    HW2 2019   0.863   1.733   2.256
  426SOL     OW 2020   0.232   0.632   3.839
  426SOL    HW1 2021   0.138   0.635   3.860
  426SOL    HW2 2022   0.235   0.600   3.748
  427SOL     OW 2023   0.223   0.291   4.706
  427SOL    HW1 2024   0.245   0.251   4.790
  427SOL    HW2 2025   0.128   0.284   4.700
  428SOL     OW 2026   0.019   0.384   4.361
  428SOL    HW1 2027   3.928   0.401   4.382
  428SOL    HW2 2028   0.024   0.289   4.348
  429SOL     OW 2029   0.585   1.295   4.925
  429SOL    HW1 2030   0.499   1.295   4.883
  429SOL    HW2 2031   0.597   1.385   4.955
  430SOL     OW 2032   1.548   1.503   4.431
  430SOL    HW1 2033   1.521   1.481   4.520
  430SOL    HW2 2034   1.469   1.493   4.378
  431SOL     OW 2035   1.134   0.699   4.417
  431SOL    HW1 2036   1.181   0.782   4.406
  431SOL    HW2 2037   1.086   0.710   4.499
  432SOL     OW 2038   1.779   0.619   3.945
  432SOL    HW1 2039   1.751   0.611   3.853
  432SOL    HW2 2040   1.754   0.535   3.984
  433SOL     OW 2041   0.747   1.136   4.771
  433SOL    HW1 2042   0.687   1.174   4.835
  433SOL    HW2 2043   0.784   1.211   4.725
  434SOL     OW 2044   0.876   0.764   5.550
  434SOL    HW1 2045   0.865   0.835   5.613
  434SOL    HW2 2046   0.897   0.808   5.467
  435SOL     OW 2047   0.685   0.999   4.368
  435SOL    HW1 2048   0.752   0.990   4.436
  435SOL    HW2 2049   0.616   1.052   4.409
  436SOL     OW 2050   0.714   1.148   5.545
  436SOL    HW1 2051   0.762   1.226   5.576
  436SOL    HW2 2052   0.635   1.184   5.505
  437SOL     OW 2053   0.353   1.398   4.803
  437SOL    HW1 2054   0.272   1.373   4.758
  437SOL    HW2 2055   0.398   1.456   4.742
  438SOL     OW 2056   1.446   1.483   5.088
  438SOL    HW1 2057   1.491   1.566   5.101
  438SOL    HW2 2058   1.374   1.485   5.152
  439SOL     OW 2059   0.460   0.409   5.214
  439SOL    HW1 2060   0.543   0.361   5.217
  439SOL    HW2 2061   0.393   0.341   5.220
  440SOL     OW 2062   1.611   0.451   4.460
  440SOL    HW1 2063   1.546   0.483   4.397
  440SOL    HW2 2064   1.621   0.522   4.523
  441SOL     OW 2065   0.218   1.722   4.179
  441SOL    HW1 2066   0.241   1.794   4.237
  441SOL    HW2 2067   0.294   1.713   4.122
  442SOL     OW 2068   1.137   1.343   5.420
  442SOL    HW1 2069   1.179   1.335   5.505
  442SOL    HW2 2070   1.085   1.262   5.411
  443SOL     OW 2071   0.255   1.454   4.261
  443SOL    HW1 2072   0.218   1.541   4.248
  443SOL    HW2 2073   0.191   1.408   4.314
  444SOL     OW 2074   0.250   1.063   4.607
  444SOL    HW1 2075   0.270   0.978   4.645
  444SOL    HW2 2076   0.196   1.107   4.674
  445SOL     OW 2077   0.607   1.795   5.148
  445SOL    HW1 2078   0.524   1.777   5.193
  445SOL    HW2 2079   0.631   1.884   5.176
  446SOL     OW 2080   0.573   0.988   3.865
  446SOL    HW1 2081   0.623   1.031   3.796
  446SOL    HW2 2082   0.613   1.018   3.947
  447SOL     OW 2083   1.585   0.143   5.179
  447SOL    HW1 2084   1.618   0.215   5.125
  447SOL    HW2 2085   1.546   0.185   5.255
  448SOL     OW 2086   0.143   0.654   4.293
  448SOL    HW1 2087   0.101   0.568   4.298
  448SOL    HW2 2088   0.104   0.704   4.365
  449SOL     OW 2089   0.043   1.586   3.859
  449SOL    HW1 2090   0.042   1.496   3.891
  449SOL    HW2 2091   3.955   1.620   3.877
  450SOL     OW 2092   1.686   0.915   4.367
  450SOL    HW1 2093   1.772   0.877   4.349
  450SOL    HW2 2094   1.668   0.970   4.290
  451SOL     OW 2095   1.652   1.105   4.154
  451SOL    HW1 2096   1.738   1.105   4.114
  451SOL    HW2 2097   1.659   1.166   4.227
  452SOL     OW 2098   0.147   0.755   5.313
  452SOL    HW1 2099   0.243   0.753   5.305
  452SOL    HW2 2100   0.128   0.841   5.351
  453SOL     OW 2101   0.613   1.389   4.462
  453SOL    HW1 2102   0.568   1.305   4.469
  453SOL    HW2 2103   0.599   1.416   4.371
  454SOL     OW 2104   1.280   1.231   5.148
  454SOL    HW1 2105   1.311   1.165   5.086
  454SOL    HW2 2106   1.342   1.227   5.221
  455SOL     OW 2107   0.824   0.006   4.242
  455SOL    HW1 2108   0.869   0.087   4.216
  455SOL    HW2 2109   0.731   0.029   4.240
  456SOL     OW 2110   0.183   0.947   5.005
  456SOL    HW1 2111   0.271   0.912   4.994
  456SOL    HW2 2112   0.132   0.907   4.935
  457SOL     OW 2113   1.532   1.000   3.926
  457SOL    HW1 2114   1.463   0.943   3.959
  457SOL    HW2 2115   1.575   1.033   4.004
  458SOL     OW 2116   1.184   1.813   5.350
  458SOL    HW1 2117   1.189   1.874   5.276
  458SOL    HW2 2118   1.201   1.727   5.311
  459SOL     OW 2119   0.349   0.244   5.581
  459SOL    HW1 2120   0.392   0.327   5.562
  459SOL    HW2 2121   0.257   0.267   5.594
  460SOL     OW 2122   1.469   1.418   4.678
  460SOL    HW1 2123   1.401   1.435   4.742
  460SOL    HW2 2124   1.457   1.327   4.652
  461SOL     OW 2125   1.580   1.722   4.266
  461SOL    HW1 2126   1.583   1.677   4.181
  461SOL    HW2 2127   1.582   1.651   4.330
  462SOL     OW 2128   0.596   0.715   3.994
  462SOL    HW1 2129   0.600   0.800   3.950
  462SOL    HW2 2130   0.532   0.727   4.064
  463SOL     OW 2131   1.274   0.374   4.665
  463SOL    HW1 2132   1.187   0.335   4.674
  463SOL    HW2 2133   1.332   0.314   4.712
  464SOL     OW 2134   1.561   1.645   4.010
  464SOL    HW1 2135   1.642   1.690   3.987
  464SOL    HW2 2136   1.519   1.626   3.926
  465SOL     OW 2137   0.794   0.614   5.175
  465SOL    HW1 2138   0.765   0.587   5.262
  465SOL    HW2 2139   0.760   0.547   5.117
  466SOL     OW 2140   1.392   0.475   5.401
  466SOL    HW1 2141   1.400   0.521   5.485
  466SOL    HW2 2142   1.448   0.398   5.411
  467SOL     OW 2143   0.949   0.886   5.311
  467SOL    HW1 2144   1.004   0.818   5.272
  467SOL    HW2 2145   0.900   0.922   5.237
  468SOL     OW 2146   0.996   0.401   4.957
  468SOL    HW1 2147   0.908   0.419   4.991
  468SOL    HW2 2148   0.981   0.375   4.866
  469SOL     OW 2149   1.054   0.701   4.148
  469SOL    HW1 2150   1.072   0.695   4.241
  469SOL    HW2 2151   0.971   0.655   4.137
  470SOL     OW 2152   0.082   0.832   4.513
  470SOL    HW1 2153   0.151   0.796   4.569
  470SOL    HW2 2154   0.110   0.923   4.498
  471SOL     OW 2155   0.130   1.869   5.307
  471SOL    HW1 2156   0.138   1.832   5.395
  471SOL    HW2 2157   0.038   1.860   5.285
  472SOL     OW 2158   0.895   0.352   3.923
  472SOL    HW1 2159   0.937   0.413   3.863
  472SOL    HW2 2160   0.890   0.270   3.875
  473SOL     OW 2161   1.703   0.574   5.554
  473SOL    HW1 2162   1.668   0.648   5.505
  473SOL    HW2 2163   1.728   0.510   5.487
  474SOL     OW 2164   1.381   1.141   4.262
  474SOL    HW1 2165   1.462   1.133   4.211
  474SOL    HW2 2166   1.326   1.200   4.210
  475SOL     OW 2167   0.564   0.195   4.603
  475SOL    HW1 2168   0.568   0.220   4.695
  475SOL    HW2 2169   0.547   0.277   4.556
  476SOL     OW 2170   0.993   1.439   4.190
  476SOL    HW1 2171   0.967   1.517   4.141
  476SOL    HW2 2172   0.976   1.462   4.282
  477SOL     OW 2173   0.363   1.829   4.599
  477SOL    HW1 2174   0.422   1.754   4.610
  477SOL    HW2 2175   0.419   1.906   4.613
  478SOL     OW 2176   1.801   1.043   4.600
  478SOL    HW1 2177   1.748   1.038   4.520
  478SOL    HW2 2178   1.737   1.053   4.670
  479SOL     OW 2179   1.220   1.537   5.239
  479SOL    HW1 2180   1.207   1.466   5.302
  479SOL    HW2 2181   1.152   1.524   5.173
  480SOL     OW 2182   0.310   0.950   3.967
  480SOL    HW1 2183   0.393   0.972   3.924
  480SOL    HW2 2184   0.299   0.857   3.950
  481SOL     OW 2185   1.480   0.752   4.451
  481SOL    HW1 2186   1.479   0.713   4.538
  481SOL    HW2 2187   1.558   0.807   4.451
  482SOL     OW 2188   0.472   1.262   5.462
  482SOL    HW1 2189   0.446   1.269   5.370
  482SOL    HW2 2190   0.390   1.263   5.510
  483SOL     OW 2191   1.124   1.777   3.952
  483SOL    HW1 2192   1.048   1.739   3.996
  483SOL    HW2 2193   1.146   1.714   3.884
  484SOL     OW 2194   0.202   0.292   5.226
  484SOL    HW1 2195   0.108   0.310   5.226
  484SOL    HW2 2196   0.212   0.212   5.278
  485SOL     OW 2197   1.627   1.383   3.808
  485SOL    HW1 2198   1.581   1.465   3.790
  485SOL    HW2 2199   1.563   1.314   3.791
  486SOL     OW 2200   0.465   1.739   4.038
  486SOL    HW1 2201   0.510   1.794   4.103
  486SOL    HW2 2202   0.536   1.700   3.987
  487SOL     OW 2203   1.446   0.175   4.131
  487SOL    HW1 2204   1.392   0.106   4.092
  487SOL    HW2 2205   1.512   0.128   4.182
  488SOL     OW 2206   0.257   1.790   4.953
  488SOL    HW1 2207   0.298   1.719   5.002
  488SOL    HW2 2208   0.252   1.757   4.863
  489SOL     OW 2209   0.940   1.700   4.620
  489SOL    HW1 2210   1.020   1.651   4.640
  489SOL    HW2 2211   0.899   1.649   4.550
  490SOL     OW 2212   0.399   0.695   4.193
  490SOL    HW1 2213   0.424   0.603   4.210
  490SOL    HW2 2214   0.307   0.700   4.219
  491SOL     OW 2215   1.528   0.226   5.450
  491SOL    HW1 2216   1.520   0.250   5.542
  491SOL    HW2 2217   1.517   0.131   5.449
  492SOL     OW 2218   0.647   0.125   3.828
  492SOL    HW1 2219   0.666   0.039   3.866
  492SOL    HW2 2220   0.587   0.107   3.756
  493SOL     OW 2221   0.773   0.287   5.497
  493SOL    HW1 2222   0.854   0.235   5.497
  493SOL    HW2 2223   0.721   0.249   5.568
  494SOL     OW 2224   0.875   1.523   4.919
  494SOL    HW1 2225   0.858   1.485   4.833
  494SOL    HW2 2226   0.944   1.468   4.956
  495SOL     OW 2227   1.337   0.588   5.156
  495SOL    HW1 2228   1.369   0.559   5.241
  495SOL    HW2 2229   1.373   0.676   5.145
  496SOL     OW 2230   0.818   1.388   4.670
  496SOL    HW1 2231   0.903   1.378   4.628
  496SOL    HW2 2232   0.756   1.395   4.596
  497SOL     OW 2233   0.931   0.513   4.621
  497SOL    HW1 2234   0.906   0.504   4.529
  497SOL    HW2 2235   0.955   0.424   4.649
  498SOL     OW 2236   0.548   0.055   4.211
  498SOL    HW1 2237   0.475   0.062   4.272
  498SOL    HW2 2238   0.548   0.138   4.164
  499SOL     OW 2239   1.428   1.199   3.763
  499SOL    HW1 2240   1.458   1.124   3.815
  499SOL    HW2 2241   1.343   1.222   3.800
  500SOL     OW 2242   0.357   0.029   3.925
  500SOL    HW1 2243   0.355   0.089   3.851
  500SOL    HW2 2244   0.444   0.039   3.962
  501SOL     OW 2245   0.946   0.252   4.181
  501SOL    HW1 2246   0.920   0.290   4.097
  501SOL    HW2 2247   1.042   0.259   4.182
  502SOL     OW 2248   1.079   0.687   5.180
  502SOL    HW1 2249   1.011   0.619   5.187
  502SOL    HW2 2250   1.161   0.638   5.175
  503SOL     OW 2251   1.219   1.572   4.519
  503SOL    HW1 2252   1.231   1.638   4.451
  503SOL    HW2 2253   1.289   1.590   4.582
  504SOL     OW 2254   0.467   1.152   4.455
  504SOL    HW1 2255   0.397   1.126   4.515
  504SOL    HW2 2256   0.430   1.137   4.368
  505SOL     OW 2257   1.255   1.788   4.339
  505SOL    HW1 2258   1.307   1.849   4.286
  505SOL    HW2 2259   1.189   1.843   4.381
  506SOL     OW 2260   1.021   0.537   3.756
  506SOL    HW1 2261   0.978   0.621   3.737
  506SOL    HW2 2262   1.085   0.559   3.824
  507SOL     OW 2263   0.083   0.577   5.116
  507SOL    HW1 2264   0.172   0.558   5.086
  507SOL    HW2 2265   0.093   0.647   5.180
  508SOL     OW 2266   0.571   0.230   4.882
  508SOL    HW1 2267   0.592   0.137   4.891
  508SOL    HW2 2268   0.481   0.238   4.912
  509SOL     OW 2269   0.871   0.460   4.361
  509SOL    HW1 2270   0.822   0.514   4.298
  509SOL    HW2 2271   0.892   0.381   4.312
  510SOL     OW 2272   0.998   0.036   4.507
  510SOL    HW1 2273   0.956   0.069   4.427
  510SOL    HW2 2274   1.010   3.943   4.491
  511SOL     OW 2275   1.442   1.161   4.583
  511SOL    HW1 2276   1.369   1.098   4.578
  511SOL    HW2 2277   1.472   1.170   4.492
  512SOL     OW 2278   1.464   0.610   4.693
  512SOL    HW1 2279   1.407   0.533   4.698
  512SOL    HW2 2280   1.522   0.602   4.769
  513SOL     OW 2281   1.841   0.817   4.115
  513SOL    HW1 2282   1.899   0.766   4.171
  513SOL    HW2 2283   1.816   0.756   4.045
  514SOL     OW 2284   0.487   1.424   3.881
  514SOL    HW1 2285   0.411   1.394   3.931
  514SOL    HW2 2286   0.477   1.384   3.795
  515SOL     OW 2287   1.676   1.259   4.373
  515SOL    HW1 2288   1.771   1.256   4.386
  515SOL    HW2 2289   1.651   1.349   4.394
  516SOL     OW 2290   1.395   0.579   3.792
  516SOL    HW1 2291   1.332   0.559   3.861
  516SOL    HW2 2292   1.481   0.561   3.831
  517SOL     OW 2293   0.555   0.270   4.040
  517SOL    HW1 2294   0.607   0.230   3.970
  517SOL    HW2 2295   0.527   0.354   4.005
  518SOL     OW 2296   1.745   1.233   5.289
  518SOL    HW1 2297   1.833   1.194   5.282
  518SOL    HW2 2298   1.761   1.323   5.318
  519SOL     OW 2299   1.052   1.353   5.058
  519SOL    HW1 2300   0.976   1.321   5.106
  519SOL    HW2 2301   1.127   1.310   5.099
  520SOL     OW 2302   1.603   1.612   5.389
  520SOL    HW1 2303   1.584   1.645   5.301
  520SOL    HW2 2304   1.685   1.564   5.380
  521SOL     OW 2305   1.136   1.214   4.826
  521SOL    HW1 2306   1.073   1.248   4.889
  521SOL    HW2 2307   1.106   1.246   4.742
  522SOL     OW 2308   1.620   1.093   4.799
  522SOL    HW1 2309   1.614   1.157   4.870
  522SOL    HW2 2310   1.547   1.114   4.741
  523SOL     OW 2311   0.911   0.120   5.124
  523SOL    HW1 2312   0.931   0.090   5.036
  523SOL    HW2 2313   0.993   0.161   5.155
  524SOL     OW 2314   0.984   1.115   5.448
  524SOL    HW1 2315   0.893   1.132   5.472
  524SOL    HW2 2316   0.981   1.037   5.393
  525SOL     OW 2317   0.708   1.062   4.095
  525SOL    HW1 2318   0.694   1.043   4.188
  525SOL    HW2 2319   0.784   1.009   4.070
  526SOL     OW 2320   0.424   0.819   4.978
  526SOL    HW1 2321   0.493   0.826   5.045
  526SOL    HW2 2322   0.390   0.731   4.987
  527SOL     OW 2323   1.265   0.374   5.003
  527SOL    HW1 2324   1.298   0.453   5.047
  527SOL    HW2 2325   1.177   0.398   4.974
  528SOL     OW 2326   0.064   1.579   5.067
  528SOL    HW1 2327   0.069   1.612   4.978
  528SOL    HW2 2328   0.155   1.573   5.096
  529SOL     OW 2329   0.364   1.104   4.203
  529SOL    HW1 2330   0.359   1.184   4.150
  529SOL    HW2 2331   0.363   1.033   4.139
  530SOL     OW 2332   0.554   0.529   4.579
  530SOL    HW1 2333   0.566   0.589   4.506
  530SOL    HW2 2334   0.619   0.556   4.644
  531SOL     OW 2335   1.235   1.335   4.111
  531SOL    HW1 2336   1.288   1.409   4.140
  531SOL    HW2 2337   1.148   1.354   4.144
  532SOL     OW 2338   1.284   1.462   4.870
  532SOL    HW1 2339   1.339   1.463   4.949
  532SOL    HW2 2340   1.230   1.384   4.880
  533SOL     OW 2341   1.571   0.636   4.214
  533SOL    HW1 2342   1.526   0.686   4.282
  533SOL    HW2 2343   1.619   0.702   4.164
  534SOL     OW 2344   0.345   1.529   5.041
  534SOL    HW1 2345   0.336   1.476   4.961
  534SOL    HW2 2346   0.440   1.543   5.049
  535SOL     OW 2347   0.422   0.735   5.325
  535SOL    HW1 2348   0.486   0.779   5.270
  535SOL    HW2 2349   0.457   0.647   5.337
  536SOL     OW 2350   1.607   0.782   5.411
  536SOL    HW1 2351   1.522   0.824   5.404
  536SOL    HW2 2352   1.660   0.823   5.342
  537SOL     OW 2353   1.004   0.144   5.506
  537SOL    HW1 2354   1.065   0.211   5.474
  537SOL    HW2 2355   0.996   0.083   5.433
  538SOL     OW 2356   0.488   0.037   5.486
  538SOL    HW1 2357   0.489   0.052   5.391
  538SOL    HW2 2358   0.425   0.100   5.519
  539SOL     OW 2359   0.586   0.876   4.756
  539SOL    HW1 2360   0.621   0.965   4.760
  539SOL    HW2 2361   0.530   0.869   4.833
  540SOL     OW 2362   1.345   0.858   4.746
  540SOL    HW1 2363   1.259   0.842   4.706
  540SOL    HW2 2364   1.392   0.775   4.736
  541SOL     OW 2365   1.197   0.539   3.978
  541SOL    HW1 2366   1.206   0.460   4.031
  541SOL    HW2 2367   1.155   0.603   4.036
  542SOL     OW 2368   0.310   0.211   4.962
  542SOL    HW1 2369   0.266   0.248   5.038
  542SOL    HW2 2370   0.296   0.116   4.970
  543SOL     OW 2371   0.067   1.306   5.004
  543SOL    HW1 2372   0.094   1.261   5.084
  543SOL    HW2 2373   0.055   1.397   5.031
  544SOL     OW 2374   0.722   0.632   4.773
  544SOL    HW1 2375   0.798   0.621   4.716
  544SOL    HW2 2376   0.691   0.721   4.755
  545SOL     OW 2377   1.741   0.959   5.581
  545SOL    HW1 2378   1.696   0.893   5.529
  545SOL    HW2 2379   1.680   0.978   5.653
  546SOL     OW 2380   0.336   0.053   4.386
  546SOL    HW1 2381   0.306   0.144   4.387
  546SOL    HW2 2382   0.303   0.016   4.467
  547SOL     OW 2383   1.611   0.397   4.100
  547SOL    HW1 2384   1.562   0.329   4.147
  547SOL    HW2 2385   1.590   0.478   4.147
  548SOL     OW 2386   1.031   0.760   4.681
  548SOL    HW1 2387   1.021   0.776   4.775
  548SOL    HW2 2388   1.004   0.669   4.669
  549SOL     OW 2389   0.979   1.566   5.446
  549SOL    HW1 2390   0.964   1.609   5.362
  549SOL    HW2 2391   1.024   1.484   5.423
  550SOL     OW 2392   1.848   1.488   5.329
  550SOL    HW1 2393   1.882   1.509   5.242
  550SOL    HW2 2394   1.921   1.508   5.389
  551SOL     OW 2395   0.357   0.923   5.521
  551SOL    HW1 2396   0.434   0.943   5.574
  551SOL    HW2 2397   0.387   0.854   5.461
  552SOL     OW 2398   1.500   0.271   3.855
  552SOL    HW1 2399   1.429   0.208   3.868
  552SOL    HW2 2400   1.512   0.311   3.942
  553SOL     OW 2401   1.285   0.827   3.750
  553SOL    HW1 2402   1.327   0.741   3.755
  553SOL    HW2 2403   1.317   0.866   3.669
  554SOL     OW 2404   1.069   1.340   4.582
  554SOL    HW1 2405   1.074   1.268   4.519
  554SOL    HW2 2406   1.127   1.407   4.546
  555SOL     OW 2407   0.313   0.801   4.674
  555SOL    HW1 2408   0.407   0.817   4.668
  555SOL    HW2 2409   0.306   0.711   4.706
  556SOL     OW 2410   0.340   0.529   4.741
  556SOL    HW1 2411   0.297   0.445   4.723
  556SOL    HW2 2412   0.415   0.530   4.681
  557SOL     OW 2413   1.134   0.379   5.425
  557SOL    HW1 2414   1.086   0.433   5.487
  557SOL    HW2 2415   1.221   0.419   5.420
  558SOL     OW 2416   1.152   0.225   5.207
  558SOL    HW1 2417   1.142   0.278   5.285
  558SOL    HW2 2418   1.181   0.286   5.139
  559SOL     OW 2419   0.002   1.313   3.907
  559SOL    HW1 2420   3.908   1.330   3.909
  559SOL    HW2 2421   0.010   1.220   3.925
  560SOL     OW 2422   0.081   1.798   4.610
  560SOL    HW1 2423   0.092   1.703   4.607
  560SOL    HW2 2424   0.170   1.833   4.616
  561SOL     OW 2425   0.493   1.572   4.632
  561SOL    HW1 2426   0.562   1.633   4.658
  561SOL    HW2 2427   0.538   1.509   4.574
  562SOL     OW 2428   0.971   0.786   4.946
  562SOL    HW1 2429   1.029   0.769   5.020
  562SOL    HW2 2430   0.888   0.745   4.970
  563SOL     OW 2431   0.034   0.583   4.835
  563SOL    HW1 2432   0.088   0.523   4.785
  563SOL    HW2 2433   0.061   0.570   4.926
  564SOL     OW 2434   0.211   0.514   5.446
  564SOL    HW1 2435   0.253   0.470   5.372
  564SOL    HW2 2436   0.170   0.591   5.407
  565SOL     OW 2437   1.380   0.933   5.379
  565SOL    HW1 2438   1.402   1.026   5.375
  565SOL    HW2 2439   1.376   0.905   5.288
  566SOL     OW 2440   0.819   0.572   4.090
  566SOL    HW1 2441   0.826   0.496   4.032
  566SOL    HW2 2442   0.744   0.621   4.057
  567SOL     OW 2443   1.638   0.602   4.903
  567SOL    HW1 2444   1.630   0.541   4.977
  567SOL    HW2 2445   1.727   0.586   4.869
  568SOL     OW 2446   0.303   1.543   5.444
  568SOL    HW1 2447   0.256   1.612   5.492
  568SOL    HW2 2448   0.275   1.462   5.486
  569SOL     OW 2449   0.719   0.449   4.974
  569SOL    HW1 2450   0.666   0.373   4.951
  569SOL    HW2 2451   0.706   0.510   4.901
  570SOL     OW 2452   0.921   1.679   5.196
  570SOL    HW1 2453   0.897   1.638   5.113
  570SOL    HW2 2454   0.915   1.773   5.180
  571SOL     OW 2455   0.450   0.492   3.924
  571SOL    HW1 2456   0.514   0.562   3.942
  571SOL    HW2 2457   0.370   0.539   3.898
  572SOL     OW 2458   0.153   1.133   5.201
  572SOL    HW1 2459   0.153   1.083   5.283
  572SOL    HW2 2460   0.169   1.068   5.133
  573SOL     OW 2461   1.319   1.043   4.943
  573SOL    HW1 2462   1.340   0.980   4.875
  573SOL    HW2 2463   1.254   1.101   4.903
  574SOL     OW 2464   1.318   0.856   4.026
  574SOL    HW1 2465   1.243   0.827   4.079
  574SOL    HW2 2466   1.289   0.844   3.936
  575SOL     OW 2467   1.246   1.736   4.827
  575SOL    HW1 2468   1.330   1.758   4.788
  575SOL    HW2 2469   1.253   1.643   4.848
  576SOL     OW 2470   0.080   1.217   4.751
  576SOL    HW1 2471   0.087   1.242   4.843
  576SOL    HW2 2472   3.988   1.229   4.729
  577SOL     OW 2473   0.681   1.671   5.465
  577SOL    HW1 2474   0.619   1.743   5.452
  577SOL    HW2 2475   0.750   1.687   5.401
  578SOL     OW 2476   1.718   0.122   4.217
  578SOL    HW1 2477   1.794   0.134   4.160
  578SOL    HW2 2478   1.705   0.027   4.221
  579SOL     OW 2479   1.359   1.557   4.199
  579SOL    HW1 2480   1.420   1.589   4.133
  579SOL    HW2 2481   1.324   1.636   4.239
  580SOL     OW 2482   0.178   1.759   5.557
  580SOL    HW1 2483   0.122   1.706   5.613
  580SOL    HW2 2484   0.215   1.825   5.616
  581SOL     OW 2485   1.277   0.930   4.395
  581SOL    HW1 2486   1.351   0.871   4.409
  581SOL    HW2 2487   1.313   1.001   4.341
  582SOL     OW 2488   0.802   1.275   5.147
  582SOL    HW1 2489   0.774   1.318   5.228
  582SOL    HW2 2490   0.730   1.289   5.086
  583SOL     OW 2491   0.669   1.626   3.880
  583SOL    HW1 2492   0.682   1.639   3.786
  583SOL    HW2 2493   0.614   1.548   3.886
  584SOL     OW 2494   1.572   1.716   5.132
  584SOL    HW1 2495   1.632   1.708   5.058
  584SOL    HW2 2496   1.557   1.810   5.142
  585SOL     OW 2497   1.840   0.179   4.687
  585SOL    HW1 2498   1.872   0.120   4.620
  585SOL    HW2 2499   1.750   0.198   4.661
  586SOL     OW 2500   0.277   0.321   4.437
  586SOL    HW1 2501   0.192   0.355   4.409
  586SOL    HW2 2502   0.268   0.308   4.531
  587SOL     OW 2503   1.200   1.600   3.756
  587SOL    HW1 2504   1.191   1.509   3.783
  587SOL    HW2 2505   1.132   1.612   3.689
  588SOL     OW 2506   0.823   1.006   5.100
  588SOL    HW1 2507   0.866   0.999   5.014
  588SOL    HW2 2508   0.819   1.100   5.117
  589SOL     OW 2509   0.915   0.911   4.015
  589SOL    HW1 2510   0.975   0.944   3.948
  589SOL    HW2 2511   0.965   0.843   4.061
  590SOL     OW 2512   1.474   1.621   3.760
  590SOL    HW1 2513   1.380   1.616   3.742
  590SOL    HW2 2514   1.515   1.624   3.673
  591SOL     OW 2515   0.374   1.302   5.216
  591SOL    HW1 2516   0.358   1.382   5.166
  591SOL    HW2 2517   0.297   1.247   5.199
  592SOL     OW 2518   1.611   1.281   5.000
  592SOL    HW1 2519   1.675   1.273   5.071
  592SOL    HW2 2520   1.546   1.343   5.033
  593SOL     OW 2521   1.062   1.111   4.436
  593SOL    HW1 2522   0.989   1.061   4.472
  593SOL    HW2 2523   1.126   1.046   4.409
  594SOL     OW 2524   1.015   0.251   4.696
  594SOL    HW1 2525   1.006   0.200   4.615
  594SOL    HW2 2526   1.014   0.185   4.766
  595SOL     OW 2527   0.608   1.487   4.206
  595SOL    HW1 2528   0.656   1.438   4.140
  595SOL    HW2 2529   0.529   1.519   4.161
  596SOL     OW 2530   1.722   0.395   5.094
  596SOL    HW1 2531   1.795   0.457   5.100
  596SOL    HW2 2532   1.755   0.324   5.040
  597SOL     OW 2533   0.255   1.340   4.018
  597SOL    HW1 2534   0.161   1.343   4.001
  597SOL    HW2 2535   0.266   1.382   4.103
  598SOL     OW 2536   0.111   0.998   5.443
  598SOL    HW1 2537   0.051   0.992   5.517
  598SOL    HW2 2538   0.197   0.981   5.479
  599SOL     OW 2539   0.695   0.261   5.230
  599SOL    HW1 2540   0.762   0.207   5.188
  599SOL    HW2 2541   0.724   0.268   5.321
  600SOL     OW 2542   0.088   0.314   3.746
  600SOL    HW1 2543   3.993   0.315   3.740
  600SOL    HW2 2544   0.116   0.397   3.707
  601SOL     OW 2545   1.423   0.856   5.120
  601SOL    HW1 2546   1.374   0.917   5.066
  601SOL    HW2 2547   1.512   0.858   5.084
  602SOL     OW 2548   0.033   0.177   4.007
  602SOL    HW1 2549   0.037   0.222   3.923
  602SOL    HW2 2550   0.107   0.212   4.056
  603SOL     OW 2551   1.176   1.333   3.840
  603SOL    HW1 2552   1.085   1.303   3.840
  603SOL    HW2 2553   1.201   1.331   3.932
  604SOL     OW 2554   0.623   0.828   5.162
  604SOL    HW1 2555   0.680   0.903   5.146
  604SOL    HW2 2556   0.683   0.754   5.169
  605SOL     OW 2557   1.495   1.789   4.709
  605SOL    HW1 2558   1.515   1.864   4.653
  605SOL    HW2 2559   1.577   1.741   4.715
  606SOL     OW 2560   0.719   0.559   5.429
  606SOL    HW1 2561   0.765   0.619   5.488
  606SOL    HW2 2562   0.740   0.472   5.463
  607SOL     OW 2563   1.472   1.193   5.352
  607SOL    HW1 2564   1.462   1.209   5.445
  607SOL    HW2 2565   1.565   1.210   5.335
  608SOL     OW 2566   0.376   1.746   5.279
  608SOL    HW1 2567   0.289   1.784   5.268
  608SOL    HW2 2568   0.361   1.662   5.324
  609SOL     OW 2569   1.662   0.879   4.979
  609SOL    HW1 2570   1.660   0.794   4.936
  609SOL    HW2 2571   1.653   0.943   4.908
  610SOL     OW 2572   1.221   0.340   4.163
  610SOL    HW1 2573   1.291   0.274   4.156
  610SOL    HW2 2574   1.238   0.383   4.246
  611SOL     OW 2575   0.588   0.736   4.397
  611SOL    HW1 2576   0.627   0.822   4.382
  611SOL    HW2 2577   0.522   0.726   4.329
  612SOL     OW 2578   1.747   0.384   5.367
  612SOL    HW1 2579   1.731   0.390   5.273
  612SOL    HW2 2580   1.689   0.314   5.397
  613SOL     OW 2581   1.747   0.933   5.234
  613SOL    HW1 2582   1.734   1.027   5.248
  613SOL    HW2 2583   1.729   0.919   5.141
  614SOL     OW 2584   0.865   1.364   3.768
  614SOL    HW1 2585   0.826   1.390   3.852
  614SOL    HW2 2586   0.878   1.446   3.721
  615SOL     OW 2587   0.664   1.783   4.663
  615SOL    HW1 2588   0.645   1.875   4.643
  615SOL    HW2 2589   0.759   1.776   4.656
  616SOL     OW 2590   0.870   0.971   4.576
  616SOL    HW1 2591   0.920   0.898   4.613
  616SOL    HW2 2592   0.831   1.014   4.652
  617SOL     OW 2593   1.076   0.989   3.813
  617SOL    HW1 2594   1.055   1.041   3.735
  617SOL    HW2 2595   1.150   0.934   3.786
  618SOL     OW 2596   1.851   1.517   4.559
  618SOL    HW1 2597   1.772   1.554   4.520
  618SOL    HW2 2598   1.836   1.520   4.653
  619SOL     OW 2599   0.230   1.304   5.581
  619SOL    HW1 2600   0.154   1.254   5.550
  619SOL    HW2 2601   0.214   1.317   5.674
  620SOL     OW 2602   0.133   1.289   4.450
  620SOL    HW1 2603   0.145   1.235   4.528
  620SOL    HW2 2604   0.106   1.227   4.382
  621SOL     OW 2605   0.685   1.408   5.356
  621SOL    HW1 2606   0.605   1.365   5.387
  621SOL    HW2 2607   0.681   1.496   5.393
  622SOL     OW 2608   1.809   0.183   4.959
  622SOL    HW1 2609   1.812   0.089   4.977
  622SOL    HW2 2610   1.825   0.191   4.865
  623SOL     OW 2611   0.447   0.439   4.255
  623SOL    HW1 2612   0.474   0.362   4.204
  623SOL    HW2 2613   0.392   0.403   4.324
  624SOL     OW 2614   1.700   1.502   4.818
  624SOL    HW1 2615   1.621   1.474   4.771
  624SOL    HW2 2616   1.714   1.435   4.884
  625SOL     OW 2617   0.336   0.561   5.018
  625SOL    HW1 2618   0.391   0.504   5.072
  625SOL    HW2 2619   0.351   0.531   4.928
  626SOL     OW 2620   0.831   1.581   4.399
  626SOL    HW1 2621   0.813   1.648   4.333
  626SOL    HW2 2622   0.756   1.522   4.394
  627SOL     OW 2623   1.459   0.257   4.834
  627SOL    HW1 2624   1.479   0.171   4.871
  627SOL    HW2 2625   1.404   0.299   4.901
  628SOL     OW 2626   1.000   0.024   4.869
  628SOL    HW1 2627   0.917   0.005   4.826
  628SOL    HW2 2628   1.043   3.940   4.877
  629SOL     OW 2629   0.773   1.333   4.044
  629SOL    HW1 2630   0.748   1.241   4.053
  629SOL    HW2 2631   0.854   1.341   4.095
  630SOL     OW 2632   0.621   1.558   5.012
  630SOL    HW1 2633   0.622   1.641   5.060
  630SOL    HW2 2634   0.709   1.551   4.975
  631SOL     OW 2635   1.306   0.072   3.892
  631SOL    HW1 2636   1.314   3.985   3.854
  631SOL    HW2 2637   1.224   0.069   3.941
  632SOL     OW 2638   1.277   0.456   4.407
  632SOL    HW1 2639   1.232   0.540   4.401
  632SOL    HW2 2640   1.281   0.437   4.501
  633SOL     OW 2641   1.586   0.209   4.593
  633SOL    HW1 2642   1.537   0.235   4.670
  633SOL    HW2 2643   1.588   0.288   4.538
  634SOL     OW 2644   0.047   1.045   3.969
  634SOL    HW1 2645   0.141   1.030   3.961
  634SOL    HW2 2646   0.011   0.958   3.987
  635SOL     OW 2647   0.890   1.661   4.061
  635SOL    HW1 2648   0.814   1.645   4.004
  635SOL    HW2 2649   0.863   1.733   4.118
  636SOL     OW 2650   0.232   0.632   5.701
  636SOL    HW1 2651   0.139   0.635   5.721
  636SOL    HW2 2652   0.235   0.600   5.610
  637SOL     OW 2653   0.223   0.291   6.568
  637SOL    HW1 2654   0.245   0.251   6.652
  637SOL    HW2 2655   0.128   0.284   6.562
  638SOL     OW 2656   0.019   0.384   6.223
  638SOL    HW1 2657   3.928   0.401   6.244
  638SOL    HW2 2658   0.024   0.289   6.210
  639SOL     OW 2659   0.584   1.296   6.787
  639SOL    HW1 2660   0.498   1.297   6.745
  639SOL    HW2 2661   0.598   1.386   6.817
  640SOL     OW 2662   1.135   0.699   6.279
  640SOL    HW1 2663   1.182   0.782   6.266
  640SOL    HW2 2664   1.087   0.711   6.361
  641SOL     OW 2665   1.778   0.618   5.806
  641SOL    HW1 2666   1.750   0.612   5.715
  641SOL    HW2 2667   1.756   0.534   5.844
  642SOL     OW 2668   0.744   1.136   6.630
  642SOL    HW1 2669   0.686   1.174   6.696
  642SOL    HW2 2670   0.783   1.212   6.587
  643SOL     OW 2671   0.875   0.764   7.411
  643SOL    HW1 2672   0.872   0.836   7.475
  643SOL    HW2 2673   0.896   0.808   7.328
  644SOL     OW 2674   0.685   1.000   6.230
  644SOL    HW1 2675   0.751   0.990   6.299
  644SOL    HW2 2676   0.616   1.052   6.271
  645SOL     OW 2677   0.714   1.149   7.408
  645SOL    HW1 2678   0.762   1.226   7.438
  645SOL    HW2 2679   0.635   1.185   7.367
  646SOL     OW 2680   0.352   1.398   6.665
  646SOL    HW1 2681   0.272   1.373   6.620
  646SOL    HW2 2682   0.397   1.457   6.604
  647SOL     OW 2683   1.452   1.487   6.925
  647SOL    HW1 2684   1.494   1.569   6.952
  647SOL    HW2 2685   1.374   1.482   6.979
  648SOL     OW 2686   0.460   0.409   7.077
  648SOL    HW1 2687   0.543   0.362   7.079
  648SOL    HW2 2688   0.393   0.340   7.082
  649SOL     OW 2689   1.612   0.451   6.322
  649SOL    HW1 2690   1.547   0.483   6.259
  649SOL    HW2 2691   1.619   0.521   6.387
  650SOL     OW 2692   0.218   1.722   6.041
  650SOL    HW1 2693   0.241   1.794   6.099
  650SOL    HW2 2694   0.294   1.713   5.983
  651SOL     OW 2695   1.138   1.351   7.287
  651SOL    HW1 2696   1.180   1.345   7.373
  651SOL    HW2 2697   1.087   1.271   7.279
  652SOL     OW 2698   0.256   1.454   6.123
  652SOL    HW1 2699   0.218   1.541   6.110
  652SOL    HW2 2700   0.191   1.408   6.176
  653SOL     OW 2701   0.250   1.064   6.469
  653SOL    HW1 2702   0.270   0.978   6.507
  653SOL    HW2 2703   0.196   1.107   6.536
  654SOL     OW 2704   0.603   1.798   7.005
  654SOL    HW1 2705   0.523   1.777   7.052
  654SOL    HW2 2706   0.628   1.885   7.036
  655SOL     OW 2707   0.573   0.988   5.727
  655SOL    HW1 2708   0.623   1.031   5.658
  655SOL    HW2 2709   0.613   1.018   5.809
  656SOL     OW 2710   1.586   0.143   7.041
  656SOL    HW1 2711   1.618   0.215   6.988
  656SOL    HW2 2712   1.546   0.185   7.117
  657SOL     OW 2713   0.143   0.654   6.155
  657SOL    HW1 2714   0.101   0.569   6.160
  657SOL    HW2 2715   0.104   0.704   6.227
  658SOL     OW 2716   0.043   1.586   5.722
  658SOL    HW1 2717   0.042   1.496   5.753
  658SOL    HW2 2718   3.955   1.619   5.739
  659SOL     OW 2719   1.693   0.928   6.233
  659SOL    HW1 2720   1.773   0.881   6.210
  659SOL    HW2 2721   1.674   0.981   6.156
  660SOL     OW 2722   1.661   1.110   6.007
  660SOL    HW1 2723   1.740   1.081   5.961
  660SOL    HW2 2724   1.685   1.195   6.045
  661SOL     OW 2725   0.147   0.755   7.175
  661SOL    HW1 2726   0.243   0.753   7.167
  661SOL    HW2 2727   0.129   0.841   7.214
  662SOL     OW 2728   0.614   1.389   6.324
  662SOL    HW1 2729   0.569   1.306   6.331
  662SOL    HW2 2730   0.599   1.417   6.233
  663SOL     OW 2731   1.270   1.217   7.003
  663SOL    HW1 2732   1.309   1.154   6.942
  663SOL    HW2 2733   1.328   1.216   7.079
  664SOL     OW 2734   0.824   0.006   6.104
  664SOL    HW1 2735   0.869   0.087   6.078
  664SOL    HW2 2736   0.731   0.029   6.102
  665SOL     OW 2737   0.183   0.947   6.867
  665SOL    HW1 2738   0.272   0.913   6.856
  665SOL    HW2 2739   0.133   0.907   6.796
  666SOL     OW 2740   1.530   1.000   5.785
  666SOL    HW1 2741   1.462   0.943   5.819
  666SOL    HW2 2742   1.573   1.036   5.863
  667SOL     OW 2743   0.349   0.244   7.443
  667SOL    HW1 2744   0.392   0.327   7.424
  667SOL    HW2 2745   0.257   0.267   7.456
  668SOL     OW 2746   0.596   0.715   5.856
  668SOL    HW1 2747   0.600   0.800   5.812
  668SOL    HW2 2748   0.532   0.727   5.926
  669SOL     OW 2749   1.274   0.374   6.527
  669SOL    HW1 2750   1.187   0.335   6.536
  669SOL    HW2 2751   1.332   0.314   6.574
  670SOL     OW 2752   1.599   1.625   5.874
  670SOL    HW1 2753   1.613   1.720   5.878
  670SOL    HW2 2754   1.550   1.612   5.792
  671SOL     OW 2755   0.794   0.614   7.037
  671SOL    HW1 2756   0.765   0.587   7.124
  671SOL    HW2 2757   0.759   0.546   6.979
  672SOL     OW 2758   1.391   0.474   7.263
  672SOL    HW1 2759   1.399   0.521   7.346
  672SOL    HW2 2760   1.448   0.398   7.273
  673SOL     OW 2761   0.949   0.887   7.174
  673SOL    HW1 2762   1.006   0.820   7.135
  673SOL    HW2 2763   0.901   0.923   7.100
  674SOL     OW 2764   0.995   0.401   6.819
  674SOL    HW1 2765   0.908   0.419   6.854
  674SOL    HW2 2766   0.980   0.375   6.728
  675SOL     OW 2767   1.054   0.701   6.010
  675SOL    HW1 2768   1.072   0.694   6.103
  675SOL    HW2 2769   0.971   0.655   5.998
  676SOL     OW 2770   0.083   0.833   6.375
  676SOL    HW1 2771   0.151   0.796   6.431
  676SOL    HW2 2772   0.110   0.923   6.360
  677SOL     OW 2773   0.130   1.868   7.169
  677SOL    HW1 2774   0.139   1.832   7.257
  677SOL    HW2 2775   0.037   1.859   7.148
  678SOL     OW 2776   0.895   0.352   5.786
  678SOL    HW1 2777   0.937   0.413   5.725
  678SOL    HW2 2778   0.889   0.270   5.737
  679SOL     OW 2779   1.704   0.575   7.416
  679SOL    HW1 2780   1.669   0.650   7.368
  679SOL    HW2 2781   1.728   0.512   7.349
  680SOL     OW 2782   1.393   1.149   6.134
  680SOL    HW1 2783   1.471   1.135   6.080
  680SOL    HW2 2784   1.338   1.208   6.083
  681SOL     OW 2785   0.564   0.195   6.465
  681SOL    HW1 2786   0.568   0.220   6.557
  681SOL    HW2 2787   0.547   0.277   6.418
  682SOL     OW 2788   1.006   1.449   6.059
  682SOL    HW1 2789   0.973   1.522   6.006
  682SOL    HW2 2790   0.971   1.465   6.146
  683SOL     OW 2791   0.363   1.829   6.461
  683SOL    HW1 2792   0.422   1.755   6.472
  683SOL    HW2 2793   0.417   1.906   6.476
  684SOL     OW 2794   1.814   1.027   6.470
  684SOL    HW1 2795   1.755   1.011   6.396
  684SOL    HW2 2796   1.756   1.054   6.542
  685SOL     OW 2797   1.216   1.503   7.064
  685SOL    HW1 2798   1.203   1.450   7.142
  685SOL    HW2 2799   1.143   1.479   7.006
  686SOL     OW 2800   0.310   0.950   5.829
  686SOL    HW1 2801   0.393   0.972   5.786
  686SOL    HW2 2802   0.298   0.857   5.812
  687SOL     OW 2803   1.483   0.756   6.312
  687SOL    HW1 2804   1.477   0.714   6.398
  687SOL    HW2 2805   1.560   0.813   6.319
  688SOL     OW 2806   0.471   1.262   7.325
  688SOL    HW1 2807   0.446   1.269   7.232
  688SOL    HW2 2808   0.388   1.264   7.372
  689SOL     OW 2809   1.122   1.784   5.817
  689SOL    HW1 2810   1.047   1.743   5.860
  689SOL    HW2 2811   1.148   1.722   5.749
  690SOL     OW 2812   0.202   0.291   7.087
  690SOL    HW1 2813   0.109   0.310   7.088
  690SOL    HW2 2814   0.212   0.212   7.140
  691SOL     OW 2815   1.629   1.380   5.673
  691SOL    HW1 2816   1.585   1.463   5.657
  691SOL    HW2 2817   1.562   1.314   5.654
  692SOL     OW 2818   0.464   1.739   5.899
  692SOL    HW1 2819   0.508   1.794   5.963
  692SOL    HW2 2820   0.536   1.700   5.848
  693SOL     OW 2821   1.446   0.174   5.993
  693SOL    HW1 2822   1.392   0.106   5.953
  693SOL    HW2 2823   1.511   0.127   6.044
  694SOL     OW 2824   0.255   1.790   6.815
  694SOL    HW1 2825   0.298   1.721   6.866
  694SOL    HW2 2826   0.253   1.756   6.726
  695SOL     OW 2827   0.940   1.694   6.487
  695SOL    HW1 2828   1.003   1.633   6.526
  695SOL    HW2 2829   0.901   1.645   6.415
  696SOL     OW 2830   0.399   0.695   6.055
  696SOL    HW1 2831   0.424   0.603   6.072
  696SOL    HW2 2832   0.307   0.700   6.081
  697SOL     OW 2833   1.529   0.226   7.312
  697SOL    HW1 2834   1.521   0.250   7.404
  697SOL    HW2 2835   1.517   0.131   7.311
  698SOL     OW 2836   0.647   0.125   5.690
  698SOL    HW1 2837   0.666   0.039   5.728
  698SOL    HW2 2838   0.587   0.107   5.618
  699SOL     OW 2839   0.774   0.287   7.359
  699SOL    HW1 2840   0.854   0.235   7.359
  699SOL    HW2 2841   0.721   0.249   7.430
  700SOL     OW 2842   0.879   1.523   6.777
  700SOL    HW1 2843   0.857   1.482   6.694
  700SOL    HW2 2844   0.945   1.466   6.816
  701SOL     OW 2845   1.337   0.588   7.017
  701SOL    HW1 2846   1.369   0.560   7.103
  701SOL    HW2 2847   1.373   0.675   7.005
  702SOL     OW 2848   0.818   1.390   6.530
  702SOL    HW1 2849   0.902   1.378   6.486
  702SOL    HW2 2850   0.754   1.394   6.459
  703SOL     OW 2851   0.931   0.513   6.483
  703SOL    HW1 2852   0.906   0.504   6.391
  703SOL    HW2 2853   0.955   0.425   6.511
  704SOL     OW 2854   0.548   0.055   6.073
  704SOL    HW1 2855   0.475   0.062   6.134
  704SOL    HW2 2856   0.548   0.138   6.026
  705SOL     OW 2857   1.427   1.200   5.624
  705SOL    HW1 2858   1.457   1.125   5.675
  705SOL    HW2 2859   1.342   1.222   5.661
  706SOL     OW 2860   0.357   0.029   5.787
  706SOL    HW1 2861   0.354   0.089   5.712
  706SOL    HW2 2862   0.445   0.039   5.823
  707SOL     OW 2863   0.946   0.252   6.043
  707SOL    HW1 2864   0.920   0.290   5.959
  707SOL    HW2 2865   1.042   0.259   6.044
  708SOL     OW 2866   1.079   0.688   7.042
  708SOL    HW1 2867   1.012   0.620   7.049
  708SOL    HW2 2868   1.162   0.639   7.038
  709SOL     OW 2869   0.467   1.153   6.317
  709SOL    HW1 2870   0.397   1.126   6.377
  709SOL    HW2 2871   0.431   1.138   6.230
  710SOL     OW 2872   1.021   0.538   5.618
  710SOL    HW1 2873   0.978   0.621   5.598
  710SOL    HW2 2874   1.085   0.559   5.686
  711SOL     OW 2875   0.083   0.577   6.978
  711SOL    HW1 2876   0.172   0.558   6.948
  711SOL    HW2 2877   0.093   0.647   7.042
  712SOL     OW 2878   0.571   0.230   6.744
  712SOL    HW1 2879   0.592   0.137   6.753
  712SOL    HW2 2880   0.481   0.238   6.774
  713SOL     OW 2881   0.871   0.460   6.223
  713SOL    HW1 2882   0.822   0.514   6.161
  713SOL    HW2 2883   0.892   0.381   6.174
  714SOL     OW 2884   0.998   0.036   6.369
  714SOL    HW1 2885   0.956   0.069   6.289
  714SOL    HW2 2886   1.010   3.942   6.353
  715SOL     OW 2887   1.441   1.150   6.435
  715SOL    HW1 2888   1.381   1.080   6.459
  715SOL    HW2 2889   1.429   1.160   6.340
  716SOL     OW 2890   1.463   0.609   6.552
  716SOL    HW1 2891   1.405   0.533   6.559
  716SOL    HW2 2892   1.521   0.602   6.628
  717SOL     OW 2893   1.836   0.815   5.979
  717SOL    HW1 2894   1.897   0.765   6.034
  717SOL    HW2 2895   1.813   0.755   5.908
  718SOL     OW 2896   0.487   1.424   5.744
  718SOL    HW1 2897   0.411   1.394   5.793
  718SOL    HW2 2898   0.477   1.385   5.657
  719SOL     OW 2899   1.395   0.579   5.654
  719SOL    HW1 2900   1.333   0.558   5.723
  719SOL    HW2 2901   1.481   0.560   5.692
  720SOL     OW 2902   0.555   0.270   5.903
  720SOL    HW1 2903   0.607   0.230   5.832
  720SOL    HW2 2904   0.527   0.354   5.867
  721SOL     OW 2905   1.042   1.337   6.913
  721SOL    HW1 2906   0.967   1.308   6.965
  721SOL    HW2 2907   1.118   1.295   6.954
  722SOL     OW 2908   1.127   1.200   6.689
  722SOL    HW1 2909   1.081   1.246   6.760
  722SOL    HW2 2910   1.091   1.237   6.609
  723SOL     OW 2911   1.624   1.096   6.658
  723SOL    HW1 2912   1.619   1.156   6.732
  723SOL    HW2 2913   1.559   1.130   6.596
  724SOL     OW 2914   0.912   0.120   6.987
  724SOL    HW1 2915   0.931   0.090   6.898
  724SOL    HW2 2916   0.993   0.161   7.017
  725SOL     OW 2917   0.986   1.119   7.309
  725SOL    HW1 2918   0.895   1.135   7.333
  725SOL    HW2 2919   0.984   1.040   7.255
  726SOL     OW 2920   0.708   1.062   5.957
  726SOL    HW1 2921   0.694   1.043   6.049
  726SOL    HW2 2922   0.784   1.009   5.932
  727SOL     OW 2923   0.424   0.819   6.840
  727SOL    HW1 2924   0.493   0.826   6.907
  727SOL    HW2 2925   0.390   0.730   6.849
  728SOL     OW 2926   1.265   0.374   6.865
  728SOL    HW1 2927   1.298   0.453   6.909
  728SOL    HW2 2928   1.177   0.398   6.836
  729SOL     OW 2929   0.065   1.578   6.930
  729SOL    HW1 2930   0.070   1.615   6.842
  729SOL    HW2 2931   0.156   1.572   6.960
  730SOL     OW 2932   0.365   1.105   6.065
  730SOL    HW1 2933   0.358   1.184   6.012
  730SOL    HW2 2934   0.364   1.033   6.001
  731SOL     OW 2935   0.553   0.528   6.441
  731SOL    HW1 2936   0.566   0.589   6.367
  731SOL    HW2 2937   0.619   0.556   6.505
  732SOL     OW 2938   1.251   1.353   5.976
  732SOL    HW1 2939   1.309   1.426   5.996
  732SOL    HW2 2940   1.166   1.379   6.011
  733SOL     OW 2941   1.260   1.460   6.714
  733SOL    HW1 2942   1.324   1.483   6.781
  733SOL    HW2 2943   1.243   1.366   6.728
  734SOL     OW 2944   1.571   0.636   6.077
  734SOL    HW1 2945   1.528   0.686   6.146
  734SOL    HW2 2946   1.621   0.701   6.027
  735SOL     OW 2947   0.346   1.528   6.903
  735SOL    HW1 2948   0.337   1.477   6.823
  735SOL    HW2 2949   0.441   1.543   6.911
  736SOL     OW 2950   0.422   0.735   7.187
  736SOL    HW1 2951   0.486   0.780   7.132
  736SOL    HW2 2952   0.458   0.647   7.199
  737SOL     OW 2953   1.608   0.785   7.277
  737SOL    HW1 2954   1.521   0.823   7.270
  737SOL    HW2 2955   1.658   0.826   7.207
  738SOL     OW 2956   1.005   0.143   7.368
  738SOL    HW1 2957   1.065   0.211   7.336
  738SOL    HW2 2958   0.996   0.083   7.294
  739SOL     OW 2959   0.488   0.037   7.348
  739SOL    HW1 2960   0.490   0.052   7.253
  739SOL    HW2 2961   0.425   0.100   7.381
  740SOL     OW 2962   0.586   0.877   6.618
  740SOL    HW1 2963   0.621   0.966   6.623
  740SOL    HW2 2964   0.530   0.869   6.696
  741SOL     OW 2965   1.343   0.859   6.595
  741SOL    HW1 2966   1.254   0.837   6.569
  741SOL    HW2 2967   1.390   0.776   6.592
  742SOL     OW 2968   1.197   0.540   5.840
  742SOL    HW1 2969   1.206   0.460   5.893
  742SOL    HW2 2970   1.154   0.602   5.898
  743SOL     OW 2971   0.309   0.211   6.823
  743SOL    HW1 2972   0.266   0.248   6.900
  743SOL    HW2 2973   0.296   0.116   6.831
  744SOL     OW 2974   0.064   1.306   6.866
  744SOL    HW1 2975   0.093   1.261   6.946
  744SOL    HW2 2976   0.055   1.397   6.892
  745SOL     OW 2977   0.721   0.632   6.634
  745SOL    HW1 2978   0.798   0.621   6.578
  745SOL    HW2 2979   0.691   0.721   6.617
  746SOL     OW 2980   1.736   0.971   7.444
  746SOL    HW1 2981   1.694   0.905   7.390
  746SOL    HW2 2982   1.675   0.985   7.517
  747SOL     OW 2983   0.336   0.053   6.248
  747SOL    HW1 2984   0.306   0.144   6.249
  747SOL    HW2 2985   0.303   0.016   6.329
  748SOL     OW 2986   1.610   0.397   5.962
  748SOL    HW1 2987   1.562   0.329   6.009
  748SOL    HW2 2988   1.590   0.478   6.009
  749SOL     OW 2989   1.033   0.759   6.543
  749SOL    HW1 2990   1.021   0.776   6.637
  749SOL    HW2 2991   1.005   0.668   6.531
  750SOL     OW 2992   0.969   1.569   7.302
  750SOL    HW1 2993   0.960   1.607   7.215
  750SOL    HW2 2994   1.031   1.498   7.291
  751SOL     OW 2995   1.984   1.530   7.144
  751SOL    HW1 2996   1.940   1.482   7.075
  751SOL    HW2 2997   1.967   1.480   7.224
  752SOL     OW 2998   0.357   0.922   7.383
  752SOL    HW1 2999   0.434   0.944   7.436
  752SOL    HW2 3000   0.387   0.854   7.323
  753SOL     OW 3001   1.500   0.272   5.718
  753SOL    HW1 3002   1.429   0.209   5.730
  753SOL    HW2 3003   1.512   0.311   5.804
  754SOL     OW 3004   1.285   0.827   5.613
  754SOL    HW1 3005   1.328   0.741   5.617
  754SOL    HW2 3006   1.318   0.866   5.532
  755SOL     OW 3007   1.065   1.335   6.434
  755SOL    HW1 3008   1.062   1.259   6.376
  755SOL    HW2 3009   1.156   1.364   6.432
  756SOL     OW 3010   0.314   0.801   6.536
  756SOL    HW1 3011   0.408   0.817   6.531
  756SOL    HW2 3012   0.306   0.711   6.568
  757SOL     OW 3013   0.340   0.529   6.603
  757SOL    HW1 3014   0.297   0.445   6.585
  757SOL    HW2 3015   0.415   0.530   6.543
  758SOL     OW 3016   1.134   0.378   7.288
  758SOL    HW1 3017   1.085   0.433   7.349
  758SOL    HW2 3018   1.220   0.419   7.282
  759SOL     OW 3019   1.152   0.225   7.069
  759SOL    HW1 3020   1.142   0.279   7.148
  759SOL    HW2 3021   1.181   0.287   7.001
  760SOL     OW 3022   0.002   1.313   5.769
  760SOL    HW1 3023   3.908   1.330   5.771
  760SOL    HW2 3024   0.010   1.219   5.787
  761SOL     OW 3025   0.080   1.798   6.472
  761SOL    HW1 3026   0.092   1.703   6.470
  761SOL    HW2 3027   0.169   1.833   6.479
  762SOL     OW 3028   0.493   1.572   6.494
  762SOL    HW1 3029   0.562   1.633   6.520
  762SOL    HW2 3030   0.538   1.509   6.437
  763SOL     OW 3031   0.972   0.785   6.807
  763SOL    HW1 3032   1.030   0.769   6.881
  763SOL    HW2 3033   0.888   0.747   6.834
  764SOL     OW 3034   0.034   0.583   6.698
  764SOL    HW1 3035   0.088   0.523   6.647
  764SOL    HW2 3036   0.061   0.570   6.788
  765SOL     OW 3037   0.211   0.514   7.308
  765SOL    HW1 3038   0.255   0.471   7.234
  765SOL    HW2 3039   0.171   0.592   7.269
  766SOL     OW 3040   1.376   0.925   7.239
  766SOL    HW1 3041   1.395   1.019   7.236
  766SOL    HW2 3042   1.375   0.897   7.148
  767SOL     OW 3043   0.819   0.572   5.952
  767SOL    HW1 3044   0.826   0.497   5.894
  767SOL    HW2 3045   0.744   0.621   5.919
  768SOL     OW 3046   1.637   0.600   6.762
  768SOL    HW1 3047   1.628   0.543   6.838
  768SOL    HW2 3048   1.726   0.584   6.730
  769SOL     OW 3049   0.299   1.542   7.304
  769SOL    HW1 3050   0.256   1.612   7.353
  769SOL    HW2 3051   0.274   1.461   7.348
  770SOL     OW 3052   0.719   0.449   6.836
  770SOL    HW1 3053   0.665   0.373   6.813
  770SOL    HW2 3054   0.705   0.510   6.763
  771SOL     OW 3055   0.914   1.687   7.058
  771SOL    HW1 3056   0.900   1.642   6.975
  771SOL    HW2 3057   0.907   1.780   7.037
  772SOL     OW 3058   0.450   0.492   5.786
  772SOL    HW1 3059   0.514   0.561   5.804
  772SOL    HW2 3060   0.370   0.539   5.761
  773SOL     OW 3061   0.152   1.133   7.063
  773SOL    HW1 3062   0.153   1.083   7.144
  773SOL    HW2 3063   0.168   1.067   6.995
  774SOL     OW 3064   1.318   1.035   6.801
  774SOL    HW1 3065   1.344   0.977   6.730
  774SOL    HW2 3066   1.250   1.091   6.764
  775SOL     OW 3067   1.316   0.859   5.889
  775SOL    HW1 3068   1.243   0.827   5.942
  775SOL    HW2 3069   1.288   0.845   5.799
  776SOL     OW 3070   0.080   1.217   6.613
  776SOL    HW1 3071   0.086   1.243   6.705
  776SOL    HW2 3072   3.988   1.229   6.591
  777SOL     OW 3073   0.680   1.669   7.330
  777SOL    HW1 3074   0.624   1.744   7.312
  777SOL    HW2 3075   0.756   1.680   7.272
  778SOL     OW 3076   1.718   0.122   6.079
  778SOL    HW1 3077   1.795   0.134   6.022
  778SOL    HW2 3078   1.706   0.027   6.083
  779SOL     OW 3079   0.179   1.759   7.419
  779SOL    HW1 3080   0.123   1.707   7.476
  779SOL    HW2 3081   0.218   1.824   7.477
  780SOL     OW 3082   1.278   0.929   6.251
  780SOL    HW1 3083   1.352   0.871   6.268
  780SOL    HW2 3084   1.316   1.002   6.201
  781SOL     OW 3085   0.796   1.271   7.012
  781SOL    HW1 3086   0.770   1.316   7.093
  781SOL    HW2 3087   0.723   1.285   6.952
  782SOL     OW 3088   0.670   1.625   5.742
  782SOL    HW1 3089   0.682   1.638   5.648
  782SOL    HW2 3090   0.614   1.548   5.748
  783SOL     OW 3091   1.588   1.706   6.981
  783SOL    HW1 3092   1.671   1.716   6.934
  783SOL    HW2 3093   1.557   1.796   6.994
  784SOL     OW 3094   1.840   0.179   6.549
  784SOL    HW1 3095   1.872   0.120   6.481
  784SOL    HW2 3096   1.750   0.198   6.523
  785SOL     OW 3097   0.277   0.321   6.299
  785SOL    HW1 3098   0.192   0.355   6.271
  785SOL    HW2 3099   0.268   0.308   6.393
  786SOL     OW 3100   1.201   1.604   5.622
  786SOL    HW1 3101   1.192   1.512   5.647
  786SOL    HW2 3102   1.135   1.616   5.553
  787SOL     OW 3103   0.824   1.004   6.960
  787SOL    HW1 3104   0.870   1.000   6.877
  787SOL    HW2 3105   0.818   1.098   6.980
  788SOL     OW 3106   0.916   0.912   5.878
  788SOL    HW1 3107   0.976   0.944   5.811
  788SOL    HW2 3108   0.966   0.844   5.923
  789SOL     OW 3109   1.478   1.625   5.630
  789SOL    HW1 3110   1.384   1.619   5.613
  789SOL    HW2 3111   1.518   1.628   5.543
  790SOL     OW 3112   0.374   1.301   7.078
  790SOL    HW1 3113   0.358   1.382   7.030
  790SOL    HW2 3114   0.296   1.247   7.060
  791SOL     OW 3115   1.618   1.267   6.875
  791SOL    HW1 3116   1.701   1.301   6.909
  791SOL    HW2 3117   1.554   1.333   6.898
  792SOL     OW 3118   1.061   1.105   6.296
  792SOL    HW1 3119   0.988   1.054   6.333
  792SOL    HW2 3120   1.126   1.040   6.271
  793SOL     OW 3121   1.015   0.251   6.558
  793SOL    HW1 3122   1.006   0.200   6.477
  793SOL    HW2 3123   1.014   0.186   6.628
  794SOL     OW 3124   0.608   1.489   6.069
  794SOL    HW1 3125   0.657   1.439   6.003
  794SOL    HW2 3126   0.529   1.518   6.024
  795SOL     OW 3127   1.722   0.394   6.957
  795SOL    HW1 3128   1.794   0.457   6.962
  795SOL    HW2 3129   1.755   0.323   6.902
  796SOL     OW 3130   0.256   1.340   5.881
  796SOL    HW1 3131   0.162   1.342   5.863
  796SOL    HW2 3132   0.266   1.382   5.966
  797SOL     OW 3133   0.111   0.998   7.305
  797SOL    HW1 3134   0.052   0.992   7.380
  797SOL    HW2 3135   0.198   0.981   7.341
  798SOL     OW 3136   0.695   0.261   7.092
  798SOL    HW1 3137   0.762   0.207   7.050
  798SOL    HW2 3138   0.724   0.269   7.183
  799SOL     OW 3139   0.088   0.313   5.608
  799SOL    HW1 3140   3.993   0.315   5.602
  799SOL    HW2 3141   0.116   0.397   5.569
  800SOL     OW 3142   1.424   0.852   6.979
  800SOL    HW1 3143   1.376   0.914   6.925
  800SOL    HW2 3144   1.515   0.859   6.950
  801SOL     OW 3145   0.033   0.177   5.869
  801SOL    HW1 3146   0.037   0.222   5.785
  801SOL    HW2 3147   0.107   0.212   5.919
  802SOL     OW 3148   1.177   1.334   5.704
  802SOL    HW1 3149   1.086   1.304   5.704
  802SOL    HW2 3150   1.203   1.334   5.796
  803SOL     OW 3151   0.623   0.828   7.024
  803SOL    HW1 3152   0.680   0.903   7.008
  803SOL    HW2 3153   0.683   0.753   7.031
  804SOL     OW 3154   0.718   0.560   7.291
  804SOL    HW1 3155   0.764   0.621   7.349
  804SOL    HW2 3156   0.741   0.473   7.326
  805SOL     OW 3157   1.450   1.189   7.211
  805SOL    HW1 3158   1.436   1.199   7.305
  805SOL    HW2 3159   1.530   1.238   7.193
  806SOL     OW 3160   0.376   1.745   7.141
  806SOL    HW1 3161   0.289   1.784   7.130
  806SOL    HW2 3162   0.360   1.662   7.185
  807SOL     OW 3163   1.664   0.881   6.837
  807SOL    HW1 3164   1.659   0.797   6.791
  807SOL    HW2 3165   1.653   0.947   6.768
  808SOL     OW 3166   1.222   0.340   6.025
  808SOL    HW1 3167   1.291   0.274   6.018
  808SOL    HW2 3168   1.238   0.383   6.109
  809SOL     OW 3169   0.589   0.736   6.259
  809SOL    HW1 3170   0.627   0.822   6.244
  809SOL    HW2 3171   0.523   0.726   6.190
  810SOL     OW 3172   1.747   0.383   7.230
  810SOL    HW1 3173   1.732   0.391   7.136
  810SOL    HW2 3174   1.688   0.314   7.259
  811SOL     OW 3175   1.738   0.931   7.095
  811SOL    HW1 3176   1.774   1.020   7.104
  811SOL    HW2 3177   1.724   0.921   7.000
  812SOL     OW 3178   0.865   1.365   5.630
  812SOL    HW1 3179   0.826   1.395   5.712
  812SOL    HW2 3180   0.880   1.445   5.580
  813SOL     OW 3181   0.663   1.784   6.521
  813SOL    HW1 3182   0.643   1.876   6.504
  813SOL    HW2 3183   0.758   1.780   6.517
  814SOL     OW 3184   0.869   0.969   6.439
  814SOL    HW1 3185   0.920   0.897   6.477
  814SOL    HW2 3186   0.829   1.013   6.515
  815SOL     OW 3187   1.076   0.990   5.676
  815SOL    HW1 3188   1.055   1.041   5.598
  815SOL    HW2 3189   1.150   0.935   5.649
  816SOL     OW 3190   0.229   1.304   7.443
  816SOL    HW1 3191   0.153   1.254   7.415
  816SOL    HW2 3192   0.216   1.317   7.537
  817SOL     OW 3193   0.133   1.289   6.312
  817SOL    HW1 3194   0.146   1.235   6.390
  817SOL    HW2 3195   0.107   1.227   6.244
  818SOL     OW 3196   0.680   1.409   7.216
  818SOL    HW1 3197   0.601   1.367   7.251
  818SOL    HW2 3198   0.680   1.496   7.256
  819SOL     OW 3199   1.810   0.183   6.821
  819SOL    HW1 3200   1.813   0.089   6.839
  819SOL    HW2 3201   1.826   0.191   6.727
  820SOL     OW 3202   0.447   0.439   6.117
  820SOL    HW1 3203   0.474   0.362   6.066
  820SOL    HW2 3204   0.392   0.403   6.187
  821SOL     OW 3205   0.336   0.561   6.880
  821SOL    HW1 3206   0.391   0.504   6.934
  821SOL    HW2 3207   0.351   0.531   6.790
  822SOL     OW 3208   0.834   1.579   6.260
  822SOL    HW1 3209   0.812   1.648   6.197
  822SOL    HW2 3210   0.758   1.521   6.259
  823SOL     OW 3211   1.459   0.257   6.696
  823SOL    HW1 3212   1.479   0.171   6.733
  823SOL    HW2 3213   1.404   0.300   6.762
  824SOL     OW 3214   1.000   0.024   6.731
  824SOL    HW1 3215   0.917   0.005   6.688
  824SOL    HW2 3216   1.043   3.939   6.739
  825SOL     OW 3217   0.774   1.333   5.909
  825SOL    HW1 3218   0.745   1.242   5.915
  825SOL    HW2 3219   0.858   1.334   5.956
  826SOL     OW 3220   0.623   1.558   6.872
  826SOL    HW1 3221   0.622   1.641   6.920
  826SOL    HW2 3222   0.712   1.551   6.837
  827SOL     OW 3223   1.306   0.073   5.755
  827SOL    HW1 3224   1.315   3.985   5.716
  827SOL    HW2 3225   1.223   0.069   5.803
  828SOL     OW 3226   1.277   0.456   6.269
  828SOL    HW1 3227   1.232   0.540   6.263
  828SOL    HW2 3228   1.281   0.437   6.363
  829SOL     OW 3229   1.586   0.209   6.455
  829SOL    HW1 3230   1.537   0.235   6.533
  829SOL    HW2 3231   1.588   0.287   6.400
  830SOL     OW 3232   0.047   1.045   5.832
  830SOL    HW1 3233   0.141   1.030   5.824
  830SOL    HW2 3234   0.010   0.958   5.848
  831SOL     OW 3235   0.890   1.661   5.924
  831SOL    HW1 3236   0.815   1.643   5.866
  831SOL    HW2 3237   0.860   1.730   5.982
  832SOL     OW 3238   0.232   0.631   7.563
  832SOL    HW1 3239   0.138   0.635   7.583
  832SOL    HW2 3240   0.235   0.600   7.472
  833SOL     OW 3241   0.223   0.291   8.430
  833SOL    HW1 3242   0.245   0.251   8.513
  833SOL    HW2 3243   0.128   0.284   8.424
  834SOL     OW 3244   0.019   0.384   8.085
  834SOL    HW1 3245   3.928   0.401   8.107
  834SOL    HW2 3246   0.024   0.289   8.072
  835SOL     OW 3247   0.585   1.295   8.649
  835SOL    HW1 3248   0.499   1.295   8.607
  835SOL    HW2 3249   0.597   1.386   8.679
  836SOL     OW 3250   1.538   1.499   8.161
  836SOL    HW1 3251   1.515   1.473   8.251
  836SOL    HW2 3252   1.457   1.490   8.112
  837SOL     OW 3253   1.135   0.699   8.141
  837SOL    HW1 3254   1.182   0.782   8.129
  837SOL    HW2 3255   1.086   0.710   8.223
  838SOL     OW 3256   1.779   0.618   7.669
  838SOL    HW1 3257   1.751   0.612   7.577
  838SOL    HW2 3258   1.755   0.533   7.706
  839SOL     OW 3259   0.747   1.136   8.495
  839SOL    HW1 3260   0.688   1.174   8.560
  839SOL    HW2 3261   0.784   1.212   8.449
  840SOL     OW 3262   0.876   0.764   9.274
  840SOL    HW1 3263   0.866   0.835   9.337
  840SOL    HW2 3264   0.897   0.808   9.192
  841SOL     OW 3265   0.685   0.999   8.093
  841SOL    HW1 3266   0.751   0.990   8.161
  841SOL    HW2 3267   0.616   1.052   8.133
  842SOL     OW 3268   0.714   1.148   9.269
  842SOL    HW1 3269   0.762   1.225   9.299
  842SOL    HW2 3270   0.634   1.184   9.229
  843SOL     OW 3271   0.353   1.398   8.527
  843SOL    HW1 3272   0.272   1.374   8.481
  843SOL    HW2 3273   0.398   1.457   8.466
  844SOL     OW 3274   1.447   1.487   8.812
  844SOL    HW1 3275   1.492   1.571   8.819
  844SOL    HW2 3276   1.377   1.492   8.877
  845SOL     OW 3277   0.460   0.409   8.939
  845SOL    HW1 3278   0.543   0.362   8.941
  845SOL    HW2 3279   0.393   0.341   8.944
  846SOL     OW 3280   1.611   0.451   8.184
  846SOL    HW1 3281   1.547   0.483   8.121
  846SOL    HW2 3282   1.620   0.522   8.247
  847SOL     OW 3283   0.219   1.721   7.904
  847SOL    HW1 3284   0.241   1.794   7.961
  847SOL    HW2 3285   0.294   1.712   7.846
  848SOL     OW 3286   1.137   1.342   9.143
  848SOL    HW1 3287   1.178   1.335   9.229
  848SOL    HW2 3288   1.085   1.262   9.134
  849SOL     OW 3289   0.253   1.454   7.985
  849SOL    HW1 3290   0.218   1.542   7.971
  849SOL    HW2 3291   0.186   1.409   8.037
  850SOL     OW 3292   0.249   1.064   8.331
  850SOL    HW1 3293   0.269   0.978   8.368
  850SOL    HW2 3294   0.196   1.107   8.398
  851SOL     OW 3295   0.608   1.795   8.873
  851SOL    HW1 3296   0.525   1.777   8.917
  851SOL    HW2 3297   0.631   1.883   8.900
  852SOL     OW 3298   0.572   0.988   7.588
  852SOL    HW1 3299   0.623   1.031   7.520
  852SOL    HW2 3300   0.613   1.017   7.670
  853SOL     OW 3301   1.586   0.143   8.903
  853SOL    HW1 3302   1.618   0.215   8.849
  853SOL    HW2 3303   1.546   0.185   8.979
  854SOL     OW 3304   0.143   0.654   8.017
  854SOL    HW1 3305   0.101   0.568   8.022
  854SOL    HW2 3306   0.104   0.704   8.089
  855SOL     OW 3307   0.044   1.587   7.583
  855SOL    HW1 3308   0.042   1.496   7.614
  855SOL    HW2 3309   3.955   1.620   7.601
  856SOL     OW 3310   1.688   0.920   8.090
  856SOL    HW1 3311   1.771   0.877   8.069
  856SOL    HW2 3312   1.668   0.972   8.012
  857SOL     OW 3313   1.650   1.107   7.874
  857SOL    HW1 3314   1.734   1.105   7.829
  857SOL    HW2 3315   1.663   1.169   7.946
  858SOL     OW 3316   0.147   0.755   9.037
  858SOL    HW1 3317   0.243   0.753   9.029
  858SOL    HW2 3318   0.128   0.841   9.075
  859SOL     OW 3319   0.612   1.388   8.187
  859SOL    HW1 3320   0.567   1.304   8.194
  859SOL    HW2 3321   0.598   1.416   8.096
  860SOL     OW 3322   1.281   1.231   8.871
  860SOL    HW1 3323   1.312   1.165   8.810
  860SOL    HW2 3324   1.342   1.228   8.945
  861SOL     OW 3325   0.824   0.007   7.967
  861SOL    HW1 3326   0.869   0.087   7.940
  861SOL    HW2 3327   0.731   0.029   7.964
  862SOL     OW 3328   0.183   0.947   8.729
  862SOL    HW1 3329   0.271   0.912   8.718
  862SOL    HW2 3330   0.132   0.908   8.658
  863SOL     OW 3331   1.531   1.001   7.648
  863SOL    HW1 3332   1.462   0.944   7.683
  863SOL    HW2 3333   1.575   1.036   7.726
  864SOL     OW 3334   1.187   1.814   9.075
  864SOL    HW1 3335   1.190   1.875   9.001
  864SOL    HW2 3336   1.202   1.728   9.036
  865SOL     OW 3337   0.349   0.244   9.305
  865SOL    HW1 3338   0.392   0.327   9.286
  865SOL    HW2 3339   0.257   0.267   9.318
  866SOL     OW 3340   1.471   1.415   8.407
  866SOL    HW1 3341   1.404   1.429   8.473
  866SOL    HW2 3342   1.458   1.324   8.380
  867SOL     OW 3343   1.558   1.731   8.025
  867SOL    HW1 3344   1.607   1.695   7.952
  867SOL    HW2 3345   1.557   1.662   8.091
  868SOL     OW 3346   0.596   0.715   7.718
  868SOL    HW1 3347   0.601   0.799   7.673
  868SOL    HW2 3348   0.533   0.728   7.788
  869SOL     OW 3349   1.274   0.375   8.389
  869SOL    HW1 3350   1.187   0.336   8.398
  869SOL    HW2 3351   1.332   0.314   8.436
  870SOL     OW 3352   0.794   0.614   8.899
  870SOL    HW1 3353   0.765   0.587   8.986
  870SOL    HW2 3354   0.760   0.547   8.841
  871SOL     OW 3355   1.392   0.475   9.125
  871SOL    HW1 3356   1.400   0.521   9.209
  871SOL    HW2 3357   1.448   0.398   9.135
  872SOL     OW 3358   0.949   0.886   9.035
  872SOL    HW1 3359   1.004   0.818   8.996
  872SOL    HW2 3360   0.900   0.922   8.961
  873SOL     OW 3361   0.996   0.401   8.681
  873SOL    HW1 3362   0.908   0.419   8.715
  873SOL    HW2 3363   0.981   0.375   8.590
  874SOL     OW 3364   1.054   0.700   7.872
  874SOL    HW1 3365   1.072   0.693   7.966
  874SOL    HW2 3366   0.971   0.654   7.861
  875SOL     OW 3367   0.082   0.832   8.237
  875SOL    HW1 3368   0.150   0.796   8.294
  875SOL    HW2 3369   0.109   0.922   8.220
  876SOL     OW 3370   0.130   1.869   9.031
  876SOL    HW1 3371   0.138   1.832   9.119
  876SOL    HW2 3372   0.038   1.860   9.010
  877SOL     OW 3373   0.895   0.353   7.648
  877SOL    HW1 3374   0.937   0.414   7.587
  877SOL    HW2 3375   0.890   0.271   7.598
  878SOL     OW 3376   1.703   0.574   9.278
  878SOL    HW1 3377   1.668   0.648   9.229
  878SOL    HW2 3378   1.728   0.510   9.212
  879SOL     OW 3379   1.386   1.143   7.990
  879SOL    HW1 3380   1.463   1.130   7.935
  879SOL    HW2 3381   1.329   1.199   7.938
  880SOL     OW 3382   0.564   0.195   8.327
  880SOL    HW1 3383   0.568   0.221   8.419
  880SOL    HW2 3384   0.547   0.277   8.280
  881SOL     OW 3385   0.991   1.433   7.920
  881SOL    HW1 3386   0.957   1.508   7.871
  881SOL    HW2 3387   0.969   1.453   8.012
  882SOL     OW 3388   0.363   1.829   8.323
  882SOL    HW1 3389   0.423   1.755   8.334
  882SOL    HW2 3390   0.418   1.906   8.337
  883SOL     OW 3391   1.802   1.045   8.323
  883SOL    HW1 3392   1.750   1.033   8.244
  883SOL    HW2 3393   1.737   1.054   8.393
  884SOL     OW 3394   1.221   1.538   8.963
  884SOL    HW1 3395   1.209   1.466   9.026
  884SOL    HW2 3396   1.153   1.526   8.898
  885SOL     OW 3397   0.310   0.950   7.690
  885SOL    HW1 3398   0.393   0.972   7.648
  885SOL    HW2 3399   0.299   0.857   7.673
  886SOL     OW 3400   1.481   0.754   8.175
  886SOL    HW1 3401   1.479   0.713   8.262
  886SOL    HW2 3402   1.560   0.809   8.176
  887SOL     OW 3403   0.472   1.262   9.186
  887SOL    HW1 3404   0.447   1.269   9.094
  887SOL    HW2 3405   0.389   1.263   9.234
  888SOL     OW 3406   1.054   1.777   7.627
  888SOL    HW1 3407   1.004   1.723   7.688
  888SOL    HW2 3408   1.142   1.739   7.628
  889SOL     OW 3409   0.203   0.291   8.950
  889SOL    HW1 3410   0.109   0.310   8.950
  889SOL    HW2 3411   0.212   0.212   9.002
  890SOL     OW 3412   0.465   1.738   7.764
  890SOL    HW1 3413   0.510   1.793   7.827
  890SOL    HW2 3414   0.535   1.700   7.710
  891SOL     OW 3415   1.446   0.175   7.856
  891SOL    HW1 3416   1.393   0.106   7.815
  891SOL    HW2 3417   1.512   0.127   7.906
  892SOL     OW 3418   0.256   1.790   8.677
  892SOL    HW1 3419   0.298   1.720   8.726
  892SOL    HW2 3420   0.253   1.758   8.587
  893SOL     OW 3421   0.938   1.697   8.344
  893SOL    HW1 3422   1.013   1.644   8.371
  893SOL    HW2 3423   0.898   1.647   8.273
  894SOL     OW 3424   0.400   0.695   7.918
  894SOL    HW1 3425   0.424   0.603   7.934
  894SOL    HW2 3426   0.307   0.700   7.943
  895SOL     OW 3427   1.528   0.226   9.174
  895SOL    HW1 3428   1.520   0.250   9.266
  895SOL    HW2 3429   1.517   0.131   9.173
  896SOL     OW 3430   0.647   0.125   7.553
  896SOL    HW1 3431   0.666   0.039   7.590
  896SOL    HW2 3432   0.587   0.107   7.480
  897SOL     OW 3433   0.773   0.287   9.221
  897SOL    HW1 3434   0.854   0.235   9.221
  897SOL    HW2 3435   0.721   0.249   9.292
  898SOL     OW 3436   0.875   1.523   8.642
  898SOL    HW1 3437   0.857   1.484   8.557
  898SOL    HW2 3438   0.944   1.468   8.680
  899SOL     OW 3439   1.337   0.588   8.880
  899SOL    HW1 3440   1.369   0.559   8.965
  899SOL    HW2 3441   1.373   0.676   8.869
  900SOL     OW 3442   0.816   1.388   8.394
  900SOL    HW1 3443   0.901   1.376   8.352
  900SOL    HW2 3444   0.754   1.396   8.321
  901SOL     OW 3445   0.931   0.513   8.345
  901SOL    HW1 3446   0.906   0.504   8.253
  901SOL    HW2 3447   0.955   0.425   8.372
  902SOL     OW 3448   0.548   0.055   7.935
  902SOL    HW1 3449   0.475   0.062   7.996
  902SOL    HW2 3450   0.548   0.138   7.888
  903SOL     OW 3451   1.417   1.191   7.478
  903SOL    HW1 3452   1.451   1.125   7.538
  903SOL    HW2 3453   1.337   1.222   7.521
  904SOL     OW 3454   0.357   0.030   7.649
  904SOL    HW1 3455   0.354   0.090   7.574
  904SOL    HW2 3456   0.445   0.039   7.684
  905SOL     OW 3457   0.946   0.252   7.905
  905SOL    HW1 3458   0.920   0.290   7.821
  905SOL    HW2 3459   1.042   0.259   7.906
  906SOL     OW 3460   1.079   0.687   8.904
  906SOL    HW1 3461   1.011   0.620   8.911
  906SOL    HW2 3462   1.161   0.638   8.899
  907SOL     OW 3463   1.224   1.560   8.260
  907SOL    HW1 3464   1.234   1.638   8.206
  907SOL    HW2 3465   1.290   1.569   8.329
  908SOL     OW 3466   0.466   1.151   8.179
  908SOL    HW1 3467   0.397   1.125   8.239
  908SOL    HW2 3468   0.430   1.137   8.092
  909SOL     OW 3469   1.020   0.538   7.480
  909SOL    HW1 3470   0.978   0.621   7.460
  909SOL    HW2 3471   1.085   0.561   7.547
  910SOL     OW 3472   0.083   0.577   8.840
  910SOL    HW1 3473   0.172   0.558   8.810
  910SOL    HW2 3474   0.093   0.647   8.904
  911SOL     OW 3475   0.571   0.231   8.606
  911SOL    HW1 3476   0.592   0.137   8.615
  911SOL    HW2 3477   0.481   0.238   8.636
  912SOL     OW 3478   0.871   0.461   8.084
  912SOL    HW1 3479   0.822   0.515   8.022
  912SOL    HW2 3480   0.892   0.381   8.036
  913SOL     OW 3481   0.998   0.036   8.231
  913SOL    HW1 3482   0.956   0.069   8.151
  913SOL    HW2 3483   1.010   3.943   8.215
  914SOL     OW 3484   1.439   1.161   8.303
  914SOL    HW1 3485   1.368   1.097   8.307
  914SOL    HW2 3486   1.460   1.168   8.210
  915SOL     OW 3487   1.464   0.610   8.417
  915SOL    HW1 3488   1.407   0.534   8.422
  915SOL    HW2 3489   1.522   0.602   8.492
  916SOL     OW 3490   1.844   0.814   7.840
  916SOL    HW1 3491   1.902   0.762   7.896
  916SOL    HW2 3492   1.818   0.754   7.770
  917SOL     OW 3493   0.486   1.423   7.605
  917SOL    HW1 3494   0.410   1.392   7.654
  917SOL    HW2 3495   0.478   1.381   7.519
  918SOL     OW 3496   1.687   1.275   8.077
  918SOL    HW1 3497   1.780   1.269   8.097
  918SOL    HW2 3498   1.658   1.355   8.122
  919SOL     OW 3499   1.395   0.577   7.515
  919SOL    HW1 3500   1.333   0.558   7.585
  919SOL    HW2 3501   1.481   0.563   7.555
  920SOL     OW 3502   0.555   0.270   7.765
  920SOL    HW1 3503   0.607   0.230   7.695
  920SOL    HW2 3504   0.527   0.354   7.729
  921SOL     OW 3505   1.747   1.236   9.012
  921SOL    HW1 3506   1.834   1.198   9.004
  921SOL    HW2 3507   1.762   1.325   9.042
  922SOL     OW 3508   1.052   1.353   8.781
  922SOL    HW1 3509   0.976   1.321   8.830
  922SOL    HW2 3510   1.127   1.310   8.822
  923SOL     OW 3511   1.602   1.622   9.104
  923SOL    HW1 3512   1.585   1.652   9.015
  923SOL    HW2 3513   1.684   1.574   9.098
  924SOL     OW 3514   1.137   1.213   8.550
  924SOL    HW1 3515   1.074   1.247   8.614
  924SOL    HW2 3516   1.105   1.245   8.466
  925SOL     OW 3517   1.621   1.093   8.522
  925SOL    HW1 3518   1.615   1.156   8.594
  925SOL    HW2 3519   1.546   1.113   8.466
  926SOL     OW 3520   0.911   0.121   8.849
  926SOL    HW1 3521   0.931   0.090   8.760
  926SOL    HW2 3522   0.993   0.161   8.879
  927SOL     OW 3523   0.984   1.116   9.171
  927SOL    HW1 3524   0.893   1.132   9.196
  927SOL    HW2 3525   0.980   1.037   9.117
  928SOL     OW 3526   0.706   1.060   7.819
  928SOL    HW1 3527   0.693   1.041   7.912
  928SOL    HW2 3528   0.783   1.008   7.795
  929SOL     OW 3529   0.424   0.819   8.702
  929SOL    HW1 3530   0.493   0.826   8.769
  929SOL    HW2 3531   0.390   0.731   8.711
  930SOL     OW 3532   1.265   0.374   8.727
  930SOL    HW1 3533   1.298   0.453   8.771
  930SOL    HW2 3534   1.177   0.398   8.698
  931SOL     OW 3535   0.064   1.578   8.791
  931SOL    HW1 3536   0.069   1.612   8.702
  931SOL    HW2 3537   0.156   1.573   8.820
  932SOL     OW 3538   0.362   1.104   7.928
  932SOL    HW1 3539   0.361   1.184   7.875
  932SOL    HW2 3540   0.363   1.033   7.863
  933SOL     OW 3541   0.554   0.529   8.304
  933SOL    HW1 3542   0.565   0.589   8.230
  933SOL    HW2 3543   0.619   0.556   8.368
  934SOL     OW 3544   1.236   1.336   7.844
  934SOL    HW1 3545   1.281   1.414   7.877
  934SOL    HW2 3546   1.145   1.348   7.871
  935SOL     OW 3547   1.284   1.462   8.595
  935SOL    HW1 3548   1.338   1.463   8.674
  935SOL    HW2 3549   1.229   1.384   8.605
  936SOL     OW 3550   1.572   0.636   7.938
  936SOL    HW1 3551   1.527   0.687   8.005
  936SOL    HW2 3552   1.618   0.701   7.885
  937SOL     OW 3553   0.346   1.528   8.765
  937SOL    HW1 3554   0.336   1.477   8.685
  937SOL    HW2 3555   0.440   1.543   8.773
  938SOL     OW 3556   0.422   0.735   9.049
  938SOL    HW1 3557   0.486   0.779   8.994
  938SOL    HW2 3558   0.457   0.647   9.061
  939SOL     OW 3559   1.608   0.783   9.136
  939SOL    HW1 3560   1.522   0.824   9.129
  939SOL    HW2 3561   1.660   0.824   9.067
  940SOL     OW 3562   1.004   0.144   9.230
  940SOL    HW1 3563   1.065   0.211   9.198
  940SOL    HW2 3564   0.996   0.083   9.157
  941SOL     OW 3565   0.488   0.037   9.210
  941SOL    HW1 3566   0.490   0.052   9.115
  941SOL    HW2 3567   0.425   0.100   9.243
  942SOL     OW 3568   0.587   0.876   8.481
  942SOL    HW1 3569   0.620   0.965   8.484
  942SOL    HW2 3570   0.530   0.868   8.557
  943SOL     OW 3571   1.345   0.859   8.468
  943SOL    HW1 3572   1.258   0.842   8.430
  943SOL    HW2 3573   1.392   0.776   8.459
  944SOL     OW 3574   1.198   0.539   7.702
  944SOL    HW1 3575   1.206   0.460   7.755
  944SOL    HW2 3576   1.155   0.602   7.760
  945SOL     OW 3577   0.310   0.211   8.686
  945SOL    HW1 3578   0.266   0.248   8.762
  945SOL    HW2 3579   0.296   0.116   8.693
  946SOL     OW 3580   0.064   1.305   8.729
  946SOL    HW1 3581   0.093   1.261   8.809
  946SOL    HW2 3582   0.054   1.397   8.755
  947SOL     OW 3583   0.722   0.633   8.497
  947SOL    HW1 3584   0.798   0.621   8.439
  947SOL    HW2 3585   0.692   0.721   8.479
  948SOL     OW 3586   1.740   0.959   9.308
  948SOL    HW1 3587   1.696   0.893   9.255
  948SOL    HW2 3588   1.680   0.977   9.380
  949SOL     OW 3589   0.336   0.053   8.110
  949SOL    HW1 3590   0.306   0.144   8.111
  949SOL    HW2 3591   0.303   0.016   8.191
  950SOL     OW 3592   1.610   0.397   7.824
  950SOL    HW1 3593   1.561   0.329   7.871
  950SOL    HW2 3594   1.590   0.478   7.871
  951SOL     OW 3595   1.032   0.760   8.405
  951SOL    HW1 3596   1.021   0.776   8.499
  951SOL    HW2 3597   1.004   0.669   8.393
  952SOL     OW 3598   0.981   1.567   9.170
  952SOL    HW1 3599   0.965   1.610   9.086
  952SOL    HW2 3600   1.023   1.484   9.147
  953SOL     OW 3601   1.844   1.493   9.057
  953SOL    HW1 3602   1.878   1.514   8.971
  953SOL    HW2 3603   1.916   1.513   9.117
  954SOL     OW 3604   0.357   0.923   9.245
  954SOL    HW1 3605   0.434   0.943   9.298
  954SOL    HW2 3606   0.387   0.854   9.185
  955SOL     OW 3607   1.501   0.270   7.580
  955SOL    HW1 3608   1.428   0.208   7.592
  955SOL    HW2 3609   1.512   0.311   7.665
  956SOL     OW 3610   1.286   0.827   7.477
  956SOL    HW1 3611   1.328   0.741   7.480
  956SOL    HW2 3612   1.316   0.865   7.395
  957SOL     OW 3613   1.065   1.335   8.307
  957SOL    HW1 3614   1.072   1.264   8.243
  957SOL    HW2 3615   1.126   1.402   8.274
  958SOL     OW 3616   0.313   0.801   8.398
  958SOL    HW1 3617   0.407   0.817   8.391
  958SOL    HW2 3618   0.306   0.711   8.430
  959SOL     OW 3619   0.340   0.529   8.465
  959SOL    HW1 3620   0.297   0.445   8.447
  959SOL    HW2 3621   0.415   0.531   8.405
  960SOL     OW 3622   1.134   0.379   9.149
  960SOL    HW1 3623   1.086   0.433   9.211
  960SOL    HW2 3624   1.221   0.419   9.144
  961SOL     OW 3625   1.152   0.225   8.930
  961SOL    HW1 3626   1.142   0.278   9.009
  961SOL    HW2 3627   1.181   0.287   8.863
  962SOL     OW 3628   0.002   1.314   7.631
  962SOL    HW1 3629   3.908   1.331   7.633
  962SOL    HW2 3630   0.010   1.220   7.649
  963SOL     OW 3631   0.081   1.799   8.335
  963SOL    HW1 3632   0.093   1.704   8.331
  963SOL    HW2 3633   0.170   1.834   8.340
  964SOL     OW 3634   0.494   1.572   8.357
  964SOL    HW1 3635   0.563   1.633   8.382
  964SOL    HW2 3636   0.537   1.510   8.299
  965SOL     OW 3637   0.971   0.786   8.669
  965SOL    HW1 3638   1.029   0.769   8.744
  965SOL    HW2 3639   0.888   0.745   8.693
  966SOL     OW 3640   0.033   0.583   8.559
  966SOL    HW1 3641   0.087   0.523   8.509
  966SOL    HW2 3642   0.061   0.570   8.650
  967SOL     OW 3643   0.211   0.514   9.170
  967SOL    HW1 3644   0.254   0.470   9.096
  967SOL    HW2 3645   0.170   0.592   9.131
  968SOL     OW 3646   1.380   0.933   9.103
  968SOL    HW1 3647   1.402   1.026   9.099
  968SOL    HW2 3648   1.376   0.905   9.012
  969SOL     OW 3649   0.819   0.572   7.815
  969SOL    HW1 3650   0.826   0.497   7.756
  969SOL    HW2 3651   0.744   0.622   7.781
  970SOL     OW 3652   1.638   0.602   8.627
  970SOL    HW1 3653   1.629   0.541   8.700
  970SOL    HW2 3654   1.727   0.586   8.593
  971SOL     OW 3655   0.302   1.543   9.167
  971SOL    HW1 3656   0.256   1.612   9.216
  971SOL    HW2 3657   0.275   1.462   9.210
  972SOL     OW 3658   0.719   0.449   8.698
  972SOL    HW1 3659   0.666   0.373   8.676
  972SOL    HW2 3660   0.706   0.510   8.625
  973SOL     OW 3661   0.922   1.679   8.920
  973SOL    HW1 3662   0.897   1.639   8.836
  973SOL    HW2 3663   0.916   1.773   8.904
  974SOL     OW 3664   0.450   0.492   7.649
  974SOL    HW1 3665   0.514   0.561   7.666
  974SOL    HW2 3666   0.370   0.539   7.623
  975SOL     OW 3667   0.153   1.133   8.925
  975SOL    HW1 3668   0.153   1.083   9.007
  975SOL    HW2 3669   0.169   1.068   8.857
  976SOL     OW 3670   1.319   1.042   8.667
  976SOL    HW1 3671   1.340   0.979   8.598
  976SOL    HW2 3672   1.254   1.101   8.627
  977SOL     OW 3673   1.317   0.857   7.752
  977SOL    HW1 3674   1.241   0.827   7.802
  977SOL    HW2 3675   1.291   0.846   7.660
  978SOL     OW 3676   1.245   1.736   8.550
  978SOL    HW1 3677   1.330   1.758   8.510
  978SOL    HW2 3678   1.253   1.643   8.573
  979SOL     OW 3679   0.080   1.216   8.476
  979SOL    HW1 3680   0.085   1.242   8.568
  979SOL    HW2 3681   3.988   1.229   8.453
  980SOL     OW 3682   0.681   1.671   9.189
  980SOL    HW1 3683   0.619   1.743   9.177
  980SOL    HW2 3684   0.750   1.688   9.124
  981SOL     OW 3685   1.718   0.122   7.941
  981SOL    HW1 3686   1.794   0.133   7.884
  981SOL    HW2 3687   1.706   0.027   7.945
  982SOL     OW 3688   1.342   1.564   7.942
  982SOL    HW1 3689   1.419   1.591   7.892
  982SOL    HW2 3690   1.292   1.644   7.954
  983SOL     OW 3691   0.178   1.759   9.281
  983SOL    HW1 3692   0.122   1.706   9.337
  983SOL    HW2 3693   0.216   1.824   9.339
  984SOL     OW 3694   1.278   0.930   8.119
  984SOL    HW1 3695   1.352   0.870   8.132
  984SOL    HW2 3696   1.314   1.001   8.066
  985SOL     OW 3697   0.802   1.275   8.871
  985SOL    HW1 3698   0.774   1.319   8.952
  985SOL    HW2 3699   0.730   1.289   8.810
  986SOL     OW 3700   0.667   1.625   7.606
  986SOL    HW1 3701   0.681   1.639   7.512
  986SOL    HW2 3702   0.611   1.547   7.610
  987SOL     OW 3703   1.573   1.722   8.841
  987SOL    HW1 3704   1.637   1.717   8.771
  987SOL    HW2 3705   1.557   1.816   8.852
  988SOL     OW 3706   1.840   0.179   8.411
  988SOL    HW1 3707   1.872   0.120   8.343
  988SOL    HW2 3708   1.750   0.198   8.385
  989SOL     OW 3709   0.277   0.321   8.161
  989SOL    HW1 3710   0.192   0.355   8.133
  989SOL    HW2 3711   0.268   0.308   8.255
  990SOL     OW 3712   0.823   1.006   8.824
  990SOL    HW1 3713   0.866   0.999   8.738
  990SOL    HW2 3714   0.819   1.100   8.841
  991SOL     OW 3715   0.915   0.911   7.743
  991SOL    HW1 3716   0.973   0.942   7.673
  991SOL    HW2 3717   0.966   0.843   7.787
  992SOL     OW 3718   0.374   1.302   8.940
  992SOL    HW1 3719   0.359   1.382   8.890
  992SOL    HW2 3720   0.297   1.247   8.923
  993SOL     OW 3721   1.603   1.279   8.724
  993SOL    HW1 3722   1.668   1.267   8.794
  993SOL    HW2 3723   1.543   1.344   8.759
  994SOL     OW 3724   1.062   1.110   8.159
  994SOL    HW1 3725   0.989   1.059   8.194
  994SOL    HW2 3726   1.126   1.044   8.132
  995SOL     OW 3727   1.015   0.251   8.420
  995SOL    HW1 3728   1.006   0.200   8.339
  995SOL    HW2 3729   1.015   0.185   8.490
  996SOL     OW 3730   0.606   1.486   7.932
  996SOL    HW1 3731   0.655   1.437   7.867
  996SOL    HW2 3732   0.530   1.520   7.885
  997SOL     OW 3733   1.722   0.395   8.818
  997SOL    HW1 3734   1.795   0.457   8.824
  997SOL    HW2 3735   1.754   0.324   8.764
  998SOL     OW 3736   0.255   1.340   7.742
  998SOL    HW1 3737   0.161   1.343   7.725
  998SOL    HW2 3738   0.266   1.381   7.828
  999SOL     OW 3739   0.111   0.998   9.167
  999SOL    HW1 3740   0.051   0.992   9.242
  999SOL    HW2 3741   0.197   0.981   9.203
 1000SOL     OW 3742   0.695   0.261   8.954
 1000SOL    HW1 3743   0.762   0.207   8.912
 1000SOL    HW2 3744   0.724   0.268   9.045
 1001SOL     OW 3745   0.088   0.313   7.470
 1001SOL    HW1 3746   3.993   0.315   7.463
 1001SOL    HW2 3747   0.117   0.396   7.431
 1002SOL     OW 3748   1.424   0.855   8.844
 1002SOL    HW1 3749   1.374   0.917   8.790
 1002SOL    HW2 3750   1.512   0.858   8.808
 1003SOL     OW 3751   0.033   0.177   7.731
 1003SOL    HW1 3752   0.038   0.222   7.646
 1003SOL    HW2 3753   0.107   0.212   7.780
 1004SOL     OW 3754   1.186   1.321   7.568
 1004SOL    HW1 3755   1.090   1.312   7.563
 1004SOL    HW2 3756   1.204   1.326   7.661
 1005SOL     OW 3757   0.623   0.828   8.886
 1005SOL    HW1 3758   0.680   0.903   8.871
 1005SOL    HW2 3759   0.683   0.753   8.893
 1006SOL     OW 3760   1.493   1.787   8.426
 1006SOL    HW1 3761   1.515   1.864   8.374
 1006SOL    HW2 3762   1.575   1.738   8.432
 1007SOL     OW 3763   0.719   0.559   9.153
 1007SOL    HW1 3764   0.765   0.620   9.212
 1007SOL    HW2 3765   0.740   0.472   9.187
 1008SOL     OW 3766   1.472   1.193   9.076
 1008SOL    HW1 3767   1.462   1.209   9.170
 1008SOL    HW2 3768   1.565   1.211   9.060
 1009SOL     OW 3769   0.376   1.745   9.003
 1009SOL    HW1 3770   0.289   1.784   8.991
 1009SOL    HW2 3771   0.360   1.662   9.047
 1010SOL     OW 3772   1.663   0.879   8.704
 1010SOL    HW1 3773   1.660   0.794   8.660
 1010SOL    HW2 3774   1.653   0.943   8.633
 1011SOL     OW 3775   1.221   0.339   7.888
 1011SOL    HW1 3776   1.290   0.273   7.881
 1011SOL    HW2 3777   1.238   0.383   7.971
 1012SOL     OW 3778   0.588   0.736   8.122
 1012SOL    HW1 3779   0.627   0.822   8.106
 1012SOL    HW2 3780   0.522   0.726   8.053
 1013SOL     OW 3781   1.747   0.384   9.091
 1013SOL    HW1 3782   1.731   0.390   8.997
 1013SOL    HW2 3783   1.689   0.314   9.121
 1014SOL     OW 3784   1.749   0.933   8.959
 1014SOL    HW1 3785   1.735   1.027   8.972
 1014SOL    HW2 3786   1.730   0.919   8.866
 1015SOL     OW 3787   0.864   1.368   7.488
 1015SOL    HW1 3788   0.826   1.402   7.569
 1015SOL    HW2 3789   0.883   1.445   7.436
 1016SOL     OW 3790   0.663   1.784   8.387
 1016SOL    HW1 3791   0.644   1.875   8.366
 1016SOL    HW2 3792   0.758   1.776   8.378
 1017SOL     OW 3793   0.870   0.971   8.301
 1017SOL    HW1 3794   0.920   0.898   8.338
 1017SOL    HW2 3795   0.831   1.014   8.377
 1018SOL     OW 3796   1.070   0.982   7.535
 1018SOL    HW1 3797   1.055   1.041   7.462
 1018SOL    HW2 3798   1.148   0.932   7.510
 1019SOL     OW 3799   1.852   1.522   8.271
 1019SOL    HW1 3800   1.770   1.571   8.261
 1019SOL    HW2 3801   1.858   1.504   8.365
 1020SOL     OW 3802   0.230   1.304   9.305
 1020SOL    HW1 3803   0.154   1.254   9.276
 1020SOL    HW2 3804   0.216   1.317   9.399
 1021SOL     OW 3805   0.130   1.288   8.175
 1021SOL    HW1 3806   0.147   1.232   8.252
 1021SOL    HW2 3807   0.105   1.226   8.106
 1022SOL     OW 3808   0.684   1.408   9.079
 1022SOL    HW1 3809   0.605   1.366   9.111
 1022SOL    HW2 3810   0.681   1.496   9.117
 1023SOL     OW 3811   1.809   0.184   8.683
 1023SOL    HW1 3812   1.812   0.090   8.701
 1023SOL    HW2 3813   1.826   0.191   8.589
 1024SOL     OW 3814   0.448   0.439   7.980
 1024SOL    HW1 3815   0.475   0.363   7.928
 1024SOL    HW2 3816   0.392   0.403   8.048
 1025SOL     OW 3817   1.698   1.505   8.549
 1025SOL    HW1 3818   1.621   1.477   8.499
 1025SOL    HW2 3819   1.715   1.432   8.609
 1026SOL     OW 3820   0.336   0.561   8.742
 1026SOL    HW1 3821   0.391   0.504   8.796
 1026SOL    HW2 3822   0.351   0.531   8.652
 1027SOL     OW 3823   0.832   1.578   8.122
 1027SOL    HW1 3824   0.817   1.644   8.054
 1027SOL    HW2 3825   0.755   1.521   8.117
 1028SOL     OW 3826   1.459   0.257   8.558
 1028SOL    HW1 3827   1.478   0.170   8.594
 1028SOL    HW2 3828   1.404   0.299   8.625
 1029SOL     OW 3829   1.000   0.024   8.593
 1029SOL    HW1 3830   0.917   0.005   8.550
 1029SOL    HW2 3831   1.043   3.939   8.600
 1030SOL     OW 3832   0.769   1.331   7.772
 1030SOL    HW1 3833   0.743   1.239   7.776
 1030SOL    HW2 3834   0.852   1.335   7.818
 1031SOL     OW 3835   0.621   1.558   8.736
 1031SOL    HW1 3836   0.622   1.641   8.784
 1031SOL    HW2 3837   0.709   1.551   8.699
 1032SOL     OW 3838   1.306   0.072   7.619
 1032SOL    HW1 3839   1.311   3.986   7.577
 1032SOL    HW2 3840   1.224   0.070   7.667
 1033SOL     OW 3841   1.278   0.456   8.131
 1033SOL    HW1 3842   1.232   0.540   8.125
 1033SOL    HW2 3843   1.281   0.438   8.225
 1034SOL     OW 3844   1.586   0.209   8.317
 1034SOL    HW1 3845   1.537   0.235   8.395
 1034SOL    HW2 3846   1.588   0.287   8.262
 1035SOL     OW 3847   0.047   1.045   7.693
 1035SOL    HW1 3848   0.142   1.031   7.685
 1035SOL    HW2 3849   0.012   0.959   7.712
 1036SOL     OW 3850   0.875   1.648   7.798
 1036SOL    HW1 3851   0.801   1.637   7.737
 1036SOL    HW2 3852   0.853   1.727   7.847
 1037SOL     OW 3853   0.232   0.632   9.425
 1037SOL    HW1 3854   0.138   0.635   9.445
 1037SOL    HW2 3855   0.235   0.600   9.334
 1038SOL     OW 3856   0.223   0.291  10.292
 1038SOL    HW1 3857   0.245   0.251  10.376
 1038SOL    HW2 3858   0.128   0.284  10.286
 1039SOL     OW 3859   0.019   0.384   9.947
 1039SOL    HW1 3860   3.928   0.401   9.968
 1039SOL    HW2 3861   0.024   0.289   9.934
 1040SOL     OW 3862   0.585   1.295  10.511
 1040SOL    HW1 3863   0.499   1.295  10.469
 1040SOL    HW2 3864   0.597   1.385  10.541
 1041SOL     OW 3865   1.540   1.499  10.016
 1041SOL    HW1 3866   1.517   1.476  10.106
 1041SOL    HW2 3867   1.459   1.484   9.967
 1042SOL     OW 3868   1.134   0.699  10.003
 1042SOL    HW1 3869   1.181   0.782   9.992
 1042SOL    HW2 3870   1.086   0.710  10.085
 1043SOL     OW 3871   1.779   0.618   9.530
 1043SOL    HW1 3872   1.751   0.611   9.439
 1043SOL    HW2 3873   1.754   0.535   9.570
 1044SOL     OW 3874   0.747   1.136  10.357
 1044SOL    HW1 3875   0.687   1.174  10.421
 1044SOL    HW2 3876   0.784   1.211  10.311
 1045SOL     OW 3877   0.876   0.764  11.136
 1045SOL    HW1 3878   0.867   0.835  11.199
 1045SOL    HW2 3879   0.897   0.808  11.053
 1046SOL     OW 3880   0.685   0.999   9.954
 1046SOL    HW1 3881   0.752   0.990  10.022
 1046SOL    HW2 3882   0.616   1.052   9.995
 1047SOL     OW 3883   0.713   1.148  11.131
 1047SOL    HW1 3884   0.762   1.225  11.161
 1047SOL    HW2 3885   0.634   1.184  11.091
 1048SOL     OW 3886   0.353   1.398  10.389
 1048SOL    HW1 3887   0.272   1.373  10.344
 1048SOL    HW2 3888   0.398   1.456  10.328
 1049SOL     OW 3889   1.447   1.487  10.674
 1049SOL    HW1 3890   1.492   1.571  10.679
 1049SOL    HW2 3891   1.378   1.492  10.740
 1050SOL     OW 3892   0.460   0.409  10.801
 1050SOL    HW1 3893   0.543   0.362  10.803
 1050SOL    HW2 3894   0.393   0.341  10.806
 1051SOL     OW 3895   1.611   0.451  10.046
 1051SOL    HW1 3896   1.546   0.483   9.983
 1051SOL    HW2 3897   1.621   0.522  10.109
 1052SOL     OW 3898   0.218   1.722   9.765
 1052SOL    HW1 3899   0.241   1.794   9.823
 1052SOL    HW2 3900   0.294   1.713   9.707
 1053SOL     OW 3901   1.137   1.343  11.005
 1053SOL    HW1 3902   1.178   1.335  11.091
 1053SOL    HW2 3903   1.085   1.262  10.996
 1054SOL     OW 3904   0.255   1.454   9.847
 1054SOL    HW1 3905   0.218   1.541   9.834
 1054SOL    HW2 3906   0.190   1.408   9.900
 1055SOL     OW 3907   0.249   1.064  10.193
 1055SOL    HW1 3908   0.270   0.978  10.231
 1055SOL    HW2 3909   0.196   1.107  10.260
 1056SOL     OW 3910   0.607   1.795  10.733
 1056SOL    HW1 3911   0.524   1.777  10.778
 1056SOL    HW2 3912   0.631   1.884  10.762
 1057SOL     OW 3913   0.573   0.988   9.451
 1057SOL    HW1 3914   0.623   1.031   9.382
 1057SOL    HW2 3915   0.613   1.018   9.533
 1058SOL     OW 3916   1.586   0.143  10.765
 1058SOL    HW1 3917   1.618   0.215  10.711
 1058SOL    HW2 3918   1.546   0.185  10.841
 1059SOL     OW 3919   0.143   0.654   9.879
 1059SOL    HW1 3920   0.101   0.568   9.884
 1059SOL    HW2 3921   0.104   0.704   9.951
 1060SOL     OW 3922   0.043   1.586   9.446
 1060SOL    HW1 3923   0.042   1.496   9.477
 1060SOL    HW2 3924   3.955   1.620   9.463
 1061SOL     OW 3925   1.686   0.915   9.953
 1061SOL    HW1 3926   1.772   0.877   9.935
 1061SOL    HW2 3927   1.668   0.969   9.876
 1062SOL     OW 3928   1.652   1.105   9.740
 1062SOL    HW1 3929   1.739   1.105   9.700
 1062SOL    HW2 3930   1.659   1.166   9.814
 1063SOL     OW 3931   0.147   0.755  10.899
 1063SOL    HW1 3932   0.243   0.753  10.891
 1063SOL    HW2 3933   0.128   0.841  10.937
 1064SOL     OW 3934   0.613   1.389  10.048
 1064SOL    HW1 3935   0.568   1.305  10.055
 1064SOL    HW2 3936   0.599   1.416   9.957
 1065SOL     OW 3937   1.280   1.231  10.734
 1065SOL    HW1 3938   1.312   1.165  10.672
 1065SOL    HW2 3939   1.342   1.227  10.807
 1066SOL     OW 3940   0.824   0.006   9.828
 1066SOL    HW1 3941   0.869   0.087   9.802
 1066SOL    HW2 3942   0.731   0.029   9.826
 1067SOL     OW 3943   0.183   0.947  10.591
 1067SOL    HW1 3944   0.271   0.913  10.580
 1067SOL    HW2 3945   0.132   0.907  10.520
 1068SOL     OW 3946   1.532   1.000   9.511
 1068SOL    HW1 3947   1.463   0.943   9.545
 1068SOL    HW2 3948   1.575   1.033   9.590
 1069SOL     OW 3949   1.184   1.813  10.936
 1069SOL    HW1 3950   1.190   1.874  10.863
 1069SOL    HW2 3951   1.202   1.728  10.898
 1070SOL     OW 3952   0.349   0.244  11.167
 1070SOL    HW1 3953   0.392   0.327  11.148
 1070SOL    HW2 3954   0.257   0.267  11.180
 1071SOL     OW 3955   1.470   1.419  10.267
 1071SOL    HW1 3956   1.402   1.435  10.332
 1071SOL    HW2 3957   1.459   1.327  10.242
 1072SOL     OW 3958   1.568   1.723   9.863
 1072SOL    HW1 3959   1.574   1.680   9.778
 1072SOL    HW2 3960   1.569   1.651   9.927
 1073SOL     OW 3961   0.596   0.715   9.580
 1073SOL    HW1 3962   0.600   0.800   9.536
 1073SOL    HW2 3963   0.532   0.727   9.650
 1074SOL     OW 3964   1.274   0.374  10.251
 1074SOL    HW1 3965   1.187   0.335  10.260
 1074SOL    HW2 3966   1.332   0.314  10.298
 1075SOL     OW 3967   1.557   1.648   9.603
 1075SOL    HW1 3968   1.640   1.693   9.584
 1075SOL    HW2 3969   1.520   1.628   9.518
 1076SOL     OW 3970   0.794   0.614  10.761
 1076SOL    HW1 3971   0.765   0.587  10.848
 1076SOL    HW2 3972   0.760   0.547  10.703
 1077SOL     OW 3973   1.392   0.475  10.987
 1077SOL    HW1 3974   1.400   0.521  11.071
 1077SOL    HW2 3975   1.448   0.398  10.997
 1078SOL     OW 3976   0.949   0.886  10.897
 1078SOL    HW1 3977   1.004   0.818  10.858
 1078SOL    HW2 3978   0.900   0.922  10.823
 1079SOL     OW 3979   0.996   0.401  10.543
 1079SOL    HW1 3980   0.908   0.419  10.577
 1079SOL    HW2 3981   0.981   0.375  10.452
 1080SOL     OW 3982   1.054   0.701   9.734
 1080SOL    HW1 3983   1.072   0.695   9.827
 1080SOL    HW2 3984   0.971   0.655   9.723
 1081SOL     OW 3985   0.082   0.832  10.099
 1081SOL    HW1 3986   0.151   0.796  10.155
 1081SOL    HW2 3987   0.110   0.923  10.084
 1082SOL     OW 3988   0.130   1.869  10.893
 1082SOL    HW1 3989   0.139   1.832  10.981
 1082SOL    HW2 3990   0.038   1.860  10.872
 1083SOL     OW 3991   0.895   0.353   9.509
 1083SOL    HW1 3992   0.937   0.414   9.449
 1083SOL    HW2 3993   0.890   0.270   9.461
 1084SOL     OW 3994   1.703   0.574  11.140
 1084SOL    HW1 3995   1.668   0.648  11.091
 1084SOL    HW2 3996   1.728   0.510  11.074
 1085SOL     OW 3997   1.381   1.141   9.848
 1085SOL    HW1 3998   1.462   1.133   9.797
 1085SOL    HW2 3999   1.326   1.199   9.796
 1086SOL     OW 4000   0.564   0.195  10.189
 1086SOL    HW1 4001   0.568   0.221  10.281
 1086SOL    HW2 4002   0.547   0.277  10.142
 1087SOL     OW 4003   0.992   1.439   9.776
 1087SOL    HW1 4004   0.967   1.517   9.727
 1087SOL    HW2 4005   0.976   1.462   9.868
 1088SOL     OW 4006   0.363   1.829  10.185
 1088SOL    HW1 4007   0.422   1.754  10.196
 1088SOL    HW2 4008   0.419   1.906  10.199
 1089SOL     OW 4009   1.802   1.043  10.187
 1089SOL    HW1 4010   1.749   1.040  10.107
 1089SOL    HW2 4011   1.738   1.053  10.257
 1090SOL     OW 4012   1.221   1.538  10.825
 1090SOL    HW1 4013   1.209   1.466  10.888
 1090SOL    HW2 4014   1.154   1.525  10.759
 1091SOL     OW 4015   0.310   0.950   9.553
 1091SOL    HW1 4016   0.393   0.972   9.510
 1091SOL    HW2 4017   0.299   0.857   9.536
 1092SOL     OW 4018   1.480   0.752  10.037
 1092SOL    HW1 4019   1.479   0.713  10.124
 1092SOL    HW2 4020   1.558   0.807  10.037
 1093SOL     OW 4021   0.472   1.263  11.048
 1093SOL    HW1 4022   0.446   1.269  10.956
 1093SOL    HW2 4023   0.389   1.264  11.096
 1094SOL     OW 4024   1.124   1.778   9.538
 1094SOL    HW1 4025   1.049   1.739   9.582
 1094SOL    HW2 4026   1.147   1.714   9.470
 1095SOL     OW 4027   0.202   0.291  10.812
 1095SOL    HW1 4028   0.108   0.310  10.812
 1095SOL    HW2 4029   0.212   0.212  10.864
 1096SOL     OW 4030   1.627   1.382   9.399
 1096SOL    HW1 4031   1.584   1.465   9.377
 1096SOL    HW2 4032   1.561   1.315   9.380
 1097SOL     OW 4033   0.465   1.739   9.624
 1097SOL    HW1 4034   0.510   1.794   9.689
 1097SOL    HW2 4035   0.536   1.701   9.573
 1098SOL     OW 4036   1.446   0.175   9.717
 1098SOL    HW1 4037   1.392   0.106   9.678
 1098SOL    HW2 4038   1.512   0.128   9.768
 1099SOL     OW 4039   0.256   1.790  10.539
 1099SOL    HW1 4040   0.298   1.720  10.589
 1099SOL    HW2 4041   0.253   1.757  10.449
 1100SOL     OW 4042   0.940   1.700  10.206
 1100SOL    HW1 4043   1.019   1.651  10.228
 1100SOL    HW2 4044   0.899   1.650  10.136
 1101SOL     OW 4045   0.399   0.695   9.780
 1101SOL    HW1 4046   0.424   0.603   9.796
 1101SOL    HW2 4047   0.307   0.700   9.805
 1102SOL     OW 4048   1.528   0.226  11.036
 1102SOL    HW1 4049   1.520   0.250  11.128
 1102SOL    HW2 4050   1.517   0.131  11.035
 1103SOL     OW 4051   0.647   0.125   9.414
 1103SOL    HW1 4052   0.666   0.039   9.452
 1103SOL    HW2 4053   0.587   0.107   9.342
 1104SOL     OW 4054   0.773   0.287  11.083
 1104SOL    HW1 4055   0.854   0.235  11.083
 1104SOL    HW2 4056   0.721   0.249  11.154
 1105SOL     OW 4057   0.875   1.523  10.505
 1105SOL    HW1 4058   0.858   1.484  10.419
 1105SOL    HW2 4059   0.944   1.468  10.542
 1106SOL     OW 4060   1.337   0.588  10.742
 1106SOL    HW1 4061   1.369   0.559  10.827
 1106SOL    HW2 4062   1.373   0.676  10.731
 1107SOL     OW 4063   0.818   1.388  10.256
 1107SOL    HW1 4064   0.903   1.378  10.214
 1107SOL    HW2 4065   0.757   1.395  10.182
 1108SOL     OW 4066   0.931   0.513  10.207
 1108SOL    HW1 4067   0.906   0.504  10.115
 1108SOL    HW2 4068   0.955   0.424  10.235
 1109SOL     OW 4069   0.548   0.055   9.797
 1109SOL    HW1 4070   0.475   0.062   9.858
 1109SOL    HW2 4071   0.548   0.138   9.750
 1110SOL     OW 4072   1.428   1.199   9.349
 1110SOL    HW1 4073   1.457   1.125   9.401
 1110SOL    HW2 4074   1.342   1.221   9.386
 1111SOL     OW 4075   0.357   0.029   9.511
 1111SOL    HW1 4076   0.354   0.089   9.436
 1111SOL    HW2 4077   0.445   0.039   9.547
 1112SOL     OW 4078   0.946   0.252   9.767
 1112SOL    HW1 4079   0.920   0.290   9.683
 1112SOL    HW2 4080   1.042   0.259   9.768
 1113SOL     OW 4081   1.079   0.687  10.766
 1113SOL    HW1 4082   1.011   0.619  10.773
 1113SOL    HW2 4083   1.161   0.638  10.761
 1114SOL     OW 4084   1.221   1.571  10.104
 1114SOL    HW1 4085   1.230   1.638  10.036
 1114SOL    HW2 4086   1.289   1.592  10.168
 1115SOL     OW 4087   0.467   1.152  10.041
 1115SOL    HW1 4088   0.397   1.125  10.101
 1115SOL    HW2 4089   0.430   1.137   9.954
 1116SOL     OW 4090   1.253   1.788   9.925
 1116SOL    HW1 4091   1.306   1.848   9.874
 1116SOL    HW2 4092   1.187   1.843   9.967
 1117SOL     OW 4093   1.021   0.538   9.342
 1117SOL    HW1 4094   0.978   0.621   9.322
 1117SOL    HW2 4095   1.085   0.559   9.410
 1118SOL     OW 4096   0.083   0.577  10.702
 1118SOL    HW1 4097   0.172   0.558  10.672
 1118SOL    HW2 4098   0.093   0.647  10.766
 1119SOL     OW 4099   0.571   0.231  10.468
 1119SOL    HW1 4100   0.592   0.137  10.477
 1119SOL    HW2 4101   0.481   0.238  10.498
 1120SOL     OW 4102   0.871   0.460   9.947
 1120SOL    HW1 4103   0.822   0.514   9.884
 1120SOL    HW2 4104   0.892   0.381   9.898
 1121SOL     OW 4105   0.998   0.036  10.093
 1121SOL    HW1 4106   0.956   0.069  10.013
 1121SOL    HW2 4107   1.010   3.943  10.077
 1122SOL     OW 4108   1.442   1.162  10.169
 1122SOL    HW1 4109   1.369   1.099  10.164
 1122SOL    HW2 4110   1.472   1.171  10.079
 1123SOL     OW 4111   1.464   0.610  10.279
 1123SOL    HW1 4112   1.407   0.533  10.284
 1123SOL    HW2 4113   1.522   0.602  10.355
 1124SOL     OW 4114   1.841   0.817   9.701
 1124SOL    HW1 4115   1.899   0.766   9.757
 1124SOL    HW2 4116   1.816   0.756   9.631
 1125SOL     OW 4117   0.487   1.424   9.467
 1125SOL    HW1 4118   0.411   1.394   9.517
 1125SOL    HW2 4119   0.477   1.384   9.381
 1126SOL     OW 4120   1.676   1.258   9.959
 1126SOL    HW1 4121   1.771   1.256   9.972
 1126SOL    HW2 4122   1.652   1.348   9.981
 1127SOL     OW 4123   1.395   0.579   9.377
 1127SOL    HW1 4124   1.332   0.559   9.447
 1127SOL    HW2 4125   1.481   0.561   9.417
 1128SOL     OW 4126   0.555   0.270   9.627
 1128SOL    HW1 4127   0.607   0.230   9.556
 1128SOL    HW2 4128   0.527   0.354   9.591
 1129SOL     OW 4129   1.747   1.236  10.874
 1129SOL    HW1 4130   1.834   1.199  10.866
 1129SOL    HW2 4131   1.761   1.326  10.904
 1130SOL     OW 4132   1.052   1.353  10.643
 1130SOL    HW1 4133   0.976   1.321  10.692
 1130SOL    HW2 4134   1.127   1.310  10.684
 1131SOL     OW 4135   1.601   1.624  10.965
 1131SOL    HW1 4136   1.583   1.653  10.876
 1131SOL    HW2 4137   1.684   1.576  10.959
 1132SOL     OW 4138   1.136   1.213  10.412
 1132SOL    HW1 4139   1.073   1.248  10.476
 1132SOL    HW2 4140   1.106   1.246  10.328
 1133SOL     OW 4141   1.621   1.093  10.385
 1133SOL    HW1 4142   1.615   1.157  10.455
 1133SOL    HW2 4143   1.547   1.113  10.327
 1134SOL     OW 4144   0.911   0.121  10.710
 1134SOL    HW1 4145   0.931   0.090  10.622
 1134SOL    HW2 4146   0.993   0.161  10.741
 1135SOL     OW 4147   0.984   1.116  11.033
 1135SOL    HW1 4148   0.893   1.132  11.058
 1135SOL    HW2 4149   0.981   1.037  10.979
 1136SOL     OW 4150   0.708   1.062   9.681
 1136SOL    HW1 4151   0.694   1.043   9.774
 1136SOL    HW2 4152   0.784   1.009   9.656
 1137SOL     OW 4153   0.424   0.819  10.564
 1137SOL    HW1 4154   0.493   0.826  10.631
 1137SOL    HW2 4155   0.390   0.731  10.573
 1138SOL     OW 4156   1.265   0.374  10.589
 1138SOL    HW1 4157   1.298   0.453  10.633
 1138SOL    HW2 4158   1.177   0.398  10.560
 1139SOL     OW 4159   0.064   1.579  10.654
 1139SOL    HW1 4160   0.069   1.613  10.564
 1139SOL    HW2 4161   0.156   1.573  10.682
 1140SOL     OW 4162   0.363   1.104   9.789
 1140SOL    HW1 4163   0.359   1.184   9.736
 1140SOL    HW2 4164   0.363   1.033   9.725
 1141SOL     OW 4165   0.554   0.529  10.165
 1141SOL    HW1 4166   0.566   0.589  10.092
 1141SOL    HW2 4167   0.619   0.556  10.230
 1142SOL     OW 4168   1.233   1.332   9.697
 1142SOL    HW1 4169   1.286   1.407   9.725
 1142SOL    HW2 4170   1.145   1.351   9.730
 1143SOL     OW 4171   1.283   1.462  10.458
 1143SOL    HW1 4172   1.338   1.463  10.537
 1143SOL    HW2 4173   1.229   1.384  10.467
 1144SOL     OW 4174   1.571   0.636   9.800
 1144SOL    HW1 4175   1.526   0.686   9.868
 1144SOL    HW2 4176   1.619   0.702   9.750
 1145SOL     OW 4177   0.346   1.528  10.627
 1145SOL    HW1 4178   0.336   1.476  10.547
 1145SOL    HW2 4179   0.440   1.543  10.635
 1146SOL     OW 4180   0.422   0.735  10.911
 1146SOL    HW1 4181   0.486   0.779  10.856
 1146SOL    HW2 4182   0.457   0.647  10.923
 1147SOL     OW 4183   1.608   0.783  10.998
 1147SOL    HW1 4184   1.522   0.825  10.990
 1147SOL    HW2 4185   1.660   0.824  10.928
 1148SOL     OW 4186   1.004   0.144  11.092
 1148SOL    HW1 4187   1.065   0.211  11.060
 1148SOL    HW2 4188   0.996   0.083  11.019
 1149SOL     OW 4189   0.488   0.037  11.072
 1149SOL    HW1 4190   0.490   0.052  10.977
 1149SOL    HW2 4191   0.425   0.100  11.105
 1150SOL     OW 4192   0.586   0.876  10.342
 1150SOL    HW1 4193   0.621   0.965  10.346
 1150SOL    HW2 4194   0.530   0.869  10.420
 1151SOL     OW 4195   1.345   0.858  10.331
 1151SOL    HW1 4196   1.259   0.842  10.292
 1151SOL    HW2 4197   1.392   0.775  10.322
 1152SOL     OW 4198   1.197   0.539   9.564
 1152SOL    HW1 4199   1.206   0.460   9.617
 1152SOL    HW2 4200   1.155   0.603   9.622
 1153SOL     OW 4201   0.309   0.211  10.548
 1153SOL    HW1 4202   0.266   0.248  10.624
 1153SOL    HW2 4203   0.296   0.116  10.555
 1154SOL     OW 4204   0.065   1.306  10.591
 1154SOL    HW1 4205   0.093   1.261  10.670
 1154SOL    HW2 4206   0.054   1.397  10.617
 1155SOL     OW 4207   0.722   0.632  10.359
 1155SOL    HW1 4208   0.798   0.621  10.302
 1155SOL    HW2 4209   0.691   0.721  10.340
 1156SOL     OW 4210   1.741   0.959  11.169
 1156SOL    HW1 4211   1.696   0.893  11.116
 1156SOL    HW2 4212   1.681   0.977  11.241
 1157SOL     OW 4213   0.336   0.053   9.972
 1157SOL    HW1 4214   0.306   0.144   9.973
 1157SOL    HW2 4215   0.303   0.016  10.053
 1158SOL     OW 4216   1.611   0.397   9.686
 1158SOL    HW1 4217   1.562   0.329   9.733
 1158SOL    HW2 4218   1.590   0.478   9.733
 1159SOL     OW 4219   1.031   0.760  10.267
 1159SOL    HW1 4220   1.021   0.776  10.361
 1159SOL    HW2 4221   1.004   0.669  10.255
 1160SOL     OW 4222   0.980   1.566  11.032
 1160SOL    HW1 4223   0.965   1.610  10.948
 1160SOL    HW2 4224   1.024   1.484  11.009
 1161SOL     OW 4225   1.846   1.495  10.917
 1161SOL    HW1 4226   1.878   1.515  10.829
 1161SOL    HW2 4227   1.920   1.515  10.974
 1162SOL     OW 4228   0.357   0.923  11.107
 1162SOL    HW1 4229   0.434   0.943  11.160
 1162SOL    HW2 4230   0.387   0.854  11.047
 1163SOL     OW 4231   1.500   0.271   9.441
 1163SOL    HW1 4232   1.428   0.208   9.454
 1163SOL    HW2 4233   1.512   0.311   9.528
 1164SOL     OW 4234   1.285   0.827   9.336
 1164SOL    HW1 4235   1.327   0.741   9.340
 1164SOL    HW2 4236   1.317   0.866   9.255
 1165SOL     OW 4237   1.069   1.340  10.167
 1165SOL    HW1 4238   1.074   1.268  10.105
 1165SOL    HW2 4239   1.127   1.407  10.132
 1166SOL     OW 4240   0.313   0.801  10.260
 1166SOL    HW1 4241   0.408   0.817  10.254
 1166SOL    HW2 4242   0.306   0.711  10.292
 1167SOL     OW 4243   0.340   0.529  10.327
 1167SOL    HW1 4244   0.297   0.445  10.309
 1167SOL    HW2 4245   0.415   0.530  10.267
 1168SOL     OW 4246   1.134   0.379  11.011
 1168SOL    HW1 4247   1.086   0.433  11.073
 1168SOL    HW2 4248   1.221   0.419  11.006
 1169SOL     OW 4249   1.152   0.225  10.793
 1169SOL    HW1 4250   1.142   0.278  10.872
 1169SOL    HW2 4251   1.181   0.287  10.725
 1170SOL     OW 4252   0.002   1.313   9.493
 1170SOL    HW1 4253   3.908   1.330   9.495
 1170SOL    HW2 4254   0.010   1.220   9.511
 1171SOL     OW 4255   0.081   1.798  10.196
 1171SOL    HW1 4256   0.092   1.703  10.193
 1171SOL    HW2 4257   0.170   1.833  10.202
 1172SOL     OW 4258   0.493   1.572  10.218
 1172SOL    HW1 4259   0.562   1.633  10.244
 1172SOL    HW2 4260   0.537   1.509  10.160
 1173SOL     OW 4261   0.971   0.786  10.531
 1173SOL    HW1 4262   1.029   0.769  10.606
 1173SOL    HW2 4263   0.888   0.745  10.556
 1174SOL     OW 4264   0.034   0.583  10.421
 1174SOL    HW1 4265   0.088   0.523  10.371
 1174SOL    HW2 4266   0.061   0.570  10.512
 1175SOL     OW 4267   0.211   0.514  11.032
 1175SOL    HW1 4268   0.254   0.470  10.958
 1175SOL    HW2 4269   0.170   0.592  10.993
 1176SOL     OW 4270   1.380   0.933  10.965
 1176SOL    HW1 4271   1.402   1.026  10.961
 1176SOL    HW2 4272   1.376   0.905  10.874
 1177SOL     OW 4273   0.819   0.572   9.676
 1177SOL    HW1 4274   0.826   0.496   9.618
 1177SOL    HW2 4275   0.744   0.621   9.643
 1178SOL     OW 4276   1.638   0.602  10.489
 1178SOL    HW1 4277   1.629   0.541  10.563
 1178SOL    HW2 4278   1.727   0.586  10.455
 1179SOL     OW 4279   0.301   1.543  11.029
 1179SOL    HW1 4280   0.256   1.612  11.078
 1179SOL    HW2 4281   0.275   1.462  11.072
 1180SOL     OW 4282   0.719   0.449  10.560
 1180SOL    HW1 4283   0.666   0.373  10.537
 1180SOL    HW2 4284   0.706   0.510  10.487
 1181SOL     OW 4285   0.921   1.679  10.782
 1181SOL    HW1 4286   0.897   1.639  10.699
 1181SOL    HW2 4287   0.915   1.773  10.766
 1182SOL     OW 4288   0.450   0.492   9.510
 1182SOL    HW1 4289   0.514   0.562   9.528
 1182SOL    HW2 4290   0.370   0.539   9.484
 1183SOL     OW 4291   0.153   1.133  10.787
 1183SOL    HW1 4292   0.153   1.083  10.868
 1183SOL    HW2 4293   0.168   1.068  10.719
 1184SOL     OW 4294   1.318   1.042  10.529
 1184SOL    HW1 4295   1.340   0.980  10.461
 1184SOL    HW2 4296   1.254   1.101  10.489
 1185SOL     OW 4297   1.318   0.856   9.612
 1185SOL    HW1 4298   1.243   0.827   9.665
 1185SOL    HW2 4299   1.289   0.844   9.522
 1186SOL     OW 4300   1.244   1.736  10.413
 1186SOL    HW1 4301   1.328   1.758  10.374
 1186SOL    HW2 4302   1.251   1.643  10.434
 1187SOL     OW 4303   0.080   1.217  10.337
 1187SOL    HW1 4304   0.086   1.242  10.429
 1187SOL    HW2 4305   3.988   1.229  10.315
 1188SOL     OW 4306   0.681   1.671  11.051
 1188SOL    HW1 4307   0.620   1.743  11.039
 1188SOL    HW2 4308   0.751   1.687  10.987
 1189SOL     OW 4309   1.718   0.122   9.803
 1189SOL    HW1 4310   1.794   0.134   9.746
 1189SOL    HW2 4311   1.706   0.027   9.807
 1190SOL     OW 4312   1.354   1.555   9.781
 1190SOL    HW1 4313   1.418   1.587   9.717
 1190SOL    HW2 4314   1.320   1.635   9.823
 1191SOL     OW 4315   0.178   1.759  11.143
 1191SOL    HW1 4316   0.122   1.706  11.199
 1191SOL    HW2 4317   0.217   1.824  11.202
 1192SOL     OW 4318   1.277   0.930   9.981
 1192SOL    HW1 4319   1.351   0.871   9.995
 1192SOL    HW2 4320   1.313   1.001   9.927
 1193SOL     OW 4321   0.802   1.275  10.733
 1193SOL    HW1 4322   0.774   1.318  10.814
 1193SOL    HW2 4323   0.730   1.289  10.672
 1194SOL     OW 4324   0.670   1.626   9.466
 1194SOL    HW1 4325   0.682   1.639   9.372
 1194SOL    HW2 4326   0.614   1.548   9.472
 1195SOL     OW 4327   1.571   1.725  10.698
 1195SOL    HW1 4328   1.632   1.722  10.625
 1195SOL    HW2 4329   1.555   1.818  10.713
 1196SOL     OW 4330   1.840   0.179  10.273
 1196SOL    HW1 4331   1.872   0.120  10.206
 1196SOL    HW2 4332   1.750   0.198  10.247
 1197SOL     OW 4333   0.277   0.321  10.023
 1197SOL    HW1 4334   0.192   0.355   9.995
 1197SOL    HW2 4335   0.268   0.308  10.117
 1198SOL     OW 4336   1.204   1.600   9.342
 1198SOL    HW1 4337   1.194   1.509   9.369
 1198SOL    HW2 4338   1.137   1.613   9.275
 1199SOL     OW 4339   0.823   1.006  10.686
 1199SOL    HW1 4340   0.866   0.999  10.601
 1199SOL    HW2 4341   0.819   1.100  10.703
 1200SOL     OW 4342   0.915   0.911   9.601
 1200SOL    HW1 4343   0.975   0.944   9.534
 1200SOL    HW2 4344   0.965   0.843   9.647
 1201SOL     OW 4345   1.480   1.622   9.346
 1201SOL    HW1 4346   1.386   1.616   9.329
 1201SOL    HW2 4347   1.520   1.630   9.259
 1202SOL     OW 4348   0.374   1.301  10.802
 1202SOL    HW1 4349   0.358   1.382  10.753
 1202SOL    HW2 4350   0.297   1.247  10.785
 1203SOL     OW 4351   1.604   1.280  10.586
 1203SOL    HW1 4352   1.668   1.267  10.655
 1203SOL    HW2 4353   1.543   1.345  10.621
 1204SOL     OW 4354   1.062   1.111  10.022
 1204SOL    HW1 4355   0.989   1.061  10.058
 1204SOL    HW2 4356   1.126   1.046   9.995
 1205SOL     OW 4357   1.015   0.251  10.282
 1205SOL    HW1 4358   1.006   0.200  10.201
 1205SOL    HW2 4359   1.014   0.185  10.352
 1206SOL     OW 4360   0.608   1.487   9.792
 1206SOL    HW1 4361   0.656   1.438   9.726
 1206SOL    HW2 4362   0.530   1.519   9.747
 1207SOL     OW 4363   1.722   0.395  10.680
 1207SOL    HW1 4364   1.795   0.457  10.686
 1207SOL    HW2 4365   1.754   0.324  10.626
 1208SOL     OW 4366   0.256   1.340   9.604
 1208SOL    HW1 4367   0.161   1.343   9.587
 1208SOL    HW2 4368   0.266   1.382   9.690
 1209SOL     OW 4369   0.111   0.998  11.029
 1209SOL    HW1 4370   0.052   0.992  11.104
 1209SOL    HW2 4371   0.197   0.981  11.065
 1210SOL     OW 4372   0.695   0.261  10.816
 1210SOL    HW1 4373   0.762   0.207  10.774
 1210SOL    HW2 4374   0.724   0.268  10.907
 1211SOL     OW 4375   0.088   0.313   9.332
 1211SOL    HW1 4376   3.993   0.315   9.326
 1211SOL    HW2 4377   0.116   0.397   9.293
 1212SOL     OW 4378   1.424   0.855  10.706
 1212SOL    HW1 4379   1.374   0.917  10.652
 1212SOL    HW2 4380   1.512   0.858  10.670
 1213SOL     OW 4381   0.033   0.177   9.593
 1213SOL    HW1 4382   0.037   0.222   9.508
 1213SOL    HW2 4383   0.107   0.212   9.642
 1214SOL     OW 4384   1.175   1.333   9.425
 1214SOL    HW1 4385   1.084   1.304   9.424
 1214SOL    HW2 4386   1.200   1.330   9.518
 1215SOL     OW 4387   0.623   0.828  10.748
 1215SOL    HW1 4388   0.680   0.903  10.732
 1215SOL    HW2 4389   0.683   0.754  10.755
 1216SOL     OW 4390   1.492   1.788  10.294
 1216SOL    HW1 4391   1.515   1.863  10.238
 1216SOL    HW2 4392   1.570   1.733  10.292
 1217SOL     OW 4393   0.719   0.559  11.015
 1217SOL    HW1 4394   0.765   0.620  11.073
 1217SOL    HW2 4395   0.740   0.472  11.049
 1218SOL     OW 4396   1.473   1.193  10.939
 1218SOL    HW1 4397   1.462   1.209  11.033
 1218SOL    HW2 4398   1.565   1.211  10.921
 1219SOL     OW 4399   0.376   1.746  10.865
 1219SOL    HW1 4400   0.289   1.784  10.854
 1219SOL    HW2 4401   0.360   1.662  10.909
 1220SOL     OW 4402   1.663   0.880  10.566
 1220SOL    HW1 4403   1.660   0.795  10.522
 1220SOL    HW2 4404   1.653   0.944  10.495
 1221SOL     OW 4405   1.221   0.340   9.749
 1221SOL    HW1 4406   1.290   0.274   9.742
 1221SOL    HW2 4407   1.238   0.383   9.833
 1222SOL     OW 4408   0.588   0.736   9.983
 1222SOL    HW1 4409   0.627   0.822   9.968
 1222SOL    HW2 4410   0.522   0.726   9.915
 1223SOL     OW 4411   1.747   0.384  10.953
 1223SOL    HW1 4412   1.731   0.390  10.859
 1223SOL    HW2 4413   1.689   0.314  10.983
 1224SOL     OW 4414   1.750   0.933  10.821
 1224SOL    HW1 4415   1.735   1.027  10.834
 1224SOL    HW2 4416   1.730   0.919  10.728
 1225SOL     OW 4417   0.865   1.364   9.354
 1225SOL    HW1 4418   0.826   1.390   9.438
 1225SOL    HW2 4419   0.878   1.446   9.307
 1226SOL     OW 4420   0.663   1.783  10.249
 1226SOL    HW1 4421   0.645   1.875  10.229
 1226SOL    HW2 4422   0.759   1.776  10.242
 1227SOL     OW 4423   0.870   0.970  10.162
 1227SOL    HW1 4424   0.920   0.898  10.199
 1227SOL    HW2 4425   0.831   1.014  10.238
 1228SOL     OW 4426   1.076   0.989   9.399
 1228SOL    HW1 4427   1.055   1.041   9.322
 1228SOL    HW2 4428   1.150   0.934   9.372
 1229SOL     OW 4429   1.855   1.511  10.137
 1229SOL    HW1 4430   1.793   1.581  10.115
 1229SOL    HW2 4431   1.845   1.499  10.232
 1230SOL     OW 4432   0.230   1.304  11.167
 1230SOL    HW1 4433   0.154   1.254  11.138
 1230SOL    HW2 4434   0.216   1.317  11.261
 1231SOL     OW 4435   0.132   1.289  10.036
 1231SOL    HW1 4436   0.146   1.234  10.114
 1231SOL    HW2 4437   0.106   1.227   9.968
 1232SOL     OW 4438   0.684   1.408  10.941
 1232SOL    HW1 4439   0.605   1.366  10.973
 1232SOL    HW2 4440   0.681   1.496  10.979
 1233SOL     OW 4441   1.809   0.183  10.545
 1233SOL    HW1 4442   1.812   0.089  10.563
 1233SOL    HW2 4443   1.825   0.191  10.451
 1234SOL     OW 4444   0.447   0.439   9.841
 1234SOL    HW1 4445   0.475   0.362   9.790
 1234SOL    HW2 4446   0.392   0.403   9.910
 1235SOL     OW 4447   1.700   1.503  10.407
 1235SOL    HW1 4448   1.622   1.478  10.357
 1235SOL    HW2 4449   1.713   1.431  10.469
 1236SOL     OW 4450   0.336   0.561  10.604
 1236SOL    HW1 4451   0.391   0.504  10.658
 1236SOL    HW2 4452   0.351   0.531  10.514
 1237SOL     OW 4453   0.831   1.581   9.985
 1237SOL    HW1 4454   0.813   1.648   9.919
 1237SOL    HW2 4455   0.756   1.522   9.980
 1238SOL     OW 4456   1.459   0.257  10.420
 1238SOL    HW1 4457   1.479   0.171  10.457
 1238SOL    HW2 4458   1.404   0.299  10.487
 1239SOL     OW 4459   1.000   0.024  10.455
 1239SOL    HW1 4460   0.917   0.005  10.412
 1239SOL    HW2 4461   1.043   3.940  10.463
 1240SOL     OW 4462   0.773   1.333   9.630
 1240SOL    HW1 4463   0.748   1.241   9.639
 1240SOL    HW2 4464   0.853   1.341   9.681
 1241SOL     OW 4465   0.621   1.558  10.598
 1241SOL    HW1 4466   0.622   1.641  10.646
 1241SOL    HW2 4467   0.709   1.551  10.561
 1242SOL     OW 4468   1.306   0.072   9.479
 1242SOL    HW1 4469   1.314   3.985   9.440
 1242SOL    HW2 4470   1.224   0.070   9.528
 1243SOL     OW 4471   1.277   0.456   9.993
 1243SOL    HW1 4472   1.232   0.540   9.987
 1243SOL    HW2 4473   1.281   0.438  10.087
 1244SOL     OW 4474   1.586   0.209  10.179
 1244SOL    HW1 4475   1.537   0.235  10.256
 1244SOL    HW2 4476   1.588   0.288  10.124
 1245SOL     OW 4477   0.047   1.045   9.555
 1245SOL    HW1 4478   0.142   1.030   9.547
 1245SOL    HW2 4479   0.011   0.958   9.573
 1246SOL     OW 4480   0.890   1.661   9.647
 1246SOL    HW1 4481   0.814   1.645   9.590
 1246SOL    HW2 4482   0.863   1.733   9.704
 1247SOL     OW 4483   0.232   0.632  11.287
 1247SOL    HW1 4484   0.138   0.635  11.307
 1247SOL    HW2 4485   0.235   0.600  11.196
 1248SOL     OW 4486   0.223   0.291  12.154
 1248SOL    HW1 4487   0.245   0.251  12.237
 1248SOL    HW2 4488   0.128   0.284  12.148
 1249SOL     OW 4489   0.019   0.384  11.809
 1249SOL    HW1 4490   3.928   0.401  11.830
 1249SOL    HW2 4491   0.024   0.289  11.796
 1250SOL     OW 4492   0.585   1.295  12.373
 1250SOL    HW1 4493   0.499   1.295  12.331
 1250SOL    HW2 4494   0.597   1.385  12.403
 1251SOL     OW 4495   1.538   1.498  11.876
 1251SOL    HW1 4496   1.516   1.476  11.966
 1251SOL    HW2 4497   1.458   1.483  11.827
 1252SOL     OW 4498   1.134   0.699  11.865
 1252SOL    HW1 4499   1.182   0.782  11.854
 1252SOL    HW2 4500   1.086   0.710  11.947
 1253SOL     OW 4501   1.779   0.618  11.392
 1253SOL    HW1 4502   1.751   0.611  11.301
 1253SOL    HW2 4503   1.754   0.534  11.431
 1254SOL     OW 4504   0.747   1.136  12.219
 1254SOL    HW1 4505   0.687   1.174  12.283
 1254SOL    HW2 4506   0.784   1.211  12.173
 1255SOL     OW 4507   0.876   0.764  12.997
 1255SOL    HW1 4508   0.867   0.836  13.060
 1255SOL    HW2 4509   0.897   0.807  12.914
 1256SOL     OW 4510   0.685   0.999  11.816
 1256SOL    HW1 4511   0.752   0.990  11.884
 1256SOL    HW2 4512   0.616   1.052  11.857
 1257SOL     OW 4513   0.714   1.148  12.992
 1257SOL    HW1 4514   0.762   1.225  13.023
 1257SOL    HW2 4515   0.634   1.184  12.952
 1258SOL     OW 4516   0.353   1.398  12.251
 1258SOL    HW1 4517   0.272   1.373  12.206
 1258SOL    HW2 4518   0.398   1.456  12.190
 1259SOL     OW 4519   1.448   1.487  12.536
 1259SOL    HW1 4520   1.492   1.572  12.540
 1259SOL    HW2 4521   1.378   1.493  12.601
 1260SOL     OW 4522   0.460   0.409  12.663
 1260SOL    HW1 4523   0.543   0.362  12.665
 1260SOL    HW2 4524   0.393   0.341  12.669
 1261SOL     OW 4525   1.611   0.451  11.908
 1261SOL    HW1 4526   1.546   0.483  11.845
 1261SOL    HW2 4527   1.621   0.523  11.971
 1262SOL     OW 4528   0.218   1.722  11.627
 1262SOL    HW1 4529   0.241   1.794  11.685
 1262SOL    HW2 4530   0.294   1.713  11.569
 1263SOL     OW 4531   1.137   1.342  12.866
 1263SOL    HW1 4532   1.177   1.336  12.953
 1263SOL    HW2 4533   1.085   1.262  12.857
 1264SOL     OW 4534   0.255   1.454  11.709
 1264SOL    HW1 4535   0.218   1.541  11.695
 1264SOL    HW2 4536   0.190   1.408  11.762
 1265SOL     OW 4537   0.249   1.064  12.055
 1265SOL    HW1 4538   0.270   0.978  12.093
 1265SOL    HW2 4539   0.196   1.107  12.122
 1266SOL     OW 4540   0.607   1.795  12.595
 1266SOL    HW1 4541   0.524   1.777  12.640
 1266SOL    HW2 4542   0.631   1.884  12.624
 1267SOL     OW 4543   0.573   0.988  11.313
 1267SOL    HW1 4544   0.623   1.031  11.244
 1267SOL    HW2 4545   0.613   1.018  11.395
 1268SOL     OW 4546   1.585   0.143  12.626
 1268SOL    HW1 4547   1.617   0.215  12.573
 1268SOL    HW2 4548   1.546   0.185  12.703
 1269SOL     OW 4549   0.143   0.654  11.741
 1269SOL    HW1 4550   0.101   0.568  11.746
 1269SOL    HW2 4551   0.104   0.704  11.813
 1270SOL     OW 4552   0.043   1.587  11.308
 1270SOL    HW1 4553   0.042   1.496  11.338
 1270SOL    HW2 4554   3.955   1.620  11.325
 1271SOL     OW 4555   1.685   0.914  11.814
 1271SOL    HW1 4556   1.772   0.877  11.796
 1271SOL    HW2 4557   1.667   0.969  11.738
 1272SOL     OW 4558   1.651   1.105  11.603
 1272SOL    HW1 4559   1.737   1.105  11.562
 1272SOL    HW2 4560   1.659   1.166  11.676
 1273SOL     OW 4561   0.147   0.755  12.761
 1273SOL    HW1 4562   0.243   0.753  12.753
 1273SOL    HW2 4563   0.128   0.841  12.799
 1274SOL     OW 4564   0.612   1.389  11.910
 1274SOL    HW1 4565   0.567   1.305  11.917
 1274SOL    HW2 4566   0.599   1.416  11.819
 1275SOL     OW 4567   1.280   1.231  12.596
 1275SOL    HW1 4568   1.312   1.165  12.534
 1275SOL    HW2 4569   1.342   1.227  12.669
 1276SOL     OW 4570   0.824   0.006  11.690
 1276SOL    HW1 4571   0.869   0.087  11.664
 1276SOL    HW2 4572   0.731   0.029  11.688
 1277SOL     OW 4573   0.183   0.947  12.453
 1277SOL    HW1 4574   0.271   0.913  12.442
 1277SOL    HW2 4575   0.132   0.907  12.382
 1278SOL     OW 4576   1.532   1.000  11.373
 1278SOL    HW1 4577   1.463   0.943  11.406
 1278SOL    HW2 4578   1.575   1.033  11.452
 1279SOL     OW 4579   1.185   1.813  12.799
 1279SOL    HW1 4580   1.190   1.875  12.725
 1279SOL    HW2 4581   1.202   1.728  12.760
 1280SOL     OW 4582   0.348   0.246  13.026
 1280SOL    HW1 4583   0.391   0.329  13.006
 1280SOL    HW2 4584   0.256   0.269  13.039
 1281SOL     OW 4585   1.470   1.419  12.128
 1281SOL    HW1 4586   1.401   1.435  12.193
 1281SOL    HW2 4587   1.459   1.327  12.103
 1282SOL     OW 4588   1.558   1.731  11.730
 1282SOL    HW1 4589   1.574   1.694  11.643
 1282SOL    HW2 4590   1.564   1.657  11.790
 1283SOL     OW 4591   0.596   0.715  11.442
 1283SOL    HW1 4592   0.601   0.800  11.398
 1283SOL    HW2 4593   0.532   0.728  11.512
 1284SOL     OW 4594   1.274   0.374  12.113
 1284SOL    HW1 4595   1.187   0.335  12.122
 1284SOL    HW2 4596   1.332   0.314  12.160
 1285SOL     OW 4597   1.569   1.645  11.471
 1285SOL    HW1 4598   1.660   1.621  11.455
 1285SOL    HW2 4599   1.529   1.644  11.384
 1286SOL     OW 4600   0.794   0.614  12.623
 1286SOL    HW1 4601   0.765   0.587  12.710
 1286SOL    HW2 4602   0.760   0.547  12.565
 1287SOL     OW 4603   1.392   0.475  12.850
 1287SOL    HW1 4604   1.400   0.521  12.934
 1287SOL    HW2 4605   1.448   0.398  12.860
 1288SOL     OW 4606   0.949   0.886  12.759
 1288SOL    HW1 4607   1.005   0.818  12.720
 1288SOL    HW2 4608   0.900   0.922  12.685
 1289SOL     OW 4609   0.996   0.401  12.405
 1289SOL    HW1 4610   0.908   0.419  12.439
 1289SOL    HW2 4611   0.981   0.375  12.314
 1290SOL     OW 4612   1.054   0.701  11.596
 1290SOL    HW1 4613   1.072   0.695  11.689
 1290SOL    HW2 4614   0.971   0.655  11.585
 1291SOL     OW 4615   0.082   0.832  11.961
 1291SOL    HW1 4616   0.151   0.796  12.017
 1291SOL    HW2 4617   0.110   0.923  11.945
 1292SOL     OW 4618   0.130   1.868  12.755
 1292SOL    HW1 4619   0.138   1.832  12.843
 1292SOL    HW2 4620   0.037   1.860  12.734
 1293SOL     OW 4621   0.895   0.353  11.371
 1293SOL    HW1 4622   0.937   0.414  11.311
 1293SOL    HW2 4623   0.890   0.270  11.323
 1294SOL     OW 4624   1.703   0.575  13.001
 1294SOL    HW1 4625   1.668   0.649  12.951
 1294SOL    HW2 4626   1.728   0.511  12.934
 1295SOL     OW 4627   1.381   1.141  11.710
 1295SOL    HW1 4628   1.462   1.133  11.659
 1295SOL    HW2 4629   1.326   1.199  11.658
 1296SOL     OW 4630   0.564   0.195  12.051
 1296SOL    HW1 4631   0.568   0.221  12.143
 1296SOL    HW2 4632   0.547   0.277  12.004
 1297SOL     OW 4633   0.992   1.439  11.638
 1297SOL    HW1 4634   0.967   1.517  11.589
 1297SOL    HW2 4635   0.976   1.462  11.730
 1298SOL     OW 4636   0.363   1.829  12.047
 1298SOL    HW1 4637   0.422   1.754  12.058
 1298SOL    HW2 4638   0.419   1.906  12.061
 1299SOL     OW 4639   1.802   1.043  12.049
 1299SOL    HW1 4640   1.750   1.041  11.969
 1299SOL    HW2 4641   1.738   1.053  12.119
 1300SOL     OW 4642   1.222   1.538  12.687
 1300SOL    HW1 4643   1.209   1.466  12.749
 1300SOL    HW2 4644   1.154   1.525  12.621
 1301SOL     OW 4645   0.310   0.950  11.415
 1301SOL    HW1 4646   0.393   0.972  11.372
 1301SOL    HW2 4647   0.299   0.857  11.398
 1302SOL     OW 4648   1.479   0.752  11.899
 1302SOL    HW1 4649   1.479   0.713  11.986
 1302SOL    HW2 4650   1.558   0.807  11.898
 1303SOL     OW 4651   0.472   1.262  12.910
 1303SOL    HW1 4652   0.446   1.269  12.818
 1303SOL    HW2 4653   0.389   1.263  12.958
 1304SOL     OW 4654   1.124   1.778  11.399
 1304SOL    HW1 4655   1.048   1.739  11.444
 1304SOL    HW2 4656   1.147   1.714  11.332
 1305SOL     OW 4657   0.203   0.292  12.674
 1305SOL    HW1 4658   0.109   0.310  12.675
 1305SOL    HW2 4659   0.212   0.212  12.726
 1306SOL     OW 4660   1.632   1.387  11.263
 1306SOL    HW1 4661   1.587   1.468  11.241
 1306SOL    HW2 4662   1.568   1.318  11.244
 1307SOL     OW 4663   0.465   1.739  11.486
 1307SOL    HW1 4664   0.510   1.794  11.551
 1307SOL    HW2 4665   0.536   1.700  11.434
 1308SOL     OW 4666   1.446   0.175  11.579
 1308SOL    HW1 4667   1.393   0.106  11.540
 1308SOL    HW2 4668   1.512   0.128  11.630
 1309SOL     OW 4669   0.256   1.790  12.401
 1309SOL    HW1 4670   0.298   1.720  12.451
 1309SOL    HW2 4671   0.253   1.757  12.311
 1310SOL     OW 4672   0.940   1.700  12.068
 1310SOL    HW1 4673   1.019   1.651  12.089
 1310SOL    HW2 4674   0.899   1.650  11.998
 1311SOL     OW 4675   0.399   0.695  11.642
 1311SOL    HW1 4676   0.424   0.603  11.658
 1311SOL    HW2 4677   0.307   0.700  11.667
 1312SOL     OW 4678   1.529   0.226  12.897
 1312SOL    HW1 4679   1.521   0.251  12.989
 1312SOL    HW2 4680   1.518   0.131  12.897
 1313SOL     OW 4681   0.647   0.125  11.276
 1313SOL    HW1 4682   0.666   0.039  11.314
 1313SOL    HW2 4683   0.587   0.107  11.204
 1314SOL     OW 4684   0.773   0.288  12.945
 1314SOL    HW1 4685   0.853   0.236  12.944
 1314SOL    HW2 4686   0.721   0.250  13.016
 1315SOL     OW 4687   0.875   1.523  12.367
 1315SOL    HW1 4688   0.858   1.485  12.281
 1315SOL    HW2 4689   0.944   1.468  12.404
 1316SOL     OW 4690   1.337   0.588  12.604
 1316SOL    HW1 4691   1.369   0.559  12.689
 1316SOL    HW2 4692   1.373   0.676  12.593
 1317SOL     OW 4693   0.818   1.388  12.118
 1317SOL    HW1 4694   0.904   1.378  12.076
 1317SOL    HW2 4695   0.757   1.395  12.044
 1318SOL     OW 4696   0.931   0.513  12.069
 1318SOL    HW1 4697   0.906   0.504  11.977
 1318SOL    HW2 4698   0.955   0.424  12.097
 1319SOL     OW 4699   0.548   0.055  11.659
 1319SOL    HW1 4700   0.475   0.062  11.720
 1319SOL    HW2 4701   0.548   0.138  11.612
 1320SOL     OW 4702   1.431   1.202  11.212
 1320SOL    HW1 4703   1.460   1.126  11.263
 1320SOL    HW2 4704   1.345   1.224  11.248
 1321SOL     OW 4705   0.357   0.029  11.373
 1321SOL    HW1 4706   0.354   0.089  11.298
 1321SOL    HW2 4707   0.445   0.039  11.409
 1322SOL     OW 4708   0.946   0.252  11.629
 1322SOL    HW1 4709   0.920   0.290  11.545
 1322SOL    HW2 4710   1.042   0.259  11.630
 1323SOL     OW 4711   1.079   0.687  12.628
 1323SOL    HW1 4712   1.011   0.619  12.634
 1323SOL    HW2 4713   1.161   0.638  12.623
 1324SOL     OW 4714   1.220   1.571  11.966
 1324SOL    HW1 4715   1.230   1.638  11.898
 1324SOL    HW2 4716   1.289   1.591  12.029
 1325SOL     OW 4717   0.467   1.152  11.903
 1325SOL    HW1 4718   0.397   1.125  11.963
 1325SOL    HW2 4719   0.430   1.137  11.816
 1326SOL     OW 4720   1.251   1.788  11.787
 1326SOL    HW1 4721   1.307   1.847  11.739
 1326SOL    HW2 4722   1.185   1.844  11.828
 1327SOL     OW 4723   1.021   0.538  11.204
 1327SOL    HW1 4724   0.978   0.621  11.184
 1327SOL    HW2 4725   1.085   0.559  11.272
 1328SOL     OW 4726   0.083   0.577  12.564
 1328SOL    HW1 4727   0.172   0.558  12.534
 1328SOL    HW2 4728   0.093   0.647  12.628
 1329SOL     OW 4729   0.571   0.231  12.330
 1329SOL    HW1 4730   0.592   0.137  12.339
 1329SOL    HW2 4731   0.481   0.238  12.360
 1330SOL     OW 4732   0.871   0.460  11.809
 1330SOL    HW1 4733   0.822   0.514  11.746
 1330SOL    HW2 4734   0.892   0.381  11.760
 1331SOL     OW 4735   0.998   0.036  11.955
 1331SOL    HW1 4736   0.957   0.069  11.875
 1331SOL    HW2 4737   1.010   3.943  11.939
 1332SOL     OW 4738   1.442   1.162  12.031
 1332SOL    HW1 4739   1.370   1.100  12.025
 1332SOL    HW2 4740   1.474   1.171  11.941
 1333SOL     OW 4741   1.464   0.610  12.141
 1333SOL    HW1 4742   1.407   0.533  12.146
 1333SOL    HW2 4743   1.522   0.602  12.217
 1334SOL     OW 4744   1.841   0.816  11.563
 1334SOL    HW1 4745   1.900   0.765  11.619
 1334SOL    HW2 4746   1.817   0.755  11.493
 1335SOL     OW 4747   0.487   1.424  11.329
 1335SOL    HW1 4748   0.411   1.394  11.379
 1335SOL    HW2 4749   0.478   1.384  11.243
 1336SOL     OW 4750   1.676   1.257  11.823
 1336SOL    HW1 4751   1.771   1.255  11.835
 1336SOL    HW2 4752   1.652   1.347  11.844
 1337SOL     OW 4753   1.395   0.579  11.239
 1337SOL    HW1 4754   1.332   0.559  11.309
 1337SOL    HW2 4755   1.481   0.562  11.279
 1338SOL     OW 4756   0.555   0.270  11.489
 1338SOL    HW1 4757   0.607   0.230  11.419
 1338SOL    HW2 4758   0.527   0.354  11.453
 1339SOL     OW 4759   1.747   1.237  12.737
 1339SOL    HW1 4760   1.834   1.199  12.728
 1339SOL    HW2 4761   1.762   1.327  12.765
 1340SOL     OW 4762   1.052   1.353  12.506
 1340SOL    HW1 4763   0.976   1.321  12.554
 1340SOL    HW2 4764   1.127   1.310  12.546
 1341SOL     OW 4765   1.601   1.625  12.828
 1341SOL    HW1 4766   1.582   1.653  12.738
 1341SOL    HW2 4767   1.684   1.577  12.820
 1342SOL     OW 4768   1.136   1.213  12.274
 1342SOL    HW1 4769   1.073   1.248  12.337
 1342SOL    HW2 4770   1.106   1.246  12.190
 1343SOL     OW 4771   1.621   1.092  12.247
 1343SOL    HW1 4772   1.614   1.157  12.317
 1343SOL    HW2 4773   1.548   1.113  12.189
 1344SOL     OW 4774   0.911   0.121  12.572
 1344SOL    HW1 4775   0.931   0.090  12.484
 1344SOL    HW2 4776   0.993   0.161  12.603
 1345SOL     OW 4777   0.984   1.115  12.896
 1345SOL    HW1 4778   0.893   1.132  12.919
 1345SOL    HW2 4779   0.981   1.037  12.841
 1346SOL     OW 4780   0.708   1.062  11.543
 1346SOL    HW1 4781   0.694   1.043  11.636
 1346SOL    HW2 4782   0.784   1.009  11.518
 1347SOL     OW 4783   0.424   0.820  12.426
 1347SOL    HW1 4784   0.493   0.826  12.493
 1347SOL    HW2 4785   0.390   0.731  12.435
 1348SOL     OW 4786   1.265   0.374  12.451
 1348SOL    HW1 4787   1.298   0.453  12.495
 1348SOL    HW2 4788   1.177   0.398  12.422
 1349SOL     OW 4789   0.064   1.578  12.516
 1349SOL    HW1 4790   0.069   1.613  12.426
 1349SOL    HW2 4791   0.156   1.573  12.544
 1350SOL     OW 4792   0.363   1.104  11.651
 1350SOL    HW1 4793   0.360   1.184  11.599
 1350SOL    HW2 4794   0.363   1.033  11.587
 1351SOL     OW 4795   0.554   0.529  12.027
 1351SOL    HW1 4796   0.565   0.589  11.954
 1351SOL    HW2 4797   0.619   0.556  12.091
 1352SOL     OW 4798   1.234   1.332  11.559
 1352SOL    HW1 4799   1.286   1.408  11.585
 1352SOL    HW2 4800   1.146   1.351  11.592
 1353SOL     OW 4801   1.283   1.462  12.320
 1353SOL    HW1 4802   1.338   1.463  12.398
 1353SOL    HW2 4803   1.229   1.384  12.329
 1354SOL     OW 4804   1.571   0.636  11.662
 1354SOL    HW1 4805   1.526   0.686  11.730
 1354SOL    HW2 4806   1.620   0.702  11.612
 1355SOL     OW 4807   0.346   1.528  12.489
 1355SOL    HW1 4808   0.336   1.476  12.409
 1355SOL    HW2 4809   0.440   1.543  12.497
 1356SOL     OW 4810   0.422   0.735  12.773
 1356SOL    HW1 4811   0.486   0.780  12.718
 1356SOL    HW2 4812   0.457   0.647  12.785
 1357SOL     OW 4813   1.608   0.784  12.859
 1357SOL    HW1 4814   1.522   0.825  12.852
 1357SOL    HW2 4815   1.660   0.824  12.790
 1358SOL     OW 4816   1.005   0.145  12.955
 1358SOL    HW1 4817   1.065   0.212  12.923
 1358SOL    HW2 4818   0.997   0.083  12.882
 1359SOL     OW 4819   0.487   0.037  12.934
 1359SOL    HW1 4820   0.490   0.051  12.840
 1359SOL    HW2 4821   0.424   0.101  12.967
 1360SOL     OW 4822   0.586   0.876  12.204
 1360SOL    HW1 4823   0.621   0.965  12.208
 1360SOL    HW2 4824   0.530   0.869  12.282
 1361SOL     OW 4825   1.345   0.858  12.194
 1361SOL    HW1 4826   1.259   0.842  12.154
 1361SOL    HW2 4827   1.392   0.775  12.184
 1362SOL     OW 4828   1.197   0.539  11.426
 1362SOL    HW1 4829   1.206   0.460  11.479
 1362SOL    HW2 4830   1.155   0.603  11.484
 1363SOL     OW 4831   0.310   0.211  12.410
 1363SOL    HW1 4832   0.265   0.248  12.486
 1363SOL    HW2 4833   0.296   0.116  12.417
 1364SOL     OW 4834   0.065   1.305  12.453
 1364SOL    HW1 4835   0.093   1.261  12.532
 1364SOL    HW2 4836   0.054   1.397  12.478
 1365SOL     OW 4837   0.722   0.632  12.221
 1365SOL    HW1 4838   0.798   0.621  12.164
 1365SOL    HW2 4839   0.692   0.721  12.202
 1366SOL     OW 4840   1.741   0.958  13.032
 1366SOL    HW1 4841   1.697   0.892  12.978
 1366SOL    HW2 4842   1.680   0.976  13.103
 1367SOL     OW 4843   0.336   0.053  11.834
 1367SOL    HW1 4844   0.306   0.144  11.835
 1367SOL    HW2 4845   0.303   0.016  11.915
 1368SOL     OW 4846   1.611   0.397  11.548
 1368SOL    HW1 4847   1.562   0.330  11.595
 1368SOL    HW2 4848   1.590   0.478  11.595
 1369SOL     OW 4849   1.031   0.760  12.129
 1369SOL    HW1 4850   1.021   0.776  12.223
 1369SOL    HW2 4851   1.003   0.669  12.117
 1370SOL     OW 4852   0.981   1.567  12.894
 1370SOL    HW1 4853   0.965   1.610  12.810
 1370SOL    HW2 4854   1.024   1.484  12.870
 1371SOL     OW 4855   1.846   1.495  12.777
 1371SOL    HW1 4856   1.878   1.515  12.689
 1371SOL    HW2 4857   1.920   1.515  12.834
 1372SOL     OW 4858   0.357   0.922  12.970
 1372SOL    HW1 4859   0.434   0.943  13.022
 1372SOL    HW2 4860   0.386   0.854  12.909
 1373SOL     OW 4861   1.500   0.271  11.303
 1373SOL    HW1 4862   1.429   0.208  11.316
 1373SOL    HW2 4863   1.512   0.311  11.390
 1374SOL     OW 4864   1.285   0.827  11.198
 1374SOL    HW1 4865   1.327   0.741  11.202
 1374SOL    HW2 4866   1.317   0.866  11.117
 1375SOL     OW 4867   1.069   1.340  12.030
 1375SOL    HW1 4868   1.074   1.268  11.967
 1375SOL    HW2 4869   1.127   1.407  11.994
 1376SOL     OW 4870   0.313   0.801  12.122
 1376SOL    HW1 4871   0.408   0.817  12.116
 1376SOL    HW2 4872   0.306   0.711  12.154
 1377SOL     OW 4873   0.340   0.529  12.189
 1377SOL    HW1 4874   0.297   0.445  12.171
 1377SOL    HW2 4875   0.415   0.531  12.129
 1378SOL     OW 4876   1.135   0.379  12.873
 1378SOL    HW1 4877   1.086   0.433  12.935
 1378SOL    HW2 4878   1.221   0.419  12.868
 1379SOL     OW 4879   1.152   0.225  12.655
 1379SOL    HW1 4880   1.142   0.278  12.734
 1379SOL    HW2 4881   1.181   0.286  12.587
 1380SOL     OW 4882   0.002   1.313  11.355
 1380SOL    HW1 4883   3.908   1.330  11.357
 1380SOL    HW2 4884   0.010   1.220  11.373
 1381SOL     OW 4885   0.081   1.798  12.058
 1381SOL    HW1 4886   0.092   1.703  12.055
 1381SOL    HW2 4887   0.170   1.833  12.064
 1382SOL     OW 4888   0.493   1.572  12.080
 1382SOL    HW1 4889   0.562   1.633  12.106
 1382SOL    HW2 4890   0.537   1.509  12.022
 1383SOL     OW 4891   0.971   0.786  12.394
 1383SOL    HW1 4892   1.029   0.769  12.468
 1383SOL    HW2 4893   0.888   0.745  12.418
 1384SOL     OW 4894   0.034   0.583  12.283
 1384SOL    HW1 4895   0.087   0.523  12.233
 1384SOL    HW2 4896   0.061   0.570  12.374
 1385SOL     OW 4897   0.211   0.514  12.894
 1385SOL    HW1 4898   0.254   0.470  12.820
 1385SOL    HW2 4899   0.170   0.591  12.855
 1386SOL     OW 4900   1.380   0.933  12.827
 1386SOL    HW1 4901   1.402   1.027  12.823
 1386SOL    HW2 4902   1.376   0.906  12.735
 1387SOL     OW 4903   0.819   0.572  11.538
 1387SOL    HW1 4904   0.826   0.496  11.480
 1387SOL    HW2 4905   0.744   0.621  11.505
 1388SOL     OW 4906   1.638   0.602  12.351
 1388SOL    HW1 4907   1.630   0.541  12.425
 1388SOL    HW2 4908   1.726   0.586  12.317
 1389SOL     OW 4909   0.302   1.543  12.891
 1389SOL    HW1 4910   0.256   1.612  12.940
 1389SOL    HW2 4911   0.275   1.462  12.934
 1390SOL     OW 4912   0.719   0.449  12.422
 1390SOL    HW1 4913   0.666   0.373  12.399
 1390SOL    HW2 4914   0.706   0.510  12.349
 1391SOL     OW 4915   0.921   1.679  12.644
 1391SOL    HW1 4916   0.897   1.639  12.561
 1391SOL    HW2 4917   0.915   1.773  12.628
 1392SOL     OW 4918   0.450   0.493  11.372
 1392SOL    HW1 4919   0.514   0.562  11.390
 1392SOL    HW2 4920   0.370   0.539  11.347
 1393SOL     OW 4921   0.153   1.133  12.649
 1393SOL    HW1 4922   0.153   1.083  12.731
 1393SOL    HW2 4923   0.168   1.068  12.581
 1394SOL     OW 4924   1.318   1.042  12.392
 1394SOL    HW1 4925   1.340   0.980  12.323
 1394SOL    HW2 4926   1.254   1.101  12.351
 1395SOL     OW 4927   1.318   0.856  11.474
 1395SOL    HW1 4928   1.243   0.827  11.527
 1395SOL    HW2 4929   1.289   0.844  11.384
 1396SOL     OW 4930   1.244   1.736  12.276
 1396SOL    HW1 4931   1.328   1.758  12.236
 1396SOL    HW2 4932   1.251   1.643  12.297
 1397SOL     OW 4933   0.080   1.217  12.199
 1397SOL    HW1 4934   0.086   1.242  12.291
 1397SOL    HW2 4935   3.988   1.229  12.177
 1398SOL     OW 4936   0.681   1.671  12.912
 1398SOL    HW1 4937   0.620   1.743  12.901
 1398SOL    HW2 4938   0.750   1.688  12.848
 1399SOL     OW 4939   1.718   0.122  11.664
 1399SOL    HW1 4940   1.794   0.134  11.608
 1399SOL    HW2 4941   1.706   0.027  11.669
 1400SOL     OW 4942   1.355   1.556  11.641
 1400SOL    HW1 4943   1.422   1.588  11.581
 1400SOL    HW2 4944   1.321   1.635  11.684
 1401SOL     OW 4945   0.178   1.759  13.005
 1401SOL    HW1 4946   0.122   1.706  13.061
 1401SOL    HW2 4947   0.218   1.823  13.064
 1402SOL     OW 4948   1.277   0.930  11.843
 1402SOL    HW1 4949   1.351   0.871  11.857
 1402SOL    HW2 4950   1.313   1.001  11.789
 1403SOL     OW 4951   0.802   1.275  12.596
 1403SOL    HW1 4952   0.774   1.318  12.676
 1403SOL    HW2 4953   0.730   1.289  12.534
 1404SOL     OW 4954   0.669   1.626  11.328
 1404SOL    HW1 4955   0.682   1.639  11.234
 1404SOL    HW2 4956   0.614   1.548  11.334
 1405SOL     OW 4957   1.570   1.726  12.558
 1405SOL    HW1 4958   1.632   1.724  12.485
 1405SOL    HW2 4959   1.555   1.819  12.574
 1406SOL     OW 4960   1.840   0.179  12.135
 1406SOL    HW1 4961   1.872   0.120  12.068
 1406SOL    HW2 4962   1.750   0.198  12.109
 1407SOL     OW 4963   0.277   0.321  11.885
 1407SOL    HW1 4964   0.192   0.355  11.857
 1407SOL    HW2 4965   0.268   0.308  11.979
 1408SOL     OW 4966   1.205   1.600  11.205
 1408SOL    HW1 4967   1.195   1.509  11.231
 1408SOL    HW2 4968   1.139   1.613  11.137
 1409SOL     OW 4969   0.823   1.006  12.548
 1409SOL    HW1 4970   0.866   0.999  12.462
 1409SOL    HW2 4971   0.819   1.100  12.565
 1410SOL     OW 4972   0.915   0.911  11.463
 1410SOL    HW1 4973   0.975   0.944  11.396
 1410SOL    HW2 4974   0.965   0.843  11.509
 1411SOL     OW 4975   1.482   1.627  11.212
 1411SOL    HW1 4976   1.388   1.618  11.195
 1411SOL    HW2 4977   1.521   1.634  11.125
 1412SOL     OW 4978   0.374   1.302  12.664
 1412SOL    HW1 4979   0.358   1.382  12.614
 1412SOL    HW2 4980   0.297   1.247  12.646
 1413SOL     OW 4981   1.603   1.280  12.447
 1413SOL    HW1 4982   1.669   1.268  12.515
 1413SOL    HW2 4983   1.543   1.345  12.482
 1414SOL     OW 4984   1.062   1.111  11.884
 1414SOL    HW1 4985   0.989   1.060  11.920
 1414SOL    HW2 4986   1.126   1.046  11.857
 1415SOL     OW 4987   1.015   0.251  12.144
 1415SOL    HW1 4988   1.006   0.200  12.063
 1415SOL    HW2 4989   1.014   0.185  12.214
 1416SOL     OW 4990   0.608   1.487  11.654
 1416SOL    HW1 4991   0.656   1.438  11.588
 1416SOL    HW2 4992   0.530   1.519  11.609
 1417SOL     OW 4993   1.722   0.395  12.542
 1417SOL    HW1 4994   1.795   0.457  12.548
 1417SOL    HW2 4995   1.754   0.324  12.488
 1418SOL     OW 4996   0.255   1.340  11.466
 1418SOL    HW1 4997   0.161   1.343  11.449
 1418SOL    HW2 4998   0.266   1.382  11.552
 1419SOL     OW 4999   0.111   0.998  12.891
 1419SOL    HW1 5000   0.051   0.993  12.966
 1419SOL    HW2 5001   0.197   0.980  12.927
 1420SOL     OW 5002   0.694   0.261  12.677
 1420SOL    HW1 5003   0.762   0.207  12.635
 1420SOL    HW2 5004   0.723   0.268  12.768
 1421SOL     OW 5005   0.088   0.313  11.194
 1421SOL    HW1 5006   3.993   0.315  11.188
 1421SOL    HW2 5007   0.116   0.397  11.155
 1422SOL     OW 5008   1.424   0.855  12.568
 1422SOL    HW1 5009   1.374   0.917  12.514
 1422SOL    HW2 5010   1.512   0.858  12.532
 1423SOL     OW 5011   0.033   0.177  11.455
 1423SOL    HW1 5012   0.037   0.222  11.370
 1423SOL    HW2 5013   0.107   0.212  11.504
 1424SOL     OW 5014   1.176   1.333  11.287
 1424SOL    HW1 5015   1.085   1.304  11.286
 1424SOL    HW2 5016   1.201   1.330  11.380
 1425SOL     OW 5017   0.623   0.828  12.610
 1425SOL    HW1 5018   0.680   0.903  12.594
 1425SOL    HW2 5019   0.683   0.754  12.617
 1426SOL     OW 5020   1.491   1.787  12.156
 1426SOL    HW1 5021   1.515   1.861  12.100
 1426SOL    HW2 5022   1.567   1.730  12.153
 1427SOL     OW 5023   0.718   0.559  12.878
 1427SOL    HW1 5024   0.765   0.620  12.936
 1427SOL    HW2 5025   0.740   0.472  12.911
 1428SOL     OW 5026   1.473   1.193  12.801
 1428SOL    HW1 5027   1.463   1.209  12.895
 1428SOL    HW2 5028   1.565   1.211  12.783
 1429SOL     OW 5029   0.376   1.745  12.727
 1429SOL    HW1 5030   0.289   1.784  12.716
 1429SOL    HW2 5031   0.360   1.662  12.771
 1430SOL     OW 5032   1.663   0.879  12.428
 1430SOL    HW1 5033   1.660   0.795  12.384
 1430SOL    HW2 5034   1.653   0.943  12.357
 1431SOL     OW 5035   1.221   0.340  11.611
 1431SOL    HW1 5036   1.290   0.274  11.604
 1431SOL    HW2 5037   1.238   0.383  11.695
 1432SOL     OW 5038   0.588   0.736  11.846
 1432SOL    HW1 5039   0.627   0.822  11.830
 1432SOL    HW2 5040   0.522   0.726  11.777
 1433SOL     OW 5041   1.748   0.384  12.815
 1433SOL    HW1 5042   1.731   0.390  12.721
 1433SOL    HW2 5043   1.690   0.314  12.845
 1434SOL     OW 5044   1.750   0.934  12.682
 1434SOL    HW1 5045   1.735   1.027  12.695
 1434SOL    HW2 5046   1.731   0.919  12.590
 1435SOL     OW 5047   0.864   1.364  11.216
 1435SOL    HW1 5048   0.826   1.391  11.299
 1435SOL    HW2 5049   0.879   1.446  11.168
 1436SOL     OW 5050   0.664   1.783  12.111
 1436SOL    HW1 5051   0.645   1.875  12.091
 1436SOL    HW2 5052   0.759   1.776  12.104
 1437SOL     OW 5053   0.870   0.970  12.024
 1437SOL    HW1 5054   0.920   0.898  12.061
 1437SOL    HW2 5055   0.831   1.014  12.100
 1438SOL     OW 5056   1.075   0.988  11.261
 1438SOL    HW1 5057   1.055   1.041  11.184
 1438SOL    HW2 5058   1.149   0.934  11.234
 1439SOL     OW 5059   1.855   1.510  12.001
 1439SOL    HW1 5060   1.805   1.590  11.983
 1439SOL    HW2 5061   1.842   1.495  12.094
 1440SOL     OW 5062   0.231   1.304  13.029
 1440SOL    HW1 5063   0.153   1.256  13.001
 1440SOL    HW2 5064   0.218   1.317  13.123
 1441SOL     OW 5065   0.132   1.289  11.898
 1441SOL    HW1 5066   0.146   1.234  11.976
 1441SOL    HW2 5067   0.106   1.227  11.830
 1442SOL     OW 5068   0.684   1.408  12.803
 1442SOL    HW1 5069   0.605   1.366  12.835
 1442SOL    HW2 5070   0.681   1.496  12.840
 1443SOL     OW 5071   1.809   0.183  12.407
 1443SOL    HW1 5072   1.812   0.089  12.425
 1443SOL    HW2 5073   1.825   0.191  12.313
 1444SOL     OW 5074   0.447   0.439  11.703
 1444SOL    HW1 5075   0.475   0.362  11.652
 1444SOL    HW2 5076   0.392   0.403  11.772
 1445SOL     OW 5077   1.701   1.503  12.267
 1445SOL    HW1 5078   1.623   1.478  12.217
 1445SOL    HW2 5079   1.713   1.431  12.330
 1446SOL     OW 5080   0.336   0.561  12.466
 1446SOL    HW1 5081   0.391   0.504  12.520
 1446SOL    HW2 5082   0.351   0.531  12.376
 1447SOL     OW 5083   0.831   1.582  11.847
 1447SOL    HW1 5084   0.813   1.648  11.780
 1447SOL    HW2 5085   0.756   1.522  11.842
 1448SOL     OW 5086   1.459   0.257  12.282
 1448SOL    HW1 5087   1.479   0.171  12.319
 1448SOL    HW2 5088   1.404   0.299  12.349
 1449SOL     OW 5089   1.000   0.024  12.317
 1449SOL    HW1 5090   0.917   0.005  12.274
 1449SOL    HW2 5091   1.044   3.940  12.325
 1450SOL     OW 5092   0.773   1.333  11.492
 1450SOL    HW1 5093   0.748   1.241  11.501
 1450SOL    HW2 5094   0.854   1.341  11.543
 1451SOL     OW 5095   0.621   1.558  12.460
 1451SOL    HW1 5096   0.621   1.641  12.508
 1451SOL    HW2 5097   0.709   1.551  12.423
 1452SOL     OW 5098   1.306   0.072  11.341
 1452SOL    HW1 5099   1.314   3.985  11.302
 1452SOL    HW2 5100   1.224   0.069  11.390
 1453SOL     OW 5101   1.277   0.456  11.855
 1453SOL    HW1 5102   1.232   0.540  11.849
 1453SOL    HW2 5103   1.281   0.438  11.949
 1454SOL     OW 5104   1.586   0.209  12.041
 1454SOL    HW1 5105   1.537   0.235  12.118
 1454SOL    HW2 5106   1.588   0.288  11.986
 1455SOL     OW 5107   0.047   1.045  11.417
 1455SOL    HW1 5108   0.142   1.030  11.409
 1455SOL    HW2 5109   0.011   0.958  11.435
 1456SOL     OW 5110   0.890   1.661  11.509
 1456SOL    HW1 5111   0.814   1.645  11.452
 1456SOL    HW2 5112   0.863   1.733  11.566
 1457SOL     OW 5113   0.229   0.632  13.149
 1457SOL    HW1 5114   0.136   0.634  13.169
 1457SOL    HW2 5115   0.234   0.601  13.059
 1458SOL     OW 5116   0.288   0.255   0.139
 1458SOL    HW1 5117   0.339   0.327   0.176
 1458SOL    HW2 5118   0.208   0.297   0.106
 1459SOL     OW 5119   0.022   0.376  13.666
 1459SOL    HW1 5120   3.934   0.403  13.638
 1459SOL    HW2 5121   0.027   0.284  13.644
 1460SOL     OW 5122   1.502   1.470  13.722
 1460SOL    HW1 5123   1.457   1.396  13.763
 1460SOL    HW2 5124   1.450   1.489  13.644
 1461SOL     OW 5125   1.134   0.696  13.726
 1461SOL    HW1 5126   1.185   0.775  13.708
 1461SOL    HW2 5127   1.075   0.722  13.797
 1462SOL     OW 5128   1.784   0.616  13.251
 1462SOL    HW1 5129   1.753   0.612  13.160
 1462SOL    HW2 5130   1.761   0.531  13.289
 1463SOL     OW 5131   0.689   1.011  13.670
 1463SOL    HW1 5132   0.739   0.993  13.749
 1463SOL    HW2 5133   0.614   1.064  13.700
 1464SOL     OW 5134   1.610   0.450  13.751
 1464SOL    HW1 5135   1.522   0.469  13.718
 1464SOL    HW2 5136   1.640   0.534  13.787
 1465SOL     OW 5137   0.217   1.714  13.484
 1465SOL    HW1 5138   0.236   1.787  13.543
 1465SOL    HW2 5139   0.293   1.708  13.427
 1466SOL     OW 5140   0.253   1.446  13.571
 1466SOL    HW1 5141   0.224   1.537  13.559
 1466SOL    HW2 5142   0.189   1.408  13.631
 1467SOL     OW 5143   0.259   1.071   0.013
 1467SOL    HW1 5144   0.275   1.036   0.101
 1467SOL    HW2 5145   0.218   1.157   0.029
 1468SOL     OW 5146   0.572   0.988  13.173
 1468SOL    HW1 5147   0.622   1.031  13.103
 1468SOL    HW2 5148   0.612   1.019  13.254
 1469SOL     OW 5149   0.149   0.658  13.609
 1469SOL    HW1 5150   0.091   0.582  13.600
 1469SOL    HW2 5151   0.103   0.718  13.667
 1470SOL     OW 5152   0.044   1.588  13.170
 1470SOL    HW1 5153   0.041   1.497  13.201
 1470SOL    HW2 5154   3.957   1.623  13.192
 1471SOL     OW 5155   1.684   0.914  13.664
 1471SOL    HW1 5156   1.769   0.879  13.640
 1471SOL    HW2 5157   1.660   0.973  13.592
 1472SOL     OW 5158   1.649   1.101  13.456
 1472SOL    HW1 5159   1.736   1.100  13.414
 1472SOL    HW2 5160   1.658   1.164  13.528
 1473SOL     OW 5161   0.617   1.386  13.759
 1473SOL    HW1 5162   0.565   1.308  13.777
 1473SOL    HW2 5163   0.584   1.417  13.674
 1474SOL     OW 5164   0.825   0.007  13.548
 1474SOL    HW1 5165   0.867   0.089  13.522
 1474SOL    HW2 5166   0.731   0.026  13.543
 1475SOL     OW 5167   1.530   0.997  13.232
 1475SOL    HW1 5168   1.461   0.939  13.266
 1475SOL    HW2 5169   1.572   1.032  13.310
 1476SOL     OW 5170   1.568   1.729  13.602
 1476SOL    HW1 5171   1.575   1.705  13.509
 1476SOL    HW2 5172   1.574   1.645  13.648
 1477SOL     OW 5173   0.594   0.716  13.299
 1477SOL    HW1 5174   0.598   0.801  13.255
 1477SOL    HW2 5175   0.531   0.729  13.370
 1478SOL     OW 5176   1.232   0.341   0.049
 1478SOL    HW1 5177   1.144   0.332   0.087
 1478SOL    HW2 5178   1.287   0.289   0.107
 1479SOL     OW 5179   1.569   1.656  13.336
 1479SOL    HW1 5180   1.659   1.626  13.322
 1479SOL    HW2 5181   1.530   1.653  13.249
 1480SOL     OW 5182   1.052   0.697  13.457
 1480SOL    HW1 5183   1.069   0.684  13.550
 1480SOL    HW2 5184   0.969   0.652  13.441
 1481SOL     OW 5185   0.076   0.847  13.807
 1481SOL    HW1 5186   0.151   0.824  13.861
 1481SOL    HW2 5187   0.079   0.943  13.801
 1482SOL     OW 5188   0.895   0.351  13.232
 1482SOL    HW1 5189   0.937   0.413  13.172
 1482SOL    HW2 5190   0.891   0.269  13.183
 1483SOL     OW 5191   1.365   1.134  13.548
 1483SOL    HW1 5192   1.454   1.135  13.512
 1483SOL    HW2 5193   1.318   1.201  13.499
 1484SOL     OW 5194   0.990   1.436  13.498
 1484SOL    HW1 5195   0.968   1.515  13.449
 1484SOL    HW2 5196   0.957   1.453  13.587
 1485SOL     OW 5197   0.416   1.797  13.854
 1485SOL    HW1 5198   0.403   1.703  13.870
 1485SOL    HW2 5199   0.501   1.817  13.894
 1486SOL     OW 5200   1.785   1.037   0.002
 1486SOL    HW1 5201   1.732   1.039  13.823
 1486SOL    HW2 5202   1.721   1.032   0.073
 1487SOL     OW 5203   0.310   0.951  13.276
 1487SOL    HW1 5204   0.392   0.973  13.232
 1487SOL    HW2 5205   0.298   0.857  13.260
 1488SOL     OW 5206   1.496   0.734  13.754
 1488SOL    HW1 5207   1.486   0.699  13.842
 1488SOL    HW2 5208   1.565   0.799  13.761
 1489SOL     OW 5209   1.124   1.777  13.262
 1489SOL    HW1 5210   1.048   1.740  13.306
 1489SOL    HW2 5211   1.146   1.713  13.194
 1490SOL     OW 5212   1.631   1.388  13.128
 1490SOL    HW1 5213   1.586   1.469  13.104
 1490SOL    HW2 5214   1.567   1.319  13.107
 1491SOL     OW 5215   0.466   1.738  13.347
 1491SOL    HW1 5216   0.508   1.792  13.414
 1491SOL    HW2 5217   0.538   1.702  13.296
 1492SOL     OW 5218   1.432   0.169  13.442
 1492SOL    HW1 5219   1.391   0.115  13.375
 1492SOL    HW2 5220   1.521   0.136  13.450
 1493SOL     OW 5221   0.912   1.686   0.010
 1493SOL    HW1 5222   0.934   1.617   0.073
 1493SOL    HW2 5223   0.880   1.638  13.833
 1494SOL     OW 5224   0.400   0.697  13.500
 1494SOL    HW1 5225   0.426   0.606  13.514
 1494SOL    HW2 5226   0.309   0.701  13.530
 1495SOL     OW 5227   0.647   0.126  13.138
 1495SOL    HW1 5228   0.667   0.040  13.175
 1495SOL    HW2 5229   0.587   0.108  13.066
 1496SOL     OW 5230   0.554   0.053  13.519
 1496SOL    HW1 5231   0.477   0.056  13.576
 1496SOL    HW2 5232   0.551   0.135  13.471
 1497SOL     OW 5233   1.432   1.203  13.074
 1497SOL    HW1 5234   1.459   1.126  13.124
 1497SOL    HW2 5235   1.345   1.224  13.108
 1498SOL     OW 5236   0.356   0.040  13.235
 1498SOL    HW1 5237   0.356   0.098  13.159
 1498SOL    HW2 5238   0.448   0.036  13.262
 1499SOL     OW 5239   0.945   0.253  13.491
 1499SOL    HW1 5240   0.919   0.291  13.407
 1499SOL    HW2 5241   1.041   0.261  13.492
 1500SOL     OW 5242   0.470   1.145  13.759
 1500SOL    HW1 5243   0.400   1.119  13.819
 1500SOL    HW2 5244   0.431   1.135  13.672
 1501SOL     OW 5245   1.255   1.789  13.635
 1501SOL    HW1 5246   1.302   1.859  13.589
 1501SOL    HW2 5247   1.186   1.834  13.683
 1502SOL     OW 5248   1.021   0.538  13.066
 1502SOL    HW1 5249   0.978   0.621  13.046
 1502SOL    HW2 5250   1.085   0.559  13.134
 1503SOL     OW 5251   0.905   0.473  13.673
 1503SOL    HW1 5252   0.834   0.520  13.628
 1503SOL    HW2 5253   0.913   0.391  13.626
 1504SOL     OW 5254   1.003   0.036  13.790
 1504SOL    HW1 5255   0.969   0.062  13.705
 1504SOL    HW2 5256   1.027   3.944  13.780
 1505SOL     OW 5257   1.842   0.816  13.420
 1505SOL    HW1 5258   1.902   0.766  13.475
 1505SOL    HW2 5259   1.818   0.756  13.350
 1506SOL     OW 5260   0.487   1.424  13.192
 1506SOL    HW1 5261   0.410   1.394  13.240
 1506SOL    HW2 5262   0.477   1.385  13.105
 1507SOL     OW 5263   1.684   1.259  13.664
 1507SOL    HW1 5264   1.776   1.260  13.689
 1507SOL    HW2 5265   1.648   1.340  13.702
 1508SOL     OW 5266   1.395   0.579  13.103
 1508SOL    HW1 5267   1.332   0.557  13.172
 1508SOL    HW2 5268   1.480   0.558  13.140
 1509SOL     OW 5269   0.559   0.272  13.351
 1509SOL    HW1 5270   0.608   0.229  13.281
 1509SOL    HW2 5271   0.528   0.354  13.312
 1510SOL     OW 5272   0.709   1.065  13.399
 1510SOL    HW1 5273   0.695   1.048  13.492
 1510SOL    HW2 5274   0.785   1.011  13.376
 1511SOL     OW 5275   0.365   1.105  13.509
 1511SOL    HW1 5276   0.361   1.187  13.460
 1511SOL    HW2 5277   0.362   1.036  13.442
 1512SOL     OW 5278   0.562   0.542  13.864
 1512SOL    HW1 5279   0.573   0.607  13.795
 1512SOL    HW2 5280   0.628   0.563   0.029
 1513SOL     OW 5281   1.233   1.342  13.415
 1513SOL    HW1 5282   1.286   1.417  13.443
 1513SOL    HW2 5283   1.146   1.360  13.450
 1514SOL     OW 5284   1.581   0.639  13.510
 1514SOL    HW1 5285   1.543   0.681  13.587
 1514SOL    HW2 5286   1.625   0.711  13.463
 1515SOL     OW 5287   1.197   0.534  13.290
 1515SOL    HW1 5288   1.205   0.455  13.343
 1515SOL    HW2 5289   1.155   0.597  13.348
 1516SOL     OW 5290   0.341   0.048  13.681
 1516SOL    HW1 5291   0.317   0.140  13.694
 1516SOL    HW2 5292   0.277   4.000  13.734
 1517SOL     OW 5293   1.596   0.396  13.404
 1517SOL    HW1 5294   1.555   0.333  13.463
 1517SOL    HW2 5295   1.584   0.481  13.447
 1518SOL     OW 5296   1.499   0.279  13.163
 1518SOL    HW1 5297   1.430   0.215  13.180
 1518SOL    HW2 5298   1.516   0.319  13.248
 1519SOL     OW 5299   1.284   0.826  13.059
 1519SOL    HW1 5300   1.328   0.741  13.064
 1519SOL    HW2 5301   1.317   0.865  12.978
 1520SOL     OW 5302   0.001   1.314  13.214
 1520SOL    HW1 5303   3.907   1.331  13.218
 1520SOL    HW2 5304   0.009   1.220  13.232
 1521SOL     OW 5305   0.819   0.575  13.390
 1521SOL    HW1 5306   0.824   0.497  13.336
 1521SOL    HW2 5307   0.742   0.622  13.359
 1522SOL     OW 5308   0.448   0.492  13.233
 1522SOL    HW1 5309   0.512   0.561  13.250
 1522SOL    HW2 5310   0.368   0.538  13.209
 1523SOL     OW 5311   1.318   0.851  13.335
 1523SOL    HW1 5312   1.242   0.826  13.387
 1523SOL    HW2 5313   1.290   0.840  13.244
 1524SOL     OW 5314   1.692   0.105  13.448
 1524SOL    HW1 5315   1.783   0.127  13.429
 1524SOL    HW2 5316   1.698   0.033  13.511
 1525SOL     OW 5317   1.358   1.563  13.504
 1525SOL    HW1 5318   1.418   1.600  13.438
 1525SOL    HW2 5319   1.318   1.639  13.546
 1526SOL     OW 5320   1.292   0.912  13.684
 1526SOL    HW1 5321   1.369   0.857  13.673
 1526SOL    HW2 5322   1.315   0.994  13.639
 1527SOL     OW 5323   0.670   1.626  13.189
 1527SOL    HW1 5324   0.682   1.639  13.095
 1527SOL    HW2 5325   0.614   1.549  13.196
 1528SOL     OW 5326   1.817   0.182   0.067
 1528SOL    HW1 5327   1.857   0.096   0.059
 1528SOL    HW2 5328   1.730   0.172   0.028
 1529SOL     OW 5329   0.292   0.310  13.733
 1529SOL    HW1 5330   0.210   0.352  13.707
 1529SOL    HW2 5331   0.299   0.326  13.827
 1530SOL     OW 5332   1.206   1.600  13.066
 1530SOL    HW1 5333   1.195   1.509  13.092
 1530SOL    HW2 5334   1.140   1.615  12.999
 1531SOL     OW 5335   0.920   0.914  13.331
 1531SOL    HW1 5336   0.978   0.944  13.261
 1531SOL    HW2 5337   0.966   0.841  13.372
 1532SOL     OW 5338   1.483   1.629  13.075
 1532SOL    HW1 5339   1.390   1.618  13.059
 1532SOL    HW2 5340   1.523   1.635  12.988
 1533SOL     OW 5341   1.050   1.090  13.756
 1533SOL    HW1 5342   0.965   1.057  13.729
 1533SOL    HW2 5343   1.110   1.059  13.688
 1534SOL     OW 5344   0.601   1.494  13.502
 1534SOL    HW1 5345   0.649   1.442  13.438
 1534SOL    HW2 5346   0.523   1.525  13.455
 1535SOL     OW 5347   0.254   1.339  13.326
 1535SOL    HW1 5348   0.160   1.343  13.308
 1535SOL    HW2 5349   0.263   1.379  13.412
 1536SOL     OW 5350   0.088   0.315  13.055
 1536SOL    HW1 5351   3.992   0.317  13.048
 1536SOL    HW2 5352   0.116   0.398  13.016
 1537SOL     OW 5353   0.041   0.179  13.302
 1537SOL    HW1 5354   0.045   0.226  13.219
 1537SOL    HW2 5355   0.115   0.213  13.353
 1538SOL     OW 5356   1.175   1.333  13.146
 1538SOL    HW1 5357   1.083   1.305  13.145
 1538SOL    HW2 5358   1.199   1.332  13.239
 1539SOL     OW 5359   1.218   0.334  13.481
 1539SOL    HW1 5360   1.287   0.269  13.470
 1539SOL    HW2 5361   1.243   0.383  13.559
 1540SOL     OW 5362   0.595   0.749  13.690
 1540SOL    HW1 5363   0.629   0.837  13.672
 1540SOL    HW2 5364   0.526   0.737  13.625
 1541SOL     OW 5365   0.867   1.364  13.077
 1541SOL    HW1 5366   0.827   1.390  13.160
 1541SOL    HW2 5367   0.879   1.446  13.030
 1542SOL     OW 5368   0.666   1.856   0.057
 1542SOL    HW1 5369   0.683   1.948   0.040
 1542SOL    HW2 5370   0.753   1.817   0.069
 1543SOL     OW 5371   0.819   0.967   0.003
 1543SOL    HW1 5372   0.833   0.882   0.044
 1543SOL    HW2 5373   0.870   1.028   0.056
 1544SOL     OW 5374   1.074   0.986  13.123
 1544SOL    HW1 5375   1.054   1.040  13.046
 1544SOL    HW2 5376   1.149   0.933  13.096
 1545SOL     OW 5377   0.117   1.282  13.768
 1545SOL    HW1 5378   0.046   1.249  13.823
 1545SOL    HW2 5379   0.116   1.224  13.691
 1546SOL     OW 5380   0.457   0.442  13.555
 1546SOL    HW1 5381   0.493   0.369  13.504
 1546SOL    HW2 5382   0.409   0.400  13.626
 1547SOL     OW 5383   1.709   1.506   0.320
 1547SOL    HW1 5384   1.680   1.449   0.249
 1547SOL    HW2 5385   1.773   1.453   0.368
 1548SOL     OW 5386   0.821   1.550  13.698
 1548SOL    HW1 5387   0.785   1.605  13.628
 1548SOL    HW2 5388   0.750   1.490  13.721
 1549SOL     OW 5389   0.772   1.335  13.348
 1549SOL    HW1 5390   0.747   1.243  13.358
 1549SOL    HW2 5391   0.851   1.343  13.401
 1550SOL     OW 5392   1.309   0.075  13.211
 1550SOL    HW1 5393   1.329   3.992  13.169
 1550SOL    HW2 5394   1.219   0.066  13.241
 1551SOL     OW 5395   1.293   0.459  13.714
 1551SOL    HW1 5396   1.244   0.542  13.711
 1551SOL    HW2 5397   1.280   0.427  13.803
 1552SOL     OW 5398   0.048   1.046  13.273
 1552SOL    HW1 5399   0.142   1.030  13.266
 1552SOL    HW2 5400   0.011   0.960  13.295
 1553SOL     OW 5401   0.890   1.660  13.371
 1553SOL    HW1 5402   0.814   1.646  13.315
 1553SOL    HW2 5403   0.864   1.731  13.430
 1554SOL     OW 5404   0.227   2.523   0.121
 1554SOL    HW1 5405   0.133   2.511   0.132
 1554SOL    HW2 5406   0.247   2.480   0.037
 1555SOL     OW 5407   0.230   2.135   0.987
 1555SOL    HW1 5408   0.251   2.099   1.073
 1555SOL    HW2 5409   0.134   2.128   0.981
 1556SOL     OW 5410   0.007   2.219   0.626
 1556SOL    HW1 5411   3.919   2.238   0.659
 1556SOL    HW2 5412   3.993   2.192   0.536
 1557SOL     OW 5413   0.582   3.156   1.199
 1557SOL    HW1 5414   0.497   3.158   1.156
 1557SOL    HW2 5415   0.596   3.245   1.229
 1558SOL     OW 5416   1.569   3.372   0.709
 1558SOL    HW1 5417   1.524   3.348   0.790
 1558SOL    HW2 5418   1.500   3.374   0.643
 1559SOL     OW 5419   1.135   2.559   0.697
 1559SOL    HW1 5420   1.182   2.642   0.685
 1559SOL    HW2 5421   1.086   2.571   0.779
 1560SOL     OW 5422   1.777   2.456   0.229
 1560SOL    HW1 5423   1.798   2.404   0.151
 1560SOL    HW2 5424   1.726   2.396   0.284
 1561SOL     OW 5425   0.746   2.997   1.046
 1561SOL    HW1 5426   0.685   3.035   1.110
 1561SOL    HW2 5427   0.784   3.073   1.001
 1562SOL     OW 5428   0.876   2.623   1.824
 1562SOL    HW1 5429   0.867   2.693   1.889
 1562SOL    HW2 5430   0.897   2.668   1.743
 1563SOL     OW 5431   0.684   2.858   0.647
 1563SOL    HW1 5432   0.751   2.851   0.715
 1563SOL    HW2 5433   0.616   2.913   0.686
 1564SOL     OW 5434   0.714   3.011   1.821
 1564SOL    HW1 5435   0.762   3.088   1.852
 1564SOL    HW2 5436   0.635   3.047   1.781
 1565SOL     OW 5437   0.351   3.261   1.078
 1565SOL    HW1 5438   0.269   3.246   1.030
 1565SOL    HW2 5439   0.402   3.318   1.021
 1566SOL     OW 5440   1.459   3.364   1.361
 1566SOL    HW1 5441   1.513   3.442   1.371
 1566SOL    HW2 5442   1.390   3.375   1.426
 1567SOL     OW 5443   0.450   2.256   1.481
 1567SOL    HW1 5444   0.526   2.197   1.487
 1567SOL    HW2 5445   0.375   2.199   1.498
 1568SOL     OW 5446   1.599   2.293   0.732
 1568SOL    HW1 5447   1.514   2.311   0.692
 1568SOL    HW2 5448   1.621   2.373   0.779
 1569SOL     OW 5449   0.222   3.573   0.470
 1569SOL    HW1 5450   0.214   3.658   0.514
 1569SOL    HW2 5451   0.299   3.582   0.415
 1570SOL     OW 5452   1.138   3.204   1.695
 1570SOL    HW1 5453   1.179   3.196   1.781
 1570SOL    HW2 5454   1.086   3.124   1.686
 1571SOL     OW 5455   0.245   3.310   0.543
 1571SOL    HW1 5456   0.223   3.401   0.526
 1571SOL    HW2 5457   0.171   3.276   0.594
 1572SOL     OW 5458   0.250   2.925   0.882
 1572SOL    HW1 5459   0.271   2.840   0.920
 1572SOL    HW2 5460   0.197   2.969   0.948
 1573SOL     OW 5461   0.608   3.648   1.425
 1573SOL    HW1 5462   0.526   3.635   1.473
 1573SOL    HW2 5463   0.636   3.737   1.449
 1574SOL     OW 5464   0.559   2.841   0.172
 1574SOL    HW1 5465   0.593   2.875   0.089
 1574SOL    HW2 5466   0.614   2.882   0.239
 1575SOL     OW 5467   1.558   1.995   1.447
 1575SOL    HW1 5468   1.579   2.079   1.406
 1575SOL    HW2 5469   1.554   2.014   1.541
 1576SOL     OW 5470   0.142   2.525   0.571
 1576SOL    HW1 5471   0.088   2.446   0.572
 1576SOL    HW2 5472   0.110   2.578   0.643
 1577SOL     OW 5473   1.839   3.597   0.335
 1577SOL    HW1 5474   1.904   3.566   0.398
 1577SOL    HW2 5475   1.858   3.690   0.326
 1578SOL     OW 5476   0.032   3.465   0.131
 1578SOL    HW1 5477   0.039   3.374   0.160
 1578SOL    HW2 5478   3.938   3.483   0.127
 1579SOL     OW 5479   1.688   2.779   0.645
 1579SOL    HW1 5480   1.768   2.734   0.617
 1579SOL    HW2 5481   1.664   2.835   0.571
 1580SOL     OW 5482   1.650   2.964   0.433
 1580SOL    HW1 5483   1.737   2.965   0.393
 1580SOL    HW2 5484   1.654   3.030   0.503
 1581SOL     OW 5485   0.145   2.613   1.590
 1581SOL    HW1 5486   0.241   2.611   1.584
 1581SOL    HW2 5487   0.126   2.700   1.627
 1582SOL     OW 5488   0.618   3.248   0.735
 1582SOL    HW1 5489   0.570   3.166   0.744
 1582SOL    HW2 5490   0.602   3.276   0.645
 1583SOL     OW 5491   1.284   3.097   1.420
 1583SOL    HW1 5492   1.315   3.029   1.361
 1583SOL    HW2 5493   1.344   3.092   1.495
 1584SOL     OW 5494   0.827   1.864   0.517
 1584SOL    HW1 5495   0.866   1.948   0.492
 1584SOL    HW2 5496   0.733   1.882   0.520
 1585SOL     OW 5497   0.183   2.810   1.283
 1585SOL    HW1 5498   0.271   2.775   1.271
 1585SOL    HW2 5499   0.133   2.776   1.209
 1586SOL     OW 5500   1.527   2.866   0.206
 1586SOL    HW1 5501   1.460   2.807   0.241
 1586SOL    HW2 5502   1.571   2.901   0.284
 1587SOL     OW 5503   1.226   3.669   1.630
 1587SOL    HW1 5504   1.198   3.731   1.562
 1587SOL    HW2 5505   1.225   3.584   1.586
 1588SOL     OW 5506   0.345   2.109   1.821
 1588SOL    HW1 5507   0.378   2.198   1.829
 1588SOL    HW2 5508   0.252   2.115   1.845
 1589SOL     OW 5509   1.465   3.280   0.947
 1589SOL    HW1 5510   1.399   3.296   1.014
 1589SOL    HW2 5511   1.453   3.189   0.921
 1590SOL     OW 5512   1.659   3.601   0.590
 1590SOL    HW1 5513   1.641   3.577   0.499
 1590SOL    HW2 5514   1.635   3.524   0.641
 1591SOL     OW 5515   0.596   2.574   0.271
 1591SOL    HW1 5516   0.595   2.659   0.226
 1591SOL    HW2 5517   0.534   2.585   0.342
 1592SOL     OW 5518   1.281   2.230   0.936
 1592SOL    HW1 5519   1.192   2.194   0.945
 1592SOL    HW2 5520   1.335   2.173   0.990
 1593SOL     OW 5521   1.562   3.588   0.316
 1593SOL    HW1 5522   1.658   3.587   0.313
 1593SOL    HW2 5523   1.535   3.563   0.228
 1594SOL     OW 5524   0.791   2.480   1.448
 1594SOL    HW1 5525   0.765   2.453   1.536
 1594SOL    HW2 5526   0.758   2.410   1.391
 1595SOL     OW 5527   1.393   2.335   1.677
 1595SOL    HW1 5528   1.396   2.381   1.761
 1595SOL    HW2 5529   1.452   2.260   1.689
 1596SOL     OW 5530   0.949   2.746   1.586
 1596SOL    HW1 5531   1.005   2.679   1.547
 1596SOL    HW2 5532   0.901   2.783   1.513
 1597SOL     OW 5533   0.995   2.271   1.232
 1597SOL    HW1 5534   0.906   2.288   1.262
 1597SOL    HW2 5535   0.985   2.229   1.147
 1598SOL     OW 5536   1.054   2.563   0.428
 1598SOL    HW1 5537   1.073   2.555   0.522
 1598SOL    HW2 5538   0.970   2.518   0.417
 1599SOL     OW 5539   0.083   2.694   0.790
 1599SOL    HW1 5540   0.154   2.662   0.846
 1599SOL    HW2 5541   0.105   2.785   0.772
 1600SOL     OW 5542   0.127   3.720   1.584
 1600SOL    HW1 5543   0.136   3.688   1.673
 1600SOL    HW2 5544   0.035   3.707   1.562
 1601SOL     OW 5545   0.869   2.224   0.217
 1601SOL    HW1 5546   0.906   2.287   0.155
 1601SOL    HW2 5547   0.886   2.138   0.178
 1602SOL     OW 5548   1.673   2.447   1.832
 1602SOL    HW1 5549   1.647   2.521   1.776
 1602SOL    HW2 5550   1.710   2.383   1.771
 1603SOL     OW 5551   1.381   3.004   0.543
 1603SOL    HW1 5552   1.460   2.993   0.489
 1603SOL    HW2 5553   1.328   3.067   0.495
 1604SOL     OW 5554   0.549   2.039   0.898
 1604SOL    HW1 5555   0.555   2.071   0.988
 1604SOL    HW2 5556   0.546   2.119   0.845
 1605SOL     OW 5557   0.999   3.305   0.474
 1605SOL    HW1 5558   0.971   3.380   0.422
 1605SOL    HW2 5559   0.975   3.326   0.564
 1606SOL     OW 5560   0.360   3.674   0.868
 1606SOL    HW1 5561   0.443   3.629   0.882
 1606SOL    HW2 5562   0.381   3.766   0.877
 1607SOL     OW 5563   1.801   2.908   0.874
 1607SOL    HW1 5564   1.748   2.894   0.795
 1607SOL    HW2 5565   1.737   2.918   0.944
 1608SOL     OW 5566   1.227   3.400   1.511
 1608SOL    HW1 5567   1.215   3.328   1.573
 1608SOL    HW2 5568   1.155   3.390   1.449
 1609SOL     OW 5569   0.304   2.789   0.242
 1609SOL    HW1 5570   0.396   2.802   0.218
 1609SOL    HW2 5571   0.290   2.694   0.233
 1610SOL     OW 5572   1.482   2.608   0.720
 1610SOL    HW1 5573   1.479   2.570   0.808
 1610SOL    HW2 5574   1.559   2.665   0.722
 1611SOL     OW 5575   0.472   3.123   1.737
 1611SOL    HW1 5576   0.446   3.131   1.645
 1611SOL    HW2 5577   0.390   3.125   1.785
 1612SOL     OW 5578   1.128   3.640   0.229
 1612SOL    HW1 5579   1.062   3.595   0.282
 1612SOL    HW2 5580   1.155   3.574   0.164
 1613SOL     OW 5581   0.203   2.129   1.509
 1613SOL    HW1 5582   0.114   2.162   1.505
 1613SOL    HW2 5583   0.194   2.040   1.543
 1614SOL     OW 5584   1.637   3.239   0.092
 1614SOL    HW1 5585   1.608   3.321   0.052
 1614SOL    HW2 5586   1.568   3.176   0.072
 1615SOL     OW 5587   0.461   3.606   0.323
 1615SOL    HW1 5588   0.500   3.666   0.386
 1615SOL    HW2 5589   0.536   3.569   0.276
 1616SOL     OW 5590   1.405   1.961   0.436
 1616SOL    HW1 5591   1.390   1.946   0.343
 1616SOL    HW2 5592   1.483   1.910   0.457
 1617SOL     OW 5593   0.260   3.658   1.221
 1617SOL    HW1 5594   0.297   3.586   1.272
 1617SOL    HW2 5595   0.255   3.624   1.132
 1618SOL     OW 5596   0.939   3.566   0.898
 1618SOL    HW1 5597   1.018   3.516   0.920
 1618SOL    HW2 5598   0.897   3.515   0.828
 1619SOL     OW 5599   0.400   2.555   0.471
 1619SOL    HW1 5600   0.421   2.463   0.487
 1619SOL    HW2 5601   0.309   2.563   0.498
 1620SOL     OW 5602   1.525   2.079   1.722
 1620SOL    HW1 5603   1.540   2.099   1.814
 1620SOL    HW2 5604   1.453   2.017   1.722
 1621SOL     OW 5605   0.765   2.141   1.755
 1621SOL    HW1 5606   0.846   2.091   1.751
 1621SOL    HW2 5607   0.719   2.107   1.832
 1622SOL     OW 5608   0.876   3.383   1.194
 1622SOL    HW1 5609   0.858   3.345   1.108
 1622SOL    HW2 5610   0.945   3.328   1.231
 1623SOL     OW 5611   1.339   2.451   1.433
 1623SOL    HW1 5612   1.369   2.420   1.518
 1623SOL    HW2 5613   1.375   2.539   1.425
 1624SOL     OW 5614   0.819   3.249   0.946
 1624SOL    HW1 5615   0.905   3.239   0.904
 1624SOL    HW2 5616   0.758   3.255   0.873
 1625SOL     OW 5617   0.929   2.371   0.900
 1625SOL    HW1 5618   0.904   2.363   0.808
 1625SOL    HW2 5619   0.959   2.284   0.924
 1626SOL     OW 5620   0.561   1.920   0.499
 1626SOL    HW1 5621   0.480   1.918   0.551
 1626SOL    HW2 5622   0.553   1.998   0.445
 1627SOL     OW 5623   1.431   3.075   0.043
 1627SOL    HW1 5624   1.449   2.994   0.092
 1627SOL    HW2 5625   1.340   3.096   0.065
 1628SOL     OW 5626   0.259   1.877   0.212
 1628SOL    HW1 5627   0.291   1.960   0.179
 1628SOL    HW2 5628   0.338   1.828   0.235
 1629SOL     OW 5629   0.945   2.110   0.460
 1629SOL    HW1 5630   0.913   2.150   0.380
 1629SOL    HW2 5631   1.039   2.128   0.461
 1630SOL     OW 5632   1.081   2.547   1.456
 1630SOL    HW1 5633   1.015   2.477   1.461
 1630SOL    HW2 5634   1.164   2.501   1.451
 1631SOL     OW 5635   1.217   3.436   0.796
 1631SOL    HW1 5636   1.232   3.500   0.726
 1631SOL    HW2 5637   1.289   3.450   0.857
 1632SOL     OW 5638   0.466   3.014   0.729
 1632SOL    HW1 5639   0.397   2.989   0.790
 1632SOL    HW2 5640   0.428   3.001   0.642
 1633SOL     OW 5641   1.263   3.655   0.610
 1633SOL    HW1 5642   1.314   3.719   0.561
 1633SOL    HW2 5643   1.189   3.704   0.645
 1634SOL     OW 5644   0.994   2.400   0.048
 1634SOL    HW1 5645   0.983   2.377  13.855
 1634SOL    HW2 5646   1.087   2.383   0.066
 1635SOL     OW 5647   0.085   2.437   1.388
 1635SOL    HW1 5648   0.175   2.424   1.358
 1635SOL    HW2 5649   0.091   2.506   1.455
 1636SOL     OW 5650   0.567   2.089   1.170
 1636SOL    HW1 5651   0.608   2.016   1.216
 1636SOL    HW2 5652   0.475   2.085   1.197
 1637SOL     OW 5653   0.867   2.319   0.639
 1637SOL    HW1 5654   0.826   2.376   0.573
 1637SOL    HW2 5655   0.889   2.239   0.591
 1638SOL     OW 5656   1.018   1.917   0.747
 1638SOL    HW1 5657   0.959   1.912   0.672
 1638SOL    HW2 5658   0.994   1.842   0.802
 1639SOL     OW 5659   1.440   3.022   0.857
 1639SOL    HW1 5660   1.368   2.958   0.855
 1639SOL    HW2 5661   1.465   3.031   0.765
 1640SOL     OW 5662   1.462   2.472   0.967
 1640SOL    HW1 5663   1.406   2.395   0.969
 1640SOL    HW2 5664   1.519   2.463   1.044
 1641SOL     OW 5665   1.845   2.669   0.384
 1641SOL    HW1 5666   1.902   2.620   0.442
 1641SOL    HW2 5667   1.816   2.605   0.318
 1642SOL     OW 5668   0.489   3.253   0.166
 1642SOL    HW1 5669   0.420   3.214   0.219
 1642SOL    HW2 5670   0.441   3.300   0.096
 1643SOL     OW 5671   1.677   3.122   0.648
 1643SOL    HW1 5672   1.771   3.123   0.660
 1643SOL    HW2 5673   1.649   3.213   0.658
 1644SOL     OW 5674   1.422   2.443   0.087
 1644SOL    HW1 5675   1.353   2.438   0.153
 1644SOL    HW2 5676   1.464   2.357   0.090
 1645SOL     OW 5677   0.537   2.128   0.329
 1645SOL    HW1 5678   0.589   2.098   0.254
 1645SOL    HW2 5679   0.495   2.208   0.298
 1646SOL     OW 5680   1.748   3.105   1.560
 1646SOL    HW1 5681   1.836   3.067   1.554
 1646SOL    HW2 5682   1.763   3.195   1.589
 1647SOL     OW 5683   1.053   3.213   1.330
 1647SOL    HW1 5684   0.978   3.182   1.380
 1647SOL    HW2 5685   1.128   3.172   1.373
 1648SOL     OW 5686   1.611   3.490   1.659
 1648SOL    HW1 5687   1.601   3.524   1.570
 1648SOL    HW2 5688   1.693   3.441   1.657
 1649SOL     OW 5689   1.136   3.072   1.101
 1649SOL    HW1 5690   1.076   3.110   1.166
 1649SOL    HW2 5691   1.107   3.108   1.017
 1650SOL     OW 5692   1.622   2.958   1.075
 1650SOL    HW1 5693   1.615   3.021   1.146
 1650SOL    HW2 5694   1.547   2.977   1.018
 1651SOL     OW 5695   0.918   1.955   1.391
 1651SOL    HW1 5696   0.941   1.936   1.300
 1651SOL    HW2 5697   0.997   1.994   1.428
 1652SOL     OW 5698   0.984   2.977   1.722
 1652SOL    HW1 5699   0.893   2.994   1.747
 1652SOL    HW2 5700   0.980   2.898   1.669
 1653SOL     OW 5701   0.718   2.923   0.379
 1653SOL    HW1 5702   0.703   2.902   0.471
 1653SOL    HW2 5703   0.792   2.868   0.354
 1654SOL     OW 5704   0.424   2.681   1.254
 1654SOL    HW1 5705   0.492   2.690   1.321
 1654SOL    HW2 5706   0.391   2.592   1.264
 1655SOL     OW 5707   1.264   2.236   1.282
 1655SOL    HW1 5708   1.295   2.314   1.326
 1655SOL    HW2 5709   1.173   2.256   1.259
 1656SOL     OW 5710   0.065   3.441   1.342
 1656SOL    HW1 5711   0.069   3.470   1.251
 1656SOL    HW2 5712   0.156   3.436   1.370
 1657SOL     OW 5713   0.356   2.963   0.479
 1657SOL    HW1 5714   0.346   3.040   0.424
 1657SOL    HW2 5715   0.375   2.891   0.418
 1658SOL     OW 5716   0.546   2.392   0.862
 1658SOL    HW1 5717   0.559   2.449   0.786
 1658SOL    HW2 5718   0.614   2.418   0.924
 1659SOL     OW 5719   1.248   3.210   0.401
 1659SOL    HW1 5720   1.303   3.283   0.428
 1659SOL    HW2 5721   1.160   3.233   0.433
 1660SOL     OW 5722   1.290   3.323   1.150
 1660SOL    HW1 5723   1.345   3.328   1.227
 1660SOL    HW2 5724   1.234   3.247   1.166
 1661SOL     OW 5725   1.574   2.491   0.478
 1661SOL    HW1 5726   1.526   2.530   0.551
 1661SOL    HW2 5727   1.599   2.566   0.424
 1662SOL     OW 5728   0.345   3.392   1.315
 1662SOL    HW1 5729   0.335   3.340   1.235
 1662SOL    HW2 5730   0.439   3.406   1.324
 1663SOL     OW 5731   0.421   2.599   1.602
 1663SOL    HW1 5732   0.485   2.643   1.546
 1663SOL    HW2 5733   0.460   2.513   1.620
 1664SOL     OW 5734   1.606   2.654   1.677
 1664SOL    HW1 5735   1.520   2.695   1.672
 1664SOL    HW2 5736   1.658   2.699   1.610
 1665SOL     OW 5737   0.997   1.996   1.753
 1665SOL    HW1 5738   1.055   2.069   1.732
 1665SOL    HW2 5739   1.046   1.918   1.728
 1666SOL     OW 5740   0.496   1.895   1.748
 1666SOL    HW1 5741   0.451   1.844   1.681
 1666SOL    HW2 5742   0.444   1.974   1.758
 1667SOL     OW 5743   0.586   2.737   1.033
 1667SOL    HW1 5744   0.622   2.826   1.035
 1667SOL    HW2 5745   0.530   2.732   1.110
 1668SOL     OW 5746   1.346   2.720   1.020
 1668SOL    HW1 5747   1.259   2.706   0.982
 1668SOL    HW2 5748   1.391   2.636   1.009
 1669SOL     OW 5749   1.221   2.403   0.272
 1669SOL    HW1 5750   1.222   2.323   0.325
 1669SOL    HW2 5751   1.163   2.463   0.319
 1670SOL     OW 5752   0.309   2.057   1.247
 1670SOL    HW1 5753   0.262   2.092   1.322
 1670SOL    HW2 5754   0.288   1.963   1.246
 1671SOL     OW 5755   0.064   3.166   1.281
 1671SOL    HW1 5756   0.093   3.123   1.361
 1671SOL    HW2 5757   0.054   3.258   1.305
 1672SOL     OW 5758   0.721   2.491   1.052
 1672SOL    HW1 5759   0.797   2.478   0.996
 1672SOL    HW2 5760   0.692   2.581   1.034
 1673SOL     OW 5761   1.739   2.821   1.858
 1673SOL    HW1 5762   1.695   2.756   1.804
 1673SOL    HW2 5763   1.679   2.838   1.930
 1674SOL     OW 5764   0.319   1.920   0.624
 1674SOL    HW1 5765   0.293   2.010   0.642
 1674SOL    HW2 5766   0.324   1.879   0.711
 1675SOL     OW 5767   1.623   2.245   0.380
 1675SOL    HW1 5768   1.618   2.184   0.453
 1675SOL    HW2 5769   1.598   2.329   0.418
 1676SOL     OW 5770   1.029   2.620   0.958
 1676SOL    HW1 5771   1.020   2.637   1.052
 1676SOL    HW2 5772   1.002   2.529   0.947
 1677SOL     OW 5773   0.987   3.430   1.723
 1677SOL    HW1 5774   0.966   3.470   1.639
 1677SOL    HW2 5775   1.028   3.347   1.701
 1678SOL     OW 5776   1.851   3.362   1.603
 1678SOL    HW1 5777   1.873   3.391   1.514
 1678SOL    HW2 5778   1.931   3.377   1.653
 1679SOL     OW 5779   0.356   2.785   1.798
 1679SOL    HW1 5780   0.434   2.806   1.850
 1679SOL    HW2 5781   0.386   2.717   1.738
 1680SOL     OW 5782   1.511   2.172   0.141
 1680SOL    HW1 5783   1.491   2.079   0.149
 1680SOL    HW2 5784   1.553   2.194   0.225
 1681SOL     OW 5785   1.289   2.689   0.056
 1681SOL    HW1 5786   1.337   2.607   0.058
 1681SOL    HW2 5787   1.307   2.725  13.869
 1682SOL     OW 5788   1.070   3.201   0.857
 1682SOL    HW1 5789   1.076   3.130   0.794
 1682SOL    HW2 5790   1.127   3.269   0.821
 1683SOL     OW 5791   0.314   2.662   0.949
 1683SOL    HW1 5792   0.408   2.679   0.944
 1683SOL    HW2 5793   0.308   2.571   0.980
 1684SOL     OW 5794   0.327   2.384   1.015
 1684SOL    HW1 5795   0.292   2.296   1.000
 1684SOL    HW2 5796   0.403   2.389   0.958
 1685SOL     OW 5797   1.135   2.234   1.687
 1685SOL    HW1 5798   1.087   2.288   1.749
 1685SOL    HW2 5799   1.222   2.273   1.682
 1686SOL     OW 5800   1.160   2.059   1.472
 1686SOL    HW1 5801   1.149   2.122   1.544
 1686SOL    HW2 5802   1.203   2.109   1.403
 1687SOL     OW 5803   0.017   3.188   0.194
 1687SOL    HW1 5804   3.923   3.205   0.185
 1687SOL    HW2 5805   0.023   3.094   0.210
 1688SOL     OW 5806   0.075   3.664   0.894
 1688SOL    HW1 5807   0.098   3.571   0.885
 1688SOL    HW2 5808   0.159   3.709   0.899
 1689SOL     OW 5809   0.506   3.421   0.920
 1689SOL    HW1 5810   0.570   3.490   0.936
 1689SOL    HW2 5811   0.549   3.364   0.855
 1690SOL     OW 5812   0.972   2.648   1.223
 1690SOL    HW1 5813   1.032   2.630   1.295
 1690SOL    HW2 5814   0.889   2.610   1.250
 1691SOL     OW 5815   0.039   2.427   1.108
 1691SOL    HW1 5816   0.122   2.404   1.067
 1691SOL    HW2 5817   0.057   2.423   1.202
 1692SOL     OW 5818   0.206   2.372   1.728
 1692SOL    HW1 5819   0.241   2.320   1.655
 1692SOL    HW2 5820   0.165   2.448   1.686
 1693SOL     OW 5821   1.375   2.798   1.655
 1693SOL    HW1 5822   1.398   2.891   1.651
 1693SOL    HW2 5823   1.370   2.771   1.563
 1694SOL     OW 5824   0.815   2.439   0.382
 1694SOL    HW1 5825   0.824   2.364   0.323
 1694SOL    HW2 5826   0.743   2.490   0.345
 1695SOL     OW 5827   1.636   2.463   1.180
 1695SOL    HW1 5828   1.626   2.409   1.258
 1695SOL    HW2 5829   1.722   2.439   1.146
 1696SOL     OW 5830   0.302   3.405   1.720
 1696SOL    HW1 5831   0.255   3.474   1.768
 1696SOL    HW2 5832   0.275   3.324   1.763
 1697SOL     OW 5833   0.716   2.308   1.252
 1697SOL    HW1 5834   0.659   2.235   1.227
 1697SOL    HW2 5835   0.706   2.372   1.182
 1698SOL     OW 5836   0.925   3.531   1.471
 1698SOL    HW1 5837   0.897   3.490   1.389
 1698SOL    HW2 5838   0.917   3.625   1.456
 1699SOL     OW 5839   0.420   2.355   0.232
 1699SOL    HW1 5840   0.499   2.410   0.233
 1699SOL    HW2 5841   0.350   2.415   0.208
 1700SOL     OW 5842   0.153   2.996   1.478
 1700SOL    HW1 5843   0.152   2.946   1.560
 1700SOL    HW2 5844   0.169   2.930   1.410
 1701SOL     OW 5845   1.320   2.905   1.218
 1701SOL    HW1 5846   1.341   2.841   1.149
 1701SOL    HW2 5847   1.254   2.962   1.179
 1702SOL     OW 5848   1.319   2.719   0.327
 1702SOL    HW1 5849   1.246   2.685   0.379
 1702SOL    HW2 5850   1.294   2.702   0.237
 1703SOL     OW 5851   1.777   3.595   1.155
 1703SOL    HW1 5852   1.839   3.624   1.088
 1703SOL    HW2 5853   1.753   3.506   1.129
 1704SOL     OW 5854   1.245   3.593   1.104
 1704SOL    HW1 5855   1.328   3.617   1.063
 1704SOL    HW2 5856   1.254   3.500   1.125
 1705SOL     OW 5857   0.078   3.073   1.028
 1705SOL    HW1 5858   0.086   3.101   1.119
 1705SOL    HW2 5859   3.986   3.088   1.007
 1706SOL     OW 5860   0.681   3.530   1.740
 1706SOL    HW1 5861   0.620   3.604   1.743
 1706SOL    HW2 5862   0.741   3.551   1.669
 1707SOL     OW 5863   0.940   1.979   0.123
 1707SOL    HW1 5864   0.970   1.965   0.033
 1707SOL    HW2 5865   0.988   1.913   0.174
 1708SOL     OW 5866   1.391   3.434   0.491
 1708SOL    HW1 5867   1.452   3.469   0.426
 1708SOL    HW2 5868   1.342   3.510   0.522
 1709SOL     OW 5869   0.173   3.618   1.835
 1709SOL    HW1 5870   0.119   3.565   1.893
 1709SOL    HW2 5871   0.218   3.679   1.893
 1710SOL     OW 5872   1.278   2.789   0.671
 1710SOL    HW1 5873   1.352   2.729   0.680
 1710SOL    HW2 5874   1.312   2.861   0.618
 1711SOL     OW 5875   0.803   3.138   1.424
 1711SOL    HW1 5876   0.775   3.180   1.505
 1711SOL    HW2 5877   0.731   3.153   1.363
 1712SOL     OW 5878   0.670   3.455   0.195
 1712SOL    HW1 5879   0.658   3.497   0.110
 1712SOL    HW2 5880   0.624   3.371   0.186
 1713SOL     OW 5881   1.619   3.589   1.390
 1713SOL    HW1 5882   1.673   3.593   1.311
 1713SOL    HW2 5883   1.604   3.681   1.413
 1714SOL     OW 5884   0.263   2.171   0.715
 1714SOL    HW1 5885   0.176   2.202   0.690
 1714SOL    HW2 5886   0.259   2.163   0.810
 1715SOL     OW 5887   1.221   3.458   0.038
 1715SOL    HW1 5888   1.210   3.366   0.063
 1715SOL    HW2 5889   1.175   3.465  13.854
 1716SOL     OW 5890   0.823   2.869   1.376
 1716SOL    HW1 5891   0.867   2.862   1.291
 1716SOL    HW2 5892   0.819   2.962   1.394
 1717SOL     OW 5893   0.925   2.774   0.292
 1717SOL    HW1 5894   0.992   2.814   0.238
 1717SOL    HW2 5895   0.970   2.703   0.338
 1718SOL     OW 5896   1.481   3.522   0.063
 1718SOL    HW1 5897   1.390   3.494   0.060
 1718SOL    HW2 5898   1.516   3.500  13.877
 1719SOL     OW 5899   0.374   3.164   1.491
 1719SOL    HW1 5900   0.359   3.244   1.442
 1719SOL    HW2 5901   0.297   3.110   1.475
 1720SOL     OW 5902   1.607   3.147   1.279
 1720SOL    HW1 5903   1.668   3.132   1.351
 1720SOL    HW2 5904   1.547   3.214   1.311
 1721SOL     OW 5905   1.062   2.972   0.712
 1721SOL    HW1 5906   0.989   2.921   0.748
 1721SOL    HW2 5907   1.126   2.907   0.684
 1722SOL     OW 5908   1.026   2.104   0.966
 1722SOL    HW1 5909   1.023   2.058   0.883
 1722SOL    HW2 5910   1.020   2.035   1.032
 1723SOL     OW 5911   0.610   3.346   0.482
 1723SOL    HW1 5912   0.658   3.299   0.414
 1723SOL    HW2 5913   0.537   3.387   0.436
 1724SOL     OW 5914   1.737   2.247   1.380
 1724SOL    HW1 5915   1.805   2.314   1.384
 1724SOL    HW2 5916   1.775   2.177   1.327
 1725SOL     OW 5917   0.267   3.174   0.313
 1725SOL    HW1 5918   0.186   3.198   0.267
 1725SOL    HW2 5919   0.266   3.226   0.393
 1726SOL     OW 5920   0.109   2.857   1.718
 1726SOL    HW1 5921   0.050   2.854   1.793
 1726SOL    HW2 5922   0.196   2.841   1.755
 1727SOL     OW 5923   0.678   2.058   1.500
 1727SOL    HW1 5924   0.762   2.036   1.460
 1727SOL    HW2 5925   0.700   2.091   1.586
 1728SOL     OW 5926   0.050   2.221   0.035
 1728SOL    HW1 5927   3.962   2.237   0.070
 1728SOL    HW2 5928   0.038   2.218  13.840
 1729SOL     OW 5929   1.424   2.720   1.396
 1729SOL    HW1 5930   1.375   2.780   1.341
 1729SOL    HW2 5931   1.513   2.722   1.361
 1730SOL     OW 5932   0.050   2.040   0.312
 1730SOL    HW1 5933   0.084   2.102   0.248
 1730SOL    HW2 5934   0.108   1.964   0.305
 1731SOL     OW 5935   1.187   3.203   0.124
 1731SOL    HW1 5936   1.092   3.198   0.113
 1731SOL    HW2 5937   1.201   3.192   0.218
 1732SOL     OW 5938   0.621   2.692   1.438
 1732SOL    HW1 5939   0.678   2.768   1.423
 1732SOL    HW2 5940   0.682   2.618   1.444
 1733SOL     OW 5941   1.488   3.645   0.983
 1733SOL    HW1 5942   1.509   3.707   0.913
 1733SOL    HW2 5943   1.573   3.618   1.018
 1734SOL     OW 5944   0.716   2.421   1.701
 1734SOL    HW1 5945   0.763   2.480   1.760
 1734SOL    HW2 5946   0.737   2.333   1.734
 1735SOL     OW 5947   1.474   3.056   1.628
 1735SOL    HW1 5948   1.462   3.071   1.722
 1735SOL    HW2 5949   1.566   3.077   1.612
 1736SOL     OW 5950   0.377   3.611   1.560
 1736SOL    HW1 5951   0.289   3.647   1.549
 1736SOL    HW2 5952   0.364   3.527   1.604
 1737SOL     OW 5953   1.664   2.742   1.253
 1737SOL    HW1 5954   1.657   2.657   1.210
 1737SOL    HW2 5955   1.652   2.806   1.183
 1738SOL     OW 5956   1.220   2.181   0.456
 1738SOL    HW1 5957   1.283   2.109   0.450
 1738SOL    HW2 5958   1.247   2.231   0.532
 1739SOL     OW 5959   0.585   2.596   0.677
 1739SOL    HW1 5960   0.625   2.682   0.662
 1739SOL    HW2 5961   0.522   2.586   0.606
 1740SOL     OW 5962   1.744   2.233   1.662
 1740SOL    HW1 5963   1.750   2.239   1.567
 1740SOL    HW2 5964   1.673   2.171   1.678
 1741SOL     OW 5965   1.748   2.808   1.506
 1741SOL    HW1 5966   1.732   2.902   1.518
 1741SOL    HW2 5967   1.728   2.792   1.413
 1742SOL     OW 5968   0.908   3.262   0.076
 1742SOL    HW1 5969   0.849   3.240   0.148
 1742SOL    HW2 5970   0.855   3.248  13.897
 1743SOL     OW 5971   0.657   3.648   0.927
 1743SOL    HW1 5972   0.638   3.740   0.912
 1743SOL    HW2 5973   0.753   3.643   0.928
 1744SOL     OW 5974   0.870   2.832   0.853
 1744SOL    HW1 5975   0.920   2.759   0.890
 1744SOL    HW2 5976   0.831   2.876   0.929
 1745SOL     OW 5977   1.097   2.876   0.111
 1745SOL    HW1 5978   1.089   2.922   0.028
 1745SOL    HW2 5979   1.170   2.815   0.099
 1746SOL     OW 5980   1.846   3.410   0.840
 1746SOL    HW1 5981   1.767   3.402   0.786
 1746SOL    HW2 5982   1.828   3.354   0.916
 1747SOL     OW 5983   0.231   3.167   1.858
 1747SOL    HW1 5984   0.153   3.119   1.830
 1747SOL    HW2 5985   0.220   3.179   1.952
 1748SOL     OW 5986   0.112   3.150   0.735
 1748SOL    HW1 5987   0.131   3.103   0.816
 1748SOL    HW2 5988   0.103   3.081   0.669
 1749SOL     OW 5989   0.686   3.269   1.633
 1749SOL    HW1 5990   0.606   3.227   1.664
 1749SOL    HW2 5991   0.683   3.358   1.670
 1750SOL     OW 5992   0.440   2.298   0.541
 1750SOL    HW1 5993   0.471   2.225   0.487
 1750SOL    HW2 5994   0.384   2.256   0.607
 1751SOL     OW 5995   1.699   3.343   1.085
 1751SOL    HW1 5996   1.618   3.325   1.038
 1751SOL    HW2 5997   1.703   3.277   1.154
 1752SOL     OW 5998   0.338   2.422   1.293
 1752SOL    HW1 5999   0.390   2.363   1.348
 1752SOL    HW2 6000   0.351   2.390   1.204
 1753SOL     OW 6001   0.831   3.443   0.676
 1753SOL    HW1 6002   0.811   3.505   0.606
 1753SOL    HW2 6003   0.758   3.382   0.676
 1754SOL     OW 6004   1.434   2.093   1.120
 1754SOL    HW1 6005   1.436   2.003   1.152
 1754SOL    HW2 6006   1.381   2.140   1.184
 1755SOL     OW 6007   1.011   1.878   1.135
 1755SOL    HW1 6008   0.956   1.811   1.092
 1755SOL    HW2 6009   1.098   1.840   1.136
 1756SOL     OW 6010   0.784   3.186   0.321
 1756SOL    HW1 6011   0.754   3.096   0.338
 1756SOL    HW2 6012   0.862   3.195   0.375
 1757SOL     OW 6013   0.622   3.415   1.288
 1757SOL    HW1 6014   0.621   3.498   1.337
 1757SOL    HW2 6015   0.709   3.410   1.250
 1758SOL     OW 6016   1.347   1.926   0.165
 1758SOL    HW1 6017   1.381   1.870   0.095
 1758SOL    HW2 6018   1.265   1.886   0.191
 1759SOL     OW 6019   1.300   2.325   0.678
 1759SOL    HW1 6020   1.248   2.405   0.681
 1759SOL    HW2 6021   1.292   2.289   0.766
 1760SOL     OW 6022   1.571   2.048   0.876
 1760SOL    HW1 6023   1.535   2.078   0.960
 1760SOL    HW2 6024   1.583   2.127   0.825
 1761SOL     OW 6025   0.044   2.888   0.258
 1761SOL    HW1 6026   0.137   2.868   0.253
 1761SOL    HW2 6027   0.006   2.814   0.306
 1762SOL     OW 6028   0.895   3.524   0.344
 1762SOL    HW1 6029   0.819   3.495   0.294
 1762SOL    HW2 6030   0.864   3.599   0.394
 1763SOL     OW 6031   0.230   2.490   1.979
 1763SOL    HW1 6032   0.137   2.497   2.000
 1763SOL    HW2 6033   0.232   2.456   1.889
 1764SOL     OW 6034   0.230   2.135   2.848
 1764SOL    HW1 6035   0.251   2.099   2.935
 1764SOL    HW2 6036   0.134   2.128   2.842
 1765SOL     OW 6037   0.004   2.218   2.492
 1765SOL    HW1 6038   3.914   2.237   2.519
 1765SOL    HW2 6039   3.996   2.191   2.401
 1766SOL     OW 6040   0.583   3.156   3.061
 1766SOL    HW1 6041   0.497   3.158   3.018
 1766SOL    HW2 6042   0.596   3.246   3.092
 1767SOL     OW 6043   1.569   3.372   2.572
 1767SOL    HW1 6044   1.526   3.350   2.654
 1767SOL    HW2 6045   1.498   3.376   2.508
 1768SOL     OW 6046   1.134   2.560   2.557
 1768SOL    HW1 6047   1.181   2.642   2.545
 1768SOL    HW2 6048   1.086   2.572   2.639
 1769SOL     OW 6049   1.764   2.473   2.089
 1769SOL    HW1 6050   1.738   2.472   1.997
 1769SOL    HW2 6051   1.759   2.381   2.116
 1770SOL     OW 6052   0.746   2.997   2.908
 1770SOL    HW1 6053   0.686   3.035   2.972
 1770SOL    HW2 6054   0.784   3.073   2.864
 1771SOL     OW 6055   0.876   2.623   3.687
 1771SOL    HW1 6056   0.867   2.693   3.751
 1771SOL    HW2 6057   0.897   2.668   3.605
 1772SOL     OW 6058   0.685   2.860   2.507
 1772SOL    HW1 6059   0.752   2.852   2.574
 1772SOL    HW2 6060   0.616   2.914   2.547
 1773SOL     OW 6061   0.714   3.011   3.683
 1773SOL    HW1 6062   0.762   3.088   3.714
 1773SOL    HW2 6063   0.635   3.046   3.643
 1774SOL     OW 6064   0.351   3.261   2.941
 1774SOL    HW1 6065   0.270   3.243   2.893
 1774SOL    HW2 6066   0.401   3.318   2.883
 1775SOL     OW 6067   1.459   3.364   3.223
 1775SOL    HW1 6068   1.513   3.442   3.233
 1775SOL    HW2 6069   1.390   3.374   3.288
 1776SOL     OW 6070   0.450   2.256   3.343
 1776SOL    HW1 6071   0.526   2.197   3.349
 1776SOL    HW2 6072   0.375   2.199   3.360
 1777SOL     OW 6073   1.604   2.294   2.595
 1777SOL    HW1 6074   1.524   2.314   2.546
 1777SOL    HW2 6075   1.620   2.374   2.647
 1778SOL     OW 6076   0.220   3.573   2.327
 1778SOL    HW1 6077   0.217   3.659   2.369
 1778SOL    HW2 6078   0.297   3.577   2.270
 1779SOL     OW 6079   1.138   3.204   3.557
 1779SOL    HW1 6080   1.179   3.196   3.643
 1779SOL    HW2 6081   1.086   3.124   3.548
 1780SOL     OW 6082   0.256   3.308   2.400
 1780SOL    HW1 6083   0.226   3.398   2.387
 1780SOL    HW2 6084   0.188   3.267   2.454
 1781SOL     OW 6085   0.250   2.927   2.745
 1781SOL    HW1 6086   0.270   2.841   2.783
 1781SOL    HW2 6087   0.196   2.970   2.811
 1782SOL     OW 6088   0.608   3.648   3.287
 1782SOL    HW1 6089   0.526   3.635   3.335
 1782SOL    HW2 6090   0.635   3.737   3.311
 1783SOL     OW 6091   0.573   2.850   2.003
 1783SOL    HW1 6092   0.624   2.894   1.934
 1783SOL    HW2 6093   0.613   2.880   2.084
 1784SOL     OW 6094   1.554   1.998   3.306
 1784SOL    HW1 6095   1.577   2.081   3.265
 1784SOL    HW2 6096   1.549   2.017   3.399
 1785SOL     OW 6097   0.144   2.522   2.434
 1785SOL    HW1 6098   0.087   2.445   2.432
 1785SOL    HW2 6099   0.110   2.576   2.506
 1786SOL     OW 6100   1.845   3.602   2.199
 1786SOL    HW1 6101   1.915   3.580   2.260
 1786SOL    HW2 6102   1.861   3.694   2.176
 1787SOL     OW 6103   0.039   3.449   2.000
 1787SOL    HW1 6104   0.038   3.358   2.031
 1787SOL    HW2 6105   3.952   3.482   2.019
 1788SOL     OW 6106   1.691   2.781   2.506
 1788SOL    HW1 6107   1.769   2.735   2.476
 1788SOL    HW2 6108   1.665   2.834   2.430
 1789SOL     OW 6109   1.650   2.965   2.291
 1789SOL    HW1 6110   1.736   2.965   2.250
 1789SOL    HW2 6111   1.657   3.029   2.362
 1790SOL     OW 6112   0.145   2.613   3.452
 1790SOL    HW1 6113   0.241   2.611   3.446
 1790SOL    HW2 6114   0.126   2.700   3.489
 1791SOL     OW 6115   0.619   3.250   2.596
 1791SOL    HW1 6116   0.571   3.167   2.604
 1791SOL    HW2 6117   0.601   3.278   2.506
 1792SOL     OW 6118   1.284   3.097   3.282
 1792SOL    HW1 6119   1.316   3.029   3.223
 1792SOL    HW2 6120   1.344   3.092   3.357
 1793SOL     OW 6121   0.825   1.865   2.377
 1793SOL    HW1 6122   0.865   1.949   2.353
 1793SOL    HW2 6123   0.731   1.883   2.380
 1794SOL     OW 6124   0.183   2.810   3.145
 1794SOL    HW1 6125   0.271   2.775   3.133
 1794SOL    HW2 6126   0.133   2.775   3.071
 1795SOL     OW 6127   1.531   2.862   2.062
 1795SOL    HW1 6128   1.462   2.804   2.095
 1795SOL    HW2 6129   1.574   2.895   2.141
 1796SOL     OW 6130   1.226   3.669   3.492
 1796SOL    HW1 6131   1.198   3.731   3.424
 1796SOL    HW2 6132   1.225   3.584   3.448
 1797SOL     OW 6133   0.345   2.109   3.683
 1797SOL    HW1 6134   0.378   2.198   3.691
 1797SOL    HW2 6135   0.252   2.115   3.707
 1798SOL     OW 6136   1.467   3.280   2.809
 1798SOL    HW1 6137   1.400   3.296   2.876
 1798SOL    HW2 6138   1.453   3.189   2.783
 1799SOL     OW 6139   1.652   3.605   2.444
 1799SOL    HW1 6140   1.637   3.572   2.355
 1799SOL    HW2 6141   1.631   3.530   2.500
 1800SOL     OW 6142   0.596   2.574   2.130
 1800SOL    HW1 6143   0.601   2.659   2.088
 1800SOL    HW2 6144   0.533   2.586   2.201
 1801SOL     OW 6145   1.281   2.230   2.799
 1801SOL    HW1 6146   1.193   2.195   2.808
 1801SOL    HW2 6147   1.336   2.174   2.853
 1802SOL     OW 6148   1.575   3.538   2.172
 1802SOL    HW1 6149   1.669   3.558   2.166
 1802SOL    HW2 6150   1.549   3.520   2.082
 1803SOL     OW 6151   0.791   2.480   3.310
 1803SOL    HW1 6152   0.765   2.453   3.398
 1803SOL    HW2 6153   0.758   2.410   3.253
 1804SOL     OW 6154   1.392   2.335   3.539
 1804SOL    HW1 6155   1.396   2.381   3.623
 1804SOL    HW2 6156   1.451   2.260   3.551
 1805SOL     OW 6157   0.949   2.746   3.448
 1805SOL    HW1 6158   1.005   2.679   3.409
 1805SOL    HW2 6159   0.901   2.783   3.375
 1806SOL     OW 6160   0.995   2.271   3.094
 1806SOL    HW1 6161   0.905   2.288   3.123
 1806SOL    HW2 6162   0.985   2.229   3.009
 1807SOL     OW 6163   1.055   2.561   2.286
 1807SOL    HW1 6164   1.073   2.554   2.380
 1807SOL    HW2 6165   0.972   2.515   2.275
 1808SOL     OW 6166   0.083   2.695   2.651
 1808SOL    HW1 6167   0.153   2.662   2.707
 1808SOL    HW2 6168   0.107   2.786   2.634
 1809SOL     OW 6169   0.127   3.720   3.445
 1809SOL    HW1 6170   0.136   3.688   3.535
 1809SOL    HW2 6171   0.035   3.707   3.424
 1810SOL     OW 6172   0.899   2.213   2.057
 1810SOL    HW1 6173   0.939   2.276   1.997
 1810SOL    HW2 6174   0.912   2.128   2.013
 1811SOL     OW 6175   1.672   2.448   3.695
 1811SOL    HW1 6176   1.647   2.521   3.639
 1811SOL    HW2 6177   1.709   2.383   3.635
 1812SOL     OW 6178   1.382   3.004   2.401
 1812SOL    HW1 6179   1.460   2.993   2.348
 1812SOL    HW2 6180   1.328   3.066   2.352
 1813SOL     OW 6181   0.548   2.039   2.759
 1813SOL    HW1 6182   0.555   2.072   2.849
 1813SOL    HW2 6183   0.546   2.118   2.705
 1814SOL     OW 6184   0.999   3.307   2.330
 1814SOL    HW1 6185   0.967   3.383   2.281
 1814SOL    HW2 6186   0.976   3.326   2.421
 1815SOL     OW 6187   0.360   3.675   2.729
 1815SOL    HW1 6188   0.442   3.628   2.743
 1815SOL    HW2 6189   0.382   3.767   2.738
 1816SOL     OW 6190   1.801   2.909   2.735
 1816SOL    HW1 6191   1.749   2.892   2.656
 1816SOL    HW2 6192   1.736   2.919   2.804
 1817SOL     OW 6193   1.227   3.400   3.373
 1817SOL    HW1 6194   1.215   3.328   3.435
 1817SOL    HW2 6195   1.155   3.390   3.311
 1818SOL     OW 6196   0.311   2.813   2.105
 1818SOL    HW1 6197   0.393   2.835   2.062
 1818SOL    HW2 6198   0.299   2.720   2.087
 1819SOL     OW 6199   1.482   2.613   2.583
 1819SOL    HW1 6200   1.479   2.571   2.669
 1819SOL    HW2 6201   1.561   2.667   2.585
 1820SOL     OW 6202   0.472   3.123   3.599
 1820SOL    HW1 6203   0.446   3.131   3.507
 1820SOL    HW2 6204   0.390   3.125   3.647
 1821SOL     OW 6205   1.114   3.644   2.081
 1821SOL    HW1 6206   1.047   3.600   2.133
 1821SOL    HW2 6207   1.145   3.577   2.020
 1822SOL     OW 6208   0.203   2.129   3.371
 1822SOL    HW1 6209   0.114   2.163   3.367
 1822SOL    HW2 6210   0.194   2.040   3.405
 1823SOL     OW 6211   1.627   3.244   1.955
 1823SOL    HW1 6212   1.588   3.329   1.937
 1823SOL    HW2 6213   1.559   3.181   1.932
 1824SOL     OW 6214   0.465   3.605   2.183
 1824SOL    HW1 6215   0.505   3.665   2.246
 1824SOL    HW2 6216   0.539   3.574   2.129
 1825SOL     OW 6217   1.398   1.963   2.303
 1825SOL    HW1 6218   1.387   1.943   2.210
 1825SOL    HW2 6219   1.481   1.921   2.326
 1826SOL     OW 6220   0.259   3.657   3.083
 1826SOL    HW1 6221   0.297   3.587   3.135
 1826SOL    HW2 6222   0.255   3.622   2.994
 1827SOL     OW 6223   0.938   3.566   2.759
 1827SOL    HW1 6224   1.016   3.515   2.783
 1827SOL    HW2 6225   0.897   3.515   2.690
 1828SOL     OW 6226   0.402   2.553   2.332
 1828SOL    HW1 6227   0.424   2.461   2.349
 1828SOL    HW2 6228   0.310   2.560   2.359
 1829SOL     OW 6229   1.524   2.079   3.583
 1829SOL    HW1 6230   1.539   2.099   3.675
 1829SOL    HW2 6231   1.453   2.015   3.583
 1830SOL     OW 6232   0.652   1.976   1.955
 1830SOL    HW1 6233   0.705   1.901   1.979
 1830SOL    HW2 6234   0.598   1.945   1.882
 1831SOL     OW 6235   0.765   2.141   3.617
 1831SOL    HW1 6236   0.846   2.091   3.613
 1831SOL    HW2 6237   0.719   2.107   3.694
 1832SOL     OW 6238   0.876   3.383   3.056
 1832SOL    HW1 6239   0.858   3.345   2.970
 1832SOL    HW2 6240   0.945   3.328   3.093
 1833SOL     OW 6241   1.339   2.451   3.295
 1833SOL    HW1 6242   1.369   2.420   3.380
 1833SOL    HW2 6243   1.375   2.540   3.287
 1834SOL     OW 6244   0.819   3.249   2.808
 1834SOL    HW1 6245   0.905   3.239   2.766
 1834SOL    HW2 6246   0.757   3.255   2.735
 1835SOL     OW 6247   0.930   2.372   2.761
 1835SOL    HW1 6248   0.905   2.362   2.670
 1835SOL    HW2 6249   0.960   2.284   2.787
 1836SOL     OW 6250   0.561   1.924   2.353
 1836SOL    HW1 6251   0.479   1.929   2.403
 1836SOL    HW2 6252   0.563   2.005   2.303
 1837SOL     OW 6253   1.427   3.063   1.900
 1837SOL    HW1 6254   1.457   2.988   1.952
 1837SOL    HW2 6255   1.342   3.085   1.937
 1838SOL     OW 6256   0.309   1.914   2.031
 1838SOL    HW1 6257   0.371   1.952   1.969
 1838SOL    HW2 6258   0.361   1.849   2.079
 1839SOL     OW 6259   0.943   2.111   2.318
 1839SOL    HW1 6260   0.916   2.150   2.234
 1839SOL    HW2 6261   1.037   2.128   2.323
 1840SOL     OW 6262   1.080   2.547   3.318
 1840SOL    HW1 6263   1.015   2.477   3.323
 1840SOL    HW2 6264   1.164   2.501   3.313
 1841SOL     OW 6265   1.219   3.435   2.656
 1841SOL    HW1 6266   1.233   3.501   2.588
 1841SOL    HW2 6267   1.289   3.451   2.720
 1842SOL     OW 6268   0.467   3.014   2.592
 1842SOL    HW1 6269   0.398   2.989   2.653
 1842SOL    HW2 6270   0.430   2.999   2.505
 1843SOL     OW 6271   1.263   3.653   2.472
 1843SOL    HW1 6272   1.313   3.717   2.423
 1843SOL    HW2 6273   1.188   3.702   2.507
 1844SOL     OW 6274   1.025   2.396   1.888
 1844SOL    HW1 6275   0.981   2.479   1.870
 1844SOL    HW2 6276   1.090   2.417   1.955
 1845SOL     OW 6277   0.085   2.437   3.251
 1845SOL    HW1 6278   0.175   2.424   3.221
 1845SOL    HW2 6279   0.092   2.506   3.317
 1846SOL     OW 6280   0.567   2.089   3.031
 1846SOL    HW1 6281   0.608   2.016   3.077
 1846SOL    HW2 6282   0.475   2.085   3.059
 1847SOL     OW 6283   0.867   2.319   2.501
 1847SOL    HW1 6284   0.820   2.374   2.437
 1847SOL    HW2 6285   0.889   2.239   2.452
 1848SOL     OW 6286   1.018   1.917   2.610
 1848SOL    HW1 6287   0.959   1.912   2.534
 1848SOL    HW2 6288   0.993   1.842   2.664
 1849SOL     OW 6289   1.439   3.021   2.718
 1849SOL    HW1 6290   1.368   2.958   2.719
 1849SOL    HW2 6291   1.463   3.030   2.626
 1850SOL     OW 6292   1.463   2.472   2.828
 1850SOL    HW1 6293   1.406   2.395   2.830
 1850SOL    HW2 6294   1.519   2.462   2.905
 1851SOL     OW 6295   1.843   2.673   2.253
 1851SOL    HW1 6296   1.902   2.621   2.307
 1851SOL    HW2 6297   1.813   2.612   2.185
 1852SOL     OW 6298   0.488   3.284   2.018
 1852SOL    HW1 6299   0.411   3.255   2.068
 1852SOL    HW2 6300   0.474   3.249   1.931
 1853SOL     OW 6301   1.678   3.125   2.504
 1853SOL    HW1 6302   1.773   3.125   2.519
 1853SOL    HW2 6303   1.650   3.214   2.526
 1854SOL     OW 6304   1.390   2.438   1.929
 1854SOL    HW1 6305   1.336   2.413   2.004
 1854SOL    HW2 6306   1.480   2.419   1.957
 1855SOL     OW 6307   0.576   2.128   2.174
 1855SOL    HW1 6308   0.611   2.083   2.097
 1855SOL    HW2 6309   0.544   2.212   2.140
 1856SOL     OW 6310   1.748   3.105   3.422
 1856SOL    HW1 6311   1.836   3.067   3.416
 1856SOL    HW2 6312   1.763   3.195   3.451
 1857SOL     OW 6313   1.053   3.213   3.192
 1857SOL    HW1 6314   0.978   3.183   3.243
 1857SOL    HW2 6315   1.128   3.173   3.235
 1858SOL     OW 6316   1.611   3.490   3.521
 1858SOL    HW1 6317   1.601   3.524   3.432
 1858SOL    HW2 6318   1.693   3.441   3.519
 1859SOL     OW 6319   1.136   3.073   2.963
 1859SOL    HW1 6320   1.076   3.110   3.028
 1859SOL    HW2 6321   1.106   3.108   2.880
 1860SOL     OW 6322   1.622   2.958   2.937
 1860SOL    HW1 6323   1.615   3.021   3.008
 1860SOL    HW2 6324   1.547   2.977   2.881
 1861SOL     OW 6325   0.918   1.955   3.253
 1861SOL    HW1 6326   0.941   1.936   3.162
 1861SOL    HW2 6327   0.997   1.994   3.290
 1862SOL     OW 6328   0.984   2.977   3.584
 1862SOL    HW1 6329   0.893   2.994   3.609
 1862SOL    HW2 6330   0.980   2.898   3.531
 1863SOL     OW 6331   0.708   2.923   2.233
 1863SOL    HW1 6332   0.694   2.904   2.326
 1863SOL    HW2 6333   0.784   2.870   2.209
 1864SOL     OW 6334   0.424   2.681   3.116
 1864SOL    HW1 6335   0.492   2.690   3.183
 1864SOL    HW2 6336   0.391   2.592   3.126
 1865SOL     OW 6337   1.264   2.236   3.144
 1865SOL    HW1 6338   1.295   2.314   3.189
 1865SOL    HW2 6339   1.173   2.256   3.121
 1866SOL     OW 6340   0.065   3.441   3.205
 1866SOL    HW1 6341   0.069   3.472   3.114
 1866SOL    HW2 6342   0.156   3.435   3.233
 1867SOL     OW 6343   0.361   2.965   2.342
 1867SOL    HW1 6344   0.360   3.047   2.292
 1867SOL    HW2 6345   0.362   2.897   2.275
 1868SOL     OW 6346   0.546   2.394   2.723
 1868SOL    HW1 6347   0.560   2.451   2.648
 1868SOL    HW2 6348   0.614   2.419   2.785
 1869SOL     OW 6349   1.247   3.212   2.253
 1869SOL    HW1 6350   1.303   3.283   2.285
 1869SOL    HW2 6351   1.160   3.234   2.286
 1870SOL     OW 6352   1.290   3.323   3.011
 1870SOL    HW1 6353   1.345   3.328   3.089
 1870SOL    HW2 6354   1.234   3.247   3.026
 1871SOL     OW 6355   1.572   2.482   2.340
 1871SOL    HW1 6356   1.527   2.533   2.407
 1871SOL    HW2 6357   1.616   2.548   2.286
 1872SOL     OW 6358   0.345   3.392   3.177
 1872SOL    HW1 6359   0.335   3.340   3.098
 1872SOL    HW2 6360   0.439   3.406   3.186
 1873SOL     OW 6361   0.421   2.599   3.465
 1873SOL    HW1 6362   0.485   2.643   3.408
 1873SOL    HW2 6363   0.460   2.513   3.482
 1874SOL     OW 6364   1.606   2.654   3.540
 1874SOL    HW1 6365   1.520   2.696   3.534
 1874SOL    HW2 6366   1.658   2.699   3.472
 1875SOL     OW 6367   0.997   1.996   3.615
 1875SOL    HW1 6368   1.055   2.069   3.594
 1875SOL    HW2 6369   1.046   1.918   3.590
 1876SOL     OW 6370   0.496   1.895   3.610
 1876SOL    HW1 6371   0.451   1.844   3.543
 1876SOL    HW2 6372   0.444   1.974   3.620
 1877SOL     OW 6373   0.587   2.737   2.895
 1877SOL    HW1 6374   0.622   2.826   2.897
 1877SOL    HW2 6375   0.530   2.731   2.972
 1878SOL     OW 6376   1.346   2.720   2.882
 1878SOL    HW1 6377   1.259   2.705   2.844
 1878SOL    HW2 6378   1.392   2.637   2.871
 1879SOL     OW 6379   1.200   2.388   2.124
 1879SOL    HW1 6380   1.208   2.311   2.180
 1879SOL    HW2 6381   1.158   2.453   2.181
 1880SOL     OW 6382   0.309   2.057   3.108
 1880SOL    HW1 6383   0.262   2.092   3.184
 1880SOL    HW2 6384   0.288   1.963   3.108
 1881SOL     OW 6385   0.064   3.167   3.143
 1881SOL    HW1 6386   0.093   3.123   3.223
 1881SOL    HW2 6387   0.054   3.259   3.167
 1882SOL     OW 6388   0.721   2.491   2.914
 1882SOL    HW1 6389   0.798   2.479   2.858
 1882SOL    HW2 6390   0.692   2.581   2.896
 1883SOL     OW 6391   1.740   2.822   3.720
 1883SOL    HW1 6392   1.695   2.756   3.666
 1883SOL    HW2 6393   1.679   2.839   3.792
 1884SOL     OW 6394   0.318   1.923   2.481
 1884SOL    HW1 6395   0.294   2.013   2.501
 1884SOL    HW2 6396   0.325   1.880   2.567
 1885SOL     OW 6397   1.610   2.237   2.229
 1885SOL    HW1 6398   1.617   2.183   2.307
 1885SOL    HW2 6399   1.590   2.325   2.262
 1886SOL     OW 6400   1.030   2.620   2.820
 1886SOL    HW1 6401   1.020   2.637   2.913
 1886SOL    HW2 6402   1.003   2.529   2.809
 1887SOL     OW 6403   0.987   3.430   3.585
 1887SOL    HW1 6404   0.966   3.470   3.501
 1887SOL    HW2 6405   1.028   3.347   3.563
 1888SOL     OW 6406   1.851   3.362   3.465
 1888SOL    HW1 6407   1.873   3.391   3.376
 1888SOL    HW2 6408   1.931   3.377   3.515
 1889SOL     OW 6409   0.356   2.785   3.660
 1889SOL    HW1 6410   0.434   2.806   3.712
 1889SOL    HW2 6411   0.386   2.717   3.600
 1890SOL     OW 6412   1.527   2.129   1.986
 1890SOL    HW1 6413   1.462   2.066   2.017
 1890SOL    HW2 6414   1.562   2.170   2.066
 1891SOL     OW 6415   1.285   2.689   1.890
 1891SOL    HW1 6416   1.326   2.602   1.894
 1891SOL    HW2 6417   1.317   2.726   1.808
 1892SOL     OW 6418   1.070   3.201   2.719
 1892SOL    HW1 6419   1.075   3.129   2.656
 1892SOL    HW2 6420   1.127   3.269   2.683
 1893SOL     OW 6421   0.313   2.662   2.811
 1893SOL    HW1 6422   0.407   2.678   2.806
 1893SOL    HW2 6423   0.307   2.571   2.842
 1894SOL     OW 6424   0.327   2.384   2.877
 1894SOL    HW1 6425   0.292   2.296   2.862
 1894SOL    HW2 6426   0.403   2.390   2.820
 1895SOL     OW 6427   1.135   2.234   3.548
 1895SOL    HW1 6428   1.087   2.288   3.611
 1895SOL    HW2 6429   1.222   2.273   3.544
 1896SOL     OW 6430   1.160   2.059   3.334
 1896SOL    HW1 6431   1.148   2.122   3.406
 1896SOL    HW2 6432   1.203   2.109   3.265
 1897SOL     OW 6433   0.001   3.175   2.044
 1897SOL    HW1 6434   3.906   3.191   2.047
 1897SOL    HW2 6435   0.009   3.082   2.063
 1898SOL     OW 6436   0.076   3.662   2.757
 1898SOL    HW1 6437   0.097   3.569   2.749
 1898SOL    HW2 6438   0.161   3.706   2.759
 1899SOL     OW 6439   0.505   3.421   2.781
 1899SOL    HW1 6440   0.569   3.490   2.798
 1899SOL    HW2 6441   0.548   3.364   2.716
 1900SOL     OW 6442   0.972   2.649   3.085
 1900SOL    HW1 6443   1.032   2.630   3.157
 1900SOL    HW2 6444   0.889   2.609   3.112
 1901SOL     OW 6445   0.038   2.427   2.970
 1901SOL    HW1 6446   0.121   2.404   2.928
 1901SOL    HW2 6447   0.057   2.422   3.064
 1902SOL     OW 6448   0.206   2.372   3.590
 1902SOL    HW1 6449   0.241   2.320   3.517
 1902SOL    HW2 6450   0.165   2.448   3.548
 1903SOL     OW 6451   1.375   2.798   3.517
 1903SOL    HW1 6452   1.397   2.891   3.513
 1903SOL    HW2 6453   1.370   2.771   3.425
 1904SOL     OW 6454   0.820   2.431   2.228
 1904SOL    HW1 6455   0.825   2.356   2.169
 1904SOL    HW2 6456   0.745   2.481   2.195
 1905SOL     OW 6457   1.638   2.463   3.041
 1905SOL    HW1 6458   1.627   2.408   3.119
 1905SOL    HW2 6459   1.724   2.438   3.007
 1906SOL     OW 6460   0.302   3.405   3.582
 1906SOL    HW1 6461   0.255   3.474   3.630
 1906SOL    HW2 6462   0.275   3.324   3.625
 1907SOL     OW 6463   0.716   2.308   3.115
 1907SOL    HW1 6464   0.659   2.235   3.089
 1907SOL    HW2 6465   0.706   2.372   3.044
 1908SOL     OW 6466   0.925   3.531   3.333
 1908SOL    HW1 6467   0.897   3.491   3.251
 1908SOL    HW2 6468   0.917   3.625   3.318
 1909SOL     OW 6469   0.449   2.349   2.059
 1909SOL    HW1 6470   0.515   2.416   2.078
 1909SOL    HW2 6471   0.370   2.398   2.037
 1910SOL     OW 6472   0.153   2.996   3.340
 1910SOL    HW1 6473   0.152   2.946   3.422
 1910SOL    HW2 6474   0.169   2.930   3.272
 1911SOL     OW 6475   1.320   2.905   3.080
 1911SOL    HW1 6476   1.341   2.841   3.011
 1911SOL    HW2 6477   1.255   2.962   3.041
 1912SOL     OW 6478   1.316   2.719   2.165
 1912SOL    HW1 6479   1.243   2.686   2.217
 1912SOL    HW2 6480   1.289   2.705   2.074
 1913SOL     OW 6481   1.776   3.596   3.016
 1913SOL    HW1 6482   1.838   3.625   2.950
 1913SOL    HW2 6483   1.753   3.507   2.991
 1914SOL     OW 6484   1.245   3.593   2.965
 1914SOL    HW1 6485   1.328   3.616   2.924
 1914SOL    HW2 6486   1.254   3.500   2.986
 1915SOL     OW 6487   0.078   3.074   2.890
 1915SOL    HW1 6488   0.085   3.102   2.981
 1915SOL    HW2 6489   3.986   3.089   2.868
 1916SOL     OW 6490   0.681   3.530   3.602
 1916SOL    HW1 6491   0.620   3.604   3.605
 1916SOL    HW2 6492   0.742   3.551   3.532
 1917SOL     OW 6493   1.392   3.430   2.353
 1917SOL    HW1 6494   1.450   3.465   2.285
 1917SOL    HW2 6495   1.342   3.506   2.383
 1918SOL     OW 6496   0.173   3.618   3.697
 1918SOL    HW1 6497   0.119   3.565   3.755
 1918SOL    HW2 6498   0.218   3.679   3.755
 1919SOL     OW 6499   1.278   2.791   2.533
 1919SOL    HW1 6500   1.352   2.731   2.544
 1919SOL    HW2 6501   1.313   2.862   2.479
 1920SOL     OW 6502   0.803   3.138   3.286
 1920SOL    HW1 6503   0.775   3.180   3.367
 1920SOL    HW2 6504   0.730   3.153   3.225
 1921SOL     OW 6505   0.674   3.482   2.022
 1921SOL    HW1 6506   0.684   3.500   1.928
 1921SOL    HW2 6507   0.614   3.407   2.026
 1922SOL     OW 6508   1.619   3.589   3.252
 1922SOL    HW1 6509   1.673   3.593   3.173
 1922SOL    HW2 6510   1.604   3.681   3.275
 1923SOL     OW 6511   0.262   2.173   2.576
 1923SOL    HW1 6512   0.175   2.203   2.552
 1923SOL    HW2 6513   0.259   2.164   2.672
 1924SOL     OW 6514   1.208   3.462   1.900
 1924SOL    HW1 6515   1.198   3.370   1.924
 1924SOL    HW2 6516   1.147   3.475   1.828
 1925SOL     OW 6517   0.823   2.868   3.238
 1925SOL    HW1 6518   0.867   2.862   3.153
 1925SOL    HW2 6519   0.819   2.962   3.256
 1926SOL     OW 6520   0.916   2.772   2.154
 1926SOL    HW1 6521   0.975   2.805   2.087
 1926SOL    HW2 6522   0.966   2.705   2.200
 1927SOL     OW 6523   1.488   3.494   1.907
 1927SOL    HW1 6524   1.394   3.482   1.890
 1927SOL    HW2 6525   1.527   3.499   1.819
 1928SOL     OW 6526   0.374   3.164   3.353
 1928SOL    HW1 6527   0.359   3.244   3.304
 1928SOL    HW2 6528   0.297   3.110   3.337
 1929SOL     OW 6529   1.607   3.146   3.141
 1929SOL    HW1 6530   1.668   3.132   3.213
 1929SOL    HW2 6531   1.547   3.213   3.173
 1930SOL     OW 6532   1.062   2.973   2.573
 1930SOL    HW1 6533   0.989   2.923   2.610
 1930SOL    HW2 6534   1.126   2.907   2.547
 1931SOL     OW 6535   1.026   2.105   2.829
 1931SOL    HW1 6536   1.023   2.059   2.745
 1931SOL    HW2 6537   1.020   2.035   2.895
 1932SOL     OW 6538   0.608   3.353   2.342
 1932SOL    HW1 6539   0.655   3.303   2.276
 1932SOL    HW2 6540   0.532   3.389   2.296
 1933SOL     OW 6541   1.737   2.246   3.241
 1933SOL    HW1 6542   1.805   2.313   3.244
 1933SOL    HW2 6543   1.777   2.173   3.193
 1934SOL     OW 6544   0.255   3.202   2.153
 1934SOL    HW1 6545   0.160   3.206   2.137
 1934SOL    HW2 6546   0.265   3.241   2.240
 1935SOL     OW 6547   0.110   2.858   3.580
 1935SOL    HW1 6548   0.051   2.854   3.655
 1935SOL    HW2 6549   0.196   2.842   3.617
 1936SOL     OW 6550   0.678   2.058   3.362
 1936SOL    HW1 6551   0.762   2.036   3.322
 1936SOL    HW2 6552   0.700   2.091   3.449
 1937SOL     OW 6553   0.081   2.170   1.899
 1937SOL    HW1 6554   3.985   2.170   1.908
 1937SOL    HW2 6555   0.101   2.252   1.853
 1938SOL     OW 6556   1.425   2.720   3.258
 1938SOL    HW1 6557   1.375   2.780   3.203
 1938SOL    HW2 6558   1.513   2.722   3.222
 1939SOL     OW 6559   0.014   2.108   2.240
 1939SOL    HW1 6560   0.047   2.171   2.176
 1939SOL    HW2 6561   0.092   2.063   2.272
 1940SOL     OW 6562   1.177   3.195   1.980
 1940SOL    HW1 6563   1.085   3.168   1.980
 1940SOL    HW2 6564   1.203   3.195   2.072
 1941SOL     OW 6565   0.621   2.692   3.300
 1941SOL    HW1 6566   0.678   2.768   3.285
 1941SOL    HW2 6567   0.682   2.618   3.306
 1942SOL     OW 6568   1.488   3.644   2.844
 1942SOL    HW1 6569   1.509   3.709   2.777
 1942SOL    HW2 6570   1.573   3.620   2.881
 1943SOL     OW 6571   0.716   2.421   3.563
 1943SOL    HW1 6572   0.763   2.480   3.622
 1943SOL    HW2 6573   0.737   2.333   3.596
 1944SOL     OW 6574   1.474   3.056   3.490
 1944SOL    HW1 6575   1.462   3.071   3.584
 1944SOL    HW2 6576   1.566   3.077   3.474
 1945SOL     OW 6577   0.377   3.611   3.422
 1945SOL    HW1 6578   0.289   3.647   3.411
 1945SOL    HW2 6579   0.364   3.527   3.465
 1946SOL     OW 6580   1.664   2.742   3.115
 1946SOL    HW1 6581   1.657   2.657   3.072
 1946SOL    HW2 6582   1.652   2.806   3.045
 1947SOL     OW 6583   1.217   2.181   2.319
 1947SOL    HW1 6584   1.278   2.108   2.314
 1947SOL    HW2 6585   1.245   2.231   2.395
 1948SOL     OW 6586   0.587   2.597   2.537
 1948SOL    HW1 6587   0.626   2.683   2.522
 1948SOL    HW2 6588   0.523   2.587   2.467
 1949SOL     OW 6589   1.741   2.235   3.522
 1949SOL    HW1 6590   1.746   2.241   3.426
 1949SOL    HW2 6591   1.670   2.173   3.538
 1950SOL     OW 6592   1.749   2.808   3.367
 1950SOL    HW1 6593   1.733   2.901   3.380
 1950SOL    HW2 6594   1.728   2.792   3.275
 1951SOL     OW 6595   0.867   3.227   1.908
 1951SOL    HW1 6596   0.825   3.254   1.989
 1951SOL    HW2 6597   0.878   3.308   1.858
 1952SOL     OW 6598   0.657   3.648   2.789
 1952SOL    HW1 6599   0.638   3.740   2.774
 1952SOL    HW2 6600   0.753   3.643   2.790
 1953SOL     OW 6601   0.870   2.833   2.715
 1953SOL    HW1 6602   0.920   2.760   2.752
 1953SOL    HW2 6603   0.831   2.876   2.790
 1954SOL     OW 6604   1.075   2.850   1.951
 1954SOL    HW1 6605   1.055   2.902   1.873
 1954SOL    HW2 6606   1.149   2.796   1.925
 1955SOL     OW 6607   1.846   3.410   2.701
 1955SOL    HW1 6608   1.765   3.401   2.651
 1955SOL    HW2 6609   1.834   3.352   2.776
 1956SOL     OW 6610   0.231   3.167   3.720
 1956SOL    HW1 6611   0.153   3.119   3.692
 1956SOL    HW2 6612   0.219   3.179   3.814
 1957SOL     OW 6613   0.125   3.148   2.588
 1957SOL    HW1 6614   0.143   3.095   2.666
 1957SOL    HW2 6615   0.104   3.084   2.520
 1958SOL     OW 6616   0.686   3.270   3.495
 1958SOL    HW1 6617   0.606   3.227   3.526
 1958SOL    HW2 6618   0.682   3.358   3.532
 1959SOL     OW 6619   0.440   2.294   2.397
 1959SOL    HW1 6620   0.438   2.225   2.331
 1959SOL    HW2 6621   0.384   2.261   2.468
 1960SOL     OW 6622   1.699   3.344   2.949
 1960SOL    HW1 6623   1.618   3.325   2.902
 1960SOL    HW2 6624   1.703   3.277   3.017
 1961SOL     OW 6625   0.338   2.422   3.155
 1961SOL    HW1 6626   0.390   2.363   3.210
 1961SOL    HW2 6627   0.351   2.390   3.066
 1962SOL     OW 6628   0.831   3.441   2.537
 1962SOL    HW1 6629   0.808   3.500   2.466
 1962SOL    HW2 6630   0.758   3.379   2.542
 1963SOL     OW 6631   1.434   2.092   2.982
 1963SOL    HW1 6632   1.437   2.003   3.015
 1963SOL    HW2 6633   1.382   2.140   3.046
 1964SOL     OW 6634   1.011   1.877   2.997
 1964SOL    HW1 6635   0.957   1.811   2.953
 1964SOL    HW2 6636   1.099   1.839   2.998
 1965SOL     OW 6637   0.774   3.194   2.184
 1965SOL    HW1 6638   0.747   3.103   2.192
 1965SOL    HW2 6639   0.856   3.199   2.233
 1966SOL     OW 6640   0.622   3.416   3.150
 1966SOL    HW1 6641   0.621   3.498   3.199
 1966SOL    HW2 6642   0.709   3.411   3.112
 1967SOL     OW 6643   1.356   1.910   2.035
 1967SOL    HW1 6644   1.387   1.844   1.973
 1967SOL    HW2 6645   1.267   1.883   2.056
 1968SOL     OW 6646   1.298   2.325   2.540
 1968SOL    HW1 6647   1.246   2.405   2.543
 1968SOL    HW2 6648   1.292   2.289   2.629
 1969SOL     OW 6649   1.570   2.049   2.737
 1969SOL    HW1 6650   1.535   2.079   2.821
 1969SOL    HW2 6651   1.583   2.129   2.686
 1970SOL     OW 6652   0.047   2.907   2.105
 1970SOL    HW1 6653   0.142   2.893   2.098
 1970SOL    HW2 6654   0.012   2.820   2.124
 1971SOL     OW 6655   0.889   3.526   2.202
 1971SOL    HW1 6656   0.816   3.507   2.143
 1971SOL    HW2 6657   0.857   3.599   2.256
 1972SOL     OW 6658   0.230   2.490   3.841
 1972SOL    HW1 6659   0.137   2.497   3.862
 1972SOL    HW2 6660   0.232   2.456   3.751
 1973SOL     OW 6661   0.230   2.135   4.710
 1973SOL    HW1 6662   0.251   2.099   4.797
 1973SOL    HW2 6663   0.134   2.128   4.704
 1974SOL     OW 6664   0.004   2.218   4.354
 1974SOL    HW1 6665   3.914   2.237   4.381
 1974SOL    HW2 6666   3.996   2.191   4.263
 1975SOL     OW 6667   0.583   3.156   4.923
 1975SOL    HW1 6668   0.497   3.157   4.880
 1975SOL    HW2 6669   0.596   3.246   4.954
 1976SOL     OW 6670   1.569   3.373   4.434
 1976SOL    HW1 6671   1.526   3.350   4.516
 1976SOL    HW2 6672   1.498   3.376   4.370
 1977SOL     OW 6673   1.134   2.560   4.419
 1977SOL    HW1 6674   1.181   2.643   4.407
 1977SOL    HW2 6675   1.086   2.572   4.501
 1978SOL     OW 6676   1.769   2.471   3.950
 1978SOL    HW1 6677   1.741   2.470   3.859
 1978SOL    HW2 6678   1.758   2.380   3.979
 1979SOL     OW 6679   0.746   2.997   4.770
 1979SOL    HW1 6680   0.686   3.035   4.834
 1979SOL    HW2 6681   0.784   3.073   4.726
 1980SOL     OW 6682   0.875   2.623   5.547
 1980SOL    HW1 6683   0.865   2.693   5.611
 1980SOL    HW2 6684   0.897   2.668   5.466
 1981SOL     OW 6685   0.685   2.860   4.369
 1981SOL    HW1 6686   0.752   2.852   4.436
 1981SOL    HW2 6687   0.616   2.914   4.409
 1982SOL     OW 6688   0.714   3.011   5.545
 1982SOL    HW1 6689   0.762   3.088   5.576
 1982SOL    HW2 6690   0.635   3.046   5.505
 1983SOL     OW 6691   0.351   3.261   4.803
 1983SOL    HW1 6692   0.270   3.243   4.755
 1983SOL    HW2 6693   0.401   3.318   4.745
 1984SOL     OW 6694   1.459   3.364   5.085
 1984SOL    HW1 6695   1.513   3.442   5.095
 1984SOL    HW2 6696   1.390   3.374   5.150
 1985SOL     OW 6697   0.450   2.256   5.206
 1985SOL    HW1 6698   0.525   2.197   5.211
 1985SOL    HW2 6699   0.374   2.199   5.222
 1986SOL     OW 6700   1.602   2.294   4.457
 1986SOL    HW1 6701   1.522   2.313   4.409
 1986SOL    HW2 6702   1.620   2.374   4.507
 1987SOL     OW 6703   0.220   3.573   4.189
 1987SOL    HW1 6704   0.217   3.659   4.231
 1987SOL    HW2 6705   0.297   3.577   4.132
 1988SOL     OW 6706   1.138   3.203   5.418
 1988SOL    HW1 6707   1.179   3.196   5.505
 1988SOL    HW2 6708   1.086   3.124   5.410
 1989SOL     OW 6709   0.256   3.308   4.262
 1989SOL    HW1 6710   0.226   3.398   4.249
 1989SOL    HW2 6711   0.188   3.267   4.316
 1990SOL     OW 6712   0.250   2.926   4.607
 1990SOL    HW1 6713   0.270   2.841   4.645
 1990SOL    HW2 6714   0.196   2.970   4.673
 1991SOL     OW 6715   0.608   3.648   5.149
 1991SOL    HW1 6716   0.526   3.635   5.197
 1991SOL    HW2 6717   0.635   3.737   5.173
 1992SOL     OW 6718   0.573   2.850   3.865
 1992SOL    HW1 6719   0.624   2.893   3.796
 1992SOL    HW2 6720   0.613   2.880   3.946
 1993SOL     OW 6721   1.552   2.000   5.163
 1993SOL    HW1 6722   1.578   2.083   5.124
 1993SOL    HW2 6723   1.544   2.019   5.257
 1994SOL     OW 6724   0.144   2.522   4.297
 1994SOL    HW1 6725   0.087   2.446   4.293
 1994SOL    HW2 6726   0.110   2.576   4.368
 1995SOL     OW 6727   1.845   3.602   4.061
 1995SOL    HW1 6728   1.915   3.580   4.122
 1995SOL    HW2 6729   1.861   3.694   4.038
 1996SOL     OW 6730   0.039   3.449   3.862
 1996SOL    HW1 6731   0.038   3.358   3.893
 1996SOL    HW2 6732   3.952   3.482   3.881
 1997SOL     OW 6733   1.691   2.781   4.368
 1997SOL    HW1 6734   1.769   2.735   4.338
 1997SOL    HW2 6735   1.665   2.834   4.292
 1998SOL     OW 6736   1.649   2.965   4.153
 1998SOL    HW1 6737   1.736   2.965   4.113
 1998SOL    HW2 6738   1.657   3.029   4.224
 1999SOL     OW 6739   0.145   2.613   5.314
 1999SOL    HW1 6740   0.241   2.611   5.308
 1999SOL    HW2 6741   0.126   2.700   5.351
 2000SOL     OW 6742   0.619   3.250   4.458
 2000SOL    HW1 6743   0.571   3.167   4.466
 2000SOL    HW2 6744   0.601   3.278   4.368
 2001SOL     OW 6745   1.284   3.097   5.145
 2001SOL    HW1 6746   1.316   3.029   5.085
 2001SOL    HW2 6747   1.344   3.092   5.219
 2002SOL     OW 6748   0.825   1.865   4.239
 2002SOL    HW1 6749   0.865   1.949   4.215
 2002SOL    HW2 6750   0.731   1.883   4.242
 2003SOL     OW 6751   0.183   2.810   5.007
 2003SOL    HW1 6752   0.271   2.775   4.995
 2003SOL    HW2 6753   0.133   2.775   4.933
 2004SOL     OW 6754   1.531   2.862   3.924
 2004SOL    HW1 6755   1.462   2.804   3.956
 2004SOL    HW2 6756   1.574   2.895   4.003
 2005SOL     OW 6757   1.226   3.669   5.354
 2005SOL    HW1 6758   1.197   3.731   5.286
 2005SOL    HW2 6759   1.225   3.584   5.310
 2006SOL     OW 6760   0.345   2.109   5.547
 2006SOL    HW1 6761   0.377   2.199   5.551
 2006SOL    HW2 6762   0.252   2.116   5.570
 2007SOL     OW 6763   1.467   3.280   4.671
 2007SOL    HW1 6764   1.400   3.296   4.738
 2007SOL    HW2 6765   1.453   3.189   4.645
 2008SOL     OW 6766   1.652   3.605   4.306
 2008SOL    HW1 6767   1.637   3.572   4.217
 2008SOL    HW2 6768   1.631   3.530   4.362
 2009SOL     OW 6769   0.596   2.574   3.993
 2009SOL    HW1 6770   0.601   2.659   3.950
 2009SOL    HW2 6771   0.533   2.586   4.063
 2010SOL     OW 6772   1.281   2.231   4.661
 2010SOL    HW1 6773   1.192   2.194   4.670
 2010SOL    HW2 6774   1.336   2.173   4.715
 2011SOL     OW 6775   1.575   3.538   4.034
 2011SOL    HW1 6776   1.669   3.558   4.028
 2011SOL    HW2 6777   1.549   3.521   3.944
 2012SOL     OW 6778   0.791   2.479   5.172
 2012SOL    HW1 6779   0.765   2.453   5.260
 2012SOL    HW2 6780   0.758   2.410   5.115
 2013SOL     OW 6781   1.391   2.334   5.400
 2013SOL    HW1 6782   1.395   2.379   5.484
 2013SOL    HW2 6783   1.448   2.257   5.411
 2014SOL     OW 6784   0.949   2.746   5.310
 2014SOL    HW1 6785   1.004   2.678   5.271
 2014SOL    HW2 6786   0.901   2.783   5.237
 2015SOL     OW 6787   0.995   2.271   4.956
 2015SOL    HW1 6788   0.905   2.288   4.985
 2015SOL    HW2 6789   0.985   2.229   4.871
 2016SOL     OW 6790   1.055   2.561   4.148
 2016SOL    HW1 6791   1.073   2.554   4.242
 2016SOL    HW2 6792   0.972   2.515   4.137
 2017SOL     OW 6793   0.083   2.695   4.513
 2017SOL    HW1 6794   0.153   2.662   4.569
 2017SOL    HW2 6795   0.107   2.786   4.496
 2018SOL     OW 6796   0.127   3.720   5.308
 2018SOL    HW1 6797   0.136   3.688   5.397
 2018SOL    HW2 6798   0.035   3.707   5.286
 2019SOL     OW 6799   0.899   2.212   3.919
 2019SOL    HW1 6800   0.939   2.276   3.859
 2019SOL    HW2 6801   0.912   2.128   3.875
 2020SOL     OW 6802   1.665   2.446   5.559
 2020SOL    HW1 6803   1.644   2.521   5.503
 2020SOL    HW2 6804   1.704   2.382   5.499
 2021SOL     OW 6805   1.381   3.004   4.264
 2021SOL    HW1 6806   1.460   2.993   4.210
 2021SOL    HW2 6807   1.328   3.066   4.214
 2022SOL     OW 6808   0.548   2.039   4.621
 2022SOL    HW1 6809   0.555   2.072   4.711
 2022SOL    HW2 6810   0.546   2.118   4.567
 2023SOL     OW 6811   1.000   3.307   4.192
 2023SOL    HW1 6812   0.967   3.383   4.143
 2023SOL    HW2 6813   0.976   3.326   4.283
 2024SOL     OW 6814   0.360   3.675   4.591
 2024SOL    HW1 6815   0.442   3.628   4.605
 2024SOL    HW2 6816   0.382   3.767   4.600
 2025SOL     OW 6817   1.801   2.910   4.597
 2025SOL    HW1 6818   1.749   2.892   4.518
 2025SOL    HW2 6819   1.736   2.919   4.666
 2026SOL     OW 6820   1.227   3.400   5.235
 2026SOL    HW1 6821   1.215   3.328   5.297
 2026SOL    HW2 6822   1.155   3.390   5.172
 2027SOL     OW 6823   0.311   2.813   3.967
 2027SOL    HW1 6824   0.393   2.835   3.924
 2027SOL    HW2 6825   0.299   2.720   3.949
 2028SOL     OW 6826   1.482   2.612   4.445
 2028SOL    HW1 6827   1.479   2.571   4.531
 2028SOL    HW2 6828   1.561   2.667   4.448
 2029SOL     OW 6829   0.472   3.123   5.461
 2029SOL    HW1 6830   0.446   3.131   5.369
 2029SOL    HW2 6831   0.390   3.125   5.509
 2030SOL     OW 6832   1.114   3.644   3.943
 2030SOL    HW1 6833   1.047   3.600   3.995
 2030SOL    HW2 6834   1.145   3.577   3.882
 2031SOL     OW 6835   0.203   2.129   5.234
 2031SOL    HW1 6836   0.113   2.163   5.229
 2031SOL    HW2 6837   0.194   2.040   5.267
 2032SOL     OW 6838   1.627   3.244   3.817
 2032SOL    HW1 6839   1.588   3.330   3.799
 2032SOL    HW2 6840   1.559   3.181   3.795
 2033SOL     OW 6841   0.465   3.605   4.045
 2033SOL    HW1 6842   0.505   3.665   4.108
 2033SOL    HW2 6843   0.539   3.574   3.991
 2034SOL     OW 6844   1.398   1.963   4.165
 2034SOL    HW1 6845   1.387   1.943   4.072
 2034SOL    HW2 6846   1.480   1.920   4.189
 2035SOL     OW 6847   0.259   3.658   4.945
 2035SOL    HW1 6848   0.297   3.587   4.997
 2035SOL    HW2 6849   0.255   3.623   4.856
 2036SOL     OW 6850   0.938   3.566   4.621
 2036SOL    HW1 6851   1.016   3.515   4.645
 2036SOL    HW2 6852   0.897   3.515   4.552
 2037SOL     OW 6853   0.402   2.553   4.194
 2037SOL    HW1 6854   0.424   2.461   4.211
 2037SOL    HW2 6855   0.310   2.560   4.221
 2038SOL     OW 6856   1.522   2.079   5.443
 2038SOL    HW1 6857   1.537   2.100   5.535
 2038SOL    HW2 6858   1.456   2.010   5.445
 2039SOL     OW 6859   0.652   1.976   3.817
 2039SOL    HW1 6860   0.706   1.901   3.841
 2039SOL    HW2 6861   0.598   1.945   3.744
 2040SOL     OW 6862   0.766   2.142   5.480
 2040SOL    HW1 6863   0.847   2.092   5.474
 2040SOL    HW2 6864   0.719   2.104   5.554
 2041SOL     OW 6865   0.876   3.383   4.918
 2041SOL    HW1 6866   0.858   3.345   4.832
 2041SOL    HW2 6867   0.945   3.328   4.955
 2042SOL     OW 6868   1.339   2.452   5.156
 2042SOL    HW1 6869   1.369   2.420   5.241
 2042SOL    HW2 6870   1.375   2.540   5.149
 2043SOL     OW 6871   0.819   3.249   4.670
 2043SOL    HW1 6872   0.905   3.239   4.628
 2043SOL    HW2 6873   0.757   3.255   4.597
 2044SOL     OW 6874   0.930   2.372   4.623
 2044SOL    HW1 6875   0.905   2.362   4.532
 2044SOL    HW2 6876   0.960   2.284   4.649
 2045SOL     OW 6877   0.561   1.924   4.215
 2045SOL    HW1 6878   0.479   1.929   4.265
 2045SOL    HW2 6879   0.563   2.005   4.165
 2046SOL     OW 6880   1.428   3.063   3.762
 2046SOL    HW1 6881   1.457   2.988   3.814
 2046SOL    HW2 6882   1.342   3.085   3.799
 2047SOL     OW 6883   0.309   1.913   3.893
 2047SOL    HW1 6884   0.371   1.952   3.831
 2047SOL    HW2 6885   0.361   1.849   3.941
 2048SOL     OW 6886   0.943   2.111   4.180
 2048SOL    HW1 6887   0.916   2.150   4.096
 2048SOL    HW2 6888   1.037   2.128   4.185
 2049SOL     OW 6889   1.080   2.546   5.180
 2049SOL    HW1 6890   1.015   2.477   5.183
 2049SOL    HW2 6891   1.164   2.501   5.174
 2050SOL     OW 6892   1.219   3.435   4.518
 2050SOL    HW1 6893   1.232   3.501   4.450
 2050SOL    HW2 6894   1.289   3.451   4.582
 2051SOL     OW 6895   0.468   3.014   4.454
 2051SOL    HW1 6896   0.398   2.989   4.515
 2051SOL    HW2 6897   0.430   2.999   4.367
 2052SOL     OW 6898   1.263   3.653   4.334
 2052SOL    HW1 6899   1.313   3.717   4.285
 2052SOL    HW2 6900   1.188   3.702   4.369
 2053SOL     OW 6901   1.025   2.396   3.751
 2053SOL    HW1 6902   0.982   2.479   3.732
 2053SOL    HW2 6903   1.091   2.417   3.817
 2054SOL     OW 6904   0.085   2.437   5.113
 2054SOL    HW1 6905   0.175   2.424   5.083
 2054SOL    HW2 6906   0.092   2.505   5.179
 2055SOL     OW 6907   0.567   2.089   4.893
 2055SOL    HW1 6908   0.608   2.015   4.938
 2055SOL    HW2 6909   0.475   2.085   4.921
 2056SOL     OW 6910   0.867   2.319   4.363
 2056SOL    HW1 6911   0.821   2.374   4.299
 2056SOL    HW2 6912   0.889   2.240   4.314
 2057SOL     OW 6913   1.017   1.918   4.472
 2057SOL    HW1 6914   0.959   1.912   4.396
 2057SOL    HW2 6915   0.993   1.843   4.526
 2058SOL     OW 6916   1.439   3.021   4.580
 2058SOL    HW1 6917   1.368   2.958   4.581
 2058SOL    HW2 6918   1.463   3.030   4.488
 2059SOL     OW 6919   1.462   2.473   4.691
 2059SOL    HW1 6920   1.406   2.395   4.692
 2059SOL    HW2 6921   1.519   2.462   4.767
 2060SOL     OW 6922   1.843   2.673   4.115
 2060SOL    HW1 6923   1.903   2.622   4.169
 2060SOL    HW2 6924   1.814   2.611   4.047
 2061SOL     OW 6925   0.488   3.284   3.880
 2061SOL    HW1 6926   0.411   3.255   3.930
 2061SOL    HW2 6927   0.475   3.248   3.793
 2062SOL     OW 6928   1.678   3.125   4.365
 2062SOL    HW1 6929   1.772   3.125   4.381
 2062SOL    HW2 6930   1.650   3.214   4.388
 2063SOL     OW 6931   1.390   2.438   3.791
 2063SOL    HW1 6932   1.336   2.413   3.866
 2063SOL    HW2 6933   1.480   2.418   3.818
 2064SOL     OW 6934   0.576   2.128   4.036
 2064SOL    HW1 6935   0.611   2.083   3.959
 2064SOL    HW2 6936   0.544   2.212   4.002
 2065SOL     OW 6937   1.748   3.105   5.284
 2065SOL    HW1 6938   1.836   3.068   5.277
 2065SOL    HW2 6939   1.763   3.195   5.313
 2066SOL     OW 6940   1.053   3.213   5.054
 2066SOL    HW1 6941   0.978   3.183   5.105
 2066SOL    HW2 6942   1.128   3.173   5.097
 2067SOL     OW 6943   1.610   3.490   5.383
 2067SOL    HW1 6944   1.601   3.524   5.294
 2067SOL    HW2 6945   1.692   3.440   5.381
 2068SOL     OW 6946   1.136   3.073   4.826
 2068SOL    HW1 6947   1.076   3.110   4.890
 2068SOL    HW2 6948   1.106   3.108   4.742
 2069SOL     OW 6949   1.622   2.958   4.799
 2069SOL    HW1 6950   1.615   3.021   4.871
 2069SOL    HW2 6951   1.547   2.976   4.743
 2070SOL     OW 6952   0.918   1.955   5.115
 2070SOL    HW1 6953   0.941   1.936   5.024
 2070SOL    HW2 6954   0.997   1.994   5.151
 2071SOL     OW 6955   0.984   2.977   5.448
 2071SOL    HW1 6956   0.893   2.993   5.472
 2071SOL    HW2 6957   0.980   2.898   5.393
 2072SOL     OW 6958   0.708   2.923   4.095
 2072SOL    HW1 6959   0.694   2.904   4.188
 2072SOL    HW2 6960   0.784   2.870   4.071
 2073SOL     OW 6961   0.424   2.681   4.978
 2073SOL    HW1 6962   0.492   2.690   5.045
 2073SOL    HW2 6963   0.391   2.592   4.988
 2074SOL     OW 6964   1.263   2.236   5.006
 2074SOL    HW1 6965   1.295   2.314   5.050
 2074SOL    HW2 6966   1.173   2.256   4.983
 2075SOL     OW 6967   0.065   3.441   5.066
 2075SOL    HW1 6968   0.069   3.471   4.976
 2075SOL    HW2 6969   0.156   3.436   5.094
 2076SOL     OW 6970   0.361   2.965   4.204
 2076SOL    HW1 6971   0.360   3.047   4.154
 2076SOL    HW2 6972   0.362   2.896   4.137
 2077SOL     OW 6973   0.546   2.394   4.586
 2077SOL    HW1 6974   0.560   2.451   4.510
 2077SOL    HW2 6975   0.614   2.419   4.648
 2078SOL     OW 6976   1.247   3.212   4.115
 2078SOL    HW1 6977   1.303   3.283   4.147
 2078SOL    HW2 6978   1.160   3.234   4.148
 2079SOL     OW 6979   1.290   3.323   4.873
 2079SOL    HW1 6980   1.345   3.328   4.951
 2079SOL    HW2 6981   1.234   3.246   4.888
 2080SOL     OW 6982   1.572   2.483   4.202
 2080SOL    HW1 6983   1.526   2.533   4.269
 2080SOL    HW2 6984   1.617   2.549   4.149
 2081SOL     OW 6985   0.345   3.392   5.039
 2081SOL    HW1 6986   0.335   3.340   4.960
 2081SOL    HW2 6987   0.439   3.406   5.048
 2082SOL     OW 6988   0.421   2.599   5.327
 2082SOL    HW1 6989   0.485   2.643   5.270
 2082SOL    HW2 6990   0.459   2.513   5.343
 2083SOL     OW 6991   1.606   2.655   5.403
 2083SOL    HW1 6992   1.520   2.696   5.397
 2083SOL    HW2 6993   1.658   2.698   5.336
 2084SOL     OW 6994   0.996   1.996   5.477
 2084SOL    HW1 6995   1.055   2.068   5.456
 2084SOL    HW2 6996   1.045   1.917   5.452
 2085SOL     OW 6997   0.496   1.895   5.473
 2085SOL    HW1 6998   0.451   1.844   5.405
 2085SOL    HW2 6999   0.443   1.974   5.482
 2086SOL     OW 7000   0.587   2.737   4.757
 2086SOL    HW1 7001   0.622   2.826   4.759
 2086SOL    HW2 7002   0.530   2.731   4.834
 2087SOL     OW 7003   1.346   2.720   4.744
 2087SOL    HW1 7004   1.259   2.705   4.706
 2087SOL    HW2 7005   1.392   2.637   4.733
 2088SOL     OW 7006   1.200   2.388   3.986
 2088SOL    HW1 7007   1.208   2.310   4.042
 2088SOL    HW2 7008   1.158   2.453   4.043
 2089SOL     OW 7009   0.309   2.056   4.970
 2089SOL    HW1 7010   0.261   2.092   5.045
 2089SOL    HW2 7011   0.288   1.963   4.970
 2090SOL     OW 7012   0.065   3.167   5.005
 2090SOL    HW1 7013   0.093   3.123   5.085
 2090SOL    HW2 7014   0.055   3.259   5.029
 2091SOL     OW 7015   0.721   2.491   4.777
 2091SOL    HW1 7016   0.798   2.478   4.720
 2091SOL    HW2 7017   0.693   2.581   4.758
 2092SOL     OW 7018   1.741   2.821   5.584
 2092SOL    HW1 7019   1.695   2.757   5.529
 2092SOL    HW2 7020   1.680   2.839   5.656
 2093SOL     OW 7021   0.318   1.923   4.343
 2093SOL    HW1 7022   0.294   2.013   4.363
 2093SOL    HW2 7023   0.325   1.880   4.429
 2094SOL     OW 7024   1.610   2.239   4.089
 2094SOL    HW1 7025   1.619   2.183   4.167
 2094SOL    HW2 7026   1.590   2.325   4.124
 2095SOL     OW 7027   1.029   2.620   4.682
 2095SOL    HW1 7028   1.020   2.637   4.775
 2095SOL    HW2 7029   1.003   2.529   4.671
 2096SOL     OW 7030   0.987   3.430   5.447
 2096SOL    HW1 7031   0.966   3.470   5.363
 2096SOL    HW2 7032   1.028   3.346   5.425
 2097SOL     OW 7033   1.851   3.362   5.327
 2097SOL    HW1 7034   1.873   3.391   5.238
 2097SOL    HW2 7035   1.931   3.377   5.377
 2098SOL     OW 7036   0.356   2.785   5.523
 2098SOL    HW1 7037   0.434   2.806   5.574
 2098SOL    HW2 7038   0.385   2.717   5.462
 2099SOL     OW 7039   1.526   2.130   3.847
 2099SOL    HW1 7040   1.461   2.066   3.879
 2099SOL    HW2 7041   1.561   2.170   3.927
 2100SOL     OW 7042   1.285   2.689   3.752
 2100SOL    HW1 7043   1.326   2.602   3.756
 2100SOL    HW2 7044   1.317   2.726   3.670
 2101SOL     OW 7045   1.070   3.201   4.581
 2101SOL    HW1 7046   1.075   3.129   4.518
 2101SOL    HW2 7047   1.127   3.269   4.545
 2102SOL     OW 7048   0.313   2.662   4.673
 2102SOL    HW1 7049   0.407   2.678   4.667
 2102SOL    HW2 7050   0.307   2.571   4.704
 2103SOL     OW 7051   0.327   2.384   4.739
 2103SOL    HW1 7052   0.292   2.296   4.724
 2103SOL    HW2 7053   0.403   2.390   4.682
 2104SOL     OW 7054   1.133   2.234   5.410
 2104SOL    HW1 7055   1.086   2.289   5.473
 2104SOL    HW2 7056   1.221   2.273   5.405
 2105SOL     OW 7057   1.159   2.059   5.196
 2105SOL    HW1 7058   1.148   2.122   5.267
 2105SOL    HW2 7059   1.204   2.108   5.127
 2106SOL     OW 7060   0.001   3.175   3.906
 2106SOL    HW1 7061   3.906   3.191   3.909
 2106SOL    HW2 7062   0.009   3.082   3.925
 2107SOL     OW 7063   0.076   3.662   4.619
 2107SOL    HW1 7064   0.097   3.569   4.611
 2107SOL    HW2 7065   0.161   3.706   4.621
 2108SOL     OW 7066   0.505   3.421   4.643
 2108SOL    HW1 7067   0.570   3.490   4.660
 2108SOL    HW2 7068   0.548   3.364   4.578
 2109SOL     OW 7069   0.972   2.649   4.947
 2109SOL    HW1 7070   1.032   2.630   5.020
 2109SOL    HW2 7071   0.889   2.609   4.973
 2110SOL     OW 7072   0.038   2.427   4.833
 2110SOL    HW1 7073   0.121   2.404   4.790
 2110SOL    HW2 7074   0.057   2.422   4.926
 2111SOL     OW 7075   0.207   2.372   5.452
 2111SOL    HW1 7076   0.241   2.320   5.378
 2111SOL    HW2 7077   0.165   2.447   5.410
 2112SOL     OW 7078   1.375   2.798   5.379
 2112SOL    HW1 7079   1.397   2.891   5.375
 2112SOL    HW2 7080   1.370   2.771   5.288
 2113SOL     OW 7081   0.820   2.431   4.090
 2113SOL    HW1 7082   0.826   2.356   4.031
 2113SOL    HW2 7083   0.745   2.481   4.057
 2114SOL     OW 7084   1.637   2.463   4.904
 2114SOL    HW1 7085   1.626   2.406   4.980
 2114SOL    HW2 7086   1.723   2.439   4.869
 2115SOL     OW 7087   0.302   3.405   5.445
 2115SOL    HW1 7088   0.256   3.474   5.492
 2115SOL    HW2 7089   0.275   3.324   5.487
 2116SOL     OW 7090   0.715   2.308   4.977
 2116SOL    HW1 7091   0.659   2.235   4.951
 2116SOL    HW2 7092   0.706   2.372   4.906
 2117SOL     OW 7093   0.925   3.531   5.195
 2117SOL    HW1 7094   0.897   3.491   5.113
 2117SOL    HW2 7095   0.917   3.625   5.180
 2118SOL     OW 7096   0.449   2.349   3.921
 2118SOL    HW1 7097   0.515   2.416   3.940
 2118SOL    HW2 7098   0.370   2.398   3.899
 2119SOL     OW 7099   0.153   2.996   5.202
 2119SOL    HW1 7100   0.152   2.946   5.284
 2119SOL    HW2 7101   0.169   2.930   5.134
 2120SOL     OW 7102   1.320   2.905   4.942
 2120SOL    HW1 7103   1.340   2.841   4.874
 2120SOL    HW2 7104   1.255   2.962   4.903
 2121SOL     OW 7105   1.316   2.719   4.027
 2121SOL    HW1 7106   1.243   2.686   4.079
 2121SOL    HW2 7107   1.290   2.705   3.936
 2122SOL     OW 7108   1.776   3.596   4.879
 2122SOL    HW1 7109   1.838   3.625   4.812
 2122SOL    HW2 7110   1.753   3.507   4.853
 2123SOL     OW 7111   1.245   3.593   4.827
 2123SOL    HW1 7112   1.328   3.616   4.787
 2123SOL    HW2 7113   1.254   3.500   4.848
 2124SOL     OW 7114   0.078   3.074   4.752
 2124SOL    HW1 7115   0.085   3.102   4.843
 2124SOL    HW2 7116   3.986   3.089   4.730
 2125SOL     OW 7117   0.681   3.530   5.464
 2125SOL    HW1 7118   0.620   3.604   5.467
 2125SOL    HW2 7119   0.741   3.551   5.393
 2126SOL     OW 7120   1.392   3.430   4.215
 2126SOL    HW1 7121   1.450   3.465   4.147
 2126SOL    HW2 7122   1.342   3.506   4.245
 2127SOL     OW 7123   0.173   3.618   5.559
 2127SOL    HW1 7124   0.119   3.565   5.617
 2127SOL    HW2 7125   0.218   3.679   5.617
 2128SOL     OW 7126   1.278   2.791   4.395
 2128SOL    HW1 7127   1.352   2.731   4.406
 2128SOL    HW2 7128   1.313   2.862   4.341
 2129SOL     OW 7129   0.803   3.138   5.148
 2129SOL    HW1 7130   0.775   3.180   5.229
 2129SOL    HW2 7131   0.731   3.153   5.087
 2130SOL     OW 7132   0.674   3.482   3.884
 2130SOL    HW1 7133   0.684   3.500   3.790
 2130SOL    HW2 7134   0.614   3.407   3.888
 2131SOL     OW 7135   1.619   3.589   5.114
 2131SOL    HW1 7136   1.673   3.593   5.035
 2131SOL    HW2 7137   1.604   3.681   5.137
 2132SOL     OW 7138   0.262   2.173   4.438
 2132SOL    HW1 7139   0.175   2.203   4.414
 2132SOL    HW2 7140   0.259   2.164   4.534
 2133SOL     OW 7141   1.208   3.462   3.762
 2133SOL    HW1 7142   1.198   3.370   3.786
 2133SOL    HW2 7143   1.147   3.475   3.690
 2134SOL     OW 7144   0.823   2.869   5.100
 2134SOL    HW1 7145   0.866   2.862   5.015
 2134SOL    HW2 7146   0.819   2.963   5.118
 2135SOL     OW 7147   0.916   2.772   4.016
 2135SOL    HW1 7148   0.975   2.805   3.949
 2135SOL    HW2 7149   0.967   2.705   4.062
 2136SOL     OW 7150   1.488   3.494   3.769
 2136SOL    HW1 7151   1.394   3.482   3.752
 2136SOL    HW2 7152   1.527   3.499   3.681
 2137SOL     OW 7153   0.374   3.164   5.215
 2137SOL    HW1 7154   0.359   3.244   5.166
 2137SOL    HW2 7155   0.297   3.110   5.199
 2138SOL     OW 7156   1.607   3.146   5.003
 2138SOL    HW1 7157   1.668   3.132   5.075
 2138SOL    HW2 7158   1.547   3.213   5.035
 2139SOL     OW 7159   1.062   2.973   4.436
 2139SOL    HW1 7160   0.989   2.923   4.472
 2139SOL    HW2 7161   1.126   2.907   4.409
 2140SOL     OW 7162   1.026   2.105   4.691
 2140SOL    HW1 7163   1.022   2.059   4.607
 2140SOL    HW2 7164   1.020   2.035   4.757
 2141SOL     OW 7165   0.608   3.353   4.204
 2141SOL    HW1 7166   0.655   3.303   4.138
 2141SOL    HW2 7167   0.532   3.389   4.158
 2142SOL     OW 7168   1.737   2.243   5.101
 2142SOL    HW1 7169   1.804   2.311   5.104
 2142SOL    HW2 7170   1.779   2.169   5.058
 2143SOL     OW 7171   0.255   3.202   4.015
 2143SOL    HW1 7172   0.160   3.206   3.999
 2143SOL    HW2 7173   0.266   3.241   4.102
 2144SOL     OW 7174   0.110   2.858   5.442
 2144SOL    HW1 7175   0.050   2.854   5.517
 2144SOL    HW2 7176   0.196   2.841   5.479
 2145SOL     OW 7177   0.678   2.058   5.224
 2145SOL    HW1 7178   0.761   2.035   5.183
 2145SOL    HW2 7179   0.701   2.092   5.310
 2146SOL     OW 7180   0.080   2.170   3.761
 2146SOL    HW1 7181   3.985   2.170   3.770
 2146SOL    HW2 7182   0.101   2.252   3.715
 2147SOL     OW 7183   1.425   2.720   5.121
 2147SOL    HW1 7184   1.375   2.780   5.066
 2147SOL    HW2 7185   1.513   2.722   5.085
 2148SOL     OW 7186   0.014   2.108   4.102
 2148SOL    HW1 7187   0.047   2.171   4.038
 2148SOL    HW2 7188   0.093   2.063   4.134
 2149SOL     OW 7189   1.177   3.195   3.842
 2149SOL    HW1 7190   1.085   3.168   3.842
 2149SOL    HW2 7191   1.203   3.195   3.934
 2150SOL     OW 7192   0.621   2.692   5.162
 2150SOL    HW1 7193   0.678   2.768   5.147
 2150SOL    HW2 7194   0.682   2.618   5.168
 2151SOL     OW 7195   1.488   3.644   4.706
 2151SOL    HW1 7196   1.509   3.709   4.639
 2151SOL    HW2 7197   1.573   3.620   4.743
 2152SOL     OW 7198   0.716   2.420   5.425
 2152SOL    HW1 7199   0.761   2.480   5.484
 2152SOL    HW2 7200   0.736   2.333   5.458
 2153SOL     OW 7201   1.474   3.056   5.353
 2153SOL    HW1 7202   1.462   3.071   5.446
 2153SOL    HW2 7203   1.566   3.077   5.336
 2154SOL     OW 7204   0.377   3.611   5.284
 2154SOL    HW1 7205   0.289   3.647   5.273
 2154SOL    HW2 7206   0.364   3.527   5.328
 2155SOL     OW 7207   1.663   2.742   4.978
 2155SOL    HW1 7208   1.657   2.657   4.935
 2155SOL    HW2 7209   1.652   2.805   4.907
 2156SOL     OW 7210   1.217   2.181   4.181
 2156SOL    HW1 7211   1.278   2.108   4.176
 2156SOL    HW2 7212   1.246   2.231   4.258
 2157SOL     OW 7213   0.586   2.597   4.400
 2157SOL    HW1 7214   0.626   2.683   4.384
 2157SOL    HW2 7215   0.523   2.587   4.329
 2158SOL     OW 7216   1.737   2.237   5.380
 2158SOL    HW1 7217   1.742   2.242   5.285
 2158SOL    HW2 7218   1.666   2.174   5.397
 2159SOL     OW 7219   1.750   2.807   5.230
 2159SOL    HW1 7220   1.734   2.900   5.242
 2159SOL    HW2 7221   1.729   2.790   5.138
 2160SOL     OW 7222   0.867   3.227   3.770
 2160SOL    HW1 7223   0.825   3.254   3.851
 2160SOL    HW2 7224   0.878   3.309   3.720
 2161SOL     OW 7225   0.657   3.648   4.651
 2161SOL    HW1 7226   0.638   3.740   4.636
 2161SOL    HW2 7227   0.753   3.643   4.652
 2162SOL     OW 7228   0.870   2.833   4.577
 2162SOL    HW1 7229   0.920   2.760   4.614
 2162SOL    HW2 7230   0.831   2.876   4.652
 2163SOL     OW 7231   1.075   2.850   3.813
 2163SOL    HW1 7232   1.055   2.902   3.735
 2163SOL    HW2 7233   1.149   2.796   3.787
 2164SOL     OW 7234   1.846   3.410   4.563
 2164SOL    HW1 7235   1.765   3.401   4.513
 2164SOL    HW2 7236   1.834   3.352   4.638
 2165SOL     OW 7237   0.231   3.166   5.582
 2165SOL    HW1 7238   0.153   3.119   5.553
 2165SOL    HW2 7239   0.219   3.179   5.676
 2166SOL     OW 7240   0.125   3.148   4.450
 2166SOL    HW1 7241   0.143   3.095   4.528
 2166SOL    HW2 7242   0.104   3.084   4.382
 2167SOL     OW 7243   0.686   3.269   5.357
 2167SOL    HW1 7244   0.606   3.227   5.388
 2167SOL    HW2 7245   0.683   3.358   5.394
 2168SOL     OW 7246   0.440   2.294   4.259
 2168SOL    HW1 7247   0.438   2.225   4.193
 2168SOL    HW2 7248   0.384   2.261   4.330
 2169SOL     OW 7249   1.699   3.344   4.810
 2169SOL    HW1 7250   1.618   3.325   4.764
 2169SOL    HW2 7251   1.703   3.277   4.879
 2170SOL     OW 7252   0.339   2.423   5.017
 2170SOL    HW1 7253   0.390   2.363   5.071
 2170SOL    HW2 7254   0.351   2.390   4.928
 2171SOL     OW 7255   0.831   3.441   4.399
 2171SOL    HW1 7256   0.808   3.500   4.328
 2171SOL    HW2 7257   0.758   3.379   4.404
 2172SOL     OW 7258   1.434   2.093   4.844
 2172SOL    HW1 7259   1.438   2.003   4.878
 2172SOL    HW2 7260   1.381   2.140   4.908
 2173SOL     OW 7261   1.010   1.877   4.859
 2173SOL    HW1 7262   0.957   1.811   4.815
 2173SOL    HW2 7263   1.098   1.839   4.860
 2174SOL     OW 7264   0.774   3.194   4.046
 2174SOL    HW1 7265   0.747   3.103   4.054
 2174SOL    HW2 7266   0.856   3.199   4.095
 2175SOL     OW 7267   0.622   3.416   5.012
 2175SOL    HW1 7268   0.621   3.498   5.061
 2175SOL    HW2 7269   0.709   3.411   4.974
 2176SOL     OW 7270   1.356   1.910   3.897
 2176SOL    HW1 7271   1.387   1.844   3.835
 2176SOL    HW2 7272   1.267   1.883   3.918
 2177SOL     OW 7273   1.299   2.326   4.403
 2177SOL    HW1 7274   1.246   2.405   4.405
 2177SOL    HW2 7275   1.292   2.289   4.491
 2178SOL     OW 7276   1.568   2.049   4.599
 2178SOL    HW1 7277   1.534   2.079   4.683
 2178SOL    HW2 7278   1.582   2.129   4.548
 2179SOL     OW 7279   0.047   2.907   3.967
 2179SOL    HW1 7280   0.142   2.893   3.960
 2179SOL    HW2 7281   0.011   2.820   3.986
 2180SOL     OW 7282   0.889   3.526   4.064
 2180SOL    HW1 7283   0.816   3.507   4.005
 2180SOL    HW2 7284   0.857   3.599   4.118
 2181SOL     OW 7285   0.230   2.489   5.703
 2181SOL    HW1 7286   0.137   2.496   5.724
 2181SOL    HW2 7287   0.232   2.456   5.613
 2182SOL     OW 7288   0.230   2.135   6.572
 2182SOL    HW1 7289   0.251   2.099   6.659
 2182SOL    HW2 7290   0.134   2.128   6.567
 2183SOL     OW 7291   0.004   2.218   6.216
 2183SOL    HW1 7292   3.914   2.237   6.243
 2183SOL    HW2 7293   3.997   2.190   6.125
 2184SOL     OW 7294   0.582   3.156   6.786
 2184SOL    HW1 7295   0.497   3.158   6.743
 2184SOL    HW2 7296   0.596   3.246   6.816
 2185SOL     OW 7297   1.569   3.370   6.293
 2185SOL    HW1 7298   1.526   3.349   6.376
 2185SOL    HW2 7299   1.498   3.374   6.229
 2186SOL     OW 7300   1.114   2.604   6.273
 2186SOL    HW1 7301   1.184   2.669   6.276
 2186SOL    HW2 7302   1.076   2.605   6.360
 2187SOL     OW 7303   1.765   2.451   5.814
 2187SOL    HW1 7304   1.738   2.453   5.722
 2187SOL    HW2 7305   1.742   2.363   5.843
 2188SOL     OW 7306   0.745   2.998   6.633
 2188SOL    HW1 7307   0.685   3.036   6.697
 2188SOL    HW2 7308   0.784   3.073   6.589
 2189SOL     OW 7309   0.868   2.633   7.409
 2189SOL    HW1 7310   0.870   2.702   7.475
 2189SOL    HW2 7311   0.894   2.676   7.327
 2190SOL     OW 7312   0.684   2.860   6.230
 2190SOL    HW1 7313   0.751   2.853   6.297
 2190SOL    HW2 7314   0.615   2.914   6.270
 2191SOL     OW 7315   0.714   3.011   7.407
 2191SOL    HW1 7316   0.762   3.088   7.437
 2191SOL    HW2 7317   0.634   3.047   7.367
 2192SOL     OW 7318   0.350   3.261   6.665
 2192SOL    HW1 7319   0.270   3.242   6.617
 2192SOL    HW2 7320   0.400   3.318   6.607
 2193SOL     OW 7321   1.459   3.365   6.947
 2193SOL    HW1 7322   1.513   3.443   6.958
 2193SOL    HW2 7323   1.390   3.373   7.012
 2194SOL     OW 7324   0.450   2.256   7.067
 2194SOL    HW1 7325   0.526   2.198   7.074
 2194SOL    HW2 7326   0.375   2.199   7.084
 2195SOL     OW 7327   0.220   3.573   6.051
 2195SOL    HW1 7328   0.217   3.659   6.093
 2195SOL    HW2 7329   0.297   3.577   5.994
 2196SOL     OW 7330   1.138   3.205   7.280
 2196SOL    HW1 7331   1.180   3.196   7.365
 2196SOL    HW2 7332   1.085   3.125   7.270
 2197SOL     OW 7333   0.256   3.308   6.124
 2197SOL    HW1 7334   0.226   3.398   6.111
 2197SOL    HW2 7335   0.188   3.267   6.178
 2198SOL     OW 7336   0.249   2.927   6.468
 2198SOL    HW1 7337   0.270   2.841   6.507
 2198SOL    HW2 7338   0.196   2.970   6.535
 2199SOL     OW 7339   0.608   3.648   7.011
 2199SOL    HW1 7340   0.526   3.635   7.059
 2199SOL    HW2 7341   0.636   3.737   7.035
 2200SOL     OW 7342   0.573   2.850   5.727
 2200SOL    HW1 7343   0.624   2.894   5.658
 2200SOL    HW2 7344   0.613   2.880   5.808
 2201SOL     OW 7345   1.540   1.993   7.008
 2201SOL    HW1 7346   1.556   2.081   6.972
 2201SOL    HW2 7347   1.547   2.005   7.103
 2202SOL     OW 7348   0.145   2.522   6.159
 2202SOL    HW1 7349   0.086   2.446   6.156
 2202SOL    HW2 7350   0.110   2.576   6.230
 2203SOL     OW 7351   1.844   3.603   5.923
 2203SOL    HW1 7352   1.915   3.581   5.984
 2203SOL    HW2 7353   1.860   3.694   5.899
 2204SOL     OW 7354   0.039   3.449   5.724
 2204SOL    HW1 7355   0.038   3.358   5.755
 2204SOL    HW2 7356   3.951   3.482   5.743
 2205SOL     OW 7357   1.643   2.983   6.008
 2205SOL    HW1 7358   1.732   2.975   5.976
 2205SOL    HW2 7359   1.651   3.022   6.094
 2206SOL     OW 7360   0.146   2.614   7.176
 2206SOL    HW1 7361   0.241   2.611   7.170
 2206SOL    HW2 7362   0.126   2.700   7.213
 2207SOL     OW 7363   0.619   3.250   6.320
 2207SOL    HW1 7364   0.571   3.167   6.329
 2207SOL    HW2 7365   0.601   3.278   6.230
 2208SOL     OW 7366   1.285   3.098   7.005
 2208SOL    HW1 7367   1.313   3.026   6.948
 2208SOL    HW2 7368   1.343   3.092   7.081
 2209SOL     OW 7369   0.820   1.860   6.106
 2209SOL    HW1 7370   0.858   1.944   6.079
 2209SOL    HW2 7371   0.725   1.876   6.107
 2210SOL     OW 7372   0.183   2.810   6.869
 2210SOL    HW1 7373   0.272   2.775   6.857
 2210SOL    HW2 7374   0.134   2.775   6.795
 2211SOL     OW 7375   1.529   2.860   5.788
 2211SOL    HW1 7376   1.466   2.797   5.823
 2211SOL    HW2 7377   1.570   2.899   5.865
 2212SOL     OW 7378   1.228   3.670   7.215
 2212SOL    HW1 7379   1.198   3.731   7.149
 2212SOL    HW2 7380   1.226   3.584   7.172
 2213SOL     OW 7381   0.345   2.109   7.407
 2213SOL    HW1 7382   0.379   2.198   7.416
 2213SOL    HW2 7383   0.252   2.116   7.430
 2214SOL     OW 7384   1.465   3.280   6.532
 2214SOL    HW1 7385   1.399   3.297   6.600
 2214SOL    HW2 7386   1.452   3.189   6.508
 2215SOL     OW 7387   1.653   3.604   6.168
 2215SOL    HW1 7388   1.638   3.573   6.079
 2215SOL    HW2 7389   1.631   3.529   6.223
 2216SOL     OW 7390   0.596   2.575   5.855
 2216SOL    HW1 7391   0.600   2.660   5.812
 2216SOL    HW2 7392   0.532   2.587   5.926
 2217SOL     OW 7393   1.575   3.539   5.896
 2217SOL    HW1 7394   1.669   3.558   5.889
 2217SOL    HW2 7395   1.548   3.521   5.806
 2218SOL     OW 7396   0.798   2.477   7.037
 2218SOL    HW1 7397   0.768   2.452   7.124
 2218SOL    HW2 7398   0.762   2.410   6.979
 2219SOL     OW 7399   0.954   2.747   7.172
 2219SOL    HW1 7400   1.012   2.681   7.135
 2219SOL    HW2 7401   0.906   2.782   7.096
 2220SOL     OW 7402   0.988   2.266   6.807
 2220SOL    HW1 7403   0.898   2.282   6.834
 2220SOL    HW2 7404   0.980   2.228   6.719
 2221SOL     OW 7405   1.056   2.560   6.007
 2221SOL    HW1 7406   1.068   2.571   6.102
 2221SOL    HW2 7407   0.972   2.515   5.998
 2222SOL     OW 7408   0.083   2.695   6.375
 2222SOL    HW1 7409   0.153   2.662   6.431
 2222SOL    HW2 7410   0.107   2.787   6.358
 2223SOL     OW 7411   0.127   3.720   7.170
 2223SOL    HW1 7412   0.136   3.688   7.259
 2223SOL    HW2 7413   0.035   3.707   7.148
 2224SOL     OW 7414   0.903   2.211   5.781
 2224SOL    HW1 7415   0.943   2.276   5.723
 2224SOL    HW2 7416   0.904   2.130   5.730
 2225SOL     OW 7417   1.376   3.009   6.117
 2225SOL    HW1 7418   1.458   2.999   6.069
 2225SOL    HW2 7419   1.327   3.073   6.065
 2226SOL     OW 7420   0.547   2.039   6.484
 2226SOL    HW1 7421   0.555   2.072   6.574
 2226SOL    HW2 7422   0.546   2.118   6.430
 2227SOL     OW 7423   0.999   3.307   6.054
 2227SOL    HW1 7424   0.966   3.383   6.005
 2227SOL    HW2 7425   0.975   3.327   6.145
 2228SOL     OW 7426   0.360   3.675   6.453
 2228SOL    HW1 7427   0.442   3.628   6.467
 2228SOL    HW2 7428   0.383   3.767   6.461
 2229SOL     OW 7429   1.227   3.401   7.097
 2229SOL    HW1 7430   1.215   3.328   7.159
 2229SOL    HW2 7431   1.155   3.391   7.034
 2230SOL     OW 7432   0.311   2.813   5.829
 2230SOL    HW1 7433   0.393   2.835   5.786
 2230SOL    HW2 7434   0.299   2.720   5.811
 2231SOL     OW 7435   0.472   3.125   7.323
 2231SOL    HW1 7436   0.447   3.132   7.231
 2231SOL    HW2 7437   0.389   3.126   7.372
 2232SOL     OW 7438   1.114   3.644   5.805
 2232SOL    HW1 7439   1.047   3.600   5.857
 2232SOL    HW2 7440   1.145   3.577   5.744
 2233SOL     OW 7441   0.203   2.128   7.094
 2233SOL    HW1 7442   0.114   2.162   7.091
 2233SOL    HW2 7443   0.195   2.040   7.129
 2234SOL     OW 7444   1.628   3.245   5.676
 2234SOL    HW1 7445   1.586   3.330   5.660
 2234SOL    HW2 7446   1.560   3.181   5.656
 2235SOL     OW 7447   0.465   3.605   5.907
 2235SOL    HW1 7448   0.505   3.665   5.970
 2235SOL    HW2 7449   0.539   3.574   5.853
 2236SOL     OW 7450   0.259   3.658   6.807
 2236SOL    HW1 7451   0.297   3.587   6.859
 2236SOL    HW2 7452   0.255   3.623   6.718
 2237SOL     OW 7453   0.938   3.566   6.483
 2237SOL    HW1 7454   1.015   3.515   6.508
 2237SOL    HW2 7455   0.897   3.515   6.414
 2238SOL     OW 7456   0.402   2.552   6.056
 2238SOL    HW1 7457   0.424   2.461   6.073
 2238SOL    HW2 7458   0.310   2.560   6.083
 2239SOL     OW 7459   0.654   1.976   5.677
 2239SOL    HW1 7460   0.706   1.899   5.702
 2239SOL    HW2 7461   0.599   1.945   5.605
 2240SOL     OW 7462   0.759   2.145   7.342
 2240SOL    HW1 7463   0.844   2.103   7.340
 2240SOL    HW2 7464   0.717   2.111   7.421
 2241SOL     OW 7465   0.876   3.383   6.780
 2241SOL    HW1 7466   0.858   3.345   6.695
 2241SOL    HW2 7467   0.944   3.328   6.817
 2242SOL     OW 7468   0.819   3.249   6.532
 2242SOL    HW1 7469   0.905   3.239   6.490
 2242SOL    HW2 7470   0.757   3.255   6.459
 2243SOL     OW 7471   0.928   2.369   6.487
 2243SOL    HW1 7472   0.907   2.359   6.394
 2243SOL    HW2 7473   0.955   2.282   6.515
 2244SOL     OW 7474   0.559   1.923   6.076
 2244SOL    HW1 7475   0.477   1.930   6.126
 2244SOL    HW2 7476   0.563   2.005   6.027
 2245SOL     OW 7477   1.428   3.062   5.625
 2245SOL    HW1 7478   1.457   2.987   5.677
 2245SOL    HW2 7479   1.343   3.085   5.662
 2246SOL     OW 7480   0.308   1.914   5.755
 2246SOL    HW1 7481   0.368   1.953   5.692
 2246SOL    HW2 7482   0.360   1.849   5.802
 2247SOL     OW 7483   0.932   2.104   6.039
 2247SOL    HW1 7484   0.907   2.146   5.956
 2247SOL    HW2 7485   1.027   2.104   6.038
 2248SOL     OW 7486   1.070   2.531   7.044
 2248SOL    HW1 7487   0.982   2.495   7.046
 2248SOL    HW2 7488   1.127   2.455   7.055
 2249SOL     OW 7489   1.219   3.435   6.380
 2249SOL    HW1 7490   1.232   3.501   6.312
 2249SOL    HW2 7491   1.288   3.452   6.444
 2250SOL     OW 7492   0.467   3.014   6.316
 2250SOL    HW1 7493   0.398   2.989   6.377
 2250SOL    HW2 7494   0.430   2.999   6.229
 2251SOL     OW 7495   1.263   3.653   6.196
 2251SOL    HW1 7496   1.313   3.718   6.147
 2251SOL    HW2 7497   1.188   3.702   6.231
 2252SOL     OW 7498   1.024   2.399   5.613
 2252SOL    HW1 7499   0.976   2.478   5.591
 2252SOL    HW2 7500   1.095   2.428   5.670
 2253SOL     OW 7501   0.085   2.437   6.975
 2253SOL    HW1 7502   0.175   2.424   6.945
 2253SOL    HW2 7503   0.091   2.506   7.041
 2254SOL     OW 7504   0.566   2.090   6.757
 2254SOL    HW1 7505   0.608   2.017   6.802
 2254SOL    HW2 7506   0.475   2.086   6.783
 2255SOL     OW 7507   0.872   2.316   6.224
 2255SOL    HW1 7508   0.824   2.375   6.165
 2255SOL    HW2 7509   0.881   2.235   6.174
 2256SOL     OW 7510   0.974   1.929   6.350
 2256SOL    HW1 7511   0.928   1.911   6.268
 2256SOL    HW2 7512   0.972   1.846   6.397
 2257SOL     OW 7513   1.451   3.019   6.444
 2257SOL    HW1 7514   1.372   2.969   6.420
 2257SOL    HW2 7515   1.498   3.029   6.361
 2258SOL     OW 7516   1.845   2.676   5.937
 2258SOL    HW1 7517   1.927   2.633   5.963
 2258SOL    HW2 7518   1.797   2.609   5.888
 2259SOL     OW 7519   0.488   3.284   5.742
 2259SOL    HW1 7520   0.411   3.255   5.792
 2259SOL    HW2 7521   0.474   3.249   5.655
 2260SOL     OW 7522   1.674   3.113   6.247
 2260SOL    HW1 7523   1.770   3.113   6.253
 2260SOL    HW2 7524   1.650   3.206   6.255
 2261SOL     OW 7525   1.387   2.438   5.652
 2261SOL    HW1 7526   1.341   2.412   5.732
 2261SOL    HW2 7527   1.480   2.421   5.671
 2262SOL     OW 7528   0.580   2.127   5.896
 2262SOL    HW1 7529   0.612   2.083   5.818
 2262SOL    HW2 7530   0.545   2.210   5.864
 2263SOL     OW 7531   1.754   3.102   7.151
 2263SOL    HW1 7532   1.839   3.066   7.125
 2263SOL    HW2 7533   1.773   3.192   7.177
 2264SOL     OW 7534   1.053   3.213   6.916
 2264SOL    HW1 7535   0.978   3.182   6.966
 2264SOL    HW2 7536   1.129   3.173   6.959
 2265SOL     OW 7537   1.613   3.490   7.246
 2265SOL    HW1 7538   1.603   3.524   7.157
 2265SOL    HW2 7539   1.694   3.439   7.242
 2266SOL     OW 7540   1.135   3.071   6.687
 2266SOL    HW1 7541   1.075   3.108   6.752
 2266SOL    HW2 7542   1.105   3.106   6.604
 2267SOL     OW 7543   1.644   2.971   6.650
 2267SOL    HW1 7544   1.624   3.031   6.722
 2267SOL    HW2 7545   1.578   2.989   6.584
 2268SOL     OW 7546   0.914   1.962   6.983
 2268SOL    HW1 7547   0.937   1.945   6.891
 2268SOL    HW2 7548   0.986   2.015   7.016
 2269SOL     OW 7549   0.982   2.981   7.305
 2269SOL    HW1 7550   0.890   2.993   7.329
 2269SOL    HW2 7551   0.982   2.901   7.252
 2270SOL     OW 7552   0.708   2.923   5.957
 2270SOL    HW1 7553   0.693   2.904   6.050
 2270SOL    HW2 7554   0.784   2.870   5.933
 2271SOL     OW 7555   0.424   2.681   6.840
 2271SOL    HW1 7556   0.493   2.689   6.907
 2271SOL    HW2 7557   0.391   2.592   6.851
 2272SOL     OW 7558   1.248   2.256   6.876
 2272SOL    HW1 7559   1.296   2.324   6.827
 2272SOL    HW2 7560   1.158   2.263   6.845
 2273SOL     OW 7561   0.065   3.441   6.928
 2273SOL    HW1 7562   0.069   3.471   6.838
 2273SOL    HW2 7563   0.156   3.436   6.956
 2274SOL     OW 7564   0.361   2.965   6.065
 2274SOL    HW1 7565   0.360   3.047   6.016
 2274SOL    HW2 7566   0.362   2.897   5.998
 2275SOL     OW 7567   0.546   2.395   6.447
 2275SOL    HW1 7568   0.560   2.453   6.372
 2275SOL    HW2 7569   0.615   2.419   6.509
 2276SOL     OW 7570   1.245   3.216   5.973
 2276SOL    HW1 7571   1.302   3.285   6.007
 2276SOL    HW2 7572   1.159   3.237   6.008
 2277SOL     OW 7573   1.290   3.322   6.735
 2277SOL    HW1 7574   1.345   3.328   6.813
 2277SOL    HW2 7575   1.233   3.247   6.751
 2278SOL     OW 7576   0.345   3.392   6.901
 2278SOL    HW1 7577   0.335   3.340   6.822
 2278SOL    HW2 7578   0.439   3.406   6.910
 2279SOL     OW 7579   0.421   2.598   7.189
 2279SOL    HW1 7580   0.485   2.642   7.132
 2279SOL    HW2 7581   0.460   2.513   7.207
 2280SOL     OW 7582   0.991   2.000   7.331
 2280SOL    HW1 7583   1.040   2.019   7.251
 2280SOL    HW2 7584   1.007   1.907   7.348
 2281SOL     OW 7585   0.498   1.896   7.333
 2281SOL    HW1 7586   0.452   1.844   7.267
 2281SOL    HW2 7587   0.445   1.975   7.343
 2282SOL     OW 7588   0.585   2.738   6.618
 2282SOL    HW1 7589   0.622   2.826   6.622
 2282SOL    HW2 7590   0.530   2.732   6.696
 2283SOL     OW 7591   1.223   2.389   5.870
 2283SOL    HW1 7592   1.240   2.322   5.936
 2283SOL    HW2 7593   1.165   2.451   5.913
 2284SOL     OW 7594   0.308   2.057   6.832
 2284SOL    HW1 7595   0.263   2.092   6.909
 2284SOL    HW2 7596   0.287   1.963   6.832
 2285SOL     OW 7597   0.063   3.167   6.867
 2285SOL    HW1 7598   0.093   3.123   6.947
 2285SOL    HW2 7599   0.054   3.259   6.892
 2286SOL     OW 7600   0.722   2.492   6.639
 2286SOL    HW1 7601   0.799   2.478   6.583
 2286SOL    HW2 7602   0.694   2.582   6.619
 2287SOL     OW 7603   0.318   1.923   6.206
 2287SOL    HW1 7604   0.294   2.013   6.225
 2287SOL    HW2 7605   0.324   1.880   6.291
 2288SOL     OW 7606   1.616   2.238   5.954
 2288SOL    HW1 7607   1.609   2.163   6.014
 2288SOL    HW2 7608   1.578   2.311   6.003
 2289SOL     OW 7609   1.012   2.624   6.537
 2289SOL    HW1 7610   1.018   2.639   6.631
 2289SOL    HW2 7611   0.997   2.529   6.529
 2290SOL     OW 7612   0.987   3.431   7.310
 2290SOL    HW1 7613   0.966   3.470   7.225
 2290SOL    HW2 7614   1.028   3.347   7.288
 2291SOL     OW 7615   1.854   3.359   7.189
 2291SOL    HW1 7616   1.872   3.391   7.100
 2291SOL    HW2 7617   1.934   3.377   7.238
 2292SOL     OW 7618   0.356   2.786   7.384
 2292SOL    HW1 7619   0.433   2.806   7.437
 2292SOL    HW2 7620   0.386   2.718   7.324
 2293SOL     OW 7621   1.524   2.131   5.708
 2293SOL    HW1 7622   1.463   2.065   5.742
 2293SOL    HW2 7623   1.563   2.169   5.787
 2294SOL     OW 7624   1.286   2.689   5.615
 2294SOL    HW1 7625   1.327   2.603   5.617
 2294SOL    HW2 7626   1.318   2.728   5.533
 2295SOL     OW 7627   1.070   3.202   6.443
 2295SOL    HW1 7628   1.076   3.130   6.381
 2295SOL    HW2 7629   1.127   3.270   6.407
 2296SOL     OW 7630   0.313   2.662   6.536
 2296SOL    HW1 7631   0.407   2.679   6.531
 2296SOL    HW2 7632   0.307   2.571   6.566
 2297SOL     OW 7633   0.327   2.384   6.601
 2297SOL    HW1 7634   0.292   2.296   6.586
 2297SOL    HW2 7635   0.404   2.390   6.544
 2298SOL     OW 7636   1.129   2.107   7.079
 2298SOL    HW1 7637   1.179   2.148   7.149
 2298SOL    HW2 7638   1.167   2.143   6.999
 2299SOL     OW 7639   0.001   3.175   5.768
 2299SOL    HW1 7640   3.906   3.192   5.771
 2299SOL    HW2 7641   0.009   3.082   5.787
 2300SOL     OW 7642   0.076   3.662   6.481
 2300SOL    HW1 7643   0.097   3.569   6.473
 2300SOL    HW2 7644   0.161   3.706   6.483
 2301SOL     OW 7645   0.505   3.421   6.505
 2301SOL    HW1 7646   0.569   3.490   6.522
 2301SOL    HW2 7647   0.548   3.364   6.440
 2302SOL     OW 7648   0.978   2.652   6.809
 2302SOL    HW1 7649   1.039   2.628   6.879
 2302SOL    HW2 7650   0.896   2.610   6.833
 2303SOL     OW 7651   0.039   2.427   6.694
 2303SOL    HW1 7652   0.122   2.404   6.652
 2303SOL    HW2 7653   0.057   2.422   6.788
 2304SOL     OW 7654   0.206   2.372   7.314
 2304SOL    HW1 7655   0.242   2.321   7.242
 2304SOL    HW2 7656   0.165   2.448   7.272
 2305SOL     OW 7657   1.348   2.813   7.238
 2305SOL    HW1 7658   1.393   2.897   7.232
 2305SOL    HW2 7659   1.371   2.767   7.157
 2306SOL     OW 7660   0.820   2.433   5.950
 2306SOL    HW1 7661   0.824   2.356   5.892
 2306SOL    HW2 7662   0.745   2.483   5.919
 2307SOL     OW 7663   1.657   2.506   6.844
 2307SOL    HW1 7664   1.655   2.433   6.906
 2307SOL    HW2 7665   1.728   2.484   6.783
 2308SOL     OW 7666   0.301   3.405   7.306
 2308SOL    HW1 7667   0.255   3.474   7.354
 2308SOL    HW2 7668   0.275   3.324   7.349
 2309SOL     OW 7669   0.714   2.310   6.840
 2309SOL    HW1 7670   0.658   2.237   6.813
 2309SOL    HW2 7671   0.705   2.374   6.768
 2310SOL     OW 7672   0.925   3.531   7.057
 2310SOL    HW1 7673   0.898   3.490   6.975
 2310SOL    HW2 7674   0.917   3.625   7.041
 2311SOL     OW 7675   0.450   2.349   5.784
 2311SOL    HW1 7676   0.515   2.416   5.803
 2311SOL    HW2 7677   0.371   2.398   5.760
 2312SOL     OW 7678   0.153   2.996   7.064
 2312SOL    HW1 7679   0.153   2.946   7.145
 2312SOL    HW2 7680   0.169   2.930   6.996
 2313SOL     OW 7681   1.321   2.905   6.802
 2313SOL    HW1 7682   1.369   2.873   6.725
 2313SOL    HW2 7683   1.249   2.955   6.766
 2314SOL     OW 7684   1.315   2.704   5.892
 2314SOL    HW1 7685   1.233   2.685   5.937
 2314SOL    HW2 7686   1.292   2.700   5.799
 2315SOL     OW 7687   1.777   3.597   6.742
 2315SOL    HW1 7688   1.839   3.625   6.674
 2315SOL    HW2 7689   1.752   3.508   6.715
 2316SOL     OW 7690   1.245   3.593   6.689
 2316SOL    HW1 7691   1.329   3.616   6.648
 2316SOL    HW2 7692   1.254   3.500   6.711
 2317SOL     OW 7693   0.078   3.074   6.614
 2317SOL    HW1 7694   0.085   3.102   6.706
 2317SOL    HW2 7695   3.986   3.089   6.592
 2318SOL     OW 7696   0.681   3.530   7.327
 2318SOL    HW1 7697   0.621   3.604   7.329
 2318SOL    HW2 7698   0.741   3.551   7.255
 2319SOL     OW 7699   1.392   3.431   6.076
 2319SOL    HW1 7700   1.450   3.466   6.009
 2319SOL    HW2 7701   1.343   3.507   6.107
 2320SOL     OW 7702   0.173   3.618   7.421
 2320SOL    HW1 7703   0.119   3.565   7.479
 2320SOL    HW2 7704   0.218   3.680   7.479
 2321SOL     OW 7705   1.318   2.788   6.256
 2321SOL    HW1 7706   1.402   2.743   6.244
 2321SOL    HW2 7707   1.326   2.868   6.204
 2322SOL     OW 7708   0.803   3.137   7.009
 2322SOL    HW1 7709   0.776   3.180   7.090
 2322SOL    HW2 7710   0.730   3.151   6.949
 2323SOL     OW 7711   0.674   3.482   5.746
 2323SOL    HW1 7712   0.684   3.500   5.652
 2323SOL    HW2 7713   0.614   3.407   5.750
 2324SOL     OW 7714   1.620   3.589   6.977
 2324SOL    HW1 7715   1.673   3.593   6.897
 2324SOL    HW2 7716   1.605   3.681   7.000
 2325SOL     OW 7717   0.262   2.173   6.301
 2325SOL    HW1 7718   0.175   2.203   6.276
 2325SOL    HW2 7719   0.259   2.164   6.396
 2326SOL     OW 7720   1.208   3.463   5.623
 2326SOL    HW1 7721   1.198   3.370   5.647
 2326SOL    HW2 7722   1.146   3.476   5.551
 2327SOL     OW 7723   0.824   2.867   6.962
 2327SOL    HW1 7724   0.869   2.860   6.877
 2327SOL    HW2 7725   0.820   2.961   6.979
 2328SOL     OW 7726   0.915   2.772   5.878
 2328SOL    HW1 7727   0.975   2.805   5.811
 2328SOL    HW2 7728   0.965   2.703   5.922
 2329SOL     OW 7729   1.487   3.495   5.630
 2329SOL    HW1 7730   1.394   3.482   5.614
 2329SOL    HW2 7731   1.527   3.500   5.543
 2330SOL     OW 7732   0.374   3.164   7.077
 2330SOL    HW1 7733   0.359   3.244   7.028
 2330SOL    HW2 7734   0.297   3.110   7.061
 2331SOL     OW 7735   1.609   3.151   6.859
 2331SOL    HW1 7736   1.660   3.124   6.935
 2331SOL    HW2 7737   1.547   3.216   6.893
 2332SOL     OW 7738   1.063   2.973   6.299
 2332SOL    HW1 7739   0.990   2.924   6.338
 2332SOL    HW2 7740   1.115   2.906   6.254
 2333SOL     OW 7741   0.990   2.106   6.565
 2333SOL    HW1 7742   0.985   2.062   6.480
 2333SOL    HW2 7743   0.998   2.036   6.629
 2334SOL     OW 7744   0.608   3.353   6.066
 2334SOL    HW1 7745   0.655   3.303   6.000
 2334SOL    HW2 7746   0.532   3.389   6.020
 2335SOL     OW 7747   1.732   2.225   6.949
 2335SOL    HW1 7748   1.805   2.287   6.948
 2335SOL    HW2 7749   1.772   2.140   6.935
 2336SOL     OW 7750   0.255   3.202   5.878
 2336SOL    HW1 7751   0.160   3.205   5.861
 2336SOL    HW2 7752   0.265   3.241   5.964
 2337SOL     OW 7753   0.110   2.858   7.304
 2337SOL    HW1 7754   0.051   2.853   7.379
 2337SOL    HW2 7755   0.197   2.842   7.340
 2338SOL     OW 7756   0.672   2.059   7.088
 2338SOL    HW1 7757   0.757   2.038   7.048
 2338SOL    HW2 7758   0.694   2.092   7.175
 2339SOL     OW 7759   0.080   2.171   5.625
 2339SOL    HW1 7760   3.985   2.170   5.632
 2339SOL    HW2 7761   0.100   2.252   5.578
 2340SOL     OW 7762   1.426   2.727   6.990
 2340SOL    HW1 7763   1.373   2.782   6.931
 2340SOL    HW2 7764   1.516   2.739   6.959
 2341SOL     OW 7765   0.015   2.109   5.964
 2341SOL    HW1 7766   0.045   2.172   5.898
 2341SOL    HW2 7767   0.096   2.066   5.994
 2342SOL     OW 7768   1.177   3.195   5.702
 2342SOL    HW1 7769   1.085   3.169   5.703
 2342SOL    HW2 7770   1.202   3.197   5.795
 2343SOL     OW 7771   0.623   2.689   7.024
 2343SOL    HW1 7772   0.679   2.766   7.009
 2343SOL    HW2 7773   0.684   2.616   7.031
 2344SOL     OW 7774   1.488   3.644   6.568
 2344SOL    HW1 7775   1.508   3.709   6.500
 2344SOL    HW2 7776   1.573   3.621   6.605
 2345SOL     OW 7777   0.715   2.425   7.288
 2345SOL    HW1 7778   0.760   2.486   7.346
 2345SOL    HW2 7779   0.738   2.338   7.321
 2346SOL     OW 7780   1.477   3.059   7.211
 2346SOL    HW1 7781   1.462   3.070   7.305
 2346SOL    HW2 7782   1.570   3.078   7.199
 2347SOL     OW 7783   0.377   3.611   7.146
 2347SOL    HW1 7784   0.289   3.647   7.135
 2347SOL    HW2 7785   0.364   3.527   7.189
 2348SOL     OW 7786   1.671   2.777   6.861
 2348SOL    HW1 7787   1.670   2.684   6.836
 2348SOL    HW2 7788   1.673   2.823   6.778
 2349SOL     OW 7789   0.588   2.596   6.260
 2349SOL    HW1 7790   0.627   2.683   6.246
 2349SOL    HW2 7791   0.523   2.588   6.190
 2350SOL     OW 7792   1.706   2.179   7.220
 2350SOL    HW1 7793   1.729   2.203   7.131
 2350SOL    HW2 7794   1.647   2.249   7.249
 2351SOL     OW 7795   1.782   2.813   7.105
 2351SOL    HW1 7796   1.731   2.887   7.136
 2351SOL    HW2 7797   1.747   2.793   7.018
 2352SOL     OW 7798   0.868   3.227   5.632
 2352SOL    HW1 7799   0.825   3.254   5.713
 2352SOL    HW2 7800   0.878   3.308   5.582
 2353SOL     OW 7801   0.657   3.648   6.513
 2353SOL    HW1 7802   0.638   3.740   6.498
 2353SOL    HW2 7803   0.753   3.643   6.514
 2354SOL     OW 7804   0.867   2.837   6.437
 2354SOL    HW1 7805   0.914   2.761   6.472
 2354SOL    HW2 7806   0.829   2.879   6.514
 2355SOL     OW 7807   1.075   2.849   5.676
 2355SOL    HW1 7808   1.054   2.902   5.599
 2355SOL    HW2 7809   1.150   2.796   5.649
 2356SOL     OW 7810   1.846   3.407   6.428
 2356SOL    HW1 7811   1.769   3.401   6.372
 2356SOL    HW2 7812   1.825   3.353   6.504
 2357SOL     OW 7813   0.231   3.167   7.443
 2357SOL    HW1 7814   0.154   3.117   7.416
 2357SOL    HW2 7815   0.219   3.179   7.538
 2358SOL     OW 7816   0.125   3.148   6.312
 2358SOL    HW1 7817   0.144   3.095   6.390
 2358SOL    HW2 7818   0.103   3.084   6.244
 2359SOL     OW 7819   0.686   3.270   7.218
 2359SOL    HW1 7820   0.606   3.227   7.249
 2359SOL    HW2 7821   0.682   3.358   7.256
 2360SOL     OW 7822   0.439   2.293   6.120
 2360SOL    HW1 7823   0.428   2.226   6.053
 2360SOL    HW2 7824   0.385   2.262   6.193
 2361SOL     OW 7825   1.696   3.347   6.671
 2361SOL    HW1 7826   1.616   3.329   6.622
 2361SOL    HW2 7827   1.697   3.281   6.740
 2362SOL     OW 7828   0.338   2.422   6.878
 2362SOL    HW1 7829   0.390   2.364   6.934
 2362SOL    HW2 7830   0.351   2.390   6.789
 2363SOL     OW 7831   0.831   3.441   6.261
 2363SOL    HW1 7832   0.808   3.500   6.190
 2363SOL    HW2 7833   0.758   3.379   6.266
 2364SOL     OW 7834   1.002   1.874   6.728
 2364SOL    HW1 7835   0.952   1.809   6.679
 2364SOL    HW2 7836   1.086   1.831   6.745
 2365SOL     OW 7837   0.774   3.194   5.908
 2365SOL    HW1 7838   0.746   3.103   5.916
 2365SOL    HW2 7839   0.856   3.199   5.957
 2366SOL     OW 7840   0.621   3.416   6.873
 2366SOL    HW1 7841   0.621   3.498   6.923
 2366SOL    HW2 7842   0.709   3.411   6.836
 2367SOL     OW 7843   1.360   1.913   5.765
 2367SOL    HW1 7844   1.392   1.842   5.709
 2367SOL    HW2 7845   1.269   1.888   5.785
 2368SOL     OW 7846   0.047   2.907   5.829
 2368SOL    HW1 7847   0.142   2.893   5.822
 2368SOL    HW2 7848   0.011   2.821   5.848
 2369SOL     OW 7849   0.888   3.526   5.926
 2369SOL    HW1 7850   0.816   3.507   5.867
 2369SOL    HW2 7851   0.857   3.599   5.980
 2370SOL     OW 7852   0.230   2.492   7.565
 2370SOL    HW1 7853   0.137   2.498   7.586
 2370SOL    HW2 7854   0.232   2.457   7.476
 2371SOL     OW 7855   0.229   2.135   8.434
 2371SOL    HW1 7856   0.251   2.099   8.520
 2371SOL    HW2 7857   0.134   2.128   8.428
 2372SOL     OW 7858   0.004   2.218   8.079
 2372SOL    HW1 7859   3.913   2.237   8.105
 2372SOL    HW2 7860   3.997   2.191   7.987
 2373SOL     OW 7861   0.583   3.156   8.647
 2373SOL    HW1 7862   0.497   3.158   8.604
 2373SOL    HW2 7863   0.596   3.246   8.677
 2374SOL     OW 7864   1.569   3.374   8.159
 2374SOL    HW1 7865   1.526   3.350   8.241
 2374SOL    HW2 7866   1.498   3.377   8.094
 2375SOL     OW 7867   1.138   2.558   8.151
 2375SOL    HW1 7868   1.184   2.641   8.136
 2375SOL    HW2 7869   1.090   2.572   8.232
 2376SOL     OW 7870   0.747   2.997   8.495
 2376SOL    HW1 7871   0.686   3.035   8.559
 2376SOL    HW2 7872   0.785   3.073   8.450
 2377SOL     OW 7873   0.876   2.623   9.272
 2377SOL    HW1 7874   0.867   2.694   9.337
 2377SOL    HW2 7875   0.897   2.668   9.191
 2378SOL     OW 7876   0.685   2.860   8.093
 2378SOL    HW1 7877   0.752   2.852   8.160
 2378SOL    HW2 7878   0.616   2.914   8.133
 2379SOL     OW 7879   0.714   3.011   9.269
 2379SOL    HW1 7880   0.762   3.088   9.300
 2379SOL    HW2 7881   0.635   3.047   9.229
 2380SOL     OW 7882   0.351   3.261   8.527
 2380SOL    HW1 7883   0.270   3.242   8.478
 2380SOL    HW2 7884   0.401   3.318   8.469
 2381SOL     OW 7885   1.459   3.365   8.809
 2381SOL    HW1 7886   1.513   3.443   8.819
 2381SOL    HW2 7887   1.389   3.375   8.874
 2382SOL     OW 7888   0.450   2.256   8.931
 2382SOL    HW1 7889   0.526   2.198   8.935
 2382SOL    HW2 7890   0.375   2.199   8.946
 2383SOL     OW 7891   1.589   2.300   8.182
 2383SOL    HW1 7892   1.500   2.313   8.149
 2383SOL    HW2 7893   1.607   2.377   8.236
 2384SOL     OW 7894   0.220   3.573   7.913
 2384SOL    HW1 7895   0.217   3.659   7.955
 2384SOL    HW2 7896   0.297   3.577   7.856
 2385SOL     OW 7897   1.138   3.204   9.143
 2385SOL    HW1 7898   1.179   3.196   9.229
 2385SOL    HW2 7899   1.086   3.124   9.134
 2386SOL     OW 7900   0.255   3.308   7.986
 2386SOL    HW1 7901   0.225   3.398   7.973
 2386SOL    HW2 7902   0.187   3.268   8.040
 2387SOL     OW 7903   0.249   2.927   8.331
 2387SOL    HW1 7904   0.270   2.842   8.369
 2387SOL    HW2 7905   0.196   2.970   8.397
 2388SOL     OW 7906   0.608   3.648   8.873
 2388SOL    HW1 7907   0.526   3.635   8.921
 2388SOL    HW2 7908   0.635   3.737   8.897
 2389SOL     OW 7909   0.572   2.851   7.588
 2389SOL    HW1 7910   0.624   2.892   7.519
 2389SOL    HW2 7911   0.612   2.880   7.670
 2390SOL     OW 7912   1.550   2.005   8.883
 2390SOL    HW1 7913   1.578   2.088   8.845
 2390SOL    HW2 7914   1.539   2.023   8.976
 2391SOL     OW 7915   0.144   2.522   8.021
 2391SOL    HW1 7916   0.087   2.445   8.017
 2391SOL    HW2 7917   0.109   2.575   8.092
 2392SOL     OW 7918   1.846   3.602   7.783
 2392SOL    HW1 7919   1.915   3.580   7.845
 2392SOL    HW2 7920   1.861   3.694   7.761
 2393SOL     OW 7921   0.039   3.449   7.586
 2393SOL    HW1 7922   0.039   3.359   7.617
 2393SOL    HW2 7923   3.951   3.481   7.604
 2394SOL     OW 7924   1.685   2.774   8.104
 2394SOL    HW1 7925   1.773   2.738   8.094
 2394SOL    HW2 7926   1.669   2.823   8.023
 2395SOL     OW 7927   1.648   2.957   7.890
 2395SOL    HW1 7928   1.732   2.961   7.845
 2395SOL    HW2 7929   1.655   3.023   7.959
 2396SOL     OW 7930   0.145   2.614   9.038
 2396SOL    HW1 7931   0.241   2.611   9.032
 2396SOL    HW2 7932   0.126   2.700   9.075
 2397SOL     OW 7933   0.618   3.250   8.182
 2397SOL    HW1 7934   0.571   3.167   8.190
 2397SOL    HW2 7935   0.601   3.278   8.092
 2398SOL     OW 7936   1.284   3.097   8.868
 2398SOL    HW1 7937   1.315   3.029   8.809
 2398SOL    HW2 7938   1.345   3.092   8.943
 2399SOL     OW 7939   0.825   1.864   7.963
 2399SOL    HW1 7940   0.865   1.948   7.939
 2399SOL    HW2 7941   0.731   1.883   7.967
 2400SOL     OW 7942   0.183   2.810   8.731
 2400SOL    HW1 7943   0.271   2.775   8.719
 2400SOL    HW2 7944   0.133   2.776   8.656
 2401SOL     OW 7945   1.501   2.889   7.670
 2401SOL    HW1 7946   1.427   2.836   7.702
 2401SOL    HW2 7947   1.553   2.907   7.749
 2402SOL     OW 7948   1.227   3.669   9.077
 2402SOL    HW1 7949   1.197   3.731   9.010
 2402SOL    HW2 7950   1.225   3.584   9.034
 2403SOL     OW 7951   0.345   2.109   9.270
 2403SOL    HW1 7952   0.378   2.198   9.276
 2403SOL    HW2 7953   0.252   2.116   9.293
 2404SOL     OW 7954   1.467   3.279   8.395
 2404SOL    HW1 7955   1.400   3.296   8.462
 2404SOL    HW2 7956   1.453   3.189   8.369
 2405SOL     OW 7957   1.654   3.604   8.029
 2405SOL    HW1 7958   1.636   3.572   7.940
 2405SOL    HW2 7959   1.631   3.530   8.085
 2406SOL     OW 7960   0.596   2.573   7.716
 2406SOL    HW1 7961   0.602   2.658   7.673
 2406SOL    HW2 7962   0.533   2.587   7.787
 2407SOL     OW 7963   1.280   2.228   8.384
 2407SOL    HW1 7964   1.191   2.194   8.393
 2407SOL    HW2 7965   1.334   2.171   8.439
 2408SOL     OW 7966   1.576   3.538   7.758
 2408SOL    HW1 7967   1.669   3.559   7.751
 2408SOL    HW2 7968   1.548   3.521   7.668
 2409SOL     OW 7969   0.791   2.480   8.896
 2409SOL    HW1 7970   0.765   2.453   8.984
 2409SOL    HW2 7971   0.758   2.410   8.839
 2410SOL     OW 7972   1.391   2.335   9.124
 2410SOL    HW1 7973   1.395   2.381   9.208
 2410SOL    HW2 7974   1.447   2.259   9.136
 2411SOL     OW 7975   0.949   2.746   9.035
 2411SOL    HW1 7976   1.004   2.678   8.996
 2411SOL    HW2 7977   0.901   2.783   8.961
 2412SOL     OW 7978   0.995   2.271   8.680
 2412SOL    HW1 7979   0.905   2.287   8.708
 2412SOL    HW2 7980   0.987   2.230   8.594
 2413SOL     OW 7981   1.040   2.577   7.890
 2413SOL    HW1 7982   1.063   2.563   7.981
 2413SOL    HW2 7983   0.959   2.527   7.878
 2414SOL     OW 7984   0.083   2.695   8.237
 2414SOL    HW1 7985   0.153   2.662   8.293
 2414SOL    HW2 7986   0.107   2.786   8.219
 2415SOL     OW 7987   0.127   3.720   9.032
 2415SOL    HW1 7988   0.136   3.688   9.121
 2415SOL    HW2 7989   0.035   3.707   9.010
 2416SOL     OW 7990   0.892   2.207   7.645
 2416SOL    HW1 7991   0.924   2.273   7.583
 2416SOL    HW2 7992   0.908   2.124   7.601
 2417SOL     OW 7993   1.663   2.445   9.281
 2417SOL    HW1 7994   1.640   2.523   9.231
 2417SOL    HW2 7995   1.696   2.383   9.216
 2418SOL     OW 7996   1.380   3.007   7.993
 2418SOL    HW1 7997   1.458   2.993   7.940
 2418SOL    HW2 7998   1.326   3.066   7.941
 2419SOL     OW 7999   0.547   2.039   8.345
 2419SOL    HW1 8000   0.554   2.072   8.434
 2419SOL    HW2 8001   0.546   2.117   8.290
 2420SOL     OW 8002   1.000   3.308   7.916
 2420SOL    HW1 8003   0.967   3.383   7.867
 2420SOL    HW2 8004   0.976   3.327   8.007
 2421SOL     OW 8005   0.360   3.675   8.316
 2421SOL    HW1 8006   0.442   3.628   8.329
 2421SOL    HW2 8007   0.383   3.767   8.323
 2422SOL     OW 8008   1.797   2.920   8.323
 2422SOL    HW1 8009   1.742   2.899   8.247
 2422SOL    HW2 8010   1.735   2.926   8.396
 2423SOL     OW 8011   1.227   3.400   8.959
 2423SOL    HW1 8012   1.215   3.328   9.021
 2423SOL    HW2 8013   1.155   3.390   8.896
 2424SOL     OW 8014   0.311   2.812   7.691
 2424SOL    HW1 8015   0.393   2.835   7.648
 2424SOL    HW2 8016   0.299   2.719   7.673
 2425SOL     OW 8017   1.474   2.610   8.169
 2425SOL    HW1 8018   1.477   2.570   8.256
 2425SOL    HW2 8019   1.554   2.661   8.163
 2426SOL     OW 8020   0.472   3.123   9.185
 2426SOL    HW1 8021   0.446   3.131   9.093
 2426SOL    HW2 8022   0.389   3.125   9.233
 2427SOL     OW 8023   1.114   3.644   7.667
 2427SOL    HW1 8024   1.047   3.599   7.719
 2427SOL    HW2 8025   1.145   3.576   7.606
 2428SOL     OW 8026   0.203   2.129   8.957
 2428SOL    HW1 8027   0.114   2.163   8.953
 2428SOL    HW2 8028   0.194   2.040   8.991
 2429SOL     OW 8029   1.627   3.246   7.538
 2429SOL    HW1 8030   1.587   3.331   7.522
 2429SOL    HW2 8031   1.558   3.183   7.517
 2430SOL     OW 8032   0.465   3.605   7.769
 2430SOL    HW1 8033   0.505   3.665   7.832
 2430SOL    HW2 8034   0.538   3.574   7.715
 2431SOL     OW 8035   0.259   3.658   8.669
 2431SOL    HW1 8036   0.298   3.587   8.721
 2431SOL    HW2 8037   0.255   3.623   8.580
 2432SOL     OW 8038   0.938   3.566   8.345
 2432SOL    HW1 8039   1.016   3.515   8.369
 2432SOL    HW2 8040   0.897   3.515   8.276
 2433SOL     OW 8041   0.401   2.554   7.918
 2433SOL    HW1 8042   0.424   2.462   7.934
 2433SOL    HW2 8043   0.310   2.561   7.945
 2434SOL     OW 8044   1.522   2.081   9.167
 2434SOL    HW1 8045   1.539   2.099   9.259
 2434SOL    HW2 8046   1.457   2.011   9.168
 2435SOL     OW 8047   0.650   1.975   7.544
 2435SOL    HW1 8048   0.706   1.901   7.567
 2435SOL    HW2 8049   0.599   1.944   7.470
 2436SOL     OW 8050   0.765   2.142   9.204
 2436SOL    HW1 8051   0.846   2.091   9.199
 2436SOL    HW2 8052   0.719   2.106   9.280
 2437SOL     OW 8053   0.876   3.383   8.642
 2437SOL    HW1 8054   0.858   3.345   8.556
 2437SOL    HW2 8055   0.945   3.328   8.679
 2438SOL     OW 8056   1.339   2.452   8.880
 2438SOL    HW1 8057   1.369   2.421   8.966
 2438SOL    HW2 8058   1.375   2.540   8.872
 2439SOL     OW 8059   0.819   3.249   8.394
 2439SOL    HW1 8060   0.904   3.239   8.352
 2439SOL    HW2 8061   0.757   3.255   8.321
 2440SOL     OW 8062   0.928   2.373   8.347
 2440SOL    HW1 8063   0.904   2.363   8.255
 2440SOL    HW2 8064   0.958   2.285   8.373
 2441SOL     OW 8065   0.560   1.923   7.940
 2441SOL    HW1 8066   0.478   1.928   7.989
 2441SOL    HW2 8067   0.563   2.004   7.889
 2442SOL     OW 8068   1.426   3.069   7.482
 2442SOL    HW1 8069   1.454   2.997   7.538
 2442SOL    HW2 8070   1.339   3.093   7.515
 2443SOL     OW 8071   0.310   1.912   7.617
 2443SOL    HW1 8072   0.372   1.952   7.555
 2443SOL    HW2 8073   0.362   1.848   7.665
 2444SOL     OW 8074   0.940   2.110   7.905
 2444SOL    HW1 8075   0.915   2.148   7.821
 2444SOL    HW2 8076   1.033   2.128   7.913
 2445SOL     OW 8077   1.080   2.546   8.905
 2445SOL    HW1 8078   1.015   2.477   8.908
 2445SOL    HW2 8079   1.164   2.500   8.898
 2446SOL     OW 8080   1.219   3.435   8.243
 2446SOL    HW1 8081   1.232   3.501   8.174
 2446SOL    HW2 8082   1.288   3.452   8.306
 2447SOL     OW 8083   0.467   3.014   8.178
 2447SOL    HW1 8084   0.398   2.989   8.239
 2447SOL    HW2 8085   0.430   2.999   8.092
 2448SOL     OW 8086   1.263   3.653   8.058
 2448SOL    HW1 8087   1.313   3.718   8.008
 2448SOL    HW2 8088   1.188   3.702   8.093
 2449SOL     OW 8089   0.992   2.396   7.476
 2449SOL    HW1 8090   0.958   2.482   7.451
 2449SOL    HW2 8091   1.051   2.415   7.549
 2450SOL     OW 8092   0.085   2.437   8.837
 2450SOL    HW1 8093   0.175   2.424   8.807
 2450SOL    HW2 8094   0.092   2.506   8.903
 2451SOL     OW 8095   0.567   2.090   8.617
 2451SOL    HW1 8096   0.608   2.016   8.661
 2451SOL    HW2 8097   0.475   2.086   8.644
 2452SOL     OW 8098   0.867   2.320   8.086
 2452SOL    HW1 8099   0.823   2.374   8.020
 2452SOL    HW2 8100   0.889   2.239   8.040
 2453SOL     OW 8101   0.987   1.933   8.214
 2453SOL    HW1 8102   0.950   1.921   8.126
 2453SOL    HW2 8103   0.976   1.849   8.257
 2454SOL     OW 8104   1.437   3.021   8.303
 2454SOL    HW1 8105   1.367   2.957   8.307
 2454SOL    HW2 8106   1.457   3.030   8.210
 2455SOL     OW 8107   1.463   2.471   8.415
 2455SOL    HW1 8108   1.405   2.395   8.418
 2455SOL    HW2 8109   1.518   2.463   8.493
 2456SOL     OW 8110   0.488   3.285   7.604
 2456SOL    HW1 8111   0.411   3.255   7.654
 2456SOL    HW2 8112   0.476   3.247   7.517
 2457SOL     OW 8113   1.680   3.129   8.091
 2457SOL    HW1 8114   1.774   3.130   8.107
 2457SOL    HW2 8115   1.650   3.217   8.114
 2458SOL     OW 8116   0.572   2.128   7.762
 2458SOL    HW1 8117   0.610   2.082   7.687
 2458SOL    HW2 8118   0.543   2.212   7.727
 2459SOL     OW 8119   1.748   3.105   9.008
 2459SOL    HW1 8120   1.836   3.067   9.002
 2459SOL    HW2 8121   1.763   3.195   9.037
 2460SOL     OW 8122   1.053   3.214   8.779
 2460SOL    HW1 8123   0.978   3.183   8.829
 2460SOL    HW2 8124   1.128   3.173   8.821
 2461SOL     OW 8125   1.611   3.490   9.107
 2461SOL    HW1 8126   1.601   3.524   9.018
 2461SOL    HW2 8127   1.693   3.441   9.105
 2462SOL     OW 8128   1.137   3.074   8.550
 2462SOL    HW1 8129   1.076   3.110   8.614
 2462SOL    HW2 8130   1.107   3.108   8.466
 2463SOL     OW 8131   1.620   2.959   8.525
 2463SOL    HW1 8132   1.614   3.022   8.597
 2463SOL    HW2 8133   1.544   2.977   8.470
 2464SOL     OW 8134   0.918   1.955   8.840
 2464SOL    HW1 8135   0.941   1.936   8.748
 2464SOL    HW2 8136   0.997   1.995   8.876
 2465SOL     OW 8137   0.984   2.977   9.171
 2465SOL    HW1 8138   0.893   2.994   9.195
 2465SOL    HW2 8139   0.980   2.898   9.117
 2466SOL     OW 8140   0.705   2.925   7.819
 2466SOL    HW1 8141   0.692   2.905   7.912
 2466SOL    HW2 8142   0.781   2.873   7.793
 2467SOL     OW 8143   0.423   2.682   8.702
 2467SOL    HW1 8144   0.492   2.690   8.769
 2467SOL    HW2 8145   0.391   2.592   8.712
 2468SOL     OW 8146   1.263   2.237   8.730
 2468SOL    HW1 8147   1.294   2.315   8.774
 2468SOL    HW2 8148   1.172   2.257   8.707
 2469SOL     OW 8149   0.065   3.441   8.790
 2469SOL    HW1 8150   0.069   3.471   8.699
 2469SOL    HW2 8151   0.156   3.436   8.818
 2470SOL     OW 8152   0.361   2.965   7.928
 2470SOL    HW1 8153   0.361   3.046   7.878
 2470SOL    HW2 8154   0.363   2.896   7.862
 2471SOL     OW 8155   0.546   2.395   8.310
 2471SOL    HW1 8156   0.559   2.452   8.235
 2471SOL    HW2 8157   0.615   2.419   8.372
 2472SOL     OW 8158   1.247   3.212   7.839
 2472SOL    HW1 8159   1.303   3.283   7.872
 2472SOL    HW2 8160   1.159   3.234   7.872
 2473SOL     OW 8161   1.290   3.323   8.597
 2473SOL    HW1 8162   1.345   3.327   8.675
 2473SOL    HW2 8163   1.234   3.246   8.611
 2474SOL     OW 8164   0.345   3.392   8.763
 2474SOL    HW1 8165   0.335   3.340   8.683
 2474SOL    HW2 8166   0.439   3.406   8.772
 2475SOL     OW 8167   0.421   2.599   9.051
 2475SOL    HW1 8168   0.485   2.643   8.994
 2475SOL    HW2 8169   0.460   2.512   9.067
 2476SOL     OW 8170   1.603   2.657   9.130
 2476SOL    HW1 8171   1.518   2.699   9.122
 2476SOL    HW2 8172   1.657   2.697   9.062
 2477SOL     OW 8173   0.997   1.996   9.201
 2477SOL    HW1 8174   1.055   2.069   9.180
 2477SOL    HW2 8175   1.046   1.918   9.176
 2478SOL     OW 8176   0.496   1.894   9.197
 2478SOL    HW1 8177   0.451   1.844   9.129
 2478SOL    HW2 8178   0.444   1.974   9.206
 2479SOL     OW 8179   0.587   2.737   8.481
 2479SOL    HW1 8180   0.622   2.826   8.483
 2479SOL    HW2 8181   0.530   2.731   8.558
 2480SOL     OW 8182   1.346   2.720   8.469
 2480SOL    HW1 8183   1.260   2.706   8.428
 2480SOL    HW2 8184   1.392   2.637   8.457
 2481SOL     OW 8185   1.145   2.422   7.692
 2481SOL    HW1 8186   1.214   2.367   7.727
 2481SOL    HW2 8187   1.115   2.474   7.767
 2482SOL     OW 8188   0.309   2.056   8.695
 2482SOL    HW1 8189   0.262   2.092   8.770
 2482SOL    HW2 8190   0.288   1.963   8.694
 2483SOL     OW 8191   0.062   3.167   8.730
 2483SOL    HW1 8192   0.092   3.123   8.809
 2483SOL    HW2 8193   0.054   3.259   8.754
 2484SOL     OW 8194   0.722   2.492   8.501
 2484SOL    HW1 8195   0.797   2.478   8.444
 2484SOL    HW2 8196   0.693   2.581   8.482
 2485SOL     OW 8197   1.741   2.822   9.308
 2485SOL    HW1 8198   1.695   2.759   9.251
 2485SOL    HW2 8199   1.679   2.839   9.379
 2486SOL     OW 8200   0.318   1.922   8.067
 2486SOL    HW1 8201   0.294   2.013   8.087
 2486SOL    HW2 8202   0.325   1.880   8.153
 2487SOL     OW 8203   1.029   2.620   8.407
 2487SOL    HW1 8204   1.019   2.637   8.500
 2487SOL    HW2 8205   1.001   2.529   8.396
 2488SOL     OW 8206   0.987   3.430   9.171
 2488SOL    HW1 8207   0.966   3.470   9.087
 2488SOL    HW2 8208   1.028   3.347   9.149
 2489SOL     OW 8209   1.851   3.362   9.051
 2489SOL    HW1 8210   1.873   3.391   8.962
 2489SOL    HW2 8211   1.931   3.377   9.101
 2490SOL     OW 8212   0.356   2.785   9.246
 2490SOL    HW1 8213   0.434   2.806   9.298
 2490SOL    HW2 8214   0.385   2.717   9.186
 2491SOL     OW 8215   1.288   2.698   7.472
 2491SOL    HW1 8216   1.326   2.612   7.455
 2491SOL    HW2 8217   1.311   2.749   7.394
 2492SOL     OW 8218   1.070   3.202   8.305
 2492SOL    HW1 8219   1.075   3.129   8.243
 2492SOL    HW2 8220   1.127   3.269   8.269
 2493SOL     OW 8221   0.313   2.662   8.397
 2493SOL    HW1 8222   0.407   2.678   8.390
 2493SOL    HW2 8223   0.307   2.571   8.428
 2494SOL     OW 8224   0.326   2.384   8.463
 2494SOL    HW1 8225   0.292   2.296   8.448
 2494SOL    HW2 8226   0.403   2.390   8.406
 2495SOL     OW 8227   1.134   2.234   9.135
 2495SOL    HW1 8228   1.086   2.288   9.197
 2495SOL    HW2 8229   1.221   2.274   9.129
 2496SOL     OW 8230   1.160   2.059   8.921
 2496SOL    HW1 8231   1.148   2.122   8.991
 2496SOL    HW2 8232   1.203   2.109   8.851
 2497SOL     OW 8233   0.001   3.175   7.631
 2497SOL    HW1 8234   3.906   3.192   7.634
 2497SOL    HW2 8235   0.010   3.082   7.649
 2498SOL     OW 8236   0.076   3.662   8.343
 2498SOL    HW1 8237   0.097   3.569   8.335
 2498SOL    HW2 8238   0.161   3.706   8.345
 2499SOL     OW 8239   0.505   3.421   8.367
 2499SOL    HW1 8240   0.570   3.490   8.384
 2499SOL    HW2 8241   0.547   3.365   8.302
 2500SOL     OW 8242   0.972   2.649   8.672
 2500SOL    HW1 8243   1.031   2.630   8.744
 2500SOL    HW2 8244   0.889   2.609   8.697
 2501SOL     OW 8245   0.038   2.427   8.557
 2501SOL    HW1 8246   0.121   2.404   8.514
 2501SOL    HW2 8247   0.058   2.422   8.650
 2502SOL     OW 8248   0.206   2.372   9.176
 2502SOL    HW1 8249   0.242   2.321   9.103
 2502SOL    HW2 8250   0.165   2.448   9.134
 2503SOL     OW 8251   1.373   2.800   9.102
 2503SOL    HW1 8252   1.396   2.892   9.098
 2503SOL    HW2 8253   1.369   2.771   9.011
 2504SOL     OW 8254   0.817   2.432   7.820
 2504SOL    HW1 8255   0.829   2.358   7.760
 2504SOL    HW2 8256   0.744   2.481   7.783
 2505SOL     OW 8257   1.632   2.465   8.631
 2505SOL    HW1 8258   1.620   2.409   8.708
 2505SOL    HW2 8259   1.718   2.440   8.597
 2506SOL     OW 8260   0.302   3.405   9.169
 2506SOL    HW1 8261   0.255   3.474   9.216
 2506SOL    HW2 8262   0.275   3.324   9.211
 2507SOL     OW 8263   0.715   2.308   8.701
 2507SOL    HW1 8264   0.660   2.235   8.674
 2507SOL    HW2 8265   0.707   2.372   8.630
 2508SOL     OW 8266   0.925   3.531   8.920
 2508SOL    HW1 8267   0.897   3.490   8.837
 2508SOL    HW2 8268   0.917   3.625   8.904
 2509SOL     OW 8269   0.449   2.349   7.646
 2509SOL    HW1 8270   0.515   2.416   7.663
 2509SOL    HW2 8271   0.370   2.399   7.623
 2510SOL     OW 8272   0.153   2.996   8.926
 2510SOL    HW1 8273   0.153   2.946   9.007
 2510SOL    HW2 8274   0.169   2.930   8.858
 2511SOL     OW 8275   1.321   2.905   8.666
 2511SOL    HW1 8276   1.340   2.841   8.598
 2511SOL    HW2 8277   1.255   2.963   8.627
 2512SOL     OW 8278   1.290   2.741   7.754
 2512SOL    HW1 8279   1.224   2.693   7.804
 2512SOL    HW2 8280   1.272   2.718   7.662
 2513SOL     OW 8281   1.776   3.596   8.602
 2513SOL    HW1 8282   1.838   3.624   8.535
 2513SOL    HW2 8283   1.753   3.506   8.577
 2514SOL     OW 8284   1.245   3.593   8.552
 2514SOL    HW1 8285   1.329   3.616   8.511
 2514SOL    HW2 8286   1.254   3.500   8.573
 2515SOL     OW 8287   0.078   3.074   8.477
 2515SOL    HW1 8288   0.084   3.102   8.568
 2515SOL    HW2 8289   3.986   3.089   8.454
 2516SOL     OW 8290   0.681   3.530   9.188
 2516SOL    HW1 8291   0.620   3.604   9.191
 2516SOL    HW2 8292   0.741   3.551   9.117
 2517SOL     OW 8293   1.393   3.431   7.940
 2517SOL    HW1 8294   1.450   3.465   7.871
 2517SOL    HW2 8295   1.342   3.506   7.970
 2518SOL     OW 8296   0.173   3.618   9.283
 2518SOL    HW1 8297   0.119   3.565   9.341
 2518SOL    HW2 8298   0.218   3.679   9.341
 2519SOL     OW 8299   1.276   2.792   8.122
 2519SOL    HW1 8300   1.349   2.731   8.131
 2519SOL    HW2 8301   1.311   2.862   8.067
 2520SOL     OW 8302   0.803   3.138   8.872
 2520SOL    HW1 8303   0.775   3.180   8.953
 2520SOL    HW2 8304   0.731   3.153   8.811
 2521SOL     OW 8305   0.674   3.482   7.608
 2521SOL    HW1 8306   0.684   3.500   7.515
 2521SOL    HW2 8307   0.614   3.408   7.612
 2522SOL     OW 8308   1.619   3.589   8.838
 2522SOL    HW1 8309   1.672   3.593   8.759
 2522SOL    HW2 8310   1.604   3.681   8.861
 2523SOL     OW 8311   0.263   2.172   8.162
 2523SOL    HW1 8312   0.175   2.203   8.137
 2523SOL    HW2 8313   0.259   2.164   8.257
 2524SOL     OW 8314   1.209   3.462   7.486
 2524SOL    HW1 8315   1.198   3.370   7.510
 2524SOL    HW2 8316   1.147   3.475   7.414
 2525SOL     OW 8317   0.823   2.868   8.824
 2525SOL    HW1 8318   0.866   2.861   8.739
 2525SOL    HW2 8319   0.819   2.963   8.841
 2526SOL     OW 8320   0.912   2.777   7.738
 2526SOL    HW1 8321   0.973   2.807   7.671
 2526SOL    HW2 8322   0.962   2.712   7.789
 2527SOL     OW 8323   1.488   3.495   7.493
 2527SOL    HW1 8324   1.395   3.482   7.476
 2527SOL    HW2 8325   1.527   3.500   7.405
 2528SOL     OW 8326   0.374   3.164   8.939
 2528SOL    HW1 8327   0.359   3.244   8.890
 2528SOL    HW2 8328   0.297   3.110   8.923
 2529SOL     OW 8329   1.608   3.148   8.728
 2529SOL    HW1 8330   1.667   3.131   8.802
 2529SOL    HW2 8331   1.547   3.215   8.760
 2530SOL     OW 8332   1.061   2.973   8.160
 2530SOL    HW1 8333   0.988   2.923   8.196
 2530SOL    HW2 8334   1.125   2.908   8.132
 2531SOL     OW 8335   1.024   2.109   8.422
 2531SOL    HW1 8336   1.012   2.065   8.339
 2531SOL    HW2 8337   1.020   2.039   8.488
 2532SOL     OW 8338   0.608   3.353   7.929
 2532SOL    HW1 8339   0.656   3.303   7.863
 2532SOL    HW2 8340   0.532   3.388   7.881
 2533SOL     OW 8341   1.737   2.241   8.821
 2533SOL    HW1 8342   1.804   2.310   8.823
 2533SOL    HW2 8343   1.778   2.169   8.774
 2534SOL     OW 8344   0.255   3.202   7.739
 2534SOL    HW1 8345   0.160   3.206   7.723
 2534SOL    HW2 8346   0.266   3.241   7.826
 2535SOL     OW 8347   0.110   2.858   9.166
 2535SOL    HW1 8348   0.051   2.854   9.241
 2535SOL    HW2 8349   0.197   2.842   9.203
 2536SOL     OW 8350   0.677   2.058   8.948
 2536SOL    HW1 8351   0.761   2.036   8.908
 2536SOL    HW2 8352   0.700   2.091   9.035
 2537SOL     OW 8353   0.080   2.169   7.484
 2537SOL    HW1 8354   3.984   2.170   7.493
 2537SOL    HW2 8355   0.100   2.251   7.439
 2538SOL     OW 8356   1.425   2.720   8.844
 2538SOL    HW1 8357   1.376   2.780   8.789
 2538SOL    HW2 8358   1.514   2.723   8.810
 2539SOL     OW 8359   0.013   2.108   7.827
 2539SOL    HW1 8360   0.045   2.171   7.763
 2539SOL    HW2 8361   0.091   2.062   7.857
 2540SOL     OW 8362   1.178   3.195   7.565
 2540SOL    HW1 8363   1.087   3.166   7.565
 2540SOL    HW2 8364   1.204   3.194   7.658
 2541SOL     OW 8365   0.621   2.692   8.886
 2541SOL    HW1 8366   0.678   2.768   8.871
 2541SOL    HW2 8367   0.682   2.618   8.892
 2542SOL     OW 8368   1.488   3.644   8.430
 2542SOL    HW1 8369   1.509   3.709   8.363
 2542SOL    HW2 8370   1.573   3.621   8.467
 2543SOL     OW 8371   0.716   2.421   9.149
 2543SOL    HW1 8372   0.763   2.480   9.208
 2543SOL    HW2 8373   0.737   2.333   9.182
 2544SOL     OW 8374   1.474   3.057   9.076
 2544SOL    HW1 8375   1.462   3.072   9.170
 2544SOL    HW2 8376   1.566   3.076   9.060
 2545SOL     OW 8377   0.377   3.611   9.008
 2545SOL    HW1 8378   0.289   3.647   8.997
 2545SOL    HW2 8379   0.364   3.527   9.051
 2546SOL     OW 8380   1.665   2.742   8.700
 2546SOL    HW1 8381   1.656   2.657   8.658
 2546SOL    HW2 8382   1.652   2.806   8.630
 2547SOL     OW 8383   1.206   2.180   7.919
 2547SOL    HW1 8384   1.285   2.170   7.866
 2547SOL    HW2 8385   1.234   2.232   7.994
 2548SOL     OW 8386   0.585   2.598   8.125
 2548SOL    HW1 8387   0.626   2.683   8.108
 2548SOL    HW2 8388   0.522   2.588   8.053
 2549SOL     OW 8389   1.731   2.246   9.096
 2549SOL    HW1 8390   1.735   2.249   9.000
 2549SOL    HW2 8391   1.665   2.180   9.116
 2550SOL     OW 8392   1.746   2.802   8.955
 2550SOL    HW1 8393   1.738   2.897   8.964
 2550SOL    HW2 8394   1.730   2.786   8.862
 2551SOL     OW 8395   0.865   3.228   7.493
 2551SOL    HW1 8396   0.824   3.256   7.575
 2551SOL    HW2 8397   0.877   3.309   7.444
 2552SOL     OW 8398   0.657   3.648   8.376
 2552SOL    HW1 8399   0.638   3.740   8.360
 2552SOL    HW2 8400   0.753   3.643   8.376
 2553SOL     OW 8401   0.870   2.832   8.301
 2553SOL    HW1 8402   0.919   2.759   8.338
 2553SOL    HW2 8403   0.831   2.876   8.377
 2554SOL     OW 8404   1.069   2.850   7.531
 2554SOL    HW1 8405   1.051   2.904   7.455
 2554SOL    HW2 8406   1.147   2.799   7.508
 2555SOL     OW 8407   1.845   3.409   8.287
 2555SOL    HW1 8408   1.763   3.403   8.237
 2555SOL    HW2 8409   1.830   3.354   8.364
 2556SOL     OW 8410   0.231   3.167   9.306
 2556SOL    HW1 8411   0.153   3.118   9.277
 2556SOL    HW2 8412   0.219   3.179   9.400
 2557SOL     OW 8413   0.125   3.147   8.175
 2557SOL    HW1 8414   0.145   3.093   8.251
 2557SOL    HW2 8415   0.103   3.084   8.106
 2558SOL     OW 8416   0.686   3.269   9.081
 2558SOL    HW1 8417   0.606   3.227   9.112
 2558SOL    HW2 8418   0.683   3.358   9.118
 2559SOL     OW 8419   0.440   2.295   7.983
 2559SOL    HW1 8420   0.449   2.224   7.919
 2559SOL    HW2 8421   0.383   2.260   8.051
 2560SOL     OW 8422   1.700   3.343   8.533
 2560SOL    HW1 8423   1.618   3.325   8.487
 2560SOL    HW2 8424   1.704   3.277   8.602
 2561SOL     OW 8425   0.338   2.422   8.741
 2561SOL    HW1 8426   0.390   2.363   8.795
 2561SOL    HW2 8427   0.351   2.390   8.652
 2562SOL     OW 8428   0.831   3.441   8.123
 2562SOL    HW1 8429   0.808   3.500   8.051
 2562SOL    HW2 8430   0.758   3.379   8.127
 2563SOL     OW 8431   1.433   2.093   8.571
 2563SOL    HW1 8432   1.437   2.005   8.608
 2563SOL    HW2 8433   1.380   2.143   8.633
 2564SOL     OW 8434   1.010   1.878   8.585
 2564SOL    HW1 8435   0.956   1.814   8.538
 2564SOL    HW2 8436   1.098   1.839   8.584
 2565SOL     OW 8437   0.774   3.195   7.771
 2565SOL    HW1 8438   0.745   3.104   7.778
 2565SOL    HW2 8439   0.857   3.198   7.819
 2566SOL     OW 8440   0.622   3.416   8.736
 2566SOL    HW1 8441   0.621   3.498   8.785
 2566SOL    HW2 8442   0.709   3.411   8.698
 2567SOL     OW 8443   1.306   2.329   8.131
 2567SOL    HW1 8444   1.253   2.408   8.131
 2567SOL    HW2 8445   1.292   2.290   8.217
 2568SOL     OW 8446   1.565   2.049   8.325
 2568SOL    HW1 8447   1.531   2.080   8.409
 2568SOL    HW2 8448   1.579   2.129   8.274
 2569SOL     OW 8449   0.048   2.907   7.691
 2569SOL    HW1 8450   0.142   2.893   7.684
 2569SOL    HW2 8451   0.012   2.821   7.710
 2570SOL     OW 8452   0.888   3.526   7.788
 2570SOL    HW1 8453   0.816   3.507   7.729
 2570SOL    HW2 8454   0.857   3.599   7.842
 2571SOL     OW 8455   0.230   2.490   9.427
 2571SOL    HW1 8456   0.137   2.497   9.448
 2571SOL    HW2 8457   0.232   2.456   9.337
 2572SOL     OW 8458   0.230   2.135  10.296
 2572SOL    HW1 8459   0.251   2.099  10.383
 2572SOL    HW2 8460   0.134   2.128  10.290
 2573SOL     OW 8461   0.004   2.218   9.940
 2573SOL    HW1 8462   3.914   2.237   9.967
 2573SOL    HW2 8463   3.997   2.191   9.849
 2574SOL     OW 8464   0.583   3.156  10.509
 2574SOL    HW1 8465   0.497   3.158  10.466
 2574SOL    HW2 8466   0.596   3.246  10.539
 2575SOL     OW 8467   1.569   3.373  10.020
 2575SOL    HW1 8468   1.526   3.350  10.102
 2575SOL    HW2 8469   1.498   3.376   9.956
 2576SOL     OW 8470   1.134   2.560  10.005
 2576SOL    HW1 8471   1.181   2.642   9.993
 2576SOL    HW2 8472   1.086   2.572  10.087
 2577SOL     OW 8473   1.773   2.471   9.534
 2577SOL    HW1 8474   1.743   2.467   9.443
 2577SOL    HW2 8475   1.752   2.384   9.570
 2578SOL     OW 8476   0.746   2.997  10.356
 2578SOL    HW1 8477   0.686   3.035  10.420
 2578SOL    HW2 8478   0.784   3.073  10.312
 2579SOL     OW 8479   0.876   2.623  11.134
 2579SOL    HW1 8480   0.867   2.694  11.199
 2579SOL    HW2 8481   0.897   2.668  11.052
 2580SOL     OW 8482   0.685   2.860   9.955
 2580SOL    HW1 8483   0.752   2.852  10.023
 2580SOL    HW2 8484   0.616   2.914   9.995
 2581SOL     OW 8485   0.714   3.011  11.131
 2581SOL    HW1 8486   0.762   3.088  11.162
 2581SOL    HW2 8487   0.635   3.047  11.091
 2582SOL     OW 8488   0.351   3.261  10.389
 2582SOL    HW1 8489   0.270   3.243  10.341
 2582SOL    HW2 8490   0.401   3.318  10.331
 2583SOL     OW 8491   1.459   3.364  10.671
 2583SOL    HW1 8492   1.513   3.442  10.681
 2583SOL    HW2 8493   1.390   3.374  10.736
 2584SOL     OW 8494   0.450   2.256  10.792
 2584SOL    HW1 8495   0.526   2.198  10.797
 2584SOL    HW2 8496   0.375   2.199  10.808
 2585SOL     OW 8497   1.598   2.297  10.044
 2585SOL    HW1 8498   1.515   2.314   9.999
 2585SOL    HW2 8499   1.612   2.374  10.098
 2586SOL     OW 8500   0.220   3.573   9.775
 2586SOL    HW1 8501   0.217   3.659   9.817
 2586SOL    HW2 8502   0.297   3.577   9.718
 2587SOL     OW 8503   1.138   3.204  11.005
 2587SOL    HW1 8504   1.179   3.196  11.091
 2587SOL    HW2 8505   1.086   3.124  10.996
 2588SOL     OW 8506   0.255   3.308   9.848
 2588SOL    HW1 8507   0.226   3.398   9.835
 2588SOL    HW2 8508   0.188   3.268   9.902
 2589SOL     OW 8509   0.250   2.927  10.193
 2589SOL    HW1 8510   0.270   2.841  10.231
 2589SOL    HW2 8511   0.196   2.970  10.259
 2590SOL     OW 8512   0.608   3.648  10.735
 2590SOL    HW1 8513   0.526   3.635  10.782
 2590SOL    HW2 8514   0.635   3.737  10.759
 2591SOL     OW 8515   0.573   2.850   9.451
 2591SOL    HW1 8516   0.624   2.893   9.382
 2591SOL    HW2 8517   0.613   2.880   9.532
 2592SOL     OW 8518   1.552   2.006  10.748
 2592SOL    HW1 8519   1.580   2.089  10.710
 2592SOL    HW2 8520   1.543   2.025  10.842
 2593SOL     OW 8521   0.144   2.522   9.883
 2593SOL    HW1 8522   0.087   2.445   9.880
 2593SOL    HW2 8523   0.109   2.575   9.954
 2594SOL     OW 8524   1.845   3.602   9.647
 2594SOL    HW1 8525   1.915   3.580   9.708
 2594SOL    HW2 8526   1.861   3.694   9.624
 2595SOL     OW 8527   0.039   3.449   9.448
 2595SOL    HW1 8528   0.038   3.358   9.479
 2595SOL    HW2 8529   3.952   3.482   9.467
 2596SOL     OW 8530   1.690   2.781   9.954
 2596SOL    HW1 8531   1.769   2.735   9.925
 2596SOL    HW2 8532   1.665   2.834   9.878
 2597SOL     OW 8533   1.649   2.965   9.739
 2597SOL    HW1 8534   1.736   2.965   9.698
 2597SOL    HW2 8535   1.656   3.029   9.810
 2598SOL     OW 8536   0.145   2.613  10.900
 2598SOL    HW1 8537   0.241   2.611  10.894
 2598SOL    HW2 8538   0.126   2.700  10.937
 2599SOL     OW 8539   0.618   3.250  10.044
 2599SOL    HW1 8540   0.571   3.167  10.052
 2599SOL    HW2 8541   0.601   3.278   9.954
 2600SOL     OW 8542   1.285   3.097  10.730
 2600SOL    HW1 8543   1.315   3.028  10.671
 2600SOL    HW2 8544   1.344   3.092  10.805
 2601SOL     OW 8545   0.825   1.865   9.826
 2601SOL    HW1 8546   0.865   1.949   9.801
 2601SOL    HW2 8547   0.731   1.883   9.828
 2602SOL     OW 8548   0.183   2.810  10.593
 2602SOL    HW1 8549   0.271   2.775  10.581
 2602SOL    HW2 8550   0.133   2.776  10.518
 2603SOL     OW 8551   1.531   2.862   9.510
 2603SOL    HW1 8552   1.462   2.804   9.542
 2603SOL    HW2 8553   1.574   2.895   9.589
 2604SOL     OW 8554   1.226   3.669  10.940
 2604SOL    HW1 8555   1.198   3.731  10.872
 2604SOL    HW2 8556   1.225   3.584  10.896
 2605SOL     OW 8557   0.345   2.109  11.132
 2605SOL    HW1 8558   0.378   2.198  11.138
 2605SOL    HW2 8559   0.252   2.116  11.155
 2606SOL     OW 8560   1.467   3.280  10.257
 2606SOL    HW1 8561   1.400   3.296  10.324
 2606SOL    HW2 8562   1.453   3.189  10.231
 2607SOL     OW 8563   1.652   3.605   9.891
 2607SOL    HW1 8564   1.637   3.572   9.803
 2607SOL    HW2 8565   1.631   3.530   9.948
 2608SOL     OW 8566   0.596   2.574   9.579
 2608SOL    HW1 8567   0.601   2.659   9.536
 2608SOL    HW2 8568   0.533   2.587   9.649
 2609SOL     OW 8569   1.280   2.230  10.247
 2609SOL    HW1 8570   1.192   2.194  10.256
 2609SOL    HW2 8571   1.335   2.173  10.301
 2610SOL     OW 8572   1.575   3.538   9.620
 2610SOL    HW1 8573   1.669   3.558   9.614
 2610SOL    HW2 8574   1.549   3.521   9.530
 2611SOL     OW 8575   0.791   2.480  10.758
 2611SOL    HW1 8576   0.765   2.453  10.846
 2611SOL    HW2 8577   0.757   2.410  10.701
 2612SOL     OW 8578   1.393   2.335  10.987
 2612SOL    HW1 8579   1.397   2.380  11.071
 2612SOL    HW2 8580   1.451   2.260  10.997
 2613SOL     OW 8581   0.949   2.746  10.896
 2613SOL    HW1 8582   1.004   2.678  10.857
 2613SOL    HW2 8583   0.901   2.783  10.823
 2614SOL     OW 8584   0.995   2.272  10.542
 2614SOL    HW1 8585   0.905   2.288  10.571
 2614SOL    HW2 8586   0.985   2.229  10.457
 2615SOL     OW 8587   1.055   2.561   9.734
 2615SOL    HW1 8588   1.073   2.554   9.828
 2615SOL    HW2 8589   0.971   2.515   9.723
 2616SOL     OW 8590   0.083   2.695  10.099
 2616SOL    HW1 8591   0.153   2.662  10.155
 2616SOL    HW2 8592   0.107   2.786  10.081
 2617SOL     OW 8593   0.127   3.720  10.894
 2617SOL    HW1 8594   0.136   3.688  10.983
 2617SOL    HW2 8595   0.035   3.707  10.872
 2618SOL     OW 8596   0.900   2.212   9.505
 2618SOL    HW1 8597   0.939   2.276   9.445
 2618SOL    HW2 8598   0.911   2.128   9.461
 2619SOL     OW 8599   1.702   2.438  11.146
 2619SOL    HW1 8600   1.668   2.510  11.093
 2619SOL    HW2 8601   1.730   2.372  11.083
 2620SOL     OW 8602   1.381   3.004   9.850
 2620SOL    HW1 8603   1.460   2.993   9.797
 2620SOL    HW2 8604   1.328   3.066   9.800
 2621SOL     OW 8605   0.548   2.039  10.207
 2621SOL    HW1 8606   0.555   2.072  10.297
 2621SOL    HW2 8607   0.546   2.118  10.153
 2622SOL     OW 8608   1.000   3.307   9.778
 2622SOL    HW1 8609   0.967   3.383   9.728
 2622SOL    HW2 8610   0.976   3.326   9.869
 2623SOL     OW 8611   0.360   3.674  10.177
 2623SOL    HW1 8612   0.442   3.628  10.191
 2623SOL    HW2 8613   0.382   3.767  10.186
 2624SOL     OW 8614   1.801   2.910  10.182
 2624SOL    HW1 8615   1.750   2.892  10.104
 2624SOL    HW2 8616   1.737   2.919  10.252
 2625SOL     OW 8617   1.227   3.400  10.821
 2625SOL    HW1 8618   1.215   3.328  10.883
 2625SOL    HW2 8619   1.155   3.390  10.758
 2626SOL     OW 8620   0.311   2.813   9.553
 2626SOL    HW1 8621   0.393   2.835   9.510
 2626SOL    HW2 8622   0.299   2.720   9.535
 2627SOL     OW 8623   1.482   2.612  10.030
 2627SOL    HW1 8624   1.479   2.571  10.117
 2627SOL    HW2 8625   1.561   2.667  10.033
 2628SOL     OW 8626   0.472   3.123  11.047
 2628SOL    HW1 8627   0.446   3.131  10.955
 2628SOL    HW2 8628   0.389   3.125  11.095
 2629SOL     OW 8629   1.114   3.644   9.529
 2629SOL    HW1 8630   1.047   3.600   9.581
 2629SOL    HW2 8631   1.145   3.577   9.468
 2630SOL     OW 8632   0.203   2.129  10.819
 2630SOL    HW1 8633   0.114   2.162  10.815
 2630SOL    HW2 8634   0.194   2.040  10.853
 2631SOL     OW 8635   1.628   3.244   9.403
 2631SOL    HW1 8636   1.588   3.330   9.385
 2631SOL    HW2 8637   1.560   3.181   9.381
 2632SOL     OW 8638   0.465   3.605   9.631
 2632SOL    HW1 8639   0.505   3.665   9.694
 2632SOL    HW2 8640   0.538   3.574   9.577
 2633SOL     OW 8641   1.399   1.964   9.751
 2633SOL    HW1 8642   1.387   1.943   9.659
 2633SOL    HW2 8643   1.477   1.915   9.777
 2634SOL     OW 8644   0.259   3.658  10.531
 2634SOL    HW1 8645   0.297   3.587  10.583
 2634SOL    HW2 8646   0.255   3.623  10.442
 2635SOL     OW 8647   0.938   3.566  10.207
 2635SOL    HW1 8648   1.016   3.515  10.231
 2635SOL    HW2 8649   0.897   3.515  10.138
 2636SOL     OW 8650   0.402   2.553   9.780
 2636SOL    HW1 8651   0.424   2.461   9.797
 2636SOL    HW2 8652   0.310   2.560   9.807
 2637SOL     OW 8653   1.529   2.084  11.030
 2637SOL    HW1 8654   1.544   2.105  11.122
 2637SOL    HW2 8655   1.464   2.013  11.033
 2638SOL     OW 8656   0.652   1.976   9.403
 2638SOL    HW1 8657   0.706   1.901   9.427
 2638SOL    HW2 8658   0.598   1.945   9.330
 2639SOL     OW 8659   0.765   2.142  11.065
 2639SOL    HW1 8660   0.846   2.092  11.061
 2639SOL    HW2 8661   0.719   2.106  11.142
 2640SOL     OW 8662   0.876   3.383  10.504
 2640SOL    HW1 8663   0.858   3.345  10.418
 2640SOL    HW2 8664   0.945   3.328  10.541
 2641SOL     OW 8665   1.339   2.452  10.743
 2641SOL    HW1 8666   1.369   2.421  10.828
 2641SOL    HW2 8667   1.375   2.540  10.735
 2642SOL     OW 8668   0.819   3.249  10.256
 2642SOL    HW1 8669   0.905   3.239  10.214
 2642SOL    HW2 8670   0.757   3.255  10.183
 2643SOL     OW 8671   0.930   2.372  10.209
 2643SOL    HW1 8672   0.905   2.362  10.117
 2643SOL    HW2 8673   0.959   2.284  10.235
 2644SOL     OW 8674   0.561   1.924   9.801
 2644SOL    HW1 8675   0.479   1.929   9.851
 2644SOL    HW2 8676   0.563   2.005   9.751
 2645SOL     OW 8677   1.428   3.063   9.348
 2645SOL    HW1 8678   1.457   2.988   9.400
 2645SOL    HW2 8679   1.342   3.085   9.385
 2646SOL     OW 8680   0.309   1.913   9.479
 2646SOL    HW1 8681   0.370   1.952   9.416
 2646SOL    HW2 8682   0.362   1.849   9.527
 2647SOL     OW 8683   0.943   2.111   9.766
 2647SOL    HW1 8684   0.916   2.149   9.682
 2647SOL    HW2 8685   1.037   2.128   9.771
 2648SOL     OW 8686   1.080   2.547  10.766
 2648SOL    HW1 8687   1.015   2.476  10.770
 2648SOL    HW2 8688   1.164   2.501  10.761
 2649SOL     OW 8689   1.219   3.435  10.104
 2649SOL    HW1 8690   1.232   3.501  10.036
 2649SOL    HW2 8691   1.289   3.451  10.168
 2650SOL     OW 8692   0.467   3.014  10.040
 2650SOL    HW1 8693   0.398   2.989  10.101
 2650SOL    HW2 8694   0.430   2.999   9.953
 2651SOL     OW 8695   1.263   3.653   9.920
 2651SOL    HW1 8696   1.313   3.717   9.871
 2651SOL    HW2 8697   1.188   3.702   9.955
 2652SOL     OW 8698   1.025   2.396   9.337
 2652SOL    HW1 8699   0.981   2.479   9.317
 2652SOL    HW2 8700   1.091   2.418   9.402
 2653SOL     OW 8701   0.085   2.437  10.699
 2653SOL    HW1 8702   0.175   2.424  10.669
 2653SOL    HW2 8703   0.092   2.506  10.765
 2654SOL     OW 8704   0.567   2.089  10.479
 2654SOL    HW1 8705   0.608   2.016  10.524
 2654SOL    HW2 8706   0.475   2.085  10.506
 2655SOL     OW 8707   0.867   2.319   9.948
 2655SOL    HW1 8708   0.821   2.374   9.885
 2655SOL    HW2 8709   0.888   2.239   9.900
 2656SOL     OW 8710   1.017   1.918  10.058
 2656SOL    HW1 8711   0.958   1.912   9.982
 2656SOL    HW2 8712   0.993   1.843  10.112
 2657SOL     OW 8713   1.439   3.022  10.166
 2657SOL    HW1 8714   1.368   2.958  10.168
 2657SOL    HW2 8715   1.463   3.030  10.074
 2658SOL     OW 8716   1.462   2.472  10.276
 2658SOL    HW1 8717   1.405   2.395  10.278
 2658SOL    HW2 8718   1.518   2.463  10.353
 2659SOL     OW 8719   1.841   2.673   9.700
 2659SOL    HW1 8720   1.903   2.624   9.754
 2659SOL    HW2 8721   1.815   2.612   9.631
 2660SOL     OW 8722   0.488   3.284   9.466
 2660SOL    HW1 8723   0.411   3.255   9.516
 2660SOL    HW2 8724   0.475   3.248   9.379
 2661SOL     OW 8725   1.678   3.125   9.951
 2661SOL    HW1 8726   1.772   3.125   9.967
 2661SOL    HW2 8727   1.650   3.214   9.974
 2662SOL     OW 8728   1.387   2.438   9.376
 2662SOL    HW1 8729   1.335   2.413   9.453
 2662SOL    HW2 8730   1.477   2.423   9.403
 2663SOL     OW 8731   0.576   2.128   9.622
 2663SOL    HW1 8732   0.611   2.083   9.545
 2663SOL    HW2 8733   0.544   2.212   9.588
 2664SOL     OW 8734   1.748   3.105  10.870
 2664SOL    HW1 8735   1.835   3.067  10.863
 2664SOL    HW2 8736   1.764   3.195  10.900
 2665SOL     OW 8737   1.053   3.213  10.641
 2665SOL    HW1 8738   0.978   3.183  10.691
 2665SOL    HW2 8739   1.129   3.173  10.683
 2666SOL     OW 8740   1.611   3.490  10.969
 2666SOL    HW1 8741   1.601   3.524  10.880
 2666SOL    HW2 8742   1.693   3.440  10.967
 2667SOL     OW 8743   1.136   3.073  10.412
 2667SOL    HW1 8744   1.076   3.110  10.476
 2667SOL    HW2 8745   1.107   3.108  10.328
 2668SOL     OW 8746   1.623   2.958  10.384
 2668SOL    HW1 8747   1.616   3.021  10.456
 2668SOL    HW2 8748   1.547   2.977  10.329
 2669SOL     OW 8749   0.918   1.955  10.701
 2669SOL    HW1 8750   0.941   1.936  10.610
 2669SOL    HW2 8751   0.997   1.994  10.738
 2670SOL     OW 8752   0.984   2.977  11.033
 2670SOL    HW1 8753   0.893   2.993  11.057
 2670SOL    HW2 8754   0.980   2.898  10.979
 2671SOL     OW 8755   0.708   2.923   9.681
 2671SOL    HW1 8756   0.694   2.904   9.774
 2671SOL    HW2 8757   0.784   2.870   9.657
 2672SOL     OW 8758   0.424   2.681  10.564
 2672SOL    HW1 8759   0.492   2.690  10.631
 2672SOL    HW2 8760   0.391   2.592  10.574
 2673SOL     OW 8761   1.263   2.236  10.592
 2673SOL    HW1 8762   1.295   2.315  10.637
 2673SOL    HW2 8763   1.172   2.257  10.570
 2674SOL     OW 8764   0.065   3.441  10.653
 2674SOL    HW1 8765   0.069   3.472  10.562
 2674SOL    HW2 8766   0.156   3.436  10.680
 2675SOL     OW 8767   0.361   2.965   9.789
 2675SOL    HW1 8768   0.360   3.047   9.740
 2675SOL    HW2 8769   0.362   2.896   9.723
 2676SOL     OW 8770   0.546   2.394  10.171
 2676SOL    HW1 8771   0.560   2.451  10.096
 2676SOL    HW2 8772   0.614   2.419  10.233
 2677SOL     OW 8773   1.247   3.212   9.701
 2677SOL    HW1 8774   1.303   3.283   9.733
 2677SOL    HW2 8775   1.160   3.234   9.734
 2678SOL     OW 8776   1.290   3.323  10.459
 2678SOL    HW1 8777   1.345   3.328  10.537
 2678SOL    HW2 8778   1.234   3.246  10.474
 2679SOL     OW 8779   1.571   2.487   9.785
 2679SOL    HW1 8780   1.526   2.532   9.856
 2679SOL    HW2 8781   1.619   2.556   9.739
 2680SOL     OW 8782   0.345   3.392  10.625
 2680SOL    HW1 8783   0.335   3.340  10.546
 2680SOL    HW2 8784   0.439   3.406  10.634
 2681SOL     OW 8785   0.421   2.599  10.913
 2681SOL    HW1 8786   0.485   2.643  10.856
 2681SOL    HW2 8787   0.460   2.513  10.929
 2682SOL     OW 8788   1.608   2.645  10.998
 2682SOL    HW1 8789   1.522   2.686  10.991
 2682SOL    HW2 8790   1.660   2.687  10.929
 2683SOL     OW 8791   0.997   1.996  11.063
 2683SOL    HW1 8792   1.056   2.069  11.042
 2683SOL    HW2 8793   1.045   1.918  11.038
 2684SOL     OW 8794   0.496   1.895  11.058
 2684SOL    HW1 8795   0.451   1.844  10.991
 2684SOL    HW2 8796   0.444   1.974  11.068
 2685SOL     OW 8797   0.587   2.737  10.343
 2685SOL    HW1 8798   0.622   2.826  10.345
 2685SOL    HW2 8799   0.530   2.731  10.420
 2686SOL     OW 8800   1.346   2.720  10.330
 2686SOL    HW1 8801   1.259   2.705  10.292
 2686SOL    HW2 8802   1.392   2.637  10.319
 2687SOL     OW 8803   1.200   2.388   9.574
 2687SOL    HW1 8804   1.208   2.310   9.629
 2687SOL    HW2 8805   1.158   2.453   9.629
 2688SOL     OW 8806   0.309   2.057  10.556
 2688SOL    HW1 8807   0.262   2.092  10.632
 2688SOL    HW2 8808   0.288   1.963  10.556
 2689SOL     OW 8809   0.063   3.167  10.591
 2689SOL    HW1 8810   0.093   3.123  10.671
 2689SOL    HW2 8811   0.054   3.259  10.615
 2690SOL     OW 8812   0.721   2.491  10.362
 2690SOL    HW1 8813   0.798   2.478  10.306
 2690SOL    HW2 8814   0.693   2.581  10.344
 2691SOL     OW 8815   1.741   2.820  11.171
 2691SOL    HW1 8816   1.698   2.754  11.117
 2691SOL    HW2 8817   1.679   2.839  11.241
 2692SOL     OW 8818   0.318   1.922   9.929
 2692SOL    HW1 8819   0.294   2.013   9.949
 2692SOL    HW2 8820   0.325   1.880  10.015
 2693SOL     OW 8821   1.612   2.244   9.672
 2693SOL    HW1 8822   1.611   2.185   9.748
 2693SOL    HW2 8823   1.591   2.330   9.708
 2694SOL     OW 8824   1.030   2.620  10.268
 2694SOL    HW1 8825   1.020   2.637  10.362
 2694SOL    HW2 8826   1.003   2.529  10.257
 2695SOL     OW 8827   0.987   3.430  11.033
 2695SOL    HW1 8828   0.966   3.470  10.949
 2695SOL    HW2 8829   1.028   3.347  11.011
 2696SOL     OW 8830   1.851   3.362  10.913
 2696SOL    HW1 8831   1.873   3.391  10.824
 2696SOL    HW2 8832   1.932   3.377  10.963
 2697SOL     OW 8833   0.356   2.785  11.108
 2697SOL    HW1 8834   0.434   2.806  11.160
 2697SOL    HW2 8835   0.386   2.717  11.048
 2698SOL     OW 8836   1.534   2.125   9.434
 2698SOL    HW1 8837   1.466   2.064   9.463
 2698SOL    HW2 8838   1.562   2.169   9.514
 2699SOL     OW 8839   1.285   2.689   9.338
 2699SOL    HW1 8840   1.325   2.602   9.341
 2699SOL    HW2 8841   1.317   2.727   9.255
 2700SOL     OW 8842   1.070   3.201  10.167
 2700SOL    HW1 8843   1.075   3.130  10.104
 2700SOL    HW2 8844   1.127   3.269  10.131
 2701SOL     OW 8845   0.313   2.662  10.259
 2701SOL    HW1 8846   0.407   2.678  10.253
 2701SOL    HW2 8847   0.307   2.571  10.290
 2702SOL     OW 8848   0.327   2.384  10.325
 2702SOL    HW1 8849   0.292   2.296  10.310
 2702SOL    HW2 8850   0.403   2.390  10.268
 2703SOL     OW 8851   1.135   2.234  10.996
 2703SOL    HW1 8852   1.087   2.289  11.059
 2703SOL    HW2 8853   1.222   2.273  10.992
 2704SOL     OW 8854   1.159   2.059  10.782
 2704SOL    HW1 8855   1.149   2.122  10.854
 2704SOL    HW2 8856   1.204   2.109  10.713
 2705SOL     OW 8857   0.001   3.175   9.493
 2705SOL    HW1 8858   3.906   3.192   9.496
 2705SOL    HW2 8859   0.009   3.082   9.511
 2706SOL     OW 8860   0.076   3.662  10.205
 2706SOL    HW1 8861   0.097   3.569  10.197
 2706SOL    HW2 8862   0.161   3.706  10.207
 2707SOL     OW 8863   0.505   3.421  10.229
 2707SOL    HW1 8864   0.570   3.490  10.246
 2707SOL    HW2 8865   0.548   3.364  10.164
 2708SOL     OW 8866   0.972   2.649  10.533
 2708SOL    HW1 8867   1.032   2.630  10.605
 2708SOL    HW2 8868   0.889   2.609  10.560
 2709SOL     OW 8869   0.038   2.427  10.419
 2709SOL    HW1 8870   0.121   2.404  10.376
 2709SOL    HW2 8871   0.057   2.422  10.512
 2710SOL     OW 8872   0.206   2.372  11.038
 2710SOL    HW1 8873   0.242   2.321  10.965
 2710SOL    HW2 8874   0.165   2.448  10.996
 2711SOL     OW 8875   1.380   2.795  10.966
 2711SOL    HW1 8876   1.402   2.889  10.962
 2711SOL    HW2 8877   1.376   2.767  10.875
 2712SOL     OW 8878   0.820   2.431   9.676
 2712SOL    HW1 8879   0.826   2.356   9.617
 2712SOL    HW2 8880   0.745   2.481   9.643
 2713SOL     OW 8881   1.632   2.465  10.492
 2713SOL    HW1 8882   1.620   2.410  10.569
 2713SOL    HW2 8883   1.718   2.440  10.458
 2714SOL     OW 8884   0.302   3.405  11.030
 2714SOL    HW1 8885   0.255   3.474  11.078
 2714SOL    HW2 8886   0.275   3.324  11.073
 2715SOL     OW 8887   0.715   2.308  10.563
 2715SOL    HW1 8888   0.659   2.235  10.537
 2715SOL    HW2 8889   0.706   2.372  10.492
 2716SOL     OW 8890   0.925   3.531  10.782
 2716SOL    HW1 8891   0.897   3.491  10.699
 2716SOL    HW2 8892   0.917   3.625  10.766
 2717SOL     OW 8893   0.449   2.349   9.508
 2717SOL    HW1 8894   0.515   2.416   9.526
 2717SOL    HW2 8895   0.370   2.398   9.485
 2718SOL     OW 8896   0.153   2.996  10.788
 2718SOL    HW1 8897   0.153   2.946  10.870
 2718SOL    HW2 8898   0.169   2.930  10.720
 2719SOL     OW 8899   1.321   2.904  10.528
 2719SOL    HW1 8900   1.341   2.841  10.460
 2719SOL    HW2 8901   1.255   2.962  10.489
 2720SOL     OW 8902   1.316   2.719   9.613
 2720SOL    HW1 8903   1.243   2.686   9.665
 2720SOL    HW2 8904   1.289   2.706   9.522
 2721SOL     OW 8905   1.777   3.596  10.465
 2721SOL    HW1 8906   1.839   3.624  10.398
 2721SOL    HW2 8907   1.753   3.507  10.439
 2722SOL     OW 8908   1.245   3.593  10.413
 2722SOL    HW1 8909   1.328   3.616  10.373
 2722SOL    HW2 8910   1.254   3.500  10.435
 2723SOL     OW 8911   0.078   3.074  10.339
 2723SOL    HW1 8912   0.085   3.102  10.430
 2723SOL    HW2 8913   3.986   3.089  10.316
 2724SOL     OW 8914   0.681   3.530  11.050
 2724SOL    HW1 8915   0.621   3.604  11.053
 2724SOL    HW2 8916   0.742   3.551  10.979
 2725SOL     OW 8917   1.392   3.430   9.801
 2725SOL    HW1 8918   1.450   3.465   9.733
 2725SOL    HW2 8919   1.342   3.506   9.831
 2726SOL     OW 8920   0.173   3.618  11.145
 2726SOL    HW1 8921   0.119   3.565  11.203
 2726SOL    HW2 8922   0.218   3.679  11.203
 2727SOL     OW 8923   1.278   2.791   9.981
 2727SOL    HW1 8924   1.352   2.730   9.991
 2727SOL    HW2 8925   1.313   2.862   9.927
 2728SOL     OW 8926   0.803   3.138  10.734
 2728SOL    HW1 8927   0.775   3.180  10.815
 2728SOL    HW2 8928   0.731   3.153  10.673
 2729SOL     OW 8929   0.674   3.482   9.470
 2729SOL    HW1 8930   0.684   3.500   9.376
 2729SOL    HW2 8931   0.614   3.407   9.474
 2730SOL     OW 8932   1.619   3.589  10.700
 2730SOL    HW1 8933   1.673   3.593  10.621
 2730SOL    HW2 8934   1.604   3.681  10.723
 2731SOL     OW 8935   0.262   2.173  10.024
 2731SOL    HW1 8936   0.175   2.203  10.000
 2731SOL    HW2 8937   0.259   2.164  10.120
 2732SOL     OW 8938   1.208   3.462   9.348
 2732SOL    HW1 8939   1.198   3.370   9.372
 2732SOL    HW2 8940   1.147   3.475   9.276
 2733SOL     OW 8941   0.823   2.868  10.686
 2733SOL    HW1 8942   0.867   2.862  10.601
 2733SOL    HW2 8943   0.819   2.962  10.704
 2734SOL     OW 8944   0.916   2.772   9.602
 2734SOL    HW1 8945   0.975   2.805   9.535
 2734SOL    HW2 8946   0.967   2.705   9.647
 2735SOL     OW 8947   1.488   3.494   9.355
 2735SOL    HW1 8948   1.394   3.482   9.338
 2735SOL    HW2 8949   1.527   3.499   9.268
 2736SOL     OW 8950   0.374   3.164  10.801
 2736SOL    HW1 8951   0.359   3.244  10.752
 2736SOL    HW2 8952   0.297   3.110  10.785
 2737SOL     OW 8953   1.607   3.147  10.589
 2737SOL    HW1 8954   1.667   3.130  10.662
 2737SOL    HW2 8955   1.547   3.214  10.621
 2738SOL     OW 8956   1.062   2.973  10.022
 2738SOL    HW1 8957   0.989   2.923  10.058
 2738SOL    HW2 8958   1.126   2.907   9.995
 2739SOL     OW 8959   1.026   2.105  10.277
 2739SOL    HW1 8960   1.022   2.059  10.193
 2739SOL    HW2 8961   1.020   2.035  10.343
 2740SOL     OW 8962   0.608   3.353   9.790
 2740SOL    HW1 8963   0.656   3.303   9.724
 2740SOL    HW2 8964   0.533   3.389   9.743
 2741SOL     OW 8965   1.736   2.240  10.684
 2741SOL    HW1 8966   1.802   2.309  10.689
 2741SOL    HW2 8967   1.779   2.168  10.638
 2742SOL     OW 8968   0.255   3.202   9.602
 2742SOL    HW1 8969   0.160   3.206   9.585
 2742SOL    HW2 8970   0.266   3.241   9.688
 2743SOL     OW 8971   0.110   2.858  11.028
 2743SOL    HW1 8972   0.051   2.854  11.103
 2743SOL    HW2 8973   0.197   2.842  11.065
 2744SOL     OW 8974   0.677   2.058  10.810
 2744SOL    HW1 8975   0.761   2.036  10.770
 2744SOL    HW2 8976   0.701   2.091  10.897
 2745SOL     OW 8977   0.080   2.170   9.347
 2745SOL    HW1 8978   3.985   2.171   9.356
 2745SOL    HW2 8979   0.101   2.252   9.301
 2746SOL     OW 8980   1.425   2.719  10.707
 2746SOL    HW1 8981   1.376   2.780  10.652
 2746SOL    HW2 8982   1.514   2.723  10.673
 2747SOL     OW 8983   0.014   2.108   9.689
 2747SOL    HW1 8984   0.046   2.171   9.624
 2747SOL    HW2 8985   0.093   2.063   9.719
 2748SOL     OW 8986   1.177   3.195   9.428
 2748SOL    HW1 8987   1.085   3.168   9.428
 2748SOL    HW2 8988   1.202   3.195   9.520
 2749SOL     OW 8989   0.621   2.693  10.748
 2749SOL    HW1 8990   0.678   2.768  10.733
 2749SOL    HW2 8991   0.681   2.618  10.754
 2750SOL     OW 8992   1.488   3.644  10.292
 2750SOL    HW1 8993   1.509   3.709  10.225
 2750SOL    HW2 8994   1.573   3.620  10.329
 2751SOL     OW 8995   0.716   2.421  11.011
 2751SOL    HW1 8996   0.763   2.480  11.070
 2751SOL    HW2 8997   0.737   2.333  11.044
 2752SOL     OW 8998   1.474   3.056  10.938
 2752SOL    HW1 8999   1.462   3.071  11.032
 2752SOL    HW2 9000   1.566   3.076  10.922
 2753SOL     OW 9001   0.377   3.611  10.870
 2753SOL    HW1 9002   0.289   3.647  10.859
 2753SOL    HW2 9003   0.364   3.527  10.913
 2754SOL     OW 9004   1.665   2.743  10.563
 2754SOL    HW1 9005   1.656   2.657  10.521
 2754SOL    HW2 9006   1.653   2.806  10.492
 2755SOL     OW 9007   1.217   2.181   9.768
 2755SOL    HW1 9008   1.278   2.108   9.762
 2755SOL    HW2 9009   1.246   2.231   9.844
 2756SOL     OW 9010   0.586   2.597   9.986
 2756SOL    HW1 9011   0.626   2.683   9.970
 2756SOL    HW2 9012   0.523   2.587   9.915
 2757SOL     OW 9013   1.748   2.243  10.962
 2757SOL    HW1 9014   1.742   2.245  10.866
 2757SOL    HW2 9015   1.683   2.177  10.988
 2758SOL     OW 9016   1.742   2.799  10.820
 2758SOL    HW1 9017   1.734   2.894  10.831
 2758SOL    HW2 9018   1.728   2.784  10.727
 2759SOL     OW 9019   0.867   3.227   9.356
 2759SOL    HW1 9020   0.825   3.255   9.437
 2759SOL    HW2 9021   0.878   3.308   9.306
 2760SOL     OW 9022   0.657   3.648  10.237
 2760SOL    HW1 9023   0.638   3.740  10.222
 2760SOL    HW2 9024   0.753   3.643  10.238
 2761SOL     OW 9025   0.870   2.833  10.163
 2761SOL    HW1 9026   0.920   2.760  10.200
 2761SOL    HW2 9027   0.831   2.876  10.238
 2762SOL     OW 9028   1.075   2.850   9.399
 2762SOL    HW1 9029   1.054   2.903   9.321
 2762SOL    HW2 9030   1.149   2.796   9.373
 2763SOL     OW 9031   1.846   3.410  10.150
 2763SOL    HW1 9032   1.765   3.401  10.099
 2763SOL    HW2 9033   1.833   3.352  10.225
 2764SOL     OW 9034   0.231   3.167  11.168
 2764SOL    HW1 9035   0.153   3.118  11.140
 2764SOL    HW2 9036   0.219   3.179  11.262
 2765SOL     OW 9037   0.124   3.148  10.036
 2765SOL    HW1 9038   0.144   3.094  10.114
 2765SOL    HW2 9039   0.103   3.084   9.968
 2766SOL     OW 9040   0.686   3.269  10.943
 2766SOL    HW1 9041   0.606   3.227  10.974
 2766SOL    HW2 9042   0.683   3.358  10.980
 2767SOL     OW 9043   0.440   2.294   9.845
 2767SOL    HW1 9044   0.439   2.225   9.779
 2767SOL    HW2 9045   0.384   2.261   9.916
 2768SOL     OW 9046   1.699   3.344  10.397
 2768SOL    HW1 9047   1.618   3.325  10.349
 2768SOL    HW2 9048   1.703   3.277  10.465
 2769SOL     OW 9049   0.338   2.422  10.603
 2769SOL    HW1 9050   0.390   2.363  10.657
 2769SOL    HW2 9051   0.351   2.390  10.514
 2770SOL     OW 9052   0.831   3.441   9.985
 2770SOL    HW1 9053   0.808   3.500   9.913
 2770SOL    HW2 9054   0.758   3.379   9.989
 2771SOL     OW 9055   1.433   2.093  10.431
 2771SOL    HW1 9056   1.437   2.003  10.466
 2771SOL    HW2 9057   1.380   2.141  10.495
 2772SOL     OW 9058   1.010   1.878  10.445
 2772SOL    HW1 9059   0.956   1.812  10.401
 2772SOL    HW2 9060   1.098   1.840  10.446
 2773SOL     OW 9061   0.774   3.194   9.633
 2773SOL    HW1 9062   0.747   3.103   9.640
 2773SOL    HW2 9063   0.856   3.199   9.681
 2774SOL     OW 9064   0.622   3.416  10.598
 2774SOL    HW1 9065   0.621   3.498  10.647
 2774SOL    HW2 9066   0.709   3.410  10.560
 2775SOL     OW 9067   1.357   1.910   9.482
 2775SOL    HW1 9068   1.387   1.844   9.420
 2775SOL    HW2 9069   1.267   1.884   9.504
 2776SOL     OW 9070   1.300   2.326   9.989
 2776SOL    HW1 9071   1.247   2.405   9.991
 2776SOL    HW2 9072   1.292   2.289  10.077
 2777SOL     OW 9073   1.569   2.050  10.188
 2777SOL    HW1 9074   1.533   2.081  10.271
 2777SOL    HW2 9075   1.583   2.130  10.138
 2778SOL     OW 9076   0.047   2.907   9.553
 2778SOL    HW1 9077   0.142   2.893   9.546
 2778SOL    HW2 9078   0.012   2.820   9.572
 2779SOL     OW 9079   0.888   3.526   9.650
 2779SOL    HW1 9080   0.816   3.507   9.591
 2779SOL    HW2 9081   0.857   3.599   9.704
 2780SOL     OW 9082   0.230   2.490  11.289
 2780SOL    HW1 9083   0.137   2.497  11.310
 2780SOL    HW2 9084   0.232   2.456  11.199
 2781SOL     OW 9085   0.230   2.135  12.158
 2781SOL    HW1 9086   0.251   2.099  12.245
 2781SOL    HW2 9087   0.134   2.128  12.152
 2782SOL     OW 9088   0.004   2.218  11.802
 2782SOL    HW1 9089   3.914   2.237  11.829
 2782SOL    HW2 9090   3.997   2.191  11.711
 2783SOL     OW 9091   0.583   3.156  12.371
 2783SOL    HW1 9092   0.497   3.158  12.328
 2783SOL    HW2 9093   0.596   3.246  12.402
 2784SOL     OW 9094   1.569   3.373  11.882
 2784SOL    HW1 9095   1.526   3.350  11.964
 2784SOL    HW2 9096   1.498   3.376  11.818
 2785SOL     OW 9097   1.134   2.560  11.867
 2785SOL    HW1 9098   1.181   2.642  11.855
 2785SOL    HW2 9099   1.086   2.571  11.949
 2786SOL     OW 9100   1.791   2.459  11.397
 2786SOL    HW1 9101   1.758   2.457  11.307
 2786SOL    HW2 9102   1.749   2.385  11.440
 2787SOL     OW 9103   0.746   2.997  12.218
 2787SOL    HW1 9104   0.686   3.035  12.282
 2787SOL    HW2 9105   0.784   3.073  12.174
 2788SOL     OW 9106   0.876   2.624  12.996
 2788SOL    HW1 9107   0.868   2.694  13.060
 2788SOL    HW2 9108   0.897   2.668  12.914
 2789SOL     OW 9109   0.685   2.860  11.817
 2789SOL    HW1 9110   0.752   2.852  11.885
 2789SOL    HW2 9111   0.616   2.914  11.857
 2790SOL     OW 9112   0.714   3.011  12.992
 2790SOL    HW1 9113   0.762   3.088  13.023
 2790SOL    HW2 9114   0.635   3.047  12.953
 2791SOL     OW 9115   0.351   3.261  12.251
 2791SOL    HW1 9116   0.270   3.243  12.203
 2791SOL    HW2 9117   0.401   3.318  12.193
 2792SOL     OW 9118   1.459   3.364  12.533
 2792SOL    HW1 9119   1.513   3.443  12.543
 2792SOL    HW2 9120   1.390   3.374  12.598
 2793SOL     OW 9121   0.450   2.256  12.654
 2793SOL    HW1 9122   0.526   2.198  12.659
 2793SOL    HW2 9123   0.375   2.199  12.670
 2794SOL     OW 9124   1.594   2.299  11.907
 2794SOL    HW1 9125   1.510   2.313  11.865
 2794SOL    HW2 9126   1.607   2.375  11.963
 2795SOL     OW 9127   0.220   3.573  11.637
 2795SOL    HW1 9128   0.217   3.659  11.679
 2795SOL    HW2 9129   0.297   3.577  11.580
 2796SOL     OW 9130   1.138   3.204  12.866
 2796SOL    HW1 9131   1.178   3.197  12.952
 2796SOL    HW2 9132   1.086   3.124  12.857
 2797SOL     OW 9133   0.255   3.308  11.710
 2797SOL    HW1 9134   0.226   3.398  11.697
 2797SOL    HW2 9135   0.188   3.267  11.764
 2798SOL     OW 9136   0.250   2.927  12.055
 2798SOL    HW1 9137   0.270   2.841  12.093
 2798SOL    HW2 9138   0.196   2.970  12.121
 2799SOL     OW 9139   0.607   3.648  12.596
 2799SOL    HW1 9140   0.526   3.635  12.644
 2799SOL    HW2 9141   0.635   3.737  12.621
 2800SOL     OW 9142   0.573   2.850  11.313
 2800SOL    HW1 9143   0.624   2.894  11.244
 2800SOL    HW2 9144   0.613   2.880  11.394
 2801SOL     OW 9145   1.551   2.006  12.612
 2801SOL    HW1 9146   1.580   2.089  12.573
 2801SOL    HW2 9147   1.543   2.025  12.706
 2802SOL     OW 9148   0.144   2.522  11.745
 2802SOL    HW1 9149   0.087   2.445  11.742
 2802SOL    HW2 9150   0.109   2.575  11.816
 2803SOL     OW 9151   1.845   3.602  11.509
 2803SOL    HW1 9152   1.915   3.580  11.570
 2803SOL    HW2 9153   1.861   3.694  11.486
 2804SOL     OW 9154   0.039   3.449  11.310
 2804SOL    HW1 9155   0.038   3.358  11.341
 2804SOL    HW2 9156   3.952   3.482  11.329
 2805SOL     OW 9157   1.689   2.781  11.816
 2805SOL    HW1 9158   1.770   2.736  11.789
 2805SOL    HW2 9159   1.665   2.835  11.740
 2806SOL     OW 9160   1.649   2.965  11.602
 2806SOL    HW1 9161   1.736   2.965  11.560
 2806SOL    HW2 9162   1.656   3.029  11.672
 2807SOL     OW 9163   0.145   2.613  12.762
 2807SOL    HW1 9164   0.241   2.611  12.756
 2807SOL    HW2 9165   0.126   2.700  12.799
 2808SOL     OW 9166   0.618   3.250  11.906
 2808SOL    HW1 9167   0.571   3.167  11.914
 2808SOL    HW2 9168   0.601   3.278  11.816
 2809SOL     OW 9169   1.285   3.097  12.592
 2809SOL    HW1 9170   1.316   3.028  12.533
 2809SOL    HW2 9171   1.344   3.092  12.667
 2810SOL     OW 9172   0.825   1.865  11.688
 2810SOL    HW1 9173   0.865   1.949  11.663
 2810SOL    HW2 9174   0.731   1.883  11.690
 2811SOL     OW 9175   0.183   2.810  12.455
 2811SOL    HW1 9176   0.271   2.775  12.443
 2811SOL    HW2 9177   0.133   2.775  12.380
 2812SOL     OW 9178   1.531   2.862  11.372
 2812SOL    HW1 9179   1.462   2.805  11.404
 2812SOL    HW2 9180   1.574   2.895  11.451
 2813SOL     OW 9181   1.226   3.669  12.801
 2813SOL    HW1 9182   1.197   3.731  12.734
 2813SOL    HW2 9183   1.225   3.584  12.758
 2814SOL     OW 9184   0.346   2.109  12.993
 2814SOL    HW1 9185   0.379   2.199  13.001
 2814SOL    HW2 9186   0.253   2.115  13.016
 2815SOL     OW 9187   1.467   3.280  12.119
 2815SOL    HW1 9188   1.400   3.296  12.186
 2815SOL    HW2 9189   1.453   3.189  12.093
 2816SOL     OW 9190   1.653   3.604  11.753
 2816SOL    HW1 9191   1.637   3.572  11.665
 2816SOL    HW2 9192   1.631   3.530  11.810
 2817SOL     OW 9193   0.596   2.574  11.441
 2817SOL    HW1 9194   0.601   2.659  11.398
 2817SOL    HW2 9195   0.533   2.587  11.511
 2818SOL     OW 9196   1.280   2.230  12.108
 2818SOL    HW1 9197   1.192   2.194  12.117
 2818SOL    HW2 9198   1.334   2.173  12.163
 2819SOL     OW 9199   1.575   3.538  11.482
 2819SOL    HW1 9200   1.669   3.558  11.476
 2819SOL    HW2 9201   1.549   3.521  11.392
 2820SOL     OW 9202   0.791   2.480  12.620
 2820SOL    HW1 9203   0.765   2.453  12.708
 2820SOL    HW2 9204   0.757   2.410  12.563
 2821SOL     OW 9205   1.393   2.335  12.849
 2821SOL    HW1 9206   1.397   2.380  12.933
 2821SOL    HW2 9207   1.452   2.260  12.859
 2822SOL     OW 9208   0.949   2.746  12.758
 2822SOL    HW1 9209   1.005   2.678  12.719
 2822SOL    HW2 9210   0.901   2.783  12.684
 2823SOL     OW 9211   0.995   2.271  12.404
 2823SOL    HW1 9212   0.905   2.288  12.433
 2823SOL    HW2 9213   0.985   2.229  12.319
 2824SOL     OW 9214   1.055   2.560  11.596
 2824SOL    HW1 9215   1.073   2.554  11.690
 2824SOL    HW2 9216   0.972   2.515  11.584
 2825SOL     OW 9217   0.083   2.695  11.961
 2825SOL    HW1 9218   0.153   2.662  12.017
 2825SOL    HW2 9219   0.107   2.786  11.944
 2826SOL     OW 9220   0.127   3.720  12.756
 2826SOL    HW1 9221   0.136   3.689  12.846
 2826SOL    HW2 9222   0.035   3.707  12.735
 2827SOL     OW 9223   0.900   2.212  11.367
 2827SOL    HW1 9224   0.939   2.276  11.307
 2827SOL    HW2 9225   0.911   2.128  11.323
 2828SOL     OW 9226   1.700   2.438  13.008
 2828SOL    HW1 9227   1.667   2.510  12.955
 2828SOL    HW2 9228   1.729   2.372  12.944
 2829SOL     OW 9229   1.381   3.004  11.712
 2829SOL    HW1 9230   1.460   2.993  11.659
 2829SOL    HW2 9231   1.328   3.066  11.662
 2830SOL     OW 9232   0.548   2.039  12.069
 2830SOL    HW1 9233   0.555   2.072  12.159
 2830SOL    HW2 9234   0.546   2.118  12.015
 2831SOL     OW 9235   1.000   3.307  11.640
 2831SOL    HW1 9236   0.967   3.382  11.590
 2831SOL    HW2 9237   0.976   3.326  11.731
 2832SOL     OW 9238   0.360   3.675  12.039
 2832SOL    HW1 9239   0.442   3.628  12.053
 2832SOL    HW2 9240   0.383   3.767  12.047
 2833SOL     OW 9241   1.801   2.909  12.045
 2833SOL    HW1 9242   1.749   2.892  11.966
 2833SOL    HW2 9243   1.737   2.919  12.115
 2834SOL     OW 9244   1.227   3.400  12.683
 2834SOL    HW1 9245   1.215   3.328  12.745
 2834SOL    HW2 9246   1.155   3.390  12.620
 2835SOL     OW 9247   0.311   2.813  11.415
 2835SOL    HW1 9248   0.393   2.835  11.372
 2835SOL    HW2 9249   0.299   2.720  11.397
 2836SOL     OW 9250   1.482   2.611  11.892
 2836SOL    HW1 9251   1.479   2.571  11.979
 2836SOL    HW2 9252   1.561   2.666  11.894
 2837SOL     OW 9253   0.472   3.123  12.909
 2837SOL    HW1 9254   0.446   3.131  12.817
 2837SOL    HW2 9255   0.390   3.125  12.957
 2838SOL     OW 9256   1.114   3.644  11.391
 2838SOL    HW1 9257   1.047   3.600  11.443
 2838SOL    HW2 9258   1.145   3.577  11.330
 2839SOL     OW 9259   0.203   2.129  12.680
 2839SOL    HW1 9260   0.114   2.162  12.677
 2839SOL    HW2 9261   0.194   2.040  12.715
 2840SOL     OW 9262   1.628   3.244  11.265
 2840SOL    HW1 9263   1.588   3.330  11.247
 2840SOL    HW2 9264   1.560   3.181  11.243
 2841SOL     OW 9265   0.465   3.605  11.493
 2841SOL    HW1 9266   0.505   3.665  11.556
 2841SOL    HW2 9267   0.539   3.574  11.439
 2842SOL     OW 9268   1.403   1.965  11.613
 2842SOL    HW1 9269   1.390   1.943  11.521
 2842SOL    HW2 9270   1.477   1.911  11.640
 2843SOL     OW 9271   0.260   3.658  12.393
 2843SOL    HW1 9272   0.298   3.587  12.445
 2843SOL    HW2 9273   0.255   3.623  12.304
 2844SOL     OW 9274   0.938   3.566  12.069
 2844SOL    HW1 9275   1.016   3.515  12.093
 2844SOL    HW2 9276   0.897   3.515  12.000
 2845SOL     OW 9277   0.402   2.553  11.642
 2845SOL    HW1 9278   0.424   2.461  11.659
 2845SOL    HW2 9279   0.310   2.560  11.669
 2846SOL     OW 9280   1.529   2.085  12.894
 2846SOL    HW1 9281   1.545   2.106  12.986
 2846SOL    HW2 9282   1.464   2.015  12.897
 2847SOL     OW 9283   0.652   1.976  11.265
 2847SOL    HW1 9284   0.706   1.901  11.289
 2847SOL    HW2 9285   0.598   1.945  11.192
 2848SOL     OW 9286   0.765   2.141  12.927
 2848SOL    HW1 9287   0.846   2.091  12.923
 2848SOL    HW2 9288   0.720   2.107  13.004
 2849SOL     OW 9289   0.876   3.383  12.366
 2849SOL    HW1 9290   0.858   3.345  12.280
 2849SOL    HW2 9291   0.945   3.328  12.403
 2850SOL     OW 9292   1.339   2.452  12.605
 2850SOL    HW1 9293   1.369   2.421  12.690
 2850SOL    HW2 9294   1.375   2.540  12.597
 2851SOL     OW 9295   0.819   3.249  12.118
 2851SOL    HW1 9296   0.905   3.239  12.076
 2851SOL    HW2 9297   0.757   3.255  12.045
 2852SOL     OW 9298   0.930   2.372  12.071
 2852SOL    HW1 9299   0.905   2.362  11.979
 2852SOL    HW2 9300   0.959   2.284  12.097
 2853SOL     OW 9301   0.561   1.924  11.663
 2853SOL    HW1 9302   0.479   1.929  11.713
 2853SOL    HW2 9303   0.563   2.005  11.613
 2854SOL     OW 9304   1.428   3.063  11.210
 2854SOL    HW1 9305   1.457   2.988  11.262
 2854SOL    HW2 9306   1.342   3.085  11.247
 2855SOL     OW 9307   0.309   1.913  11.341
 2855SOL    HW1 9308   0.370   1.952  11.278
 2855SOL    HW2 9309   0.362   1.849  11.389
 2856SOL     OW 9310   0.944   2.111  11.628
 2856SOL    HW1 9311   0.917   2.149  11.544
 2856SOL    HW2 9312   1.038   2.128  11.632
 2857SOL     OW 9313   1.080   2.547  12.628
 2857SOL    HW1 9314   1.015   2.476  12.633
 2857SOL    HW2 9315   1.165   2.501  12.623
 2858SOL     OW 9316   1.219   3.435  11.966
 2858SOL    HW1 9317   1.232   3.501  11.898
 2858SOL    HW2 9318   1.288   3.451  12.030
 2859SOL     OW 9319   0.467   3.014  11.902
 2859SOL    HW1 9320   0.398   2.989  11.963
 2859SOL    HW2 9321   0.430   2.999  11.815
 2860SOL     OW 9322   1.263   3.653  11.782
 2860SOL    HW1 9323   1.313   3.717  11.733
 2860SOL    HW2 9324   1.188   3.702  11.817
 2861SOL     OW 9325   1.024   2.396  11.198
 2861SOL    HW1 9326   0.981   2.479  11.179
 2861SOL    HW2 9327   1.090   2.418  11.265
 2862SOL     OW 9328   0.085   2.437  12.561
 2862SOL    HW1 9329   0.175   2.424  12.531
 2862SOL    HW2 9330   0.092   2.506  12.627
 2863SOL     OW 9331   0.567   2.089  12.341
 2863SOL    HW1 9332   0.608   2.016  12.387
 2863SOL    HW2 9333   0.475   2.085  12.368
 2864SOL     OW 9334   0.867   2.319  11.810
 2864SOL    HW1 9335   0.820   2.374  11.747
 2864SOL    HW2 9336   0.889   2.240  11.762
 2865SOL     OW 9337   1.016   1.918  11.920
 2865SOL    HW1 9338   0.958   1.912  11.844
 2865SOL    HW2 9339   0.993   1.843  11.974
 2866SOL     OW 9340   1.439   3.022  12.028
 2866SOL    HW1 9341   1.368   2.958  12.030
 2866SOL    HW2 9342   1.462   3.030  11.936
 2867SOL     OW 9343   1.463   2.471  12.137
 2867SOL    HW1 9344   1.405   2.395  12.140
 2867SOL    HW2 9345   1.518   2.463  12.215
 2868SOL     OW 9346   1.841   2.672  11.561
 2868SOL    HW1 9347   1.903   2.625  11.617
 2868SOL    HW2 9348   1.818   2.608  11.493
 2869SOL     OW 9349   0.488   3.284  11.329
 2869SOL    HW1 9350   0.411   3.255  11.378
 2869SOL    HW2 9351   0.475   3.248  11.241
 2870SOL     OW 9352   1.678   3.125  11.813
 2870SOL    HW1 9353   1.772   3.125  11.829
 2870SOL    HW2 9354   1.650   3.214  11.836
 2871SOL     OW 9355   1.393   2.436  11.241
 2871SOL    HW1 9356   1.334   2.413  11.313
 2871SOL    HW2 9357   1.479   2.408  11.272
 2872SOL     OW 9358   0.576   2.128  11.484
 2872SOL    HW1 9359   0.611   2.083  11.407
 2872SOL    HW2 9360   0.544   2.212  11.450
 2873SOL     OW 9361   1.748   3.105  12.732
 2873SOL    HW1 9362   1.835   3.067  12.725
 2873SOL    HW2 9363   1.763   3.195  12.762
 2874SOL     OW 9364   1.053   3.213  12.502
 2874SOL    HW1 9365   0.978   3.183  12.553
 2874SOL    HW2 9366   1.129   3.173  12.545
 2875SOL     OW 9367   1.611   3.490  12.831
 2875SOL    HW1 9368   1.601   3.524  12.742
 2875SOL    HW2 9369   1.693   3.440  12.829
 2876SOL     OW 9370   1.136   3.072  12.274
 2876SOL    HW1 9371   1.076   3.110  12.338
 2876SOL    HW2 9372   1.106   3.108  12.190
 2877SOL     OW 9373   1.623   2.958  12.247
 2877SOL    HW1 9374   1.616   3.021  12.319
 2877SOL    HW2 9375   1.547   2.977  12.191
 2878SOL     OW 9376   0.918   1.955  12.563
 2878SOL    HW1 9377   0.941   1.936  12.472
 2878SOL    HW2 9378   0.997   1.994  12.600
 2879SOL     OW 9379   0.984   2.977  12.894
 2879SOL    HW1 9380   0.893   2.994  12.919
 2879SOL    HW2 9381   0.980   2.898  12.841
 2880SOL     OW 9382   0.708   2.923  11.543
 2880SOL    HW1 9383   0.694   2.904  11.636
 2880SOL    HW2 9384   0.784   2.870  11.519
 2881SOL     OW 9385   0.424   2.681  12.426
 2881SOL    HW1 9386   0.492   2.690  12.493
 2881SOL    HW2 9387   0.391   2.592  12.436
 2882SOL     OW 9388   1.263   2.236  12.454
 2882SOL    HW1 9389   1.295   2.315  12.499
 2882SOL    HW2 9390   1.172   2.257  12.432
 2883SOL     OW 9391   0.065   3.441  12.514
 2883SOL    HW1 9392   0.069   3.471  12.423
 2883SOL    HW2 9393   0.156   3.436  12.542
 2884SOL     OW 9394   0.361   2.965  11.651
 2884SOL    HW1 9395   0.360   3.047  11.602
 2884SOL    HW2 9396   0.362   2.896  11.585
 2885SOL     OW 9397   0.546   2.394  12.033
 2885SOL    HW1 9398   0.560   2.451  11.958
 2885SOL    HW2 9399   0.614   2.419  12.095
 2886SOL     OW 9400   1.247   3.212  11.563
 2886SOL    HW1 9401   1.303   3.283  11.595
 2886SOL    HW2 9402   1.160   3.234  11.596
 2887SOL     OW 9403   1.290   3.323  12.321
 2887SOL    HW1 9404   1.345   3.328  12.399
 2887SOL    HW2 9405   1.234   3.246  12.336
 2888SOL     OW 9406   1.573   2.492  11.646
 2888SOL    HW1 9407   1.525   2.531  11.720
 2888SOL    HW2 9408   1.620   2.565  11.607
 2889SOL     OW 9409   0.345   3.392  12.487
 2889SOL    HW1 9410   0.335   3.340  12.407
 2889SOL    HW2 9411   0.439   3.406  12.496
 2890SOL     OW 9412   0.421   2.599  12.775
 2890SOL    HW1 9413   0.485   2.643  12.718
 2890SOL    HW2 9414   0.460   2.513  12.792
 2891SOL     OW 9415   1.608   2.645  12.860
 2891SOL    HW1 9416   1.522   2.687  12.853
 2891SOL    HW2 9417   1.660   2.687  12.791
 2892SOL     OW 9418   0.997   1.996  12.925
 2892SOL    HW1 9419   1.056   2.069  12.904
 2892SOL    HW2 9420   1.046   1.918  12.900
 2893SOL     OW 9421   0.496   1.895  12.920
 2893SOL    HW1 9422   0.451   1.844  12.853
 2893SOL    HW2 9423   0.444   1.974  12.930
 2894SOL     OW 9424   0.587   2.737  12.205
 2894SOL    HW1 9425   0.622   2.826  12.207
 2894SOL    HW2 9426   0.530   2.731  12.282
 2895SOL     OW 9427   1.346   2.720  12.191
 2895SOL    HW1 9428   1.259   2.705  12.154
 2895SOL    HW2 9429   1.392   2.637  12.181
 2896SOL     OW 9430   1.200   2.389  11.434
 2896SOL    HW1 9431   1.208   2.311  11.488
 2896SOL    HW2 9432   1.158   2.454  11.490
 2897SOL     OW 9433   0.309   2.057  12.418
 2897SOL    HW1 9434   0.262   2.092  12.494
 2897SOL    HW2 9435   0.288   1.963  12.418
 2898SOL     OW 9436   0.063   3.167  12.453
 2898SOL    HW1 9437   0.093   3.123  12.533
 2898SOL    HW2 9438   0.054   3.259  12.477
 2899SOL     OW 9439   0.721   2.491  12.224
 2899SOL    HW1 9440   0.798   2.478  12.168
 2899SOL    HW2 9441   0.693   2.581  12.206
 2900SOL     OW 9442   1.741   2.820  13.033
 2900SOL    HW1 9443   1.697   2.754  12.979
 2900SOL    HW2 9444   1.678   2.839  13.103
 2901SOL     OW 9445   0.318   1.922  11.791
 2901SOL    HW1 9446   0.294   2.013  11.811
 2901SOL    HW2 9447   0.325   1.880  11.877
 2902SOL     OW 9448   1.614   2.250  11.534
 2902SOL    HW1 9449   1.606   2.187  11.606
 2902SOL    HW2 9450   1.592   2.334  11.573
 2903SOL     OW 9451   1.030   2.620  12.130
 2903SOL    HW1 9452   1.020   2.637  12.224
 2903SOL    HW2 9453   1.003   2.529  12.119
 2904SOL     OW 9454   0.987   3.431  12.895
 2904SOL    HW1 9455   0.966   3.470  12.811
 2904SOL    HW2 9456   1.028   3.347  12.873
 2905SOL     OW 9457   1.851   3.362  12.775
 2905SOL    HW1 9458   1.873   3.391  12.686
 2905SOL    HW2 9459   1.931   3.377  12.825
 2906SOL     OW 9460   0.356   2.785  12.971
 2906SOL    HW1 9461   0.434   2.806  13.023
 2906SOL    HW2 9462   0.385   2.717  12.910
 2907SOL     OW 9463   1.527   2.131  11.297
 2907SOL    HW1 9464   1.463   2.066  11.327
 2907SOL    HW2 9465   1.560   2.171  11.377
 2908SOL     OW 9466   1.286   2.687  11.200
 2908SOL    HW1 9467   1.329   2.601  11.204
 2908SOL    HW2 9468   1.319   2.725  11.118
 2909SOL     OW 9469   1.070   3.201  12.029
 2909SOL    HW1 9470   1.075   3.130  11.966
 2909SOL    HW2 9471   1.127   3.269  11.993
 2910SOL     OW 9472   0.313   2.662  12.121
 2910SOL    HW1 9473   0.407   2.679  12.116
 2910SOL    HW2 9474   0.307   2.571  12.152
 2911SOL     OW 9475   0.327   2.384  12.187
 2911SOL    HW1 9476   0.292   2.296  12.172
 2911SOL    HW2 9477   0.403   2.390  12.130
 2912SOL     OW 9478   1.135   2.234  12.858
 2912SOL    HW1 9479   1.087   2.289  12.921
 2912SOL    HW2 9480   1.222   2.273  12.854
 2913SOL     OW 9481   1.159   2.059  12.644
 2913SOL    HW1 9482   1.148   2.122  12.716
 2913SOL    HW2 9483   1.203   2.108  12.575
 2914SOL     OW 9484   0.001   3.175  11.354
 2914SOL    HW1 9485   3.906   3.192  11.358
 2914SOL    HW2 9486   0.009   3.082  11.373
 2915SOL     OW 9487   0.076   3.662  12.067
 2915SOL    HW1 9488   0.097   3.569  12.059
 2915SOL    HW2 9489   0.161   3.706  12.069
 2916SOL     OW 9490   0.505   3.421  12.091
 2916SOL    HW1 9491   0.569   3.490  12.108
 2916SOL    HW2 9492   0.548   3.365  12.026
 2917SOL     OW 9493   0.972   2.649  12.395
 2917SOL    HW1 9494   1.032   2.630  12.467
 2917SOL    HW2 9495   0.889   2.609  12.422
 2918SOL     OW 9496   0.038   2.427  12.281
 2918SOL    HW1 9497   0.121   2.404  12.238
 2918SOL    HW2 9498   0.057   2.422  12.374
 2919SOL     OW 9499   0.206   2.372  12.900
 2919SOL    HW1 9500   0.242   2.320  12.828
 2919SOL    HW2 9501   0.165   2.448  12.858
 2920SOL     OW 9502   1.380   2.796  12.828
 2920SOL    HW1 9503   1.402   2.889  12.824
 2920SOL    HW2 9504   1.376   2.768  12.736
 2921SOL     OW 9505   0.820   2.431  11.537
 2921SOL    HW1 9506   0.826   2.356  11.479
 2921SOL    HW2 9507   0.745   2.481  11.505
 2922SOL     OW 9508   1.632   2.465  12.354
 2922SOL    HW1 9509   1.620   2.410  12.431
 2922SOL    HW2 9510   1.718   2.440  12.320
 2923SOL     OW 9511   0.301   3.406  12.893
 2923SOL    HW1 9512   0.254   3.474  12.941
 2923SOL    HW2 9513   0.274   3.325  12.935
 2924SOL     OW 9514   0.715   2.308  12.425
 2924SOL    HW1 9515   0.659   2.235  12.399
 2924SOL    HW2 9516   0.706   2.372  12.354
 2925SOL     OW 9517   0.924   3.531  12.643
 2925SOL    HW1 9518   0.897   3.491  12.561
 2925SOL    HW2 9519   0.917   3.625  12.628
 2926SOL     OW 9520   0.449   2.349  11.370
 2926SOL    HW1 9521   0.515   2.416  11.388
 2926SOL    HW2 9522   0.370   2.398  11.347
 2927SOL     OW 9523   0.153   2.996  12.650
 2927SOL    HW1 9524   0.153   2.946  12.732
 2927SOL    HW2 9525   0.169   2.930  12.582
 2928SOL     OW 9526   1.321   2.904  12.390
 2928SOL    HW1 9527   1.341   2.841  12.321
 2928SOL    HW2 9528   1.255   2.962  12.351
 2929SOL     OW 9529   1.316   2.720  11.475
 2929SOL    HW1 9530   1.243   2.687  11.527
 2929SOL    HW2 9531   1.289   2.705  11.384
 2930SOL     OW 9532   1.776   3.596  12.327
 2930SOL    HW1 9533   1.838   3.624  12.260
 2930SOL    HW2 9534   1.753   3.507  12.301
 2931SOL     OW 9535   1.245   3.593  12.275
 2931SOL    HW1 9536   1.328   3.616  12.234
 2931SOL    HW2 9537   1.254   3.500  12.297
 2932SOL     OW 9538   0.078   3.074  12.200
 2932SOL    HW1 9539   0.085   3.102  12.292
 2932SOL    HW2 9540   3.986   3.089  12.178
 2933SOL     OW 9541   0.681   3.530  12.912
 2933SOL    HW1 9542   0.620   3.604  12.915
 2933SOL    HW2 9543   0.742   3.551  12.841
 2934SOL     OW 9544   1.392   3.430  11.663
 2934SOL    HW1 9545   1.450   3.465  11.595
 2934SOL    HW2 9546   1.342   3.506  11.693
 2935SOL     OW 9547   0.173   3.620  13.008
 2935SOL    HW1 9548   0.119   3.565  13.065
 2935SOL    HW2 9549   0.217   3.680  13.067
 2936SOL     OW 9550   1.278   2.790  11.843
 2936SOL    HW1 9551   1.352   2.730  11.852
 2936SOL    HW2 9552   1.313   2.862  11.789
 2937SOL     OW 9553   0.803   3.138  12.595
 2937SOL    HW1 9554   0.775   3.180  12.677
 2937SOL    HW2 9555   0.731   3.152  12.535
 2938SOL     OW 9556   0.674   3.482  11.332
 2938SOL    HW1 9557   0.684   3.500  11.238
 2938SOL    HW2 9558   0.614   3.407  11.336
 2939SOL     OW 9559   1.619   3.589  12.562
 2939SOL    HW1 9560   1.673   3.593  12.483
 2939SOL    HW2 9561   1.604   3.681  12.585
 2940SOL     OW 9562   0.262   2.173  11.886
 2940SOL    HW1 9563   0.175   2.203  11.862
 2940SOL    HW2 9564   0.259   2.164  11.982
 2941SOL     OW 9565   1.208   3.462  11.210
 2941SOL    HW1 9566   1.198   3.370  11.234
 2941SOL    HW2 9567   1.147   3.475  11.138
 2942SOL     OW 9568   0.823   2.868  12.548
 2942SOL    HW1 9569   0.867   2.862  12.463
 2942SOL    HW2 9570   0.819   2.962  12.566
 2943SOL     OW 9571   0.916   2.772  11.464
 2943SOL    HW1 9572   0.976   2.805  11.397
 2943SOL    HW2 9573   0.967   2.705  11.509
 2944SOL     OW 9574   1.488   3.494  11.217
 2944SOL    HW1 9575   1.395   3.482  11.200
 2944SOL    HW2 9576   1.527   3.499  11.130
 2945SOL     OW 9577   0.374   3.164  12.663
 2945SOL    HW1 9578   0.358   3.245  12.614
 2945SOL    HW2 9579   0.297   3.110  12.647
 2946SOL     OW 9580   1.608   3.147  12.451
 2946SOL    HW1 9581   1.667   3.130  12.525
 2946SOL    HW2 9582   1.547   3.214  12.483
 2947SOL     OW 9583   1.063   2.973  11.884
 2947SOL    HW1 9584   0.989   2.923  11.920
 2947SOL    HW2 9585   1.126   2.906  11.857
 2948SOL     OW 9586   1.025   2.105  12.139
 2948SOL    HW1 9587   1.022   2.059  12.055
 2948SOL    HW2 9588   1.020   2.035  12.205
 2949SOL     OW 9589   0.608   3.353  11.652
 2949SOL    HW1 9590   0.656   3.303  11.586
 2949SOL    HW2 9591   0.533   3.389  11.605
 2950SOL     OW 9592   1.736   2.239  12.546
 2950SOL    HW1 9593   1.803   2.308  12.551
 2950SOL    HW2 9594   1.778   2.168  12.498
 2951SOL     OW 9595   0.255   3.202  11.464
 2951SOL    HW1 9596   0.160   3.206  11.447
 2951SOL    HW2 9597   0.266   3.241  11.550
 2952SOL     OW 9598   0.110   2.858  12.890
 2952SOL    HW1 9599   0.051   2.855  12.965
 2952SOL    HW2 9600   0.197   2.841  12.927
 2953SOL     OW 9601   0.677   2.058  12.672
 2953SOL    HW1 9602   0.761   2.036  12.632
 2953SOL    HW2 9603   0.700   2.091  12.759
 2954SOL     OW 9604   0.080   2.170  11.209
 2954SOL    HW1 9605   3.985   2.171  11.218
 2954SOL    HW2 9606   0.100   2.252  11.163
 2955SOL     OW 9607   1.425   2.719  12.568
 2955SOL    HW1 9608   1.376   2.780  12.513
 2955SOL    HW2 9609   1.514   2.723  12.534
 2956SOL     OW 9610   0.014   2.108  11.551
 2956SOL    HW1 9611   0.046   2.171  11.486
 2956SOL    HW2 9612   0.093   2.063  11.581
 2957SOL     OW 9613   1.177   3.195  11.290
 2957SOL    HW1 9614   1.085   3.168  11.290
 2957SOL    HW2 9615   1.203   3.195  11.382
 2958SOL     OW 9616   0.621   2.693  12.610
 2958SOL    HW1 9617   0.678   2.768  12.595
 2958SOL    HW2 9618   0.681   2.618  12.616
 2959SOL     OW 9619   1.488   3.644  12.154
 2959SOL    HW1 9620   1.509   3.709  12.087
 2959SOL    HW2 9621   1.573   3.620  12.191
 2960SOL     OW 9622   0.716   2.421  12.873
 2960SOL    HW1 9623   0.763   2.480  12.932
 2960SOL    HW2 9624   0.737   2.333  12.906
 2961SOL     OW 9625   1.474   3.056  12.800
 2961SOL    HW1 9626   1.462   3.071  12.894
 2961SOL    HW2 9627   1.566   3.076  12.784
 2962SOL     OW 9628   0.377   3.611  12.732
 2962SOL    HW1 9629   0.289   3.647  12.721
 2962SOL    HW2 9630   0.363   3.527  12.776
 2963SOL     OW 9631   1.665   2.743  12.425
 2963SOL    HW1 9632   1.657   2.657  12.383
 2963SOL    HW2 9633   1.653   2.806  12.354
 2964SOL     OW 9634   1.218   2.181  11.629
 2964SOL    HW1 9635   1.280   2.108  11.624
 2964SOL    HW2 9636   1.247   2.231  11.706
 2965SOL     OW 9637   0.587   2.597  11.847
 2965SOL    HW1 9638   0.626   2.683  11.832
 2965SOL    HW2 9639   0.523   2.587  11.777
 2966SOL     OW 9640   1.748   2.242  12.824
 2966SOL    HW1 9641   1.742   2.244  12.728
 2966SOL    HW2 9642   1.683   2.177  12.850
 2967SOL     OW 9643   1.742   2.799  12.682
 2967SOL    HW1 9644   1.734   2.894  12.693
 2967SOL    HW2 9645   1.728   2.784  12.589
 2968SOL     OW 9646   0.867   3.227  11.218
 2968SOL    HW1 9647   0.825   3.255  11.299
 2968SOL    HW2 9648   0.878   3.308  11.168
 2969SOL     OW 9649   0.657   3.648  12.099
 2969SOL    HW1 9650   0.638   3.740  12.084
 2969SOL    HW2 9651   0.753   3.643  12.100
 2970SOL     OW 9652   0.870   2.833  12.025
 2970SOL    HW1 9653   0.920   2.760  12.062
 2970SOL    HW2 9654   0.831   2.876  12.100
 2971SOL     OW 9655   1.075   2.849  11.261
 2971SOL    HW1 9656   1.055   2.902  11.183
 2971SOL    HW2 9657   1.150   2.795  11.234
 2972SOL     OW 9658   1.846   3.410  12.011
 2972SOL    HW1 9659   1.765   3.401  11.961
 2972SOL    HW2 9660   1.833   3.352  12.087
 2973SOL     OW 9661   0.231   3.167  13.030
 2973SOL    HW1 9662   0.152   3.120  13.003
 2973SOL    HW2 9663   0.221   3.179  13.124
 2974SOL     OW 9664   0.124   3.148  11.898
 2974SOL    HW1 9665   0.143   3.095  11.976
 2974SOL    HW2 9666   0.103   3.084  11.830
 2975SOL     OW 9667   0.686   3.269  12.804
 2975SOL    HW1 9668   0.605   3.227  12.835
 2975SOL    HW2 9669   0.683   3.358  12.842
 2976SOL     OW 9670   0.440   2.294  11.707
 2976SOL    HW1 9671   0.439   2.225  11.641
 2976SOL    HW2 9672   0.384   2.261  11.778
 2977SOL     OW 9673   1.699   3.344  12.258
 2977SOL    HW1 9674   1.618   3.325  12.211
 2977SOL    HW2 9675   1.703   3.277  12.327
 2978SOL     OW 9676   0.338   2.422  12.465
 2978SOL    HW1 9677   0.390   2.363  12.520
 2978SOL    HW2 9678   0.351   2.390  12.376
 2979SOL     OW 9679   0.831   3.441  11.847
 2979SOL    HW1 9680   0.808   3.500  11.776
 2979SOL    HW2 9681   0.758   3.379  11.851
 2980SOL     OW 9682   1.432   2.093  12.293
 2980SOL    HW1 9683   1.436   2.003  12.327
 2980SOL    HW2 9684   1.380   2.141  12.357
 2981SOL     OW 9685   1.010   1.878  12.307
 2981SOL    HW1 9686   0.956   1.812  12.263
 2981SOL    HW2 9687   1.097   1.840  12.308
 2982SOL     OW 9688   0.774   3.194  11.495
 2982SOL    HW1 9689   0.747   3.103  11.502
 2982SOL    HW2 9690   0.856   3.199  11.543
 2983SOL     OW 9691   0.622   3.416  12.460
 2983SOL    HW1 9692   0.621   3.498  12.509
 2983SOL    HW2 9693   0.709   3.410  12.422
 2984SOL     OW 9694   1.356   1.911  11.345
 2984SOL    HW1 9695   1.388   1.845  11.283
 2984SOL    HW2 9696   1.267   1.884  11.365
 2985SOL     OW 9697   1.302   2.326  11.852
 2985SOL    HW1 9698   1.248   2.405  11.853
 2985SOL    HW2 9699   1.292   2.289  11.939
 2986SOL     OW 9700   1.572   2.051  12.052
 2986SOL    HW1 9701   1.533   2.081  12.135
 2986SOL    HW2 9702   1.585   2.131  12.001
 2987SOL     OW 9703   0.047   2.907  11.415
 2987SOL    HW1 9704   0.142   2.893  11.408
 2987SOL    HW2 9705   0.012   2.820  11.434
 2988SOL     OW 9706   0.888   3.526  11.512
 2988SOL    HW1 9707   0.816   3.507  11.453
 2988SOL    HW2 9708   0.857   3.599  11.566
 2989SOL     OW 9709   0.228   2.491  13.151
 2989SOL    HW1 9710   0.135   2.497  13.172
 2989SOL    HW2 9711   0.230   2.457  13.062
 2990SOL     OW 9712   0.288   2.137   0.126
 2990SOL    HW1 9713   0.335   2.210   0.166
 2990SOL    HW2 9714   0.203   2.175   0.101
 2991SOL     OW 9715   3.999   2.216  13.666
 2991SOL    HW1 9716   3.906   2.239  13.665
 2991SOL    HW2 9717   0.018   2.192  13.575
 2992SOL     OW 9718   1.516   3.354  13.733
 2992SOL    HW1 9719   1.467   3.278  13.763
 2992SOL    HW2 9720   1.473   3.381  13.651
 2993SOL     OW 9721   1.134   2.556  13.723
 2993SOL    HW1 9722   1.183   2.638  13.710
 2993SOL    HW2 9723   1.084   2.571  13.803
 2994SOL     OW 9724   1.800   2.458  13.255
 2994SOL    HW1 9725   1.764   2.456  13.167
 2994SOL    HW2 9726   1.751   2.391  13.302
 2995SOL     OW 9727   0.688   2.872  13.670
 2995SOL    HW1 9728   0.739   2.854  13.749
 2995SOL    HW2 9729   0.614   2.925  13.700
 2996SOL     OW 9730   1.600   2.297  13.727
 2996SOL    HW1 9731   1.507   2.310  13.711
 2996SOL    HW2 9732   1.616   2.340  13.811
 2997SOL     OW 9733   0.222   3.569  13.504
 2997SOL    HW1 9734   0.242   3.629  13.576
 2997SOL    HW2 9735   0.297   3.577  13.445
 2998SOL     OW 9736   0.253   3.301  13.572
 2998SOL    HW1 9737   0.227   3.393  13.560
 2998SOL    HW2 9738   0.188   3.266  13.633
 2999SOL     OW 9739   0.258   2.933   0.014
 2999SOL    HW1 9740   0.276   2.900   0.102
 2999SOL    HW2 9741   0.219   3.019   0.028
 3000SOL     OW 9742   0.572   2.850  13.172
 3000SOL    HW1 9743   0.622   2.893  13.103
 3000SOL    HW2 9744   0.612   2.880  13.254
 3001SOL     OW 9745   0.141   2.519  13.613
 3001SOL    HW1 9746   0.062   2.470  13.589
 3001SOL    HW2 9747   0.110   2.585  13.675
 3002SOL     OW 9748   1.848   3.603  13.372
 3002SOL    HW1 9749   1.917   3.582  13.436
 3002SOL    HW2 9750   1.863   3.695  13.350
 3003SOL     OW 9751   0.041   3.450  13.173
 3003SOL    HW1 9752   0.038   3.359  13.202
 3003SOL    HW2 9753   3.957   3.487  13.201
 3004SOL     OW 9754   1.687   2.779  13.666
 3004SOL    HW1 9755   1.769   2.740  13.637
 3004SOL    HW2 9756   1.661   2.837  13.596
 3005SOL     OW 9757   1.650   2.965  13.459
 3005SOL    HW1 9758   1.736   2.964  13.417
 3005SOL    HW2 9759   1.658   3.032  13.527
 3006SOL     OW 9760   0.619   3.245  13.757
 3006SOL    HW1 9761   0.566   3.168  13.776
 3006SOL    HW2 9762   0.586   3.277  13.673
 3007SOL     OW 9763   0.825   1.866  13.546
 3007SOL    HW1 9764   0.862   1.951  13.523
 3007SOL    HW2 9765   0.730   1.882  13.551
 3008SOL     OW 9766   1.530   2.861  13.234
 3008SOL    HW1 9767   1.461   2.803  13.266
 3008SOL    HW2 9768   1.572   2.896  13.312
 3009SOL     OW 9769   1.651   3.601  13.612
 3009SOL    HW1 9770   1.632   3.570  13.524
 3009SOL    HW2 9771   1.643   3.524  13.667
 3010SOL     OW 9772   0.593   2.575  13.300
 3010SOL    HW1 9773   0.599   2.660  13.256
 3010SOL    HW2 9774   0.530   2.588  13.370
 3011SOL     OW 9775   1.245   2.191   0.036
 3011SOL    HW1 9776   1.188   2.126   0.076
 3011SOL    HW2 9777   1.331   2.177   0.077
 3012SOL     OW 9778   1.577   3.544  13.340
 3012SOL    HW1 9779   1.672   3.561  13.335
 3012SOL    HW2 9780   1.552   3.524  13.250
 3013SOL     OW 9781   1.052   2.559  13.456
 3013SOL    HW1 9782   1.070   2.548  13.549
 3013SOL    HW2 9783   0.970   2.513  13.442
 3014SOL     OW 9784   0.081   2.711  13.806
 3014SOL    HW1 9785   0.158   2.694  13.861
 3014SOL    HW2 9786   0.077   2.807  13.799
 3015SOL     OW 9787   0.899   2.211  13.227
 3015SOL    HW1 9788   0.938   2.275  13.168
 3015SOL    HW2 9789   0.914   2.126  13.185
 3016SOL     OW 9790   1.364   2.996  13.547
 3016SOL    HW1 9791   1.454   2.997  13.513
 3016SOL    HW2 9792   1.320   3.067  13.500
 3017SOL     OW 9793   0.995   3.302  13.499
 3017SOL    HW1 9794   0.967   3.380  13.451
 3017SOL    HW2 9795   0.961   3.316  13.587
 3018SOL     OW 9796   0.428   3.679  13.794
 3018SOL    HW1 9797   0.408   3.589  13.818
 3018SOL    HW2 9798   0.485   3.710  13.865
 3019SOL     OW 9799   1.788   2.904  13.898
 3019SOL    HW1 9800   1.734   2.891  13.820
 3019SOL    HW2 9801   1.726   2.902   0.071
 3020SOL     OW 9802   0.311   2.813  13.276
 3020SOL    HW1 9803   0.393   2.835  13.232
 3020SOL    HW2 9804   0.299   2.720  13.259
 3021SOL     OW 9805   1.493   2.595  13.742
 3021SOL    HW1 9806   1.491   2.551  13.827
 3021SOL    HW2 9807   1.567   2.654  13.748
 3022SOL     OW 9808   1.114   3.645  13.251
 3022SOL    HW1 9809   1.049   3.601  13.306
 3022SOL    HW2 9810   1.145   3.577  13.192
 3023SOL     OW 9811   1.628   3.244  13.126
 3023SOL    HW1 9812   1.588   3.329  13.109
 3023SOL    HW2 9813   1.560   3.181  13.105
 3024SOL     OW 9814   0.464   3.603  13.353
 3024SOL    HW1 9815   0.503   3.661  13.418
 3024SOL    HW2 9816   0.538   3.574  13.300
 3025SOL     OW 9817   1.403   1.971  13.470
 3025SOL    HW1 9818   1.389   1.948  13.379
 3025SOL    HW2 9819   1.480   1.922  13.496
 3026SOL     OW 9820   0.925   3.543   0.007
 3026SOL    HW1 9821   0.936   3.474   0.072
 3026SOL    HW2 9822   0.886   3.499  13.831
 3027SOL     OW 9823   0.397   2.557  13.501
 3027SOL    HW1 9824   0.423   2.466  13.514
 3027SOL    HW2 9825   0.306   2.560  13.531
 3028SOL     OW 9826   0.651   1.976  13.128
 3028SOL    HW1 9827   0.706   1.901  13.152
 3028SOL    HW2 9828   0.598   1.945  13.054
 3029SOL     OW 9829   0.559   1.924  13.525
 3029SOL    HW1 9830   0.476   1.927  13.573
 3029SOL    HW2 9831   0.561   2.005  13.475
 3030SOL     OW 9832   1.428   3.063  13.073
 3030SOL    HW1 9833   1.457   2.988  13.124
 3030SOL    HW2 9834   1.342   3.085  13.109
 3031SOL     OW 9835   0.310   1.911  13.201
 3031SOL    HW1 9836   0.372   1.950  13.139
 3031SOL    HW2 9837   0.362   1.848  13.251
 3032SOL     OW 9838   0.943   2.111  13.491
 3032SOL    HW1 9839   0.915   2.150  13.408
 3032SOL    HW2 9840   1.037   2.128  13.494
 3033SOL     OW 9841   0.469   3.006  13.758
 3033SOL    HW1 9842   0.400   2.981  13.819
 3033SOL    HW2 9843   0.430   2.997  13.672
 3034SOL     OW 9844   1.263   3.657  13.629
 3034SOL    HW1 9845   1.310   3.726  13.582
 3034SOL    HW2 9846   1.193   3.703  13.675
 3035SOL     OW 9847   1.024   2.395  13.060
 3035SOL    HW1 9848   0.981   2.479  13.041
 3035SOL    HW2 9849   1.089   2.417  13.127
 3036SOL     OW 9850   0.899   2.329  13.678
 3036SOL    HW1 9851   0.833   2.379  13.631
 3036SOL    HW2 9852   0.908   2.248  13.629
 3037SOL     OW 9853   1.024   1.891  13.770
 3037SOL    HW1 9854   0.965   1.900  13.695
 3037SOL    HW2 9855   0.990   1.814  13.817
 3038SOL     OW 9856   1.845   2.671  13.421
 3038SOL    HW1 9857   1.906   2.623  13.478
 3038SOL    HW2 9858   1.823   2.608  13.352
 3039SOL     OW 9859   0.487   3.284  13.191
 3039SOL    HW1 9860   0.410   3.255  13.240
 3039SOL    HW2 9861   0.475   3.248  13.103
 3040SOL     OW 9862   1.688   3.138  13.656
 3040SOL    HW1 9863   1.780   3.133  13.682
 3040SOL    HW2 9864   1.655   3.217  13.700
 3041SOL     OW 9865   1.393   2.436  13.103
 3041SOL    HW1 9866   1.333   2.414  13.174
 3041SOL    HW2 9867   1.479   2.411  13.135
 3042SOL     OW 9868   0.573   2.129  13.345
 3042SOL    HW1 9869   0.610   2.081  13.271
 3042SOL    HW2 9870   0.544   2.213  13.308
 3043SOL     OW 9871   0.709   2.925  13.399
 3043SOL    HW1 9872   0.695   2.909  13.492
 3043SOL    HW2 9873   0.785   2.872  13.376
 3044SOL     OW 9874   0.362   2.966  13.510
 3044SOL    HW1 9875   0.361   3.049  13.462
 3044SOL    HW2 9876   0.361   2.899  13.441
 3045SOL     OW 9877   0.566   2.409  13.873
 3045SOL    HW1 9878   0.573   2.470  13.799
 3045SOL    HW2 9879   0.639   2.432   0.030
 3046SOL     OW 9880   1.243   3.216  13.417
 3046SOL    HW1 9881   1.298   3.290  13.446
 3046SOL    HW2 9882   1.156   3.236  13.453
 3047SOL     OW 9883   1.577   2.499  13.489
 3047SOL    HW1 9884   1.536   2.523  13.572
 3047SOL    HW2 9885   1.617   2.580  13.458
 3048SOL     OW 9886   1.199   2.388  13.294
 3048SOL    HW1 9887   1.207   2.311  13.349
 3048SOL    HW2 9888   1.157   2.453  13.350
 3049SOL     OW 9889   0.308   1.920  13.639
 3049SOL    HW1 9890   0.293   2.010  13.667
 3049SOL    HW2 9891   0.332   1.874  13.720
 3050SOL     OW 9892   1.614   2.246  13.404
 3050SOL    HW1 9893   1.593   2.192  13.480
 3050SOL    HW2 9894   1.594   2.335  13.433
 3051SOL     OW 9895   1.529   2.131  13.162
 3051SOL    HW1 9896   1.464   2.067  13.191
 3051SOL    HW2 9897   1.562   2.170  13.244
 3052SOL     OW 9898   1.285   2.686  13.060
 3052SOL    HW1 9899   1.328   2.601  13.065
 3052SOL    HW2 9900   1.318   2.725  12.979
 3053SOL     OW 9901   4.000   3.176  13.214
 3053SOL    HW1 9902   3.906   3.192  13.218
 3053SOL    HW2 9903   0.009   3.082  13.231
 3054SOL     OW 9904   0.820   2.434  13.391
 3054SOL    HW1 9905   0.823   2.356  13.335
 3054SOL    HW2 9906   0.743   2.481  13.361
 3055SOL     OW 9907   0.450   2.350  13.227
 3055SOL    HW1 9908   0.514   2.417  13.247
 3055SOL    HW2 9909   0.369   2.398  13.207
 3056SOL     OW 9910   1.318   2.716  13.334
 3056SOL    HW1 9911   1.243   2.687  13.388
 3056SOL    HW2 9912   1.289   2.702  13.244
 3057SOL     OW 9913   1.382   3.438  13.508
 3057SOL    HW1 9914   1.441   3.477  13.444
 3057SOL    HW2 9915   1.335   3.513  13.546
 3058SOL     OW 9916   1.291   2.775  13.685
 3058SOL    HW1 9917   1.367   2.718  13.673
 3058SOL    HW2 9918   1.314   2.856  13.640
 3059SOL     OW 9919   0.673   3.483  13.193
 3059SOL    HW1 9920   0.684   3.500  13.099
 3059SOL    HW2 9921   0.614   3.408  13.197
 3060SOL     OW 9922   0.285   2.172  13.735
 3060SOL    HW1 9923   0.201   2.217  13.725
 3060SOL    HW2 9924   0.297   2.166  13.830
 3061SOL     OW 9925   1.209   3.462  13.071
 3061SOL    HW1 9926   1.198   3.370  13.095
 3061SOL    HW2 9927   1.147   3.476  12.999
 3062SOL     OW 9928   0.919   2.775  13.331
 3062SOL    HW1 9929   0.977   2.805  13.261
 3062SOL    HW2 9930   0.967   2.703  13.372
 3063SOL     OW 9931   1.488   3.494  13.078
 3063SOL    HW1 9932   1.395   3.481  13.062
 3063SOL    HW2 9933   1.527   3.499  12.990
 3064SOL     OW 9934   1.051   2.952  13.756
 3064SOL    HW1 9935   0.966   2.917  13.729
 3064SOL    HW2 9936   1.112   2.919  13.690
 3065SOL     OW 9937   0.601   3.357  13.501
 3065SOL    HW1 9938   0.649   3.305  13.437
 3065SOL    HW2 9939   0.528   3.394  13.453
 3066SOL     OW 9940   0.253   3.201  13.323
 3066SOL    HW1 9941   0.159   3.206  13.306
 3066SOL    HW2 9942   0.264   3.239  13.411
 3067SOL     OW 9943   0.080   2.168  13.070
 3067SOL    HW1 9944   3.985   2.168  13.080
 3067SOL    HW2 9945   0.100   2.250  13.025
 3068SOL     OW 9946   0.017   2.111  13.414
 3068SOL    HW1 9947   0.051   2.171  13.347
 3068SOL    HW2 9948   0.092   2.057  13.438
 3069SOL     OW 9949   1.176   3.195  13.148
 3069SOL    HW1 9950   1.084   3.168  13.149
 3069SOL    HW2 9951   1.202   3.197  13.241
 3070SOL     OW 9952   1.217   2.182  13.488
 3070SOL    HW1 9953   1.279   2.109  13.482
 3070SOL    HW2 9954   1.246   2.232  13.564
 3071SOL     OW 9955   0.593   2.610  13.690
 3071SOL    HW1 9956   0.628   2.698  13.672
 3071SOL    HW2 9957   0.524   2.598  13.625
 3072SOL     OW 9958   0.867   3.227  13.078
 3072SOL    HW1 9959   0.826   3.252  13.161
 3072SOL    HW2 9960   0.878   3.309  13.031
 3073SOL     OW 9961   0.656   3.720   0.070
 3073SOL    HW1 9962   0.655   3.812   0.097
 3073SOL    HW2 9963   0.748   3.694   0.077
 3074SOL     OW 9964   0.819   2.829   0.003
 3074SOL    HW1 9965   0.839   2.742   0.038
 3074SOL    HW2 9966   0.871   2.889   0.057
 3075SOL     OW 9967   1.073   2.847  13.122
 3075SOL    HW1 9968   1.054   2.901  13.045
 3075SOL    HW2 9969   1.149   2.794  13.095
 3076SOL     OW 9970   0.115   3.142  13.768
 3076SOL    HW1 9971   0.045   3.110  13.824
 3076SOL    HW2 9972   0.114   3.084  13.692
 3077SOL     OW 9973   0.451   2.301  13.555
 3077SOL    HW1 9974   0.464   2.227  13.495
 3077SOL    HW2 9975   0.404   2.263  13.629
 3078SOL     OW 9976   1.680   3.309   0.358
 3078SOL    HW1 9977   1.649   3.291   0.269
 3078SOL    HW2 9978   1.773   3.287   0.355
 3079SOL     OW 9979   0.820   3.413  13.698
 3079SOL    HW1 9980   0.782   3.461  13.625
 3079SOL    HW2 9981   0.751   3.352  13.724
 3080SOL     OW 9982   0.773   3.196  13.350
 3080SOL    HW1 9983   0.747   3.104  13.359
 3080SOL    HW2 9984   0.853   3.203  13.402
 3081SOL     OW 9985   1.355   1.911  13.206
 3081SOL    HW1 9986   1.386   1.847  13.142
 3081SOL    HW2 9987   1.266   1.884  13.226
 3082SOL     OW 9988   1.306   2.324  13.707
 3082SOL    HW1 9989   1.255   2.404  13.710
 3082SOL    HW2 9990   1.283   2.277  13.787
 3083SOL     OW 9991   0.048   2.908  13.272
 3083SOL    HW1 9992   0.142   2.893  13.265
 3083SOL    HW2 9993   0.012   2.822  13.293
 3084SOL     OW 9994   0.889   3.525  13.374
 3084SOL    HW1 9995   0.815   3.508  13.316
 3084SOL    HW2 9996   0.860   3.597  13.430
 3085SOL     OW 9997   0.233   3.937   0.957
 3085SOL    HW1 9998   0.258   3.955   1.047
 3085SOL    HW2 9999   0.140   3.957   0.952
 3086SOL     OW10000   0.013   0.104   0.624
 3086SOL    HW110001   3.925   0.081   0.654
 3086SOL    HW210002   0.026   0.052   0.545
 3087SOL     OW10003   1.810   0.353   0.278
 3087SOL    HW110004   1.791   0.298   0.203
 3087SOL    HW210005   1.726   0.363   0.323
 3088SOL     OW10006   0.440   0.093   1.507
 3088SOL    HW110007   0.511   0.054   1.457
 3088SOL    HW210008   0.363   0.039   1.485
 3089SOL     OW10009   1.593   3.851   1.457
 3089SOL    HW110010   1.605   3.937   1.416
 3089SOL    HW210011   1.574   3.871   1.548
 3090SOL     OW10012   0.809   3.728   0.513
 3090SOL    HW110013   0.836   3.819   0.502
 3090SOL    HW210014   0.714   3.731   0.520
 3091SOL     OW10015   1.267   0.062   0.932
 3091SOL    HW110016   1.191   0.010   0.906
 3091SOL    HW210017   1.322   0.002   0.982
 3092SOL     OW10018   0.558   3.905   0.894
 3092SOL    HW110019   0.556   3.926   0.987
 3092SOL    HW210020   0.552   3.989   0.849
 3093SOL     OW10021   0.187   3.974   1.498
 3093SOL    HW110022   0.098   0.008   1.505
 3093SOL    HW210023   0.184   3.889   1.541
 3094SOL     OW10024   1.412   3.834   0.439
 3094SOL    HW110025   1.409   3.793   0.352
 3094SOL    HW210026   1.504   3.832   0.464
 3095SOL     OW10027   1.532   3.936   1.719
 3095SOL    HW110028   1.557   3.938   1.811
 3095SOL    HW210029   1.460   3.873   1.716
 3096SOL     OW10030   0.772   3.950   1.739
 3096SOL    HW110031   0.825   3.923   1.814
 3096SOL    HW210032   0.686   3.969   1.777
 3097SOL     OW10033   0.537   3.780   0.520
 3097SOL    HW110034   0.486   3.778   0.600
 3097SOL    HW210035   0.546   3.873   0.499
 3098SOL     OW10036   0.263   3.736   0.177
 3098SOL    HW110037   0.298   3.825   0.169
 3098SOL    HW210038   0.333   3.687   0.221
 3099SOL     OW10039   0.563   3.945   1.171
 3099SOL    HW110040   0.607   3.880   1.225
 3099SOL    HW210041   0.471   3.940   1.197
 3100SOL     OW10042   1.022   3.765   0.724
 3100SOL    HW110043   0.955   3.754   0.657
 3100SOL    HW210044   0.998   3.703   0.793
 3101SOL     OW10045   0.925   3.800   1.394
 3101SOL    HW110046   0.955   3.778   1.305
 3101SOL    HW210047   0.999   3.846   1.433
 3102SOL     OW10048   1.267   0.070   1.266
 3102SOL    HW110049   1.274   0.141   1.330
 3102SOL    HW210050   1.197   0.098   1.207
 3103SOL     OW10051   0.509   3.751   1.759
 3103SOL    HW110052   0.453   3.707   1.695
 3103SOL    HW210053   0.482   3.843   1.755
 3104SOL     OW10054   0.303   3.924   1.255
 3104SOL    HW110055   0.253   3.940   1.335
 3104SOL    HW210056   0.290   3.831   1.237
 3105SOL     OW10057   1.598   3.932   0.161
 3105SOL    HW110058   1.519   3.878   0.157
 3105SOL    HW210059   1.567   0.019   0.188
 3106SOL     OW10060   1.163   3.917   1.474
 3106SOL    HW110061   1.164   3.994   1.531
 3106SOL    HW210062   1.208   3.946   1.394
 3107SOL     OW10063   0.928   3.827   0.147
 3107SOL    HW110064   0.956   3.818   0.055
 3107SOL    HW210065   0.989   3.771   0.195
 3108SOL     OW10066   1.700   3.855   0.508
 3108SOL    HW110067   1.778   3.845   0.454
 3108SOL    HW210068   1.692   3.771   0.555
 3109SOL     OW10069   1.837   3.874   0.973
 3109SOL    HW110070   1.871   3.792   0.940
 3109SOL    HW210071   1.758   3.891   0.922
 3110SOL     OW10072   0.681   3.907   1.484
 3110SOL    HW110073   0.765   3.894   1.440
 3110SOL    HW210074   0.704   3.929   1.574
 3111SOL     OW10075   0.037   0.005   0.038
 3111SOL    HW110076   3.949   0.013   0.000
 3111SOL    HW210077   0.080   0.088   0.016
 3112SOL     OW10078   0.118   3.936   0.380
 3112SOL    HW110079   0.070   3.975   0.307
 3112SOL    HW210080   0.168   3.864   0.341
 3113SOL     OW10081   1.198   0.012   0.460
 3113SOL    HW110082   1.253   3.935   0.468
 3113SOL    HW210083   1.213   0.061   0.540
 3114SOL     OW10084   1.786   0.036   1.638
 3114SOL    HW110085   1.757   0.074   1.555
 3114SOL    HW210086   1.708   3.995   1.675
 3115SOL     OW10087   1.815   3.912   1.239
 3115SOL    HW110088   1.820   3.822   1.271
 3115SOL    HW210089   1.822   3.905   1.144
 3116SOL     OW10090   1.439   3.931   1.116
 3116SOL    HW110091   1.470   3.851   1.159
 3116SOL    HW210092   1.382   3.973   1.180
 3117SOL     OW10093   1.020   3.738   1.144
 3117SOL    HW110094   0.962   3.685   1.089
 3117SOL    HW210095   1.104   3.693   1.139
 3118SOL     OW10096   1.356   3.783   0.151
 3118SOL    HW110097   1.397   3.710   0.105
 3118SOL    HW210098   1.273   3.748   0.181
 3119SOL     OW10099   1.283   0.163   0.676
 3119SOL    HW110100   1.283   0.258   0.685
 3119SOL    HW210101   1.286   0.130   0.766
 3120SOL     OW10102   1.581   3.925   0.882
 3120SOL    HW110103   1.532   3.931   0.964
 3120SOL    HW210104   1.581   0.014   0.848
 3121SOL     OW10105   0.235   3.940   2.816
 3121SOL    HW110106   0.259   3.956   2.907
 3121SOL    HW210107   0.141   3.957   2.812
 3122SOL     OW10108   0.006   0.108   2.479
 3122SOL    HW110109   3.921   0.085   2.517
 3122SOL    HW210110   0.017   0.047   2.406
 3123SOL     OW10111   1.776   0.315   2.047
 3123SOL    HW110112   1.704   0.291   1.990
 3123SOL    HW210113   1.734   0.339   2.130
 3124SOL     OW10114   0.440   0.093   3.369
 3124SOL    HW110115   0.511   0.054   3.319
 3124SOL    HW210116   0.363   0.039   3.347
 3125SOL     OW10117   1.592   3.851   3.318
 3125SOL    HW110118   1.605   3.937   3.278
 3125SOL    HW210119   1.574   3.871   3.410
 3126SOL     OW10120   0.808   3.731   2.372
 3126SOL    HW110121   0.833   3.823   2.365
 3126SOL    HW210122   0.712   3.733   2.380
 3127SOL     OW10123   1.265   0.063   2.799
 3127SOL    HW110124   1.191   0.010   2.768
 3127SOL    HW210125   1.321   0.001   2.846
 3128SOL     OW10126   0.559   3.906   2.756
 3128SOL    HW110127   0.556   3.925   2.850
 3128SOL    HW210128   0.554   3.991   2.714
 3129SOL     OW10129   0.188   3.974   3.360
 3129SOL    HW110130   0.098   0.008   3.367
 3129SOL    HW210131   0.184   3.888   3.403
 3130SOL     OW10132   1.409   3.827   2.301
 3130SOL    HW110133   1.401   3.796   2.211
 3130SOL    HW210134   1.503   3.825   2.319
 3131SOL     OW10135   1.532   3.936   3.581
 3131SOL    HW110136   1.557   3.938   3.673
 3131SOL    HW210137   1.460   3.873   3.578
 3132SOL     OW10138   0.631   3.849   1.993
 3132SOL    HW110139   0.721   3.819   1.989
 3132SOL    HW210140   0.586   3.800   1.924
 3133SOL     OW10141   0.772   3.950   3.601
 3133SOL    HW110142   0.825   3.923   3.676
 3133SOL    HW210143   0.686   3.969   3.639
 3134SOL     OW10144   0.537   3.784   2.380
 3134SOL    HW110145   0.486   3.784   2.461
 3134SOL    HW210146   0.543   3.876   2.355
 3135SOL     OW10147   0.285   3.762   2.039
 3135SOL    HW110148   0.323   3.850   2.036
 3135SOL    HW210149   0.353   3.709   2.081
 3136SOL     OW10150   0.563   3.945   3.032
 3136SOL    HW110151   0.607   3.881   3.088
 3136SOL    HW210152   0.471   3.940   3.059
 3137SOL     OW10153   1.021   3.764   2.587
 3137SOL    HW110154   0.955   3.752   2.519
 3137SOL    HW210155   0.997   3.702   2.655
 3138SOL     OW10156   0.925   3.800   3.256
 3138SOL    HW110157   0.955   3.778   3.167
 3138SOL    HW210158   0.999   3.846   3.295
 3139SOL     OW10159   1.267   0.070   3.128
 3139SOL    HW110160   1.274   0.141   3.192
 3139SOL    HW210161   1.199   0.098   3.068
 3140SOL     OW10162   0.509   3.751   3.621
 3140SOL    HW110163   0.453   3.707   3.557
 3140SOL    HW210164   0.482   3.843   3.617
 3141SOL     OW10165   0.302   3.924   3.116
 3141SOL    HW110166   0.254   3.940   3.197
 3141SOL    HW210167   0.290   3.830   3.099
 3142SOL     OW10168   1.578   3.950   1.979
 3142SOL    HW110169   1.518   3.894   2.030
 3142SOL    HW210170   1.617   0.008   2.044
 3143SOL     OW10171   1.163   3.917   3.335
 3143SOL    HW110172   1.164   3.994   3.393
 3143SOL    HW210173   1.208   3.946   3.256
 3144SOL     OW10174   0.901   3.810   1.959
 3144SOL    HW110175   0.956   3.760   1.898
 3144SOL    HW210176   0.946   3.802   2.043
 3145SOL     OW10177   1.702   3.854   2.348
 3145SOL    HW110178   1.782   3.842   2.297
 3145SOL    HW210179   1.695   3.774   2.400
 3146SOL     OW10180   1.837   3.874   2.837
 3146SOL    HW110181   1.871   3.792   2.802
 3146SOL    HW210182   1.758   3.891   2.784
 3147SOL     OW10183   0.681   3.907   3.346
 3147SOL    HW110184   0.765   3.894   3.302
 3147SOL    HW210185   0.704   3.929   3.436
 3148SOL     OW10186   0.072   0.014   1.860
 3148SOL    HW110187   3.977   0.018   1.865
 3148SOL    HW210188   0.100   0.105   1.871
 3149SOL     OW10189   0.109   3.926   2.237
 3149SOL    HW110190   0.081   0.008   2.196
 3149SOL    HW210191   0.189   3.902   2.190
 3150SOL     OW10192   1.203   0.014   2.320
 3150SOL    HW110193   1.264   3.941   2.327
 3150SOL    HW210194   1.217   0.065   2.400
 3151SOL     OW10195   1.787   0.035   3.500
 3151SOL    HW110196   1.757   0.074   3.417
 3151SOL    HW210197   1.708   3.995   3.536
 3152SOL     OW10198   1.815   3.912   3.102
 3152SOL    HW110199   1.820   3.822   3.134
 3152SOL    HW210200   1.822   3.905   3.007
 3153SOL     OW10201   1.440   3.930   2.979
 3153SOL    HW110202   1.472   3.852   3.024
 3153SOL    HW210203   1.382   3.972   3.042
 3154SOL     OW10204   1.020   3.738   3.006
 3154SOL    HW110205   0.961   3.684   2.951
 3154SOL    HW210206   1.104   3.693   3.001
 3155SOL     OW10207   1.356   3.770   2.030
 3155SOL    HW110208   1.392   3.701   1.974
 3155SOL    HW210209   1.267   3.740   2.051
 3156SOL     OW10210   1.280   0.162   2.542
 3156SOL    HW110211   1.286   0.258   2.548
 3156SOL    HW210212   1.284   0.133   2.633
 3157SOL     OW10213   1.580   3.924   2.744
 3157SOL    HW110214   1.532   3.931   2.826
 3157SOL    HW210215   1.582   0.013   2.710
 3158SOL     OW10216   0.235   3.940   4.678
 3158SOL    HW110217   0.259   3.956   4.769
 3158SOL    HW210218   0.141   3.957   4.674
 3159SOL     OW10219   0.006   0.108   4.341
 3159SOL    HW110220   3.921   0.085   4.379
 3159SOL    HW210221   0.017   0.047   4.268
 3160SOL     OW10222   1.776   0.315   3.909
 3160SOL    HW110223   1.704   0.291   3.852
 3160SOL    HW210224   1.734   0.339   3.992
 3161SOL     OW10225   0.440   0.093   5.231
 3161SOL    HW110226   0.511   0.055   5.181
 3161SOL    HW210227   0.363   0.039   5.209
 3162SOL     OW10228   1.592   3.851   5.180
 3162SOL    HW110229   1.605   3.937   5.139
 3162SOL    HW210230   1.574   3.871   5.272
 3163SOL     OW10231   0.808   3.731   4.234
 3163SOL    HW110232   0.833   3.823   4.227
 3163SOL    HW210233   0.712   3.733   4.242
 3164SOL     OW10234   1.265   0.063   4.661
 3164SOL    HW110235   1.191   0.010   4.630
 3164SOL    HW210236   1.321   0.001   4.708
 3165SOL     OW10237   0.559   3.906   4.618
 3165SOL    HW110238   0.556   3.925   4.711
 3165SOL    HW210239   0.554   3.991   4.575
 3166SOL     OW10240   0.188   3.974   5.222
 3166SOL    HW110241   0.098   0.008   5.228
 3166SOL    HW210242   0.184   3.889   5.265
 3167SOL     OW10243   1.409   3.827   4.163
 3167SOL    HW110244   1.401   3.796   4.073
 3167SOL    HW210245   1.503   3.825   4.181
 3168SOL     OW10246   1.532   3.936   5.443
 3168SOL    HW110247   1.557   3.938   5.535
 3168SOL    HW210248   1.460   3.873   5.439
 3169SOL     OW10249   0.631   3.849   3.855
 3169SOL    HW110250   0.721   3.819   3.851
 3169SOL    HW210251   0.586   3.800   3.786
 3170SOL     OW10252   0.772   3.951   5.463
 3170SOL    HW110253   0.825   3.923   5.538
 3170SOL    HW210254   0.686   3.969   5.501
 3171SOL     OW10255   0.537   3.784   4.242
 3171SOL    HW110256   0.486   3.784   4.323
 3171SOL    HW210257   0.543   3.876   4.217
 3172SOL     OW10258   0.286   3.762   3.901
 3172SOL    HW110259   0.323   3.850   3.898
 3172SOL    HW210260   0.353   3.709   3.943
 3173SOL     OW10261   0.563   3.945   4.894
 3173SOL    HW110262   0.607   3.881   4.950
 3173SOL    HW210263   0.471   3.940   4.921
 3174SOL     OW10264   1.021   3.764   4.449
 3174SOL    HW110265   0.955   3.752   4.381
 3174SOL    HW210266   0.997   3.702   4.517
 3175SOL     OW10267   0.925   3.800   5.118
 3175SOL    HW110268   0.955   3.778   5.029
 3175SOL    HW210269   0.999   3.846   5.157
 3176SOL     OW10270   1.267   0.070   4.990
 3176SOL    HW110271   1.274   0.141   5.054
 3176SOL    HW210272   1.199   0.098   4.929
 3177SOL     OW10273   0.509   3.751   5.483
 3177SOL    HW110274   0.453   3.707   5.419
 3177SOL    HW210275   0.482   3.843   5.479
 3178SOL     OW10276   0.303   3.924   4.978
 3178SOL    HW110277   0.253   3.940   5.059
 3178SOL    HW210278   0.290   3.830   4.961
 3179SOL     OW10279   1.578   3.950   3.841
 3179SOL    HW110280   1.518   3.894   3.892
 3179SOL    HW210281   1.617   0.008   3.906
 3180SOL     OW10282   1.163   3.918   5.198
 3180SOL    HW110283   1.164   3.994   5.254
 3180SOL    HW210284   1.208   3.946   5.118
 3181SOL     OW10285   0.901   3.810   3.821
 3181SOL    HW110286   0.956   3.760   3.760
 3181SOL    HW210287   0.946   3.802   3.905
 3182SOL     OW10288   1.702   3.854   4.210
 3182SOL    HW110289   1.782   3.842   4.159
 3182SOL    HW210290   1.695   3.774   4.262
 3183SOL     OW10291   1.837   3.874   4.699
 3183SOL    HW110292   1.871   3.792   4.664
 3183SOL    HW210293   1.758   3.891   4.646
 3184SOL     OW10294   0.681   3.907   5.208
 3184SOL    HW110295   0.765   3.894   5.164
 3184SOL    HW210296   0.704   3.929   5.298
 3185SOL     OW10297   0.072   0.014   3.721
 3185SOL    HW110298   3.977   0.018   3.727
 3185SOL    HW210299   0.100   0.105   3.732
 3186SOL     OW10300   0.109   3.926   4.099
 3186SOL    HW110301   0.081   0.008   4.058
 3186SOL    HW210302   0.189   3.903   4.052
 3187SOL     OW10303   1.203   0.014   4.182
 3187SOL    HW110304   1.264   3.941   4.189
 3187SOL    HW210305   1.217   0.065   4.262
 3188SOL     OW10306   1.787   0.035   5.362
 3188SOL    HW110307   1.758   0.074   5.279
 3188SOL    HW210308   1.708   3.995   5.398
 3189SOL     OW10309   1.815   3.912   4.964
 3189SOL    HW110310   1.820   3.822   4.996
 3189SOL    HW210311   1.822   3.905   4.869
 3190SOL     OW10312   1.440   3.930   4.841
 3190SOL    HW110313   1.472   3.852   4.886
 3190SOL    HW210314   1.382   3.972   4.904
 3191SOL     OW10315   1.019   3.738   4.868
 3191SOL    HW110316   0.961   3.684   4.813
 3191SOL    HW210317   1.104   3.693   4.863
 3192SOL     OW10318   1.356   3.770   3.892
 3192SOL    HW110319   1.392   3.701   3.836
 3192SOL    HW210320   1.267   3.740   3.913
 3193SOL     OW10321   1.280   0.162   4.404
 3193SOL    HW110322   1.286   0.258   4.410
 3193SOL    HW210323   1.284   0.133   4.495
 3194SOL     OW10324   1.580   3.924   4.606
 3194SOL    HW110325   1.532   3.931   4.688
 3194SOL    HW210326   1.582   0.013   4.572
 3195SOL     OW10327   0.235   3.940   6.539
 3195SOL    HW110328   0.259   3.956   6.631
 3195SOL    HW210329   0.141   3.958   6.536
 3196SOL     OW10330   0.006   0.108   6.203
 3196SOL    HW110331   3.921   0.085   6.241
 3196SOL    HW210332   0.017   0.047   6.131
 3197SOL     OW10333   1.776   0.316   5.772
 3197SOL    HW110334   1.704   0.291   5.714
 3197SOL    HW210335   1.734   0.339   5.854
 3198SOL     OW10336   0.439   0.093   7.093
 3198SOL    HW110337   0.511   0.055   7.043
 3198SOL    HW210338   0.363   0.039   7.071
 3199SOL     OW10339   1.593   3.851   7.043
 3199SOL    HW110340   1.605   3.937   7.002
 3199SOL    HW210341   1.574   3.871   7.134
 3200SOL     OW10342   0.808   3.731   6.096
 3200SOL    HW110343   0.833   3.823   6.089
 3200SOL    HW210344   0.712   3.733   6.104
 3201SOL     OW10345   1.265   0.062   6.523
 3201SOL    HW110346   1.191   0.010   6.492
 3201SOL    HW210347   1.321   0.000   6.569
 3202SOL     OW10348   0.559   3.906   6.480
 3202SOL    HW110349   0.556   3.925   6.573
 3202SOL    HW210350   0.554   3.991   6.437
 3203SOL     OW10351   0.188   3.974   7.084
 3203SOL    HW110352   0.098   0.007   7.090
 3203SOL    HW210353   0.184   3.888   7.126
 3204SOL     OW10354   1.409   3.827   6.025
 3204SOL    HW110355   1.400   3.797   5.935
 3204SOL    HW210356   1.503   3.826   6.042
 3205SOL     OW10357   1.532   3.935   7.305
 3205SOL    HW110358   1.558   3.937   7.397
 3205SOL    HW210359   1.459   3.873   7.301
 3206SOL     OW10360   0.631   3.849   5.717
 3206SOL    HW110361   0.721   3.819   5.713
 3206SOL    HW210362   0.586   3.800   5.648
 3207SOL     OW10363   0.772   3.951   7.326
 3207SOL    HW110364   0.825   3.923   7.400
 3207SOL    HW210365   0.686   3.969   7.363
 3208SOL     OW10366   0.537   3.784   6.104
 3208SOL    HW110367   0.486   3.784   6.185
 3208SOL    HW210368   0.543   3.876   6.079
 3209SOL     OW10369   0.285   3.762   5.763
 3209SOL    HW110370   0.323   3.850   5.760
 3209SOL    HW210371   0.353   3.709   5.805
 3210SOL     OW10372   0.563   3.945   6.756
 3210SOL    HW110373   0.607   3.880   6.812
 3210SOL    HW210374   0.471   3.940   6.783
 3211SOL     OW10375   1.021   3.764   6.311
 3211SOL    HW110376   0.955   3.752   6.243
 3211SOL    HW210377   0.997   3.702   6.379
 3212SOL     OW10378   0.925   3.800   6.980
 3212SOL    HW110379   0.955   3.779   6.891
 3212SOL    HW210380   0.999   3.847   7.019
 3213SOL     OW10381   1.267   0.070   6.852
 3213SOL    HW110382   1.274   0.141   6.915
 3213SOL    HW210383   1.199   0.098   6.791
 3214SOL     OW10384   0.509   3.751   7.345
 3214SOL    HW110385   0.453   3.707   7.281
 3214SOL    HW210386   0.482   3.843   7.340
 3215SOL     OW10387   0.303   3.924   6.840
 3215SOL    HW110388   0.254   3.940   6.921
 3215SOL    HW210389   0.290   3.830   6.823
 3216SOL     OW10390   1.578   3.949   5.703
 3216SOL    HW110391   1.518   3.894   5.754
 3216SOL    HW210392   1.617   0.008   5.768
 3217SOL     OW10393   1.163   3.918   7.060
 3217SOL    HW110394   1.163   3.995   7.116
 3217SOL    HW210395   1.208   3.947   6.980
 3218SOL     OW10396   0.901   3.809   5.683
 3218SOL    HW110397   0.956   3.760   5.622
 3218SOL    HW210398   0.946   3.802   5.767
 3219SOL     OW10399   1.701   3.854   6.072
 3219SOL    HW110400   1.781   3.843   6.021
 3219SOL    HW210401   1.695   3.774   6.124
 3220SOL     OW10402   1.836   3.874   6.561
 3220SOL    HW110403   1.871   3.792   6.526
 3220SOL    HW210404   1.758   3.891   6.508
 3221SOL     OW10405   0.681   3.907   7.070
 3221SOL    HW110406   0.765   3.894   7.026
 3221SOL    HW210407   0.704   3.930   7.160
 3222SOL     OW10408   0.072   0.014   5.584
 3222SOL    HW110409   3.976   0.018   5.590
 3222SOL    HW210410   0.100   0.105   5.595
 3223SOL     OW10411   0.109   3.926   5.961
 3223SOL    HW110412   0.081   0.008   5.920
 3223SOL    HW210413   0.189   3.902   5.914
 3224SOL     OW10414   1.202   0.014   6.045
 3224SOL    HW110415   1.264   3.941   6.051
 3224SOL    HW210416   1.217   0.065   6.125
 3225SOL     OW10417   1.787   0.034   7.225
 3225SOL    HW110418   1.758   0.074   7.143
 3225SOL    HW210419   1.707   3.994   7.260
 3226SOL     OW10420   1.816   3.912   6.826
 3226SOL    HW110421   1.819   3.822   6.857
 3226SOL    HW210422   1.822   3.905   6.731
 3227SOL     OW10423   1.440   3.929   6.703
 3227SOL    HW110424   1.471   3.851   6.749
 3227SOL    HW210425   1.382   3.973   6.766
 3228SOL     OW10426   1.020   3.738   6.730
 3228SOL    HW110427   0.961   3.684   6.676
 3228SOL    HW210428   1.104   3.693   6.725
 3229SOL     OW10429   1.356   3.770   5.754
 3229SOL    HW110430   1.392   3.701   5.698
 3229SOL    HW210431   1.267   3.740   5.775
 3230SOL     OW10432   1.280   0.162   6.266
 3230SOL    HW110433   1.286   0.258   6.272
 3230SOL    HW210434   1.284   0.133   6.357
 3231SOL     OW10435   1.580   3.924   6.468
 3231SOL    HW110436   1.532   3.931   6.551
 3231SOL    HW210437   1.582   0.013   6.434
 3232SOL     OW10438   0.235   3.941   8.401
 3232SOL    HW110439   0.259   3.956   8.493
 3232SOL    HW210440   0.141   3.958   8.398
 3233SOL     OW10441   0.006   0.108   8.065
 3233SOL    HW110442   3.921   0.085   8.103
 3233SOL    HW210443   0.018   0.047   7.993
 3234SOL     OW10444   1.776   0.315   7.634
 3234SOL    HW110445   1.704   0.291   7.576
 3234SOL    HW210446   1.734   0.338   7.716
 3235SOL     OW10447   0.439   0.093   8.955
 3235SOL    HW110448   0.511   0.055   8.905
 3235SOL    HW210449   0.363   0.039   8.933
 3236SOL     OW10450   1.593   3.851   8.904
 3236SOL    HW110451   1.605   3.937   8.864
 3236SOL    HW210452   1.574   3.871   8.996
 3237SOL     OW10453   0.808   3.731   7.959
 3237SOL    HW110454   0.833   3.823   7.951
 3237SOL    HW210455   0.713   3.733   7.966
 3238SOL     OW10456   1.265   0.063   8.385
 3238SOL    HW110457   1.191   0.010   8.354
 3238SOL    HW210458   1.321   0.000   8.431
 3239SOL     OW10459   0.558   3.905   8.342
 3239SOL    HW110460   0.556   3.925   8.435
 3239SOL    HW210461   0.554   3.991   8.299
 3240SOL     OW10462   0.188   3.974   8.946
 3240SOL    HW110463   0.098   0.008   8.952
 3240SOL    HW210464   0.184   3.888   8.988
 3241SOL     OW10465   1.409   3.827   7.887
 3241SOL    HW110466   1.400   3.797   7.796
 3241SOL    HW210467   1.503   3.826   7.904
 3242SOL     OW10468   1.532   3.936   9.167
 3242SOL    HW110469   1.557   3.938   9.259
 3242SOL    HW210470   1.460   3.873   9.163
 3243SOL     OW10471   0.630   3.849   7.579
 3243SOL    HW110472   0.721   3.819   7.576
 3243SOL    HW210473   0.586   3.800   7.510
 3244SOL     OW10474   0.772   3.951   9.187
 3244SOL    HW110475   0.825   3.923   9.262
 3244SOL    HW210476   0.686   3.969   9.225
 3245SOL     OW10477   0.537   3.784   7.965
 3245SOL    HW110478   0.486   3.784   8.047
 3245SOL    HW210479   0.543   3.876   7.941
 3246SOL     OW10480   0.285   3.762   7.626
 3246SOL    HW110481   0.323   3.850   7.622
 3246SOL    HW210482   0.352   3.709   7.667
 3247SOL     OW10483   0.563   3.945   8.618
 3247SOL    HW110484   0.607   3.880   8.673
 3247SOL    HW210485   0.471   3.940   8.645
 3248SOL     OW10486   1.021   3.764   8.173
 3248SOL    HW110487   0.955   3.752   8.105
 3248SOL    HW210488   0.997   3.702   8.241
 3249SOL     OW10489   0.925   3.800   8.842
 3249SOL    HW110490   0.955   3.778   8.753
 3249SOL    HW210491   0.999   3.846   8.881
 3250SOL     OW10492   1.267   0.070   8.714
 3250SOL    HW110493   1.273   0.141   8.778
 3250SOL    HW210494   1.199   0.098   8.653
 3251SOL     OW10495   0.509   3.751   9.207
 3251SOL    HW110496   0.453   3.707   9.143
 3251SOL    HW210497   0.482   3.843   9.203
 3252SOL     OW10498   0.302   3.924   8.702
 3252SOL    HW110499   0.254   3.940   8.783
 3252SOL    HW210500   0.290   3.830   8.685
 3253SOL     OW10501   1.578   3.948   7.566
 3253SOL    HW110502   1.515   3.895   7.615
 3253SOL    HW210503   1.611   0.011   7.629
 3254SOL     OW10504   1.163   3.918   8.922
 3254SOL    HW110505   1.164   3.995   8.978
 3254SOL    HW210506   1.208   3.946   8.842
 3255SOL     OW10507   0.901   3.809   7.545
 3255SOL    HW110508   0.955   3.759   7.484
 3255SOL    HW210509   0.946   3.801   7.629
 3256SOL     OW10510   1.702   3.854   7.935
 3256SOL    HW110511   1.782   3.843   7.883
 3256SOL    HW210512   1.695   3.773   7.986
 3257SOL     OW10513   1.837   3.874   8.423
 3257SOL    HW110514   1.871   3.792   8.388
 3257SOL    HW210515   1.758   3.891   8.371
 3258SOL     OW10516   0.681   3.907   8.932
 3258SOL    HW110517   0.765   3.894   8.888
 3258SOL    HW210518   0.704   3.930   9.022
 3259SOL     OW10519   0.071   0.014   7.447
 3259SOL    HW110520   3.976   0.018   7.452
 3259SOL    HW210521   0.100   0.104   7.457
 3260SOL     OW10522   0.109   3.927   7.824
 3260SOL    HW110523   0.081   0.008   7.782
 3260SOL    HW210524   0.188   3.901   7.777
 3261SOL     OW10525   1.202   0.014   7.907
 3261SOL    HW110526   1.264   3.941   7.913
 3261SOL    HW210527   1.217   0.065   7.987
 3262SOL     OW10528   1.787   0.036   9.086
 3262SOL    HW110529   1.757   0.074   9.003
 3262SOL    HW210530   1.708   3.995   9.123
 3263SOL     OW10531   1.816   3.913   8.688
 3263SOL    HW110532   1.819   3.822   8.720
 3263SOL    HW210533   1.822   3.905   8.593
 3264SOL     OW10534   1.440   3.930   8.565
 3264SOL    HW110535   1.471   3.851   8.610
 3264SOL    HW210536   1.382   3.973   8.628
 3265SOL     OW10537   1.020   3.738   8.592
 3265SOL    HW110538   0.961   3.684   8.537
 3265SOL    HW210539   1.104   3.693   8.587
 3266SOL     OW10540   1.355   3.770   7.616
 3266SOL    HW110541   1.391   3.701   7.559
 3266SOL    HW210542   1.267   3.740   7.637
 3267SOL     OW10543   1.280   0.162   8.128
 3267SOL    HW110544   1.286   0.258   8.134
 3267SOL    HW210545   1.284   0.133   8.220
 3268SOL     OW10546   1.580   3.924   8.330
 3268SOL    HW110547   1.532   3.931   8.412
 3268SOL    HW210548   1.582   0.013   8.296
 3269SOL     OW10549   0.235   3.940  10.263
 3269SOL    HW110550   0.259   3.956  10.355
 3269SOL    HW210551   0.141   3.957  10.260
 3270SOL     OW10552   0.006   0.108   9.927
 3270SOL    HW110553   3.921   0.085   9.965
 3270SOL    HW210554   0.017   0.047   9.855
 3271SOL     OW10555   1.776   0.315   9.495
 3271SOL    HW110556   1.704   0.291   9.438
 3271SOL    HW210557   1.734   0.339   9.578
 3272SOL     OW10558   0.439   0.093  10.817
 3272SOL    HW110559   0.511   0.055  10.767
 3272SOL    HW210560   0.363   0.039  10.795
 3273SOL     OW10561   1.592   3.851  10.766
 3273SOL    HW110562   1.605   3.937  10.726
 3273SOL    HW210563   1.574   3.871  10.858
 3274SOL     OW10564   0.808   3.731   9.820
 3274SOL    HW110565   0.833   3.823   9.813
 3274SOL    HW210566   0.712   3.733   9.828
 3275SOL     OW10567   1.265   0.063  10.247
 3275SOL    HW110568   1.191   0.010  10.216
 3275SOL    HW210569   1.321   0.001  10.294
 3276SOL     OW10570   0.559   3.906  10.204
 3276SOL    HW110571   0.556   3.925  10.298
 3276SOL    HW210572   0.554   3.991  10.162
 3277SOL     OW10573   0.188   3.974  10.808
 3277SOL    HW110574   0.098   0.008  10.814
 3277SOL    HW210575   0.184   3.888  10.850
 3278SOL     OW10576   1.409   3.827   9.749
 3278SOL    HW110577   1.401   3.796   9.659
 3278SOL    HW210578   1.503   3.825   9.766
 3279SOL     OW10579   1.532   3.936  11.029
 3279SOL    HW110580   1.557   3.938  11.121
 3279SOL    HW210581   1.460   3.873  11.025
 3280SOL     OW10582   0.630   3.849   9.441
 3280SOL    HW110583   0.721   3.819   9.438
 3280SOL    HW210584   0.586   3.800   9.372
 3281SOL     OW10585   0.772   3.950  11.049
 3281SOL    HW110586   0.825   3.923  11.124
 3281SOL    HW210587   0.686   3.969  11.087
 3282SOL     OW10588   0.537   3.784   9.828
 3282SOL    HW110589   0.486   3.784   9.909
 3282SOL    HW210590   0.543   3.876   9.803
 3283SOL     OW10591   0.285   3.762   9.487
 3283SOL    HW110592   0.323   3.850   9.484
 3283SOL    HW210593   0.353   3.709   9.529
 3284SOL     OW10594   0.563   3.945  10.480
 3284SOL    HW110595   0.607   3.881  10.536
 3284SOL    HW210596   0.471   3.940  10.507
 3285SOL     OW10597   1.021   3.764  10.035
 3285SOL    HW110598   0.955   3.752   9.967
 3285SOL    HW210599   0.997   3.702  10.103
 3286SOL     OW10600   0.925   3.800  10.704
 3286SOL    HW110601   0.955   3.779  10.615
 3286SOL    HW210602   0.999   3.846  10.743
 3287SOL     OW10603   1.267   0.070  10.576
 3287SOL    HW110604   1.274   0.141  10.640
 3287SOL    HW210605   1.199   0.098  10.515
 3288SOL     OW10606   0.509   3.751  11.069
 3288SOL    HW110607   0.453   3.707  11.005
 3288SOL    HW210608   0.483   3.843  11.065
 3289SOL     OW10609   0.303   3.924  10.564
 3289SOL    HW110610   0.254   3.940  10.645
 3289SOL    HW210611   0.290   3.830  10.547
 3290SOL     OW10612   1.578   3.949   9.427
 3290SOL    HW110613   1.517   3.894   9.477
 3290SOL    HW210614   1.616   0.009   9.492
 3291SOL     OW10615   1.163   3.918  10.784
 3291SOL    HW110616   1.164   3.995  10.841
 3291SOL    HW210617   1.208   3.946  10.704
 3292SOL     OW10618   0.901   3.809   9.407
 3292SOL    HW110619   0.956   3.760   9.346
 3292SOL    HW210620   0.946   3.802   9.491
 3293SOL     OW10621   1.702   3.854   9.797
 3293SOL    HW110622   1.782   3.842   9.745
 3293SOL    HW210623   1.695   3.774   9.848
 3294SOL     OW10624   1.837   3.874  10.285
 3294SOL    HW110625   1.871   3.792  10.250
 3294SOL    HW210626   1.758   3.891  10.232
 3295SOL     OW10627   0.681   3.907  10.794
 3295SOL    HW110628   0.765   3.894  10.750
 3295SOL    HW210629   0.704   3.929  10.884
 3296SOL     OW10630   0.072   0.014   9.308
 3296SOL    HW110631   3.976   0.018   9.314
 3296SOL    HW210632   0.100   0.105   9.319
 3297SOL     OW10633   0.109   3.926   9.685
 3297SOL    HW110634   0.081   0.008   9.644
 3297SOL    HW210635   0.189   3.902   9.638
 3298SOL     OW10636   1.203   0.014   9.768
 3298SOL    HW110637   1.264   3.941   9.775
 3298SOL    HW210638   1.217   0.065   9.848
 3299SOL     OW10639   1.787   0.036  10.948
 3299SOL    HW110640   1.757   0.074  10.865
 3299SOL    HW210641   1.708   3.995  10.984
 3300SOL     OW10642   1.815   3.912  10.550
 3300SOL    HW110643   1.819   3.822  10.582
 3300SOL    HW210644   1.822   3.905  10.455
 3301SOL     OW10645   1.440   3.930  10.427
 3301SOL    HW110646   1.471   3.851  10.472
 3301SOL    HW210647   1.382   3.972  10.490
 3302SOL     OW10648   1.020   3.738  10.454
 3302SOL    HW110649   0.961   3.684  10.399
 3302SOL    HW210650   1.104   3.693  10.449
 3303SOL     OW10651   1.356   3.770   9.478
 3303SOL    HW110652   1.392   3.701   9.422
 3303SOL    HW210653   1.267   3.740   9.499
 3304SOL     OW10654   1.280   0.162   9.990
 3304SOL    HW110655   1.286   0.258   9.996
 3304SOL    HW210656   1.284   0.133  10.081
 3305SOL     OW10657   1.580   3.924  10.192
 3305SOL    HW110658   1.532   3.931  10.274
 3305SOL    HW210659   1.582   0.014  10.158
 3306SOL     OW10660   0.235   3.940  12.125
 3306SOL    HW110661   0.259   3.956  12.217
 3306SOL    HW210662   0.141   3.958  12.122
 3307SOL     OW10663   0.006   0.108  11.789
 3307SOL    HW110664   3.921   0.085  11.827
 3307SOL    HW210665   0.017   0.047  11.717
 3308SOL     OW10666   1.776   0.315  11.357
 3308SOL    HW110667   1.704   0.291  11.300
 3308SOL    HW210668   1.734   0.339  11.440
 3309SOL     OW10669   0.439   0.093  12.680
 3309SOL    HW110670   0.511   0.056  12.629
 3309SOL    HW210671   0.364   0.039  12.657
 3310SOL     OW10672   1.592   3.851  12.629
 3310SOL    HW110673   1.604   3.937  12.588
 3310SOL    HW210674   1.574   3.871  12.721
 3311SOL     OW10675   0.808   3.731  11.682
 3311SOL    HW110676   0.833   3.823  11.675
 3311SOL    HW210677   0.712   3.733  11.690
 3312SOL     OW10678   1.265   0.063  12.109
 3312SOL    HW110679   1.191   0.010  12.078
 3312SOL    HW210680   1.321   0.001  12.155
 3313SOL     OW10681   0.558   3.906  12.066
 3313SOL    HW110682   0.556   3.925  12.160
 3313SOL    HW210683   0.554   3.991  12.023
 3314SOL     OW10684   0.187   3.974  12.669
 3314SOL    HW110685   0.098   0.007  12.676
 3314SOL    HW210686   0.184   3.888  12.712
 3315SOL     OW10687   1.409   3.827  11.611
 3315SOL    HW110688   1.401   3.796  11.521
 3315SOL    HW210689   1.503   3.825  11.628
 3316SOL     OW10690   1.532   3.937  12.894
 3316SOL    HW110691   1.556   3.941  12.986
 3316SOL    HW210692   1.461   3.873  12.891
 3317SOL     OW10693   0.630   3.849  11.303
 3317SOL    HW110694   0.721   3.819  11.300
 3317SOL    HW210695   0.586   3.800  11.234
 3318SOL     OW10696   0.771   3.951  12.912
 3318SOL    HW110697   0.826   3.922  12.986
 3318SOL    HW210698   0.685   3.967  12.950
 3319SOL     OW10699   0.537   3.784  11.689
 3319SOL    HW110700   0.486   3.784  11.771
 3319SOL    HW210701   0.543   3.876  11.665
 3320SOL     OW10702   0.285   3.762  11.349
 3320SOL    HW110703   0.323   3.850  11.346
 3320SOL    HW210704   0.353   3.709  11.391
 3321SOL     OW10705   0.563   3.945  12.342
 3321SOL    HW110706   0.607   3.880  12.398
 3321SOL    HW210707   0.471   3.940  12.369
 3322SOL     OW10708   1.021   3.764  11.897
 3322SOL    HW110709   0.955   3.752  11.829
 3322SOL    HW210710   0.997   3.702  11.965
 3323SOL     OW10711   0.925   3.800  12.566
 3323SOL    HW110712   0.954   3.779  12.477
 3323SOL    HW210713   0.999   3.846  12.605
 3324SOL     OW10714   1.268   0.070  12.438
 3324SOL    HW110715   1.274   0.141  12.502
 3324SOL    HW210716   1.199   0.098  12.377
 3325SOL     OW10717   0.508   3.751  12.930
 3325SOL    HW110718   0.453   3.707  12.866
 3325SOL    HW210719   0.482   3.843  12.926
 3326SOL     OW10720   0.302   3.924  12.426
 3326SOL    HW110721   0.253   3.940  12.506
 3326SOL    HW210722   0.290   3.830  12.409
 3327SOL     OW10723   1.578   3.949  11.289
 3327SOL    HW110724   1.518   3.895  11.340
 3327SOL    HW210725   1.616   0.009  11.354
 3328SOL     OW10726   1.163   3.918  12.645
 3328SOL    HW110727   1.164   3.994  12.702
 3328SOL    HW210728   1.208   3.946  12.566
 3329SOL     OW10729   0.901   3.809  11.269
 3329SOL    HW110730   0.956   3.760  11.208
 3329SOL    HW210731   0.946   3.802  11.353
 3330SOL     OW10732   1.702   3.854  11.659
 3330SOL    HW110733   1.782   3.842  11.607
 3330SOL    HW210734   1.695   3.774  11.710
 3331SOL     OW10735   1.837   3.874  12.147
 3331SOL    HW110736   1.871   3.792  12.112
 3331SOL    HW210737   1.758   3.891  12.094
 3332SOL     OW10738   0.681   3.907  12.656
 3332SOL    HW110739   0.765   3.894  12.612
 3332SOL    HW210740   0.705   3.930  12.746
 3333SOL     OW10741   0.072   0.014  11.170
 3333SOL    HW110742   3.976   0.018  11.176
 3333SOL    HW210743   0.100   0.105  11.181
 3334SOL     OW10744   0.109   3.926  11.547
 3334SOL    HW110745   0.081   0.008  11.506
 3334SOL    HW210746   0.189   3.902  11.500
 3335SOL     OW10747   1.202   0.014  11.631
 3335SOL    HW110748   1.264   3.941  11.637
 3335SOL    HW210749   1.217   0.065  11.711
 3336SOL     OW10750   1.786   0.036  12.808
 3336SOL    HW110751   1.755   0.074  12.726
 3336SOL    HW210752   1.708   3.995  12.846
 3337SOL     OW10753   1.815   3.912  12.412
 3337SOL    HW110754   1.820   3.822  12.444
 3337SOL    HW210755   1.822   3.905  12.317
 3338SOL     OW10756   1.440   3.930  12.289
 3338SOL    HW110757   1.471   3.851  12.334
 3338SOL    HW210758   1.382   3.972  12.352
 3339SOL     OW10759   1.019   3.737  12.316
 3339SOL    HW110760   0.961   3.684  12.261
 3339SOL    HW210761   1.104   3.693  12.311
 3340SOL     OW10762   1.356   3.770  11.340
 3340SOL    HW110763   1.392   3.701  11.284
 3340SOL    HW210764   1.267   3.740  11.361
 3341SOL     OW10765   1.280   0.162  11.852
 3341SOL    HW110766   1.286   0.258  11.857
 3341SOL    HW210767   1.284   0.133  11.943
 3342SOL     OW10768   1.580   3.924  12.054
 3342SOL    HW110769   1.532   3.931  12.136
 3342SOL    HW210770   1.582   0.014  12.020
 3343SOL     OW10771   0.010   0.103  13.636
 3343SOL    HW110772   3.916   0.088  13.645
 3343SOL    HW210773   0.036   0.048  13.562
 3344SOL     OW10774   1.776   0.318  13.219
 3344SOL    HW110775   1.703   0.295  13.162
 3344SOL    HW210776   1.736   0.331  13.305
 3345SOL     OW10777   1.614   0.171  13.767
 3345SOL    HW110778   1.526   0.141  13.744
 3345SOL    HW210779   1.603   0.265  13.782
 3346SOL     OW10780   0.811   3.733  13.541
 3346SOL    HW110781   0.833   3.826  13.535
 3346SOL    HW210782   0.716   3.731  13.551
 3347SOL     OW10783   1.407   3.832  13.467
 3347SOL    HW110784   1.401   3.799  13.377
 3347SOL    HW210785   1.499   3.826  13.489
 3348SOL     OW10786   0.628   3.851  13.163
 3348SOL    HW110787   0.718   3.820  13.164
 3348SOL    HW210788   0.585   3.799  13.095
 3349SOL     OW10789   0.538   3.774  13.552
 3349SOL    HW110790   0.492   3.758  13.634
 3349SOL    HW210791   0.536   3.869  13.541
 3350SOL     OW10792   0.284   3.763  13.214
 3350SOL    HW110793   0.327   3.848  13.207
 3350SOL    HW210794   0.349   3.707  13.256
 3351SOL     OW10795   1.011   3.757  13.766
 3351SOL    HW110796   0.953   3.752  13.690
 3351SOL    HW210797   0.990   3.680  13.818
 3352SOL     OW10798   1.579   3.956  13.155
 3352SOL    HW110799   1.529   3.893  13.207
 3352SOL    HW210800   1.638   3.997  13.218
 3353SOL     OW10801   0.900   3.810  13.132
 3353SOL    HW110802   0.955   3.760  13.071
 3353SOL    HW210803   0.944   3.801  13.217
 3354SOL     OW10804   1.734   3.859  13.558
 3354SOL    HW110805   1.799   3.843  13.490
 3354SOL    HW210806   1.713   3.771  13.592
 3355SOL     OW10807   1.847   3.903   0.051
 3355SOL    HW110808   1.875   3.812   0.053
 3355SOL    HW210809   1.759   3.902   0.087
 3356SOL     OW10810   0.073   0.010  13.032
 3356SOL    HW110811   3.977   0.015  13.037
 3356SOL    HW210812   0.103   0.099  13.046
 3357SOL     OW10813   0.112   3.937  13.418
 3357SOL    HW110814   0.089   0.009  13.360
 3357SOL    HW210815   0.187   3.895  13.375
 3358SOL     OW10816   1.193   0.001  13.522
 3358SOL    HW110817   1.264   3.941  13.501
 3358SOL    HW210818   1.227   0.056  13.593
 3359SOL     OW10819   1.357   3.769  13.199
 3359SOL    HW110820   1.391   3.699  13.143
 3359SOL    HW210821   1.268   3.740  13.221
 3360SOL     OW10822   1.317   0.152  13.737
 3360SOL    HW110823   1.289   0.242  13.723
 3360SOL    HW210824   1.292   0.133  13.828
 3361SOL     OW10825   2.095   0.650   0.118
 3361SOL    HW110826   2.007   0.620   0.141
 3361SOL    HW210827   2.113   0.606   0.034
 3362SOL     OW10828   2.077   0.304   0.994
 3362SOL    HW110829   2.114   0.259   1.070
 3362SOL    HW210830   1.992   0.262   0.980
 3363SOL     OW10831   1.871   0.403   0.631
 3363SOL    HW110832   1.785   0.416   0.670
 3363SOL    HW210833   1.858   0.333   0.567
 3364SOL     OW10834   2.431   1.295   1.180
 3364SOL    HW110835   2.346   1.302   1.137
 3364SOL    HW210836   2.450   1.385   1.209
 3365SOL     OW10837   3.433   1.516   0.708
 3365SOL    HW110838   3.387   1.490   0.789
 3365SOL    HW210839   3.364   1.518   0.642
 3366SOL     OW10840   2.996   0.698   0.694
 3366SOL    HW110841   3.043   0.781   0.683
 3366SOL    HW210842   2.948   0.709   0.776
 3367SOL     OW10843   3.628   0.631   0.218
 3367SOL    HW110844   3.626   0.624   0.123
 3367SOL    HW210845   3.640   0.541   0.249
 3368SOL     OW10846   2.608   1.136   1.047
 3368SOL    HW110847   2.542   1.174   1.105
 3368SOL    HW210848   2.648   1.211   1.003
 3369SOL     OW10849   2.737   0.763   1.825
 3369SOL    HW110850   2.723   0.833   1.889
 3369SOL    HW210851   2.758   0.809   1.744
 3370SOL     OW10852   2.547   0.994   0.647
 3370SOL    HW110853   2.613   0.988   0.715
 3370SOL    HW210854   2.479   1.051   0.683
 3371SOL     OW10855   2.579   1.148   1.820
 3371SOL    HW110856   2.626   1.225   1.852
 3371SOL    HW210857   2.497   1.184   1.784
 3372SOL     OW10858   2.191   1.415   1.066
 3372SOL    HW110859   2.117   1.377   1.019
 3372SOL    HW210860   2.237   1.469   1.001
 3373SOL     OW10861   3.320   1.503   1.362
 3373SOL    HW110862   3.374   1.581   1.371
 3373SOL    HW210863   3.251   1.513   1.428
 3374SOL     OW10864   2.310   0.389   1.488
 3374SOL    HW110865   2.402   0.364   1.491
 3374SOL    HW210866   2.263   0.306   1.498
 3375SOL     OW10867   3.472   0.450   0.734
 3375SOL    HW110868   3.412   0.492   0.671
 3375SOL    HW210869   3.490   0.519   0.798
 3376SOL     OW10870   2.108   1.701   0.494
 3376SOL    HW110871   2.054   1.779   0.496
 3376SOL    HW210872   2.175   1.719   0.427
 3377SOL     OW10873   3.000   1.342   1.694
 3377SOL    HW110874   3.041   1.336   1.781
 3377SOL    HW210875   2.948   1.262   1.687
 3378SOL     OW10876   2.073   1.436   0.533
 3378SOL    HW110877   2.087   1.531   0.529
 3378SOL    HW210878   2.025   1.423   0.614
 3379SOL     OW10879   2.127   1.091   0.889
 3379SOL    HW110880   2.126   1.002   0.923
 3379SOL    HW210881   2.071   1.141   0.948
 3380SOL     OW10882   2.469   1.781   1.435
 3380SOL    HW110883   2.390   1.769   1.488
 3380SOL    HW210884   2.493   1.872   1.449
 3381SOL     OW10885   2.425   0.976   0.169
 3381SOL    HW110886   2.462   1.012   0.088
 3381SOL    HW210887   2.476   1.017   0.239
 3382SOL     OW10888   3.446   0.144   1.455
 3382SOL    HW110889   3.475   0.216   1.398
 3382SOL    HW210890   3.403   0.188   1.528
 3383SOL     OW10891   1.982   0.659   0.559
 3383SOL    HW110892   1.953   0.571   0.583
 3383SOL    HW210893   1.973   0.709   0.640
 3384SOL     OW10894   3.712   1.753   0.330
 3384SOL    HW110895   3.775   1.718   0.393
 3384SOL    HW210896   3.729   1.847   0.330
 3385SOL     OW10897   1.939   1.572   0.112
 3385SOL    HW110898   1.920   1.480   0.133
 3385SOL    HW210899   1.859   1.619   0.133
 3386SOL     OW10900   3.551   0.920   0.654
 3386SOL    HW110901   3.634   0.875   0.636
 3386SOL    HW210902   3.533   0.969   0.574
 3387SOL     OW10903   3.508   1.101   0.436
 3387SOL    HW110904   3.592   1.110   0.392
 3387SOL    HW210905   3.510   1.167   0.506
 3388SOL     OW10906   1.985   0.751   1.577
 3388SOL    HW110907   2.074   0.786   1.581
 3388SOL    HW210908   1.929   0.829   1.581
 3389SOL     OW10909   2.480   1.391   0.733
 3389SOL    HW110910   2.435   1.307   0.742
 3389SOL    HW210911   2.463   1.419   0.643
 3390SOL     OW10912   3.147   1.236   1.420
 3390SOL    HW110913   3.178   1.168   1.360
 3390SOL    HW210914   3.206   1.231   1.495
 3391SOL     OW10915   2.687   0.005   0.524
 3391SOL    HW110916   2.732   0.084   0.495
 3391SOL    HW210917   2.594   0.028   0.522
 3392SOL     OW10918   2.049   0.958   1.278
 3392SOL    HW110919   2.136   0.920   1.264
 3392SOL    HW210920   1.993   0.914   1.214
 3393SOL     OW10921   3.390   1.001   0.207
 3393SOL    HW110922   3.322   0.944   0.241
 3393SOL    HW210923   3.432   1.038   0.285
 3394SOL     OW10924   3.048   1.813   1.626
 3394SOL    HW110925   3.054   1.873   1.552
 3394SOL    HW210926   3.065   1.727   1.588
 3395SOL     OW10927   2.224   0.248   1.861
 3395SOL    HW110928   2.269   0.332   1.868
 3395SOL    HW210929   2.131   0.271   1.856
 3396SOL     OW10930   3.328   1.420   0.945
 3396SOL    HW110931   3.262   1.435   1.013
 3396SOL    HW210932   3.317   1.329   0.921
 3397SOL     OW10933   3.518   1.753   0.585
 3397SOL    HW110934   3.494   1.727   0.496
 3397SOL    HW210935   3.501   1.674   0.637
 3398SOL     OW10936   2.456   0.713   0.271
 3398SOL    HW110937   2.456   0.797   0.226
 3398SOL    HW210938   2.394   0.724   0.343
 3399SOL     OW10939   3.137   0.374   0.940
 3399SOL    HW110940   3.050   0.336   0.949
 3399SOL    HW210941   3.195   0.313   0.986
 3400SOL     OW10942   3.430   1.727   0.317
 3400SOL    HW110943   3.526   1.727   0.311
 3400SOL    HW210944   3.401   1.701   0.230
 3401SOL     OW10945   2.657   0.614   1.449
 3401SOL    HW110946   2.630   0.588   1.537
 3401SOL    HW210947   2.623   0.546   1.391
 3402SOL     OW10948   3.254   0.475   1.677
 3402SOL    HW110949   3.261   0.521   1.761
 3402SOL    HW210950   3.309   0.397   1.688
 3403SOL     OW10951   2.811   0.886   1.587
 3403SOL    HW110952   2.866   0.819   1.548
 3403SOL    HW210953   2.763   0.923   1.513
 3404SOL     OW10954   2.858   0.400   1.233
 3404SOL    HW110955   2.771   0.418   1.269
 3404SOL    HW210956   2.842   0.376   1.142
 3405SOL     OW10957   2.915   0.704   0.428
 3405SOL    HW110958   2.935   0.696   0.521
 3405SOL    HW210959   2.832   0.658   0.417
 3406SOL     OW10960   1.949   0.824   0.775
 3406SOL    HW110961   2.029   0.816   0.828
 3406SOL    HW210962   1.903   0.899   0.813
 3407SOL     OW10963   2.735   0.360   0.224
 3407SOL    HW110964   2.770   0.419   0.157
 3407SOL    HW210965   2.737   0.274   0.183
 3408SOL     OW10966   3.565   0.571   1.830
 3408SOL    HW110967   3.530   0.646   1.782
 3408SOL    HW210968   3.592   0.509   1.762
 3409SOL     OW10969   3.241   1.141   0.542
 3409SOL    HW110970   3.320   1.130   0.489
 3409SOL    HW210971   3.188   1.206   0.494
 3410SOL     OW10972   2.422   0.199   0.880
 3410SOL    HW110973   2.424   0.220   0.974
 3410SOL    HW210974   2.418   0.285   0.837
 3411SOL     OW10975   2.862   1.440   0.475
 3411SOL    HW110976   2.835   1.515   0.422
 3411SOL    HW210977   2.835   1.462   0.564
 3412SOL     OW10978   2.259   1.820   0.818
 3412SOL    HW110979   2.249   1.726   0.829
 3412SOL    HW210980   2.337   1.842   0.870
 3413SOL     OW10981   3.669   1.062   0.871
 3413SOL    HW110982   3.617   1.034   0.796
 3413SOL    HW210983   3.607   1.065   0.944
 3414SOL     OW10984   3.088   1.541   1.514
 3414SOL    HW110985   3.077   1.468   1.575
 3414SOL    HW210986   3.019   1.529   1.449
 3415SOL     OW10987   2.166   0.937   0.233
 3415SOL    HW110988   2.258   0.948   0.211
 3415SOL    HW210989   2.151   0.842   0.227
 3416SOL     OW10990   3.341   0.755   0.729
 3416SOL    HW110991   3.339   0.712   0.815
 3416SOL    HW210992   3.419   0.810   0.732
 3417SOL     OW10993   2.337   1.266   1.747
 3417SOL    HW110994   2.311   1.266   1.655
 3417SOL    HW210995   2.254   1.262   1.795
 3418SOL     OW10996   2.985   1.782   0.225
 3418SOL    HW110997   2.921   1.736   0.280
 3418SOL    HW210998   3.015   1.716   0.163
 3419SOL     OW10999   2.026   0.274   1.501
 3419SOL    HW111000   1.979   0.355   1.482
 3419SOL    HW211001   2.027   0.267   1.596
 3420SOL     OW11002   3.494   1.377   0.095
 3420SOL    HW111003   3.467   1.460   0.057
 3420SOL    HW211004   3.423   1.316   0.072
 3421SOL     OW11005   2.330   1.743   0.330
 3421SOL    HW111006   2.376   1.804   0.388
 3421SOL    HW211007   2.393   1.723   0.261
 3422SOL     OW11008   3.299   0.134   0.388
 3422SOL    HW111009   3.255   0.054   0.415
 3422SOL    HW211010   3.386   0.129   0.430
 3423SOL     OW11011   2.133   1.735   1.262
 3423SOL    HW111012   2.163   1.649   1.290
 3423SOL    HW211013   2.144   1.735   1.167
 3424SOL     OW11014   2.800   1.699   0.896
 3424SOL    HW111015   2.880   1.652   0.917
 3424SOL    HW211016   2.760   1.648   0.825
 3425SOL     OW11017   2.257   0.694   0.471
 3425SOL    HW111018   2.276   0.602   0.487
 3425SOL    HW211019   2.164   0.704   0.493
 3426SOL     OW11020   3.391   0.227   1.726
 3426SOL    HW111021   3.380   0.251   1.818
 3426SOL    HW211022   3.381   0.132   1.724
 3427SOL     OW11023   2.480   0.105   0.120
 3427SOL    HW111024   2.575   0.103   0.128
 3427SOL    HW211025   2.464   0.134   0.030
 3428SOL     OW11026   2.633   0.285   1.775
 3428SOL    HW111027   2.713   0.232   1.776
 3428SOL    HW211028   2.580   0.249   1.846
 3429SOL     OW11029   2.739   1.523   1.193
 3429SOL    HW111030   2.722   1.485   1.107
 3429SOL    HW211031   2.809   1.469   1.231
 3430SOL     OW11032   3.200   0.587   1.431
 3430SOL    HW111033   3.231   0.559   1.517
 3430SOL    HW211034   3.234   0.676   1.421
 3431SOL     OW11035   2.681   1.388   0.947
 3431SOL    HW111036   2.766   1.377   0.904
 3431SOL    HW211037   2.619   1.395   0.874
 3432SOL     OW11038   2.792   0.512   0.898
 3432SOL    HW111039   2.767   0.504   0.806
 3432SOL    HW211040   2.817   0.424   0.924
 3433SOL     OW11041   2.410   0.050   0.502
 3433SOL    HW111042   2.334   0.056   0.560
 3433SOL    HW211043   2.401   0.125   0.443
 3434SOL     OW11044   3.290   1.211   0.043
 3434SOL    HW111045   3.308   1.131   0.093
 3434SOL    HW211046   3.200   1.234   0.065
 3435SOL     OW11047   2.208   0.010   0.190
 3435SOL    HW111048   2.170   0.088   0.149
 3435SOL    HW211049   2.300   0.032   0.203
 3436SOL     OW11050   2.809   0.251   0.467
 3436SOL    HW111051   2.776   0.289   0.385
 3436SOL    HW211052   2.904   0.254   0.458
 3437SOL     OW11053   2.941   0.687   1.456
 3437SOL    HW111054   2.873   0.621   1.463
 3437SOL    HW211055   3.023   0.637   1.452
 3438SOL     OW11056   3.079   1.574   0.796
 3438SOL    HW111057   3.094   1.638   0.726
 3438SOL    HW211058   3.151   1.587   0.857
 3439SOL     OW11059   2.335   1.155   0.725
 3439SOL    HW111060   2.268   1.134   0.790
 3439SOL    HW211061   2.291   1.143   0.641
 3440SOL     OW11062   3.125   1.794   0.612
 3440SOL    HW111063   3.175   1.857   0.560
 3440SOL    HW211064   3.057   1.846   0.654
 3441SOL     OW11065   2.855   0.527   0.048
 3441SOL    HW111066   2.849   0.517  13.853
 3441SOL    HW211067   2.948   0.545   0.064
 3442SOL     OW11068   1.948   0.547   1.397
 3442SOL    HW111069   2.039   0.551   1.368
 3442SOL    HW211070   1.939   0.620   1.459
 3443SOL     OW11071   2.423   0.231   1.161
 3443SOL    HW111072   2.445   0.138   1.170
 3443SOL    HW211073   2.334   0.237   1.195
 3444SOL     OW11074   2.732   0.462   0.638
 3444SOL    HW111075   2.689   0.517   0.572
 3444SOL    HW211076   2.754   0.381   0.591
 3445SOL     OW11077   2.860   0.037   0.781
 3445SOL    HW111078   2.815   0.068   0.703
 3445SOL    HW211079   2.873   3.943   0.766
 3446SOL     OW11080   3.304   1.159   0.858
 3446SOL    HW111081   3.230   1.098   0.855
 3446SOL    HW211082   3.330   1.169   0.766
 3447SOL     OW11083   3.325   0.611   0.969
 3447SOL    HW111084   3.268   0.533   0.974
 3447SOL    HW211085   3.383   0.602   1.044
 3448SOL     OW11086   3.726   0.826   0.372
 3448SOL    HW111087   3.762   0.770   0.440
 3448SOL    HW211088   3.682   0.767   0.312
 3449SOL     OW11089   2.348   1.411   0.154
 3449SOL    HW111090   2.276   1.376   0.206
 3449SOL    HW211091   2.332   1.379   0.065
 3450SOL     OW11092   3.531   1.264   0.646
 3450SOL    HW111093   3.626   1.267   0.654
 3450SOL    HW211094   3.503   1.355   0.656
 3451SOL     OW11095   3.286   0.590   0.088
 3451SOL    HW111096   3.217   0.580   0.153
 3451SOL    HW211097   3.332   0.506   0.088
 3452SOL     OW11098   2.380   0.255   0.327
 3452SOL    HW111099   2.423   0.210   0.254
 3452SOL    HW211100   2.353   0.339   0.290
 3453SOL     OW11101   3.611   1.231   1.558
 3453SOL    HW111102   3.699   1.197   1.542
 3453SOL    HW211103   3.625   1.321   1.588
 3454SOL     OW11104   2.916   1.352   1.330
 3454SOL    HW111105   2.840   1.322   1.381
 3454SOL    HW211106   2.991   1.312   1.373
 3455SOL     OW11107   3.468   1.630   1.659
 3455SOL    HW111108   3.459   1.665   1.570
 3455SOL    HW211109   3.547   1.575   1.655
 3456SOL     OW11110   2.997   1.211   1.101
 3456SOL    HW111111   2.938   1.249   1.166
 3456SOL    HW211112   2.968   1.246   1.017
 3457SOL     OW11113   3.486   1.093   1.074
 3457SOL    HW111114   3.476   1.156   1.145
 3457SOL    HW211115   3.413   1.111   1.015
 3458SOL     OW11116   2.773   0.121   1.401
 3458SOL    HW111117   2.793   0.090   1.312
 3458SOL    HW211118   2.854   0.162   1.431
 3459SOL     OW11119   2.847   1.116   1.724
 3459SOL    HW111120   2.756   1.132   1.749
 3459SOL    HW211121   2.843   1.037   1.670
 3460SOL     OW11122   2.579   1.058   0.379
 3460SOL    HW111123   2.564   1.037   0.471
 3460SOL    HW211124   2.653   1.004   0.354
 3461SOL     OW11125   2.284   0.818   1.252
 3461SOL    HW111126   2.353   0.827   1.319
 3461SOL    HW211127   2.250   0.730   1.265
 3462SOL     OW11128   3.128   0.375   1.278
 3462SOL    HW111129   3.161   0.453   1.322
 3462SOL    HW211130   3.040   0.398   1.248
 3463SOL     OW11131   2.203   1.116   0.485
 3463SOL    HW111132   2.197   1.187   0.422
 3463SOL    HW211133   2.211   1.037   0.432
 3464SOL     OW11134   2.414   0.525   0.855
 3464SOL    HW111135   2.426   0.585   0.782
 3464SOL    HW211136   2.479   0.553   0.920
 3465SOL     OW11137   3.110   1.347   0.401
 3465SOL    HW111138   3.165   1.421   0.428
 3465SOL    HW211139   3.023   1.370   0.433
 3466SOL     OW11140   3.152   1.462   1.149
 3466SOL    HW111141   3.207   1.467   1.227
 3466SOL    HW211142   3.097   1.385   1.164
 3467SOL     OW11143   3.432   0.634   0.495
 3467SOL    HW111144   3.389   0.692   0.558
 3467SOL    HW211145   3.465   0.693   0.427
 3468SOL     OW11146   2.221   1.487   1.319
 3468SOL    HW111147   2.208   1.458   1.229
 3468SOL    HW211148   2.314   1.511   1.323
 3469SOL     OW11149   2.284   0.744   1.605
 3469SOL    HW111150   2.345   0.789   1.545
 3469SOL    HW211151   2.327   0.661   1.624
 3470SOL     OW11152   3.470   0.780   1.687
 3470SOL    HW111153   3.384   0.823   1.682
 3470SOL    HW211154   3.522   0.823   1.620
 3471SOL     OW11155   2.866   0.143   1.783
 3471SOL    HW111156   2.926   0.210   1.749
 3471SOL    HW211157   2.854   0.083   1.710
 3472SOL     OW11158   2.353   0.035   1.760
 3472SOL    HW111159   2.351   0.052   1.666
 3472SOL    HW211160   2.293   0.099   1.797
 3473SOL     OW11161   2.446   0.875   1.032
 3473SOL    HW111162   2.480   0.965   1.036
 3473SOL    HW211163   2.390   0.867   1.109
 3474SOL     OW11164   3.207   0.858   1.021
 3474SOL    HW111165   3.121   0.843   0.982
 3474SOL    HW211166   3.253   0.775   1.011
 3475SOL     OW11167   3.079   0.554   0.264
 3475SOL    HW111168   3.086   0.474   0.316
 3475SOL    HW211169   3.022   0.611   0.314
 3476SOL     OW11170   2.158   0.207   1.244
 3476SOL    HW111171   2.115   0.235   1.325
 3476SOL    HW211172   2.148   0.112   1.243
 3477SOL     OW11173   1.913   1.338   1.295
 3477SOL    HW111174   1.937   1.267   1.354
 3477SOL    HW211175   1.991   1.394   1.291
 3478SOL     OW11176   2.581   0.631   1.048
 3478SOL    HW111177   2.658   0.621   0.992
 3478SOL    HW211178   2.551   0.720   1.031
 3479SOL     OW11179   3.594   0.957   1.869
 3479SOL    HW111180   3.553   0.891   1.812
 3479SOL    HW211181   3.528   0.974   1.936
 3480SOL     OW11182   2.185   0.053   0.660
 3480SOL    HW111183   2.165   0.146   0.670
 3480SOL    HW211184   2.158   0.013   0.743
 3481SOL     OW11185   3.432   0.390   0.390
 3481SOL    HW111186   3.411   0.331   0.463
 3481SOL    HW211187   3.427   0.478   0.428
 3482SOL     OW11188   2.893   0.759   0.957
 3482SOL    HW111189   2.882   0.775   1.051
 3482SOL    HW211190   2.865   0.668   0.945
 3483SOL     OW11191   2.845   1.566   1.723
 3483SOL    HW111192   2.828   1.610   1.639
 3483SOL    HW211193   2.888   1.484   1.699
 3484SOL     OW11194   3.702   1.492   1.596
 3484SOL    HW111195   3.727   1.525   1.510
 3484SOL    HW211196   3.782   1.500   1.649
 3485SOL     OW11197   2.212   0.916   1.809
 3485SOL    HW111198   2.292   0.937   1.858
 3485SOL    HW211199   2.240   0.853   1.742
 3486SOL     OW11200   3.370   0.282   0.143
 3486SOL    HW111201   3.322   0.199   0.148
 3486SOL    HW211202   3.383   0.307   0.234
 3487SOL     OW11203   3.148   0.832   0.056
 3487SOL    HW111204   3.195   0.749   0.060
 3487SOL    HW211205   3.164   0.865  13.868
 3488SOL     OW11206   2.931   1.339   0.857
 3488SOL    HW111207   2.936   1.268   0.794
 3488SOL    HW211208   2.988   1.407   0.822
 3489SOL     OW11209   2.170   0.811   0.944
 3489SOL    HW111210   2.264   0.831   0.939
 3489SOL    HW211211   2.167   0.721   0.976
 3490SOL     OW11212   2.198   0.539   1.015
 3490SOL    HW111213   2.156   0.454   1.001
 3490SOL    HW211214   2.274   0.538   0.957
 3491SOL     OW11215   2.996   0.379   1.700
 3491SOL    HW111216   2.947   0.432   1.762
 3491SOL    HW211217   3.082   0.420   1.695
 3492SOL     OW11218   3.014   0.226   1.481
 3492SOL    HW111219   3.004   0.278   1.561
 3492SOL    HW211220   3.042   0.288   1.414
 3493SOL     OW11221   1.885   1.300   0.172
 3493SOL    HW111222   1.801   1.312   0.128
 3493SOL    HW211223   1.876   1.216   0.218
 3494SOL     OW11224   2.357   1.568   0.909
 3494SOL    HW111225   2.421   1.636   0.929
 3494SOL    HW211226   2.401   1.509   0.849
 3495SOL     OW11227   2.834   0.785   1.221
 3495SOL    HW111228   2.892   0.769   1.295
 3495SOL    HW211229   2.750   0.747   1.249
 3496SOL     OW11230   1.895   0.550   1.117
 3496SOL    HW111231   1.969   0.524   1.062
 3496SOL    HW211232   1.930   0.548   1.206
 3497SOL     OW11233   2.066   0.528   1.711
 3497SOL    HW111234   2.140   0.508   1.653
 3497SOL    HW211235   2.024   0.604   1.671
 3498SOL     OW11236   3.244   0.933   1.656
 3498SOL    HW111237   3.265   1.026   1.652
 3498SOL    HW211238   3.238   0.906   1.564
 3499SOL     OW11239   2.677   0.580   0.381
 3499SOL    HW111240   2.687   0.503   0.325
 3499SOL    HW211241   2.604   0.629   0.343
 3500SOL     OW11242   3.499   0.602   1.179
 3500SOL    HW111243   3.488   0.542   1.252
 3500SOL    HW211244   3.586   0.582   1.144
 3501SOL     OW11245   2.088   1.556   1.734
 3501SOL    HW111246   2.049   1.584   1.817
 3501SOL    HW211247   2.119   1.467   1.752
 3502SOL     OW11248   2.579   0.448   1.249
 3502SOL    HW111249   2.524   0.373   1.228
 3502SOL    HW211250   2.566   0.509   1.177
 3503SOL     OW11251   2.787   1.676   1.471
 3503SOL    HW111252   2.759   1.638   1.388
 3503SOL    HW211253   2.781   1.771   1.457
 3504SOL     OW11254   2.288   0.489   0.228
 3504SOL    HW111255   2.365   0.545   0.242
 3504SOL    HW211256   2.221   0.549   0.196
 3505SOL     OW11257   2.000   1.141   1.470
 3505SOL    HW111258   2.003   1.094   1.554
 3505SOL    HW211259   2.017   1.073   1.405
 3506SOL     OW11260   3.180   1.042   1.219
 3506SOL    HW111261   3.202   0.980   1.150
 3506SOL    HW211262   3.115   1.100   1.180
 3507SOL     OW11263   3.182   0.857   0.328
 3507SOL    HW111264   3.109   0.826   0.382
 3507SOL    HW211265   3.154   0.842   0.238
 3508SOL     OW11266   3.648   1.737   1.162
 3508SOL    HW111267   3.702   1.765   1.088
 3508SOL    HW211268   3.615   1.651   1.136
 3509SOL     OW11269   3.102   1.733   1.105
 3509SOL    HW111270   3.185   1.758   1.063
 3509SOL    HW211271   3.112   1.640   1.126
 3510SOL     OW11272   1.955   1.248   1.030
 3510SOL    HW111273   1.922   1.275   1.117
 3510SOL    HW211274   1.878   1.217   0.984
 3511SOL     OW11275   2.543   1.668   1.738
 3511SOL    HW111276   2.485   1.744   1.742
 3511SOL    HW211277   2.607   1.690   1.671
 3512SOL     OW11278   2.755   0.103   0.130
 3512SOL    HW111279   2.797   0.093   0.044
 3512SOL    HW211280   2.767   0.018   0.172
 3513SOL     OW11281   3.552   0.122   0.485
 3513SOL    HW111282   3.635   0.134   0.438
 3513SOL    HW211283   3.552   0.030   0.511
 3514SOL     OW11284   3.253   1.572   0.490
 3514SOL    HW111285   3.315   1.607   0.426
 3514SOL    HW211286   3.205   1.649   0.521
 3515SOL     OW11287   3.137   0.929   0.671
 3515SOL    HW111288   3.212   0.871   0.685
 3515SOL    HW211289   3.172   1.000   0.618
 3516SOL     OW11290   2.666   1.276   1.423
 3516SOL    HW111291   2.638   1.317   1.505
 3516SOL    HW211292   2.596   1.297   1.361
 3517SOL     OW11293   2.551   1.584   0.188
 3517SOL    HW111294   2.531   1.651   0.123
 3517SOL    HW211295   2.485   1.516   0.175
 3518SOL     OW11296   3.479   1.728   1.392
 3518SOL    HW111297   3.536   1.732   1.315
 3518SOL    HW211298   3.465   1.820   1.416
 3519SOL     OW11299   3.706   0.182   0.970
 3519SOL    HW111300   3.730   0.097   0.933
 3519SOL    HW211301   3.620   0.201   0.933
 3520SOL     OW11302   2.123   0.314   0.717
 3520SOL    HW111303   2.037   0.350   0.694
 3520SOL    HW211304   2.122   0.309   0.812
 3521SOL     OW11305   3.084   1.597   0.039
 3521SOL    HW111306   3.072   1.506   0.064
 3521SOL    HW211307   3.037   1.606  13.856
 3522SOL     OW11308   2.686   1.007   1.375
 3522SOL    HW111309   2.727   1.002   1.289
 3522SOL    HW211310   2.681   1.101   1.394
 3523SOL     OW11311   2.784   0.909   0.288
 3523SOL    HW111312   2.852   0.952   0.237
 3523SOL    HW211313   2.830   0.841   0.337
 3524SOL     OW11314   3.344   1.659   0.066
 3524SOL    HW111315   3.253   1.632   0.060
 3524SOL    HW211316   3.381   1.637  13.880
 3525SOL     OW11317   2.230   1.290   1.506
 3525SOL    HW111318   2.228   1.361   1.442
 3525SOL    HW211319   2.152   1.238   1.485
 3526SOL     OW11320   3.460   1.281   1.275
 3526SOL    HW111321   3.527   1.269   1.342
 3526SOL    HW211322   3.403   1.349   1.311
 3527SOL     OW11323   2.923   1.111   0.711
 3527SOL    HW111324   2.851   1.060   0.748
 3527SOL    HW211325   2.987   1.045   0.685
 3528SOL     OW11326   2.878   0.250   0.971
 3528SOL    HW111327   2.868   0.199   0.890
 3528SOL    HW211328   2.877   0.185   1.041
 3529SOL     OW11329   2.470   1.488   0.479
 3529SOL    HW111330   2.517   1.440   0.411
 3529SOL    HW211331   2.401   1.535   0.431
 3530SOL     OW11332   3.583   0.396   1.370
 3530SOL    HW111333   3.656   0.458   1.371
 3530SOL    HW211334   3.615   0.323   1.316
 3531SOL     OW11335   2.133   1.316   0.301
 3531SOL    HW111336   2.052   1.327   0.251
 3531SOL    HW211337   2.118   1.364   0.382
 3532SOL     OW11338   1.976   1.034   1.723
 3532SOL    HW111339   1.900   1.006   1.774
 3532SOL    HW211340   2.050   0.991   1.765
 3533SOL     OW11341   2.559   0.267   1.506
 3533SOL    HW111342   2.624   0.210   1.465
 3533SOL    HW211343   2.585   0.269   1.598
 3534SOL     OW11344   1.899   0.444   0.006
 3534SOL    HW111345   1.865   0.358   0.030
 3534SOL    HW211346   1.895   0.446  13.811
 3535SOL     OW11347   3.283   0.855   1.395
 3535SOL    HW111348   3.233   0.917   1.343
 3535SOL    HW211349   3.372   0.859   1.359
 3536SOL     OW11350   1.944   0.138   0.368
 3536SOL    HW111351   1.916   0.222   0.333
 3536SOL    HW211352   2.036   0.129   0.341
 3537SOL     OW11353   3.049   1.341   0.123
 3537SOL    HW111354   2.954   1.337   0.112
 3537SOL    HW211355   3.062   1.330   0.217
 3538SOL     OW11356   2.485   0.828   1.434
 3538SOL    HW111357   2.542   0.904   1.420
 3538SOL    HW211358   2.545   0.754   1.443
 3539SOL     OW11359   3.344   1.788   0.982
 3539SOL    HW111360   3.368   1.854   0.917
 3539SOL    HW211361   3.428   1.751   1.010
 3540SOL     OW11362   2.580   0.559   1.703
 3540SOL    HW111363   2.625   0.620   1.762
 3540SOL    HW211364   2.600   0.472   1.738
 3541SOL     OW11365   3.336   1.193   1.628
 3541SOL    HW111366   3.325   1.209   1.721
 3541SOL    HW211367   3.428   1.210   1.611
 3542SOL     OW11368   2.232   1.740   1.578
 3542SOL    HW111369   2.176   1.750   1.501
 3542SOL    HW211370   2.191   1.668   1.627
 3543SOL     OW11371   3.523   0.880   1.259
 3543SOL    HW111372   3.523   0.795   1.215
 3543SOL    HW211373   3.516   0.944   1.188
 3544SOL     OW11374   3.092   0.335   0.429
 3544SOL    HW111375   3.155   0.263   0.423
 3544SOL    HW211376   3.108   0.375   0.514
 3545SOL     OW11377   2.448   0.733   0.674
 3545SOL    HW111378   2.488   0.819   0.661
 3545SOL    HW211379   2.383   0.725   0.604
 3546SOL     OW11380   3.614   0.380   1.641
 3546SOL    HW111381   3.594   0.390   1.548
 3546SOL    HW211382   3.552   0.314   1.672
 3547SOL     OW11383   3.617   0.930   1.512
 3547SOL    HW111384   3.605   1.023   1.531
 3547SOL    HW211385   3.590   0.920   1.420
 3548SOL     OW11386   2.775   1.396   0.075
 3548SOL    HW111387   2.710   1.385   0.145
 3548SOL    HW211388   2.723   1.395  13.895
 3549SOL     OW11389   2.524   1.792   0.933
 3549SOL    HW111390   2.519   1.888   0.933
 3549SOL    HW211391   2.618   1.773   0.933
 3550SOL     OW11392   2.732   0.971   0.854
 3550SOL    HW111393   2.782   0.899   0.891
 3550SOL    HW211394   2.693   1.015   0.930
 3551SOL     OW11395   2.958   1.017   0.113
 3551SOL    HW111396   2.950   1.063   0.029
 3551SOL    HW211397   3.031   0.957   0.101
 3552SOL     OW11398   3.709   1.555   0.839
 3552SOL    HW111399   3.630   1.542   0.788
 3552SOL    HW211400   3.706   1.489   0.908
 3553SOL     OW11401   2.089   1.294   1.850
 3553SOL    HW111402   2.026   1.227   1.824
 3553SOL    HW211403   2.064   1.317   1.940
 3554SOL     OW11404   1.947   1.207   0.665
 3554SOL    HW111405   1.972   1.165   0.747
 3554SOL    HW211406   2.023   1.195   0.608
 3555SOL     OW11407   2.546   1.408   1.629
 3555SOL    HW111408   2.470   1.365   1.669
 3555SOL    HW211409   2.546   1.496   1.667
 3556SOL     OW11410   3.674   0.181   1.243
 3556SOL    HW111411   3.676   0.086   1.253
 3556SOL    HW211412   3.694   0.196   1.151
 3557SOL     OW11413   2.293   0.435   0.535
 3557SOL    HW111414   2.327   0.363   0.482
 3557SOL    HW211415   2.244   0.392   0.604
 3558SOL     OW11416   3.555   1.490   1.093
 3558SOL    HW111417   3.478   1.469   1.041
 3558SOL    HW211418   3.561   1.418   1.157
 3559SOL     OW11419   2.198   0.558   1.296
 3559SOL    HW111420   2.249   0.497   1.350
 3559SOL    HW211421   2.216   0.531   1.206
 3560SOL     OW11422   2.694   1.578   0.675
 3560SOL    HW111423   2.671   1.641   0.607
 3560SOL    HW211424   2.620   1.517   0.677
 3561SOL     OW11425   3.321   0.254   1.109
 3561SOL    HW111426   3.336   0.167   1.144
 3561SOL    HW211427   3.266   0.298   1.174
 3562SOL     OW11428   2.863   0.024   1.144
 3562SOL    HW111429   2.779   0.006   1.103
 3562SOL    HW211430   2.904   3.938   1.153
 3563SOL     OW11431   2.643   1.321   0.324
 3563SOL    HW111432   2.615   1.231   0.342
 3563SOL    HW211433   2.723   1.331   0.376
 3564SOL     OW11434   2.485   1.552   1.285
 3564SOL    HW111435   2.482   1.633   1.336
 3564SOL    HW211436   2.573   1.549   1.249
 3565SOL     OW11437   3.177   0.065   0.121
 3565SOL    HW111438   3.191   3.972   0.102
 3565SOL    HW211439   3.121   0.065   0.200
 3566SOL     OW11440   3.137   0.452   0.679
 3566SOL    HW111441   3.092   0.536   0.672
 3566SOL    HW211442   3.143   0.436   0.774
 3567SOL     OW11443   3.454   0.210   0.868
 3567SOL    HW111444   3.405   0.233   0.946
 3567SOL    HW211445   3.451   0.289   0.813
 3568SOL     OW11446   1.902   1.066   0.314
 3568SOL    HW111447   1.998   1.063   0.313
 3568SOL    HW211448   1.875   0.977   0.333
 3569SOL     OW11449   2.763   1.658   0.343
 3569SOL    HW111450   2.688   1.628   0.293
 3569SOL    HW211451   2.729   1.730   0.396
 3570SOL     OW11452   2.084   0.618   1.983
 3570SOL    HW111453   1.994   0.628   2.015
 3570SOL    HW211454   2.074   0.599   1.890
 3571SOL     OW11455   2.078   0.303   2.855
 3571SOL    HW111456   2.115   0.259   2.931
 3571SOL    HW211457   1.993   0.262   2.842
 3572SOL     OW11458   1.870   0.401   2.492
 3572SOL    HW111459   1.785   0.416   2.533
 3572SOL    HW211460   1.853   0.334   2.426
 3573SOL     OW11461   2.431   1.296   3.043
 3573SOL    HW111462   2.346   1.301   2.999
 3573SOL    HW211463   2.450   1.385   3.071
 3574SOL     OW11464   3.432   1.515   2.571
 3574SOL    HW111465   3.388   1.492   2.653
 3574SOL    HW211466   3.361   1.520   2.507
 3575SOL     OW11467   2.996   0.699   2.555
 3575SOL    HW111468   3.043   0.781   2.543
 3575SOL    HW211469   2.947   0.710   2.637
 3576SOL     OW11470   3.629   0.624   2.086
 3576SOL    HW111471   3.607   0.611   1.993
 3576SOL    HW211472   3.604   0.542   2.128
 3577SOL     OW11473   2.609   1.136   2.910
 3577SOL    HW111474   2.542   1.174   2.967
 3577SOL    HW211475   2.648   1.211   2.866
 3578SOL     OW11476   2.737   0.763   3.687
 3578SOL    HW111477   2.723   0.833   3.751
 3578SOL    HW211478   2.758   0.809   3.606
 3579SOL     OW11479   2.548   0.996   2.506
 3579SOL    HW111480   2.614   0.990   2.575
 3579SOL    HW211481   2.479   1.051   2.543
 3580SOL     OW11482   2.579   1.148   3.682
 3580SOL    HW111483   2.626   1.225   3.714
 3580SOL    HW211484   2.498   1.184   3.646
 3581SOL     OW11485   2.191   1.416   2.928
 3581SOL    HW111486   2.117   1.377   2.881
 3581SOL    HW211487   2.237   1.468   2.863
 3582SOL     OW11488   3.320   1.503   3.224
 3582SOL    HW111489   3.374   1.580   3.233
 3582SOL    HW211490   3.251   1.513   3.290
 3583SOL     OW11491   2.310   0.389   3.350
 3583SOL    HW111492   2.402   0.364   3.352
 3583SOL    HW211493   2.263   0.306   3.360
 3584SOL     OW11494   3.472   0.449   2.597
 3584SOL    HW111495   3.406   0.484   2.536
 3584SOL    HW211496   3.487   0.521   2.658
 3585SOL     OW11497   2.100   1.694   2.348
 3585SOL    HW111498   2.059   1.780   2.358
 3585SOL    HW211499   2.173   1.710   2.288
 3586SOL     OW11500   3.000   1.342   3.556
 3586SOL    HW111501   3.041   1.336   3.643
 3586SOL    HW211502   2.948   1.262   3.549
 3587SOL     OW11503   2.094   1.431   2.403
 3587SOL    HW111504   2.093   1.526   2.395
 3587SOL    HW211505   2.032   1.412   2.474
 3588SOL     OW11506   2.128   1.091   2.753
 3588SOL    HW111507   2.125   1.002   2.786
 3588SOL    HW211508   2.071   1.141   2.811
 3589SOL     OW11509   2.468   1.781   3.297
 3589SOL    HW111510   2.391   1.769   3.351
 3589SOL    HW211511   2.493   1.872   3.311
 3590SOL     OW11512   2.440   0.985   2.002
 3590SOL    HW111513   2.490   1.029   1.933
 3590SOL    HW211514   2.478   1.017   2.084
 3591SOL     OW11515   3.446   0.144   3.317
 3591SOL    HW111516   3.475   0.216   3.261
 3591SOL    HW211517   3.403   0.188   3.390
 3592SOL     OW11518   1.982   0.659   2.423
 3592SOL    HW111519   1.954   0.570   2.446
 3592SOL    HW211520   1.973   0.709   2.505
 3593SOL     OW11521   3.704   1.758   2.197
 3593SOL    HW111522   3.775   1.734   2.257
 3593SOL    HW211523   3.721   1.850   2.176
 3594SOL     OW11524   1.943   1.580   1.960
 3594SOL    HW111525   1.902   1.505   2.002
 3594SOL    HW211526   1.874   1.647   1.957
 3595SOL     OW11527   3.552   0.920   2.513
 3595SOL    HW111528   3.636   0.876   2.496
 3595SOL    HW211529   3.534   0.969   2.433
 3596SOL     OW11530   3.505   1.102   2.295
 3596SOL    HW111531   3.590   1.107   2.251
 3596SOL    HW211532   3.511   1.166   2.365
 3597SOL     OW11533   1.985   0.751   3.440
 3597SOL    HW111534   2.074   0.786   3.443
 3597SOL    HW211535   1.928   0.829   3.443
 3598SOL     OW11536   2.480   1.391   2.595
 3598SOL    HW111537   2.434   1.307   2.604
 3598SOL    HW211538   2.462   1.419   2.506
 3599SOL     OW11539   3.147   1.235   3.282
 3599SOL    HW111540   3.178   1.168   3.222
 3599SOL    HW211541   3.206   1.231   3.357
 3600SOL     OW11542   2.684   0.007   2.381
 3600SOL    HW111543   2.730   0.087   2.353
 3600SOL    HW211544   2.592   0.031   2.379
 3601SOL     OW11545   2.049   0.959   3.140
 3601SOL    HW111546   2.136   0.920   3.126
 3601SOL    HW211547   1.993   0.915   3.076
 3602SOL     OW11548   3.388   1.000   2.064
 3602SOL    HW111549   3.320   0.942   2.098
 3602SOL    HW211550   3.432   1.034   2.142
 3603SOL     OW11551   3.048   1.813   3.488
 3603SOL    HW111552   3.054   1.874   3.414
 3603SOL    HW211553   3.065   1.727   3.450
 3604SOL     OW11554   2.224   0.248   3.723
 3604SOL    HW111555   2.269   0.332   3.730
 3604SOL    HW211556   2.131   0.271   3.718
 3605SOL     OW11557   3.329   1.420   2.808
 3605SOL    HW111558   3.263   1.436   2.876
 3605SOL    HW211559   3.317   1.328   2.784
 3606SOL     OW11560   3.511   1.754   2.440
 3606SOL    HW111561   3.496   1.719   2.353
 3606SOL    HW211562   3.496   1.680   2.499
 3607SOL     OW11563   2.456   0.717   2.133
 3607SOL    HW111564   2.459   0.802   2.088
 3607SOL    HW211565   2.391   0.729   2.202
 3608SOL     OW11566   3.136   0.374   2.803
 3608SOL    HW111567   3.049   0.335   2.812
 3608SOL    HW211568   3.194   0.313   2.849
 3609SOL     OW11569   3.439   1.673   2.174
 3609SOL    HW111570   3.530   1.700   2.166
 3609SOL    HW211571   3.411   1.657   2.083
 3610SOL     OW11572   2.658   0.614   3.311
 3610SOL    HW111573   2.630   0.587   3.399
 3610SOL    HW211574   2.623   0.546   3.253
 3611SOL     OW11575   3.254   0.475   3.539
 3611SOL    HW111576   3.261   0.521   3.623
 3611SOL    HW211577   3.309   0.397   3.550
 3612SOL     OW11578   2.811   0.886   3.449
 3612SOL    HW111579   2.866   0.819   3.410
 3612SOL    HW211580   2.763   0.923   3.375
 3613SOL     OW11581   2.858   0.401   3.095
 3613SOL    HW111582   2.771   0.418   3.131
 3613SOL    HW211583   2.841   0.377   3.004
 3614SOL     OW11584   2.915   0.701   2.286
 3614SOL    HW111585   2.934   0.695   2.379
 3614SOL    HW211586   2.832   0.655   2.275
 3615SOL     OW11587   1.948   0.823   2.640
 3615SOL    HW111588   2.028   0.816   2.691
 3615SOL    HW211589   1.903   0.899   2.676
 3616SOL     OW11590   2.757   0.353   2.063
 3616SOL    HW111591   2.800   0.413   2.002
 3616SOL    HW211592   2.745   0.272   2.013
 3617SOL     OW11593   3.565   0.571   3.692
 3617SOL    HW111594   3.530   0.646   3.644
 3617SOL    HW211595   3.592   0.509   3.624
 3618SOL     OW11596   3.240   1.141   2.401
 3618SOL    HW111597   3.320   1.130   2.349
 3618SOL    HW211598   3.188   1.205   2.351
 3619SOL     OW11599   2.422   0.200   2.742
 3619SOL    HW111600   2.424   0.219   2.835
 3619SOL    HW211601   2.417   0.285   2.699
 3620SOL     OW11602   2.861   1.443   2.330
 3620SOL    HW111603   2.831   1.518   2.279
 3620SOL    HW211604   2.837   1.464   2.420
 3621SOL     OW11605   2.256   1.816   2.683
 3621SOL    HW111606   2.249   1.721   2.695
 3621SOL    HW211607   2.332   1.841   2.736
 3622SOL     OW11608   3.669   1.063   2.732
 3622SOL    HW111609   3.617   1.033   2.657
 3622SOL    HW211610   3.607   1.065   2.804
 3623SOL     OW11611   3.088   1.541   3.376
 3623SOL    HW111612   3.077   1.468   3.437
 3623SOL    HW211613   3.019   1.529   3.311
 3624SOL     OW11614   2.177   0.962   2.117
 3624SOL    HW111615   2.259   0.982   2.073
 3624SOL    HW211616   2.149   0.878   2.080
 3625SOL     OW11617   3.344   0.752   2.588
 3625SOL    HW111618   3.340   0.712   2.675
 3625SOL    HW211619   3.421   0.809   2.592
 3626SOL     OW11620   2.337   1.266   3.609
 3626SOL    HW111621   2.311   1.267   3.517
 3626SOL    HW211622   2.254   1.262   3.657
 3627SOL     OW11623   2.989   1.776   2.092
 3627SOL    HW111624   2.912   1.738   2.133
 3627SOL    HW211625   3.013   1.714   2.023
 3628SOL     OW11626   2.026   0.273   3.363
 3628SOL    HW111627   1.979   0.355   3.344
 3628SOL    HW211628   2.027   0.268   3.458
 3629SOL     OW11629   3.486   1.386   1.949
 3629SOL    HW111630   3.442   1.470   1.935
 3629SOL    HW211631   3.419   1.321   1.929
 3630SOL     OW11632   2.333   1.725   2.200
 3630SOL    HW111633   2.382   1.791   2.250
 3630SOL    HW211634   2.391   1.703   2.128
 3631SOL     OW11635   3.299   0.178   2.264
 3631SOL    HW111636   3.245   0.103   2.241
 3631SOL    HW211637   3.374   0.141   2.310
 3632SOL     OW11638   2.126   1.733   3.118
 3632SOL    HW111639   2.159   1.648   3.148
 3632SOL    HW211640   2.136   1.730   3.023
 3633SOL     OW11641   2.799   1.699   2.758
 3633SOL    HW111642   2.879   1.651   2.780
 3633SOL    HW211643   2.760   1.648   2.687
 3634SOL     OW11644   2.259   0.695   2.334
 3634SOL    HW111645   2.275   0.602   2.348
 3634SOL    HW211646   2.166   0.706   2.352
 3635SOL     OW11647   3.391   0.227   3.588
 3635SOL    HW111648   3.380   0.251   3.680
 3635SOL    HW211649   3.381   0.132   3.586
 3636SOL     OW11650   2.507   0.125   1.973
 3636SOL    HW111651   2.524   0.039   2.011
 3636SOL    HW211652   2.445   0.108   1.902
 3637SOL     OW11653   2.633   0.285   3.637
 3637SOL    HW111654   2.713   0.232   3.638
 3637SOL    HW211655   2.580   0.249   3.708
 3638SOL     OW11656   2.739   1.523   3.055
 3638SOL    HW111657   2.722   1.485   2.969
 3638SOL    HW211658   2.809   1.469   3.093
 3639SOL     OW11659   3.200   0.587   3.293
 3639SOL    HW111660   3.231   0.559   3.379
 3639SOL    HW211661   3.234   0.676   3.283
 3640SOL     OW11662   2.681   1.388   2.809
 3640SOL    HW111663   2.766   1.377   2.766
 3640SOL    HW211664   2.618   1.395   2.736
 3641SOL     OW11665   2.793   0.512   2.759
 3641SOL    HW111666   2.767   0.504   2.667
 3641SOL    HW211667   2.817   0.424   2.786
 3642SOL     OW11668   2.406   0.055   2.353
 3642SOL    HW111669   2.332   0.061   2.413
 3642SOL    HW211670   2.401   0.136   2.302
 3643SOL     OW11671   3.288   1.201   1.900
 3643SOL    HW111672   3.318   1.127   1.953
 3643SOL    HW211673   3.203   1.224   1.937
 3644SOL     OW11674   2.194   0.048   2.076
 3644SOL    HW111675   2.198   0.110   2.004
 3644SOL    HW211676   2.272   0.067   2.128
 3645SOL     OW11677   2.808   0.252   2.319
 3645SOL    HW111678   2.782   0.290   2.235
 3645SOL    HW211679   2.903   0.260   2.321
 3646SOL     OW11680   2.941   0.687   3.318
 3646SOL    HW111681   2.872   0.621   3.325
 3646SOL    HW211682   3.023   0.637   3.314
 3647SOL     OW11683   3.080   1.573   2.657
 3647SOL    HW111684   3.094   1.638   2.588
 3647SOL    HW211685   3.150   1.589   2.720
 3648SOL     OW11686   2.336   1.153   2.589
 3648SOL    HW111687   2.269   1.134   2.654
 3648SOL    HW211688   2.292   1.141   2.504
 3649SOL     OW11689   3.126   1.792   2.475
 3649SOL    HW111690   3.175   1.853   2.420
 3649SOL    HW211691   3.057   1.845   2.515
 3650SOL     OW11692   2.883   0.537   1.894
 3650SOL    HW111693   2.839   0.620   1.874
 3650SOL    HW211694   2.946   0.560   1.962
 3651SOL     OW11695   1.948   0.547   3.260
 3651SOL    HW111696   2.039   0.551   3.230
 3651SOL    HW211697   1.939   0.620   3.321
 3652SOL     OW11698   2.423   0.230   3.022
 3652SOL    HW111699   2.445   0.138   3.032
 3652SOL    HW211700   2.334   0.237   3.057
 3653SOL     OW11701   2.732   0.460   2.498
 3653SOL    HW111702   2.686   0.516   2.435
 3653SOL    HW211703   2.754   0.381   2.449
 3654SOL     OW11704   2.860   0.036   2.645
 3654SOL    HW111705   2.818   0.068   2.565
 3654SOL    HW211706   2.872   3.942   2.629
 3655SOL     OW11707   3.304   1.159   2.720
 3655SOL    HW111708   3.230   1.099   2.719
 3655SOL    HW211709   3.329   1.168   2.628
 3656SOL     OW11710   3.325   0.611   2.830
 3656SOL    HW111711   3.268   0.534   2.836
 3656SOL    HW211712   3.383   0.603   2.906
 3657SOL     OW11713   3.722   0.825   2.237
 3657SOL    HW111714   3.761   0.768   2.302
 3657SOL    HW211715   3.685   0.766   2.171
 3658SOL     OW11716   2.354   1.422   2.015
 3658SOL    HW111717   2.277   1.396   2.066
 3658SOL    HW211718   2.348   1.369   1.935
 3659SOL     OW11719   3.532   1.267   2.503
 3659SOL    HW111720   3.627   1.269   2.513
 3659SOL    HW211721   3.504   1.355   2.524
 3660SOL     OW11722   3.257   0.578   1.929
 3660SOL    HW111723   3.193   0.559   1.998
 3660SOL    HW211724   3.342   0.565   1.971
 3661SOL     OW11725   2.387   0.266   2.177
 3661SOL    HW111726   2.445   0.228   2.111
 3661SOL    HW211727   2.357   0.348   2.138
 3662SOL     OW11728   3.611   1.231   3.420
 3662SOL    HW111729   3.699   1.197   3.404
 3662SOL    HW211730   3.625   1.321   3.450
 3663SOL     OW11731   2.916   1.352   3.192
 3663SOL    HW111732   2.840   1.322   3.243
 3663SOL    HW211733   2.991   1.312   3.235
 3664SOL     OW11734   3.468   1.630   3.521
 3664SOL    HW111735   3.459   1.665   3.432
 3664SOL    HW211736   3.547   1.575   3.517
 3665SOL     OW11737   2.998   1.211   2.963
 3665SOL    HW111738   2.938   1.249   3.028
 3665SOL    HW211739   2.968   1.246   2.880
 3666SOL     OW11740   3.486   1.093   2.935
 3666SOL    HW111741   3.476   1.156   3.007
 3666SOL    HW211742   3.412   1.111   2.877
 3667SOL     OW11743   2.773   0.121   3.263
 3667SOL    HW111744   2.793   0.090   3.175
 3667SOL    HW211745   2.854   0.162   3.293
 3668SOL     OW11746   2.847   1.116   3.586
 3668SOL    HW111747   2.756   1.132   3.611
 3668SOL    HW211748   2.843   1.037   3.532
 3669SOL     OW11749   2.572   1.063   2.233
 3669SOL    HW111750   2.557   1.043   2.325
 3669SOL    HW211751   2.647   1.009   2.208
 3670SOL     OW11752   2.284   0.818   3.115
 3670SOL    HW111753   2.353   0.827   3.181
 3670SOL    HW211754   2.250   0.730   3.127
 3671SOL     OW11755   3.128   0.375   3.140
 3671SOL    HW111756   3.161   0.453   3.184
 3671SOL    HW211757   3.040   0.398   3.110
 3672SOL     OW11758   2.202   1.119   2.351
 3672SOL    HW111759   2.201   1.195   2.293
 3672SOL    HW211760   2.199   1.043   2.292
 3673SOL     OW11761   2.414   0.526   2.716
 3673SOL    HW111762   2.426   0.587   2.643
 3673SOL    HW211763   2.479   0.553   2.781
 3674SOL     OW11764   3.109   1.350   2.253
 3674SOL    HW111765   3.164   1.421   2.285
 3674SOL    HW211766   3.022   1.371   2.286
 3675SOL     OW11767   3.152   1.462   3.011
 3675SOL    HW111768   3.208   1.467   3.089
 3675SOL    HW211769   3.097   1.385   3.026
 3676SOL     OW11770   3.429   0.635   2.351
 3676SOL    HW111771   3.386   0.685   2.420
 3676SOL    HW211772   3.475   0.700   2.298
 3677SOL     OW11773   2.221   1.489   3.181
 3677SOL    HW111774   2.208   1.459   3.091
 3677SOL    HW211775   2.313   1.513   3.185
 3678SOL     OW11776   2.284   0.744   3.467
 3678SOL    HW111777   2.345   0.789   3.407
 3678SOL    HW211778   2.327   0.661   3.486
 3679SOL     OW11779   3.470   0.780   3.549
 3679SOL    HW111780   3.384   0.823   3.544
 3679SOL    HW211781   3.522   0.823   3.482
 3680SOL     OW11782   2.866   0.143   3.645
 3680SOL    HW111783   2.926   0.210   3.612
 3680SOL    HW211784   2.854   0.083   3.572
 3681SOL     OW11785   2.353   0.035   3.622
 3681SOL    HW111786   2.351   0.052   3.528
 3681SOL    HW211787   2.293   0.099   3.659
 3682SOL     OW11788   2.447   0.875   2.894
 3682SOL    HW111789   2.480   0.965   2.897
 3682SOL    HW211790   2.390   0.868   2.971
 3683SOL     OW11791   3.207   0.859   2.882
 3683SOL    HW111792   3.120   0.843   2.844
 3683SOL    HW211793   3.253   0.775   2.873
 3684SOL     OW11794   3.059   0.540   2.115
 3684SOL    HW111795   3.066   0.461   2.169
 3684SOL    HW211796   3.017   0.604   2.173
 3685SOL     OW11797   2.158   0.207   3.105
 3685SOL    HW111798   2.115   0.235   3.186
 3685SOL    HW211799   2.148   0.112   3.105
 3686SOL     OW11800   1.912   1.339   3.157
 3686SOL    HW111801   1.938   1.267   3.216
 3686SOL    HW211802   1.990   1.394   3.152
 3687SOL     OW11803   2.581   0.630   2.910
 3687SOL    HW111804   2.658   0.621   2.854
 3687SOL    HW211805   2.550   0.720   2.894
 3688SOL     OW11806   3.594   0.956   3.731
 3688SOL    HW111807   3.553   0.891   3.674
 3688SOL    HW211808   3.528   0.974   3.798
 3689SOL     OW11809   2.186   0.053   2.522
 3689SOL    HW111810   2.165   0.146   2.531
 3689SOL    HW211811   2.162   0.014   2.606
 3690SOL     OW11812   3.477   0.399   2.239
 3690SOL    HW111813   3.431   0.330   2.288
 3690SOL    HW211814   3.455   0.479   2.285
 3691SOL     OW11815   2.893   0.759   2.819
 3691SOL    HW111816   2.883   0.775   2.912
 3691SOL    HW211817   2.865   0.668   2.807
 3692SOL     OW11818   2.845   1.567   3.585
 3692SOL    HW111819   2.828   1.610   3.501
 3692SOL    HW211820   2.887   1.484   3.561
 3693SOL     OW11821   3.702   1.492   3.458
 3693SOL    HW111822   3.727   1.525   3.372
 3693SOL    HW211823   3.782   1.500   3.511
 3694SOL     OW11824   2.212   0.916   3.671
 3694SOL    HW111825   2.292   0.937   3.720
 3694SOL    HW211826   2.240   0.853   3.604
 3695SOL     OW11827   3.357   0.269   1.993
 3695SOL    HW111828   3.286   0.206   2.002
 3695SOL    HW211829   3.367   0.308   2.080
 3696SOL     OW11830   3.147   0.827   1.888
 3696SOL    HW111831   3.189   0.741   1.892
 3696SOL    HW211832   3.180   0.866   1.807
 3697SOL     OW11833   2.932   1.340   2.720
 3697SOL    HW111834   2.937   1.268   2.657
 3697SOL    HW211835   2.989   1.408   2.684
 3698SOL     OW11836   2.170   0.811   2.807
 3698SOL    HW111837   2.263   0.831   2.800
 3698SOL    HW211838   2.167   0.721   2.839
 3699SOL     OW11839   2.198   0.539   2.877
 3699SOL    HW111840   2.156   0.454   2.863
 3699SOL    HW211841   2.274   0.538   2.818
 3700SOL     OW11842   2.996   0.379   3.562
 3700SOL    HW111843   2.947   0.432   3.624
 3700SOL    HW211844   3.082   0.420   3.557
 3701SOL     OW11845   3.014   0.226   3.343
 3701SOL    HW111846   3.004   0.278   3.423
 3701SOL    HW211847   3.042   0.288   3.276
 3702SOL     OW11848   1.868   1.320   2.055
 3702SOL    HW111849   1.781   1.335   2.019
 3702SOL    HW211850   1.864   1.231   2.091
 3703SOL     OW11851   2.357   1.567   2.772
 3703SOL    HW111852   2.422   1.635   2.791
 3703SOL    HW211853   2.401   1.508   2.711
 3704SOL     OW11854   2.834   0.784   3.083
 3704SOL    HW111855   2.893   0.768   3.157
 3704SOL    HW211856   2.750   0.748   3.111
 3705SOL     OW11857   1.895   0.550   2.979
 3705SOL    HW111858   1.969   0.526   2.924
 3705SOL    HW211859   1.930   0.547   3.068
 3706SOL     OW11860   2.066   0.528   3.573
 3706SOL    HW111861   2.140   0.508   3.515
 3706SOL    HW211862   2.024   0.604   3.533
 3707SOL     OW11863   3.244   0.933   3.518
 3707SOL    HW111864   3.265   1.026   3.514
 3707SOL    HW211865   3.238   0.906   3.426
 3708SOL     OW11866   2.679   0.573   2.230
 3708SOL    HW111867   2.686   0.498   2.171
 3708SOL    HW211868   2.605   0.623   2.198
 3709SOL     OW11869   3.499   0.602   3.041
 3709SOL    HW111870   3.488   0.542   3.114
 3709SOL    HW211871   3.586   0.582   3.006
 3710SOL     OW11872   2.087   1.556   3.598
 3710SOL    HW111873   2.048   1.586   3.681
 3710SOL    HW211874   2.117   1.467   3.617
 3711SOL     OW11875   2.579   0.448   3.111
 3711SOL    HW111876   2.524   0.373   3.090
 3711SOL    HW211877   2.566   0.509   3.039
 3712SOL     OW11878   2.787   1.676   3.333
 3712SOL    HW111879   2.759   1.638   3.250
 3712SOL    HW211880   2.782   1.771   3.319
 3713SOL     OW11881   2.322   0.492   2.040
 3713SOL    HW111882   2.380   0.564   2.066
 3713SOL    HW211883   2.236   0.534   2.029
 3714SOL     OW11884   2.000   1.141   3.332
 3714SOL    HW111885   2.003   1.095   3.416
 3714SOL    HW211886   2.017   1.073   3.267
 3715SOL     OW11887   3.180   1.042   3.081
 3715SOL    HW111888   3.202   0.980   3.012
 3715SOL    HW211889   3.115   1.100   3.042
 3716SOL     OW11890   3.178   0.853   2.165
 3716SOL    HW111891   3.103   0.827   2.218
 3716SOL    HW211892   3.149   0.843   2.074
 3717SOL     OW11893   3.647   1.737   3.023
 3717SOL    HW111894   3.702   1.765   2.950
 3717SOL    HW211895   3.615   1.651   2.998
 3718SOL     OW11896   3.102   1.733   2.966
 3718SOL    HW111897   3.185   1.757   2.925
 3718SOL    HW211898   3.112   1.640   2.988
 3719SOL     OW11899   1.954   1.249   2.892
 3719SOL    HW111900   1.921   1.275   2.978
 3719SOL    HW211901   1.877   1.216   2.846
 3720SOL     OW11902   2.542   1.668   3.600
 3720SOL    HW111903   2.485   1.745   3.603
 3720SOL    HW211904   2.607   1.691   3.533
 3721SOL     OW11905   3.547   0.117   2.351
 3721SOL    HW111906   3.628   0.134   2.302
 3721SOL    HW211907   3.553   0.025   2.374
 3722SOL     OW11908   3.254   1.567   2.354
 3722SOL    HW111909   3.312   1.601   2.286
 3722SOL    HW211910   3.203   1.643   2.382
 3723SOL     OW11911   3.139   0.928   2.532
 3723SOL    HW111912   3.214   0.870   2.545
 3723SOL    HW211913   3.173   1.000   2.479
 3724SOL     OW11914   2.666   1.276   3.285
 3724SOL    HW111915   2.638   1.318   3.367
 3724SOL    HW211916   2.596   1.297   3.223
 3725SOL     OW11917   2.533   1.627   2.017
 3725SOL    HW111918   2.546   1.640   1.923
 3725SOL    HW211919   2.476   1.550   2.023
 3726SOL     OW11920   3.479   1.728   3.254
 3726SOL    HW111921   3.536   1.732   3.177
 3726SOL    HW211922   3.465   1.820   3.278
 3727SOL     OW11923   3.706   0.182   2.833
 3727SOL    HW111924   3.729   0.097   2.796
 3727SOL    HW211925   3.620   0.202   2.796
 3728SOL     OW11926   2.123   0.314   2.576
 3728SOL    HW111927   2.037   0.349   2.553
 3728SOL    HW211928   2.122   0.310   2.672
 3729SOL     OW11929   3.070   1.600   1.895
 3729SOL    HW111930   3.059   1.509   1.922
 3729SOL    HW211931   3.003   1.614   1.828
 3730SOL     OW11932   2.686   1.007   3.237
 3730SOL    HW111933   2.727   1.002   3.150
 3730SOL    HW211934   2.681   1.101   3.256
 3731SOL     OW11935   2.778   0.911   2.153
 3731SOL    HW111936   2.838   0.944   2.086
 3731SOL    HW211937   2.828   0.843   2.199
 3732SOL     OW11938   3.349   1.633   1.907
 3732SOL    HW111939   3.255   1.621   1.892
 3732SOL    HW211940   3.387   1.638   1.820
 3733SOL     OW11941   2.230   1.291   3.367
 3733SOL    HW111942   2.228   1.362   3.303
 3733SOL    HW211943   2.152   1.239   3.347
 3734SOL     OW11944   3.460   1.281   3.137
 3734SOL    HW111945   3.528   1.269   3.204
 3734SOL    HW211946   3.403   1.349   3.173
 3735SOL     OW11947   2.924   1.111   2.574
 3735SOL    HW111948   2.851   1.061   2.610
 3735SOL    HW211949   2.987   1.045   2.547
 3736SOL     OW11950   2.878   0.250   2.833
 3736SOL    HW111951   2.868   0.199   2.753
 3736SOL    HW211952   2.877   0.185   2.904
 3737SOL     OW11953   2.468   1.492   2.342
 3737SOL    HW111954   2.512   1.441   2.274
 3737SOL    HW211955   2.399   1.539   2.296
 3738SOL     OW11956   3.583   0.396   3.232
 3738SOL    HW111957   3.656   0.458   3.233
 3738SOL    HW211958   3.615   0.323   3.178
 3739SOL     OW11959   2.125   1.339   2.154
 3739SOL    HW111960   2.032   1.338   2.129
 3739SOL    HW211961   2.125   1.377   2.242
 3740SOL     OW11962   1.976   1.034   3.585
 3740SOL    HW111963   1.900   1.007   3.636
 3740SOL    HW211964   2.050   0.991   3.627
 3741SOL     OW11965   2.559   0.267   3.368
 3741SOL    HW111966   2.624   0.210   3.327
 3741SOL    HW211967   2.585   0.269   3.460
 3742SOL     OW11968   1.966   0.317   1.854
 3742SOL    HW111969   1.899   0.336   1.920
 3742SOL    HW211970   1.972   0.397   1.802
 3743SOL     OW11971   3.283   0.855   3.257
 3743SOL    HW111972   3.233   0.917   3.205
 3743SOL    HW211973   3.372   0.859   3.221
 3744SOL     OW11974   1.942   0.148   2.200
 3744SOL    HW111975   1.909   0.206   2.131
 3744SOL    HW211976   2.029   0.123   2.171
 3745SOL     OW11977   3.040   1.334   1.980
 3745SOL    HW111978   2.949   1.305   1.982
 3745SOL    HW211979   3.066   1.335   2.072
 3746SOL     OW11980   2.485   0.828   3.296
 3746SOL    HW111981   2.542   0.904   3.282
 3746SOL    HW211982   2.546   0.754   3.305
 3747SOL     OW11983   3.344   1.787   2.844
 3747SOL    HW111984   3.367   1.855   2.780
 3747SOL    HW211985   3.428   1.753   2.873
 3748SOL     OW11986   2.580   0.559   3.565
 3748SOL    HW111987   2.625   0.620   3.623
 3748SOL    HW211988   2.600   0.472   3.600
 3749SOL     OW11989   3.336   1.193   3.490
 3749SOL    HW111990   3.325   1.209   3.583
 3749SOL    HW211991   3.428   1.210   3.473
 3750SOL     OW11992   2.233   1.737   3.441
 3750SOL    HW111993   2.176   1.746   3.364
 3750SOL    HW211994   2.193   1.666   3.492
 3751SOL     OW11995   3.523   0.880   3.121
 3751SOL    HW111996   3.523   0.795   3.077
 3751SOL    HW211997   3.516   0.944   3.050
 3752SOL     OW11998   3.080   0.341   2.302
 3752SOL    HW111999   3.150   0.277   2.292
 3752SOL    HW212000   3.098   0.384   2.385
 3753SOL     OW12001   2.449   0.733   2.535
 3753SOL    HW112002   2.489   0.819   2.521
 3753SOL    HW212003   2.384   0.725   2.465
 3754SOL     OW12004   3.614   0.380   3.503
 3754SOL    HW112005   3.594   0.390   3.410
 3754SOL    HW212006   3.552   0.314   3.534
 3755SOL     OW12007   3.617   0.930   3.374
 3755SOL    HW112008   3.605   1.023   3.393
 3755SOL    HW212009   3.590   0.920   3.282
 3756SOL     OW12010   2.726   1.365   1.906
 3756SOL    HW112011   2.688   1.391   1.990
 3756SOL    HW212012   2.741   1.448   1.860
 3757SOL     OW12013   2.524   1.792   2.795
 3757SOL    HW112014   2.519   1.888   2.793
 3757SOL    HW212015   2.618   1.773   2.795
 3758SOL     OW12016   2.732   0.971   2.716
 3758SOL    HW112017   2.782   0.899   2.753
 3758SOL    HW212018   2.692   1.015   2.791
 3759SOL     OW12019   2.939   0.990   1.952
 3759SOL    HW112020   2.917   1.042   1.875
 3759SOL    HW212021   3.012   0.935   1.924
 3760SOL     OW12022   3.709   1.556   2.702
 3760SOL    HW112023   3.630   1.541   2.652
 3760SOL    HW212024   3.709   1.488   2.769
 3761SOL     OW12025   2.090   1.294   3.713
 3761SOL    HW112026   2.026   1.228   3.686
 3761SOL    HW212027   2.066   1.316   3.803
 3762SOL     OW12028   1.946   1.210   2.525
 3762SOL    HW112029   1.971   1.170   2.609
 3762SOL    HW212030   2.020   1.191   2.467
 3763SOL     OW12031   2.546   1.408   3.492
 3763SOL    HW112032   2.470   1.365   3.531
 3763SOL    HW212033   2.546   1.496   3.529
 3764SOL     OW12034   3.674   0.181   3.106
 3764SOL    HW112035   3.676   0.086   3.116
 3764SOL    HW212036   3.694   0.196   3.014
 3765SOL     OW12037   2.289   0.434   2.387
 3765SOL    HW112038   2.325   0.363   2.334
 3765SOL    HW212039   2.241   0.390   2.457
 3766SOL     OW12040   3.555   1.490   2.957
 3766SOL    HW112041   3.478   1.469   2.904
 3766SOL    HW212042   3.561   1.418   3.020
 3767SOL     OW12043   2.197   0.558   3.158
 3767SOL    HW112044   2.249   0.497   3.212
 3767SOL    HW212045   2.216   0.532   3.068
 3768SOL     OW12046   2.694   1.577   2.537
 3768SOL    HW112047   2.672   1.639   2.467
 3768SOL    HW212048   2.620   1.517   2.539
 3769SOL     OW12049   3.322   0.255   2.971
 3769SOL    HW112050   3.336   0.167   3.007
 3769SOL    HW212051   3.267   0.298   3.037
 3770SOL     OW12052   2.863   0.024   3.007
 3770SOL    HW112053   2.779   0.005   2.965
 3770SOL    HW212054   2.905   3.938   3.015
 3771SOL     OW12055   2.637   1.334   2.181
 3771SOL    HW112056   2.609   1.243   2.191
 3771SOL    HW212057   2.717   1.340   2.233
 3772SOL     OW12058   2.485   1.552   3.147
 3772SOL    HW112059   2.482   1.634   3.198
 3772SOL    HW212060   2.573   1.549   3.111
 3773SOL     OW12061   3.166   0.068   2.020
 3773SOL    HW112062   3.169   3.978   1.989
 3773SOL    HW212063   3.086   0.073   2.072
 3774SOL     OW12064   3.139   0.456   2.545
 3774SOL    HW112065   3.094   0.540   2.539
 3774SOL    HW212066   3.143   0.438   2.639
 3775SOL     OW12067   3.454   0.210   2.730
 3775SOL    HW112068   3.405   0.234   2.808
 3775SOL    HW212069   3.452   0.288   2.675
 3776SOL     OW12070   1.904   1.068   2.168
 3776SOL    HW112071   1.998   1.061   2.151
 3776SOL    HW212072   1.878   0.979   2.194
 3777SOL     OW12073   2.753   1.658   2.197
 3777SOL    HW112074   2.677   1.644   2.141
 3777SOL    HW212075   2.727   1.731   2.254
 3778SOL     OW12076   2.084   0.617   3.845
 3778SOL    HW112077   1.994   0.628   3.877
 3778SOL    HW212078   2.074   0.599   3.752
 3779SOL     OW12079   2.078   0.303   4.717
 3779SOL    HW112080   2.115   0.259   4.793
 3779SOL    HW212081   1.993   0.262   4.704
 3780SOL     OW12082   1.870   0.400   4.354
 3780SOL    HW112083   1.785   0.416   4.395
 3780SOL    HW212084   1.853   0.334   4.288
 3781SOL     OW12085   2.431   1.296   4.905
 3781SOL    HW112086   2.346   1.302   4.861
 3781SOL    HW212087   2.449   1.385   4.934
 3782SOL     OW12088   3.432   1.515   4.433
 3782SOL    HW112089   3.388   1.492   4.515
 3782SOL    HW212090   3.361   1.520   4.369
 3783SOL     OW12091   2.996   0.699   4.417
 3783SOL    HW112092   3.043   0.781   4.405
 3783SOL    HW212093   2.948   0.710   4.499
 3784SOL     OW12094   3.629   0.624   3.947
 3784SOL    HW112095   3.608   0.611   3.855
 3784SOL    HW212096   3.604   0.542   3.990
 3785SOL     OW12097   2.608   1.136   4.772
 3785SOL    HW112098   2.542   1.174   4.829
 3785SOL    HW212099   2.648   1.211   4.728
 3786SOL     OW12100   2.736   0.763   5.549
 3786SOL    HW112101   2.721   0.833   5.613
 3786SOL    HW212102   2.757   0.809   5.468
 3787SOL     OW12103   2.548   0.996   4.368
 3787SOL    HW112104   2.614   0.990   4.437
 3787SOL    HW212105   2.479   1.051   4.405
 3788SOL     OW12106   2.577   1.148   5.542
 3788SOL    HW112107   2.626   1.225   5.572
 3788SOL    HW212108   2.495   1.183   5.507
 3789SOL     OW12109   2.191   1.417   4.790
 3789SOL    HW112110   2.117   1.377   4.743
 3789SOL    HW212111   2.236   1.469   4.725
 3790SOL     OW12112   3.320   1.503   5.086
 3790SOL    HW112113   3.374   1.581   5.096
 3790SOL    HW212114   3.251   1.513   5.151
 3791SOL     OW12115   2.310   0.388   5.212
 3791SOL    HW112116   2.402   0.364   5.214
 3791SOL    HW212117   2.263   0.306   5.222
 3792SOL     OW12118   3.472   0.450   4.459
 3792SOL    HW112119   3.406   0.484   4.398
 3792SOL    HW212120   3.487   0.521   4.520
 3793SOL     OW12121   2.100   1.696   4.210
 3793SOL    HW112122   2.057   1.782   4.213
 3793SOL    HW212123   2.173   1.709   4.149
 3794SOL     OW12124   3.000   1.342   5.417
 3794SOL    HW112125   3.039   1.337   5.505
 3794SOL    HW212126   2.947   1.263   5.410
 3795SOL     OW12127   2.092   1.432   4.265
 3795SOL    HW112128   2.092   1.528   4.257
 3795SOL    HW212129   2.031   1.414   4.336
 3796SOL     OW12130   2.128   1.091   4.615
 3796SOL    HW112131   2.125   1.002   4.648
 3796SOL    HW212132   2.071   1.141   4.673
 3797SOL     OW12133   2.468   1.782   5.156
 3797SOL    HW112134   2.392   1.769   5.214
 3797SOL    HW212135   2.493   1.873   5.172
 3798SOL     OW12136   2.440   0.985   3.864
 3798SOL    HW112137   2.490   1.029   3.795
 3798SOL    HW212138   2.479   1.017   3.946
 3799SOL     OW12139   3.446   0.144   5.179
 3799SOL    HW112140   3.475   0.216   5.122
 3799SOL    HW212141   3.403   0.188   5.252
 3800SOL     OW12142   1.982   0.659   4.285
 3800SOL    HW112143   1.954   0.571   4.309
 3800SOL    HW212144   1.973   0.709   4.367
 3801SOL     OW12145   3.704   1.758   4.059
 3801SOL    HW112146   3.775   1.734   4.119
 3801SOL    HW212147   3.721   1.850   4.038
 3802SOL     OW12148   1.942   1.579   3.826
 3802SOL    HW112149   1.904   1.501   3.865
 3802SOL    HW212150   1.869   1.641   3.820
 3803SOL     OW12151   3.552   0.920   4.375
 3803SOL    HW112152   3.635   0.876   4.358
 3803SOL    HW212153   3.534   0.969   4.295
 3804SOL     OW12154   3.505   1.102   4.157
 3804SOL    HW112155   3.590   1.107   4.113
 3804SOL    HW212156   3.511   1.166   4.227
 3805SOL     OW12157   1.985   0.751   5.302
 3805SOL    HW112158   2.074   0.786   5.305
 3805SOL    HW212159   1.929   0.829   5.305
 3806SOL     OW12160   2.479   1.391   4.458
 3806SOL    HW112161   2.434   1.307   4.466
 3806SOL    HW212162   2.461   1.420   4.368
 3807SOL     OW12163   3.147   1.236   5.144
 3807SOL    HW112164   3.178   1.168   5.084
 3807SOL    HW212165   3.206   1.231   5.219
 3808SOL     OW12166   2.684   0.007   4.243
 3808SOL    HW112167   2.730   0.087   4.215
 3808SOL    HW212168   2.592   0.031   4.241
 3809SOL     OW12169   2.049   0.958   5.002
 3809SOL    HW112170   2.136   0.920   4.988
 3809SOL    HW212171   1.993   0.915   4.937
 3810SOL     OW12172   3.389   1.000   3.926
 3810SOL    HW112173   3.320   0.942   3.960
 3810SOL    HW212174   3.432   1.034   4.004
 3811SOL     OW12175   3.052   1.815   5.350
 3811SOL    HW112176   3.055   1.874   5.275
 3811SOL    HW212177   3.066   1.728   5.313
 3812SOL     OW12178   2.224   0.248   5.585
 3812SOL    HW112179   2.270   0.331   5.591
 3812SOL    HW212180   2.131   0.271   5.580
 3813SOL     OW12181   3.329   1.420   4.670
 3813SOL    HW112182   3.263   1.436   4.738
 3813SOL    HW212183   3.317   1.328   4.646
 3814SOL     OW12184   3.512   1.754   4.302
 3814SOL    HW112185   3.496   1.719   4.215
 3814SOL    HW212186   3.495   1.680   4.361
 3815SOL     OW12187   2.456   0.717   3.995
 3815SOL    HW112188   2.459   0.802   3.950
 3815SOL    HW212189   2.391   0.729   4.064
 3816SOL     OW12190   3.136   0.374   4.665
 3816SOL    HW112191   3.049   0.335   4.674
 3816SOL    HW212192   3.194   0.313   4.711
 3817SOL     OW12193   3.439   1.673   4.036
 3817SOL    HW112194   3.530   1.701   4.028
 3817SOL    HW212195   3.411   1.658   3.945
 3818SOL     OW12196   2.658   0.614   5.173
 3818SOL    HW112197   2.630   0.587   5.261
 3818SOL    HW212198   2.623   0.546   5.115
 3819SOL     OW12199   3.254   0.475   5.401
 3819SOL    HW112200   3.261   0.521   5.485
 3819SOL    HW212201   3.309   0.397   5.412
 3820SOL     OW12202   2.810   0.886   5.311
 3820SOL    HW112203   2.866   0.819   5.272
 3820SOL    HW212204   2.762   0.924   5.237
 3821SOL     OW12205   2.858   0.400   4.958
 3821SOL    HW112206   2.771   0.418   4.993
 3821SOL    HW212207   2.841   0.377   4.866
 3822SOL     OW12208   2.915   0.701   4.148
 3822SOL    HW112209   2.934   0.695   4.241
 3822SOL    HW212210   2.832   0.655   4.137
 3823SOL     OW12211   1.948   0.823   4.502
 3823SOL    HW112212   2.028   0.816   4.553
 3823SOL    HW212213   1.902   0.899   4.538
 3824SOL     OW12214   2.757   0.353   3.925
 3824SOL    HW112215   2.800   0.413   3.864
 3824SOL    HW212216   2.746   0.272   3.875
 3825SOL     OW12217   3.565   0.571   5.554
 3825SOL    HW112218   3.530   0.646   5.506
 3825SOL    HW212219   3.592   0.509   5.486
 3826SOL     OW12220   3.240   1.141   4.263
 3826SOL    HW112221   3.320   1.130   4.211
 3826SOL    HW212222   3.188   1.205   4.213
 3827SOL     OW12223   2.422   0.200   4.603
 3827SOL    HW112224   2.424   0.219   4.697
 3827SOL    HW212225   2.417   0.285   4.561
 3828SOL     OW12226   2.861   1.443   4.192
 3828SOL    HW112227   2.831   1.518   4.141
 3828SOL    HW212228   2.836   1.464   4.282
 3829SOL     OW12229   2.255   1.818   4.541
 3829SOL    HW112230   2.249   1.723   4.552
 3829SOL    HW212231   2.329   1.844   4.595
 3830SOL     OW12232   3.669   1.063   4.594
 3830SOL    HW112233   3.617   1.034   4.519
 3830SOL    HW212234   3.607   1.065   4.666
 3831SOL     OW12235   3.089   1.541   5.237
 3831SOL    HW112236   3.076   1.469   5.299
 3831SOL    HW212237   3.018   1.531   5.174
 3832SOL     OW12238   2.177   0.962   3.979
 3832SOL    HW112239   2.260   0.982   3.935
 3832SOL    HW212240   2.149   0.878   3.942
 3833SOL     OW12241   3.344   0.752   4.450
 3833SOL    HW112242   3.340   0.712   4.537
 3833SOL    HW212243   3.421   0.809   4.453
 3834SOL     OW12244   2.335   1.263   5.469
 3834SOL    HW112245   2.309   1.266   5.377
 3834SOL    HW212246   2.252   1.259   5.517
 3835SOL     OW12247   2.990   1.776   3.954
 3835SOL    HW112248   2.912   1.739   3.996
 3835SOL    HW212249   3.013   1.714   3.885
 3836SOL     OW12250   2.026   0.273   5.225
 3836SOL    HW112251   1.980   0.355   5.205
 3836SOL    HW212252   2.026   0.269   5.320
 3837SOL     OW12253   3.486   1.386   3.811
 3837SOL    HW112254   3.442   1.470   3.797
 3837SOL    HW212255   3.419   1.321   3.791
 3838SOL     OW12256   2.334   1.721   4.062
 3838SOL    HW112257   2.381   1.789   4.110
 3838SOL    HW212258   2.391   1.700   3.988
 3839SOL     OW12259   3.299   0.178   4.126
 3839SOL    HW112260   3.245   0.103   4.103
 3839SOL    HW212261   3.375   0.141   4.172
 3840SOL     OW12262   2.122   1.733   4.972
 3840SOL    HW112263   2.156   1.650   5.006
 3840SOL    HW212264   2.135   1.727   4.877
 3841SOL     OW12265   2.799   1.699   4.620
 3841SOL    HW112266   2.879   1.651   4.643
 3841SOL    HW212267   2.760   1.648   4.549
 3842SOL     OW12268   2.259   0.695   4.196
 3842SOL    HW112269   2.275   0.602   4.210
 3842SOL    HW212270   2.166   0.707   4.214
 3843SOL     OW12271   3.391   0.227   5.450
 3843SOL    HW112272   3.380   0.250   5.542
 3843SOL    HW212273   3.381   0.132   5.448
 3844SOL     OW12274   2.507   0.125   3.835
 3844SOL    HW112275   2.524   0.039   3.873
 3844SOL    HW212276   2.445   0.108   3.764
 3845SOL     OW12277   2.633   0.285   5.499
 3845SOL    HW112278   2.713   0.232   5.500
 3845SOL    HW212279   2.580   0.249   5.570
 3846SOL     OW12280   2.739   1.523   4.917
 3846SOL    HW112281   2.722   1.484   4.831
 3846SOL    HW212282   2.808   1.469   4.955
 3847SOL     OW12283   3.200   0.587   5.155
 3847SOL    HW112284   3.231   0.559   5.241
 3847SOL    HW212285   3.234   0.676   5.145
 3848SOL     OW12286   2.681   1.388   4.671
 3848SOL    HW112287   2.766   1.377   4.628
 3848SOL    HW212288   2.618   1.395   4.598
 3849SOL     OW12289   2.793   0.512   4.621
 3849SOL    HW112290   2.767   0.504   4.529
 3849SOL    HW212291   2.817   0.424   4.648
 3850SOL     OW12292   2.406   0.055   4.215
 3850SOL    HW112293   2.332   0.061   4.275
 3850SOL    HW212294   2.401   0.136   4.164
 3851SOL     OW12295   3.288   1.201   3.762
 3851SOL    HW112296   3.318   1.127   3.815
 3851SOL    HW212297   3.203   1.224   3.799
 3852SOL     OW12298   2.194   0.048   3.938
 3852SOL    HW112299   2.198   0.110   3.866
 3852SOL    HW212300   2.272   0.067   3.990
 3853SOL     OW12301   2.808   0.252   4.181
 3853SOL    HW112302   2.782   0.290   4.097
 3853SOL    HW212303   2.903   0.260   4.183
 3854SOL     OW12304   2.941   0.687   5.180
 3854SOL    HW112305   2.872   0.621   5.187
 3854SOL    HW212306   3.022   0.637   5.176
 3855SOL     OW12307   3.080   1.573   4.519
 3855SOL    HW112308   3.095   1.638   4.450
 3855SOL    HW212309   3.150   1.589   4.582
 3856SOL     OW12310   2.336   1.153   4.451
 3856SOL    HW112311   2.269   1.134   4.516
 3856SOL    HW212312   2.292   1.141   4.366
 3857SOL     OW12313   3.126   1.791   4.337
 3857SOL    HW112314   3.175   1.853   4.282
 3857SOL    HW212315   3.057   1.845   4.377
 3858SOL     OW12316   2.883   0.537   3.756
 3858SOL    HW112317   2.839   0.620   3.736
 3858SOL    HW212318   2.946   0.560   3.824
 3859SOL     OW12319   1.948   0.547   5.122
 3859SOL    HW112320   2.039   0.552   5.092
 3859SOL    HW212321   1.939   0.620   5.183
 3860SOL     OW12322   2.423   0.230   4.884
 3860SOL    HW112323   2.445   0.138   4.894
 3860SOL    HW212324   2.334   0.237   4.918
 3861SOL     OW12325   2.732   0.460   4.360
 3861SOL    HW112326   2.686   0.516   4.297
 3861SOL    HW212327   2.754   0.381   4.311
 3862SOL     OW12328   2.860   0.036   4.507
 3862SOL    HW112329   2.818   0.069   4.427
 3862SOL    HW212330   2.872   3.942   4.491
 3863SOL     OW12331   3.304   1.159   4.582
 3863SOL    HW112332   3.230   1.099   4.581
 3863SOL    HW212333   3.329   1.168   4.489
 3864SOL     OW12334   3.325   0.611   4.692
 3864SOL    HW112335   3.268   0.534   4.698
 3864SOL    HW212336   3.383   0.603   4.768
 3865SOL     OW12337   3.722   0.825   4.099
 3865SOL    HW112338   3.761   0.768   4.164
 3865SOL    HW212339   3.685   0.766   4.033
 3866SOL     OW12340   2.354   1.422   3.876
 3866SOL    HW112341   2.278   1.397   3.928
 3866SOL    HW212342   2.348   1.369   3.797
 3867SOL     OW12343   3.532   1.267   4.365
 3867SOL    HW112344   3.627   1.269   4.375
 3867SOL    HW212345   3.504   1.355   4.386
 3868SOL     OW12346   3.257   0.578   3.791
 3868SOL    HW112347   3.193   0.559   3.860
 3868SOL    HW212348   3.342   0.565   3.833
 3869SOL     OW12349   2.387   0.265   4.039
 3869SOL    HW112350   2.445   0.228   3.973
 3869SOL    HW212351   2.357   0.348   4.000
 3870SOL     OW12352   3.611   1.231   5.282
 3870SOL    HW112353   3.699   1.197   5.266
 3870SOL    HW212354   3.625   1.321   5.312
 3871SOL     OW12355   2.916   1.352   5.053
 3871SOL    HW112356   2.840   1.321   5.104
 3871SOL    HW212357   2.991   1.312   5.097
 3872SOL     OW12358   3.469   1.630   5.383
 3872SOL    HW112359   3.459   1.665   5.295
 3872SOL    HW212360   3.548   1.575   5.379
 3873SOL     OW12361   2.997   1.210   4.825
 3873SOL    HW112362   2.938   1.249   4.890
 3873SOL    HW212363   2.968   1.246   4.742
 3874SOL     OW12364   3.486   1.093   4.798
 3874SOL    HW112365   3.476   1.156   4.869
 3874SOL    HW212366   3.413   1.111   4.739
 3875SOL     OW12367   2.773   0.121   5.125
 3875SOL    HW112368   2.793   0.090   5.037
 3875SOL    HW212369   2.854   0.162   5.155
 3876SOL     OW12370   2.848   1.115   5.448
 3876SOL    HW112371   2.757   1.134   5.473
 3876SOL    HW212372   2.842   1.036   5.394
 3877SOL     OW12373   2.572   1.063   4.095
 3877SOL    HW112374   2.557   1.043   4.187
 3877SOL    HW212375   2.647   1.009   4.070
 3878SOL     OW12376   2.284   0.818   4.977
 3878SOL    HW112377   2.353   0.827   5.043
 3878SOL    HW212378   2.249   0.730   4.990
 3879SOL     OW12379   3.128   0.375   5.002
 3879SOL    HW112380   3.161   0.453   5.045
 3879SOL    HW212381   3.040   0.398   4.972
 3880SOL     OW12382   2.201   1.119   4.213
 3880SOL    HW112383   2.201   1.195   4.155
 3880SOL    HW212384   2.199   1.044   4.154
 3881SOL     OW12385   2.414   0.526   4.578
 3881SOL    HW112386   2.426   0.587   4.505
 3881SOL    HW212387   2.479   0.553   4.643
 3882SOL     OW12388   3.109   1.350   4.115
 3882SOL    HW112389   3.164   1.421   4.147
 3882SOL    HW212390   3.021   1.371   4.148
 3883SOL     OW12391   3.152   1.462   4.873
 3883SOL    HW112392   3.208   1.467   4.951
 3883SOL    HW212393   3.096   1.385   4.889
 3884SOL     OW12394   3.429   0.635   4.213
 3884SOL    HW112395   3.386   0.685   4.282
 3884SOL    HW212396   3.475   0.701   4.160
 3885SOL     OW12397   2.219   1.491   5.043
 3885SOL    HW112398   2.207   1.461   4.953
 3885SOL    HW212399   2.312   1.515   5.048
 3886SOL     OW12400   2.285   0.743   5.328
 3886SOL    HW112401   2.345   0.788   5.268
 3886SOL    HW212402   2.328   0.660   5.348
 3887SOL     OW12403   3.470   0.781   5.411
 3887SOL    HW112404   3.384   0.823   5.406
 3887SOL    HW212405   3.522   0.823   5.344
 3888SOL     OW12406   2.866   0.143   5.507
 3888SOL    HW112407   2.925   0.210   5.474
 3888SOL    HW212408   2.854   0.083   5.433
 3889SOL     OW12409   2.353   0.035   5.484
 3889SOL    HW112410   2.351   0.052   5.390
 3889SOL    HW212411   2.293   0.099   5.521
 3890SOL     OW12412   2.447   0.875   4.756
 3890SOL    HW112413   2.480   0.965   4.759
 3890SOL    HW212414   2.390   0.868   4.833
 3891SOL     OW12415   3.207   0.859   4.744
 3891SOL    HW112416   3.120   0.843   4.706
 3891SOL    HW212417   3.253   0.775   4.734
 3892SOL     OW12418   3.059   0.540   3.977
 3892SOL    HW112419   3.066   0.461   4.031
 3892SOL    HW212420   3.017   0.604   4.035
 3893SOL     OW12421   2.158   0.207   4.967
 3893SOL    HW112422   2.115   0.235   5.048
 3893SOL    HW212423   2.148   0.112   4.967
 3894SOL     OW12424   1.912   1.339   5.019
 3894SOL    HW112425   1.937   1.268   5.078
 3894SOL    HW212426   1.990   1.395   5.015
 3895SOL     OW12427   2.580   0.630   4.772
 3895SOL    HW112428   2.658   0.621   4.717
 3895SOL    HW212429   2.550   0.720   4.756
 3896SOL     OW12430   3.594   0.956   5.594
 3896SOL    HW112431   3.553   0.891   5.536
 3896SOL    HW212432   3.528   0.974   5.661
 3897SOL     OW12433   2.186   0.053   4.384
 3897SOL    HW112434   2.165   0.145   4.393
 3897SOL    HW212435   2.162   0.014   4.468
 3898SOL     OW12436   3.477   0.399   4.101
 3898SOL    HW112437   3.431   0.330   4.149
 3898SOL    HW212438   3.455   0.479   4.147
 3899SOL     OW12439   2.894   0.759   4.681
 3899SOL    HW112440   2.883   0.775   4.774
 3899SOL    HW212441   2.865   0.668   4.669
 3900SOL     OW12442   2.849   1.572   5.445
 3900SOL    HW112443   2.830   1.613   5.361
 3900SOL    HW212444   2.885   1.486   5.423
 3901SOL     OW12445   3.702   1.492   5.320
 3901SOL    HW112446   3.727   1.525   5.234
 3901SOL    HW212447   3.782   1.500   5.372
 3902SOL     OW12448   2.212   0.915   5.531
 3902SOL    HW112449   2.292   0.938   5.578
 3902SOL    HW212450   2.241   0.852   5.465
 3903SOL     OW12451   3.357   0.269   3.855
 3903SOL    HW112452   3.286   0.206   3.864
 3903SOL    HW212453   3.367   0.308   3.942
 3904SOL     OW12454   3.147   0.827   3.750
 3904SOL    HW112455   3.189   0.741   3.754
 3904SOL    HW212456   3.180   0.866   3.669
 3905SOL     OW12457   2.932   1.340   4.582
 3905SOL    HW112458   2.937   1.268   4.519
 3905SOL    HW212459   2.989   1.408   4.546
 3906SOL     OW12460   2.170   0.811   4.669
 3906SOL    HW112461   2.263   0.832   4.662
 3906SOL    HW212462   2.167   0.721   4.701
 3907SOL     OW12463   2.198   0.539   4.739
 3907SOL    HW112464   2.156   0.454   4.725
 3907SOL    HW212465   2.274   0.538   4.680
 3908SOL     OW12466   2.995   0.378   5.424
 3908SOL    HW112467   2.946   0.433   5.486
 3908SOL    HW212468   3.082   0.420   5.419
 3909SOL     OW12469   3.014   0.226   5.205
 3909SOL    HW112470   3.004   0.279   5.285
 3909SOL    HW212471   3.042   0.288   5.138
 3910SOL     OW12472   1.868   1.319   3.917
 3910SOL    HW112473   1.781   1.334   3.880
 3910SOL    HW212474   1.864   1.230   3.952
 3911SOL     OW12475   2.355   1.569   4.633
 3911SOL    HW112476   2.420   1.637   4.652
 3911SOL    HW212477   2.400   1.509   4.572
 3912SOL     OW12478   2.834   0.784   4.945
 3912SOL    HW112479   2.893   0.768   5.019
 3912SOL    HW212480   2.750   0.749   4.973
 3913SOL     OW12481   1.895   0.549   4.842
 3913SOL    HW112482   1.969   0.526   4.786
 3913SOL    HW212483   1.931   0.547   4.930
 3914SOL     OW12484   2.066   0.528   5.434
 3914SOL    HW112485   2.141   0.509   5.378
 3914SOL    HW212486   2.024   0.604   5.395
 3915SOL     OW12487   3.244   0.932   5.380
 3915SOL    HW112488   3.264   1.026   5.376
 3915SOL    HW212489   3.238   0.906   5.288
 3916SOL     OW12490   2.679   0.573   4.092
 3916SOL    HW112491   2.686   0.498   4.033
 3916SOL    HW212492   2.605   0.623   4.060
 3917SOL     OW12493   3.499   0.602   4.903
 3917SOL    HW112494   3.488   0.542   4.976
 3917SOL    HW212495   3.586   0.582   4.868
 3918SOL     OW12496   2.084   1.557   5.463
 3918SOL    HW112497   2.045   1.588   5.545
 3918SOL    HW212498   2.115   1.469   5.484
 3919SOL     OW12499   2.578   0.448   4.974
 3919SOL    HW112500   2.524   0.373   4.952
 3919SOL    HW212501   2.566   0.509   4.901
 3920SOL     OW12502   2.789   1.676   5.193
 3920SOL    HW112503   2.758   1.638   5.111
 3920SOL    HW212504   2.783   1.771   5.180
 3921SOL     OW12505   2.322   0.492   3.902
 3921SOL    HW112506   2.380   0.564   3.928
 3921SOL    HW212507   2.236   0.534   3.891
 3922SOL     OW12508   1.999   1.141   5.194
 3922SOL    HW112509   2.003   1.095   5.278
 3922SOL    HW212510   2.016   1.073   5.128
 3923SOL     OW12511   3.180   1.042   4.943
 3923SOL    HW112512   3.202   0.979   4.874
 3923SOL    HW212513   3.115   1.100   4.904
 3924SOL     OW12514   3.178   0.853   4.027
 3924SOL    HW112515   3.103   0.827   4.080
 3924SOL    HW212516   3.149   0.843   3.936
 3925SOL     OW12517   3.647   1.737   4.885
 3925SOL    HW112518   3.702   1.765   4.812
 3925SOL    HW212519   3.615   1.651   4.860
 3926SOL     OW12520   3.102   1.733   4.828
 3926SOL    HW112521   3.185   1.757   4.787
 3926SOL    HW212522   3.112   1.640   4.850
 3927SOL     OW12523   1.954   1.249   4.754
 3927SOL    HW112524   1.921   1.275   4.840
 3927SOL    HW212525   1.877   1.216   4.708
 3928SOL     OW12526   2.540   1.667   5.455
 3928SOL    HW112527   2.485   1.745   5.464
 3928SOL    HW212528   2.606   1.693   5.391
 3929SOL     OW12529   3.548   0.117   4.213
 3929SOL    HW112530   3.628   0.134   4.164
 3929SOL    HW212531   3.553   0.025   4.236
 3930SOL     OW12532   3.254   1.567   4.216
 3930SOL    HW112533   3.312   1.601   4.148
 3930SOL    HW212534   3.203   1.643   4.244
 3931SOL     OW12535   3.139   0.928   4.394
 3931SOL    HW112536   3.214   0.870   4.407
 3931SOL    HW212537   3.173   1.000   4.341
 3932SOL     OW12538   2.666   1.276   5.147
 3932SOL    HW112539   2.638   1.317   5.229
 3932SOL    HW212540   2.596   1.297   5.085
 3933SOL     OW12541   2.533   1.627   3.878
 3933SOL    HW112542   2.546   1.640   3.784
 3933SOL    HW212543   2.477   1.550   3.884
 3934SOL     OW12544   3.479   1.728   5.117
 3934SOL    HW112545   3.536   1.732   5.040
 3934SOL    HW212546   3.465   1.820   5.140
 3935SOL     OW12547   3.706   0.182   4.695
 3935SOL    HW112548   3.729   0.097   4.658
 3935SOL    HW212549   3.620   0.202   4.658
 3936SOL     OW12550   2.123   0.314   4.438
 3936SOL    HW112551   2.037   0.349   4.415
 3936SOL    HW212552   2.122   0.310   4.534
 3937SOL     OW12553   3.070   1.600   3.757
 3937SOL    HW112554   3.059   1.509   3.784
 3937SOL    HW212555   3.003   1.614   3.690
 3938SOL     OW12556   2.686   1.007   5.098
 3938SOL    HW112557   2.727   1.003   5.012
 3938SOL    HW212558   2.681   1.101   5.118
 3939SOL     OW12559   2.778   0.910   4.014
 3939SOL    HW112560   2.838   0.944   3.948
 3939SOL    HW212561   2.828   0.843   4.061
 3940SOL     OW12562   3.349   1.633   3.769
 3940SOL    HW112563   3.255   1.621   3.754
 3940SOL    HW212564   3.387   1.638   3.682
 3941SOL     OW12565   2.228   1.292   5.228
 3941SOL    HW112566   2.227   1.364   5.165
 3941SOL    HW212567   2.150   1.240   5.207
 3942SOL     OW12568   3.460   1.281   4.999
 3942SOL    HW112569   3.527   1.269   5.066
 3942SOL    HW212570   3.402   1.349   5.034
 3943SOL     OW12571   2.924   1.111   4.436
 3943SOL    HW112572   2.851   1.061   4.472
 3943SOL    HW212573   2.987   1.045   4.409
 3944SOL     OW12574   2.878   0.250   4.695
 3944SOL    HW112575   2.868   0.199   4.615
 3944SOL    HW212576   2.877   0.185   4.766
 3945SOL     OW12577   2.468   1.492   4.204
 3945SOL    HW112578   2.511   1.441   4.136
 3945SOL    HW212579   2.400   1.541   4.158
 3946SOL     OW12580   3.583   0.396   5.094
 3946SOL    HW112581   3.656   0.458   5.095
 3946SOL    HW212582   3.615   0.323   5.040
 3947SOL     OW12583   2.125   1.339   4.016
 3947SOL    HW112584   2.032   1.338   3.991
 3947SOL    HW212585   2.125   1.378   4.104
 3948SOL     OW12586   1.976   1.034   5.447
 3948SOL    HW112587   1.900   1.007   5.498
 3948SOL    HW212588   2.050   0.991   5.489
 3949SOL     OW12589   2.559   0.267   5.230
 3949SOL    HW112590   2.624   0.209   5.189
 3949SOL    HW212591   2.585   0.269   5.322
 3950SOL     OW12592   1.966   0.317   3.716
 3950SOL    HW112593   1.899   0.336   3.782
 3950SOL    HW212594   1.972   0.397   3.664
 3951SOL     OW12595   3.283   0.855   5.119
 3951SOL    HW112596   3.233   0.917   5.066
 3951SOL    HW212597   3.372   0.859   5.083
 3952SOL     OW12598   1.941   0.148   4.062
 3952SOL    HW112599   1.909   0.206   3.993
 3952SOL    HW212600   2.029   0.123   4.033
 3953SOL     OW12601   3.040   1.334   3.842
 3953SOL    HW112602   2.948   1.305   3.844
 3953SOL    HW212603   3.066   1.335   3.934
 3954SOL     OW12604   2.486   0.828   5.158
 3954SOL    HW112605   2.542   0.904   5.144
 3954SOL    HW212606   2.546   0.754   5.166
 3955SOL     OW12607   3.344   1.787   4.706
 3955SOL    HW112608   3.367   1.855   4.641
 3955SOL    HW212609   3.429   1.753   4.735
 3956SOL     OW12610   2.580   0.559   5.427
 3956SOL    HW112611   2.624   0.620   5.485
 3956SOL    HW212612   2.600   0.472   5.462
 3957SOL     OW12613   3.336   1.192   5.352
 3957SOL    HW112614   3.324   1.209   5.445
 3957SOL    HW212615   3.428   1.210   5.335
 3958SOL     OW12616   2.232   1.735   5.303
 3958SOL    HW112617   2.175   1.742   5.226
 3958SOL    HW212618   2.193   1.665   5.356
 3959SOL     OW12619   3.523   0.880   4.983
 3959SOL    HW112620   3.523   0.795   4.939
 3959SOL    HW212621   3.516   0.944   4.912
 3960SOL     OW12622   3.080   0.341   4.164
 3960SOL    HW112623   3.150   0.277   4.154
 3960SOL    HW212624   3.098   0.384   4.247
 3961SOL     OW12625   2.449   0.733   4.396
 3961SOL    HW112626   2.489   0.819   4.383
 3961SOL    HW212627   2.384   0.725   4.327
 3962SOL     OW12628   3.614   0.380   5.366
 3962SOL    HW112629   3.594   0.390   5.273
 3962SOL    HW212630   3.552   0.314   5.396
 3963SOL     OW12631   3.617   0.930   5.236
 3963SOL    HW112632   3.605   1.023   5.255
 3963SOL    HW212633   3.590   0.920   5.144
 3964SOL     OW12634   2.726   1.365   3.768
 3964SOL    HW112635   2.688   1.390   3.852
 3964SOL    HW212636   2.741   1.448   3.722
 3965SOL     OW12637   2.524   1.791   4.657
 3965SOL    HW112638   2.519   1.887   4.654
 3965SOL    HW212639   2.618   1.772   4.657
 3966SOL     OW12640   2.732   0.971   4.578
 3966SOL    HW112641   2.782   0.899   4.615
 3966SOL    HW212642   2.692   1.015   4.653
 3967SOL     OW12643   2.939   0.990   3.814
 3967SOL    HW112644   2.917   1.042   3.737
 3967SOL    HW212645   3.012   0.935   3.786
 3968SOL     OW12646   3.709   1.556   4.564
 3968SOL    HW112647   3.630   1.541   4.513
 3968SOL    HW212648   3.708   1.488   4.631
 3969SOL     OW12649   2.090   1.294   5.578
 3969SOL    HW112650   2.028   1.227   5.549
 3969SOL    HW212651   2.060   1.318   5.666
 3970SOL     OW12652   1.947   1.208   4.387
 3970SOL    HW112653   1.973   1.170   4.470
 3970SOL    HW212654   2.021   1.191   4.328
 3971SOL     OW12655   2.544   1.407   5.351
 3971SOL    HW112656   2.469   1.364   5.393
 3971SOL    HW212657   2.544   1.496   5.388
 3972SOL     OW12658   3.675   0.181   4.968
 3972SOL    HW112659   3.676   0.086   4.978
 3972SOL    HW212660   3.694   0.196   4.876
 3973SOL     OW12661   2.289   0.434   4.249
 3973SOL    HW112662   2.325   0.363   4.196
 3973SOL    HW212663   2.241   0.390   4.319
 3974SOL     OW12664   3.555   1.490   4.819
 3974SOL    HW112665   3.478   1.469   4.766
 3974SOL    HW212666   3.561   1.418   4.882
 3975SOL     OW12667   2.197   0.558   5.020
 3975SOL    HW112668   2.249   0.497   5.074
 3975SOL    HW212669   2.216   0.532   4.930
 3976SOL     OW12670   2.694   1.577   4.399
 3976SOL    HW112671   2.672   1.640   4.330
 3976SOL    HW212672   2.620   1.517   4.401
 3977SOL     OW12673   3.322   0.255   4.833
 3977SOL    HW112674   3.336   0.167   4.869
 3977SOL    HW212675   3.267   0.298   4.899
 3978SOL     OW12676   2.863   0.024   4.869
 3978SOL    HW112677   2.779   0.006   4.827
 3978SOL    HW212678   2.904   3.938   4.877
 3979SOL     OW12679   2.637   1.334   4.043
 3979SOL    HW112680   2.609   1.243   4.053
 3979SOL    HW212681   2.717   1.340   4.095
 3980SOL     OW12682   2.484   1.553   5.009
 3980SOL    HW112683   2.482   1.634   5.059
 3980SOL    HW212684   2.573   1.549   4.973
 3981SOL     OW12685   3.166   0.068   3.882
 3981SOL    HW112686   3.169   3.978   3.851
 3981SOL    HW212687   3.086   0.073   3.934
 3982SOL     OW12688   3.139   0.456   4.407
 3982SOL    HW112689   3.094   0.540   4.401
 3982SOL    HW212690   3.143   0.438   4.501
 3983SOL     OW12691   3.454   0.210   4.592
 3983SOL    HW112692   3.405   0.234   4.670
 3983SOL    HW212693   3.452   0.288   4.537
 3984SOL     OW12694   1.904   1.068   4.030
 3984SOL    HW112695   1.998   1.061   4.013
 3984SOL    HW212696   1.878   0.979   4.056
 3985SOL     OW12697   2.753   1.659   4.059
 3985SOL    HW112698   2.677   1.644   4.003
 3985SOL    HW212699   2.727   1.732   4.116
 3986SOL     OW12700   2.084   0.618   5.707
 3986SOL    HW112701   1.994   0.629   5.738
 3986SOL    HW212702   2.075   0.599   5.613
 3987SOL     OW12703   2.078   0.302   6.578
 3987SOL    HW112704   2.115   0.259   6.655
 3987SOL    HW212705   1.993   0.261   6.566
 3988SOL     OW12706   1.870   0.400   6.216
 3988SOL    HW112707   1.785   0.416   6.258
 3988SOL    HW212708   1.851   0.334   6.149
 3989SOL     OW12709   2.410   1.262   6.753
 3989SOL    HW112710   2.329   1.227   6.716
 3989SOL    HW212711   2.382   1.331   6.813
 3990SOL     OW12712   3.431   1.514   6.295
 3990SOL    HW112713   3.387   1.492   6.377
 3990SOL    HW212714   3.360   1.517   6.231
 3991SOL     OW12715   2.996   0.699   6.279
 3991SOL    HW112716   3.043   0.781   6.267
 3991SOL    HW212717   2.948   0.710   6.361
 3992SOL     OW12718   3.629   0.624   5.810
 3992SOL    HW112719   3.607   0.611   5.717
 3992SOL    HW212720   3.604   0.542   5.852
 3993SOL     OW12721   2.617   1.141   6.618
 3993SOL    HW112722   2.550   1.186   6.669
 3993SOL    HW212723   2.674   1.212   6.586
 3994SOL     OW12724   2.739   0.762   7.412
 3994SOL    HW112725   2.722   0.833   7.473
 3994SOL    HW212726   2.758   0.806   7.329
 3995SOL     OW12727   2.540   1.002   6.227
 3995SOL    HW112728   2.606   0.994   6.296
 3995SOL    HW212729   2.484   1.075   6.256
 3996SOL     OW12730   2.581   1.146   7.393
 3996SOL    HW112731   2.633   1.221   7.425
 3996SOL    HW212732   2.497   1.185   7.368
 3997SOL     OW12733   3.331   1.502   6.942
 3997SOL    HW112734   3.384   1.581   6.953
 3997SOL    HW212735   3.259   1.513   7.004
 3998SOL     OW12736   2.309   0.389   7.075
 3998SOL    HW112737   2.402   0.363   7.077
 3998SOL    HW212738   2.262   0.306   7.085
 3999SOL     OW12739   3.472   0.450   6.321
 3999SOL    HW112740   3.407   0.484   6.259
 3999SOL    HW212741   3.488   0.522   6.382
 4000SOL     OW12742   2.117   1.709   6.090
 4000SOL    HW112743   2.053   1.771   6.057
 4000SOL    HW212744   2.178   1.696   6.017
 4001SOL     OW12745   3.022   1.316   7.274
 4001SOL    HW112746   3.063   1.313   7.361
 4001SOL    HW212747   2.965   1.239   7.271
 4002SOL     OW12748   2.098   1.077   6.543
 4002SOL    HW112749   2.127   0.986   6.536
 4002SOL    HW212750   2.005   1.075   6.522
 4003SOL     OW12751   2.457   1.756   7.000
 4003SOL    HW112752   2.378   1.767   7.053
 4003SOL    HW212753   2.523   1.811   7.043
 4004SOL     OW12754   2.440   0.985   5.722
 4004SOL    HW112755   2.489   1.030   5.654
 4004SOL    HW212756   2.477   1.016   5.804
 4005SOL     OW12757   3.447   0.144   7.041
 4005SOL    HW112758   3.476   0.215   6.984
 4005SOL    HW212759   3.403   0.188   7.114
 4006SOL     OW12760   1.982   0.656   6.144
 4006SOL    HW112761   1.954   0.567   6.168
 4006SOL    HW212762   1.975   0.706   6.226
 4007SOL     OW12763   3.704   1.758   5.921
 4007SOL    HW112764   3.775   1.734   5.981
 4007SOL    HW212765   3.721   1.850   5.900
 4008SOL     OW12766   1.935   1.575   5.691
 4008SOL    HW112767   1.908   1.492   5.729
 4008SOL    HW212768   1.856   1.628   5.690
 4009SOL     OW12769   3.552   0.920   6.237
 4009SOL    HW112770   3.635   0.875   6.219
 4009SOL    HW212771   3.534   0.969   6.157
 4010SOL     OW12772   3.505   1.101   6.019
 4010SOL    HW112773   3.590   1.106   5.974
 4010SOL    HW212774   3.511   1.166   6.089
 4011SOL     OW12775   1.993   0.747   7.162
 4011SOL    HW112776   2.085   0.773   7.160
 4011SOL    HW212777   1.945   0.827   7.182
 4012SOL     OW12778   3.153   1.230   7.009
 4012SOL    HW112779   3.183   1.165   6.946
 4012SOL    HW212780   3.215   1.222   7.082
 4013SOL     OW12781   2.684   0.008   6.105
 4013SOL    HW112782   2.730   0.087   6.077
 4013SOL    HW212783   2.592   0.031   6.103
 4014SOL     OW12784   2.047   0.948   6.864
 4014SOL    HW112785   2.133   0.911   6.845
 4014SOL    HW212786   1.991   0.919   6.792
 4015SOL     OW12787   3.389   0.999   5.788
 4015SOL    HW112788   3.320   0.942   5.821
 4015SOL    HW212789   3.431   1.034   5.867
 4016SOL     OW12790   3.075   1.798   7.186
 4016SOL    HW112791   3.069   1.856   7.110
 4016SOL    HW212792   3.085   1.711   7.148
 4017SOL     OW12793   2.224   0.247   7.448
 4017SOL    HW112794   2.269   0.331   7.453
 4017SOL    HW212795   2.131   0.270   7.442
 4018SOL     OW12796   3.329   1.418   6.534
 4018SOL    HW112797   3.262   1.431   6.601
 4018SOL    HW212798   3.318   1.326   6.507
 4019SOL     OW12799   3.511   1.754   6.165
 4019SOL    HW112800   3.496   1.719   6.077
 4019SOL    HW212801   3.494   1.679   6.223
 4020SOL     OW12802   2.456   0.717   5.857
 4020SOL    HW112803   2.460   0.802   5.812
 4020SOL    HW212804   2.392   0.729   5.926
 4021SOL     OW12805   3.136   0.374   6.528
 4021SOL    HW112806   3.049   0.335   6.536
 4021SOL    HW212807   3.194   0.313   6.573
 4022SOL     OW12808   3.440   1.672   5.897
 4022SOL    HW112809   3.531   1.700   5.889
 4022SOL    HW212810   3.411   1.658   5.807
 4023SOL     OW12811   2.656   0.615   7.035
 4023SOL    HW112812   2.629   0.587   7.122
 4023SOL    HW212813   2.622   0.546   6.977
 4024SOL     OW12814   3.254   0.475   7.264
 4024SOL    HW112815   3.261   0.521   7.347
 4024SOL    HW212816   3.309   0.398   7.274
 4025SOL     OW12817   2.809   0.882   7.170
 4025SOL    HW112818   2.865   0.814   7.132
 4025SOL    HW212819   2.761   0.918   7.096
 4026SOL     OW12820   2.857   0.401   6.819
 4026SOL    HW112821   2.770   0.417   6.854
 4026SOL    HW212822   2.843   0.376   6.728
 4027SOL     OW12823   2.916   0.701   6.010
 4027SOL    HW112824   2.934   0.694   6.103
 4027SOL    HW212825   2.832   0.656   5.998
 4028SOL     OW12826   1.952   0.813   6.363
 4028SOL    HW112827   2.034   0.808   6.411
 4028SOL    HW212828   1.905   0.886   6.403
 4029SOL     OW12829   2.757   0.353   5.787
 4029SOL    HW112830   2.800   0.414   5.726
 4029SOL    HW212831   2.746   0.273   5.737
 4030SOL     OW12832   3.563   0.571   7.417
 4030SOL    HW112833   3.529   0.646   7.368
 4030SOL    HW212834   3.591   0.510   7.349
 4031SOL     OW12835   3.240   1.141   6.125
 4031SOL    HW112836   3.320   1.131   6.073
 4031SOL    HW212837   3.187   1.204   6.075
 4032SOL     OW12838   2.422   0.199   6.466
 4032SOL    HW112839   2.424   0.219   6.559
 4032SOL    HW212840   2.417   0.285   6.423
 4033SOL     OW12841   2.864   1.453   6.056
 4033SOL    HW112842   2.805   1.524   6.029
 4033SOL    HW212843   2.869   1.461   6.151
 4034SOL     OW12844   2.216   1.810   6.490
 4034SOL    HW112845   2.237   1.742   6.426
 4034SOL    HW212846   2.254   1.890   6.454
 4035SOL     OW12847   3.669   1.063   6.455
 4035SOL    HW112848   3.618   1.034   6.380
 4035SOL    HW212849   3.607   1.065   6.528
 4036SOL     OW12850   3.099   1.529   7.083
 4036SOL    HW112851   3.099   1.448   7.134
 4036SOL    HW212852   3.024   1.520   7.024
 4037SOL     OW12853   2.179   0.951   5.834
 4037SOL    HW112854   2.261   0.973   5.790
 4037SOL    HW212855   2.150   0.870   5.791
 4038SOL     OW12856   3.344   0.752   6.312
 4038SOL    HW112857   3.340   0.712   6.399
 4038SOL    HW212858   3.421   0.809   6.315
 4039SOL     OW12859   3.000   1.782   5.817
 4039SOL    HW112860   2.913   1.760   5.850
 4039SOL    HW212861   3.016   1.716   5.749
 4040SOL     OW12862   2.026   0.274   7.086
 4040SOL    HW112863   1.981   0.355   7.063
 4040SOL    HW212864   2.022   0.271   7.182
 4041SOL     OW12865   3.486   1.386   5.673
 4041SOL    HW112866   3.442   1.470   5.659
 4041SOL    HW212867   3.419   1.321   5.653
 4042SOL     OW12868   2.317   1.718   5.901
 4042SOL    HW112869   2.364   1.785   5.951
 4042SOL    HW212870   2.380   1.689   5.835
 4043SOL     OW12871   3.299   0.178   5.988
 4043SOL    HW112872   3.246   0.103   5.962
 4043SOL    HW212873   3.374   0.141   6.034
 4044SOL     OW12874   2.141   1.753   6.854
 4044SOL    HW112875   2.128   1.662   6.881
 4044SOL    HW212876   2.142   1.749   6.758
 4045SOL     OW12877   2.260   0.694   6.058
 4045SOL    HW112878   2.275   0.600   6.072
 4045SOL    HW212879   2.166   0.706   6.074
 4046SOL     OW12880   3.391   0.227   7.312
 4046SOL    HW112881   3.379   0.250   7.404
 4046SOL    HW212882   3.381   0.132   7.310
 4047SOL     OW12883   2.507   0.125   5.697
 4047SOL    HW112884   2.524   0.038   5.735
 4047SOL    HW212885   2.445   0.108   5.626
 4048SOL     OW12886   2.633   0.285   7.362
 4048SOL    HW112887   2.713   0.232   7.362
 4048SOL    HW212888   2.580   0.248   7.432
 4049SOL     OW12889   3.200   0.588   7.017
 4049SOL    HW112890   3.231   0.560   7.103
 4049SOL    HW212891   3.235   0.676   7.007
 4050SOL     OW12892   2.792   0.512   6.483
 4050SOL    HW112893   2.767   0.504   6.391
 4050SOL    HW212894   2.817   0.423   6.510
 4051SOL     OW12895   2.406   0.056   6.077
 4051SOL    HW112896   2.332   0.061   6.137
 4051SOL    HW212897   2.401   0.136   6.026
 4052SOL     OW12898   3.289   1.201   5.624
 4052SOL    HW112899   3.317   1.127   5.677
 4052SOL    HW212900   3.203   1.224   5.660
 4053SOL     OW12901   2.194   0.048   5.800
 4053SOL    HW112902   2.197   0.110   5.727
 4053SOL    HW212903   2.272   0.067   5.852
 4054SOL     OW12904   2.808   0.252   6.043
 4054SOL    HW112905   2.782   0.290   5.959
 4054SOL    HW212906   2.903   0.261   6.045
 4055SOL     OW12907   2.942   0.685   7.041
 4055SOL    HW112908   2.875   0.616   7.047
 4055SOL    HW212909   3.024   0.637   7.036
 4056SOL     OW12910   3.080   1.559   6.361
 4056SOL    HW112911   3.105   1.628   6.299
 4056SOL    HW212912   3.133   1.577   6.439
 4057SOL     OW12913   3.139   1.787   6.191
 4057SOL    HW112914   3.190   1.843   6.132
 4057SOL    HW212915   3.077   1.847   6.233
 4058SOL     OW12916   2.882   0.538   5.618
 4058SOL    HW112917   2.838   0.621   5.598
 4058SOL    HW212918   2.946   0.560   5.685
 4059SOL     OW12919   1.948   0.545   6.982
 4059SOL    HW112920   2.039   0.551   6.952
 4059SOL    HW212921   1.939   0.619   7.042
 4060SOL     OW12922   2.423   0.230   6.746
 4060SOL    HW112923   2.445   0.138   6.755
 4060SOL    HW212924   2.334   0.237   6.780
 4061SOL     OW12925   2.731   0.460   6.222
 4061SOL    HW112926   2.686   0.516   6.159
 4061SOL    HW212927   2.754   0.381   6.173
 4062SOL     OW12928   2.860   0.036   6.369
 4062SOL    HW112929   2.819   0.069   6.289
 4062SOL    HW212930   2.872   3.943   6.353
 4063SOL     OW12931   3.305   1.158   6.443
 4063SOL    HW112932   3.229   1.101   6.443
 4063SOL    HW212933   3.329   1.167   6.351
 4064SOL     OW12934   3.325   0.610   6.554
 4064SOL    HW112935   3.268   0.533   6.559
 4064SOL    HW212936   3.383   0.602   6.630
 4065SOL     OW12937   3.722   0.825   5.961
 4065SOL    HW112938   3.762   0.768   6.026
 4065SOL    HW212939   3.685   0.766   5.895
 4066SOL     OW12940   2.358   1.411   5.738
 4066SOL    HW112941   2.281   1.397   5.793
 4066SOL    HW212942   2.338   1.363   5.657
 4067SOL     OW12943   3.532   1.267   6.227
 4067SOL    HW112944   3.628   1.269   6.237
 4067SOL    HW212945   3.504   1.355   6.248
 4068SOL     OW12946   3.257   0.578   5.653
 4068SOL    HW112947   3.193   0.559   5.722
 4068SOL    HW212948   3.342   0.566   5.695
 4069SOL     OW12949   2.387   0.265   5.901
 4069SOL    HW112950   2.445   0.228   5.835
 4069SOL    HW212951   2.357   0.348   5.862
 4070SOL     OW12952   3.613   1.231   7.146
 4070SOL    HW112953   3.701   1.197   7.129
 4070SOL    HW212954   3.627   1.321   7.174
 4071SOL     OW12955   2.930   1.349   6.912
 4071SOL    HW112956   2.849   1.327   6.958
 4071SOL    HW212957   2.999   1.302   6.959
 4072SOL     OW12958   3.468   1.628   7.244
 4072SOL    HW112959   3.459   1.665   7.157
 4072SOL    HW212960   3.547   1.575   7.240
 4073SOL     OW12961   2.983   1.193   6.691
 4073SOL    HW112962   2.944   1.250   6.757
 4073SOL    HW212963   2.967   1.238   6.608
 4074SOL     OW12964   3.486   1.092   6.659
 4074SOL    HW112965   3.476   1.154   6.730
 4074SOL    HW212966   3.413   1.110   6.600
 4075SOL     OW12967   2.773   0.121   6.987
 4075SOL    HW112968   2.793   0.090   6.899
 4075SOL    HW212969   2.854   0.162   7.017
 4076SOL     OW12970   2.847   1.107   7.308
 4076SOL    HW112971   2.755   1.122   7.331
 4076SOL    HW212972   2.845   1.029   7.252
 4077SOL     OW12973   2.565   1.062   5.954
 4077SOL    HW112974   2.549   1.042   6.046
 4077SOL    HW212975   2.643   1.011   5.931
 4078SOL     OW12976   2.287   0.816   6.835
 4078SOL    HW112977   2.354   0.826   6.903
 4078SOL    HW212978   2.251   0.729   6.850
 4079SOL     OW12979   3.128   0.374   6.864
 4079SOL    HW112980   3.161   0.453   6.908
 4079SOL    HW212981   3.040   0.398   6.835
 4080SOL     OW12982   2.226   1.100   6.065
 4080SOL    HW112983   2.278   1.160   6.012
 4080SOL    HW212984   2.207   1.027   6.006
 4081SOL     OW12985   2.415   0.527   6.441
 4081SOL    HW112986   2.426   0.588   6.368
 4081SOL    HW212987   2.480   0.554   6.505
 4082SOL     OW12988   3.108   1.349   5.974
 4082SOL    HW112989   3.165   1.419   6.006
 4082SOL    HW212990   3.020   1.375   6.004
 4083SOL     OW12991   3.153   1.461   6.737
 4083SOL    HW112992   3.214   1.464   6.811
 4083SOL    HW212993   3.079   1.409   6.769
 4084SOL     OW12994   3.430   0.634   6.075
 4084SOL    HW112995   3.386   0.685   6.144
 4084SOL    HW212996   3.474   0.700   6.022
 4085SOL     OW12997   2.253   1.489   6.884
 4085SOL    HW112998   2.221   1.484   6.794
 4085SOL    HW212999   2.310   1.566   6.885
 4086SOL     OW13000   2.284   0.746   7.191
 4086SOL    HW113001   2.344   0.790   7.131
 4086SOL    HW213002   2.326   0.662   7.209
 4087SOL     OW13003   3.469   0.781   7.273
 4087SOL    HW113004   3.383   0.823   7.267
 4087SOL    HW213005   3.522   0.824   7.206
 4088SOL     OW13006   2.866   0.143   7.369
 4088SOL    HW113007   2.926   0.210   7.335
 4088SOL    HW213008   2.855   0.082   7.296
 4089SOL     OW13009   2.353   0.035   7.347
 4089SOL    HW113010   2.351   0.052   7.252
 4089SOL    HW213011   2.293   0.099   7.384
 4090SOL     OW13012   2.449   0.873   6.617
 4090SOL    HW113013   2.481   0.963   6.622
 4090SOL    HW213014   2.390   0.865   6.692
 4091SOL     OW13015   3.208   0.858   6.606
 4091SOL    HW113016   3.122   0.844   6.567
 4091SOL    HW213017   3.253   0.774   6.596
 4092SOL     OW13018   3.059   0.539   5.839
 4092SOL    HW113019   3.066   0.460   5.893
 4092SOL    HW213020   3.017   0.603   5.897
 4093SOL     OW13021   2.158   0.207   6.829
 4093SOL    HW113022   2.115   0.235   6.910
 4093SOL    HW213023   2.148   0.112   6.829
 4094SOL     OW13024   1.877   1.357   6.950
 4094SOL    HW113025   1.922   1.280   6.985
 4094SOL    HW213026   1.909   1.365   6.860
 4095SOL     OW13027   2.583   0.630   6.634
 4095SOL    HW113028   2.659   0.620   6.578
 4095SOL    HW213029   2.552   0.719   6.617
 4096SOL     OW13030   3.594   0.956   7.456
 4096SOL    HW113031   3.553   0.891   7.398
 4096SOL    HW213032   3.528   0.973   7.523
 4097SOL     OW13033   2.186   0.052   6.246
 4097SOL    HW113034   2.165   0.145   6.255
 4097SOL    HW213035   2.162   0.013   6.330
 4098SOL     OW13036   3.477   0.398   5.963
 4098SOL    HW113037   3.431   0.330   6.012
 4098SOL    HW213038   3.455   0.479   6.009
 4099SOL     OW13039   2.893   0.759   6.543
 4099SOL    HW113040   2.882   0.777   6.636
 4099SOL    HW213041   2.865   0.668   6.532
 4100SOL     OW13042   2.889   1.545   7.286
 4100SOL    HW113043   2.871   1.587   7.202
 4100SOL    HW213044   2.935   1.464   7.263
 4101SOL     OW13045   3.702   1.492   7.182
 4101SOL    HW113046   3.727   1.525   7.096
 4101SOL    HW213047   3.781   1.500   7.235
 4102SOL     OW13048   2.217   0.920   7.398
 4102SOL    HW113049   2.300   0.935   7.443
 4102SOL    HW213050   2.239   0.858   7.328
 4103SOL     OW13051   3.357   0.269   5.717
 4103SOL    HW113052   3.286   0.206   5.726
 4103SOL    HW213053   3.367   0.308   5.804
 4104SOL     OW13054   3.147   0.827   5.612
 4104SOL    HW113055   3.189   0.741   5.616
 4104SOL    HW213056   3.180   0.866   5.531
 4105SOL     OW13057   2.937   1.327   6.458
 4105SOL    HW113058   2.933   1.260   6.390
 4105SOL    HW213059   2.983   1.401   6.417
 4106SOL     OW13060   2.176   0.807   6.525
 4106SOL    HW113061   2.270   0.826   6.518
 4106SOL    HW213062   2.172   0.718   6.560
 4107SOL     OW13063   2.199   0.537   6.601
 4107SOL    HW113064   2.156   0.453   6.587
 4107SOL    HW213065   2.275   0.537   6.543
 4108SOL     OW13066   2.996   0.378   7.286
 4108SOL    HW113067   2.947   0.432   7.348
 4108SOL    HW213068   3.082   0.420   7.281
 4109SOL     OW13069   3.014   0.225   7.068
 4109SOL    HW113070   3.004   0.278   7.147
 4109SOL    HW213071   3.042   0.287   7.000
 4110SOL     OW13072   1.872   1.316   5.778
 4110SOL    HW113073   1.784   1.332   5.744
 4110SOL    HW213074   1.869   1.228   5.815
 4111SOL     OW13075   2.832   0.784   6.808
 4111SOL    HW113076   2.891   0.767   6.881
 4111SOL    HW213077   2.750   0.741   6.832
 4112SOL     OW13078   1.894   0.548   6.703
 4112SOL    HW113079   1.970   0.526   6.648
 4112SOL    HW213080   1.928   0.548   6.792
 4113SOL     OW13081   2.068   0.525   7.297
 4113SOL    HW113082   2.141   0.504   7.239
 4113SOL    HW213083   2.025   0.601   7.257
 4114SOL     OW13084   3.242   0.933   7.242
 4114SOL    HW113085   3.266   1.025   7.238
 4114SOL    HW213086   3.237   0.906   7.150
 4115SOL     OW13087   2.679   0.573   5.955
 4115SOL    HW113088   2.686   0.498   5.895
 4115SOL    HW213089   2.605   0.623   5.922
 4116SOL     OW13090   3.499   0.602   6.765
 4116SOL    HW113091   3.489   0.541   6.838
 4116SOL    HW213092   3.586   0.582   6.729
 4117SOL     OW13093   2.579   0.448   6.835
 4117SOL    HW113094   2.524   0.373   6.814
 4117SOL    HW213095   2.566   0.509   6.763
 4118SOL     OW13096   2.820   1.660   7.036
 4118SOL    HW113097   2.832   1.698   6.950
 4118SOL    HW213098   2.768   1.724   7.084
 4119SOL     OW13099   2.322   0.493   5.764
 4119SOL    HW113100   2.380   0.564   5.791
 4119SOL    HW213101   2.236   0.534   5.753
 4120SOL     OW13102   2.017   1.139   7.050
 4120SOL    HW113103   2.003   1.094   7.133
 4120SOL    HW213104   2.027   1.069   6.986
 4121SOL     OW13105   3.178   1.040   6.806
 4121SOL    HW113106   3.202   0.979   6.736
 4121SOL    HW213107   3.109   1.094   6.768
 4122SOL     OW13108   3.178   0.853   5.889
 4122SOL    HW113109   3.102   0.828   5.941
 4122SOL    HW213110   3.149   0.843   5.798
 4123SOL     OW13111   3.647   1.737   6.747
 4123SOL    HW113112   3.702   1.765   6.673
 4123SOL    HW213113   3.615   1.651   6.722
 4124SOL     OW13114   3.118   1.730   6.689
 4124SOL    HW113115   3.199   1.755   6.646
 4124SOL    HW213116   3.127   1.636   6.705
 4125SOL     OW13117   3.548   0.117   6.075
 4125SOL    HW113118   3.628   0.134   6.026
 4125SOL    HW213119   3.553   0.024   6.098
 4126SOL     OW13120   3.257   1.562   6.073
 4126SOL    HW113121   3.316   1.596   6.006
 4126SOL    HW213122   3.208   1.639   6.102
 4127SOL     OW13123   3.138   0.929   6.257
 4127SOL    HW113124   3.213   0.871   6.270
 4127SOL    HW213125   3.173   1.001   6.203
 4128SOL     OW13126   2.678   1.274   7.026
 4128SOL    HW113127   2.674   1.301   7.118
 4128SOL    HW213128   2.589   1.285   6.994
 4129SOL     OW13129   2.518   1.630   5.732
 4129SOL    HW113130   2.535   1.637   5.638
 4129SOL    HW213131   2.475   1.546   5.743
 4130SOL     OW13132   3.481   1.730   6.979
 4130SOL    HW113133   3.537   1.734   6.901
 4130SOL    HW213134   3.466   1.821   7.002
 4131SOL     OW13135   3.706   0.182   6.557
 4131SOL    HW113136   3.730   0.097   6.519
 4131SOL    HW213137   3.620   0.202   6.519
 4132SOL     OW13138   2.123   0.313   6.300
 4132SOL    HW113139   2.037   0.348   6.276
 4132SOL    HW213140   2.122   0.310   6.396
 4133SOL     OW13141   3.069   1.600   5.620
 4133SOL    HW113142   3.058   1.508   5.646
 4133SOL    HW213143   3.003   1.614   5.552
 4134SOL     OW13144   2.690   1.005   6.956
 4134SOL    HW113145   2.736   0.991   6.873
 4134SOL    HW213146   2.694   1.099   6.970
 4135SOL     OW13147   2.777   0.913   5.879
 4135SOL    HW113148   2.837   0.946   5.812
 4135SOL    HW213149   2.827   0.845   5.924
 4136SOL     OW13150   3.348   1.633   5.631
 4136SOL    HW113151   3.254   1.622   5.616
 4136SOL    HW213152   3.386   1.638   5.544
 4137SOL     OW13153   2.235   1.301   7.091
 4137SOL    HW113154   2.231   1.372   7.027
 4137SOL    HW213155   2.166   1.241   7.063
 4138SOL     OW13156   3.461   1.276   6.861
 4138SOL    HW113157   3.532   1.268   6.925
 4138SOL    HW213158   3.407   1.347   6.895
 4139SOL     OW13159   2.919   1.112   6.292
 4139SOL    HW113160   2.847   1.060   6.328
 4139SOL    HW213161   2.985   1.047   6.267
 4140SOL     OW13162   2.877   0.250   6.558
 4140SOL    HW113163   2.868   0.200   6.477
 4140SOL    HW213164   2.877   0.185   6.628
 4141SOL     OW13165   3.584   0.396   6.956
 4141SOL    HW113166   3.656   0.458   6.957
 4141SOL    HW213167   3.615   0.323   6.902
 4142SOL     OW13168   2.125   1.360   5.886
 4142SOL    HW113169   2.032   1.350   5.866
 4142SOL    HW213170   2.128   1.390   5.977
 4143SOL     OW13171   1.968   1.000   7.287
 4143SOL    HW113172   1.894   0.995   7.349
 4143SOL    HW213173   2.045   0.986   7.342
 4144SOL     OW13174   2.559   0.267   7.092
 4144SOL    HW113175   2.623   0.210   7.050
 4144SOL    HW213176   2.585   0.269   7.184
 4145SOL     OW13177   1.966   0.317   5.578
 4145SOL    HW113178   1.899   0.336   5.644
 4145SOL    HW213179   1.972   0.397   5.525
 4146SOL     OW13180   3.283   0.855   6.982
 4146SOL    HW113181   3.233   0.916   6.929
 4146SOL    HW213182   3.372   0.859   6.945
 4147SOL     OW13183   1.942   0.149   5.924
 4147SOL    HW113184   1.909   0.206   5.855
 4147SOL    HW213185   2.029   0.123   5.895
 4148SOL     OW13186   3.039   1.332   5.702
 4148SOL    HW113187   2.947   1.305   5.703
 4148SOL    HW213188   3.064   1.333   5.795
 4149SOL     OW13189   2.486   0.830   7.021
 4149SOL    HW113190   2.543   0.904   7.003
 4149SOL    HW213191   2.545   0.755   7.028
 4150SOL     OW13192   3.356   1.790   6.564
 4150SOL    HW113193   3.380   1.859   6.501
 4150SOL    HW213194   3.439   1.753   6.593
 4151SOL     OW13195   2.581   0.557   7.289
 4151SOL    HW113196   2.626   0.617   7.349
 4151SOL    HW213197   2.600   0.470   7.323
 4152SOL     OW13198   3.340   1.190   7.214
 4152SOL    HW113199   3.330   1.207   7.308
 4152SOL    HW213200   3.432   1.208   7.197
 4153SOL     OW13201   2.217   1.725   7.157
 4153SOL    HW113202   2.146   1.744   7.096
 4153SOL    HW213203   2.205   1.633   7.180
 4154SOL     OW13204   3.523   0.880   6.845
 4154SOL    HW113205   3.522   0.795   6.801
 4154SOL    HW213206   3.515   0.944   6.774
 4155SOL     OW13207   3.079   0.341   6.026
 4155SOL    HW113208   3.150   0.277   6.016
 4155SOL    HW213209   3.098   0.384   6.109
 4156SOL     OW13210   2.448   0.736   6.259
 4156SOL    HW113211   2.484   0.823   6.246
 4156SOL    HW213212   2.383   0.726   6.189
 4157SOL     OW13213   3.613   0.381   7.228
 4157SOL    HW113214   3.594   0.391   7.135
 4157SOL    HW213215   3.552   0.314   7.258
 4158SOL     OW13216   3.616   0.929   7.098
 4158SOL    HW113217   3.606   1.023   7.116
 4158SOL    HW213218   3.590   0.920   7.006
 4159SOL     OW13219   2.730   1.362   5.620
 4159SOL    HW113220   2.699   1.373   5.710
 4159SOL    HW213221   2.737   1.451   5.586
 4160SOL     OW13222   2.730   0.967   6.432
 4160SOL    HW113223   2.782   0.896   6.471
 4160SOL    HW213224   2.694   1.014   6.507
 4161SOL     OW13225   2.939   0.989   5.677
 4161SOL    HW113226   2.916   1.042   5.600
 4161SOL    HW213227   3.012   0.935   5.648
 4162SOL     OW13228   3.709   1.557   6.426
 4162SOL    HW113229   3.629   1.541   6.376
 4162SOL    HW213230   3.709   1.488   6.493
 4163SOL     OW13231   3.674   0.181   6.830
 4163SOL    HW113232   3.675   0.086   6.840
 4163SOL    HW213233   3.694   0.196   6.738
 4164SOL     OW13234   2.289   0.434   6.112
 4164SOL    HW113235   2.325   0.363   6.058
 4164SOL    HW213236   2.241   0.389   6.181
 4165SOL     OW13237   3.556   1.490   6.681
 4165SOL    HW113238   3.478   1.469   6.628
 4165SOL    HW213239   3.563   1.418   6.743
 4166SOL     OW13240   2.198   0.557   6.882
 4166SOL    HW113241   2.249   0.497   6.935
 4166SOL    HW213242   2.216   0.531   6.792
 4167SOL     OW13243   3.322   0.255   6.695
 4167SOL    HW113244   3.336   0.167   6.730
 4167SOL    HW213245   3.267   0.298   6.761
 4168SOL     OW13246   2.862   0.024   6.731
 4168SOL    HW113247   2.779   0.005   6.688
 4168SOL    HW213248   2.905   3.938   6.739
 4169SOL     OW13249   2.665   1.327   5.883
 4169SOL    HW113250   2.611   1.250   5.902
 4169SOL    HW213251   2.728   1.331   5.955
 4170SOL     OW13252   3.167   0.068   5.746
 4170SOL    HW113253   3.169   3.978   5.713
 4170SOL    HW213254   3.086   0.073   5.796
 4171SOL     OW13255   3.139   0.456   6.269
 4171SOL    HW113256   3.094   0.540   6.263
 4171SOL    HW213257   3.143   0.438   6.363
 4172SOL     OW13258   3.454   0.210   6.454
 4172SOL    HW113259   3.405   0.234   6.532
 4172SOL    HW213260   3.452   0.288   6.399
 4173SOL     OW13261   1.907   1.060   5.885
 4173SOL    HW113262   2.002   1.059   5.874
 4173SOL    HW213263   1.885   0.971   5.913
 4174SOL     OW13264   2.084   0.616   7.569
 4174SOL    HW113265   1.994   0.628   7.600
 4174SOL    HW213266   2.075   0.598   7.475
 4175SOL     OW13267   2.078   0.303   8.441
 4175SOL    HW113268   2.115   0.259   8.517
 4175SOL    HW213269   1.993   0.262   8.427
 4176SOL     OW13270   1.870   0.400   8.078
 4176SOL    HW113271   1.785   0.415   8.119
 4176SOL    HW213272   1.852   0.334   8.011
 4177SOL     OW13273   2.431   1.296   8.629
 4177SOL    HW113274   2.345   1.302   8.587
 4177SOL    HW213275   2.450   1.386   8.657
 4178SOL     OW13276   3.431   1.515   8.156
 4178SOL    HW113277   3.388   1.492   8.239
 4178SOL    HW213278   3.360   1.520   8.093
 4179SOL     OW13279   2.996   0.700   8.140
 4179SOL    HW113280   3.043   0.782   8.130
 4179SOL    HW213281   2.948   0.710   8.223
 4180SOL     OW13282   3.627   0.624   7.672
 4180SOL    HW113283   3.606   0.612   7.579
 4180SOL    HW213284   3.605   0.541   7.713
 4181SOL     OW13285   2.608   1.137   8.495
 4181SOL    HW113286   2.542   1.174   8.553
 4181SOL    HW213287   2.646   1.212   8.451
 4182SOL     OW13288   2.737   0.763   9.273
 4182SOL    HW113289   2.723   0.833   9.337
 4182SOL    HW213290   2.758   0.809   9.192
 4183SOL     OW13291   2.551   0.994   8.091
 4183SOL    HW113292   2.616   0.987   8.160
 4183SOL    HW213293   2.481   1.047   8.129
 4184SOL     OW13294   2.578   1.149   9.268
 4184SOL    HW113295   2.625   1.226   9.299
 4184SOL    HW213296   2.497   1.184   9.230
 4185SOL     OW13297   2.193   1.416   8.517
 4185SOL    HW113298   2.118   1.377   8.472
 4185SOL    HW213299   2.237   1.469   8.450
 4186SOL     OW13300   3.320   1.503   8.810
 4186SOL    HW113301   3.375   1.581   8.819
 4186SOL    HW213302   3.252   1.513   8.876
 4187SOL     OW13303   2.310   0.389   8.936
 4187SOL    HW113304   2.402   0.364   8.938
 4187SOL    HW213305   2.262   0.306   8.946
 4188SOL     OW13306   3.472   0.449   8.183
 4188SOL    HW113307   3.407   0.484   8.121
 4188SOL    HW213308   3.488   0.521   8.244
 4189SOL     OW13309   2.181   1.772   7.941
 4189SOL    HW113310   2.111   1.809   7.996
 4189SOL    HW213311   2.135   1.738   7.864
 4190SOL     OW13312   3.000   1.343   9.143
 4190SOL    HW113313   3.041   1.336   9.229
 4190SOL    HW213314   2.947   1.263   9.135
 4191SOL     OW13315   2.165   1.434   8.059
 4191SOL    HW113316   2.136   1.525   8.053
 4191SOL    HW213317   2.084   1.383   8.067
 4192SOL     OW13318   2.131   1.091   8.339
 4192SOL    HW113319   2.124   1.003   8.374
 4192SOL    HW213320   2.073   1.144   8.394
 4193SOL     OW13321   2.462   1.782   8.880
 4193SOL    HW113322   2.386   1.771   8.938
 4193SOL    HW213323   2.492   1.872   8.896
 4194SOL     OW13324   2.441   0.985   7.581
 4194SOL    HW113325   2.493   1.028   7.513
 4194SOL    HW213326   2.482   1.012   7.664
 4195SOL     OW13327   3.446   0.144   8.903
 4195SOL    HW113328   3.476   0.216   8.846
 4195SOL    HW213329   3.403   0.188   8.976
 4196SOL     OW13330   1.985   0.657   8.011
 4196SOL    HW113331   1.955   0.568   8.034
 4196SOL    HW213332   1.974   0.707   8.092
 4197SOL     OW13333   3.704   1.758   7.784
 4197SOL    HW113334   3.775   1.734   7.843
 4197SOL    HW213335   3.720   1.850   7.762
 4198SOL     OW13336   3.552   0.919   8.099
 4198SOL    HW113337   3.636   0.875   8.083
 4198SOL    HW213338   3.535   0.968   8.018
 4199SOL     OW13339   3.505   1.102   7.881
 4199SOL    HW113340   3.590   1.107   7.837
 4199SOL    HW213341   3.512   1.166   7.952
 4200SOL     OW13342   1.985   0.751   9.026
 4200SOL    HW113343   2.073   0.787   9.029
 4200SOL    HW213344   1.928   0.828   9.028
 4201SOL     OW13345   2.455   1.401   8.164
 4201SOL    HW113346   2.439   1.309   8.184
 4201SOL    HW213347   2.381   1.427   8.109
 4202SOL     OW13348   3.147   1.235   8.869
 4202SOL    HW113349   3.178   1.168   8.808
 4202SOL    HW213350   3.207   1.231   8.943
 4203SOL     OW13351   2.684   0.007   7.967
 4203SOL    HW113352   2.730   0.087   7.940
 4203SOL    HW213353   2.592   0.031   7.965
 4204SOL     OW13354   2.050   0.957   8.729
 4204SOL    HW113355   2.136   0.919   8.713
 4204SOL    HW213356   1.993   0.915   8.664
 4205SOL     OW13357   3.388   1.000   7.651
 4205SOL    HW113358   3.319   0.943   7.685
 4205SOL    HW213359   3.432   1.033   7.728
 4206SOL     OW13360   3.047   1.813   9.074
 4206SOL    HW113361   3.054   1.874   9.000
 4206SOL    HW213362   3.065   1.727   9.036
 4207SOL     OW13363   2.224   0.248   9.309
 4207SOL    HW113364   2.269   0.332   9.316
 4207SOL    HW213365   2.131   0.271   9.304
 4208SOL     OW13366   3.329   1.420   8.394
 4208SOL    HW113367   3.263   1.436   8.462
 4208SOL    HW213368   3.317   1.328   8.370
 4209SOL     OW13369   3.511   1.754   8.027
 4209SOL    HW113370   3.498   1.719   7.939
 4209SOL    HW213371   3.496   1.679   8.085
 4210SOL     OW13372   2.456   0.717   7.720
 4210SOL    HW113373   2.455   0.800   7.673
 4210SOL    HW213374   2.390   0.728   7.789
 4211SOL     OW13375   3.136   0.374   8.389
 4211SOL    HW113376   3.049   0.335   8.398
 4211SOL    HW213377   3.194   0.313   8.435
 4212SOL     OW13378   3.440   1.671   7.760
 4212SOL    HW113379   3.531   1.700   7.753
 4212SOL    HW213380   3.411   1.657   7.670
 4213SOL     OW13381   2.657   0.614   8.897
 4213SOL    HW113382   2.630   0.588   8.985
 4213SOL    HW213383   2.623   0.546   8.839
 4214SOL     OW13384   3.254   0.475   9.125
 4214SOL    HW113385   3.261   0.521   9.209
 4214SOL    HW213386   3.309   0.397   9.136
 4215SOL     OW13387   2.811   0.886   9.035
 4215SOL    HW113388   2.867   0.819   8.996
 4215SOL    HW213389   2.763   0.923   8.961
 4216SOL     OW13390   2.858   0.401   8.681
 4216SOL    HW113391   2.770   0.418   8.717
 4216SOL    HW213392   2.842   0.376   8.590
 4217SOL     OW13393   2.915   0.702   7.871
 4217SOL    HW113394   2.934   0.695   7.965
 4217SOL    HW213395   2.832   0.655   7.860
 4218SOL     OW13396   1.949   0.822   8.226
 4218SOL    HW113397   2.029   0.815   8.278
 4218SOL    HW213398   1.903   0.899   8.262
 4219SOL     OW13399   2.757   0.353   7.649
 4219SOL    HW113400   2.800   0.412   7.588
 4219SOL    HW213401   2.743   0.272   7.600
 4220SOL     OW13402   3.564   0.571   9.279
 4220SOL    HW113403   3.530   0.646   9.230
 4220SOL    HW213404   3.592   0.509   9.211
 4221SOL     OW13405   3.239   1.141   7.985
 4221SOL    HW113406   3.320   1.131   7.935
 4221SOL    HW213407   3.188   1.206   7.935
 4222SOL     OW13408   2.422   0.199   8.328
 4222SOL    HW113409   2.424   0.219   8.421
 4222SOL    HW213410   2.417   0.285   8.285
 4223SOL     OW13411   2.857   1.454   7.913
 4223SOL    HW113412   2.787   1.509   7.878
 4223SOL    HW213413   2.851   1.466   8.008
 4224SOL     OW13414   2.232   1.807   8.278
 4224SOL    HW113415   2.255   1.716   8.296
 4224SOL    HW213416   2.307   1.858   8.308
 4225SOL     OW13417   3.669   1.062   8.319
 4225SOL    HW113418   3.618   1.034   8.243
 4225SOL    HW213419   3.607   1.065   8.391
 4226SOL     OW13420   3.088   1.541   8.962
 4226SOL    HW113421   3.076   1.468   9.024
 4226SOL    HW213422   3.020   1.528   8.896
 4227SOL     OW13423   2.181   0.971   7.703
 4227SOL    HW113424   2.262   0.982   7.654
 4227SOL    HW213425   2.144   0.889   7.670
 4228SOL     OW13426   3.343   0.753   8.175
 4228SOL    HW113427   3.340   0.712   8.261
 4228SOL    HW213428   3.421   0.809   8.177
 4229SOL     OW13429   2.336   1.266   9.190
 4229SOL    HW113430   2.310   1.268   9.098
 4229SOL    HW213431   2.254   1.262   9.238
 4230SOL     OW13432   2.986   1.784   7.674
 4230SOL    HW113433   2.921   1.736   7.726
 4230SOL    HW213434   3.013   1.721   7.607
 4231SOL     OW13435   2.026   0.274   8.949
 4231SOL    HW113436   1.979   0.355   8.929
 4231SOL    HW213437   2.026   0.268   9.044
 4232SOL     OW13438   3.486   1.385   7.537
 4232SOL    HW113439   3.444   1.469   7.522
 4232SOL    HW213440   3.420   1.320   7.514
 4233SOL     OW13441   3.299   0.178   7.850
 4233SOL    HW113442   3.246   0.102   7.824
 4233SOL    HW213443   3.374   0.140   7.896
 4234SOL     OW13444   2.123   1.739   8.658
 4234SOL    HW113445   2.181   1.674   8.697
 4234SOL    HW213446   2.149   1.742   8.566
 4235SOL     OW13447   2.802   1.696   8.349
 4235SOL    HW113448   2.883   1.648   8.367
 4235SOL    HW213449   2.760   1.647   8.278
 4236SOL     OW13450   2.259   0.694   7.920
 4236SOL    HW113451   2.275   0.601   7.934
 4236SOL    HW213452   2.166   0.706   7.939
 4237SOL     OW13453   3.391   0.227   9.174
 4237SOL    HW113454   3.380   0.250   9.266
 4237SOL    HW213455   3.381   0.132   9.172
 4238SOL     OW13456   2.508   0.124   7.559
 4238SOL    HW113457   2.524   0.038   7.597
 4238SOL    HW213458   2.445   0.108   7.489
 4239SOL     OW13459   2.633   0.285   9.223
 4239SOL    HW113460   2.713   0.232   9.224
 4239SOL    HW213461   2.580   0.249   9.294
 4240SOL     OW13462   2.739   1.522   8.642
 4240SOL    HW113463   2.723   1.485   8.555
 4240SOL    HW213464   2.809   1.468   8.679
 4241SOL     OW13465   3.200   0.587   8.879
 4241SOL    HW113466   3.231   0.559   8.965
 4241SOL    HW213467   3.234   0.676   8.869
 4242SOL     OW13468   2.681   1.386   8.391
 4242SOL    HW113469   2.768   1.376   8.353
 4242SOL    HW213470   2.624   1.405   8.317
 4243SOL     OW13471   2.793   0.512   8.345
 4243SOL    HW113472   2.768   0.503   8.253
 4243SOL    HW213473   2.817   0.424   8.372
 4244SOL     OW13474   2.406   0.055   7.939
 4244SOL    HW113475   2.332   0.061   8.000
 4244SOL    HW213476   2.401   0.136   7.888
 4245SOL     OW13477   3.290   1.199   7.486
 4245SOL    HW113478   3.322   1.125   7.537
 4245SOL    HW213479   3.207   1.224   7.527
 4246SOL     OW13480   2.195   0.047   7.661
 4246SOL    HW113481   2.197   0.109   7.589
 4246SOL    HW213482   2.272   0.068   7.713
 4247SOL     OW13483   2.808   0.252   7.905
 4247SOL    HW113484   2.782   0.289   7.821
 4247SOL    HW213485   2.903   0.260   7.907
 4248SOL     OW13486   2.941   0.687   8.904
 4248SOL    HW113487   2.873   0.621   8.911
 4248SOL    HW213488   3.023   0.637   8.900
 4249SOL     OW13489   3.080   1.572   8.242
 4249SOL    HW113490   3.093   1.639   8.174
 4249SOL    HW213491   3.150   1.588   8.305
 4250SOL     OW13492   2.341   1.147   8.178
 4250SOL    HW113493   2.274   1.131   8.244
 4250SOL    HW213494   2.295   1.137   8.095
 4251SOL     OW13495   3.123   1.791   8.060
 4251SOL    HW113496   3.173   1.853   8.007
 4251SOL    HW213497   3.055   1.844   8.101
 4252SOL     OW13498   2.883   0.536   7.480
 4252SOL    HW113499   2.840   0.619   7.460
 4252SOL    HW213500   2.947   0.558   7.548
 4253SOL     OW13501   1.948   0.547   8.846
 4253SOL    HW113502   2.039   0.552   8.816
 4253SOL    HW213503   1.939   0.620   8.907
 4254SOL     OW13504   2.423   0.230   8.608
 4254SOL    HW113505   2.445   0.138   8.618
 4254SOL    HW213506   2.334   0.237   8.643
 4255SOL     OW13507   2.732   0.460   8.084
 4255SOL    HW113508   2.686   0.515   8.021
 4255SOL    HW213509   2.754   0.381   8.035
 4256SOL     OW13510   2.859   0.036   8.231
 4256SOL    HW113511   2.819   0.069   8.150
 4256SOL    HW213512   2.872   3.943   8.215
 4257SOL     OW13513   3.305   1.159   8.306
 4257SOL    HW113514   3.232   1.097   8.304
 4257SOL    HW213515   3.331   1.168   8.215
 4258SOL     OW13516   3.325   0.611   8.416
 4258SOL    HW113517   3.268   0.534   8.422
 4258SOL    HW213518   3.383   0.603   8.492
 4259SOL     OW13519   3.720   0.825   7.823
 4259SOL    HW113520   3.760   0.768   7.888
 4259SOL    HW213521   3.684   0.766   7.758
 4260SOL     OW13522   3.531   1.266   8.090
 4260SOL    HW113523   3.626   1.267   8.100
 4260SOL    HW213524   3.503   1.355   8.110
 4261SOL     OW13525   3.257   0.579   7.516
 4261SOL    HW113526   3.194   0.559   7.585
 4261SOL    HW213527   3.342   0.564   7.556
 4262SOL     OW13528   2.387   0.265   7.763
 4262SOL    HW113529   2.445   0.227   7.697
 4262SOL    HW213530   2.357   0.347   7.724
 4263SOL     OW13531   3.611   1.231   9.007
 4263SOL    HW113532   3.699   1.197   8.990
 4263SOL    HW213533   3.626   1.321   9.036
 4264SOL     OW13534   2.916   1.352   8.779
 4264SOL    HW113535   2.841   1.321   8.829
 4264SOL    HW213536   2.991   1.311   8.821
 4265SOL     OW13537   3.468   1.630   9.107
 4265SOL    HW113538   3.459   1.665   9.018
 4265SOL    HW213539   3.547   1.575   9.103
 4266SOL     OW13540   2.997   1.210   8.550
 4266SOL    HW113541   2.938   1.248   8.615
 4266SOL    HW213542   2.968   1.246   8.466
 4267SOL     OW13543   3.486   1.093   8.522
 4267SOL    HW113544   3.476   1.156   8.593
 4267SOL    HW213545   3.412   1.111   8.463
 4268SOL     OW13546   2.773   0.121   8.849
 4268SOL    HW113547   2.793   0.090   8.761
 4268SOL    HW213548   2.854   0.162   8.879
 4269SOL     OW13549   2.846   1.116   9.172
 4269SOL    HW113550   2.755   1.132   9.197
 4269SOL    HW213551   2.842   1.037   9.118
 4270SOL     OW13552   2.568   1.052   7.817
 4270SOL    HW113553   2.553   1.034   7.909
 4270SOL    HW213554   2.644   0.998   7.794
 4271SOL     OW13555   2.285   0.818   8.700
 4271SOL    HW113556   2.353   0.826   8.766
 4271SOL    HW213557   2.250   0.729   8.713
 4272SOL     OW13558   3.128   0.375   8.726
 4272SOL    HW113559   3.161   0.453   8.770
 4272SOL    HW213560   3.040   0.398   8.697
 4273SOL     OW13561   1.957   1.554   8.817
 4273SOL    HW113562   1.940   1.625   8.755
 4273SOL    HW213563   2.051   1.540   8.812
 4274SOL     OW13564   2.202   1.119   7.942
 4274SOL    HW113565   2.198   1.201   7.894
 4274SOL    HW213566   2.200   1.051   7.874
 4275SOL     OW13567   2.414   0.525   8.303
 4275SOL    HW113568   2.426   0.586   8.229
 4275SOL    HW213569   2.479   0.553   8.367
 4276SOL     OW13570   3.105   1.355   7.838
 4276SOL    HW113571   3.164   1.423   7.870
 4276SOL    HW213572   3.019   1.381   7.870
 4277SOL     OW13573   3.152   1.461   8.597
 4277SOL    HW113574   3.208   1.467   8.674
 4277SOL    HW213575   3.098   1.384   8.613
 4278SOL     OW13576   3.429   0.634   7.937
 4278SOL    HW113577   3.387   0.686   8.005
 4278SOL    HW213578   3.477   0.698   7.885
 4279SOL     OW13579   2.221   1.504   8.767
 4279SOL    HW113580   2.207   1.467   8.681
 4279SOL    HW213581   2.316   1.521   8.771
 4280SOL     OW13582   2.284   0.745   9.053
 4280SOL    HW113583   2.345   0.789   8.993
 4280SOL    HW213584   2.327   0.661   9.072
 4281SOL     OW13585   3.470   0.781   9.135
 4281SOL    HW113586   3.384   0.823   9.130
 4281SOL    HW213587   3.522   0.823   9.068
 4282SOL     OW13588   2.866   0.143   9.231
 4282SOL    HW113589   2.926   0.210   9.197
 4282SOL    HW213590   2.854   0.083   9.158
 4283SOL     OW13591   2.353   0.035   9.208
 4283SOL    HW113592   2.351   0.052   9.114
 4283SOL    HW213593   2.293   0.099   9.245
 4284SOL     OW13594   2.447   0.874   8.480
 4284SOL    HW113595   2.479   0.965   8.483
 4284SOL    HW213596   2.390   0.867   8.556
 4285SOL     OW13597   3.207   0.859   8.468
 4285SOL    HW113598   3.120   0.842   8.431
 4285SOL    HW213599   3.253   0.776   8.458
 4286SOL     OW13600   3.059   0.540   7.702
 4286SOL    HW113601   3.067   0.461   7.755
 4286SOL    HW213602   3.016   0.603   7.760
 4287SOL     OW13603   2.158   0.207   8.691
 4287SOL    HW113604   2.115   0.235   8.772
 4287SOL    HW213605   2.148   0.112   8.691
 4288SOL     OW13606   1.899   1.303   8.726
 4288SOL    HW113607   1.935   1.244   8.793
 4288SOL    HW213608   1.915   1.391   8.761
 4289SOL     OW13609   2.581   0.630   8.496
 4289SOL    HW113610   2.658   0.621   8.440
 4289SOL    HW213611   2.550   0.720   8.480
 4290SOL     OW13612   3.594   0.956   9.318
 4290SOL    HW113613   3.553   0.891   9.260
 4290SOL    HW213614   3.528   0.974   9.385
 4291SOL     OW13615   2.186   0.053   8.108
 4291SOL    HW113616   2.165   0.145   8.117
 4291SOL    HW213617   2.162   0.014   8.192
 4292SOL     OW13618   3.476   0.398   7.825
 4292SOL    HW113619   3.431   0.329   7.874
 4292SOL    HW213620   3.455   0.479   7.871
 4293SOL     OW13621   2.893   0.759   8.405
 4293SOL    HW113622   2.883   0.775   8.498
 4293SOL    HW213623   2.865   0.668   8.393
 4294SOL     OW13624   2.843   1.566   9.171
 4294SOL    HW113625   2.827   1.610   9.087
 4294SOL    HW213626   2.887   1.484   9.147
 4295SOL     OW13627   3.702   1.493   9.044
 4295SOL    HW113628   3.727   1.525   8.958
 4295SOL    HW213629   3.782   1.500   9.097
 4296SOL     OW13630   2.213   0.915   9.258
 4296SOL    HW113631   2.293   0.936   9.306
 4296SOL    HW213632   2.241   0.853   9.191
 4297SOL     OW13633   3.357   0.270   7.579
 4297SOL    HW113634   3.286   0.207   7.588
 4297SOL    HW213635   3.367   0.308   7.666
 4298SOL     OW13636   3.145   0.827   7.475
 4298SOL    HW113637   3.187   0.741   7.479
 4298SOL    HW213638   3.178   0.866   7.394
 4299SOL     OW13639   2.933   1.339   8.306
 4299SOL    HW113640   2.938   1.268   8.242
 4299SOL    HW213641   2.990   1.407   8.271
 4300SOL     OW13642   2.169   0.811   8.394
 4300SOL    HW113643   2.262   0.831   8.386
 4300SOL    HW213644   2.167   0.721   8.426
 4301SOL     OW13645   2.198   0.538   8.463
 4301SOL    HW113646   2.156   0.454   8.449
 4301SOL    HW213647   2.274   0.537   8.404
 4302SOL     OW13648   2.996   0.379   9.148
 4302SOL    HW113649   2.947   0.432   9.210
 4302SOL    HW213650   3.082   0.420   9.143
 4303SOL     OW13651   3.014   0.226   8.930
 4303SOL    HW113652   3.004   0.278   9.009
 4303SOL    HW213653   3.042   0.288   8.862
 4304SOL     OW13654   2.357   1.573   8.361
 4304SOL    HW113655   2.423   1.641   8.378
 4304SOL    HW213656   2.400   1.515   8.298
 4305SOL     OW13657   2.834   0.785   8.669
 4305SOL    HW113658   2.892   0.769   8.743
 4305SOL    HW213659   2.750   0.748   8.696
 4306SOL     OW13660   1.895   0.550   8.565
 4306SOL    HW113661   1.969   0.526   8.510
 4306SOL    HW213662   1.930   0.547   8.654
 4307SOL     OW13663   2.066   0.528   9.159
 4307SOL    HW113664   2.140   0.508   9.101
 4307SOL    HW213665   2.024   0.604   9.119
 4308SOL     OW13666   3.244   0.933   9.104
 4308SOL    HW113667   3.265   1.026   9.100
 4308SOL    HW213668   3.238   0.906   9.012
 4309SOL     OW13669   2.680   0.573   7.815
 4309SOL    HW113670   2.686   0.498   7.757
 4309SOL    HW213671   2.604   0.622   7.783
 4310SOL     OW13672   3.499   0.602   8.627
 4310SOL    HW113673   3.488   0.542   8.700
 4310SOL    HW213674   3.586   0.582   8.592
 4311SOL     OW13675   2.088   1.560   9.187
 4311SOL    HW113676   2.043   1.588   9.267
 4311SOL    HW213677   2.116   1.470   9.205
 4312SOL     OW13678   2.579   0.448   8.698
 4312SOL    HW113679   2.524   0.373   8.676
 4312SOL    HW213680   2.566   0.509   8.625
 4313SOL     OW13681   2.785   1.676   8.920
 4313SOL    HW113682   2.759   1.638   8.836
 4313SOL    HW213683   2.783   1.771   8.905
 4314SOL     OW13684   2.322   0.492   7.627
 4314SOL    HW113685   2.380   0.564   7.653
 4314SOL    HW213686   2.236   0.533   7.615
 4315SOL     OW13687   2.001   1.139   8.923
 4315SOL    HW113688   2.004   1.093   9.007
 4315SOL    HW213689   2.020   1.071   8.858
 4316SOL     OW13690   3.180   1.042   8.667
 4316SOL    HW113691   3.202   0.980   8.598
 4316SOL    HW213692   3.115   1.100   8.628
 4317SOL     OW13693   3.177   0.855   7.751
 4317SOL    HW113694   3.103   0.824   7.804
 4317SOL    HW213695   3.149   0.842   7.661
 4318SOL     OW13696   3.648   1.738   8.609
 4318SOL    HW113697   3.702   1.765   8.536
 4318SOL    HW213698   3.615   1.651   8.584
 4319SOL     OW13699   3.102   1.732   8.552
 4319SOL    HW113700   3.185   1.757   8.511
 4319SOL    HW213701   3.113   1.640   8.573
 4320SOL     OW13702   1.955   1.257   8.465
 4320SOL    HW113703   1.931   1.271   8.557
 4320SOL    HW213704   1.880   1.212   8.426
 4321SOL     OW13705   2.541   1.671   9.185
 4321SOL    HW113706   2.485   1.749   9.184
 4321SOL    HW213707   2.609   1.691   9.121
 4322SOL     OW13708   3.547   0.117   7.937
 4322SOL    HW113709   3.628   0.135   7.888
 4322SOL    HW213710   3.553   0.025   7.960
 4323SOL     OW13711   3.253   1.568   7.939
 4323SOL    HW113712   3.313   1.602   7.872
 4323SOL    HW213713   3.204   1.645   7.968
 4324SOL     OW13714   3.139   0.930   8.120
 4324SOL    HW113715   3.213   0.871   8.133
 4324SOL    HW213716   3.173   1.001   8.065
 4325SOL     OW13717   2.666   1.276   8.871
 4325SOL    HW113718   2.638   1.318   8.953
 4325SOL    HW213719   2.596   1.297   8.809
 4326SOL     OW13720   3.478   1.728   8.840
 4326SOL    HW113721   3.536   1.732   8.763
 4326SOL    HW213722   3.465   1.820   8.864
 4327SOL     OW13723   3.706   0.182   8.419
 4327SOL    HW113724   3.730   0.097   8.381
 4327SOL    HW213725   3.620   0.201   8.381
 4328SOL     OW13726   2.123   0.314   8.162
 4328SOL    HW113727   2.037   0.348   8.138
 4328SOL    HW213728   2.122   0.310   8.258
 4329SOL     OW13729   3.073   1.600   7.487
 4329SOL    HW113730   3.065   1.507   7.510
 4329SOL    HW213731   3.018   1.609   7.408
 4330SOL     OW13732   2.686   1.007   8.823
 4330SOL    HW113733   2.727   1.002   8.737
 4330SOL    HW213734   2.681   1.101   8.842
 4331SOL     OW13735   2.781   0.911   7.736
 4331SOL    HW113736   2.843   0.945   7.672
 4331SOL    HW213737   2.829   0.843   7.783
 4332SOL     OW13738   3.352   1.629   7.494
 4332SOL    HW113739   3.258   1.622   7.479
 4332SOL    HW213740   3.389   1.636   7.406
 4333SOL     OW13741   2.229   1.296   8.949
 4333SOL    HW113742   2.225   1.368   8.886
 4333SOL    HW213743   2.151   1.243   8.930
 4334SOL     OW13744   3.459   1.280   8.723
 4334SOL    HW113745   3.528   1.270   8.788
 4334SOL    HW213746   3.403   1.349   8.759
 4335SOL     OW13747   2.923   1.112   8.157
 4335SOL    HW113748   2.851   1.062   8.195
 4335SOL    HW213749   2.988   1.046   8.133
 4336SOL     OW13750   2.877   0.250   8.419
 4336SOL    HW113751   2.868   0.199   8.339
 4336SOL    HW213752   2.877   0.185   8.490
 4337SOL     OW13753   3.583   0.396   8.818
 4337SOL    HW113754   3.656   0.458   8.819
 4337SOL    HW213755   3.615   0.323   8.764
 4338SOL     OW13756   1.976   1.033   9.174
 4338SOL    HW113757   1.900   1.005   9.225
 4338SOL    HW213758   2.050   0.989   9.217
 4339SOL     OW13759   2.559   0.267   8.954
 4339SOL    HW113760   2.624   0.210   8.913
 4339SOL    HW213761   2.585   0.269   9.046
 4340SOL     OW13762   1.966   0.316   7.440
 4340SOL    HW113763   1.899   0.336   7.506
 4340SOL    HW213764   1.972   0.396   7.388
 4341SOL     OW13765   3.283   0.855   8.844
 4341SOL    HW113766   3.233   0.917   8.791
 4341SOL    HW213767   3.372   0.859   8.807
 4342SOL     OW13768   1.941   0.148   7.786
 4342SOL    HW113769   1.909   0.206   7.717
 4342SOL    HW213770   2.029   0.123   7.756
 4343SOL     OW13771   3.045   1.328   7.569
 4343SOL    HW113772   2.969   1.270   7.572
 4343SOL    HW213773   3.072   1.338   7.660
 4344SOL     OW13774   2.485   0.828   8.882
 4344SOL    HW113775   2.542   0.904   8.868
 4344SOL    HW213776   2.545   0.754   8.891
 4345SOL     OW13777   3.344   1.787   8.430
 4345SOL    HW113778   3.366   1.855   8.366
 4345SOL    HW213779   3.429   1.753   8.459
 4346SOL     OW13780   2.580   0.559   9.151
 4346SOL    HW113781   2.625   0.620   9.210
 4346SOL    HW213782   2.600   0.472   9.186
 4347SOL     OW13783   3.336   1.193   9.076
 4347SOL    HW113784   3.325   1.209   9.169
 4347SOL    HW213785   3.428   1.210   9.059
 4348SOL     OW13786   2.226   1.742   9.029
 4348SOL    HW113787   2.165   1.747   8.956
 4348SOL    HW213788   2.192   1.672   9.084
 4349SOL     OW13789   3.523   0.880   8.707
 4349SOL    HW113790   3.523   0.795   8.663
 4349SOL    HW213791   3.516   0.943   8.636
 4350SOL     OW13792   3.080   0.341   7.888
 4350SOL    HW113793   3.150   0.277   7.878
 4350SOL    HW213794   3.098   0.384   7.971
 4351SOL     OW13795   2.450   0.732   8.121
 4351SOL    HW113796   2.489   0.818   8.107
 4351SOL    HW213797   2.384   0.725   8.051
 4352SOL     OW13798   3.614   0.380   9.090
 4352SOL    HW113799   3.594   0.391   8.996
 4352SOL    HW213800   3.552   0.314   9.120
 4353SOL     OW13801   3.617   0.930   8.960
 4353SOL    HW113802   3.606   1.023   8.979
 4353SOL    HW213803   3.590   0.920   8.869
 4354SOL     OW13804   2.733   1.356   7.467
 4354SOL    HW113805   2.725   1.368   7.561
 4354SOL    HW213806   2.784   1.431   7.437
 4355SOL     OW13807   2.525   1.792   8.381
 4355SOL    HW113808   2.514   1.887   8.377
 4355SOL    HW213809   2.619   1.778   8.378
 4356SOL     OW13810   2.733   0.972   8.302
 4356SOL    HW113811   2.783   0.900   8.339
 4356SOL    HW213812   2.693   1.015   8.377
 4357SOL     OW13813   2.945   1.000   7.539
 4357SOL    HW113814   2.918   1.040   7.457
 4357SOL    HW213815   3.015   0.940   7.514
 4358SOL     OW13816   3.710   1.556   8.288
 4358SOL    HW113817   3.630   1.540   8.237
 4358SOL    HW213818   3.710   1.487   8.355
 4359SOL     OW13819   2.092   1.294   9.298
 4359SOL    HW113820   2.027   1.230   9.271
 4359SOL    HW213821   2.072   1.311   9.390
 4360SOL     OW13822   1.957   1.218   8.109
 4360SOL    HW113823   1.981   1.181   8.194
 4360SOL    HW213824   2.016   1.175   8.047
 4361SOL     OW13825   2.546   1.409   9.077
 4361SOL    HW113826   2.470   1.365   9.116
 4361SOL    HW213827   2.544   1.497   9.114
 4362SOL     OW13828   3.674   0.181   8.692
 4362SOL    HW113829   3.676   0.086   8.702
 4362SOL    HW213830   3.694   0.196   8.600
 4363SOL     OW13831   2.291   0.434   7.974
 4363SOL    HW113832   2.325   0.363   7.920
 4363SOL    HW213833   2.242   0.390   8.043
 4364SOL     OW13834   3.555   1.490   8.543
 4364SOL    HW113835   3.478   1.469   8.490
 4364SOL    HW213836   3.562   1.418   8.605
 4365SOL     OW13837   2.198   0.558   8.744
 4365SOL    HW113838   2.249   0.497   8.798
 4365SOL    HW213839   2.216   0.531   8.654
 4366SOL     OW13840   2.687   1.576   8.129
 4366SOL    HW113841   2.674   1.651   8.072
 4366SOL    HW213842   2.609   1.523   8.118
 4367SOL     OW13843   3.321   0.255   8.557
 4367SOL    HW113844   3.337   0.167   8.593
 4367SOL    HW213845   3.267   0.298   8.623
 4368SOL     OW13846   2.863   0.024   8.593
 4368SOL    HW113847   2.779   0.005   8.551
 4368SOL    HW213848   2.905   3.938   8.601
 4369SOL     OW13849   2.655   1.302   7.741
 4369SOL    HW113850   2.614   1.217   7.759
 4369SOL    HW213851   2.730   1.306   7.801
 4370SOL     OW13852   2.486   1.553   8.733
 4370SOL    HW113853   2.484   1.635   8.784
 4370SOL    HW213854   2.574   1.549   8.698
 4371SOL     OW13855   3.167   0.068   7.607
 4371SOL    HW113856   3.171   3.978   7.575
 4371SOL    HW213857   3.085   0.072   7.658
 4372SOL     OW13858   3.139   0.456   8.131
 4372SOL    HW113859   3.094   0.540   8.125
 4372SOL    HW213860   3.143   0.438   8.225
 4373SOL     OW13861   3.454   0.210   8.316
 4373SOL    HW113862   3.405   0.234   8.394
 4373SOL    HW213863   3.452   0.288   8.261
 4374SOL     OW13864   1.896   1.067   7.757
 4374SOL    HW113865   1.989   1.066   7.735
 4374SOL    HW213866   1.877   0.977   7.782
 4375SOL     OW13867   2.084   0.617   9.431
 4375SOL    HW113868   1.994   0.628   9.463
 4375SOL    HW213869   2.074   0.599   9.338
 4376SOL     OW13870   2.078   0.303  10.303
 4376SOL    HW113871   2.115   0.259  10.379
 4376SOL    HW213872   1.993   0.262  10.289
 4377SOL     OW13873   1.870   0.400   9.940
 4377SOL    HW113874   1.785   0.416   9.981
 4377SOL    HW213875   1.853   0.334   9.874
 4378SOL     OW13876   2.431   1.296  10.492
 4378SOL    HW113877   2.346   1.301  10.449
 4378SOL    HW213878   2.450   1.386  10.518
 4379SOL     OW13879   3.432   1.515  10.019
 4379SOL    HW113880   3.388   1.492  10.101
 4379SOL    HW213881   3.361   1.520   9.955
 4380SOL     OW13882   2.996   0.699  10.003
 4380SOL    HW113883   3.043   0.781   9.991
 4380SOL    HW213884   2.948   0.710  10.085
 4381SOL     OW13885   3.629   0.624   9.534
 4381SOL    HW113886   3.607   0.611   9.441
 4381SOL    HW213887   3.604   0.542   9.576
 4382SOL     OW13888   2.609   1.136  10.358
 4382SOL    HW113889   2.542   1.174  10.416
 4382SOL    HW213890   2.648   1.212  10.314
 4383SOL     OW13891   2.737   0.763  11.135
 4383SOL    HW113892   2.723   0.833  11.199
 4383SOL    HW213893   2.758   0.809  11.054
 4384SOL     OW13894   2.548   0.996   9.953
 4384SOL    HW113895   2.614   0.989  10.023
 4384SOL    HW213896   2.480   1.051   9.991
 4385SOL     OW13897   2.577   1.149  11.129
 4385SOL    HW113898   2.625   1.226  11.161
 4385SOL    HW213899   2.496   1.184  11.093
 4386SOL     OW13900   2.193   1.418  10.379
 4386SOL    HW113901   2.118   1.377  10.335
 4386SOL    HW213902   2.236   1.469  10.311
 4387SOL     OW13903   3.320   1.502  10.672
 4387SOL    HW113904   3.375   1.580  10.681
 4387SOL    HW213905   3.252   1.513  10.739
 4388SOL     OW13906   2.310   0.389  10.798
 4388SOL    HW113907   2.402   0.364  10.801
 4388SOL    HW213908   2.262   0.306  10.808
 4389SOL     OW13909   3.472   0.449  10.045
 4389SOL    HW113910   3.407   0.484   9.984
 4389SOL    HW213911   3.487   0.521  10.106
 4390SOL     OW13912   2.103   1.696   9.790
 4390SOL    HW113913   2.062   1.783   9.785
 4390SOL    HW213914   2.179   1.701   9.732
 4391SOL     OW13915   3.000   1.343  11.005
 4391SOL    HW113916   3.041   1.336  11.091
 4391SOL    HW213917   2.948   1.263  10.997
 4392SOL     OW13918   2.092   1.432   9.851
 4392SOL    HW113919   2.093   1.527   9.845
 4392SOL    HW213920   2.031   1.412   9.922
 4393SOL     OW13921   2.132   1.090  10.200
 4393SOL    HW113922   2.125   1.001  10.235
 4393SOL    HW213923   2.074   1.142  10.256
 4394SOL     OW13924   2.464   1.783  10.741
 4394SOL    HW113925   2.387   1.773  10.797
 4394SOL    HW213926   2.493   1.873  10.757
 4395SOL     OW13927   2.440   0.985   9.450
 4395SOL    HW113928   2.490   1.030   9.381
 4395SOL    HW213929   2.479   1.017   9.532
 4396SOL     OW13930   3.446   0.144  10.765
 4396SOL    HW113931   3.475   0.215  10.708
 4396SOL    HW213932   3.403   0.188  10.838
 4397SOL     OW13933   1.983   0.659   9.871
 4397SOL    HW113934   1.954   0.570   9.895
 4397SOL    HW213935   1.973   0.709   9.953
 4398SOL     OW13936   3.704   1.758   9.645
 4398SOL    HW113937   3.775   1.734   9.705
 4398SOL    HW213938   3.721   1.850   9.624
 4399SOL     OW13939   1.940   1.564   9.414
 4399SOL    HW113940   1.914   1.476   9.439
 4399SOL    HW213941   1.882   1.622   9.464
 4400SOL     OW13942   3.552   0.920   9.961
 4400SOL    HW113943   3.636   0.875   9.944
 4400SOL    HW213944   3.534   0.969   9.881
 4401SOL     OW13945   3.505   1.102   9.743
 4401SOL    HW113946   3.590   1.106   9.699
 4401SOL    HW213947   3.511   1.166   9.814
 4402SOL     OW13948   1.984   0.751  10.888
 4402SOL    HW113949   2.072   0.787  10.891
 4402SOL    HW213950   1.926   0.828  10.889
 4403SOL     OW13951   2.478   1.393  10.045
 4403SOL    HW113952   2.433   1.308  10.053
 4403SOL    HW213953   2.460   1.421   9.955
 4404SOL     OW13954   3.146   1.235  10.731
 4404SOL    HW113955   3.177   1.168  10.671
 4404SOL    HW213956   3.207   1.231  10.805
 4405SOL     OW13957   2.684   0.007   9.829
 4405SOL    HW113958   2.730   0.087   9.801
 4405SOL    HW213959   2.592   0.031   9.827
 4406SOL     OW13960   2.050   0.957  10.592
 4406SOL    HW113961   2.136   0.918  10.575
 4406SOL    HW213962   1.993   0.918  10.526
 4407SOL     OW13963   3.388   1.000   9.512
 4407SOL    HW113964   3.320   0.942   9.546
 4407SOL    HW213965   3.432   1.034   9.590
 4408SOL     OW13966   3.046   1.812  10.936
 4408SOL    HW113967   3.054   1.873  10.862
 4408SOL    HW213968   3.064   1.727  10.898
 4409SOL     OW13969   2.224   0.247  11.171
 4409SOL    HW113970   2.269   0.331  11.177
 4409SOL    HW213971   2.131   0.271  11.166
 4410SOL     OW13972   3.329   1.420  10.256
 4410SOL    HW113973   3.263   1.436  10.323
 4410SOL    HW213974   3.317   1.328  10.231
 4411SOL     OW13975   3.511   1.754   9.889
 4411SOL    HW113976   3.496   1.720   9.801
 4411SOL    HW213977   3.496   1.680   9.947
 4412SOL     OW13978   2.456   0.717   9.581
 4412SOL    HW113979   2.459   0.802   9.536
 4412SOL    HW213980   2.391   0.729   9.650
 4413SOL     OW13981   3.136   0.374  10.251
 4413SOL    HW113982   3.049   0.335  10.260
 4413SOL    HW213983   3.194   0.313  10.297
 4414SOL     OW13984   3.439   1.673   9.622
 4414SOL    HW113985   3.530   1.700   9.614
 4414SOL    HW213986   3.411   1.657   9.531
 4415SOL     OW13987   2.658   0.614  10.759
 4415SOL    HW113988   2.630   0.587  10.847
 4415SOL    HW213989   2.623   0.546  10.701
 4416SOL     OW13990   3.254   0.475  10.987
 4416SOL    HW113991   3.261   0.521  11.071
 4416SOL    HW213992   3.309   0.397  10.998
 4417SOL     OW13993   2.811   0.886  10.897
 4417SOL    HW113994   2.867   0.819  10.858
 4417SOL    HW213995   2.763   0.923  10.823
 4418SOL     OW13996   2.858   0.401  10.543
 4418SOL    HW113997   2.770   0.418  10.579
 4418SOL    HW213998   2.842   0.376  10.452
 4419SOL     OW13999   2.915   0.701   9.734
 4419SOL    HW114000   2.934   0.694   9.827
 4419SOL    HW214001   2.832   0.655   9.722
 4420SOL     OW14002   1.948   0.823  10.088
 4420SOL    HW114003   2.028   0.816  10.140
 4420SOL    HW214004   1.902   0.898  10.124
 4421SOL     OW14005   2.757   0.353   9.511
 4421SOL    HW114006   2.800   0.413   9.450
 4421SOL    HW214007   2.745   0.272   9.461
 4422SOL     OW14008   3.564   0.571  11.141
 4422SOL    HW114009   3.530   0.646  11.092
 4422SOL    HW214010   3.592   0.509  11.073
 4423SOL     OW14011   3.240   1.141   9.849
 4423SOL    HW114012   3.320   1.130   9.797
 4423SOL    HW214013   3.188   1.205   9.799
 4424SOL     OW14014   2.422   0.200  10.190
 4424SOL    HW114015   2.424   0.219  10.283
 4424SOL    HW214016   2.417   0.285  10.147
 4425SOL     OW14017   2.861   1.443   9.778
 4425SOL    HW114018   2.831   1.518   9.727
 4425SOL    HW214019   2.836   1.464   9.868
 4426SOL     OW14020   2.254   1.817  10.109
 4426SOL    HW114021   2.256   1.724  10.129
 4426SOL    HW214022   2.312   1.857  10.173
 4427SOL     OW14023   3.669   1.063  10.180
 4427SOL    HW114024   3.618   1.033  10.105
 4427SOL    HW214025   3.607   1.065  10.252
 4428SOL     OW14026   3.088   1.541  10.824
 4428SOL    HW114027   3.076   1.468  10.886
 4428SOL    HW214028   3.021   1.526  10.757
 4429SOL     OW14029   2.177   0.962   9.565
 4429SOL    HW114030   2.260   0.982   9.521
 4429SOL    HW214031   2.149   0.879   9.528
 4430SOL     OW14032   3.344   0.752  10.036
 4430SOL    HW114033   3.340   0.712  10.123
 4430SOL    HW214034   3.421   0.809  10.040
 4431SOL     OW14035   2.333   1.268  11.057
 4431SOL    HW114036   2.307   1.270  10.965
 4431SOL    HW214037   2.250   1.265  11.104
 4432SOL     OW14038   2.990   1.776   9.540
 4432SOL    HW114039   2.912   1.738   9.581
 4432SOL    HW214040   3.013   1.714   9.471
 4433SOL     OW14041   2.026   0.274  10.811
 4433SOL    HW114042   1.980   0.355  10.791
 4433SOL    HW214043   2.025   0.268  10.906
 4434SOL     OW14044   3.486   1.386   9.397
 4434SOL    HW114045   3.442   1.470   9.383
 4434SOL    HW214046   3.419   1.321   9.377
 4435SOL     OW14047   2.335   1.715   9.643
 4435SOL    HW114048   2.381   1.785   9.690
 4435SOL    HW214049   2.392   1.694   9.569
 4436SOL     OW14050   3.299   0.178   9.712
 4436SOL    HW114051   3.246   0.103   9.688
 4436SOL    HW214052   3.374   0.141   9.758
 4437SOL     OW14053   2.129   1.739  10.519
 4437SOL    HW114054   2.185   1.674  10.561
 4437SOL    HW214055   2.152   1.734  10.426
 4438SOL     OW14056   2.800   1.699  10.207
 4438SOL    HW114057   2.881   1.651  10.227
 4438SOL    HW214058   2.760   1.648  10.136
 4439SOL     OW14059   2.259   0.695   9.782
 4439SOL    HW114060   2.275   0.602   9.796
 4439SOL    HW214061   2.166   0.706   9.800
 4440SOL     OW14062   3.391   0.227  11.036
 4440SOL    HW114063   3.380   0.250  11.128
 4440SOL    HW214064   3.381   0.132  11.034
 4441SOL     OW14065   2.507   0.125   9.421
 4441SOL    HW114066   2.524   0.038   9.459
 4441SOL    HW214067   2.445   0.108   9.350
 4442SOL     OW14068   2.633   0.285  11.085
 4442SOL    HW114069   2.713   0.232  11.086
 4442SOL    HW214070   2.580   0.249  11.156
 4443SOL     OW14071   2.740   1.523  10.504
 4443SOL    HW114072   2.723   1.485  10.417
 4443SOL    HW214073   2.809   1.468  10.541
 4444SOL     OW14074   3.200   0.587  10.741
 4444SOL    HW114075   3.231   0.559  10.827
 4444SOL    HW214076   3.234   0.676  10.731
 4445SOL     OW14077   2.680   1.388  10.257
 4445SOL    HW114078   2.765   1.378  10.214
 4445SOL    HW214079   2.618   1.396  10.185
 4446SOL     OW14080   2.793   0.512  10.207
 4446SOL    HW114081   2.767   0.504  10.115
 4446SOL    HW214082   2.817   0.424  10.234
 4447SOL     OW14083   2.406   0.055   9.801
 4447SOL    HW114084   2.332   0.061   9.861
 4447SOL    HW214085   2.401   0.136   9.750
 4448SOL     OW14086   3.288   1.201   9.348
 4448SOL    HW114087   3.318   1.126   9.400
 4448SOL    HW214088   3.203   1.224   9.385
 4449SOL     OW14089   2.194   0.048   9.524
 4449SOL    HW114090   2.197   0.110   9.451
 4449SOL    HW214091   2.272   0.067   9.576
 4450SOL     OW14092   2.808   0.252   9.767
 4450SOL    HW114093   2.782   0.290   9.683
 4450SOL    HW214094   2.903   0.260   9.769
 4451SOL     OW14095   2.941   0.687  10.767
 4451SOL    HW114096   2.872   0.621  10.773
 4451SOL    HW214097   3.023   0.637  10.762
 4452SOL     OW14098   3.079   1.574  10.106
 4452SOL    HW114099   3.094   1.638  10.036
 4452SOL    HW214100   3.150   1.589  10.168
 4453SOL     OW14101   2.337   1.154  10.036
 4453SOL    HW114102   2.271   1.133  10.102
 4453SOL    HW214103   2.293   1.142   9.952
 4454SOL     OW14104   3.126   1.792   9.923
 4454SOL    HW114105   3.175   1.853   9.868
 4454SOL    HW214106   3.057   1.845   9.962
 4455SOL     OW14107   2.883   0.537   9.342
 4455SOL    HW114108   2.839   0.620   9.322
 4455SOL    HW214109   2.946   0.560   9.410
 4456SOL     OW14110   1.948   0.547  10.708
 4456SOL    HW114111   2.039   0.552  10.678
 4456SOL    HW214112   1.939   0.620  10.769
 4457SOL     OW14113   2.423   0.230  10.470
 4457SOL    HW114114   2.445   0.138  10.480
 4457SOL    HW214115   2.334   0.237  10.505
 4458SOL     OW14116   2.732   0.460   9.946
 4458SOL    HW114117   2.686   0.516   9.883
 4458SOL    HW214118   2.754   0.381   9.897
 4459SOL     OW14119   2.860   0.036  10.093
 4459SOL    HW114120   2.819   0.069  10.013
 4459SOL    HW214121   2.872   3.942  10.077
 4460SOL     OW14122   3.304   1.159  10.167
 4460SOL    HW114123   3.230   1.099  10.166
 4460SOL    HW214124   3.330   1.168  10.076
 4461SOL     OW14125   3.325   0.611  10.278
 4461SOL    HW114126   3.268   0.534  10.284
 4461SOL    HW214127   3.383   0.603  10.354
 4462SOL     OW14128   3.721   0.825   9.685
 4462SOL    HW114129   3.761   0.768   9.750
 4462SOL    HW214130   3.685   0.766   9.619
 4463SOL     OW14131   2.354   1.422   9.462
 4463SOL    HW114132   2.278   1.396   9.514
 4463SOL    HW214133   2.347   1.370   9.382
 4464SOL     OW14134   3.532   1.266   9.951
 4464SOL    HW114135   3.627   1.268   9.961
 4464SOL    HW214136   3.504   1.355   9.972
 4465SOL     OW14137   3.257   0.578   9.377
 4465SOL    HW114138   3.193   0.559   9.446
 4465SOL    HW214139   3.342   0.565   9.419
 4466SOL     OW14140   2.387   0.265   9.625
 4466SOL    HW114141   2.445   0.228   9.559
 4466SOL    HW214142   2.357   0.348   9.586
 4467SOL     OW14143   3.611   1.231  10.869
 4467SOL    HW114144   3.699   1.197  10.852
 4467SOL    HW214145   3.626   1.321  10.898
 4468SOL     OW14146   2.916   1.353  10.642
 4468SOL    HW114147   2.841   1.322  10.692
 4468SOL    HW214148   2.991   1.311  10.683
 4469SOL     OW14149   3.468   1.630  10.969
 4469SOL    HW114150   3.459   1.665  10.880
 4469SOL    HW214151   3.547   1.575  10.965
 4470SOL     OW14152   2.998   1.212  10.412
 4470SOL    HW114153   2.937   1.249  10.476
 4470SOL    HW214154   2.969   1.247  10.328
 4471SOL     OW14155   3.486   1.093  10.383
 4471SOL    HW114156   3.476   1.156  10.455
 4471SOL    HW214157   3.412   1.111  10.325
 4472SOL     OW14158   2.773   0.121  10.711
 4472SOL    HW114159   2.793   0.090  10.623
 4472SOL    HW214160   2.854   0.162  10.741
 4473SOL     OW14161   2.846   1.116  11.034
 4473SOL    HW114162   2.755   1.132  11.058
 4473SOL    HW214163   2.843   1.037  10.980
 4474SOL     OW14164   2.572   1.063   9.681
 4474SOL    HW114165   2.557   1.043   9.773
 4474SOL    HW214166   2.647   1.009   9.656
 4475SOL     OW14167   2.285   0.818  10.562
 4475SOL    HW114168   2.354   0.826  10.628
 4475SOL    HW214169   2.250   0.730  10.575
 4476SOL     OW14170   3.128   0.375  10.588
 4476SOL    HW114171   3.161   0.453  10.632
 4476SOL    HW214172   3.040   0.398  10.558
 4477SOL     OW14173   1.957   1.553  10.674
 4477SOL    HW114174   1.939   1.624  10.613
 4477SOL    HW214175   2.051   1.540  10.669
 4478SOL     OW14176   2.202   1.118   9.800
 4478SOL    HW114177   2.202   1.195   9.741
 4478SOL    HW214178   2.199   1.043   9.740
 4479SOL     OW14179   2.414   0.526  10.165
 4479SOL    HW114180   2.426   0.587  10.091
 4479SOL    HW214181   2.479   0.553  10.229
 4480SOL     OW14182   3.109   1.350   9.701
 4480SOL    HW114183   3.165   1.421   9.733
 4480SOL    HW214184   3.022   1.371   9.734
 4481SOL     OW14185   3.152   1.461  10.458
 4481SOL    HW114186   3.207   1.467  10.536
 4481SOL    HW214187   3.098   1.384  10.472
 4482SOL     OW14188   3.429   0.635   9.799
 4482SOL    HW114189   3.386   0.685   9.868
 4482SOL    HW214190   3.475   0.700   9.746
 4483SOL     OW14191   2.223   1.505  10.630
 4483SOL    HW114192   2.207   1.467  10.543
 4483SOL    HW214193   2.317   1.520  10.633
 4484SOL     OW14194   2.284   0.745  10.915
 4484SOL    HW114195   2.345   0.789  10.855
 4484SOL    HW214196   2.326   0.661  10.934
 4485SOL     OW14197   3.470   0.781  10.997
 4485SOL    HW114198   3.384   0.823  10.991
 4485SOL    HW214199   3.522   0.823  10.930
 4486SOL     OW14200   2.866   0.143  11.093
 4486SOL    HW114201   2.926   0.210  11.059
 4486SOL    HW214202   2.854   0.083  11.020
 4487SOL     OW14203   2.353   0.035  11.070
 4487SOL    HW114204   2.351   0.052  10.976
 4487SOL    HW214205   2.293   0.099  11.107
 4488SOL     OW14206   2.448   0.874  10.342
 4488SOL    HW114207   2.479   0.965  10.345
 4488SOL    HW214208   2.390   0.867  10.418
 4489SOL     OW14209   3.207   0.859  10.330
 4489SOL    HW114210   3.121   0.843  10.292
 4489SOL    HW214211   3.253   0.775  10.321
 4490SOL     OW14212   3.059   0.540   9.563
 4490SOL    HW114213   3.066   0.461   9.617
 4490SOL    HW214214   3.017   0.603   9.621
 4491SOL     OW14215   2.158   0.207  10.553
 4491SOL    HW114216   2.115   0.235  10.634
 4491SOL    HW214217   2.148   0.112  10.553
 4492SOL     OW14218   1.899   1.301  10.588
 4492SOL    HW114219   1.935   1.244  10.656
 4492SOL    HW214220   1.915   1.390  10.622
 4493SOL     OW14221   2.581   0.630  10.358
 4493SOL    HW114222   2.658   0.621  10.302
 4493SOL    HW214223   2.550   0.720  10.342
 4494SOL     OW14224   3.594   0.956  11.179
 4494SOL    HW114225   3.553   0.891  11.122
 4494SOL    HW214226   3.528   0.974  11.247
 4495SOL     OW14227   2.186   0.053   9.970
 4495SOL    HW114228   2.165   0.146   9.979
 4495SOL    HW214229   2.162   0.014  10.054
 4496SOL     OW14230   3.477   0.398   9.687
 4496SOL    HW114231   3.431   0.330   9.736
 4496SOL    HW214232   3.455   0.479   9.733
 4497SOL     OW14233   2.893   0.759  10.267
 4497SOL    HW114234   2.883   0.775  10.361
 4497SOL    HW214235   2.865   0.668  10.255
 4498SOL     OW14236   2.842   1.566  11.033
 4498SOL    HW114237   2.827   1.610  10.949
 4498SOL    HW214238   2.886   1.484  11.009
 4499SOL     OW14239   3.702   1.493  10.906
 4499SOL    HW114240   3.727   1.525  10.820
 4499SOL    HW214241   3.781   1.500  10.959
 4500SOL     OW14242   2.213   0.915  11.120
 4500SOL    HW114243   2.294   0.935  11.168
 4500SOL    HW214244   2.241   0.853  11.053
 4501SOL     OW14245   3.357   0.269   9.441
 4501SOL    HW114246   3.286   0.206   9.450
 4501SOL    HW214247   3.367   0.308   9.528
 4502SOL     OW14248   3.147   0.827   9.336
 4502SOL    HW114249   3.189   0.741   9.340
 4502SOL    HW214250   3.180   0.866   9.255
 4503SOL     OW14251   2.931   1.340  10.168
 4503SOL    HW114252   2.936   1.268  10.105
 4503SOL    HW214253   2.988   1.408  10.132
 4504SOL     OW14254   2.169   0.811  10.255
 4504SOL    HW114255   2.262   0.831  10.247
 4504SOL    HW214256   2.167   0.720  10.288
 4505SOL     OW14257   2.199   0.538  10.325
 4505SOL    HW114258   2.156   0.454  10.311
 4505SOL    HW214259   2.274   0.538  10.267
 4506SOL     OW14260   2.996   0.378  11.010
 4506SOL    HW114261   2.947   0.432  11.072
 4506SOL    HW214262   3.082   0.420  11.005
 4507SOL     OW14263   3.014   0.226  10.791
 4507SOL    HW114264   3.004   0.278  10.871
 4507SOL    HW214265   3.042   0.288  10.724
 4508SOL     OW14266   1.869   1.313   9.499
 4508SOL    HW114267   1.780   1.329   9.466
 4508SOL    HW214268   1.865   1.224   9.536
 4509SOL     OW14269   2.354   1.574  10.218
 4509SOL    HW114270   2.420   1.641  10.237
 4509SOL    HW214271   2.398   1.513  10.159
 4510SOL     OW14272   2.834   0.785  10.531
 4510SOL    HW114273   2.892   0.769  10.605
 4510SOL    HW214274   2.750   0.747  10.558
 4511SOL     OW14275   1.895   0.549  10.428
 4511SOL    HW114276   1.969   0.526  10.372
 4511SOL    HW214277   1.930   0.547  10.516
 4512SOL     OW14278   2.066   0.528  11.021
 4512SOL    HW114279   2.140   0.508  10.963
 4512SOL    HW214280   2.024   0.604  10.981
 4513SOL     OW14281   3.244   0.933  10.966
 4513SOL    HW114282   3.265   1.026  10.962
 4513SOL    HW214283   3.238   0.906  10.874
 4514SOL     OW14284   2.679   0.573   9.678
 4514SOL    HW114285   2.686   0.498   9.619
 4514SOL    HW214286   2.605   0.623   9.646
 4515SOL     OW14287   3.499   0.602  10.489
 4515SOL    HW114288   3.488   0.542  10.562
 4515SOL    HW214289   3.586   0.582  10.454
 4516SOL     OW14290   2.089   1.558  11.048
 4516SOL    HW114291   2.083   1.606  11.130
 4516SOL    HW214292   2.103   1.467  11.075
 4517SOL     OW14293   2.579   0.448  10.560
 4517SOL    HW114294   2.524   0.373  10.538
 4517SOL    HW214295   2.566   0.509  10.487
 4518SOL     OW14296   2.784   1.677  10.783
 4518SOL    HW114297   2.760   1.638  10.698
 4518SOL    HW214298   2.781   1.771  10.767
 4519SOL     OW14299   2.322   0.492   9.488
 4519SOL    HW114300   2.380   0.564   9.514
 4519SOL    HW214301   2.236   0.534   9.477
 4520SOL     OW14302   2.002   1.139  10.785
 4520SOL    HW114303   2.004   1.093  10.870
 4520SOL    HW214304   2.020   1.071  10.721
 4521SOL     OW14305   3.180   1.042  10.529
 4521SOL    HW114306   3.202   0.980  10.460
 4521SOL    HW214307   3.115   1.100  10.490
 4522SOL     OW14308   3.178   0.853   9.613
 4522SOL    HW114309   3.103   0.827   9.666
 4522SOL    HW214310   3.149   0.843   9.522
 4523SOL     OW14311   3.648   1.737  10.472
 4523SOL    HW114312   3.702   1.765  10.398
 4523SOL    HW214313   3.615   1.651  10.446
 4524SOL     OW14314   3.102   1.733  10.415
 4524SOL    HW114315   3.185   1.758  10.373
 4524SOL    HW214316   3.112   1.640  10.436
 4525SOL     OW14317   1.958   1.255  10.329
 4525SOL    HW114318   1.932   1.269  10.420
 4525SOL    HW214319   1.881   1.216  10.288
 4526SOL     OW14320   2.540   1.672  11.046
 4526SOL    HW114321   2.485   1.751  11.043
 4526SOL    HW214322   2.610   1.689  10.983
 4527SOL     OW14323   3.548   0.117   9.799
 4527SOL    HW114324   3.628   0.134   9.750
 4527SOL    HW214325   3.553   0.025   9.822
 4528SOL     OW14326   3.254   1.567   9.802
 4528SOL    HW114327   3.312   1.601   9.734
 4528SOL    HW214328   3.203   1.643   9.830
 4529SOL     OW14329   3.139   0.929   9.981
 4529SOL    HW114330   3.214   0.870   9.993
 4529SOL    HW214331   3.173   1.000   9.927
 4530SOL     OW14332   2.666   1.276  10.733
 4530SOL    HW114333   2.637   1.318  10.815
 4530SOL    HW214334   2.596   1.296  10.671
 4531SOL     OW14335   2.534   1.625   9.462
 4531SOL    HW114336   2.545   1.639   9.368
 4531SOL    HW214337   2.478   1.548   9.468
 4532SOL     OW14338   3.478   1.728  10.702
 4532SOL    HW114339   3.536   1.731  10.626
 4532SOL    HW214340   3.464   1.820  10.726
 4533SOL     OW14341   3.706   0.182  10.281
 4533SOL    HW114342   3.729   0.097  10.244
 4533SOL    HW214343   3.620   0.202  10.244
 4534SOL     OW14344   2.123   0.314  10.024
 4534SOL    HW114345   2.037   0.349  10.000
 4534SOL    HW214346   2.122   0.310  10.120
 4535SOL     OW14347   3.070   1.601   9.343
 4535SOL    HW114348   3.058   1.509   9.370
 4535SOL    HW214349   3.003   1.615   9.276
 4536SOL     OW14350   2.686   1.007  10.685
 4536SOL    HW114351   2.726   1.002  10.598
 4536SOL    HW214352   2.681   1.101  10.703
 4537SOL     OW14353   2.778   0.911   9.601
 4537SOL    HW114354   2.838   0.944   9.534
 4537SOL    HW214355   2.828   0.843   9.647
 4538SOL     OW14356   3.349   1.633   9.355
 4538SOL    HW114357   3.255   1.621   9.340
 4538SOL    HW214358   3.387   1.638   9.268
 4539SOL     OW14359   2.228   1.297  10.813
 4539SOL    HW114360   2.225   1.368  10.749
 4539SOL    HW214361   2.151   1.243  10.793
 4540SOL     OW14362   3.459   1.280  10.585
 4540SOL    HW114363   3.528   1.270  10.650
 4540SOL    HW214364   3.403   1.349  10.621
 4541SOL     OW14365   2.924   1.111  10.022
 4541SOL    HW114366   2.851   1.061  10.058
 4541SOL    HW214367   2.987   1.045   9.995
 4542SOL     OW14368   2.878   0.250  10.281
 4542SOL    HW114369   2.868   0.199  10.201
 4542SOL    HW214370   2.877   0.185  10.352
 4543SOL     OW14371   2.468   1.492   9.790
 4543SOL    HW114372   2.513   1.441   9.723
 4543SOL    HW214373   2.401   1.541   9.743
 4544SOL     OW14374   3.583   0.396  10.680
 4544SOL    HW114375   3.656   0.458  10.681
 4544SOL    HW214376   3.615   0.323  10.626
 4545SOL     OW14377   2.124   1.339   9.601
 4545SOL    HW114378   2.032   1.334   9.578
 4545SOL    HW214379   2.124   1.377   9.689
 4546SOL     OW14380   1.978   1.038  11.039
 4546SOL    HW114381   1.901   1.008  11.087
 4546SOL    HW214382   2.051   0.991  11.080
 4547SOL     OW14383   2.559   0.267  10.816
 4547SOL    HW114384   2.624   0.210  10.775
 4547SOL    HW214385   2.585   0.269  10.908
 4548SOL     OW14386   1.966   0.317   9.302
 4548SOL    HW114387   1.899   0.336   9.368
 4548SOL    HW214388   1.972   0.397   9.250
 4549SOL     OW14389   3.283   0.855  10.706
 4549SOL    HW114390   3.233   0.917  10.653
 4549SOL    HW214391   3.372   0.859  10.669
 4550SOL     OW14392   1.942   0.148   9.648
 4550SOL    HW114393   1.909   0.206   9.579
 4550SOL    HW214394   2.029   0.123   9.619
 4551SOL     OW14395   3.040   1.334   9.428
 4551SOL    HW114396   2.949   1.304   9.430
 4551SOL    HW214397   3.066   1.335   9.520
 4552SOL     OW14398   2.485   0.828  10.744
 4552SOL    HW114399   2.542   0.904  10.730
 4552SOL    HW214400   2.546   0.754  10.753
 4553SOL     OW14401   3.344   1.788  10.292
 4553SOL    HW114402   3.367   1.855  10.228
 4553SOL    HW214403   3.428   1.752  10.321
 4554SOL     OW14404   2.580   0.558  11.013
 4554SOL    HW114405   2.625   0.619  11.072
 4554SOL    HW214406   2.600   0.472  11.048
 4555SOL     OW14407   3.336   1.193  10.938
 4555SOL    HW114408   3.325   1.209  11.031
 4555SOL    HW214409   3.428   1.210  10.921
 4556SOL     OW14410   2.227   1.744  10.885
 4556SOL    HW114411   2.166   1.751  10.811
 4556SOL    HW214412   2.196   1.668  10.934
 4557SOL     OW14413   3.523   0.880  10.569
 4557SOL    HW114414   3.523   0.795  10.525
 4557SOL    HW214415   3.516   0.944  10.498
 4558SOL     OW14416   3.080   0.341   9.750
 4558SOL    HW114417   3.150   0.277   9.740
 4558SOL    HW214418   3.098   0.384   9.833
 4559SOL     OW14419   2.449   0.733   9.983
 4559SOL    HW114420   2.489   0.819   9.969
 4559SOL    HW214421   2.384   0.725   9.913
 4560SOL     OW14422   3.614   0.380  10.952
 4560SOL    HW114423   3.594   0.390  10.858
 4560SOL    HW214424   3.552   0.314  10.982
 4561SOL     OW14425   3.617   0.929  10.822
 4561SOL    HW114426   3.606   1.023  10.841
 4561SOL    HW214427   3.590   0.920  10.730
 4562SOL     OW14428   2.726   1.365   9.354
 4562SOL    HW114429   2.688   1.391   9.438
 4562SOL    HW214430   2.741   1.447   9.308
 4563SOL     OW14431   2.524   1.792  10.246
 4563SOL    HW114432   2.517   1.887  10.241
 4563SOL    HW214433   2.619   1.775  10.243
 4564SOL     OW14434   2.732   0.971  10.164
 4564SOL    HW114435   2.782   0.899  10.201
 4564SOL    HW214436   2.692   1.015  10.239
 4565SOL     OW14437   2.939   0.990   9.400
 4565SOL    HW114438   2.917   1.042   9.322
 4565SOL    HW214439   3.012   0.935   9.372
 4566SOL     OW14440   3.709   1.557  10.150
 4566SOL    HW114441   3.630   1.541  10.099
 4566SOL    HW214442   3.710   1.487  10.216
 4567SOL     OW14443   2.079   1.298  11.156
 4567SOL    HW114444   2.031   1.225  11.117
 4567SOL    HW214445   2.036   1.314  11.240
 4568SOL     OW14446   1.948   1.207   9.971
 4568SOL    HW114447   1.973   1.171  10.057
 4568SOL    HW214448   2.022   1.187   9.914
 4569SOL     OW14449   2.544   1.408  10.939
 4569SOL    HW114450   2.468   1.366  10.978
 4569SOL    HW214451   2.544   1.497  10.976
 4570SOL     OW14452   3.674   0.181  10.554
 4570SOL    HW114453   3.676   0.086  10.564
 4570SOL    HW214454   3.694   0.196  10.462
 4571SOL     OW14455   2.289   0.434   9.835
 4571SOL    HW114456   2.325   0.363   9.782
 4571SOL    HW214457   2.241   0.390   9.905
 4572SOL     OW14458   3.555   1.491  10.405
 4572SOL    HW114459   3.478   1.469  10.352
 4572SOL    HW214460   3.561   1.418  10.468
 4573SOL     OW14461   2.198   0.558  10.606
 4573SOL    HW114462   2.249   0.497  10.660
 4573SOL    HW214463   2.216   0.532  10.516
 4574SOL     OW14464   2.694   1.577   9.985
 4574SOL    HW114465   2.673   1.640   9.916
 4574SOL    HW214466   2.619   1.518   9.987
 4575SOL     OW14467   3.322   0.255  10.419
 4575SOL    HW114468   3.336   0.167  10.455
 4575SOL    HW214469   3.267   0.298  10.485
 4576SOL     OW14470   2.863   0.024  10.455
 4576SOL    HW114471   2.779   0.005  10.413
 4576SOL    HW214472   2.905   3.938  10.463
 4577SOL     OW14473   2.637   1.334   9.630
 4577SOL    HW114474   2.609   1.243   9.639
 4577SOL    HW214475   2.717   1.340   9.681
 4578SOL     OW14476   2.486   1.554  10.595
 4578SOL    HW114477   2.485   1.635  10.645
 4578SOL    HW214478   2.575   1.549  10.559
 4579SOL     OW14479   3.167   0.068   9.469
 4579SOL    HW114480   3.169   3.978   9.437
 4579SOL    HW214481   3.086   0.073   9.520
 4580SOL     OW14482   3.139   0.456   9.993
 4580SOL    HW114483   3.094   0.540   9.987
 4580SOL    HW214484   3.143   0.438  10.087
 4581SOL     OW14485   3.454   0.210  10.178
 4581SOL    HW114486   3.405   0.234  10.256
 4581SOL    HW214487   3.452   0.288  10.123
 4582SOL     OW14488   1.905   1.066   9.616
 4582SOL    HW114489   1.999   1.058   9.600
 4582SOL    HW214490   1.878   0.978   9.642
 4583SOL     OW14491   2.753   1.658   9.645
 4583SOL    HW114492   2.678   1.644   9.588
 4583SOL    HW214493   2.728   1.731   9.701
 4584SOL     OW14494   2.084   0.617  11.293
 4584SOL    HW114495   1.994   0.628  11.325
 4584SOL    HW214496   2.074   0.599  11.200
 4585SOL     OW14497   2.078   0.303  12.165
 4585SOL    HW114498   2.114   0.259  12.241
 4585SOL    HW214499   1.993   0.262  12.151
 4586SOL     OW14500   1.870   0.400  11.802
 4586SOL    HW114501   1.785   0.416  11.843
 4586SOL    HW214502   1.853   0.334  11.735
 4587SOL     OW14503   2.431   1.296  12.354
 4587SOL    HW114504   2.346   1.301  12.311
 4587SOL    HW214505   2.450   1.386  12.380
 4588SOL     OW14506   3.432   1.515  11.881
 4588SOL    HW114507   3.388   1.492  11.963
 4588SOL    HW214508   3.361   1.520  11.817
 4589SOL     OW14509   2.996   0.699  11.865
 4589SOL    HW114510   3.043   0.781  11.853
 4589SOL    HW214511   2.947   0.710  11.947
 4590SOL     OW14512   3.629   0.624  11.396
 4590SOL    HW114513   3.607   0.611  11.303
 4590SOL    HW214514   3.604   0.542  11.438
 4591SOL     OW14515   2.609   1.136  12.220
 4591SOL    HW114516   2.542   1.174  12.278
 4591SOL    HW214517   2.648   1.212  12.176
 4592SOL     OW14518   2.737   0.763  12.997
 4592SOL    HW114519   2.723   0.834  13.059
 4592SOL    HW214520   2.758   0.808  12.915
 4593SOL     OW14521   2.548   0.996  11.815
 4593SOL    HW114522   2.614   0.989  11.884
 4593SOL    HW214523   2.480   1.051  11.852
 4594SOL     OW14524   2.577   1.149  12.991
 4594SOL    HW114525   2.625   1.226  13.022
 4594SOL    HW214526   2.496   1.184  12.954
 4595SOL     OW14527   2.192   1.418  12.241
 4595SOL    HW114528   2.118   1.377  12.197
 4595SOL    HW214529   2.235   1.469  12.173
 4596SOL     OW14530   3.320   1.502  12.534
 4596SOL    HW114531   3.375   1.580  12.543
 4596SOL    HW214532   3.252   1.513  12.601
 4597SOL     OW14533   2.310   0.389  12.660
 4597SOL    HW114534   2.402   0.364  12.663
 4597SOL    HW214535   2.262   0.307  12.670
 4598SOL     OW14536   3.472   0.449  11.907
 4598SOL    HW114537   3.406   0.484  11.846
 4598SOL    HW214538   3.487   0.521  11.968
 4599SOL     OW14539   2.112   1.697  11.659
 4599SOL    HW114540   2.065   1.780  11.648
 4599SOL    HW214541   2.184   1.702  11.596
 4600SOL     OW14542   2.999   1.343  12.866
 4600SOL    HW114543   3.041   1.336  12.952
 4600SOL    HW214544   2.948   1.263  12.858
 4601SOL     OW14545   2.093   1.432  11.718
 4601SOL    HW114546   2.096   1.528  11.714
 4601SOL    HW214547   2.030   1.413  11.787
 4602SOL     OW14548   2.132   1.090  12.062
 4602SOL    HW114549   2.125   1.001  12.097
 4602SOL    HW214550   2.074   1.142  12.118
 4603SOL     OW14551   2.465   1.783  12.603
 4603SOL    HW114552   2.387   1.773  12.659
 4603SOL    HW214553   2.494   1.873  12.619
 4604SOL     OW14554   2.440   0.985  11.312
 4604SOL    HW114555   2.490   1.029  11.243
 4604SOL    HW214556   2.479   1.017  11.394
 4605SOL     OW14557   3.446   0.144  12.627
 4605SOL    HW114558   3.475   0.216  12.570
 4605SOL    HW214559   3.403   0.188  12.700
 4606SOL     OW14560   1.983   0.658  11.734
 4606SOL    HW114561   1.954   0.570  11.757
 4606SOL    HW214562   1.973   0.709  11.815
 4607SOL     OW14563   3.704   1.758  11.507
 4607SOL    HW114564   3.775   1.734  11.567
 4607SOL    HW214565   3.721   1.850  11.486
 4608SOL     OW14566   3.553   0.920  11.823
 4608SOL    HW114567   3.635   0.875  11.806
 4608SOL    HW214568   3.534   0.969  11.743
 4609SOL     OW14569   3.505   1.102  11.605
 4609SOL    HW114570   3.590   1.106  11.561
 4609SOL    HW214571   3.511   1.166  11.676
 4610SOL     OW14572   1.984   0.751  12.750
 4610SOL    HW114573   2.072   0.787  12.752
 4610SOL    HW214574   1.926   0.827  12.750
 4611SOL     OW14575   2.478   1.393  11.907
 4611SOL    HW114576   2.434   1.308  11.915
 4611SOL    HW214577   2.461   1.421  11.817
 4612SOL     OW14578   3.146   1.235  12.593
 4612SOL    HW114579   3.178   1.168  12.533
 4612SOL    HW214580   3.207   1.231  12.667
 4613SOL     OW14581   2.684   0.007  11.691
 4613SOL    HW114582   2.730   0.087  11.663
 4613SOL    HW214583   2.592   0.031  11.689
 4614SOL     OW14584   2.050   0.957  12.454
 4614SOL    HW114585   2.136   0.918  12.438
 4614SOL    HW214586   1.993   0.918  12.388
 4615SOL     OW14587   3.388   1.000  11.374
 4615SOL    HW114588   3.320   0.942  11.408
 4615SOL    HW214589   3.432   1.034  11.452
 4616SOL     OW14590   3.046   1.812  12.797
 4616SOL    HW114591   3.054   1.873  12.724
 4616SOL    HW214592   3.064   1.726  12.759
 4617SOL     OW14593   2.224   0.247  13.033
 4617SOL    HW114594   2.269   0.331  13.040
 4617SOL    HW214595   2.131   0.271  13.028
 4618SOL     OW14596   3.329   1.420  12.118
 4618SOL    HW114597   3.263   1.436  12.185
 4618SOL    HW214598   3.317   1.328  12.093
 4619SOL     OW14599   3.511   1.754  11.751
 4619SOL    HW114600   3.496   1.719  11.663
 4619SOL    HW214601   3.496   1.680  11.809
 4620SOL     OW14602   2.456   0.717  11.443
 4620SOL    HW114603   2.459   0.802  11.398
 4620SOL    HW214604   2.391   0.729  11.512
 4621SOL     OW14605   3.136   0.374  12.113
 4621SOL    HW114606   3.049   0.335  12.122
 4621SOL    HW214607   3.194   0.313  12.159
 4622SOL     OW14608   3.439   1.673  11.484
 4622SOL    HW114609   3.530   1.700  11.476
 4622SOL    HW214610   3.411   1.657  11.393
 4623SOL     OW14611   2.657   0.614  12.621
 4623SOL    HW114612   2.630   0.587  12.709
 4623SOL    HW214613   2.623   0.546  12.563
 4624SOL     OW14614   3.254   0.475  12.850
 4624SOL    HW114615   3.261   0.521  12.933
 4624SOL    HW214616   3.309   0.398  12.860
 4625SOL     OW14617   2.811   0.886  12.759
 4625SOL    HW114618   2.867   0.819  12.720
 4625SOL    HW214619   2.763   0.923  12.685
 4626SOL     OW14620   2.858   0.401  12.405
 4626SOL    HW114621   2.770   0.418  12.441
 4626SOL    HW214622   2.842   0.376  12.314
 4627SOL     OW14623   2.915   0.701  11.596
 4627SOL    HW114624   2.934   0.694  11.689
 4627SOL    HW214625   2.832   0.655  11.584
 4628SOL     OW14626   1.948   0.822  11.950
 4628SOL    HW114627   2.028   0.816  12.002
 4628SOL    HW214628   1.902   0.898  11.986
 4629SOL     OW14629   2.757   0.353  11.373
 4629SOL    HW114630   2.800   0.413  11.312
 4629SOL    HW214631   2.745   0.272  11.323
 4630SOL     OW14632   3.564   0.572  13.003
 4630SOL    HW114633   3.529   0.647  12.954
 4630SOL    HW214634   3.591   0.510  12.935
 4631SOL     OW14635   3.240   1.141  11.711
 4631SOL    HW114636   3.320   1.130  11.659
 4631SOL    HW214637   3.189   1.205  11.661
 4632SOL     OW14638   2.422   0.199  12.052
 4632SOL    HW114639   2.424   0.219  12.145
 4632SOL    HW214640   2.417   0.285  12.009
 4633SOL     OW14641   2.861   1.443  11.640
 4633SOL    HW114642   2.831   1.518  11.589
 4633SOL    HW214643   2.837   1.464  11.730
 4634SOL     OW14644   2.252   1.817  11.973
 4634SOL    HW114645   2.255   1.723  11.993
 4634SOL    HW214646   2.313   1.857  12.035
 4635SOL     OW14647   3.669   1.063  12.042
 4635SOL    HW114648   3.618   1.033  11.967
 4635SOL    HW214649   3.607   1.065  12.115
 4636SOL     OW14650   3.088   1.541  12.686
 4636SOL    HW114651   3.076   1.468  12.747
 4636SOL    HW214652   3.020   1.526  12.619
 4637SOL     OW14653   2.177   0.962  11.428
 4637SOL    HW114654   2.260   0.981  11.383
 4637SOL    HW214655   2.148   0.879  11.390
 4638SOL     OW14656   3.344   0.752  11.898
 4638SOL    HW114657   3.340   0.712  11.985
 4638SOL    HW214658   3.421   0.809  11.902
 4639SOL     OW14659   2.333   1.268  12.919
 4639SOL    HW114660   2.308   1.270  12.826
 4639SOL    HW214661   2.249   1.265  12.966
 4640SOL     OW14662   2.990   1.776  11.402
 4640SOL    HW114663   2.912   1.738  11.443
 4640SOL    HW214664   3.013   1.714  11.333
 4641SOL     OW14665   2.027   0.274  12.672
 4641SOL    HW114666   1.979   0.355  12.653
 4641SOL    HW214667   2.025   0.268  12.768
 4642SOL     OW14668   3.486   1.386  11.259
 4642SOL    HW114669   3.442   1.470  11.245
 4642SOL    HW214670   3.419   1.321  11.239
 4643SOL     OW14671   2.333   1.721  11.497
 4643SOL    HW114672   2.379   1.787  11.549
 4643SOL    HW214673   2.395   1.696  11.429
 4644SOL     OW14674   3.299   0.178  11.574
 4644SOL    HW114675   3.246   0.103  11.550
 4644SOL    HW214676   3.374   0.141  11.620
 4645SOL     OW14677   2.133   1.740  12.379
 4645SOL    HW114678   2.187   1.674  12.423
 4645SOL    HW214679   2.157   1.734  12.287
 4646SOL     OW14680   2.800   1.698  12.069
 4646SOL    HW114681   2.881   1.651  12.089
 4646SOL    HW214682   2.760   1.648  11.998
 4647SOL     OW14683   2.259   0.695  11.644
 4647SOL    HW114684   2.275   0.601  11.658
 4647SOL    HW214685   2.166   0.706  11.662
 4648SOL     OW14686   3.391   0.227  12.897
 4648SOL    HW114687   3.380   0.251  12.989
 4648SOL    HW214688   3.382   0.132  12.896
 4649SOL     OW14689   2.507   0.125  11.283
 4649SOL    HW114690   2.524   0.038  11.321
 4649SOL    HW214691   2.445   0.108  11.212
 4650SOL     OW14692   2.634   0.285  12.947
 4650SOL    HW114693   2.713   0.232  12.948
 4650SOL    HW214694   2.580   0.249  13.018
 4651SOL     OW14695   2.740   1.523  12.365
 4651SOL    HW114696   2.723   1.485  12.279
 4651SOL    HW214697   2.809   1.468  12.403
 4652SOL     OW14698   3.200   0.588  12.603
 4652SOL    HW114699   3.231   0.559  12.689
 4652SOL    HW214700   3.234   0.676  12.593
 4653SOL     OW14701   2.680   1.388  12.119
 4653SOL    HW114702   2.765   1.378  12.076
 4653SOL    HW214703   2.618   1.396  12.047
 4654SOL     OW14704   2.793   0.512  12.069
 4654SOL    HW114705   2.767   0.504  11.977
 4654SOL    HW214706   2.817   0.424  12.096
 4655SOL     OW14707   2.406   0.055  11.663
 4655SOL    HW114708   2.332   0.061  11.724
 4655SOL    HW214709   2.401   0.136  11.612
 4656SOL     OW14710   3.289   1.201  11.210
 4656SOL    HW114711   3.318   1.126  11.262
 4656SOL    HW214712   3.204   1.224  11.248
 4657SOL     OW14713   2.194   0.048  11.386
 4657SOL    HW114714   2.197   0.110  11.313
 4657SOL    HW214715   2.272   0.067  11.438
 4658SOL     OW14716   2.808   0.252  11.629
 4658SOL    HW114717   2.782   0.290  11.545
 4658SOL    HW214718   2.903   0.260  11.631
 4659SOL     OW14719   2.941   0.687  12.629
 4659SOL    HW114720   2.872   0.621  12.634
 4659SOL    HW214721   3.023   0.637  12.624
 4660SOL     OW14722   3.079   1.574  11.968
 4660SOL    HW114723   3.094   1.638  11.898
 4660SOL    HW214724   3.150   1.589  12.030
 4661SOL     OW14725   2.337   1.154  11.898
 4661SOL    HW114726   2.271   1.133  11.963
 4661SOL    HW214727   2.293   1.142  11.814
 4662SOL     OW14728   3.126   1.792  11.785
 4662SOL    HW114729   3.175   1.853  11.730
 4662SOL    HW214730   3.057   1.845  11.825
 4663SOL     OW14731   2.883   0.537  11.204
 4663SOL    HW114732   2.839   0.620  11.184
 4663SOL    HW214733   2.946   0.560  11.272
 4664SOL     OW14734   1.948   0.547  12.570
 4664SOL    HW114735   2.039   0.551  12.540
 4664SOL    HW214736   1.939   0.620  12.631
 4665SOL     OW14737   2.423   0.230  12.332
 4665SOL    HW114738   2.445   0.138  12.342
 4665SOL    HW214739   2.334   0.237  12.367
 4666SOL     OW14740   2.732   0.460  11.808
 4666SOL    HW114741   2.686   0.516  11.745
 4666SOL    HW214742   2.754   0.381  11.759
 4667SOL     OW14743   2.860   0.036  11.955
 4667SOL    HW114744   2.818   0.069  11.875
 4667SOL    HW214745   2.872   3.942  11.939
 4668SOL     OW14746   3.304   1.159  12.030
 4668SOL    HW114747   3.230   1.098  12.028
 4668SOL    HW214748   3.330   1.168  11.938
 4669SOL     OW14749   3.325   0.611  12.141
 4669SOL    HW114750   3.268   0.534  12.145
 4669SOL    HW214751   3.383   0.603  12.216
 4670SOL     OW14752   3.721   0.825  11.547
 4670SOL    HW114753   3.761   0.768  11.612
 4670SOL    HW214754   3.685   0.766  11.482
 4671SOL     OW14755   2.352   1.424  11.320
 4671SOL    HW114756   2.278   1.396  11.375
 4671SOL    HW214757   2.350   1.365  11.245
 4672SOL     OW14758   3.532   1.266  11.813
 4672SOL    HW114759   3.627   1.268  11.823
 4672SOL    HW214760   3.504   1.355  11.834
 4673SOL     OW14761   3.257   0.578  11.239
 4673SOL    HW114762   3.193   0.559  11.308
 4673SOL    HW214763   3.342   0.565  11.281
 4674SOL     OW14764   2.387   0.265  11.487
 4674SOL    HW114765   2.445   0.227  11.421
 4674SOL    HW214766   2.357   0.348  11.448
 4675SOL     OW14767   3.612   1.231  12.731
 4675SOL    HW114768   3.700   1.197  12.714
 4675SOL    HW214769   3.626   1.321  12.760
 4676SOL     OW14770   2.916   1.353  12.504
 4676SOL    HW114771   2.841   1.322  12.554
 4676SOL    HW214772   2.991   1.311  12.545
 4677SOL     OW14773   3.468   1.629  12.830
 4677SOL    HW114774   3.459   1.665  12.742
 4677SOL    HW214775   3.547   1.575  12.827
 4678SOL     OW14776   2.998   1.212  12.274
 4678SOL    HW114777   2.937   1.249  12.338
 4678SOL    HW214778   2.969   1.247  12.190
 4679SOL     OW14779   3.486   1.093  12.245
 4679SOL    HW114780   3.476   1.156  12.317
 4679SOL    HW214781   3.412   1.110  12.187
 4680SOL     OW14782   2.773   0.121  12.573
 4680SOL    HW114783   2.793   0.090  12.485
 4680SOL    HW214784   2.854   0.162  12.603
 4681SOL     OW14785   2.846   1.115  12.896
 4681SOL    HW114786   2.755   1.132  12.920
 4681SOL    HW214787   2.843   1.037  12.842
 4682SOL     OW14788   2.572   1.064  11.543
 4682SOL    HW114789   2.557   1.043  11.635
 4682SOL    HW214790   2.647   1.010  11.518
 4683SOL     OW14791   2.285   0.818  12.424
 4683SOL    HW114792   2.354   0.826  12.491
 4683SOL    HW214793   2.250   0.730  12.437
 4684SOL     OW14794   3.128   0.375  12.450
 4684SOL    HW114795   3.161   0.453  12.494
 4684SOL    HW214796   3.040   0.398  12.420
 4685SOL     OW14797   1.958   1.553  12.534
 4685SOL    HW114798   1.940   1.625  12.474
 4685SOL    HW214799   2.052   1.539  12.529
 4686SOL     OW14800   2.202   1.119  11.661
 4686SOL    HW114801   2.201   1.196  11.603
 4686SOL    HW214802   2.199   1.044  11.601
 4687SOL     OW14803   2.414   0.526  12.027
 4687SOL    HW114804   2.426   0.587  11.953
 4687SOL    HW214805   2.479   0.554  12.091
 4688SOL     OW14806   3.109   1.350  11.563
 4688SOL    HW114807   3.165   1.421  11.595
 4688SOL    HW214808   3.022   1.371  11.596
 4689SOL     OW14809   3.152   1.461  12.320
 4689SOL    HW114810   3.207   1.467  12.398
 4689SOL    HW214811   3.098   1.384  12.335
 4690SOL     OW14812   3.429   0.635  11.661
 4690SOL    HW114813   3.386   0.685  11.730
 4690SOL    HW214814   3.475   0.700  11.608
 4691SOL     OW14815   2.223   1.504  12.492
 4691SOL    HW114816   2.208   1.467  12.405
 4691SOL    HW214817   2.318   1.520  12.495
 4692SOL     OW14818   2.284   0.745  12.777
 4692SOL    HW114819   2.345   0.789  12.717
 4692SOL    HW214820   2.325   0.661  12.795
 4693SOL     OW14821   3.469   0.781  12.859
 4693SOL    HW114822   3.384   0.824  12.853
 4693SOL    HW214823   3.522   0.824  12.792
 4694SOL     OW14824   2.867   0.143  12.956
 4694SOL    HW114825   2.925   0.211  12.921
 4694SOL    HW214826   2.854   0.082  12.883
 4695SOL     OW14827   2.353   0.035  12.931
 4695SOL    HW114828   2.351   0.053  12.837
 4695SOL    HW214829   2.293   0.099  12.969
 4696SOL     OW14830   2.448   0.874  12.204
 4696SOL    HW114831   2.479   0.965  12.207
 4696SOL    HW214832   2.390   0.867  12.280
 4697SOL     OW14833   3.207   0.859  12.192
 4697SOL    HW114834   3.121   0.843  12.154
 4697SOL    HW214835   3.253   0.775  12.183
 4698SOL     OW14836   3.059   0.540  11.425
 4698SOL    HW114837   3.066   0.461  11.479
 4698SOL    HW214838   3.017   0.603  11.483
 4699SOL     OW14839   2.158   0.207  12.415
 4699SOL    HW114840   2.115   0.235  12.496
 4699SOL    HW214841   2.148   0.112  12.415
 4700SOL     OW14842   1.898   1.301  12.451
 4700SOL    HW114843   1.934   1.244  12.518
 4700SOL    HW214844   1.914   1.390  12.483
 4701SOL     OW14845   2.581   0.630  12.220
 4701SOL    HW114846   2.658   0.621  12.164
 4701SOL    HW214847   2.550   0.720  12.204
 4702SOL     OW14848   3.594   0.954  13.043
 4702SOL    HW114849   3.553   0.891  12.985
 4702SOL    HW214850   3.527   0.973  13.109
 4703SOL     OW14851   2.186   0.053  11.832
 4703SOL    HW114852   2.165   0.145  11.841
 4703SOL    HW214853   2.162   0.014  11.916
 4704SOL     OW14854   3.477   0.398  11.549
 4704SOL    HW114855   3.431   0.330  11.598
 4704SOL    HW214856   3.455   0.479  11.595
 4705SOL     OW14857   2.893   0.759  12.129
 4705SOL    HW114858   2.883   0.775  12.223
 4705SOL    HW214859   2.865   0.668  12.117
 4706SOL     OW14860   2.842   1.566  12.895
 4706SOL    HW114861   2.827   1.610  12.811
 4706SOL    HW214862   2.886   1.484  12.871
 4707SOL     OW14863   3.702   1.492  12.768
 4707SOL    HW114864   3.727   1.525  12.682
 4707SOL    HW214865   3.781   1.501  12.821
 4708SOL     OW14866   2.213   0.915  12.982
 4708SOL    HW114867   2.294   0.935  13.030
 4708SOL    HW214868   2.240   0.853  12.915
 4709SOL     OW14869   3.357   0.269  11.303
 4709SOL    HW114870   3.286   0.206  11.312
 4709SOL    HW214871   3.367   0.308  11.390
 4710SOL     OW14872   3.147   0.827  11.198
 4710SOL    HW114873   3.189   0.741  11.202
 4710SOL    HW214874   3.180   0.866  11.117
 4711SOL     OW14875   2.931   1.340  12.030
 4711SOL    HW114876   2.936   1.268  11.967
 4711SOL    HW214877   2.988   1.408  11.994
 4712SOL     OW14878   2.169   0.811  12.117
 4712SOL    HW114879   2.262   0.831  12.109
 4712SOL    HW214880   2.167   0.721  12.150
 4713SOL     OW14881   2.199   0.538  12.187
 4713SOL    HW114882   2.156   0.454  12.173
 4713SOL    HW214883   2.274   0.538  12.129
 4714SOL     OW14884   2.996   0.378  12.872
 4714SOL    HW114885   2.947   0.432  12.934
 4714SOL    HW214886   3.082   0.420  12.867
 4715SOL     OW14887   3.014   0.226  12.653
 4715SOL    HW114888   3.004   0.278  12.733
 4715SOL    HW214889   3.042   0.288  12.586
 4716SOL     OW14890   1.882   1.316  11.357
 4716SOL    HW114891   1.796   1.343  11.325
 4716SOL    HW214892   1.867   1.230  11.396
 4717SOL     OW14893   2.354   1.574  12.081
 4717SOL    HW114894   2.420   1.640  12.099
 4717SOL    HW214895   2.398   1.513  12.021
 4718SOL     OW14896   2.834   0.785  12.393
 4718SOL    HW114897   2.892   0.769  12.467
 4718SOL    HW214898   2.750   0.747  12.420
 4719SOL     OW14899   1.895   0.549  12.289
 4719SOL    HW114900   1.969   0.526  12.233
 4719SOL    HW214901   1.930   0.547  12.378
 4720SOL     OW14902   2.067   0.528  12.884
 4720SOL    HW114903   2.139   0.507  12.825
 4720SOL    HW214904   2.025   0.604  12.843
 4721SOL     OW14905   3.243   0.933  12.827
 4721SOL    HW114906   3.265   1.026  12.824
 4721SOL    HW214907   3.238   0.906  12.736
 4722SOL     OW14908   2.679   0.573  11.540
 4722SOL    HW114909   2.686   0.498  11.481
 4722SOL    HW214910   2.604   0.623  11.508
 4723SOL     OW14911   3.499   0.602  12.351
 4723SOL    HW114912   3.488   0.542  12.424
 4723SOL    HW214913   3.586   0.582  12.316
 4724SOL     OW14914   2.089   1.558  12.908
 4724SOL    HW114915   2.082   1.607  12.990
 4724SOL    HW214916   2.102   1.467  12.936
 4725SOL     OW14917   2.579   0.448  12.422
 4725SOL    HW114918   2.524   0.373  12.400
 4725SOL    HW214919   2.566   0.509  12.349
 4726SOL     OW14920   2.784   1.677  12.644
 4726SOL    HW114921   2.760   1.638  12.560
 4726SOL    HW214922   2.781   1.771  12.629
 4727SOL     OW14923   2.322   0.492  11.350
 4727SOL    HW114924   2.380   0.564  11.376
 4727SOL    HW214925   2.236   0.534  11.339
 4728SOL     OW14926   2.002   1.139  12.648
 4728SOL    HW114927   2.004   1.093  12.732
 4728SOL    HW214928   2.020   1.071  12.583
 4729SOL     OW14929   3.180   1.042  12.391
 4729SOL    HW114930   3.202   0.980  12.322
 4729SOL    HW214931   3.115   1.100  12.352
 4730SOL     OW14932   3.178   0.853  11.475
 4730SOL    HW114933   3.103   0.827  11.528
 4730SOL    HW214934   3.149   0.843  11.384
 4731SOL     OW14935   3.648   1.737  12.333
 4731SOL    HW114936   3.702   1.765  12.260
 4731SOL    HW214937   3.615   1.651  12.308
 4732SOL     OW14938   3.102   1.733  12.277
 4732SOL    HW114939   3.185   1.757  12.235
 4732SOL    HW214940   3.112   1.640  12.298
 4733SOL     OW14941   1.958   1.254  12.191
 4733SOL    HW114942   1.932   1.268  12.282
 4733SOL    HW214943   1.881   1.216  12.149
 4734SOL     OW14944   2.540   1.672  12.907
 4734SOL    HW114945   2.485   1.751  12.904
 4734SOL    HW214946   2.610   1.689  12.845
 4735SOL     OW14947   3.548   0.117  11.661
 4735SOL    HW114948   3.628   0.134  11.612
 4735SOL    HW214949   3.553   0.025  11.684
 4736SOL     OW14950   3.254   1.567  11.664
 4736SOL    HW114951   3.312   1.601  11.596
 4736SOL    HW214952   3.203   1.644  11.692
 4737SOL     OW14953   3.139   0.929  11.843
 4737SOL    HW114954   3.214   0.870  11.855
 4737SOL    HW214955   3.173   1.000  11.789
 4738SOL     OW14956   2.666   1.276  12.595
 4738SOL    HW114957   2.637   1.318  12.677
 4738SOL    HW214958   2.596   1.296  12.533
 4739SOL     OW14959   2.534   1.626  11.323
 4739SOL    HW114960   2.546   1.640  11.229
 4739SOL    HW214961   2.478   1.549  11.329
 4740SOL     OW14962   3.478   1.728  12.564
 4740SOL    HW114963   3.536   1.732  12.488
 4740SOL    HW214964   3.465   1.820  12.588
 4741SOL     OW14965   3.706   0.182  12.143
 4741SOL    HW114966   3.729   0.097  12.106
 4741SOL    HW214967   3.620   0.202  12.106
 4742SOL     OW14968   2.123   0.314  11.886
 4742SOL    HW114969   2.037   0.349  11.862
 4742SOL    HW214970   2.122   0.310  11.982
 4743SOL     OW14971   3.070   1.600  11.205
 4743SOL    HW114972   3.058   1.509  11.231
 4743SOL    HW214973   3.003   1.615  11.138
 4744SOL     OW14974   2.686   1.007  12.547
 4744SOL    HW114975   2.726   1.001  12.460
 4744SOL    HW214976   2.681   1.101  12.565
 4745SOL     OW14977   2.778   0.911  11.462
 4745SOL    HW114978   2.838   0.944  11.396
 4745SOL    HW214979   2.828   0.843  11.509
 4746SOL     OW14980   3.348   1.633  11.217
 4746SOL    HW114981   3.255   1.621  11.202
 4746SOL    HW214982   3.387   1.638  11.130
 4747SOL     OW14983   2.228   1.297  12.675
 4747SOL    HW114984   2.226   1.368  12.611
 4747SOL    HW214985   2.151   1.243  12.655
 4748SOL     OW14986   3.459   1.280  12.447
 4748SOL    HW114987   3.528   1.270  12.512
 4748SOL    HW214988   3.403   1.349  12.483
 4749SOL     OW14989   2.924   1.111  11.884
 4749SOL    HW114990   2.851   1.061  11.920
 4749SOL    HW214991   2.987   1.045  11.857
 4750SOL     OW14992   2.878   0.250  12.143
 4750SOL    HW114993   2.868   0.199  12.063
 4750SOL    HW214994   2.877   0.185  12.214
 4751SOL     OW14995   2.469   1.492  11.652
 4751SOL    HW114996   2.514   1.441  11.585
 4751SOL    HW214997   2.397   1.535  11.606
 4752SOL     OW14998   3.583   0.396  12.542
 4752SOL    HW114999   3.656   0.458  12.543
 4752SOL    HW215000   3.615   0.323  12.488
 4753SOL     OW15001   2.131   1.345  11.469
 4753SOL    HW115002   2.041   1.341  11.437
 4753SOL    HW215003   2.124   1.380  11.557
 4754SOL     OW15004   1.978   1.038  12.902
 4754SOL    HW115005   1.901   1.008  12.950
 4754SOL    HW215006   2.051   0.991  12.942
 4755SOL     OW15007   2.559   0.267  12.678
 4755SOL    HW115008   2.624   0.210  12.636
 4755SOL    HW215009   2.585   0.269  12.770
 4756SOL     OW15010   1.966   0.317  11.164
 4756SOL    HW115011   1.899   0.336  11.230
 4756SOL    HW215012   1.972   0.397  11.112
 4757SOL     OW15013   3.283   0.855  12.567
 4757SOL    HW115014   3.233   0.917  12.514
 4757SOL    HW215015   3.372   0.859  12.531
 4758SOL     OW15016   1.942   0.148  11.510
 4758SOL    HW115017   1.909   0.206  11.441
 4758SOL    HW215018   2.029   0.123  11.481
 4759SOL     OW15019   3.040   1.334  11.291
 4759SOL    HW115020   2.950   1.303  11.292
 4759SOL    HW215021   3.067   1.336  11.383
 4760SOL     OW15022   2.485   0.828  12.607
 4760SOL    HW115023   2.542   0.904  12.592
 4760SOL    HW215024   2.545   0.754  12.615
 4761SOL     OW15025   3.344   1.787  12.154
 4761SOL    HW115026   3.367   1.855  12.090
 4761SOL    HW215027   3.428   1.752  12.183
 4762SOL     OW15028   2.580   0.558  12.875
 4762SOL    HW115029   2.625   0.619  12.934
 4762SOL    HW215030   2.600   0.472  12.910
 4763SOL     OW15031   3.336   1.193  12.800
 4763SOL    HW115032   3.325   1.209  12.894
 4763SOL    HW215033   3.428   1.210  12.783
 4764SOL     OW15034   2.227   1.745  12.746
 4764SOL    HW115035   2.167   1.751  12.672
 4764SOL    HW215036   2.196   1.668  12.795
 4765SOL     OW15037   3.523   0.880  12.431
 4765SOL    HW115038   3.523   0.795  12.387
 4765SOL    HW215039   3.516   0.943  12.360
 4766SOL     OW15040   3.080   0.341  11.612
 4766SOL    HW115041   3.150   0.277  11.602
 4766SOL    HW215042   3.098   0.384  11.695
 4767SOL     OW15043   2.449   0.733  11.845
 4767SOL    HW115044   2.489   0.819  11.831
 4767SOL    HW215045   2.384   0.725  11.775
 4768SOL     OW15046   3.613   0.381  12.814
 4768SOL    HW115047   3.594   0.391  12.721
 4768SOL    HW215048   3.552   0.315  12.845
 4769SOL     OW15049   3.617   0.930  12.684
 4769SOL    HW115050   3.606   1.023  12.702
 4769SOL    HW215051   3.590   0.920  12.592
 4770SOL     OW15052   2.724   1.365  11.215
 4770SOL    HW115053   2.688   1.391  11.300
 4770SOL    HW215054   2.741   1.447  11.170
 4771SOL     OW15055   2.525   1.791  12.106
 4771SOL    HW115056   2.518   1.887  12.103
 4771SOL    HW215057   2.619   1.774  12.104
 4772SOL     OW15058   2.732   0.972  12.026
 4772SOL    HW115059   2.782   0.899  12.063
 4772SOL    HW215060   2.692   1.015  12.101
 4773SOL     OW15061   2.939   0.990  11.262
 4773SOL    HW115062   2.917   1.042  11.184
 4773SOL    HW215063   3.013   0.935  11.234
 4774SOL     OW15064   3.709   1.557  12.012
 4774SOL    HW115065   3.630   1.541  11.961
 4774SOL    HW215066   3.710   1.487  12.078
 4775SOL     OW15067   2.080   1.299  13.017
 4775SOL    HW115068   2.030   1.226  12.980
 4775SOL    HW215069   2.040   1.314  13.103
 4776SOL     OW15070   1.947   1.206  11.834
 4776SOL    HW115071   1.974   1.170  11.919
 4776SOL    HW215072   2.022   1.188  11.776
 4777SOL     OW15073   2.544   1.408  12.801
 4777SOL    HW115074   2.467   1.366  12.840
 4777SOL    HW215075   2.544   1.497  12.838
 4778SOL     OW15076   3.675   0.181  12.416
 4778SOL    HW115077   3.676   0.086  12.426
 4778SOL    HW215078   3.694   0.196  12.324
 4779SOL     OW15079   2.290   0.434  11.698
 4779SOL    HW115080   2.325   0.363  11.644
 4779SOL    HW215081   2.241   0.390  11.767
 4780SOL     OW15082   3.555   1.490  12.267
 4780SOL    HW115083   3.478   1.469  12.214
 4780SOL    HW215084   3.561   1.418  12.329
 4781SOL     OW15085   2.198   0.558  12.468
 4781SOL    HW115086   2.249   0.497  12.522
 4781SOL    HW215087   2.216   0.532  12.378
 4782SOL     OW15088   2.694   1.577  11.847
 4782SOL    HW115089   2.673   1.640  11.778
 4782SOL    HW215090   2.620   1.517  11.849
 4783SOL     OW15091   3.322   0.255  12.281
 4783SOL    HW115092   3.336   0.167  12.316
 4783SOL    HW215093   3.267   0.298  12.347
 4784SOL     OW15094   2.863   0.024  12.317
 4784SOL    HW115095   2.779   0.006  12.275
 4784SOL    HW215096   2.904   3.938  12.325
 4785SOL     OW15097   2.637   1.334  11.492
 4785SOL    HW115098   2.609   1.243  11.501
 4785SOL    HW215099   2.717   1.340  11.543
 4786SOL     OW15100   2.487   1.554  12.457
 4786SOL    HW115101   2.485   1.635  12.507
 4786SOL    HW215102   2.575   1.549  12.421
 4787SOL     OW15103   3.167   0.068  11.331
 4787SOL    HW115104   3.169   3.978  11.299
 4787SOL    HW215105   3.086   0.073  11.382
 4788SOL     OW15106   3.139   0.456  11.855
 4788SOL    HW115107   3.094   0.540  11.849
 4788SOL    HW215108   3.143   0.438  11.949
 4789SOL     OW15109   3.454   0.210  12.040
 4789SOL    HW115110   3.405   0.234  12.118
 4789SOL    HW215111   3.452   0.288  11.985
 4790SOL     OW15112   1.902   1.067  11.479
 4790SOL    HW115113   1.996   1.061  11.462
 4790SOL    HW215114   1.877   0.978  11.505
 4791SOL     OW15115   2.753   1.658  11.507
 4791SOL    HW115116   2.678   1.644  11.450
 4791SOL    HW215117   2.728   1.731  11.564
 4792SOL     OW15118   2.083   0.618  13.156
 4792SOL    HW115119   1.993   0.626  13.187
 4792SOL    HW215120   2.075   0.599  13.063
 4793SOL     OW15121   2.117   0.269   0.129
 4793SOL    HW115122   2.171   0.336   0.173
 4793SOL    HW215123   2.028   0.303   0.135
 4794SOL     OW15124   1.870   0.388  13.644
 4794SOL    HW115125   1.776   0.399  13.653
 4794SOL    HW215126   1.881   0.299  13.610
 4795SOL     OW15127   3.380   1.495  13.732
 4795SOL    HW115128   3.327   1.421  13.763
 4795SOL    HW215129   3.337   1.522  13.651
 4796SOL     OW15130   2.996   0.696  13.726
 4796SOL    HW115131   3.047   0.775  13.708
 4796SOL    HW215132   2.935   0.722  13.795
 4797SOL     OW15133   3.643   0.621  13.255
 4797SOL    HW115134   3.615   0.611  13.164
 4797SOL    HW215135   3.606   0.544  13.299
 4798SOL     OW15136   2.545   1.012  13.671
 4798SOL    HW115137   2.597   0.995  13.749
 4798SOL    HW215138   2.469   1.062  13.703
 4799SOL     OW15139   3.468   0.455  13.754
 4799SOL    HW115140   3.378   0.463  13.723
 4799SOL    HW215141   3.492   0.544  13.782
 4800SOL     OW15142   2.113   1.694  13.526
 4800SOL    HW115143   2.066   1.776  13.516
 4800SOL    HW215144   2.183   1.697  13.461
 4801SOL     OW15145   2.103   1.427  13.574
 4801SOL    HW115146   2.103   1.522  13.573
 4801SOL    HW215147   2.041   1.403  13.643
 4802SOL     OW15148   2.099   1.113   0.031
 4802SOL    HW115149   2.119   1.049   0.099
 4802SOL    HW215150   2.035   1.172   0.070
 4803SOL     OW15151   2.439   0.985  13.172
 4803SOL    HW115152   2.489   1.029  13.102
 4803SOL    HW215153   2.478   1.018  13.253
 4804SOL     OW15154   1.984   0.660  13.589
 4804SOL    HW115155   1.956   0.569  13.603
 4804SOL    HW215156   1.968   0.703  13.673
 4805SOL     OW15157   3.704   1.759  13.367
 4805SOL    HW115158   3.775   1.733  13.425
 4805SOL    HW215159   3.722   1.851  13.347
 4806SOL     OW15160   3.547   0.919  13.669
 4806SOL    HW115161   3.633   0.883  13.645
 4806SOL    HW215162   3.525   0.976  13.596
 4807SOL     OW15163   3.504   1.104  13.463
 4807SOL    HW115164   3.589   1.106  13.418
 4807SOL    HW215165   3.512   1.170  13.532
 4808SOL     OW15166   2.466   1.381  13.755
 4808SOL    HW115167   2.420   1.297  13.762
 4808SOL    HW215168   2.442   1.415  13.669
 4809SOL     OW15169   2.686   0.008  13.550
 4809SOL    HW115170   2.729   0.089  13.522
 4809SOL    HW215171   2.592   0.028  13.545
 4810SOL     OW15172   3.387   0.999  13.236
 4810SOL    HW115173   3.319   0.940  13.270
 4810SOL    HW215174   3.429   1.035  13.314
 4811SOL     OW15175   3.512   1.751  13.612
 4811SOL    HW115176   3.492   1.717  13.526
 4811SOL    HW215177   3.510   1.674  13.670
 4812SOL     OW15178   2.453   0.718  13.301
 4812SOL    HW115179   2.455   0.803  13.256
 4812SOL    HW215180   2.388   0.730  13.370
 4813SOL     OW15181   3.092   0.342   0.045
 4813SOL    HW115182   3.009   0.333   0.091
 4813SOL    HW215183   3.156   0.298   0.101
 4814SOL     OW15184   3.439   1.678  13.343
 4814SOL    HW115185   3.531   1.705  13.337
 4814SOL    HW215186   3.413   1.661  13.253
 4815SOL     OW15187   2.913   0.697  13.456
 4815SOL    HW115188   2.930   0.684  13.550
 4815SOL    HW215189   2.830   0.652  13.441
 4816SOL     OW15190   1.940   0.817  13.814
 4816SOL    HW115191   2.018   0.817  13.868
 4816SOL    HW215192   1.889   0.892  13.844
 4817SOL     OW15193   2.757   0.352  13.233
 4817SOL    HW115194   2.799   0.412  13.172
 4817SOL    HW215195   2.746   0.271  13.183
 4818SOL     OW15196   3.222   1.132  13.545
 4818SOL    HW115197   3.313   1.134  13.514
 4818SOL    HW215198   3.180   1.206  13.500
 4819SOL     OW15199   2.856   1.437  13.500
 4819SOL    HW115200   2.831   1.515  13.451
 4819SOL    HW215201   2.822   1.453  13.588
 4820SOL     OW15202   2.263   1.844  13.807
 4820SOL    HW115203   2.251   1.756  13.843
 4820SOL    HW215204   2.236   1.903  13.878
 4821SOL     OW15205   3.656   1.047   0.001
 4821SOL    HW115206   3.601   1.040  13.823
 4821SOL    HW215207   3.595   1.047   0.074
 4822SOL     OW15208   2.177   0.962  13.290
 4822SOL    HW115209   2.259   0.982  13.244
 4822SOL    HW215210   2.148   0.879  13.252
 4823SOL     OW15211   3.363   0.731  13.754
 4823SOL    HW115212   3.348   0.700  13.843
 4823SOL    HW215213   3.427   0.801  13.763
 4824SOL     OW15214   2.989   1.778  13.262
 4824SOL    HW115215   2.913   1.739  13.305
 4824SOL    HW215216   3.012   1.714  13.194
 4825SOL     OW15217   3.486   1.386  13.121
 4825SOL    HW115218   3.442   1.470  13.107
 4825SOL    HW215219   3.419   1.321  13.101
 4826SOL     OW15220   2.330   1.716  13.358
 4826SOL    HW115221   2.376   1.780  13.413
 4826SOL    HW215222   2.392   1.695  13.288
 4827SOL     OW15223   3.285   0.177  13.436
 4827SOL    HW115224   3.244   0.116  13.375
 4827SOL    HW215225   3.370   0.139  13.454
 4828SOL     OW15226   2.792   1.682   0.004
 4828SOL    HW115227   2.797   1.618   0.075
 4828SOL    HW215228   2.749   1.635  13.832
 4829SOL     OW15229   2.257   0.698  13.502
 4829SOL    HW115230   2.275   0.605  13.515
 4829SOL    HW215231   2.164   0.708  13.520
 4830SOL     OW15232   2.508   0.125  13.144
 4830SOL    HW115233   2.524   0.039  13.182
 4830SOL    HW215234   2.445   0.108  13.073
 4831SOL     OW15235   2.412   0.054  13.525
 4831SOL    HW115236   2.336   0.056  13.584
 4831SOL    HW215237   2.404   0.134  13.473
 4832SOL     OW15238   3.289   1.201  13.072
 4832SOL    HW115239   3.318   1.126  13.125
 4832SOL    HW215240   3.203   1.224  13.109
 4833SOL     OW15241   2.197   0.047  13.244
 4833SOL    HW115242   2.202   0.111  13.172
 4833SOL    HW215243   2.276   0.064  13.295
 4834SOL     OW15244   2.806   0.253  13.490
 4834SOL    HW115245   2.780   0.290  13.406
 4834SOL    HW215246   2.901   0.263  13.493
 4835SOL     OW15247   2.322   1.144  13.766
 4835SOL    HW115248   2.251   1.132  13.829
 4835SOL    HW215249   2.280   1.133  13.681
 4836SOL     OW15250   3.128   1.795  13.633
 4836SOL    HW115251   3.172   1.864  13.583
 4836SOL    HW215252   3.058   1.840  13.680
 4837SOL     OW15253   2.883   0.538  13.065
 4837SOL    HW115254   2.839   0.620  13.046
 4837SOL    HW215255   2.946   0.560  13.134
 4838SOL     OW15256   2.768   0.474  13.672
 4838SOL    HW115257   2.698   0.521  13.627
 4838SOL    HW215258   2.775   0.391  13.625
 4839SOL     OW15259   2.864   0.037  13.791
 4839SOL    HW115260   2.829   0.063  13.706
 4839SOL    HW215261   2.889   3.945  13.780
 4840SOL     OW15262   3.729   0.822  13.413
 4840SOL    HW115263   3.775   0.764  13.474
 4840SOL    HW215264   3.694   0.762  13.346
 4841SOL     OW15265   2.354   1.423  13.180
 4841SOL    HW115266   2.279   1.395  13.233
 4841SOL    HW215267   2.352   1.365  13.104
 4842SOL     OW15268   3.542   1.273  13.662
 4842SOL    HW115269   3.637   1.274  13.677
 4842SOL    HW215270   3.511   1.356  13.699
 4843SOL     OW15271   3.255   0.579  13.102
 4843SOL    HW115272   3.193   0.557  13.171
 4843SOL    HW215273   3.341   0.561  13.141
 4844SOL     OW15274   2.390   0.265  13.348
 4844SOL    HW115275   2.447   0.227  13.282
 4844SOL    HW215276   2.358   0.346  13.308
 4845SOL     OW15277   2.572   1.067  13.399
 4845SOL    HW115278   2.557   1.049  13.492
 4845SOL    HW215279   2.648   1.012  13.377
 4846SOL     OW15280   2.202   1.117  13.524
 4846SOL    HW115281   2.204   1.195  13.468
 4846SOL    HW215282   2.198   1.044  13.462
 4847SOL     OW15283   2.431   0.540  13.862
 4847SOL    HW115284   2.440   0.607  13.795
 4847SOL    HW215285   2.490   0.568   0.032
 4848SOL     OW15286   3.105   1.355  13.418
 4848SOL    HW115287   3.159   1.428  13.446
 4848SOL    HW215288   3.018   1.374  13.454
 4849SOL     OW15289   3.443   0.639  13.508
 4849SOL    HW115290   3.405   0.677  13.588
 4849SOL    HW215291   3.475   0.715  13.459
 4850SOL     OW15292   3.059   0.535  13.290
 4850SOL    HW115293   3.064   0.456  13.344
 4850SOL    HW215294   3.017   0.599  13.346
 4851SOL     OW15295   2.196   0.051  13.685
 4851SOL    HW115296   2.178   0.144  13.702
 4851SOL    HW215297   2.114   0.007  13.709
 4852SOL     OW15298   3.466   0.397  13.404
 4852SOL    HW115299   3.425   0.331  13.461
 4852SOL    HW215300   3.451   0.480  13.449
 4853SOL     OW15301   3.355   0.276  13.162
 4853SOL    HW115302   3.287   0.211  13.177
 4853SOL    HW215303   3.370   0.315  13.249
 4854SOL     OW15304   3.146   0.827  13.060
 4854SOL    HW115305   3.189   0.741  13.063
 4854SOL    HW215306   3.179   0.866  12.979
 4855SOL     OW15307   1.880   1.317  13.221
 4855SOL    HW115308   1.794   1.344  13.188
 4855SOL    HW215309   1.866   1.230  13.258
 4856SOL     OW15310   2.679   0.576  13.392
 4856SOL    HW115311   2.683   0.498  13.336
 4856SOL    HW215312   2.602   0.624  13.361
 4857SOL     OW15313   2.321   0.492  13.210
 4857SOL    HW115314   2.379   0.563  13.236
 4857SOL    HW215315   2.235   0.533  13.201
 4858SOL     OW15316   3.181   0.847  13.336
 4858SOL    HW115317   3.103   0.827  13.388
 4858SOL    HW215318   3.151   0.839  13.245
 4859SOL     OW15319   3.536   0.099  13.460
 4859SOL    HW115320   3.626   0.122  13.439
 4859SOL    HW215321   3.544   0.027  13.523
 4860SOL     OW15322   3.243   1.576  13.509
 4860SOL    HW115323   3.303   1.614  13.445
 4860SOL    HW215324   3.196   1.651  13.546
 4861SOL     OW15325   3.156   0.910  13.684
 4861SOL    HW115326   3.234   0.857  13.669
 4861SOL    HW215327   3.175   0.993  13.639
 4862SOL     OW15328   2.533   1.627  13.184
 4862SOL    HW115329   2.547   1.641  13.091
 4862SOL    HW215330   2.479   1.549  13.189
 4863SOL     OW15331   3.665   0.171   0.063
 4863SOL    HW115332   3.699   0.082   0.066
 4863SOL    HW215333   3.582   0.164   0.018
 4864SOL     OW15334   2.140   0.309  13.746
 4864SOL    HW115335   2.050   0.329  13.723
 4864SOL    HW215336   2.140   0.302  13.842
 4865SOL     OW15337   3.070   1.601  13.066
 4865SOL    HW115338   3.058   1.509  13.092
 4865SOL    HW215339   3.004   1.615  12.999
 4866SOL     OW15340   2.782   0.915  13.332
 4866SOL    HW115341   2.840   0.945  13.262
 4866SOL    HW215342   2.829   0.841  13.371
 4867SOL     OW15343   3.349   1.633  13.079
 4867SOL    HW115344   3.255   1.621  13.063
 4867SOL    HW215345   3.387   1.637  12.991
 4868SOL     OW15346   2.913   1.089  13.756
 4868SOL    HW115347   2.826   1.058  13.730
 4868SOL    HW215348   2.970   1.064  13.684
 4869SOL     OW15349   2.460   1.492  13.503
 4869SOL    HW115350   2.507   1.442  13.436
 4869SOL    HW215351   2.394   1.541  13.453
 4870SOL     OW15352   2.131   1.343  13.324
 4870SOL    HW115353   2.040   1.340  13.295
 4870SOL    HW215354   2.128   1.378  13.413
 4871SOL     OW15355   1.965   0.317  13.026
 4871SOL    HW115356   1.898   0.336  13.092
 4871SOL    HW215357   1.971   0.397  12.974
 4872SOL     OW15358   1.951   0.147  13.361
 4872SOL    HW115359   1.921   0.207  13.294
 4872SOL    HW215360   2.039   0.121  13.332
 4873SOL     OW15361   3.039   1.333  13.149
 4873SOL    HW115362   2.948   1.304  13.151
 4873SOL    HW215363   3.065   1.337  13.241
 4874SOL     OW15364   3.074   0.338  13.484
 4874SOL    HW115365   3.144   0.274  13.470
 4874SOL    HW215366   3.102   0.387  13.561
 4875SOL     OW15367   2.456   0.749  13.688
 4875SOL    HW115368   2.489   0.837  13.671
 4875SOL    HW215369   2.386   0.736  13.624
 4876SOL     OW15370   2.725   1.365  13.076
 4876SOL    HW115371   2.688   1.390  13.161
 4876SOL    HW215372   2.741   1.447  13.031
 4877SOL     OW15373   2.529   1.837   0.085
 4877SOL    HW115374   2.501   1.926   0.064
 4877SOL    HW215375   2.625   1.840   0.083
 4878SOL     OW15376   2.681   0.970   0.002
 4878SOL    HW115377   2.697   0.886   0.044
 4878SOL    HW215378   2.732   1.033   0.053
 4879SOL     OW15379   2.937   0.987  13.124
 4879SOL    HW115380   2.916   1.040  13.047
 4879SOL    HW215381   3.011   0.933  13.096
 4880SOL     OW15382   1.952   1.222  13.705
 4880SOL    HW115383   1.966   1.167  13.781
 4880SOL    HW215384   2.020   1.195  13.643
 4881SOL     OW15385   2.290   0.438  13.551
 4881SOL    HW115386   2.329   0.367  13.499
 4881SOL    HW215387   2.252   0.394  13.627
 4882SOL     OW15388   3.547   1.448   0.360
 4882SOL    HW115389   3.512   1.429   0.273
 4882SOL    HW215390   3.639   1.425   0.355
 4883SOL     OW15391   2.679   1.544  13.703
 4883SOL    HW115392   2.645   1.597  13.632
 4883SOL    HW215393   2.606   1.486  13.727
 4884SOL     OW15394   2.635   1.336  13.348
 4884SOL    HW115395   2.609   1.244  13.358
 4884SOL    HW215396   2.714   1.344  13.401
 4885SOL     OW15397   3.168   0.070  13.205
 4885SOL    HW115398   3.182   3.982  13.168
 4885SOL    HW215399   3.077   0.069  13.234
 4886SOL     OW15400   3.158   0.462  13.714
 4886SOL    HW115401   3.109   0.544  13.711
 4886SOL    HW215402   3.142   0.427  13.802
 4887SOL     OW15403   1.904   1.067  13.341
 4887SOL    HW115404   1.998   1.061  13.322
 4887SOL    HW215405   1.879   0.978  13.364
 4888SOL     OW15406   2.754   1.656  13.370
 4888SOL    HW115407   2.678   1.646  13.313
 4888SOL    HW215408   2.732   1.729  13.427
 4889SOL     OW15409   2.095   2.526   0.125
 4889SOL    HW115410   2.008   2.493   0.150
 4889SOL    HW215411   2.120   2.474   0.049
 4890SOL     OW15412   1.872   2.276   0.641
 4890SOL    HW115413   1.780   2.265   0.666
 4890SOL    HW215414   1.891   2.199   0.588
 4891SOL     OW15415   2.429   3.159   1.182
 4891SOL    HW115416   2.344   3.167   1.140
 4891SOL    HW215417   2.447   3.247   1.217
 4892SOL     OW15418   3.431   3.375   0.710
 4892SOL    HW115419   3.386   3.349   0.790
 4892SOL    HW215420   3.362   3.377   0.643
 4893SOL     OW15421   2.994   2.561   0.697
 4893SOL    HW115422   3.042   2.643   0.685
 4893SOL    HW215423   2.946   2.574   0.780
 4894SOL     OW15424   3.631   2.454   0.226
 4894SOL    HW115425   3.658   2.406   0.148
 4894SOL    HW215426   3.584   2.389   0.279
 4895SOL     OW15427   2.605   2.998   1.046
 4895SOL    HW115428   2.539   3.036   1.104
 4895SOL    HW215429   2.646   3.073   1.003
 4896SOL     OW15430   2.736   2.622   1.824
 4896SOL    HW115431   2.726   2.691   1.889
 4896SOL    HW215432   2.758   2.669   1.743
 4897SOL     OW15433   2.546   2.855   0.646
 4897SOL    HW115434   2.612   2.849   0.714
 4897SOL    HW215435   2.479   2.913   0.683
 4898SOL     OW15436   2.577   3.013   1.818
 4898SOL    HW115437   2.624   3.089   1.850
 4898SOL    HW215438   2.497   3.048   1.779
 4899SOL     OW15439   2.195   3.278   1.066
 4899SOL    HW115440   2.119   3.240   1.021
 4899SOL    HW215441   2.238   3.332   1.000
 4900SOL     OW15442   3.320   3.365   1.361
 4900SOL    HW115443   3.375   3.442   1.371
 4900SOL    HW215444   3.252   3.375   1.428
 4901SOL     OW15445   3.468   2.303   0.746
 4901SOL    HW115446   3.397   2.324   0.685
 4901SOL    HW215447   3.473   2.380   0.803
 4902SOL     OW15448   2.083   3.573   0.483
 4902SOL    HW115449   2.103   3.643   0.545
 4902SOL    HW215450   2.151   3.579   0.416
 4903SOL     OW15451   3.000   3.204   1.695
 4903SOL    HW115452   3.042   3.196   1.781
 4903SOL    HW215453   2.947   3.124   1.686
 4904SOL     OW15454   2.078   3.303   0.527
 4904SOL    HW115455   2.073   3.399   0.530
 4904SOL    HW215456   2.026   3.274   0.602
 4905SOL     OW15457   2.128   2.958   0.888
 4905SOL    HW115458   2.123   2.871   0.926
 4905SOL    HW215459   2.070   3.011   0.943
 4906SOL     OW15460   2.464   3.646   1.427
 4906SOL    HW115461   2.383   3.633   1.477
 4906SOL    HW215462   2.492   3.735   1.451
 4907SOL     OW15463   2.423   2.850   0.164
 4907SOL    HW115464   2.464   2.883   0.084
 4907SOL    HW215465   2.475   2.889   0.234
 4908SOL     OW15466   3.456   1.990   1.464
 4908SOL    HW115467   3.479   2.071   1.418
 4908SOL    HW215468   3.437   2.018   1.553
 4909SOL     OW15469   1.987   2.517   0.564
 4909SOL    HW115470   1.953   2.430   0.586
 4909SOL    HW215471   1.973   2.569   0.644
 4910SOL     OW15472   3.697   3.612   0.340
 4910SOL    HW115473   3.767   3.578   0.396
 4910SOL    HW215474   3.718   3.705   0.329
 4911SOL     OW15475   1.881   3.461   0.098
 4911SOL    HW115476   1.894   3.371   0.128
 4911SOL    HW215477   1.868   3.511   0.178
 4912SOL     OW15478   3.550   2.782   0.654
 4912SOL    HW115479   3.633   2.738   0.636
 4912SOL    HW215480   3.531   2.831   0.574
 4913SOL     OW15481   3.507   2.963   0.435
 4913SOL    HW115482   3.593   2.968   0.393
 4913SOL    HW215483   3.510   3.028   0.505
 4914SOL     OW15484   1.975   2.632   1.560
 4914SOL    HW115485   2.063   2.668   1.571
 4914SOL    HW215486   1.918   2.709   1.562
 4915SOL     OW15487   2.479   3.255   0.735
 4915SOL    HW115488   2.434   3.170   0.743
 4915SOL    HW215489   2.463   3.281   0.644
 4916SOL     OW15490   3.147   3.097   1.421
 4916SOL    HW115491   3.178   3.029   1.361
 4916SOL    HW215492   3.207   3.092   1.495
 4917SOL     OW15493   2.687   1.864   0.513
 4917SOL    HW115494   2.727   1.948   0.489
 4917SOL    HW215495   2.593   1.883   0.517
 4918SOL     OW15496   2.049   2.826   1.282
 4918SOL    HW115497   2.135   2.790   1.264
 4918SOL    HW215498   1.990   2.780   1.223
 4919SOL     OW15499   3.389   2.864   0.207
 4919SOL    HW115500   3.321   2.806   0.241
 4919SOL    HW215501   3.431   2.900   0.285
 4920SOL     OW15502   3.089   3.669   1.629
 4920SOL    HW115503   3.059   3.730   1.562
 4920SOL    HW215504   3.087   3.583   1.587
 4921SOL     OW15505   3.326   3.282   0.946
 4921SOL    HW115506   3.261   3.296   1.014
 4921SOL    HW215507   3.315   3.190   0.921
 4922SOL     OW15508   3.512   3.609   0.590
 4922SOL    HW115509   3.505   3.580   0.499
 4922SOL    HW215510   3.495   3.531   0.642
 4923SOL     OW15511   2.487   2.604   0.278
 4923SOL    HW115512   2.478   2.677   0.218
 4923SOL    HW215513   2.425   2.623   0.349
 4924SOL     OW15514   3.139   2.229   0.934
 4924SOL    HW115515   3.051   2.192   0.943
 4924SOL    HW215516   3.193   2.174   0.992
 4925SOL     OW15517   3.422   3.593   0.316
 4925SOL    HW115518   3.517   3.595   0.314
 4925SOL    HW215519   3.397   3.563   0.228
 4926SOL     OW15520   2.655   2.477   1.447
 4926SOL    HW115521   2.631   2.454   1.537
 4926SOL    HW215522   2.609   2.414   1.393
 4927SOL     OW15523   3.255   2.336   1.678
 4927SOL    HW115524   3.260   2.380   1.763
 4927SOL    HW215525   3.311   2.259   1.689
 4928SOL     OW15526   2.811   2.747   1.586
 4928SOL    HW115527   2.867   2.680   1.548
 4928SOL    HW215528   2.765   2.785   1.511
 4929SOL     OW15529   2.862   2.276   1.233
 4929SOL    HW115530   2.777   2.294   1.274
 4929SOL    HW215531   2.840   2.230   1.152
 4930SOL     OW15532   2.918   2.564   0.429
 4930SOL    HW115533   2.937   2.557   0.522
 4930SOL    HW215534   2.835   2.518   0.418
 4931SOL     OW15535   1.950   2.684   0.779
 4931SOL    HW115536   2.032   2.685   0.828
 4931SOL    HW215537   1.902   2.760   0.812
 4932SOL     OW15538   1.977   3.720   1.579
 4932SOL    HW115539   1.985   3.698   1.672
 4932SOL    HW215540   1.886   3.700   1.557
 4933SOL     OW15541   2.733   2.223   0.219
 4933SOL    HW115542   2.771   2.284   0.156
 4933SOL    HW215543   2.745   2.137   0.178
 4934SOL     OW15544   3.568   2.432   1.830
 4934SOL    HW115545   3.532   2.506   1.781
 4934SOL    HW215546   3.593   2.369   1.764
 4935SOL     OW15547   3.240   3.003   0.542
 4935SOL    HW115548   3.319   2.992   0.490
 4935SOL    HW215549   3.188   3.067   0.494
 4936SOL     OW15550   2.441   2.061   0.913
 4936SOL    HW115551   2.349   2.070   0.938
 4936SOL    HW215552   2.463   2.145   0.871
 4937SOL     OW15553   2.860   3.303   0.473
 4937SOL    HW115554   2.833   3.380   0.423
 4937SOL    HW215555   2.837   3.324   0.563
 4938SOL     OW15556   2.213   3.678   0.838
 4938SOL    HW115557   2.264   3.598   0.856
 4938SOL    HW215558   2.272   3.749   0.863
 4939SOL     OW15559   3.669   2.921   0.872
 4939SOL    HW115560   3.617   2.894   0.797
 4939SOL    HW215561   3.607   2.925   0.945
 4940SOL     OW15562   3.088   3.401   1.512
 4940SOL    HW115563   3.077   3.328   1.574
 4940SOL    HW215564   3.018   3.389   1.448
 4941SOL     OW15565   2.166   2.799   0.234
 4941SOL    HW115566   2.258   2.811   0.210
 4941SOL    HW215567   2.150   2.706   0.222
 4942SOL     OW15568   3.342   2.612   0.723
 4942SOL    HW115569   3.339   2.572   0.810
 4942SOL    HW215570   3.420   2.668   0.725
 4943SOL     OW15571   2.332   3.129   1.737
 4943SOL    HW115572   2.306   3.135   1.645
 4943SOL    HW215573   2.250   3.127   1.785
 4944SOL     OW15574   2.991   3.640   0.228
 4944SOL    HW115575   2.926   3.596   0.283
 4944SOL    HW215576   3.018   3.574   0.164
 4945SOL     OW15577   3.493   3.244   0.092
 4945SOL    HW115578   3.457   3.326   0.055
 4945SOL    HW215579   3.426   3.178   0.072
 4946SOL     OW15580   2.332   3.599   0.329
 4946SOL    HW115581   2.369   3.660   0.392
 4946SOL    HW215582   2.408   3.566   0.281
 4947SOL     OW15583   3.265   1.971   0.444
 4947SOL    HW115584   3.264   1.938   0.355
 4947SOL    HW215585   3.358   1.973   0.467
 4948SOL     OW15586   2.123   3.652   1.217
 4948SOL    HW115587   2.169   3.578   1.258
 4948SOL    HW215588   2.104   3.621   1.128
 4949SOL     OW15589   2.802   3.566   0.897
 4949SOL    HW115590   2.881   3.516   0.919
 4949SOL    HW215591   2.760   3.515   0.828
 4950SOL     OW15592   2.252   2.560   0.481
 4950SOL    HW115593   2.269   2.483   0.425
 4950SOL    HW215594   2.161   2.550   0.508
 4951SOL     OW15595   3.390   2.086   1.724
 4951SOL    HW115596   3.400   2.106   1.817
 4951SOL    HW215597   3.323   2.018   1.722
 4952SOL     OW15598   2.628   2.147   1.752
 4952SOL    HW115599   2.708   2.095   1.744
 4952SOL    HW215600   2.582   2.108   1.826
 4953SOL     OW15601   2.737   3.383   1.196
 4953SOL    HW115602   2.720   3.346   1.109
 4953SOL    HW215603   2.808   3.328   1.231
 4954SOL     OW15604   3.201   2.452   1.434
 4954SOL    HW115605   3.233   2.421   1.519
 4954SOL    HW215606   3.239   2.540   1.426
 4955SOL     OW15607   2.681   3.249   0.947
 4955SOL    HW115608   2.766   3.239   0.904
 4955SOL    HW215609   2.618   3.258   0.875
 4956SOL     OW15610   2.789   2.368   0.900
 4956SOL    HW115611   2.765   2.361   0.808
 4956SOL    HW215612   2.823   2.282   0.924
 4957SOL     OW15613   2.419   1.924   0.518
 4957SOL    HW115614   2.364   1.896   0.591
 4957SOL    HW215615   2.397   2.016   0.506
 4958SOL     OW15616   3.292   3.074   0.044
 4958SOL    HW115617   3.310   2.993   0.092
 4958SOL    HW215618   3.201   3.095   0.065
 4959SOL     OW15619   2.807   2.111   0.462
 4959SOL    HW115620   2.776   2.150   0.380
 4959SOL    HW215621   2.901   2.128   0.463
 4960SOL     OW15622   2.945   2.548   1.457
 4960SOL    HW115623   2.881   2.477   1.465
 4960SOL    HW215624   3.029   2.504   1.452
 4961SOL     OW15625   3.078   3.436   0.796
 4961SOL    HW115626   3.094   3.501   0.727
 4961SOL    HW215627   3.151   3.447   0.856
 4962SOL     OW15628   2.335   3.017   0.723
 4962SOL    HW115629   2.268   2.998   0.789
 4962SOL    HW215630   2.291   3.005   0.639
 4963SOL     OW15631   3.125   3.655   0.611
 4963SOL    HW115632   3.174   3.720   0.561
 4963SOL    HW215633   3.050   3.703   0.645
 4964SOL     OW15634   2.857   2.399   0.050
 4964SOL    HW115635   2.852   2.381  13.857
 4964SOL    HW215636   2.950   2.391   0.072
 4965SOL     OW15637   1.944   2.430   1.380
 4965SOL    HW115638   2.038   2.419   1.368
 4965SOL    HW215639   1.936   2.502   1.442
 4966SOL     OW15640   2.725   2.318   0.640
 4966SOL    HW115641   2.692   2.375   0.571
 4966SOL    HW215642   2.752   2.238   0.593
 4967SOL     OW15643   2.877   1.917   0.748
 4967SOL    HW115644   2.820   1.909   0.671
 4967SOL    HW215645   2.854   1.842   0.803
 4968SOL     OW15646   3.303   3.022   0.858
 4968SOL    HW115647   3.231   2.959   0.855
 4968SOL    HW215648   3.330   3.031   0.766
 4969SOL     OW15649   3.327   2.473   0.967
 4969SOL    HW115650   3.271   2.395   0.970
 4969SOL    HW215651   3.384   2.464   1.043
 4970SOL     OW15652   3.727   2.672   0.365
 4970SOL    HW115653   3.764   2.619   0.435
 4970SOL    HW215654   3.683   2.609   0.307
 4971SOL     OW15655   2.353   3.270   0.156
 4971SOL    HW115656   2.279   3.234   0.205
 4971SOL    HW215657   2.339   3.239   0.066
 4972SOL     OW15658   3.530   3.125   0.645
 4972SOL    HW115659   3.625   3.126   0.655
 4972SOL    HW215660   3.503   3.216   0.657
 4973SOL     OW15661   3.283   2.448   0.085
 4973SOL    HW115662   3.218   2.439   0.155
 4973SOL    HW215663   3.320   2.360   0.075
 4974SOL     OW15664   3.611   3.094   1.558
 4974SOL    HW115665   3.699   3.060   1.541
 4974SOL    HW215666   3.626   3.184   1.587
 4975SOL     OW15667   2.916   3.213   1.330
 4975SOL    HW115668   2.841   3.182   1.381
 4975SOL    HW215669   2.992   3.172   1.373
 4976SOL     OW15670   3.469   3.492   1.659
 4976SOL    HW115671   3.459   3.527   1.570
 4976SOL    HW215672   3.548   3.438   1.655
 4977SOL     OW15673   2.996   3.071   1.101
 4977SOL    HW115674   2.938   3.111   1.166
 4977SOL    HW215675   2.968   3.108   1.017
 4978SOL     OW15676   3.486   2.955   1.074
 4978SOL    HW115677   3.476   3.018   1.145
 4978SOL    HW215678   3.412   2.973   1.015
 4979SOL     OW15679   2.790   1.951   1.391
 4979SOL    HW115680   2.812   1.933   1.300
 4979SOL    HW215681   2.869   1.991   1.427
 4980SOL     OW15682   2.846   2.977   1.723
 4980SOL    HW115683   2.755   2.994   1.748
 4980SOL    HW215684   2.842   2.898   1.669
 4981SOL     OW15685   2.580   2.922   0.378
 4981SOL    HW115686   2.564   2.900   0.470
 4981SOL    HW215687   2.654   2.867   0.352
 4982SOL     OW15688   2.286   2.690   1.255
 4982SOL    HW115689   2.355   2.702   1.320
 4982SOL    HW215690   2.250   2.604   1.274
 4983SOL     OW15691   3.129   2.237   1.282
 4983SOL    HW115692   3.161   2.315   1.328
 4983SOL    HW215693   3.039   2.258   1.258
 4984SOL     OW15694   1.937   3.436   1.356
 4984SOL    HW115695   1.909   3.509   1.302
 4984SOL    HW215696   2.033   3.436   1.349
 4985SOL     OW15697   2.200   2.978   0.485
 4985SOL    HW115698   2.196   3.049   0.420
 4985SOL    HW215699   2.206   2.898   0.433
 4986SOL     OW15700   2.430   2.382   0.844
 4986SOL    HW115701   2.438   2.446   0.773
 4986SOL    HW215702   2.495   2.409   0.908
 4987SOL     OW15703   3.109   3.210   0.401
 4987SOL    HW115704   3.165   3.283   0.428
 4987SOL    HW215705   3.022   3.233   0.432
 4988SOL     OW15706   3.151   3.323   1.150
 4988SOL    HW115707   3.208   3.329   1.227
 4988SOL    HW215708   3.096   3.247   1.166
 4989SOL     OW15709   3.436   2.483   0.489
 4989SOL    HW115710   3.388   2.528   0.558
 4989SOL    HW215711   3.458   2.551   0.425
 4990SOL     OW15712   2.207   3.393   1.308
 4990SOL    HW115713   2.197   3.347   1.225
 4990SOL    HW215714   2.302   3.404   1.317
 4991SOL     OW15715   2.290   2.607   1.610
 4991SOL    HW115716   2.348   2.650   1.547
 4991SOL    HW215717   2.341   2.534   1.645
 4992SOL     OW15718   3.470   2.641   1.687
 4992SOL    HW115719   3.385   2.684   1.682
 4992SOL    HW215720   3.523   2.685   1.619
 4993SOL     OW15721   2.856   1.996   1.743
 4993SOL    HW115722   2.918   2.068   1.729
 4993SOL    HW215723   2.907   1.917   1.723
 4994SOL     OW15724   2.355   1.883   1.785
 4994SOL    HW115725   2.308   1.839   1.715
 4994SOL    HW215726   2.289   1.938   1.827
 4995SOL     OW15727   2.450   2.735   1.034
 4995SOL    HW115728   2.486   2.824   1.034
 4995SOL    HW215729   2.393   2.732   1.110
 4996SOL     OW15730   3.209   2.721   1.020
 4996SOL    HW115731   3.123   2.705   0.980
 4996SOL    HW215732   3.256   2.638   1.011
 4997SOL     OW15733   3.082   2.404   0.270
 4997SOL    HW115734   3.085   2.324   0.322
 4997SOL    HW215735   3.026   2.464   0.320
 4998SOL     OW15736   1.907   3.174   1.274
 4998SOL    HW115737   1.940   3.120   1.346
 4998SOL    HW215738   1.913   3.264   1.308
 4999SOL     OW15739   2.580   2.484   1.051
 4999SOL    HW115740   2.661   2.475   1.002
 4999SOL    HW215741   2.554   2.575   1.037
 5000SOL     OW15742   3.591   2.822   1.867
 5000SOL    HW115743   3.553   2.753   1.813
 5000SOL    HW215744   3.526   2.837   1.935
 5001SOL     OW15745   3.486   2.243   0.369
 5001SOL    HW115746   3.509   2.175   0.432
 5001SOL    HW215747   3.460   2.318   0.422
 5002SOL     OW15748   2.889   2.619   0.958
 5002SOL    HW115749   2.881   2.635   1.051
 5002SOL    HW215750   2.864   2.527   0.947
 5003SOL     OW15751   2.848   3.430   1.723
 5003SOL    HW115752   2.827   3.470   1.639
 5003SOL    HW215753   2.889   3.347   1.701
 5004SOL     OW15754   3.702   3.355   1.596
 5004SOL    HW115755   3.728   3.387   1.510
 5004SOL    HW215756   3.782   3.362   1.649
 5005SOL     OW15757   2.212   2.781   1.809
 5005SOL    HW115758   2.292   2.801   1.857
 5005SOL    HW215759   2.240   2.718   1.743
 5006SOL     OW15760   3.412   2.119   0.137
 5006SOL    HW115761   3.350   2.050   0.162
 5006SOL    HW215762   3.433   2.163   0.220
 5007SOL     OW15763   3.148   2.690   0.055
 5007SOL    HW115764   3.195   2.607   0.059
 5007SOL    HW215765   3.166   2.724  13.868
 5008SOL     OW15766   2.931   3.201   0.857
 5008SOL    HW115767   2.937   3.129   0.794
 5008SOL    HW215768   2.988   3.269   0.821
 5009SOL     OW15769   2.173   2.685   0.945
 5009SOL    HW115770   2.264   2.712   0.938
 5009SOL    HW215771   2.177   2.594   0.974
 5010SOL     OW15772   2.221   2.423   1.006
 5010SOL    HW115773   2.184   2.336   0.990
 5010SOL    HW215774   2.298   2.427   0.950
 5011SOL     OW15775   2.997   2.236   1.683
 5011SOL    HW115776   2.949   2.288   1.748
 5011SOL    HW215777   3.084   2.276   1.681
 5012SOL     OW15778   3.027   2.060   1.471
 5012SOL    HW115779   3.014   2.122   1.543
 5012SOL    HW215780   3.071   2.112   1.403
 5013SOL     OW15781   1.887   3.169   0.179
 5013SOL    HW115782   1.804   3.186   0.134
 5013SOL    HW215783   1.874   3.084   0.221
 5014SOL     OW15784   1.962   3.633   0.941
 5014SOL    HW115785   1.929   3.557   0.893
 5014SOL    HW215786   2.045   3.655   0.898
 5015SOL     OW15787   2.352   3.439   0.904
 5015SOL    HW115788   2.420   3.502   0.928
 5015SOL    HW215789   2.397   3.376   0.847
 5016SOL     OW15790   2.834   2.647   1.223
 5016SOL    HW115791   2.898   2.630   1.293
 5016SOL    HW215792   2.751   2.613   1.258
 5017SOL     OW15793   1.894   2.402   1.114
 5017SOL    HW115794   1.967   2.437   1.063
 5017SOL    HW215795   1.918   2.417   1.205
 5018SOL     OW15796   2.010   2.435   1.742
 5018SOL    HW115797   2.067   2.390   1.680
 5018SOL    HW215798   1.975   2.509   1.693
 5019SOL     OW15799   3.244   2.795   1.657
 5019SOL    HW115800   3.265   2.888   1.654
 5019SOL    HW215801   3.239   2.768   1.565
 5020SOL     OW15802   2.681   2.438   0.386
 5020SOL    HW115803   2.686   2.364   0.326
 5020SOL    HW215804   2.617   2.497   0.346
 5021SOL     OW15805   3.500   2.463   1.179
 5021SOL    HW115806   3.489   2.403   1.253
 5021SOL    HW215807   3.588   2.443   1.145
 5022SOL     OW15808   2.101   3.409   1.721
 5022SOL    HW115809   2.079   3.476   1.785
 5022SOL    HW215810   2.107   3.328   1.772
 5023SOL     OW15811   2.537   2.319   1.263
 5023SOL    HW115812   2.522   2.231   1.228
 5023SOL    HW215813   2.546   2.374   1.185
 5024SOL     OW15814   2.785   3.531   1.472
 5024SOL    HW115815   2.759   3.491   1.389
 5024SOL    HW215816   2.778   3.625   1.456
 5025SOL     OW15817   2.329   2.386   0.285
 5025SOL    HW115818   2.405   2.441   0.268
 5025SOL    HW215819   2.272   2.400   0.210
 5026SOL     OW15820   2.003   3.009   1.476
 5026SOL    HW115821   2.004   2.961   1.559
 5026SOL    HW215822   2.020   2.941   1.410
 5027SOL     OW15823   3.179   2.904   1.219
 5027SOL    HW115824   3.202   2.841   1.150
 5027SOL    HW215825   3.114   2.961   1.179
 5028SOL     OW15826   3.181   2.719   0.327
 5028SOL    HW115827   3.109   2.685   0.380
 5028SOL    HW215828   3.153   2.702   0.237
 5029SOL     OW15829   3.644   3.597   1.160
 5029SOL    HW115830   3.701   3.624   1.088
 5029SOL    HW215831   3.614   3.510   1.134
 5030SOL     OW15832   3.107   3.594   1.105
 5030SOL    HW115833   3.190   3.617   1.064
 5030SOL    HW215834   3.115   3.501   1.126
 5031SOL     OW15835   1.951   3.124   1.012
 5031SOL    HW115836   1.932   3.142   1.105
 5031SOL    HW215837   1.876   3.074   0.982
 5032SOL     OW15838   2.542   3.529   1.739
 5032SOL    HW115839   2.483   3.605   1.743
 5032SOL    HW215840   2.604   3.551   1.669
 5033SOL     OW15841   2.800   1.974   0.122
 5033SOL    HW115842   2.828   1.962   0.032
 5033SOL    HW215843   2.851   1.911   0.172
 5034SOL     OW15844   3.566   2.016   0.514
 5034SOL    HW115845   3.644   2.006   0.459
 5034SOL    HW215846   3.556   1.930   0.556
 5035SOL     OW15847   3.252   3.434   0.491
 5035SOL    HW115848   3.314   3.469   0.427
 5035SOL    HW215849   3.204   3.510   0.522
 5036SOL     OW15850   2.001   3.649   1.838
 5036SOL    HW115851   1.949   3.586   1.887
 5036SOL    HW215852   2.048   3.699   1.905
 5037SOL     OW15853   3.138   2.789   0.671
 5037SOL    HW115854   3.213   2.730   0.682
 5037SOL    HW215855   3.172   2.861   0.618
 5038SOL     OW15856   2.666   3.139   1.424
 5038SOL    HW115857   2.639   3.180   1.506
 5038SOL    HW215858   2.596   3.160   1.362
 5039SOL     OW15859   2.539   3.462   0.189
 5039SOL    HW115860   2.524   3.512   0.109
 5039SOL    HW215861   2.484   3.384   0.180
 5040SOL     OW15862   3.478   3.590   1.391
 5040SOL    HW115863   3.536   3.591   1.314
 5040SOL    HW215864   3.464   3.682   1.412
 5041SOL     OW15865   3.701   2.042   0.964
 5041SOL    HW115866   3.733   1.955   0.941
 5041SOL    HW215867   3.614   2.048   0.925
 5042SOL     OW15868   3.085   3.458   0.038
 5042SOL    HW115869   3.073   3.366   0.063
 5042SOL    HW215870   3.036   3.466  13.856
 5043SOL     OW15871   2.688   2.870   1.374
 5043SOL    HW115872   2.731   2.866   1.289
 5043SOL    HW215873   2.682   2.964   1.394
 5044SOL     OW15874   2.788   2.775   0.292
 5044SOL    HW115875   2.855   2.815   0.238
 5044SOL    HW215876   2.833   2.704   0.339
 5045SOL     OW15877   3.345   3.520   0.062
 5045SOL    HW115878   3.253   3.493   0.060
 5045SOL    HW215879   3.378   3.503  13.874
 5046SOL     OW15880   2.231   3.167   1.491
 5046SOL    HW115881   2.217   3.245   1.436
 5046SOL    HW215882   2.152   3.114   1.478
 5047SOL     OW15883   3.459   3.142   1.275
 5047SOL    HW115884   3.528   3.131   1.340
 5047SOL    HW215885   3.403   3.211   1.311
 5048SOL     OW15886   2.923   2.972   0.711
 5048SOL    HW115887   2.851   2.921   0.748
 5048SOL    HW215888   2.988   2.907   0.685
 5049SOL     OW15889   2.885   2.104   0.965
 5049SOL    HW115890   2.881   2.057   0.881
 5049SOL    HW215891   2.882   2.035   1.031
 5050SOL     OW15892   2.470   3.349   0.479
 5050SOL    HW115893   2.517   3.299   0.413
 5050SOL    HW215894   2.399   3.392   0.431
 5051SOL     OW15895   3.589   2.249   1.378
 5051SOL    HW115896   3.661   2.312   1.375
 5051SOL    HW215897   3.617   2.178   1.320
 5052SOL     OW15898   2.135   3.180   0.298
 5052SOL    HW115899   2.052   3.187   0.251
 5052SOL    HW215900   2.121   3.228   0.379
 5053SOL     OW15901   1.975   2.896   1.724
 5053SOL    HW115902   1.899   2.869   1.775
 5053SOL    HW215903   2.049   2.853   1.768
 5054SOL     OW15904   2.550   2.040   1.494
 5054SOL    HW115905   2.637   2.017   1.461
 5054SOL    HW215906   2.566   2.085   1.577
 5055SOL     OW15907   1.849   2.288   0.030
 5055SOL    HW115908   1.812   2.202   0.049
 5055SOL    HW215909   1.872   2.284  13.837
 5056SOL     OW15910   3.285   2.720   1.397
 5056SOL    HW115911   3.235   2.781   1.343
 5056SOL    HW215912   3.373   2.722   1.360
 5057SOL     OW15913   3.049   3.203   0.124
 5057SOL    HW115914   2.954   3.198   0.113
 5057SOL    HW215915   3.063   3.192   0.218
 5058SOL     OW15916   2.487   2.694   1.436
 5058SOL    HW115917   2.543   2.770   1.422
 5058SOL    HW215918   2.547   2.620   1.444
 5059SOL     OW15919   3.349   3.647   0.984
 5059SOL    HW115920   3.371   3.704   0.911
 5059SOL    HW215921   3.432   3.609   1.012
 5060SOL     OW15922   2.572   2.423   1.700
 5060SOL    HW115923   2.620   2.480   1.760
 5060SOL    HW215924   2.591   2.334   1.729
 5061SOL     OW15925   3.336   3.055   1.628
 5061SOL    HW115926   3.326   3.071   1.722
 5061SOL    HW215927   3.428   3.072   1.610
 5062SOL     OW15928   2.232   3.606   1.569
 5062SOL    HW115929   2.148   3.650   1.551
 5062SOL    HW215930   2.207   3.522   1.608
 5063SOL     OW15931   3.524   2.741   1.259
 5063SOL    HW115932   3.523   2.656   1.215
 5063SOL    HW215933   3.516   2.805   1.187
 5064SOL     OW15934   3.080   2.183   0.454
 5064SOL    HW115935   3.143   2.110   0.449
 5064SOL    HW215936   3.107   2.232   0.531
 5065SOL     OW15937   2.446   2.593   0.671
 5065SOL    HW115938   2.484   2.679   0.657
 5065SOL    HW215939   2.377   2.586   0.605
 5066SOL     OW15940   3.616   2.228   1.650
 5066SOL    HW115941   3.601   2.242   1.557
 5066SOL    HW215942   3.545   2.170   1.678
 5067SOL     OW15943   3.620   2.788   1.512
 5067SOL    HW115944   3.610   2.881   1.531
 5067SOL    HW215945   3.593   2.779   1.421
 5068SOL     OW15946   2.772   3.262   0.077
 5068SOL    HW115947   2.710   3.242   0.147
 5068SOL    HW215948   2.722   3.253  13.896
 5069SOL     OW15949   2.524   3.647   0.934
 5069SOL    HW115950   2.503   3.739   0.916
 5069SOL    HW215951   2.619   3.643   0.931
 5070SOL     OW15952   2.731   2.832   0.854
 5070SOL    HW115953   2.781   2.760   0.891
 5070SOL    HW215954   2.693   2.877   0.929
 5071SOL     OW15955   2.958   2.877   0.110
 5071SOL    HW115956   2.951   2.924   0.027
 5071SOL    HW215957   3.031   2.817   0.099
 5072SOL     OW15958   3.708   3.414   0.839
 5072SOL    HW115959   3.628   3.399   0.788
 5072SOL    HW215960   3.706   3.347   0.907
 5073SOL     OW15961   2.089   3.161   1.854
 5073SOL    HW115962   2.025   3.097   1.822
 5073SOL    HW215963   2.066   3.173   1.946
 5074SOL     OW15964   1.950   3.087   0.667
 5074SOL    HW115965   1.964   3.042   0.751
 5074SOL    HW215966   2.020   3.055   0.611
 5075SOL     OW15967   2.548   3.270   1.632
 5075SOL    HW115968   2.468   3.228   1.665
 5075SOL    HW215969   2.546   3.358   1.670
 5076SOL     OW15970   3.671   2.037   1.235
 5076SOL    HW115971   3.663   1.942   1.237
 5076SOL    HW215972   3.688   2.058   1.144
 5077SOL     OW15973   3.555   3.350   1.092
 5077SOL    HW115974   3.477   3.328   1.041
 5077SOL    HW215975   3.562   3.279   1.156
 5078SOL     OW15976   2.209   2.430   1.296
 5078SOL    HW115977   2.265   2.368   1.343
 5078SOL    HW215978   2.233   2.420   1.204
 5079SOL     OW15979   2.693   3.442   0.677
 5079SOL    HW115980   2.671   3.501   0.605
 5079SOL    HW215981   2.619   3.381   0.681
 5080SOL     OW15982   3.291   2.092   1.115
 5080SOL    HW115983   3.308   2.006   1.154
 5080SOL    HW215984   3.242   2.140   1.182
 5081SOL     OW15985   2.873   1.879   1.134
 5081SOL    HW115986   2.817   1.813   1.094
 5081SOL    HW215987   2.960   1.839   1.135
 5082SOL     OW15988   2.643   3.186   0.321
 5082SOL    HW115989   2.614   3.096   0.339
 5082SOL    HW215990   2.722   3.197   0.374
 5083SOL     OW15991   2.482   3.414   1.287
 5083SOL    HW115992   2.481   3.496   1.336
 5083SOL    HW215993   2.570   3.409   1.250
 5084SOL     OW15994   3.215   1.924   0.167
 5084SOL    HW115995   3.254   1.857   0.110
 5084SOL    HW215996   3.131   1.888   0.193
 5085SOL     OW15997   3.155   2.326   0.677
 5085SOL    HW115998   3.104   2.406   0.682
 5085SOL    HW215999   3.152   2.289   0.765
 5086SOL     OW16000   3.442   2.056   0.881
 5086SOL    HW116001   3.389   2.082   0.956
 5086SOL    HW216002   3.443   2.133   0.824
 5087SOL     OW16003   1.901   2.925   0.313
 5087SOL    HW116004   1.996   2.920   0.309
 5087SOL    HW216005   1.873   2.836   0.331
 5088SOL     OW16006   2.760   3.524   0.344
 5088SOL    HW116007   2.685   3.497   0.292
 5088SOL    HW216008   2.729   3.599   0.395
 5089SOL     OW16009   2.098   2.496   1.998
 5089SOL    HW116010   2.014   2.482   2.042
 5089SOL    HW216011   2.078   2.485   1.905
 5090SOL     OW16012   1.873   2.272   2.499
 5090SOL    HW116013   1.781   2.268   2.528
 5090SOL    HW216014   1.885   2.192   2.448
 5091SOL     OW16015   2.429   3.159   3.045
 5091SOL    HW116016   2.344   3.166   3.002
 5091SOL    HW216017   2.447   3.247   3.079
 5092SOL     OW16018   3.430   3.375   2.572
 5092SOL    HW116019   3.388   3.351   2.654
 5092SOL    HW216020   3.359   3.378   2.508
 5093SOL     OW16021   2.994   2.561   2.557
 5093SOL    HW116022   3.042   2.643   2.545
 5093SOL    HW216023   2.946   2.574   2.639
 5094SOL     OW16024   3.633   2.465   2.090
 5094SOL    HW116025   3.610   2.457   1.997
 5094SOL    HW216026   3.598   2.385   2.130
 5095SOL     OW16027   2.605   2.998   2.909
 5095SOL    HW116028   2.540   3.037   2.967
 5095SOL    HW216029   2.646   3.073   2.866
 5096SOL     OW16030   2.736   2.623   3.686
 5096SOL    HW116031   2.727   2.692   3.751
 5096SOL    HW216032   2.758   2.668   3.605
 5097SOL     OW16033   2.549   2.860   2.506
 5097SOL    HW116034   2.616   2.854   2.575
 5097SOL    HW216035   2.481   2.916   2.544
 5098SOL     OW16036   2.577   3.013   3.680
 5098SOL    HW116037   2.625   3.090   3.711
 5098SOL    HW216038   2.497   3.049   3.641
 5099SOL     OW16039   2.194   3.278   2.928
 5099SOL    HW116040   2.119   3.240   2.882
 5099SOL    HW216041   2.238   3.332   2.862
 5100SOL     OW16042   3.320   3.364   3.223
 5100SOL    HW116043   3.375   3.442   3.233
 5100SOL    HW216044   3.251   3.375   3.290
 5101SOL     OW16045   3.468   2.304   2.609
 5101SOL    HW116046   3.398   2.323   2.546
 5101SOL    HW216047   3.471   2.381   2.665
 5102SOL     OW16048   2.085   3.577   2.341
 5102SOL    HW116049   2.112   3.637   2.411
 5102SOL    HW216050   2.158   3.577   2.280
 5103SOL     OW16051   3.000   3.204   3.557
 5103SOL    HW116052   3.042   3.196   3.643
 5103SOL    HW216053   2.947   3.124   3.548
 5104SOL     OW16054   2.093   3.304   2.398
 5104SOL    HW116055   2.075   3.399   2.400
 5104SOL    HW216056   2.035   3.267   2.465
 5105SOL     OW16057   2.128   2.960   2.751
 5105SOL    HW116058   2.124   2.871   2.788
 5105SOL    HW216059   2.070   3.011   2.807
 5106SOL     OW16060   2.464   3.646   3.289
 5106SOL    HW116061   2.383   3.633   3.339
 5106SOL    HW216062   2.492   3.735   3.313
 5107SOL     OW16063   2.440   2.852   2.001
 5107SOL    HW116064   2.489   2.895   1.931
 5107SOL    HW216065   2.478   2.884   2.082
 5108SOL     OW16066   3.456   1.990   3.326
 5108SOL    HW116067   3.479   2.071   3.280
 5108SOL    HW216068   3.437   2.018   3.415
 5109SOL     OW16069   1.988   2.517   2.425
 5109SOL    HW116070   1.953   2.430   2.446
 5109SOL    HW216071   1.975   2.568   2.506
 5110SOL     OW16072   3.700   3.610   2.205
 5110SOL    HW116073   3.772   3.585   2.262
 5110SOL    HW216074   3.717   3.702   2.183
 5111SOL     OW16075   1.896   3.449   1.982
 5111SOL    HW116076   1.879   3.357   2.002
 5111SOL    HW216077   1.873   3.495   2.062
 5112SOL     OW16078   3.553   2.783   2.513
 5112SOL    HW116079   3.635   2.738   2.494
 5112SOL    HW216080   3.532   2.831   2.433
 5113SOL     OW16081   3.504   2.963   2.295
 5113SOL    HW116082   3.589   2.966   2.251
 5113SOL    HW216083   3.511   3.028   2.365
 5114SOL     OW16084   1.975   2.631   3.422
 5114SOL    HW116085   2.063   2.668   3.433
 5114SOL    HW216086   1.917   2.708   3.423
 5115SOL     OW16087   2.479   3.255   2.596
 5115SOL    HW116088   2.435   3.171   2.604
 5115SOL    HW216089   2.462   3.282   2.506
 5116SOL     OW16090   3.147   3.097   3.283
 5116SOL    HW116091   3.178   3.029   3.222
 5116SOL    HW216092   3.207   3.092   3.357
 5117SOL     OW16093   2.695   1.865   2.374
 5117SOL    HW116094   2.733   1.949   2.349
 5117SOL    HW216095   2.601   1.881   2.379
 5118SOL     OW16096   2.049   2.826   3.144
 5118SOL    HW116097   2.135   2.789   3.126
 5118SOL    HW216098   1.990   2.780   3.084
 5119SOL     OW16099   3.388   2.862   2.064
 5119SOL    HW116100   3.319   2.805   2.097
 5119SOL    HW216101   3.431   2.896   2.142
 5120SOL     OW16102   3.088   3.669   3.491
 5120SOL    HW116103   3.059   3.730   3.424
 5120SOL    HW216104   3.087   3.583   3.449
 5121SOL     OW16105   3.327   3.282   2.808
 5121SOL    HW116106   3.262   3.297   2.876
 5121SOL    HW216107   3.315   3.190   2.783
 5122SOL     OW16108   3.504   3.610   2.442
 5122SOL    HW116109   3.497   3.574   2.354
 5122SOL    HW216110   3.491   3.535   2.500
 5123SOL     OW16111   2.467   2.602   2.140
 5123SOL    HW116112   2.469   2.681   2.086
 5123SOL    HW216113   2.401   2.619   2.207
 5124SOL     OW16114   3.139   2.229   2.797
 5124SOL    HW116115   3.051   2.193   2.805
 5124SOL    HW216116   3.193   2.174   2.854
 5125SOL     OW16117   3.434   3.540   2.171
 5125SOL    HW116118   3.527   3.562   2.166
 5125SOL    HW216119   3.408   3.522   2.081
 5126SOL     OW16120   2.655   2.478   3.309
 5126SOL    HW116121   2.631   2.454   3.399
 5126SOL    HW216122   2.610   2.414   3.254
 5127SOL     OW16123   3.256   2.336   3.540
 5127SOL    HW116124   3.260   2.380   3.625
 5127SOL    HW216125   3.311   2.259   3.551
 5128SOL     OW16126   2.811   2.747   3.448
 5128SOL    HW116127   2.867   2.680   3.410
 5128SOL    HW216128   2.764   2.784   3.374
 5129SOL     OW16129   2.861   2.276   3.096
 5129SOL    HW116130   2.776   2.293   3.135
 5129SOL    HW216131   2.841   2.231   3.014
 5130SOL     OW16132   2.917   2.561   2.286
 5130SOL    HW116133   2.936   2.555   2.380
 5130SOL    HW216134   2.834   2.516   2.275
 5131SOL     OW16135   1.951   2.683   2.641
 5131SOL    HW116136   2.033   2.684   2.690
 5131SOL    HW216137   1.902   2.759   2.673
 5132SOL     OW16138   1.977   3.719   3.441
 5132SOL    HW116139   1.985   3.697   3.534
 5132SOL    HW216140   1.885   3.701   3.420
 5133SOL     OW16141   2.754   2.216   2.064
 5133SOL    HW116142   2.802   2.266   1.998
 5133SOL    HW216143   2.716   2.143   2.015
 5134SOL     OW16144   3.568   2.432   3.693
 5134SOL    HW116145   3.532   2.506   3.643
 5134SOL    HW216146   3.593   2.369   3.626
 5135SOL     OW16147   3.240   3.003   2.401
 5135SOL    HW116148   3.320   2.991   2.350
 5135SOL    HW216149   3.188   3.066   2.350
 5136SOL     OW16150   2.444   2.062   2.771
 5136SOL    HW116151   2.352   2.070   2.796
 5136SOL    HW216152   2.465   2.147   2.731
 5137SOL     OW16153   2.861   3.307   2.330
 5137SOL    HW116154   2.829   3.383   2.281
 5137SOL    HW216155   2.838   3.326   2.421
 5138SOL     OW16156   2.213   3.676   2.698
 5138SOL    HW116157   2.263   3.597   2.717
 5138SOL    HW216158   2.271   3.748   2.724
 5139SOL     OW16159   3.670   2.923   2.732
 5139SOL    HW116160   3.618   2.893   2.657
 5139SOL    HW216161   3.607   2.926   2.804
 5140SOL     OW16162   3.088   3.401   3.374
 5140SOL    HW116163   3.077   3.328   3.436
 5140SOL    HW216164   3.018   3.389   3.310
 5141SOL     OW16165   2.174   2.823   2.116
 5141SOL    HW116166   2.256   2.843   2.070
 5141SOL    HW216167   2.148   2.737   2.081
 5142SOL     OW16168   3.343   2.613   2.584
 5142SOL    HW116169   3.340   2.572   2.670
 5142SOL    HW216170   3.422   2.668   2.586
 5143SOL     OW16171   2.332   3.129   3.599
 5143SOL    HW116172   2.306   3.135   3.507
 5143SOL    HW216173   2.250   3.127   3.647
 5144SOL     OW16174   2.978   3.645   2.081
 5144SOL    HW116175   2.911   3.601   2.133
 5144SOL    HW216176   3.008   3.577   2.020
 5145SOL     OW16177   3.485   3.250   1.952
 5145SOL    HW116178   3.441   3.333   1.934
 5145SOL    HW216179   3.419   3.184   1.930
 5146SOL     OW16180   2.326   3.601   2.187
 5146SOL    HW116181   2.366   3.663   2.248
 5146SOL    HW216182   2.398   3.573   2.130
 5147SOL     OW16183   3.262   1.969   2.304
 5147SOL    HW116184   3.257   1.943   2.212
 5147SOL    HW216185   3.356   1.976   2.321
 5148SOL     OW16186   2.123   3.652   3.079
 5148SOL    HW116187   2.169   3.579   3.121
 5148SOL    HW216188   2.104   3.621   2.991
 5149SOL     OW16189   2.802   3.566   2.759
 5149SOL    HW116190   2.879   3.515   2.782
 5149SOL    HW216191   2.759   3.515   2.690
 5150SOL     OW16192   2.257   2.577   2.341
 5150SOL    HW116193   2.284   2.486   2.351
 5150SOL    HW216194   2.162   2.575   2.357
 5151SOL     OW16195   3.390   2.086   3.586
 5151SOL    HW116196   3.400   2.106   3.679
 5151SOL    HW216197   3.322   2.018   3.584
 5152SOL     OW16198   2.544   1.985   1.960
 5152SOL    HW116199   2.584   1.905   1.996
 5152SOL    HW216200   2.474   1.952   1.904
 5153SOL     OW16201   2.628   2.147   3.613
 5153SOL    HW116202   2.708   2.095   3.606
 5153SOL    HW216203   2.581   2.109   3.688
 5154SOL     OW16204   2.737   3.383   3.057
 5154SOL    HW116205   2.720   3.346   2.971
 5154SOL    HW216206   2.807   3.328   3.093
 5155SOL     OW16207   3.201   2.452   3.296
 5155SOL    HW116208   3.232   2.421   3.381
 5155SOL    HW216209   3.239   2.540   3.288
 5156SOL     OW16210   2.681   3.250   2.809
 5156SOL    HW116211   2.765   3.239   2.766
 5156SOL    HW216212   2.618   3.257   2.737
 5157SOL     OW16213   2.790   2.369   2.762
 5157SOL    HW116214   2.766   2.361   2.670
 5157SOL    HW216215   2.823   2.282   2.786
 5158SOL     OW16216   2.429   1.918   2.376
 5158SOL    HW116217   2.376   1.895   2.453
 5158SOL    HW216218   2.416   2.012   2.365
 5159SOL     OW16219   3.289   3.063   1.900
 5159SOL    HW116220   3.320   2.989   1.952
 5159SOL    HW216221   3.204   3.085   1.938
 5160SOL     OW16222   2.806   2.113   2.317
 5160SOL    HW116223   2.783   2.149   2.231
 5160SOL    HW216224   2.901   2.127   2.324
 5161SOL     OW16225   2.944   2.548   3.319
 5161SOL    HW116226   2.881   2.477   3.327
 5161SOL    HW216227   3.029   2.504   3.314
 5162SOL     OW16228   3.079   3.435   2.657
 5162SOL    HW116229   3.094   3.501   2.589
 5162SOL    HW216230   3.151   3.447   2.719
 5163SOL     OW16231   2.336   3.017   2.587
 5163SOL    HW116232   2.269   2.999   2.653
 5163SOL    HW216233   2.292   3.004   2.503
 5164SOL     OW16234   3.124   3.653   2.473
 5164SOL    HW116235   3.173   3.718   2.422
 5164SOL    HW216236   3.049   3.701   2.508
 5165SOL     OW16237   2.888   2.394   1.887
 5165SOL    HW116238   2.843   2.477   1.870
 5165SOL    HW216239   2.950   2.415   1.956
 5166SOL     OW16240   1.942   2.429   3.242
 5166SOL    HW116241   2.037   2.418   3.229
 5166SOL    HW216242   1.935   2.501   3.305
 5167SOL     OW16243   2.726   2.318   2.500
 5167SOL    HW116244   2.685   2.375   2.434
 5167SOL    HW216245   2.753   2.241   2.451
 5168SOL     OW16246   2.877   1.917   2.610
 5168SOL    HW116247   2.821   1.907   2.532
 5168SOL    HW216248   2.854   1.842   2.665
 5169SOL     OW16249   3.303   3.022   2.719
 5169SOL    HW116250   3.232   2.958   2.719
 5169SOL    HW216251   3.329   3.030   2.627
 5170SOL     OW16252   3.327   2.473   2.829
 5170SOL    HW116253   3.271   2.396   2.832
 5170SOL    HW216254   3.384   2.464   2.905
 5171SOL     OW16255   3.724   2.676   2.236
 5171SOL    HW116256   3.767   2.620   2.302
 5171SOL    HW216257   3.687   2.614   2.173
 5172SOL     OW16258   2.352   3.282   2.013
 5172SOL    HW116259   2.276   3.255   2.064
 5172SOL    HW216260   2.344   3.233   1.931
 5173SOL     OW16261   3.532   3.128   2.502
 5173SOL    HW116262   3.627   3.129   2.513
 5173SOL    HW216263   3.504   3.217   2.524
 5174SOL     OW16264   3.256   2.434   1.933
 5174SOL    HW116265   3.193   2.413   2.003
 5174SOL    HW216266   3.340   2.403   1.967
 5175SOL     OW16267   3.611   3.094   3.420
 5175SOL    HW116268   3.698   3.060   3.403
 5175SOL    HW216269   3.626   3.184   3.449
 5176SOL     OW16270   2.916   3.213   3.193
 5176SOL    HW116271   2.841   3.183   3.243
 5176SOL    HW216272   2.991   3.172   3.235
 5177SOL     OW16273   3.469   3.493   3.521
 5177SOL    HW116274   3.459   3.527   3.432
 5177SOL    HW216275   3.548   3.439   3.517
 5178SOL     OW16276   2.997   3.073   2.963
 5178SOL    HW116277   2.938   3.111   3.028
 5178SOL    HW216278   2.968   3.108   2.879
 5179SOL     OW16279   3.487   2.955   2.935
 5179SOL    HW116280   3.476   3.017   3.007
 5179SOL    HW216281   3.412   2.972   2.878
 5180SOL     OW16282   2.791   1.951   3.253
 5180SOL    HW116283   2.812   1.933   3.162
 5180SOL    HW216284   2.870   1.990   3.289
 5181SOL     OW16285   2.846   2.977   3.584
 5181SOL    HW116286   2.755   2.994   3.609
 5181SOL    HW216287   2.842   2.898   3.531
 5182SOL     OW16288   2.572   2.925   2.233
 5182SOL    HW116289   2.558   2.904   2.325
 5182SOL    HW216290   2.647   2.871   2.208
 5183SOL     OW16291   2.285   2.688   3.117
 5183SOL    HW116292   2.354   2.699   3.182
 5183SOL    HW216293   2.249   2.601   3.135
 5184SOL     OW16294   3.129   2.237   3.144
 5184SOL    HW116295   3.161   2.315   3.189
 5184SOL    HW216296   3.039   2.258   3.120
 5185SOL     OW16297   1.937   3.435   3.218
 5185SOL    HW116298   1.910   3.510   3.165
 5185SOL    HW216299   2.033   3.435   3.212
 5186SOL     OW16300   2.198   2.981   2.351
 5186SOL    HW116301   2.201   3.054   2.289
 5186SOL    HW216302   2.196   2.903   2.296
 5187SOL     OW16303   2.429   2.382   2.708
 5187SOL    HW116304   2.438   2.442   2.634
 5187SOL    HW216305   2.495   2.411   2.771
 5188SOL     OW16306   3.108   3.212   2.252
 5188SOL    HW116307   3.165   3.283   2.285
 5188SOL    HW216308   3.021   3.234   2.286
 5189SOL     OW16309   3.152   3.323   3.011
 5189SOL    HW116310   3.208   3.329   3.089
 5189SOL    HW216311   3.097   3.246   3.026
 5190SOL     OW16312   3.436   2.479   2.348
 5190SOL    HW116313   3.388   2.529   2.414
 5190SOL    HW216314   3.477   2.545   2.293
 5191SOL     OW16315   2.207   3.393   3.170
 5191SOL    HW116316   2.197   3.347   3.087
 5191SOL    HW216317   2.302   3.404   3.180
 5192SOL     OW16318   2.290   2.606   3.473
 5192SOL    HW116319   2.347   2.649   3.410
 5192SOL    HW216320   2.343   2.534   3.508
 5193SOL     OW16321   3.470   2.642   3.549
 5193SOL    HW116322   3.385   2.684   3.544
 5193SOL    HW216323   3.523   2.685   3.481
 5194SOL     OW16324   2.856   1.996   3.604
 5194SOL    HW116325   2.918   2.068   3.591
 5194SOL    HW216326   2.907   1.917   3.584
 5195SOL     OW16327   2.355   1.884   3.646
 5195SOL    HW116328   2.307   1.839   3.577
 5195SOL    HW216329   2.291   1.944   3.686
 5196SOL     OW16330   2.451   2.735   2.897
 5196SOL    HW116331   2.486   2.824   2.898
 5196SOL    HW216332   2.392   2.732   2.973
 5197SOL     OW16333   3.209   2.721   2.882
 5197SOL    HW116334   3.123   2.705   2.842
 5197SOL    HW216335   3.256   2.638   2.872
 5198SOL     OW16336   3.060   2.389   2.123
 5198SOL    HW116337   3.069   2.310   2.177
 5198SOL    HW216338   3.019   2.453   2.180
 5199SOL     OW16339   1.907   3.174   3.136
 5199SOL    HW116340   1.940   3.119   3.207
 5199SOL    HW216341   1.913   3.264   3.170
 5200SOL     OW16342   2.581   2.485   2.914
 5200SOL    HW116343   2.662   2.476   2.864
 5200SOL    HW216344   2.554   2.576   2.899
 5201SOL     OW16345   3.591   2.822   3.729
 5201SOL    HW116346   3.553   2.753   3.675
 5201SOL    HW216347   3.526   2.837   3.797
 5202SOL     OW16348   3.485   2.242   2.221
 5202SOL    HW116349   3.510   2.175   2.285
 5202SOL    HW216350   3.460   2.318   2.275
 5203SOL     OW16351   2.889   2.619   2.819
 5203SOL    HW116352   2.881   2.636   2.913
 5203SOL    HW216353   2.865   2.527   2.809
 5204SOL     OW16354   2.848   3.430   3.585
 5204SOL    HW116355   2.827   3.470   3.501
 5204SOL    HW216356   2.889   3.347   3.563
 5205SOL     OW16357   3.702   3.355   3.458
 5205SOL    HW116358   3.728   3.387   3.372
 5205SOL    HW216359   3.782   3.362   3.511
 5206SOL     OW16360   2.213   2.781   3.671
 5206SOL    HW116361   2.294   2.802   3.719
 5206SOL    HW216362   2.240   2.717   3.605
 5207SOL     OW16363   3.389   2.133   1.988
 5207SOL    HW116364   3.326   2.068   2.016
 5207SOL    HW216365   3.423   2.171   2.069
 5208SOL     OW16366   3.148   2.686   1.890
 5208SOL    HW116367   3.191   2.600   1.895
 5208SOL    HW216368   3.182   2.724   1.809
 5209SOL     OW16369   2.931   3.201   2.719
 5209SOL    HW116370   2.937   3.129   2.657
 5209SOL    HW216371   2.988   3.269   2.683
 5210SOL     OW16372   2.173   2.687   2.806
 5210SOL    HW116373   2.265   2.713   2.798
 5210SOL    HW216374   2.176   2.595   2.833
 5211SOL     OW16375   2.214   2.424   2.862
 5211SOL    HW116376   2.173   2.340   2.841
 5211SOL    HW216377   2.294   2.425   2.809
 5212SOL     OW16378   2.997   2.236   3.545
 5212SOL    HW116379   2.949   2.288   3.610
 5212SOL    HW216380   3.084   2.276   3.543
 5213SOL     OW16381   3.028   2.060   3.333
 5213SOL    HW116382   3.014   2.122   3.405
 5213SOL    HW216383   3.071   2.112   3.265
 5214SOL     OW16384   1.869   3.177   2.056
 5214SOL    HW116385   1.781   3.193   2.021
 5214SOL    HW216386   1.864   3.088   2.091
 5215SOL     OW16387   1.962   3.634   2.802
 5215SOL    HW116388   1.929   3.557   2.755
 5215SOL    HW216389   2.044   3.655   2.759
 5216SOL     OW16390   2.352   3.439   2.766
 5216SOL    HW116391   2.420   3.502   2.790
 5216SOL    HW216392   2.397   3.376   2.708
 5217SOL     OW16393   2.834   2.647   3.085
 5217SOL    HW116394   2.897   2.630   3.155
 5217SOL    HW216395   2.752   2.613   3.118
 5218SOL     OW16396   1.896   2.402   2.975
 5218SOL    HW116397   1.970   2.439   2.926
 5218SOL    HW216398   1.919   2.415   3.067
 5219SOL     OW16399   2.014   2.439   3.609
 5219SOL    HW116400   2.080   2.400   3.552
 5219SOL    HW216401   1.976   2.510   3.557
 5220SOL     OW16402   3.244   2.795   3.519
 5220SOL    HW116403   3.265   2.888   3.515
 5220SOL    HW216404   3.239   2.768   3.427
 5221SOL     OW16405   2.680   2.435   2.234
 5221SOL    HW116406   2.686   2.362   2.172
 5221SOL    HW216407   2.609   2.489   2.200
 5222SOL     OW16408   3.500   2.463   3.041
 5222SOL    HW116409   3.489   2.403   3.115
 5222SOL    HW216410   3.587   2.443   3.007
 5223SOL     OW16411   2.101   3.409   3.583
 5223SOL    HW116412   2.079   3.476   3.647
 5223SOL    HW216413   2.107   3.328   3.634
 5224SOL     OW16414   2.541   2.319   3.124
 5224SOL    HW116415   2.523   2.231   3.089
 5224SOL    HW216416   2.548   2.374   3.047
 5225SOL     OW16417   2.785   3.531   3.334
 5225SOL    HW116418   2.759   3.491   3.251
 5225SOL    HW216419   2.777   3.625   3.318
 5226SOL     OW16420   2.341   2.371   2.094
 5226SOL    HW116421   2.399   2.448   2.096
 5226SOL    HW216422   2.260   2.403   2.055
 5227SOL     OW16423   2.003   3.008   3.338
 5227SOL    HW116424   2.004   2.961   3.421
 5227SOL    HW216425   2.020   2.941   3.272
 5228SOL     OW16426   3.180   2.904   3.081
 5228SOL    HW116427   3.202   2.841   3.012
 5228SOL    HW216428   3.115   2.962   3.041
 5229SOL     OW16429   3.176   2.717   2.166
 5229SOL    HW116430   3.102   2.685   2.217
 5229SOL    HW216431   3.150   2.703   2.075
 5230SOL     OW16432   3.644   3.598   3.021
 5230SOL    HW116433   3.701   3.624   2.950
 5230SOL    HW216434   3.613   3.510   2.997
 5231SOL     OW16435   3.107   3.594   2.967
 5231SOL    HW116436   3.190   3.617   2.926
 5231SOL    HW216437   3.115   3.501   2.988
 5232SOL     OW16438   1.949   3.126   2.873
 5232SOL    HW116439   1.931   3.142   2.966
 5232SOL    HW216440   1.875   3.073   2.843
 5233SOL     OW16441   2.542   3.529   3.601
 5233SOL    HW116442   2.483   3.605   3.605
 5233SOL    HW216443   2.604   3.551   3.532
 5234SOL     OW16444   3.568   2.017   2.371
 5234SOL    HW116445   3.636   2.005   2.305
 5234SOL    HW216446   3.558   1.931   2.411
 5235SOL     OW16447   3.253   3.430   2.353
 5235SOL    HW116448   3.310   3.465   2.285
 5235SOL    HW216449   3.203   3.506   2.384
 5236SOL     OW16450   2.001   3.649   3.700
 5236SOL    HW116451   1.950   3.586   3.749
 5236SOL    HW216452   2.048   3.699   3.767
 5237SOL     OW16453   3.139   2.790   2.533
 5237SOL    HW116454   3.213   2.731   2.544
 5237SOL    HW216455   3.173   2.862   2.479
 5238SOL     OW16456   2.666   3.139   3.286
 5238SOL    HW116457   2.639   3.180   3.368
 5238SOL    HW216458   2.595   3.160   3.224
 5239SOL     OW16459   2.535   3.482   2.022
 5239SOL    HW116460   2.546   3.501   1.929
 5239SOL    HW216461   2.476   3.407   2.024
 5240SOL     OW16462   3.478   3.590   3.253
 5240SOL    HW116463   3.535   3.591   3.176
 5240SOL    HW216464   3.464   3.682   3.275
 5241SOL     OW16465   3.701   2.043   2.827
 5241SOL    HW116466   3.733   1.955   2.804
 5241SOL    HW216467   3.614   2.049   2.787
 5242SOL     OW16468   3.069   3.462   1.899
 5242SOL    HW116469   3.059   3.370   1.924
 5242SOL    HW216470   3.008   3.475   1.828
 5243SOL     OW16471   2.687   2.870   3.236
 5243SOL    HW116472   2.730   2.865   3.151
 5243SOL    HW216473   2.682   2.964   3.256
 5244SOL     OW16474   2.779   2.773   2.154
 5244SOL    HW116475   2.839   2.806   2.086
 5244SOL    HW216476   2.829   2.706   2.199
 5245SOL     OW16477   3.347   3.499   1.906
 5245SOL    HW116478   3.254   3.484   1.889
 5245SOL    HW216479   3.387   3.503   1.819
 5246SOL     OW16480   2.231   3.167   3.353
 5246SOL    HW116481   2.217   3.244   3.298
 5246SOL    HW216482   2.152   3.114   3.340
 5247SOL     OW16483   3.459   3.142   3.137
 5247SOL    HW116484   3.528   3.130   3.203
 5247SOL    HW216485   3.403   3.210   3.173
 5248SOL     OW16486   2.924   2.973   2.574
 5248SOL    HW116487   2.851   2.922   2.610
 5248SOL    HW216488   2.988   2.907   2.547
 5249SOL     OW16489   2.885   2.104   2.827
 5249SOL    HW116490   2.881   2.057   2.744
 5249SOL    HW216491   2.882   2.035   2.893
 5250SOL     OW16492   2.468   3.353   2.341
 5250SOL    HW116493   2.517   3.302   2.276
 5250SOL    HW216494   2.397   3.393   2.291
 5251SOL     OW16495   3.589   2.249   3.240
 5251SOL    HW116496   3.661   2.312   3.237
 5251SOL    HW216497   3.617   2.178   3.182
 5252SOL     OW16498   2.124   3.203   2.153
 5252SOL    HW116499   2.031   3.199   2.130
 5252SOL    HW216500   2.125   3.244   2.240
 5253SOL     OW16501   1.976   2.896   3.587
 5253SOL    HW116502   1.899   2.869   3.637
 5253SOL    HW216503   2.049   2.853   3.630
 5254SOL     OW16504   2.551   2.039   3.356
 5254SOL    HW116505   2.638   2.017   3.323
 5254SOL    HW216506   2.568   2.085   3.439
 5255SOL     OW16507   1.879   2.258   1.914
 5255SOL    HW116508   1.816   2.220   1.853
 5255SOL    HW216509   1.926   2.324   1.863
 5256SOL     OW16510   3.285   2.720   3.259
 5256SOL    HW116511   3.235   2.781   3.205
 5256SOL    HW216512   3.373   2.722   3.222
 5257SOL     OW16513   3.039   3.195   1.980
 5257SOL    HW116514   2.948   3.166   1.981
 5257SOL    HW216515   3.065   3.196   2.072
 5258SOL     OW16516   2.486   2.693   3.297
 5258SOL    HW116517   2.542   2.769   3.283
 5258SOL    HW216518   2.547   2.620   3.305
 5259SOL     OW16519   3.349   3.646   2.846
 5259SOL    HW116520   3.372   3.705   2.774
 5259SOL    HW216521   3.432   3.610   2.875
 5260SOL     OW16522   2.571   2.423   3.562
 5260SOL    HW116523   2.620   2.480   3.622
 5260SOL    HW216524   2.590   2.334   3.591
 5261SOL     OW16525   3.336   3.056   3.490
 5261SOL    HW116526   3.326   3.071   3.584
 5261SOL    HW216527   3.428   3.072   3.472
 5262SOL     OW16528   2.232   3.606   3.431
 5262SOL    HW116529   2.148   3.650   3.413
 5262SOL    HW216530   2.207   3.522   3.470
 5263SOL     OW16531   3.524   2.741   3.121
 5263SOL    HW116532   3.523   2.656   3.077
 5263SOL    HW216533   3.517   2.804   3.049
 5264SOL     OW16534   3.079   2.181   2.319
 5264SOL    HW116535   3.140   2.108   2.313
 5264SOL    HW216536   3.108   2.231   2.395
 5265SOL     OW16537   2.448   2.601   2.539
 5265SOL    HW116538   2.493   2.685   2.526
 5265SOL    HW216539   2.382   2.599   2.470
 5266SOL     OW16540   3.616   2.228   3.513
 5266SOL    HW116541   3.601   2.242   3.419
 5266SOL    HW216542   3.545   2.170   3.540
 5267SOL     OW16543   3.620   2.788   3.374
 5267SOL    HW116544   3.610   2.881   3.393
 5267SOL    HW216545   3.593   2.779   3.283
 5268SOL     OW16546   2.727   3.228   1.907
 5268SOL    HW116547   2.686   3.255   1.989
 5268SOL    HW216548   2.740   3.310   1.859
 5269SOL     OW16549   2.523   3.647   2.796
 5269SOL    HW116550   2.503   3.739   2.778
 5269SOL    HW216551   2.619   3.642   2.793
 5270SOL     OW16552   2.732   2.833   2.716
 5270SOL    HW116553   2.781   2.760   2.753
 5270SOL    HW216554   2.693   2.877   2.792
 5271SOL     OW16555   2.939   2.850   1.950
 5271SOL    HW116556   2.918   2.902   1.872
 5271SOL    HW216557   3.013   2.795   1.924
 5272SOL     OW16558   3.708   3.415   2.701
 5272SOL    HW116559   3.628   3.397   2.653
 5272SOL    HW216560   3.713   3.345   2.767
 5273SOL     OW16561   2.089   3.160   3.716
 5273SOL    HW116562   2.026   3.097   3.683
 5273SOL    HW216563   2.064   3.173   3.808
 5274SOL     OW16564   1.952   3.090   2.527
 5274SOL    HW116565   1.966   3.046   2.611
 5274SOL    HW216566   2.018   3.052   2.469
 5275SOL     OW16567   2.548   3.270   3.494
 5275SOL    HW116568   2.468   3.228   3.527
 5275SOL    HW216569   2.546   3.358   3.532
 5276SOL     OW16570   3.671   2.037   3.098
 5276SOL    HW116571   3.663   1.941   3.099
 5276SOL    HW216572   3.688   2.058   3.006
 5277SOL     OW16573   2.333   2.319   2.361
 5277SOL    HW116574   2.351   2.324   2.267
 5277SOL    HW216575   2.256   2.262   2.367
 5278SOL     OW16576   3.554   3.351   2.957
 5278SOL    HW116577   3.477   3.328   2.904
 5278SOL    HW216578   3.562   3.279   3.019
 5279SOL     OW16579   2.206   2.427   3.155
 5279SOL    HW116580   2.257   2.361   3.201
 5279SOL    HW216581   2.230   2.416   3.063
 5280SOL     OW16582   2.693   3.441   2.538
 5280SOL    HW116583   2.669   3.497   2.465
 5280SOL    HW216584   2.620   3.379   2.546
 5281SOL     OW16585   3.291   2.092   2.977
 5281SOL    HW116586   3.308   2.006   3.017
 5281SOL    HW216587   3.242   2.140   3.044
 5282SOL     OW16588   2.873   1.879   2.996
 5282SOL    HW116589   2.817   1.813   2.955
 5282SOL    HW216590   2.960   1.839   2.997
 5283SOL     OW16591   2.636   3.195   2.185
 5283SOL    HW116592   2.609   3.104   2.192
 5283SOL    HW216593   2.719   3.200   2.233
 5284SOL     OW16594   2.482   3.414   3.148
 5284SOL    HW116595   2.481   3.496   3.198
 5284SOL    HW216596   2.570   3.409   3.112
 5285SOL     OW16597   3.221   1.913   2.034
 5285SOL    HW116598   3.254   1.842   1.980
 5285SOL    HW216599   3.132   1.887   2.055
 5286SOL     OW16600   3.157   2.326   2.540
 5286SOL    HW116601   3.105   2.406   2.544
 5286SOL    HW216602   3.153   2.290   2.628
 5287SOL     OW16603   3.442   2.056   2.743
 5287SOL    HW116604   3.389   2.082   2.818
 5287SOL    HW216605   3.443   2.133   2.686
 5288SOL     OW16606   1.904   2.926   2.171
 5288SOL    HW116607   1.998   2.918   2.151
 5288SOL    HW216608   1.877   2.837   2.195
 5289SOL     OW16609   2.751   3.526   2.202
 5289SOL    HW116610   2.678   3.507   2.143
 5289SOL    HW216611   2.720   3.600   2.255
 5290SOL     OW16612   2.093   2.507   3.866
 5290SOL    HW116613   2.010   2.487   3.910
 5290SOL    HW216614   2.074   2.493   3.773
 5291SOL     OW16615   1.871   2.275   4.358
 5291SOL    HW116616   1.780   2.268   4.387
 5291SOL    HW216617   1.885   2.197   4.304
 5292SOL     OW16618   2.429   3.159   4.907
 5292SOL    HW116619   2.344   3.167   4.864
 5292SOL    HW216620   2.447   3.247   4.940
 5293SOL     OW16621   3.430   3.375   4.434
 5293SOL    HW116622   3.388   3.351   4.516
 5293SOL    HW216623   3.359   3.378   4.370
 5294SOL     OW16624   2.993   2.561   4.419
 5294SOL    HW116625   3.042   2.643   4.406
 5294SOL    HW216626   2.946   2.574   4.501
 5295SOL     OW16627   3.633   2.465   3.952
 5295SOL    HW116628   3.610   2.458   3.859
 5295SOL    HW216629   3.598   2.385   3.992
 5296SOL     OW16630   2.605   2.998   4.771
 5296SOL    HW116631   2.539   3.036   4.829
 5296SOL    HW216632   2.646   3.073   4.728
 5297SOL     OW16633   2.730   2.625   5.545
 5297SOL    HW116634   2.736   2.691   5.614
 5297SOL    HW216635   2.755   2.671   5.465
 5298SOL     OW16636   2.546   2.857   4.367
 5298SOL    HW116637   2.613   2.850   4.436
 5298SOL    HW216638   2.479   2.913   4.405
 5299SOL     OW16639   2.581   3.018   5.535
 5299SOL    HW116640   2.628   3.095   5.568
 5299SOL    HW216641   2.501   3.053   5.497
 5300SOL     OW16642   2.194   3.278   4.790
 5300SOL    HW116643   2.119   3.240   4.744
 5300SOL    HW216644   2.238   3.332   4.724
 5301SOL     OW16645   3.320   3.364   5.085
 5301SOL    HW116646   3.375   3.442   5.095
 5301SOL    HW216647   3.251   3.374   5.152
 5302SOL     OW16648   3.468   2.304   4.471
 5302SOL    HW116649   3.398   2.324   4.408
 5302SOL    HW216650   3.471   2.380   4.528
 5303SOL     OW16651   2.085   3.577   4.203
 5303SOL    HW116652   2.112   3.637   4.273
 5303SOL    HW216653   2.158   3.577   4.142
 5304SOL     OW16654   3.000   3.205   5.419
 5304SOL    HW116655   3.042   3.197   5.505
 5304SOL    HW216656   2.948   3.125   5.410
 5305SOL     OW16657   2.093   3.304   4.260
 5305SOL    HW116658   2.075   3.398   4.262
 5305SOL    HW216659   2.035   3.268   4.327
 5306SOL     OW16660   2.128   2.960   4.612
 5306SOL    HW116661   2.124   2.872   4.649
 5306SOL    HW216662   2.069   3.012   4.668
 5307SOL     OW16663   2.464   3.646   5.151
 5307SOL    HW116664   2.383   3.633   5.201
 5307SOL    HW216665   2.492   3.735   5.175
 5308SOL     OW16666   2.441   2.852   3.862
 5308SOL    HW116667   2.490   2.896   3.793
 5308SOL    HW216668   2.479   2.885   3.943
 5309SOL     OW16669   3.456   1.990   5.188
 5309SOL    HW116670   3.478   2.071   5.142
 5309SOL    HW216671   3.436   2.017   5.277
 5310SOL     OW16672   1.989   2.517   4.288
 5310SOL    HW116673   1.953   2.431   4.308
 5310SOL    HW216674   1.975   2.568   4.368
 5311SOL     OW16675   3.700   3.610   4.067
 5311SOL    HW116676   3.772   3.585   4.124
 5311SOL    HW216677   3.717   3.702   4.045
 5312SOL     OW16678   1.896   3.449   3.844
 5312SOL    HW116679   1.879   3.357   3.864
 5312SOL    HW216680   1.873   3.495   3.924
 5313SOL     OW16681   3.553   2.783   4.375
 5313SOL    HW116682   3.635   2.738   4.356
 5313SOL    HW216683   3.532   2.831   4.295
 5314SOL     OW16684   3.504   2.963   4.157
 5314SOL    HW116685   3.589   2.966   4.113
 5314SOL    HW216686   3.511   3.028   4.227
 5315SOL     OW16687   1.976   2.629   5.286
 5315SOL    HW116688   2.064   2.666   5.293
 5315SOL    HW216689   1.918   2.706   5.286
 5316SOL     OW16690   2.479   3.255   4.458
 5316SOL    HW116691   2.435   3.171   4.466
 5316SOL    HW216692   2.462   3.282   4.368
 5317SOL     OW16693   3.147   3.097   5.145
 5317SOL    HW116694   3.178   3.029   5.084
 5317SOL    HW216695   3.207   3.092   5.219
 5318SOL     OW16696   2.694   1.865   4.236
 5318SOL    HW116697   2.733   1.949   4.211
 5318SOL    HW216698   2.600   1.883   4.239
 5319SOL     OW16699   2.049   2.825   5.007
 5319SOL    HW116700   2.136   2.788   4.989
 5319SOL    HW216701   1.991   2.780   4.946
 5320SOL     OW16702   3.388   2.862   3.926
 5320SOL    HW116703   3.319   2.805   3.959
 5320SOL    HW216704   3.431   2.896   4.004
 5321SOL     OW16705   3.089   3.669   5.353
 5321SOL    HW116706   3.059   3.730   5.286
 5321SOL    HW216707   3.087   3.583   5.311
 5322SOL     OW16708   3.327   3.282   4.669
 5322SOL    HW116709   3.262   3.296   4.738
 5322SOL    HW216710   3.315   3.190   4.645
 5323SOL     OW16711   3.504   3.610   4.305
 5323SOL    HW116712   3.497   3.574   4.216
 5323SOL    HW216713   3.491   3.535   4.362
 5324SOL     OW16714   2.471   2.604   4.001
 5324SOL    HW116715   2.472   2.683   3.948
 5324SOL    HW216716   2.406   2.621   4.069
 5325SOL     OW16717   3.139   2.229   4.659
 5325SOL    HW116718   3.051   2.192   4.667
 5325SOL    HW216719   3.193   2.174   4.716
 5326SOL     OW16720   3.434   3.540   4.033
 5326SOL    HW116721   3.527   3.562   4.028
 5326SOL    HW216722   3.408   3.522   3.943
 5327SOL     OW16723   2.654   2.479   5.173
 5327SOL    HW116724   2.631   2.454   5.262
 5327SOL    HW216725   2.610   2.414   5.117
 5328SOL     OW16726   3.257   2.337   5.401
 5328SOL    HW116727   3.260   2.381   5.486
 5328SOL    HW216728   3.312   2.259   5.413
 5329SOL     OW16729   2.813   2.748   5.309
 5329SOL    HW116730   2.869   2.680   5.271
 5329SOL    HW216731   2.765   2.784   5.234
 5330SOL     OW16732   2.861   2.276   4.957
 5330SOL    HW116733   2.777   2.293   4.999
 5330SOL    HW216734   2.840   2.229   4.877
 5331SOL     OW16735   2.917   2.561   4.148
 5331SOL    HW116736   2.936   2.555   4.242
 5331SOL    HW216737   2.833   2.516   4.137
 5332SOL     OW16738   1.950   2.683   4.504
 5332SOL    HW116739   2.032   2.685   4.553
 5332SOL    HW216740   1.902   2.759   4.536
 5333SOL     OW16741   1.977   3.719   5.303
 5333SOL    HW116742   1.985   3.697   5.396
 5333SOL    HW216743   1.885   3.701   5.282
 5334SOL     OW16744   2.753   2.216   3.926
 5334SOL    HW116745   2.802   2.265   3.860
 5334SOL    HW216746   2.712   2.144   3.878
 5335SOL     OW16747   3.573   2.434   5.554
 5335SOL    HW116748   3.534   2.506   5.505
 5335SOL    HW216749   3.595   2.369   5.487
 5336SOL     OW16750   3.240   3.003   4.263
 5336SOL    HW116751   3.320   2.991   4.212
 5336SOL    HW216752   3.188   3.066   4.212
 5337SOL     OW16753   2.448   2.061   4.630
 5337SOL    HW116754   2.355   2.071   4.651
 5337SOL    HW216755   2.472   2.145   4.591
 5338SOL     OW16756   2.861   3.307   4.192
 5338SOL    HW116757   2.829   3.383   4.143
 5338SOL    HW216758   2.838   3.326   4.283
 5339SOL     OW16759   2.213   3.676   4.560
 5339SOL    HW116760   2.263   3.597   4.579
 5339SOL    HW216761   2.271   3.748   4.585
 5340SOL     OW16762   3.670   2.923   4.594
 5340SOL    HW116763   3.618   2.893   4.519
 5340SOL    HW216764   3.607   2.926   4.666
 5341SOL     OW16765   3.088   3.401   5.236
 5341SOL    HW116766   3.077   3.329   5.298
 5341SOL    HW216767   3.018   3.388   5.172
 5342SOL     OW16768   2.176   2.818   3.980
 5342SOL    HW116769   2.256   2.839   3.932
 5342SOL    HW216770   2.147   2.735   3.942
 5343SOL     OW16771   3.343   2.614   4.446
 5343SOL    HW116772   3.340   2.572   4.532
 5343SOL    HW216773   3.422   2.668   4.449
 5344SOL     OW16774   2.332   3.130   5.461
 5344SOL    HW116775   2.306   3.135   5.369
 5344SOL    HW216776   2.250   3.127   5.510
 5345SOL     OW16777   2.978   3.645   3.943
 5345SOL    HW116778   2.911   3.601   3.995
 5345SOL    HW216779   3.008   3.577   3.882
 5346SOL     OW16780   3.485   3.250   3.814
 5346SOL    HW116781   3.441   3.333   3.796
 5346SOL    HW216782   3.419   3.184   3.792
 5347SOL     OW16783   2.326   3.601   4.049
 5347SOL    HW116784   2.366   3.663   4.110
 5347SOL    HW216785   2.399   3.573   3.992
 5348SOL     OW16786   3.262   1.969   4.166
 5348SOL    HW116787   3.257   1.943   4.074
 5348SOL    HW216788   3.356   1.975   4.183
 5349SOL     OW16789   2.123   3.651   4.941
 5349SOL    HW116790   2.169   3.579   4.983
 5349SOL    HW216791   2.104   3.621   4.853
 5350SOL     OW16792   2.801   3.566   4.621
 5350SOL    HW116793   2.879   3.515   4.644
 5350SOL    HW216794   2.759   3.515   4.552
 5351SOL     OW16795   2.257   2.545   4.198
 5351SOL    HW116796   2.265   2.460   4.153
 5351SOL    HW216797   2.166   2.548   4.226
 5352SOL     OW16798   3.389   2.086   5.448
 5352SOL    HW116799   3.401   2.106   5.541
 5352SOL    HW216800   3.320   2.020   5.446
 5353SOL     OW16801   2.545   1.985   3.821
 5353SOL    HW116802   2.584   1.905   3.857
 5353SOL    HW216803   2.473   1.954   3.766
 5354SOL     OW16804   2.626   2.144   5.477
 5354SOL    HW116805   2.706   2.093   5.472
 5354SOL    HW216806   2.581   2.110   5.555
 5355SOL     OW16807   2.737   3.383   4.920
 5355SOL    HW116808   2.720   3.346   4.833
 5355SOL    HW216809   2.807   3.328   4.955
 5356SOL     OW16810   3.202   2.452   5.158
 5356SOL    HW116811   3.233   2.421   5.243
 5356SOL    HW216812   3.239   2.540   5.150
 5357SOL     OW16813   2.681   3.250   4.671
 5357SOL    HW116814   2.765   3.239   4.628
 5357SOL    HW216815   2.618   3.257   4.599
 5358SOL     OW16816   2.789   2.369   4.623
 5358SOL    HW116817   2.765   2.360   4.531
 5358SOL    HW216818   2.823   2.282   4.647
 5359SOL     OW16819   2.427   1.918   4.232
 5359SOL    HW116820   2.372   1.896   4.307
 5359SOL    HW216821   2.405   2.010   4.213
 5360SOL     OW16822   3.289   3.064   3.762
 5360SOL    HW116823   3.320   2.989   3.814
 5360SOL    HW216824   3.204   3.085   3.800
 5361SOL     OW16825   2.807   2.113   4.179
 5361SOL    HW116826   2.784   2.148   4.093
 5361SOL    HW216827   2.902   2.127   4.186
 5362SOL     OW16828   2.945   2.548   5.180
 5362SOL    HW116829   2.881   2.478   5.192
 5362SOL    HW216830   3.029   2.504   5.176
 5363SOL     OW16831   3.079   3.435   4.519
 5363SOL    HW116832   3.094   3.501   4.451
 5363SOL    HW216833   3.151   3.447   4.581
 5364SOL     OW16834   2.336   3.017   4.448
 5364SOL    HW116835   2.269   2.999   4.514
 5364SOL    HW216836   2.291   3.004   4.365
 5365SOL     OW16837   3.124   3.653   4.335
 5365SOL    HW116838   3.173   3.718   4.284
 5365SOL    HW216839   3.049   3.701   4.370
 5366SOL     OW16840   2.888   2.394   3.749
 5366SOL    HW116841   2.843   2.477   3.731
 5366SOL    HW216842   2.950   2.415   3.818
 5367SOL     OW16843   1.941   2.428   5.104
 5367SOL    HW116844   2.035   2.417   5.090
 5367SOL    HW216845   1.935   2.499   5.168
 5368SOL     OW16846   2.725   2.318   4.360
 5368SOL    HW116847   2.691   2.376   4.292
 5368SOL    HW216848   2.753   2.239   4.313
 5369SOL     OW16849   2.876   1.916   4.471
 5369SOL    HW116850   2.820   1.907   4.394
 5369SOL    HW216851   2.854   1.842   4.527
 5370SOL     OW16852   3.303   3.022   4.581
 5370SOL    HW116853   3.232   2.958   4.581
 5370SOL    HW216854   3.329   3.029   4.489
 5371SOL     OW16855   3.327   2.473   4.691
 5371SOL    HW116856   3.271   2.396   4.694
 5371SOL    HW216857   3.384   2.465   4.767
 5372SOL     OW16858   3.724   2.676   4.099
 5372SOL    HW116859   3.767   2.620   4.164
 5372SOL    HW216860   3.687   2.614   4.035
 5373SOL     OW16861   2.352   3.282   3.875
 5373SOL    HW116862   2.276   3.255   3.926
 5373SOL    HW216863   2.344   3.233   3.793
 5374SOL     OW16864   3.532   3.128   4.364
 5374SOL    HW116865   3.627   3.129   4.375
 5374SOL    HW216866   3.504   3.217   4.386
 5375SOL     OW16867   3.256   2.434   3.795
 5375SOL    HW116868   3.193   2.413   3.865
 5375SOL    HW216869   3.340   2.403   3.829
 5376SOL     OW16870   3.611   3.094   5.282
 5376SOL    HW116871   3.698   3.060   5.265
 5376SOL    HW216872   3.626   3.184   5.311
 5377SOL     OW16873   2.916   3.213   5.055
 5377SOL    HW116874   2.841   3.182   5.105
 5377SOL    HW216875   2.992   3.173   5.097
 5378SOL     OW16876   3.469   3.493   5.383
 5378SOL    HW116877   3.459   3.527   5.295
 5378SOL    HW216878   3.548   3.439   5.379
 5379SOL     OW16879   2.997   3.073   4.825
 5379SOL    HW116880   2.938   3.111   4.890
 5379SOL    HW216881   2.968   3.108   4.741
 5380SOL     OW16882   3.487   2.955   4.797
 5380SOL    HW116883   3.476   3.017   4.869
 5380SOL    HW216884   3.412   2.972   4.740
 5381SOL     OW16885   2.792   1.950   5.115
 5381SOL    HW116886   2.813   1.933   5.023
 5381SOL    HW216887   2.871   1.990   5.151
 5382SOL     OW16888   2.847   2.979   5.444
 5382SOL    HW116889   2.756   2.994   5.469
 5382SOL    HW216890   2.843   2.899   5.391
 5383SOL     OW16891   2.572   2.924   4.095
 5383SOL    HW116892   2.557   2.904   4.187
 5383SOL    HW216893   2.647   2.871   4.070
 5384SOL     OW16894   2.284   2.685   4.979
 5384SOL    HW116895   2.354   2.696   5.044
 5384SOL    HW216896   2.249   2.598   4.996
 5385SOL     OW16897   3.129   2.238   5.005
 5385SOL    HW116898   3.161   2.316   5.051
 5385SOL    HW216899   3.039   2.259   4.982
 5386SOL     OW16900   1.937   3.435   5.080
 5386SOL    HW116901   1.910   3.510   5.027
 5386SOL    HW216902   2.033   3.435   5.074
 5387SOL     OW16903   2.199   2.980   4.212
 5387SOL    HW116904   2.201   3.055   4.151
 5387SOL    HW216905   2.196   2.904   4.155
 5388SOL     OW16906   2.433   2.382   4.565
 5388SOL    HW116907   2.442   2.447   4.496
 5388SOL    HW216908   2.497   2.409   4.631
 5389SOL     OW16909   3.108   3.212   4.114
 5389SOL    HW116910   3.164   3.283   4.147
 5389SOL    HW216911   3.021   3.233   4.148
 5390SOL     OW16912   3.152   3.323   4.873
 5390SOL    HW116913   3.208   3.329   4.951
 5390SOL    HW216914   3.097   3.246   4.888
 5391SOL     OW16915   3.436   2.479   4.210
 5391SOL    HW116916   3.388   2.529   4.276
 5391SOL    HW216917   3.477   2.545   4.155
 5392SOL     OW16918   2.207   3.393   5.032
 5392SOL    HW116919   2.197   3.347   4.949
 5392SOL    HW216920   2.302   3.404   5.042
 5393SOL     OW16921   2.291   2.605   5.337
 5393SOL    HW116922   2.347   2.648   5.273
 5393SOL    HW216923   2.345   2.534   5.372
 5394SOL     OW16924   3.471   2.642   5.411
 5394SOL    HW116925   3.385   2.684   5.406
 5394SOL    HW216926   3.523   2.685   5.343
 5395SOL     OW16927   2.858   1.996   5.468
 5395SOL    HW116928   2.918   2.069   5.453
 5395SOL    HW216929   2.909   1.918   5.447
 5396SOL     OW16930   2.357   1.887   5.500
 5396SOL    HW116931   2.307   1.839   5.434
 5396SOL    HW216932   2.294   1.948   5.538
 5397SOL     OW16933   2.449   2.735   4.758
 5397SOL    HW116934   2.485   2.824   4.760
 5397SOL    HW216935   2.392   2.731   4.835
 5398SOL     OW16936   3.209   2.721   4.744
 5398SOL    HW116937   3.123   2.705   4.704
 5398SOL    HW216938   3.256   2.638   4.735
 5399SOL     OW16939   3.061   2.389   3.985
 5399SOL    HW116940   3.069   2.310   4.039
 5399SOL    HW216941   3.019   2.453   4.042
 5400SOL     OW16942   1.907   3.174   4.998
 5400SOL    HW116943   1.940   3.119   5.069
 5400SOL    HW216944   1.913   3.263   5.032
 5401SOL     OW16945   2.580   2.484   4.775
 5401SOL    HW116946   2.662   2.475   4.726
 5401SOL    HW216947   2.554   2.575   4.761
 5402SOL     OW16948   3.591   2.822   5.592
 5402SOL    HW116949   3.554   2.753   5.537
 5402SOL    HW216950   3.526   2.837   5.660
 5403SOL     OW16951   3.485   2.242   4.083
 5403SOL    HW116952   3.510   2.175   4.147
 5403SOL    HW216953   3.460   2.318   4.137
 5404SOL     OW16954   2.889   2.619   4.681
 5404SOL    HW116955   2.881   2.635   4.775
 5404SOL    HW216956   2.865   2.527   4.671
 5405SOL     OW16957   2.848   3.431   5.448
 5405SOL    HW116958   2.827   3.470   5.363
 5405SOL    HW216959   2.889   3.347   5.426
 5406SOL     OW16960   3.702   3.355   5.320
 5406SOL    HW116961   3.728   3.387   5.234
 5406SOL    HW216962   3.782   3.362   5.373
 5407SOL     OW16963   2.214   2.779   5.537
 5407SOL    HW116964   2.297   2.808   5.575
 5407SOL    HW216965   2.240   2.716   5.470
 5408SOL     OW16966   3.389   2.134   3.850
 5408SOL    HW116967   3.326   2.068   3.878
 5408SOL    HW216968   3.423   2.171   3.931
 5409SOL     OW16969   3.148   2.686   3.752
 5409SOL    HW116970   3.191   2.600   3.757
 5409SOL    HW216971   3.181   2.724   3.671
 5410SOL     OW16972   2.931   3.201   4.581
 5410SOL    HW116973   2.936   3.129   4.518
 5410SOL    HW216974   2.988   3.269   4.545
 5411SOL     OW16975   2.173   2.689   4.668
 5411SOL    HW116976   2.265   2.715   4.664
 5411SOL    HW216977   2.176   2.596   4.692
 5412SOL     OW16978   2.216   2.425   4.716
 5412SOL    HW116979   2.175   2.341   4.693
 5412SOL    HW216980   2.297   2.426   4.665
 5413SOL     OW16981   2.998   2.236   5.406
 5413SOL    HW116982   2.950   2.288   5.470
 5413SOL    HW216983   3.085   2.276   5.403
 5414SOL     OW16984   3.028   2.060   5.195
 5414SOL    HW116985   3.014   2.122   5.267
 5414SOL    HW216986   3.071   2.112   5.127
 5415SOL     OW16987   1.869   3.177   3.918
 5415SOL    HW116988   1.781   3.193   3.883
 5415SOL    HW216989   1.864   3.088   3.953
 5416SOL     OW16990   1.962   3.634   4.664
 5416SOL    HW116991   1.929   3.557   4.617
 5416SOL    HW216992   2.044   3.655   4.621
 5417SOL     OW16993   2.352   3.439   4.628
 5417SOL    HW116994   2.420   3.502   4.652
 5417SOL    HW216995   2.397   3.376   4.570
 5418SOL     OW16996   2.833   2.647   4.947
 5418SOL    HW116997   2.897   2.629   5.016
 5418SOL    HW216998   2.751   2.613   4.981
 5419SOL     OW16999   1.895   2.404   4.837
 5419SOL    HW117000   1.970   2.439   4.788
 5419SOL    HW217001   1.918   2.416   4.929
 5420SOL     OW17002   2.020   2.442   5.476
 5420SOL    HW117003   2.094   2.407   5.425
 5420SOL    HW217004   1.981   2.509   5.420
 5421SOL     OW17005   3.244   2.795   5.381
 5421SOL    HW117006   3.265   2.888   5.377
 5421SOL    HW217007   3.239   2.768   5.289
 5422SOL     OW17008   2.679   2.433   4.098
 5422SOL    HW117009   2.686   2.361   4.036
 5422SOL    HW217010   2.609   2.488   4.063
 5423SOL     OW17011   3.500   2.464   4.903
 5423SOL    HW117012   3.488   2.403   4.977
 5423SOL    HW217013   3.587   2.443   4.869
 5424SOL     OW17014   2.101   3.409   5.445
 5424SOL    HW117015   2.079   3.476   5.509
 5424SOL    HW217016   2.108   3.328   5.496
 5425SOL     OW17017   2.543   2.318   4.987
 5425SOL    HW117018   2.523   2.231   4.954
 5425SOL    HW217019   2.548   2.373   4.908
 5426SOL     OW17020   2.785   3.532   5.196
 5426SOL    HW117021   2.759   3.491   5.113
 5426SOL    HW217022   2.777   3.626   5.180
 5427SOL     OW17023   2.335   2.380   3.946
 5427SOL    HW117024   2.397   2.453   3.951
 5427SOL    HW217025   2.256   2.418   3.909
 5428SOL     OW17026   2.003   3.008   5.200
 5428SOL    HW117027   2.004   2.961   5.283
 5428SOL    HW217028   2.020   2.940   5.134
 5429SOL     OW17029   3.180   2.904   4.943
 5429SOL    HW117030   3.202   2.841   4.874
 5429SOL    HW217031   3.115   2.962   4.903
 5430SOL     OW17032   3.176   2.718   4.028
 5430SOL    HW117033   3.102   2.685   4.079
 5430SOL    HW217034   3.150   2.703   3.937
 5431SOL     OW17035   3.644   3.597   4.884
 5431SOL    HW117036   3.701   3.624   4.812
 5431SOL    HW217037   3.613   3.510   4.859
 5432SOL     OW17038   3.107   3.594   4.829
 5432SOL    HW117039   3.190   3.617   4.788
 5432SOL    HW217040   3.115   3.501   4.850
 5433SOL     OW17041   1.949   3.126   4.735
 5433SOL    HW117042   1.931   3.142   4.828
 5433SOL    HW217043   1.875   3.073   4.705
 5434SOL     OW17044   2.543   3.530   5.464
 5434SOL    HW117045   2.484   3.605   5.467
 5434SOL    HW217046   2.605   3.551   5.394
 5435SOL     OW17047   3.568   2.017   4.233
 5435SOL    HW117048   3.636   2.005   4.167
 5435SOL    HW217049   3.558   1.931   4.273
 5436SOL     OW17050   3.253   3.430   4.215
 5436SOL    HW117051   3.310   3.465   4.147
 5436SOL    HW217052   3.203   3.506   4.246
 5437SOL     OW17053   2.002   3.650   5.562
 5437SOL    HW117054   1.950   3.586   5.611
 5437SOL    HW217055   2.048   3.700   5.629
 5438SOL     OW17056   3.139   2.790   4.395
 5438SOL    HW117057   3.213   2.731   4.406
 5438SOL    HW217058   3.173   2.861   4.341
 5439SOL     OW17059   2.666   3.139   5.148
 5439SOL    HW117060   2.639   3.180   5.230
 5439SOL    HW217061   2.595   3.159   5.086
 5440SOL     OW17062   2.535   3.482   3.884
 5440SOL    HW117063   2.546   3.501   3.791
 5440SOL    HW217064   2.476   3.407   3.886
 5441SOL     OW17065   3.478   3.590   5.115
 5441SOL    HW117066   3.535   3.591   5.038
 5441SOL    HW217067   3.464   3.682   5.137
 5442SOL     OW17068   3.701   2.043   4.689
 5442SOL    HW117069   3.732   1.955   4.666
 5442SOL    HW217070   3.615   2.049   4.649
 5443SOL     OW17071   3.069   3.462   3.761
 5443SOL    HW117072   3.059   3.370   3.786
 5443SOL    HW217073   3.008   3.475   3.689
 5444SOL     OW17074   2.686   2.869   5.098
 5444SOL    HW117075   2.731   2.864   5.013
 5444SOL    HW217076   2.682   2.963   5.117
 5445SOL     OW17077   2.780   2.774   4.016
 5445SOL    HW117078   2.839   2.806   3.948
 5445SOL    HW217079   2.829   2.706   4.061
 5446SOL     OW17080   3.347   3.500   3.768
 5446SOL    HW117081   3.254   3.484   3.751
 5446SOL    HW217082   3.387   3.503   3.681
 5447SOL     OW17083   2.230   3.167   5.215
 5447SOL    HW117084   2.217   3.244   5.160
 5447SOL    HW217085   2.152   3.114   5.201
 5448SOL     OW17086   3.459   3.142   4.999
 5448SOL    HW117087   3.527   3.130   5.066
 5448SOL    HW217088   3.403   3.210   5.035
 5449SOL     OW17089   2.924   2.973   4.436
 5449SOL    HW117090   2.851   2.922   4.472
 5449SOL    HW217091   2.988   2.907   4.409
 5450SOL     OW17092   2.885   2.104   4.688
 5450SOL    HW117093   2.881   2.057   4.605
 5450SOL    HW217094   2.882   2.035   4.755
 5451SOL     OW17095   2.468   3.353   4.203
 5451SOL    HW117096   2.517   3.302   4.138
 5451SOL    HW217097   2.397   3.393   4.153
 5452SOL     OW17098   3.589   2.249   5.102
 5452SOL    HW117099   3.661   2.312   5.098
 5452SOL    HW217100   3.617   2.178   5.044
 5453SOL     OW17101   2.124   3.203   4.016
 5453SOL    HW117102   2.031   3.199   3.992
 5453SOL    HW217103   2.125   3.244   4.103
 5454SOL     OW17104   1.977   2.895   5.449
 5454SOL    HW117105   1.900   2.868   5.499
 5454SOL    HW217106   2.050   2.852   5.493
 5455SOL     OW17107   2.552   2.040   5.218
 5455SOL    HW117108   2.640   2.017   5.186
 5455SOL    HW217109   2.568   2.083   5.302
 5456SOL     OW17110   1.880   2.254   3.768
 5456SOL    HW117111   1.820   2.221   3.701
 5456SOL    HW217112   1.929   2.324   3.723
 5457SOL     OW17113   3.285   2.720   5.121
 5457SOL    HW117114   3.235   2.781   5.067
 5457SOL    HW217115   3.373   2.722   5.083
 5458SOL     OW17116   3.039   3.195   3.842
 5458SOL    HW117117   2.948   3.166   3.843
 5458SOL    HW217118   3.065   3.196   3.934
 5459SOL     OW17119   2.485   2.693   5.159
 5459SOL    HW117120   2.542   2.769   5.145
 5459SOL    HW217121   2.545   2.619   5.168
 5460SOL     OW17122   3.349   3.646   4.708
 5460SOL    HW117123   3.372   3.705   4.636
 5460SOL    HW217124   3.432   3.609   4.736
 5461SOL     OW17125   2.569   2.423   5.424
 5461SOL    HW117126   2.618   2.480   5.483
 5461SOL    HW217127   2.588   2.335   5.455
 5462SOL     OW17128   3.335   3.056   5.352
 5462SOL    HW117129   3.326   3.071   5.446
 5462SOL    HW217130   3.428   3.072   5.334
 5463SOL     OW17131   2.232   3.606   5.293
 5463SOL    HW117132   2.148   3.650   5.275
 5463SOL    HW217133   2.207   3.522   5.332
 5464SOL     OW17134   3.524   2.741   4.983
 5464SOL    HW117135   3.523   2.656   4.939
 5464SOL    HW217136   3.517   2.804   4.911
 5465SOL     OW17137   3.079   2.182   4.181
 5465SOL    HW117138   3.140   2.108   4.175
 5465SOL    HW217139   3.109   2.232   4.257
 5466SOL     OW17140   2.446   2.594   4.394
 5466SOL    HW117141   2.485   2.680   4.379
 5466SOL    HW217142   2.381   2.585   4.324
 5467SOL     OW17143   3.616   2.228   5.374
 5467SOL    HW117144   3.601   2.242   5.281
 5467SOL    HW217145   3.545   2.170   5.402
 5468SOL     OW17146   3.621   2.788   5.236
 5468SOL    HW117147   3.609   2.881   5.255
 5468SOL    HW217148   3.594   2.779   5.144
 5469SOL     OW17149   2.727   3.228   3.769
 5469SOL    HW117150   2.686   3.255   3.851
 5469SOL    HW217151   2.740   3.310   3.721
 5470SOL     OW17152   2.523   3.647   4.658
 5470SOL    HW117153   2.503   3.739   4.640
 5470SOL    HW217154   2.619   3.642   4.655
 5471SOL     OW17155   2.731   2.833   4.577
 5471SOL    HW117156   2.781   2.760   4.615
 5471SOL    HW217157   2.693   2.877   4.653
 5472SOL     OW17158   2.938   2.850   3.812
 5472SOL    HW117159   2.918   2.902   3.734
 5472SOL    HW217160   3.013   2.795   3.786
 5473SOL     OW17161   3.708   3.415   4.563
 5473SOL    HW117162   3.628   3.397   4.515
 5473SOL    HW217163   3.713   3.345   4.629
 5474SOL     OW17164   2.088   3.160   5.578
 5474SOL    HW117165   2.025   3.097   5.543
 5474SOL    HW217166   2.061   3.174   5.668
 5475SOL     OW17167   1.952   3.090   4.389
 5475SOL    HW117168   1.966   3.046   4.474
 5475SOL    HW217169   2.018   3.052   4.331
 5476SOL     OW17170   2.547   3.271   5.354
 5476SOL    HW117171   2.467   3.230   5.387
 5476SOL    HW217172   2.546   3.359   5.393
 5477SOL     OW17173   3.673   2.037   4.960
 5477SOL    HW117174   3.663   1.942   4.961
 5477SOL    HW217175   3.689   2.058   4.868
 5478SOL     OW17176   3.554   3.351   4.819
 5478SOL    HW117177   3.477   3.328   4.766
 5478SOL    HW217178   3.562   3.279   4.881
 5479SOL     OW17179   2.203   2.424   5.012
 5479SOL    HW117180   2.246   2.352   5.059
 5479SOL    HW217181   2.230   2.413   4.921
 5480SOL     OW17182   2.693   3.441   4.400
 5480SOL    HW117183   2.669   3.497   4.327
 5480SOL    HW217184   2.620   3.379   4.408
 5481SOL     OW17185   3.291   2.092   4.839
 5481SOL    HW117186   3.307   2.006   4.879
 5481SOL    HW217187   3.242   2.141   4.906
 5482SOL     OW17188   2.873   1.880   4.857
 5482SOL    HW117189   2.817   1.814   4.818
 5482SOL    HW217190   2.960   1.839   4.859
 5483SOL     OW17191   2.636   3.195   4.047
 5483SOL    HW117192   2.609   3.103   4.054
 5483SOL    HW217193   2.719   3.200   4.095
 5484SOL     OW17194   2.482   3.414   5.010
 5484SOL    HW117195   2.481   3.496   5.060
 5484SOL    HW217196   2.570   3.409   4.974
 5485SOL     OW17197   3.221   1.913   3.896
 5485SOL    HW117198   3.254   1.842   3.841
 5485SOL    HW217199   3.132   1.887   3.918
 5486SOL     OW17200   3.157   2.326   4.402
 5486SOL    HW117201   3.105   2.406   4.406
 5486SOL    HW217202   3.153   2.290   4.490
 5487SOL     OW17203   3.442   2.056   4.605
 5487SOL    HW117204   3.389   2.082   4.680
 5487SOL    HW217205   3.443   2.133   4.548
 5488SOL     OW17206   1.904   2.926   4.033
 5488SOL    HW117207   1.998   2.918   4.014
 5488SOL    HW217208   1.877   2.837   4.057
 5489SOL     OW17209   2.751   3.526   4.064
 5489SOL    HW117210   2.678   3.508   4.005
 5489SOL    HW217211   2.720   3.600   4.117
 5490SOL     OW17212   2.083   2.510   5.735
 5490SOL    HW117213   1.998   2.482   5.771
 5490SOL    HW217214   2.074   2.497   5.640
 5491SOL     OW17215   1.841   2.235   6.236
 5491SOL    HW117216   1.779   2.305   6.214
 5491SOL    HW217217   1.882   2.213   6.153
 5492SOL     OW17218   2.426   3.162   6.769
 5492SOL    HW117219   2.342   3.172   6.725
 5492SOL    HW217220   2.446   3.250   6.804
 5493SOL     OW17221   3.430   3.375   6.296
 5493SOL    HW117222   3.388   3.351   6.378
 5493SOL    HW217223   3.359   3.378   6.232
 5494SOL     OW17224   2.983   2.557   6.291
 5494SOL    HW117225   3.033   2.635   6.266
 5494SOL    HW217226   2.945   2.578   6.376
 5495SOL     OW17227   3.630   2.465   5.815
 5495SOL    HW117228   3.610   2.458   5.722
 5495SOL    HW217229   3.597   2.384   5.853
 5496SOL     OW17230   2.608   3.008   6.640
 5496SOL    HW117231   2.542   3.052   6.693
 5496SOL    HW217232   2.650   3.080   6.591
 5497SOL     OW17233   2.754   2.650   7.421
 5497SOL    HW117234   2.712   2.722   7.469
 5497SOL    HW217235   2.767   2.684   7.333
 5498SOL     OW17236   2.557   2.895   6.226
 5498SOL    HW117237   2.617   2.866   6.295
 5498SOL    HW217238   2.484   2.935   6.273
 5499SOL     OW17239   2.587   3.019   7.397
 5499SOL    HW117240   2.630   3.099   7.427
 5499SOL    HW217241   2.502   3.049   7.363
 5500SOL     OW17242   2.194   3.281   6.648
 5500SOL    HW117243   2.118   3.255   6.596
 5500SOL    HW217244   2.246   3.337   6.589
 5501SOL     OW17245   3.319   3.364   6.947
 5501SOL    HW117246   3.375   3.442   6.957
 5501SOL    HW217247   3.252   3.374   7.014
 5502SOL     OW17248   3.469   2.304   6.333
 5502SOL    HW117249   3.403   2.325   6.268
 5502SOL    HW217250   3.478   2.383   6.387
 5503SOL     OW17251   2.085   3.579   6.065
 5503SOL    HW117252   2.112   3.641   6.133
 5503SOL    HW217253   2.158   3.578   6.003
 5504SOL     OW17254   2.998   3.203   7.281
 5504SOL    HW117255   3.040   3.196   7.367
 5504SOL    HW217256   2.948   3.122   7.272
 5505SOL     OW17257   2.092   3.308   6.121
 5505SOL    HW117258   2.075   3.402   6.122
 5505SOL    HW217259   2.033   3.272   6.187
 5506SOL     OW17260   2.106   2.974   6.493
 5506SOL    HW117261   2.129   2.918   6.566
 5506SOL    HW217262   2.036   3.030   6.528
 5507SOL     OW17263   2.463   3.647   7.012
 5507SOL    HW117264   2.383   3.633   7.062
 5507SOL    HW217265   2.492   3.735   7.036
 5508SOL     OW17266   2.438   2.867   5.713
 5508SOL    HW117267   2.493   2.910   5.647
 5508SOL    HW217268   2.476   2.894   5.796
 5509SOL     OW17269   3.455   1.991   7.050
 5509SOL    HW117270   3.480   2.072   7.006
 5509SOL    HW217271   3.436   2.017   7.140
 5510SOL     OW17272   3.699   3.610   5.929
 5510SOL    HW117273   3.772   3.585   5.986
 5510SOL    HW217274   3.717   3.702   5.907
 5511SOL     OW17275   1.896   3.450   5.705
 5511SOL    HW117276   1.880   3.358   5.725
 5511SOL    HW217277   1.873   3.497   5.786
 5512SOL     OW17278   3.552   2.782   6.237
 5512SOL    HW117279   3.634   2.737   6.218
 5512SOL    HW217280   3.531   2.830   6.157
 5513SOL     OW17281   3.504   2.962   6.019
 5513SOL    HW117282   3.589   2.965   5.975
 5513SOL    HW217283   3.510   3.027   6.089
 5514SOL     OW17284   1.983   2.621   7.102
 5514SOL    HW117285   2.063   2.663   7.135
 5514SOL    HW217286   1.918   2.691   7.101
 5515SOL     OW17287   2.478   3.255   6.321
 5515SOL    HW117288   2.433   3.171   6.330
 5515SOL    HW217289   2.462   3.281   6.230
 5516SOL     OW17290   3.146   3.097   7.007
 5516SOL    HW117291   3.177   3.030   6.947
 5516SOL    HW217292   3.207   3.092   7.081
 5517SOL     OW17293   2.057   2.841   6.858
 5517SOL    HW117294   2.143   2.800   6.855
 5517SOL    HW217295   2.000   2.781   6.810
 5518SOL     OW17296   3.387   2.862   5.788
 5518SOL    HW117297   3.318   2.804   5.821
 5518SOL    HW217298   3.430   2.895   5.867
 5519SOL     OW17299   3.087   3.669   7.216
 5519SOL    HW117300   3.059   3.730   7.148
 5519SOL    HW217301   3.086   3.583   7.173
 5520SOL     OW17302   3.327   3.282   6.531
 5520SOL    HW117303   3.262   3.297   6.600
 5520SOL    HW217304   3.316   3.190   6.507
 5521SOL     OW17305   3.504   3.610   6.166
 5521SOL    HW117306   3.497   3.574   6.078
 5521SOL    HW217307   3.491   3.535   6.224
 5522SOL     OW17308   2.424   2.626   5.859
 5522SOL    HW117309   2.475   2.680   5.799
 5522SOL    HW217310   2.341   2.673   5.868
 5523SOL     OW17311   3.139   2.224   6.521
 5523SOL    HW117312   3.052   2.186   6.533
 5523SOL    HW217313   3.195   2.175   6.580
 5524SOL     OW17314   3.433   3.540   5.895
 5524SOL    HW117315   3.527   3.561   5.890
 5524SOL    HW217316   3.408   3.522   5.805
 5525SOL     OW17317   3.269   2.340   7.260
 5525SOL    HW117318   3.266   2.383   7.345
 5525SOL    HW217319   3.320   2.261   7.275
 5526SOL     OW17320   2.811   2.743   7.165
 5526SOL    HW117321   2.862   2.671   7.130
 5526SOL    HW217322   2.772   2.784   7.088
 5527SOL     OW17323   2.857   2.265   6.805
 5527SOL    HW117324   2.779   2.304   6.845
 5527SOL    HW217325   2.830   2.175   6.786
 5528SOL     OW17326   2.925   2.567   6.003
 5528SOL    HW117327   2.923   2.550   6.097
 5528SOL    HW217328   2.844   2.526   5.970
 5529SOL     OW17329   1.977   3.716   7.164
 5529SOL    HW117330   1.984   3.695   7.257
 5529SOL    HW217331   1.884   3.705   7.144
 5530SOL     OW17332   2.754   2.208   5.795
 5530SOL    HW117333   2.800   2.256   5.726
 5530SOL    HW217334   2.731   2.124   5.755
 5531SOL     OW17335   3.572   2.433   7.416
 5531SOL    HW117336   3.534   2.506   7.367
 5531SOL    HW217337   3.595   2.369   7.349
 5532SOL     OW17338   3.239   3.001   6.127
 5532SOL    HW117339   3.318   2.988   6.076
 5532SOL    HW217340   3.187   3.063   6.076
 5533SOL     OW17341   2.863   3.308   6.054
 5533SOL    HW117342   2.829   3.383   6.005
 5533SOL    HW217343   2.838   3.326   6.145
 5534SOL     OW17344   2.213   3.676   6.424
 5534SOL    HW117345   2.265   3.598   6.443
 5534SOL    HW217346   2.270   3.749   6.448
 5535SOL     OW17347   3.670   2.923   6.456
 5535SOL    HW117348   3.618   2.893   6.381
 5535SOL    HW217349   3.607   2.926   6.528
 5536SOL     OW17350   3.087   3.400   7.099
 5536SOL    HW117351   3.076   3.328   7.160
 5536SOL    HW217352   3.019   3.387   7.033
 5537SOL     OW17353   2.184   2.809   5.833
 5537SOL    HW117354   2.256   2.846   5.782
 5537SOL    HW217355   2.146   2.742   5.777
 5538SOL     OW17356   3.343   2.613   6.310
 5538SOL    HW117357   3.342   2.573   6.397
 5538SOL    HW217358   3.421   2.669   6.310
 5539SOL     OW17359   2.332   3.132   7.326
 5539SOL    HW117360   2.307   3.139   7.234
 5539SOL    HW217361   2.249   3.129   7.373
 5540SOL     OW17362   2.977   3.645   5.805
 5540SOL    HW117363   2.911   3.601   5.858
 5540SOL    HW217364   3.008   3.577   5.744
 5541SOL     OW17365   3.485   3.250   5.676
 5541SOL    HW117366   3.441   3.333   5.658
 5541SOL    HW217367   3.419   3.184   5.655
 5542SOL     OW17368   2.326   3.601   5.911
 5542SOL    HW117369   2.366   3.663   5.971
 5542SOL    HW217370   2.398   3.573   5.854
 5543SOL     OW17371   3.269   1.966   6.026
 5543SOL    HW117372   3.261   1.945   5.933
 5543SOL    HW217373   3.363   1.976   6.040
 5544SOL     OW17374   2.123   3.652   6.803
 5544SOL    HW117375   2.170   3.579   6.844
 5544SOL    HW217376   2.104   3.622   6.714
 5545SOL     OW17377   2.802   3.565   6.483
 5545SOL    HW117378   2.880   3.515   6.505
 5545SOL    HW217379   2.759   3.515   6.414
 5546SOL     OW17380   3.389   2.086   7.310
 5546SOL    HW117381   3.401   2.105   7.403
 5546SOL    HW217382   3.315   2.025   7.307
 5547SOL     OW17383   2.538   1.978   5.687
 5547SOL    HW117384   2.563   1.898   5.733
 5547SOL    HW217385   2.471   1.951   5.625
 5548SOL     OW17386   2.737   3.382   6.782
 5548SOL    HW117387   2.721   3.347   6.695
 5548SOL    HW217388   2.807   3.328   6.817
 5549SOL     OW17389   3.196   2.459   7.021
 5549SOL    HW117390   3.232   2.425   7.103
 5549SOL    HW217391   3.236   2.545   7.011
 5550SOL     OW17392   2.681   3.255   6.532
 5550SOL    HW117393   2.766   3.242   6.489
 5550SOL    HW217394   2.619   3.260   6.459
 5551SOL     OW17395   2.419   1.913   6.054
 5551SOL    HW117396   2.339   1.954   6.089
 5551SOL    HW217397   2.476   1.987   6.033
 5552SOL     OW17398   3.290   3.063   5.625
 5552SOL    HW117399   3.320   2.988   5.676
 5552SOL    HW217400   3.204   3.084   5.661
 5553SOL     OW17401   2.929   2.522   7.046
 5553SOL    HW117402   2.893   2.447   7.093
 5553SOL    HW217403   3.022   2.503   7.037
 5554SOL     OW17404   3.079   3.436   6.381
 5554SOL    HW117405   3.094   3.501   6.313
 5554SOL    HW217406   3.151   3.447   6.443
 5555SOL     OW17407   2.325   3.020   6.323
 5555SOL    HW117408   2.255   3.007   6.387
 5555SOL    HW217409   2.281   3.012   6.238
 5556SOL     OW17410   3.124   3.653   6.197
 5556SOL    HW117411   3.173   3.718   6.146
 5556SOL    HW217412   3.049   3.702   6.232
 5557SOL     OW17413   2.889   2.393   5.606
 5557SOL    HW117414   2.837   2.473   5.598
 5557SOL    HW217415   2.945   2.409   5.682
 5558SOL     OW17416   1.928   2.406   6.947
 5558SOL    HW117417   2.020   2.399   6.923
 5558SOL    HW217418   1.924   2.483   7.004
 5559SOL     OW17419   3.303   3.023   6.442
 5559SOL    HW117420   3.230   2.961   6.441
 5559SOL    HW217421   3.330   3.030   6.351
 5560SOL     OW17422   3.327   2.475   6.556
 5560SOL    HW117423   3.274   2.395   6.558
 5560SOL    HW217424   3.386   2.467   6.631
 5561SOL     OW17425   3.725   2.676   5.960
 5561SOL    HW117426   3.768   2.620   6.025
 5561SOL    HW217427   3.687   2.614   5.897
 5562SOL     OW17428   2.351   3.283   5.736
 5562SOL    HW117429   2.276   3.254   5.788
 5562SOL    HW217430   2.345   3.232   5.655
 5563SOL     OW17431   3.532   3.128   6.227
 5563SOL    HW117432   3.627   3.129   6.237
 5563SOL    HW217433   3.504   3.217   6.248
 5564SOL     OW17434   3.257   2.435   5.655
 5564SOL    HW117435   3.191   2.414   5.721
 5564SOL    HW217436   3.339   2.400   5.691
 5565SOL     OW17437   3.611   3.094   7.144
 5565SOL    HW117438   3.698   3.060   7.127
 5565SOL    HW217439   3.626   3.184   7.173
 5566SOL     OW17440   2.916   3.214   6.918
 5566SOL    HW117441   2.841   3.182   6.969
 5566SOL    HW217442   2.992   3.173   6.959
 5567SOL     OW17443   3.469   3.493   7.245
 5567SOL    HW117444   3.459   3.527   7.156
 5567SOL    HW217445   3.548   3.439   7.241
 5568SOL     OW17446   2.998   3.074   6.687
 5568SOL    HW117447   2.937   3.110   6.752
 5568SOL    HW217448   2.968   3.108   6.603
 5569SOL     OW17449   3.487   2.955   6.659
 5569SOL    HW117450   3.476   3.017   6.731
 5569SOL    HW217451   3.412   2.972   6.601
 5570SOL     OW17452   2.773   1.990   6.959
 5570SOL    HW117453   2.803   1.920   6.901
 5570SOL    HW217454   2.852   2.016   7.006
 5571SOL     OW17455   2.848   2.972   7.308
 5571SOL    HW117456   2.757   2.990   7.332
 5571SOL    HW217457   2.844   2.894   7.253
 5572SOL     OW17458   2.566   2.928   5.952
 5572SOL    HW117459   2.556   2.916   6.046
 5572SOL    HW217460   2.643   2.877   5.928
 5573SOL     OW17461   2.279   2.680   6.843
 5573SOL    HW117462   2.353   2.691   6.903
 5573SOL    HW217463   2.237   2.599   6.871
 5574SOL     OW17464   3.124   2.241   6.867
 5574SOL    HW117465   3.154   2.319   6.914
 5574SOL    HW217466   3.034   2.262   6.841
 5575SOL     OW17467   1.936   3.439   6.943
 5575SOL    HW117468   1.907   3.513   6.890
 5575SOL    HW217469   2.032   3.441   6.936
 5576SOL     OW17470   2.190   2.989   6.084
 5576SOL    HW117471   2.200   3.045   6.007
 5576SOL    HW217472   2.201   2.900   6.050
 5577SOL     OW17473   3.109   3.212   5.977
 5577SOL    HW117474   3.165   3.282   6.009
 5577SOL    HW217475   3.022   3.233   6.010
 5578SOL     OW17476   3.151   3.323   6.735
 5578SOL    HW117477   3.207   3.328   6.812
 5578SOL    HW217478   3.098   3.245   6.748
 5579SOL     OW17479   3.438   2.477   6.075
 5579SOL    HW117480   3.388   2.530   6.137
 5579SOL    HW217481   3.477   2.541   6.015
 5580SOL     OW17482   2.207   3.393   6.893
 5580SOL    HW117483   2.195   3.346   6.811
 5580SOL    HW217484   2.302   3.404   6.901
 5581SOL     OW17485   3.471   2.642   7.274
 5581SOL    HW117486   3.385   2.684   7.269
 5581SOL    HW217487   3.523   2.685   7.206
 5582SOL     OW17488   2.945   1.962   7.361
 5582SOL    HW117489   2.901   2.020   7.300
 5582SOL    HW217490   2.992   1.899   7.306
 5583SOL     OW17491   2.348   1.923   7.298
 5583SOL    HW117492   2.294   1.852   7.264
 5583SOL    HW217493   2.294   1.964   7.365
 5584SOL     OW17494   2.479   2.760   6.632
 5584SOL    HW117495   2.506   2.851   6.644
 5584SOL    HW217496   2.408   2.748   6.696
 5585SOL     OW17497   3.212   2.723   6.607
 5585SOL    HW117498   3.129   2.709   6.560
 5585SOL    HW217499   3.258   2.639   6.599
 5586SOL     OW17500   3.061   2.391   5.839
 5586SOL    HW117501   3.074   2.314   5.895
 5586SOL    HW217502   3.022   2.456   5.896
 5587SOL     OW17503   1.918   3.179   6.862
 5587SOL    HW117504   1.948   3.126   6.935
 5587SOL    HW217505   1.918   3.269   6.895
 5588SOL     OW17506   3.592   2.823   7.453
 5588SOL    HW117507   3.554   2.753   7.399
 5588SOL    HW217508   3.527   2.837   7.521
 5589SOL     OW17509   3.487   2.242   5.946
 5589SOL    HW117510   3.512   2.175   6.009
 5589SOL    HW217511   3.461   2.317   5.999
 5590SOL     OW17512   2.884   2.608   6.547
 5590SOL    HW117513   2.885   2.646   6.635
 5590SOL    HW217514   2.863   2.516   6.561
 5591SOL     OW17515   2.847   3.430   7.310
 5591SOL    HW117516   2.827   3.470   7.225
 5591SOL    HW217517   2.889   3.347   7.288
 5592SOL     OW17518   3.702   3.355   7.182
 5592SOL    HW117519   3.727   3.387   7.096
 5592SOL    HW217520   3.781   3.362   7.235
 5593SOL     OW17521   3.392   2.137   5.711
 5593SOL    HW117522   3.328   2.071   5.738
 5593SOL    HW217523   3.425   2.173   5.793
 5594SOL     OW17524   3.151   2.688   5.615
 5594SOL    HW117525   3.191   2.601   5.619
 5594SOL    HW217526   3.183   2.725   5.533
 5595SOL     OW17527   2.931   3.202   6.444
 5595SOL    HW117528   2.936   3.129   6.382
 5595SOL    HW217529   2.988   3.269   6.407
 5596SOL     OW17530   3.004   2.275   7.237
 5596SOL    HW117531   2.966   2.321   7.312
 5596SOL    HW217532   3.097   2.295   7.241
 5597SOL     OW17533   3.018   2.067   7.059
 5597SOL    HW117534   3.009   2.132   7.128
 5597SOL    HW217535   3.064   2.112   6.988
 5598SOL     OW17536   1.869   3.181   5.778
 5598SOL    HW117537   1.781   3.197   5.744
 5598SOL    HW217538   1.865   3.093   5.816
 5599SOL     OW17539   1.962   3.633   6.527
 5599SOL    HW117540   1.930   3.555   6.480
 5599SOL    HW217541   2.044   3.654   6.484
 5600SOL     OW17542   2.355   3.438   6.493
 5600SOL    HW117543   2.422   3.502   6.515
 5600SOL    HW217544   2.399   3.377   6.433
 5601SOL     OW17545   2.847   2.653   6.812
 5601SOL    HW117546   2.892   2.614   6.887
 5601SOL    HW217547   2.754   2.635   6.828
 5602SOL     OW17548   1.984   2.407   7.270
 5602SOL    HW117549   2.080   2.398   7.264
 5602SOL    HW217550   1.964   2.483   7.216
 5603SOL     OW17551   3.243   2.795   7.243
 5603SOL    HW117552   3.264   2.888   7.240
 5603SOL    HW217553   3.240   2.768   7.151
 5604SOL     OW17554   2.708   2.482   5.855
 5604SOL    HW117555   2.707   2.386   5.855
 5604SOL    HW217556   2.617   2.508   5.870
 5605SOL     OW17557   3.501   2.463   6.766
 5605SOL    HW117558   3.490   2.403   6.840
 5605SOL    HW217559   3.589   2.443   6.732
 5606SOL     OW17560   2.101   3.410   7.307
 5606SOL    HW117561   2.079   3.480   7.368
 5606SOL    HW217562   2.112   3.332   7.362
 5607SOL     OW17563   2.594   2.332   6.860
 5607SOL    HW117564   2.530   2.262   6.871
 5607SOL    HW217565   2.565   2.379   6.782
 5608SOL     OW17566   2.783   3.532   7.059
 5608SOL    HW117567   2.759   3.491   6.976
 5608SOL    HW217568   2.777   3.626   7.042
 5609SOL     OW17569   2.338   2.380   5.784
 5609SOL    HW117570   2.387   2.458   5.812
 5609SOL    HW217571   2.250   2.412   5.766
 5610SOL     OW17572   2.010   3.008   7.063
 5610SOL    HW117573   2.032   2.953   7.138
 5610SOL    HW217574   2.020   2.951   6.987
 5611SOL     OW17575   3.180   2.905   6.806
 5611SOL    HW117576   3.203   2.842   6.737
 5611SOL    HW217577   3.115   2.963   6.765
 5612SOL     OW17578   3.174   2.716   5.892
 5612SOL    HW117579   3.099   2.683   5.941
 5612SOL    HW217580   3.150   2.703   5.800
 5613SOL     OW17581   3.644   3.598   6.746
 5613SOL    HW117582   3.701   3.624   6.674
 5613SOL    HW217583   3.614   3.510   6.721
 5614SOL     OW17584   3.107   3.594   6.691
 5614SOL    HW117585   3.190   3.617   6.650
 5614SOL    HW217586   3.115   3.501   6.712
 5615SOL     OW17587   1.905   3.112   6.602
 5615SOL    HW117588   1.914   3.140   6.693
 5615SOL    HW217589   1.820   3.067   6.599
 5616SOL     OW17590   2.543   3.530   7.326
 5616SOL    HW117591   2.484   3.605   7.328
 5616SOL    HW217592   2.605   3.551   7.256
 5617SOL     OW17593   3.568   2.017   6.095
 5617SOL    HW117594   3.637   2.005   6.029
 5617SOL    HW217595   3.558   1.931   6.135
 5618SOL     OW17596   3.253   3.430   6.078
 5618SOL    HW117597   3.311   3.465   6.009
 5618SOL    HW217598   3.203   3.506   6.108
 5619SOL     OW17599   2.002   3.648   7.424
 5619SOL    HW117600   1.951   3.585   7.474
 5619SOL    HW217601   2.048   3.699   7.491
 5620SOL     OW17602   3.135   2.784   6.255
 5620SOL    HW117603   3.210   2.726   6.266
 5620SOL    HW217604   3.169   2.856   6.201
 5621SOL     OW17605   2.666   3.136   7.011
 5621SOL    HW117606   2.639   3.178   7.093
 5621SOL    HW217607   2.597   3.159   6.949
 5622SOL     OW17608   2.535   3.482   5.746
 5622SOL    HW117609   2.546   3.502   5.653
 5622SOL    HW217610   2.476   3.407   5.748
 5623SOL     OW17611   3.478   3.589   6.977
 5623SOL    HW117612   3.535   3.591   6.900
 5623SOL    HW217613   3.464   3.682   6.998
 5624SOL     OW17614   3.701   2.043   6.550
 5624SOL    HW117615   3.733   1.955   6.528
 5624SOL    HW217616   3.615   2.048   6.510
 5625SOL     OW17617   3.069   3.462   5.624
 5625SOL    HW117618   3.059   3.370   5.648
 5625SOL    HW217619   3.008   3.475   5.552
 5626SOL     OW17620   2.688   2.869   6.955
 5626SOL    HW117621   2.727   2.871   6.868
 5626SOL    HW217622   2.681   2.961   6.980
 5627SOL     OW17623   2.778   2.786   5.875
 5627SOL    HW117624   2.838   2.815   5.807
 5627SOL    HW217625   2.820   2.708   5.912
 5628SOL     OW17626   3.347   3.500   5.630
 5628SOL    HW117627   3.254   3.484   5.613
 5628SOL    HW217628   3.387   3.503   5.543
 5629SOL     OW17629   2.232   3.173   7.080
 5629SOL    HW117630   2.221   3.249   7.024
 5629SOL    HW217631   2.154   3.119   7.062
 5630SOL     OW17632   3.459   3.141   6.861
 5630SOL    HW117633   3.528   3.130   6.926
 5630SOL    HW217634   3.403   3.210   6.897
 5631SOL     OW17635   2.924   2.972   6.302
 5631SOL    HW117636   2.850   2.922   6.336
 5631SOL    HW217637   2.985   2.906   6.269
 5632SOL     OW17638   2.468   3.353   6.066
 5632SOL    HW117639   2.518   3.301   6.002
 5632SOL    HW217640   2.397   3.392   6.015
 5633SOL     OW17641   3.589   2.250   6.964
 5633SOL    HW117642   3.661   2.312   6.961
 5633SOL    HW217643   3.616   2.178   6.906
 5634SOL     OW17644   2.125   3.200   5.879
 5634SOL    HW117645   2.032   3.200   5.854
 5634SOL    HW217646   2.126   3.241   5.965
 5635SOL     OW17647   1.878   2.251   5.618
 5635SOL    HW117648   1.823   2.222   5.545
 5635SOL    HW217649   1.931   2.321   5.581
 5636SOL     OW17650   3.286   2.722   6.983
 5636SOL    HW117651   3.236   2.783   6.929
 5636SOL    HW217652   3.374   2.723   6.946
 5637SOL     OW17653   3.039   3.195   5.704
 5637SOL    HW117654   2.949   3.165   5.705
 5637SOL    HW217655   3.066   3.195   5.797
 5638SOL     OW17656   2.487   2.690   7.013
 5638SOL    HW117657   2.549   2.762   6.998
 5638SOL    HW217658   2.542   2.619   7.044
 5639SOL     OW17659   3.349   3.646   6.570
 5639SOL    HW117660   3.372   3.705   6.498
 5639SOL    HW217661   3.432   3.609   6.598
 5640SOL     OW17662   3.336   3.056   7.214
 5640SOL    HW117663   3.326   3.071   7.308
 5640SOL    HW217664   3.428   3.072   7.196
 5641SOL     OW17665   2.232   3.607   7.154
 5641SOL    HW117666   2.148   3.650   7.136
 5641SOL    HW217667   2.208   3.523   7.193
 5642SOL     OW17668   3.524   2.742   6.844
 5642SOL    HW117669   3.524   2.656   6.801
 5642SOL    HW217670   3.517   2.805   6.773
 5643SOL     OW17671   3.107   2.199   6.031
 5643SOL    HW117672   3.156   2.116   6.033
 5643SOL    HW217673   3.130   2.241   6.114
 5644SOL     OW17674   3.616   2.227   7.237
 5644SOL    HW117675   3.600   2.242   7.143
 5644SOL    HW217676   3.545   2.170   7.264
 5645SOL     OW17677   3.620   2.788   7.098
 5645SOL    HW117678   3.610   2.881   7.117
 5645SOL    HW217679   3.594   2.779   7.006
 5646SOL     OW17680   2.727   3.231   5.631
 5646SOL    HW117681   2.687   3.258   5.713
 5646SOL    HW217682   2.741   3.313   5.583
 5647SOL     OW17683   2.524   3.648   6.520
 5647SOL    HW117684   2.504   3.740   6.502
 5647SOL    HW217685   2.619   3.643   6.516
 5648SOL     OW17686   2.729   2.830   6.440
 5648SOL    HW117687   2.770   2.752   6.476
 5648SOL    HW217688   2.682   2.868   6.514
 5649SOL     OW17689   2.938   2.850   5.670
 5649SOL    HW117690   2.920   2.901   5.592
 5649SOL    HW217691   3.013   2.796   5.647
 5650SOL     OW17692   3.708   3.415   6.425
 5650SOL    HW117693   3.628   3.397   6.376
 5650SOL    HW217694   3.713   3.345   6.490
 5651SOL     OW17695   2.090   3.163   7.449
 5651SOL    HW117696   2.000   3.136   7.432
 5651SOL    HW217697   2.094   3.176   7.544
 5652SOL     OW17698   1.954   3.088   6.249
 5652SOL    HW117699   1.985   3.046   6.329
 5652SOL    HW217700   2.012   3.055   6.180
 5653SOL     OW17701   2.546   3.271   7.216
 5653SOL    HW117702   2.468   3.229   7.252
 5653SOL    HW217703   2.546   3.359   7.254
 5654SOL     OW17704   3.670   2.037   6.821
 5654SOL    HW117705   3.663   1.942   6.823
 5654SOL    HW217706   3.688   2.058   6.730
 5655SOL     OW17707   3.554   3.351   6.681
 5655SOL    HW117708   3.477   3.328   6.629
 5655SOL    HW217709   3.562   3.279   6.743
 5656SOL     OW17710   2.199   2.409   6.902
 5656SOL    HW117711   2.195   2.327   6.951
 5656SOL    HW217712   2.243   2.385   6.820
 5657SOL     OW17713   2.692   3.442   6.262
 5657SOL    HW117714   2.670   3.499   6.188
 5657SOL    HW217715   2.619   3.380   6.267
 5658SOL     OW17716   3.291   2.094   6.704
 5658SOL    HW117717   3.310   2.009   6.743
 5658SOL    HW217718   3.243   2.142   6.771
 5659SOL     OW17719   2.875   1.802   6.790
 5659SOL    HW117720   2.840   1.848   6.714
 5659SOL    HW217721   2.964   1.776   6.763
 5660SOL     OW17722   2.636   3.196   5.909
 5660SOL    HW117723   2.607   3.105   5.915
 5660SOL    HW217724   2.719   3.198   5.957
 5661SOL     OW17725   2.481   3.415   6.871
 5661SOL    HW117726   2.481   3.497   6.921
 5661SOL    HW217727   2.570   3.410   6.835
 5662SOL     OW17728   3.228   1.916   5.755
 5662SOL    HW117729   3.260   1.845   5.700
 5662SOL    HW217730   3.139   1.891   5.778
 5663SOL     OW17731   3.159   2.328   6.268
 5663SOL    HW117732   3.106   2.407   6.273
 5663SOL    HW217733   3.156   2.292   6.357
 5664SOL     OW17734   3.441   2.056   6.467
 5664SOL    HW117735   3.390   2.083   6.542
 5664SOL    HW217736   3.444   2.134   6.410
 5665SOL     OW17737   1.905   2.935   5.893
 5665SOL    HW117738   2.000   2.926   5.886
 5665SOL    HW217739   1.872   2.845   5.896
 5666SOL     OW17740   2.751   3.526   5.926
 5666SOL    HW117741   2.678   3.507   5.867
 5666SOL    HW217742   2.720   3.600   5.979
 5667SOL     OW17743   1.844   2.274   8.063
 5667SOL    HW117744   1.755   2.270   8.101
 5667SOL    HW217745   1.850   2.195   8.009
 5668SOL     OW17746   2.429   3.159   8.630
 5668SOL    HW117747   2.343   3.167   8.589
 5668SOL    HW217748   2.447   3.247   8.665
 5669SOL     OW17749   3.430   3.375   8.158
 5669SOL    HW117750   3.388   3.351   8.240
 5669SOL    HW217751   3.359   3.378   8.094
 5670SOL     OW17752   2.996   2.563   8.145
 5670SOL    HW117753   3.045   2.645   8.134
 5670SOL    HW217754   2.948   2.575   8.227
 5671SOL     OW17755   3.631   2.466   7.677
 5671SOL    HW117756   3.610   2.459   7.584
 5671SOL    HW217757   3.597   2.385   7.715
 5672SOL     OW17758   2.603   2.997   8.494
 5672SOL    HW117759   2.538   3.037   8.552
 5672SOL    HW217760   2.646   3.072   8.451
 5673SOL     OW17761   2.736   2.623   9.272
 5673SOL    HW117762   2.728   2.692   9.337
 5673SOL    HW217763   2.759   2.668   9.191
 5674SOL     OW17764   2.541   2.850   8.100
 5674SOL    HW117765   2.611   2.846   8.165
 5674SOL    HW217766   2.477   2.911   8.137
 5675SOL     OW17767   2.577   3.013   9.266
 5675SOL    HW117768   2.624   3.090   9.297
 5675SOL    HW217769   2.497   3.049   9.227
 5676SOL     OW17770   2.195   3.278   8.514
 5676SOL    HW117771   2.119   3.241   8.469
 5676SOL    HW217772   2.238   3.332   8.448
 5677SOL     OW17773   3.320   3.364   8.809
 5677SOL    HW117774   3.375   3.442   8.819
 5677SOL    HW217775   3.252   3.375   8.876
 5678SOL     OW17776   3.468   2.303   8.195
 5678SOL    HW117777   3.398   2.323   8.133
 5678SOL    HW217778   3.474   2.381   8.250
 5679SOL     OW17779   2.086   3.575   7.927
 5679SOL    HW117780   2.111   3.637   7.996
 5679SOL    HW217781   2.159   3.578   7.866
 5680SOL     OW17782   2.999   3.204   9.143
 5680SOL    HW117783   3.042   3.196   9.229
 5680SOL    HW217784   2.947   3.124   9.134
 5681SOL     OW17785   2.092   3.302   7.978
 5681SOL    HW117786   2.078   3.397   7.981
 5681SOL    HW217787   2.035   3.268   8.047
 5682SOL     OW17788   2.127   2.959   8.336
 5682SOL    HW117789   2.125   2.871   8.374
 5682SOL    HW217790   2.070   3.011   8.393
 5683SOL     OW17791   2.463   3.646   8.875
 5683SOL    HW117792   2.383   3.633   8.925
 5683SOL    HW217793   2.492   3.734   8.899
 5684SOL     OW17794   2.472   2.860   7.589
 5684SOL    HW117795   2.521   2.914   7.527
 5684SOL    HW217796   2.510   2.881   7.674
 5685SOL     OW17797   3.455   1.990   8.912
 5685SOL    HW117798   3.480   2.070   8.865
 5685SOL    HW217799   3.437   2.018   9.001
 5686SOL     OW17800   2.041   2.464   8.105
 5686SOL    HW117801   1.973   2.399   8.086
 5686SOL    HW217802   1.992   2.544   8.125
 5687SOL     OW17803   3.699   3.610   7.792
 5687SOL    HW117804   3.772   3.585   7.849
 5687SOL    HW217805   3.717   3.702   7.769
 5688SOL     OW17806   1.898   3.446   7.569
 5688SOL    HW117807   1.875   3.356   7.589
 5688SOL    HW217808   1.875   3.495   7.648
 5689SOL     OW17809   3.553   2.783   8.100
 5689SOL    HW117810   3.635   2.737   8.080
 5689SOL    HW217811   3.532   2.830   8.019
 5690SOL     OW17812   3.504   2.963   7.881
 5690SOL    HW117813   3.589   2.966   7.838
 5690SOL    HW217814   3.511   3.028   7.952
 5691SOL     OW17815   1.990   2.595   9.038
 5691SOL    HW117816   2.082   2.616   9.051
 5691SOL    HW217817   1.944   2.678   9.050
 5692SOL     OW17818   2.480   3.256   8.182
 5692SOL    HW117819   2.435   3.172   8.191
 5692SOL    HW217820   2.462   3.283   8.092
 5693SOL     OW17821   3.147   3.097   8.869
 5693SOL    HW117822   3.178   3.029   8.808
 5693SOL    HW217823   3.207   3.092   8.943
 5694SOL     OW17824   2.689   1.864   8.013
 5694SOL    HW117825   2.723   1.918   7.942
 5694SOL    HW217826   2.595   1.878   8.011
 5695SOL     OW17827   2.051   2.827   8.727
 5695SOL    HW117828   2.135   2.785   8.710
 5695SOL    HW217829   1.988   2.777   8.675
 5696SOL     OW17830   3.390   2.863   7.649
 5696SOL    HW117831   3.321   2.805   7.682
 5696SOL    HW217832   3.432   2.896   7.728
 5697SOL     OW17833   3.088   3.669   9.078
 5697SOL    HW117834   3.059   3.730   9.010
 5697SOL    HW217835   3.087   3.583   9.035
 5698SOL     OW17836   3.326   3.282   8.393
 5698SOL    HW117837   3.261   3.297   8.462
 5698SOL    HW217838   3.315   3.190   8.369
 5699SOL     OW17839   3.504   3.611   8.029
 5699SOL    HW117840   3.498   3.574   7.940
 5699SOL    HW217841   3.491   3.535   8.086
 5700SOL     OW17842   3.139   2.229   8.384
 5700SOL    HW117843   3.051   2.192   8.391
 5700SOL    HW217844   3.193   2.174   8.441
 5701SOL     OW17845   3.433   3.540   7.757
 5701SOL    HW117846   3.527   3.561   7.752
 5701SOL    HW217847   3.408   3.521   7.667
 5702SOL     OW17848   2.653   2.475   8.892
 5702SOL    HW117849   2.630   2.453   8.983
 5702SOL    HW217850   2.604   2.412   8.839
 5703SOL     OW17851   3.255   2.336   9.126
 5703SOL    HW117852   3.259   2.380   9.211
 5703SOL    HW217853   3.311   2.259   9.136
 5704SOL     OW17854   2.810   2.746   9.034
 5704SOL    HW117855   2.867   2.679   8.995
 5704SOL    HW217856   2.763   2.784   8.960
 5705SOL     OW17857   2.863   2.276   8.683
 5705SOL    HW117858   2.778   2.294   8.723
 5705SOL    HW217859   2.841   2.233   8.600
 5706SOL     OW17860   2.916   2.560   7.879
 5706SOL    HW117861   2.945   2.558   7.970
 5706SOL    HW217862   2.830   2.518   7.881
 5707SOL     OW17863   1.942   2.701   8.220
 5707SOL    HW117864   2.027   2.693   8.264
 5707SOL    HW217865   1.900   2.775   8.265
 5708SOL     OW17866   1.977   3.719   9.027
 5708SOL    HW117867   1.985   3.697   9.120
 5708SOL    HW217868   1.885   3.701   9.006
 5709SOL     OW17869   3.568   2.432   9.279
 5709SOL    HW117870   3.532   2.506   9.229
 5709SOL    HW217871   3.593   2.369   9.212
 5710SOL     OW17872   3.240   3.004   7.987
 5710SOL    HW117873   3.320   2.990   7.936
 5710SOL    HW217874   3.189   3.066   7.935
 5711SOL     OW17875   2.444   2.062   8.358
 5711SOL    HW117876   2.349   2.074   8.366
 5711SOL    HW217877   2.475   2.144   8.319
 5712SOL     OW17878   2.862   3.308   7.916
 5712SOL    HW117879   2.830   3.384   7.867
 5712SOL    HW217880   2.839   3.326   8.007
 5713SOL     OW17881   2.213   3.676   8.283
 5713SOL    HW117882   2.263   3.598   8.303
 5713SOL    HW217883   2.270   3.749   8.309
 5714SOL     OW17884   3.670   2.923   8.318
 5714SOL    HW117885   3.619   2.893   8.243
 5714SOL    HW217886   3.607   2.926   8.390
 5715SOL     OW17887   3.088   3.401   8.960
 5715SOL    HW117888   3.077   3.328   9.022
 5715SOL    HW217889   3.018   3.389   8.896
 5716SOL     OW17890   3.343   2.615   8.171
 5716SOL    HW117891   3.341   2.572   8.257
 5716SOL    HW217892   3.422   2.669   8.173
 5717SOL     OW17893   2.332   3.129   9.185
 5717SOL    HW117894   2.306   3.134   9.093
 5717SOL    HW217895   2.250   3.127   9.233
 5718SOL     OW17896   2.977   3.645   7.667
 5718SOL    HW117897   2.911   3.601   7.720
 5718SOL    HW217898   3.008   3.578   7.606
 5719SOL     OW17899   3.484   3.250   7.538
 5719SOL    HW117900   3.441   3.333   7.520
 5719SOL    HW217901   3.419   3.184   7.517
 5720SOL     OW17902   2.328   3.599   7.774
 5720SOL    HW117903   2.366   3.663   7.834
 5720SOL    HW217904   2.400   3.575   7.716
 5721SOL     OW17905   3.266   1.965   7.891
 5721SOL    HW117906   3.259   1.943   7.799
 5721SOL    HW217907   3.360   1.972   7.907
 5722SOL     OW17908   2.123   3.652   8.665
 5722SOL    HW117909   2.169   3.579   8.707
 5722SOL    HW217910   2.104   3.621   8.577
 5723SOL     OW17911   2.802   3.566   8.345
 5723SOL    HW117912   2.881   3.516   8.367
 5723SOL    HW217913   2.760   3.515   8.276
 5724SOL     OW17914   3.390   2.086   9.172
 5724SOL    HW117915   3.400   2.106   9.265
 5724SOL    HW217916   3.323   2.018   9.170
 5725SOL     OW17917   2.628   2.147   9.201
 5725SOL    HW117918   2.708   2.095   9.195
 5725SOL    HW217919   2.579   2.109   9.274
 5726SOL     OW17920   2.737   3.383   8.644
 5726SOL    HW117921   2.720   3.346   8.557
 5726SOL    HW217922   2.808   3.328   8.679
 5727SOL     OW17923   3.201   2.453   8.882
 5727SOL    HW117924   3.232   2.421   8.967
 5727SOL    HW217925   3.239   2.540   8.873
 5728SOL     OW17926   2.681   3.249   8.396
 5728SOL    HW117927   2.766   3.239   8.353
 5728SOL    HW217928   2.619   3.258   8.323
 5729SOL     OW17929   2.791   2.369   8.361
 5729SOL    HW117930   2.765   2.366   8.269
 5729SOL    HW217931   2.825   2.281   8.379
 5730SOL     OW17932   2.422   1.913   7.979
 5730SOL    HW117933   2.349   1.851   7.985
 5730SOL    HW217934   2.382   1.996   7.953
 5731SOL     OW17935   3.290   3.063   7.486
 5731SOL    HW117936   3.321   2.988   7.537
 5731SOL    HW217937   3.203   3.082   7.523
 5732SOL     OW17938   2.833   2.153   7.946
 5732SOL    HW117939   2.805   2.107   7.867
 5732SOL    HW217940   2.928   2.162   7.936
 5733SOL     OW17941   2.944   2.548   8.905
 5733SOL    HW117942   2.881   2.476   8.912
 5733SOL    HW217943   3.029   2.505   8.900
 5734SOL     OW17944   3.078   3.435   8.243
 5734SOL    HW117945   3.094   3.501   8.176
 5734SOL    HW217946   3.151   3.447   8.305
 5735SOL     OW17947   2.333   3.019   8.173
 5735SOL    HW117948   2.268   3.000   8.240
 5735SOL    HW217949   2.285   3.009   8.090
 5736SOL     OW17950   3.124   3.653   8.059
 5736SOL    HW117951   3.173   3.718   8.008
 5736SOL    HW217952   3.049   3.702   8.094
 5737SOL     OW17953   2.931   2.434   7.448
 5737SOL    HW117954   2.879   2.515   7.448
 5737SOL    HW217955   2.967   2.429   7.536
 5738SOL     OW17956   1.943   2.426   8.830
 5738SOL    HW117957   2.037   2.421   8.812
 5738SOL    HW217958   1.936   2.484   8.906
 5739SOL     OW17959   2.719   2.341   8.103
 5739SOL    HW117960   2.647   2.372   8.049
 5739SOL    HW217961   2.759   2.270   8.052
 5740SOL     OW17962   2.884   1.915   8.205
 5740SOL    HW117963   2.820   1.913   8.134
 5740SOL    HW217964   2.861   1.840   8.260
 5741SOL     OW17965   3.304   3.022   8.305
 5741SOL    HW117966   3.232   2.958   8.303
 5741SOL    HW217967   3.331   3.030   8.214
 5742SOL     OW17968   3.327   2.474   8.415
 5742SOL    HW117969   3.271   2.396   8.418
 5742SOL    HW217970   3.384   2.465   8.491
 5743SOL     OW17971   3.723   2.676   7.823
 5743SOL    HW117972   3.767   2.620   7.888
 5743SOL    HW217973   3.686   2.615   7.759
 5744SOL     OW17974   2.353   3.283   7.599
 5744SOL    HW117975   2.276   3.255   7.649
 5744SOL    HW217976   2.352   3.229   7.520
 5745SOL     OW17977   3.531   3.128   8.090
 5745SOL    HW117978   3.627   3.129   8.100
 5745SOL    HW217979   3.504   3.217   8.110
 5746SOL     OW17980   3.258   2.434   7.518
 5746SOL    HW117981   3.192   2.413   7.584
 5746SOL    HW217982   3.340   2.400   7.553
 5747SOL     OW17983   3.611   3.094   9.007
 5747SOL    HW117984   3.699   3.060   8.989
 5747SOL    HW217985   3.626   3.184   9.036
 5748SOL     OW17986   2.916   3.213   8.778
 5748SOL    HW117987   2.841   3.182   8.829
 5748SOL    HW217988   2.992   3.172   8.821
 5749SOL     OW17989   3.469   3.493   9.107
 5749SOL    HW117990   3.459   3.527   9.018
 5749SOL    HW217991   3.548   3.439   9.103
 5750SOL     OW17992   2.996   3.072   8.549
 5750SOL    HW117993   2.938   3.112   8.614
 5750SOL    HW217994   2.968   3.109   8.465
 5751SOL     OW17995   3.487   2.955   8.521
 5751SOL    HW117996   3.476   3.017   8.593
 5751SOL    HW217997   3.412   2.972   8.463
 5752SOL     OW17998   2.792   1.950   8.839
 5752SOL    HW117999   2.813   1.932   8.747
 5752SOL    HW218000   2.872   1.990   8.874
 5753SOL     OW18001   2.846   2.977   9.170
 5753SOL    HW118002   2.755   2.994   9.195
 5753SOL    HW218003   2.842   2.898   9.117
 5754SOL     OW18004   2.584   2.930   7.834
 5754SOL    HW118005   2.568   2.903   7.925
 5754SOL    HW218006   2.658   2.877   7.805
 5755SOL     OW18007   2.281   2.676   8.701
 5755SOL    HW118008   2.349   2.689   8.767
 5755SOL    HW218009   2.244   2.590   8.721
 5756SOL     OW18010   3.130   2.237   8.731
 5756SOL    HW118011   3.161   2.315   8.776
 5756SOL    HW218012   3.039   2.258   8.707
 5757SOL     OW18013   1.937   3.435   8.804
 5757SOL    HW118014   1.909   3.510   8.751
 5757SOL    HW218015   2.032   3.435   8.798
 5758SOL     OW18016   2.198   2.980   7.928
 5758SOL    HW118017   2.209   3.054   7.868
 5758SOL    HW218018   2.252   2.910   7.892
 5759SOL     OW18019   2.411   2.379   8.308
 5759SOL    HW118020   2.418   2.444   8.238
 5759SOL    HW218021   2.466   2.414   8.378
 5760SOL     OW18022   3.109   3.212   7.839
 5760SOL    HW118023   3.165   3.283   7.871
 5760SOL    HW218024   3.022   3.234   7.871
 5761SOL     OW18025   3.152   3.323   8.597
 5761SOL    HW118026   3.208   3.329   8.675
 5761SOL    HW218027   3.097   3.246   8.613
 5762SOL     OW18028   3.437   2.478   7.935
 5762SOL    HW118029   3.388   2.531   7.999
 5762SOL    HW218030   3.477   2.543   7.877
 5763SOL     OW18031   2.207   3.393   8.756
 5763SOL    HW118032   2.197   3.347   8.673
 5763SOL    HW218033   2.302   3.404   8.766
 5764SOL     OW18034   2.288   2.605   9.061
 5764SOL    HW118035   2.346   2.648   8.998
 5764SOL    HW218036   2.338   2.529   9.092
 5765SOL     OW18037   3.470   2.642   9.135
 5765SOL    HW118038   3.385   2.685   9.130
 5765SOL    HW218039   3.523   2.685   9.067
 5766SOL     OW18040   2.856   1.996   9.192
 5766SOL    HW118041   2.917   2.068   9.177
 5766SOL    HW218042   2.906   1.917   9.171
 5767SOL     OW18043   2.356   1.896   9.217
 5767SOL    HW118044   2.306   1.846   9.152
 5767SOL    HW218045   2.298   1.966   9.244
 5768SOL     OW18046   2.448   2.739   8.480
 5768SOL    HW118047   2.486   2.826   8.485
 5768SOL    HW218048   2.392   2.733   8.558
 5769SOL     OW18049   3.209   2.721   8.469
 5769SOL    HW118050   3.124   2.705   8.428
 5769SOL    HW218051   3.256   2.638   8.459
 5770SOL     OW18052   3.061   2.392   7.709
 5770SOL    HW118053   3.076   2.314   7.762
 5770SOL    HW218054   3.019   2.454   7.768
 5771SOL     OW18055   1.909   3.174   8.722
 5771SOL    HW118056   1.940   3.119   8.794
 5771SOL    HW218057   1.914   3.263   8.757
 5772SOL     OW18058   2.577   2.486   8.501
 5772SOL    HW118059   2.656   2.469   8.449
 5772SOL    HW218060   2.555   2.577   8.482
 5773SOL     OW18061   3.591   2.822   9.315
 5773SOL    HW118062   3.553   2.753   9.261
 5773SOL    HW218063   3.526   2.837   9.384
 5774SOL     OW18064   3.485   2.242   7.808
 5774SOL    HW118065   3.511   2.175   7.872
 5774SOL    HW218066   3.461   2.317   7.862
 5775SOL     OW18067   2.890   2.620   8.407
 5775SOL    HW118068   2.882   2.639   8.500
 5775SOL    HW218069   2.865   2.528   8.398
 5776SOL     OW18070   2.848   3.430   9.172
 5776SOL    HW118071   2.827   3.470   9.087
 5776SOL    HW218072   2.889   3.347   9.149
 5777SOL     OW18073   3.702   3.355   9.044
 5777SOL    HW118074   3.728   3.387   8.958
 5777SOL    HW218075   3.781   3.362   9.097
 5778SOL     OW18076   2.214   2.779   9.261
 5778SOL    HW118077   2.295   2.802   9.307
 5778SOL    HW218078   2.242   2.718   9.192
 5779SOL     OW18079   3.392   2.135   7.574
 5779SOL    HW118080   3.327   2.071   7.601
 5779SOL    HW218081   3.426   2.172   7.655
 5780SOL     OW18082   3.150   2.688   7.478
 5780SOL    HW118083   3.187   2.600   7.480
 5780SOL    HW218084   3.181   2.726   7.396
 5781SOL     OW18085   2.931   3.202   8.306
 5781SOL    HW118086   2.937   3.129   8.243
 5781SOL    HW218087   2.988   3.269   8.270
 5782SOL     OW18088   2.175   2.684   8.386
 5782SOL    HW118089   2.267   2.709   8.386
 5782SOL    HW218090   2.176   2.589   8.398
 5783SOL     OW18091   2.997   2.236   9.132
 5783SOL    HW118092   2.948   2.288   9.196
 5783SOL    HW218093   3.083   2.276   9.129
 5784SOL     OW18094   3.028   2.060   8.920
 5784SOL    HW118095   3.014   2.122   8.991
 5784SOL    HW218096   3.072   2.111   8.852
 5785SOL     OW18097   1.863   3.171   7.640
 5785SOL    HW118098   1.776   3.192   7.606
 5785SOL    HW218099   1.853   3.083   7.677
 5786SOL     OW18100   1.961   3.633   8.388
 5786SOL    HW118101   1.929   3.556   8.340
 5786SOL    HW218102   2.044   3.654   8.345
 5787SOL     OW18103   2.352   3.439   8.352
 5787SOL    HW118104   2.419   3.502   8.376
 5787SOL    HW218105   2.397   3.377   8.295
 5788SOL     OW18106   2.834   2.650   8.672
 5788SOL    HW118107   2.897   2.631   8.742
 5788SOL    HW218108   2.752   2.612   8.704
 5789SOL     OW18109   1.884   2.397   8.564
 5789SOL    HW118110   1.962   2.404   8.510
 5789SOL    HW218111   1.915   2.413   8.653
 5790SOL     OW18112   3.243   2.795   9.105
 5790SOL    HW118113   3.265   2.888   9.101
 5790SOL    HW218114   3.239   2.768   9.013
 5791SOL     OW18115   3.500   2.463   8.628
 5791SOL    HW118116   3.489   2.402   8.701
 5791SOL    HW218117   3.587   2.443   8.593
 5792SOL     OW18118   2.101   3.409   9.169
 5792SOL    HW118119   2.079   3.476   9.233
 5792SOL    HW218120   2.107   3.328   9.220
 5793SOL     OW18121   2.528   2.320   8.707
 5793SOL    HW118122   2.523   2.231   8.673
 5793SOL    HW218123   2.545   2.374   8.630
 5794SOL     OW18124   2.785   3.531   8.920
 5794SOL    HW118125   2.759   3.491   8.837
 5794SOL    HW218126   2.778   3.626   8.904
 5795SOL     OW18127   2.003   3.006   8.924
 5795SOL    HW118128   2.004   2.957   9.007
 5795SOL    HW218129   2.021   2.940   8.857
 5796SOL     OW18130   3.179   2.904   8.667
 5796SOL    HW118131   3.202   2.841   8.599
 5796SOL    HW218132   3.114   2.961   8.627
 5797SOL     OW18133   3.179   2.718   7.752
 5797SOL    HW118134   3.103   2.687   7.802
 5797SOL    HW218135   3.155   2.704   7.661
 5798SOL     OW18136   3.644   3.598   8.608
 5798SOL    HW118137   3.701   3.624   8.536
 5798SOL    HW218138   3.614   3.510   8.583
 5799SOL     OW18139   3.107   3.594   8.553
 5799SOL    HW118140   3.190   3.617   8.512
 5799SOL    HW218141   3.115   3.501   8.574
 5800SOL     OW18142   1.951   3.127   8.459
 5800SOL    HW118143   1.933   3.143   8.552
 5800SOL    HW218144   1.876   3.076   8.429
 5801SOL     OW18145   2.542   3.529   9.187
 5801SOL    HW118146   2.483   3.605   9.191
 5801SOL    HW218147   2.604   3.551   9.118
 5802SOL     OW18148   3.568   2.017   7.957
 5802SOL    HW118149   3.636   2.005   7.891
 5802SOL    HW218150   3.559   1.931   7.998
 5803SOL     OW18151   3.253   3.430   7.939
 5803SOL    HW118152   3.311   3.465   7.871
 5803SOL    HW218153   3.204   3.506   7.970
 5804SOL     OW18154   2.002   3.649   9.286
 5804SOL    HW118155   1.950   3.586   9.335
 5804SOL    HW218156   2.048   3.699   9.353
 5805SOL     OW18157   3.140   2.792   8.121
 5805SOL    HW118158   3.214   2.733   8.131
 5805SOL    HW218159   3.173   2.863   8.066
 5806SOL     OW18160   2.666   3.139   8.872
 5806SOL    HW118161   2.639   3.179   8.954
 5806SOL    HW218162   2.596   3.160   8.811
 5807SOL     OW18163   2.536   3.484   7.608
 5807SOL    HW118164   2.547   3.503   7.514
 5807SOL    HW218165   2.477   3.408   7.610
 5808SOL     OW18166   3.478   3.590   8.839
 5808SOL    HW118167   3.536   3.591   8.762
 5808SOL    HW218168   3.464   3.682   8.860
 5809SOL     OW18169   3.701   2.043   8.413
 5809SOL    HW118170   3.733   1.956   8.390
 5809SOL    HW218171   3.614   2.049   8.373
 5810SOL     OW18172   3.069   3.462   7.486
 5810SOL    HW118173   3.059   3.370   7.510
 5810SOL    HW218174   3.008   3.475   7.413
 5811SOL     OW18175   2.685   2.869   8.823
 5811SOL    HW118176   2.731   2.863   8.739
 5811SOL    HW218177   2.681   2.963   8.842
 5812SOL     OW18178   2.790   2.782   7.747
 5812SOL    HW118179   2.847   2.814   7.677
 5812SOL    HW218180   2.839   2.709   7.786
 5813SOL     OW18181   3.347   3.500   7.492
 5813SOL    HW118182   3.254   3.484   7.475
 5813SOL    HW218183   3.387   3.504   7.405
 5814SOL     OW18184   2.230   3.166   8.939
 5814SOL    HW118185   2.216   3.244   8.884
 5814SOL    HW218186   2.152   3.113   8.926
 5815SOL     OW18187   3.459   3.141   8.723
 5815SOL    HW118188   3.529   3.131   8.788
 5815SOL    HW218189   3.403   3.210   8.759
 5816SOL     OW18190   2.923   2.973   8.160
 5816SOL    HW118191   2.851   2.921   8.196
 5816SOL    HW218192   2.988   2.908   8.133
 5817SOL     OW18193   2.885   2.105   8.415
 5817SOL    HW118194   2.883   2.058   8.331
 5817SOL    HW218195   2.882   2.036   8.481
 5818SOL     OW18196   2.466   3.351   7.927
 5818SOL    HW118197   2.517   3.302   7.863
 5818SOL    HW218198   2.399   3.397   7.875
 5819SOL     OW18199   3.589   2.249   8.826
 5819SOL    HW118200   3.662   2.312   8.823
 5819SOL    HW218201   3.617   2.178   8.768
 5820SOL     OW18202   2.118   3.199   7.733
 5820SOL    HW118203   2.025   3.198   7.711
 5820SOL    HW218204   2.122   3.241   7.819
 5821SOL     OW18205   1.976   2.891   9.172
 5821SOL    HW118206   1.900   2.866   9.223
 5821SOL    HW218207   2.050   2.850   9.217
 5822SOL     OW18208   2.554   2.036   8.944
 5822SOL    HW118209   2.641   2.014   8.911
 5822SOL    HW218210   2.570   2.083   9.026
 5823SOL     OW18211   1.854   2.242   7.451
 5823SOL    HW118212   1.806   2.195   7.383
 5823SOL    HW218213   1.901   2.311   7.403
 5824SOL     OW18214   3.285   2.720   8.845
 5824SOL    HW118215   3.235   2.781   8.791
 5824SOL    HW218216   3.373   2.722   8.808
 5825SOL     OW18217   3.040   3.196   7.567
 5825SOL    HW118218   2.952   3.159   7.568
 5825SOL    HW218219   3.067   3.196   7.658
 5826SOL     OW18220   2.483   2.691   8.881
 5826SOL    HW118221   2.538   2.768   8.868
 5826SOL    HW218222   2.544   2.618   8.889
 5827SOL     OW18223   3.349   3.646   8.432
 5827SOL    HW118224   3.372   3.705   8.360
 5827SOL    HW218225   3.432   3.609   8.460
 5828SOL     OW18226   2.573   2.423   9.146
 5828SOL    HW118227   2.621   2.480   9.207
 5828SOL    HW218228   2.591   2.334   9.177
 5829SOL     OW18229   3.336   3.056   9.076
 5829SOL    HW118230   3.326   3.071   9.170
 5829SOL    HW218231   3.428   3.072   9.058
 5830SOL     OW18232   2.232   3.606   9.017
 5830SOL    HW118233   2.148   3.650   8.999
 5830SOL    HW218234   2.207   3.522   9.056
 5831SOL     OW18235   3.524   2.741   8.707
 5831SOL    HW118236   3.523   2.656   8.663
 5831SOL    HW218237   3.517   2.804   8.635
 5832SOL     OW18238   3.100   2.190   7.903
 5832SOL    HW118239   3.157   2.113   7.899
 5832SOL    HW218240   3.130   2.237   7.981
 5833SOL     OW18241   2.445   2.585   8.123
 5833SOL    HW118242   2.489   2.670   8.112
 5833SOL    HW218243   2.375   2.586   8.058
 5834SOL     OW18244   3.616   2.228   9.099
 5834SOL    HW118245   3.601   2.242   9.005
 5834SOL    HW218246   3.545   2.171   9.126
 5835SOL     OW18247   3.620   2.788   8.960
 5835SOL    HW118248   3.610   2.881   8.979
 5835SOL    HW218249   3.594   2.779   8.869
 5836SOL     OW18250   2.724   3.235   7.491
 5836SOL    HW118251   2.687   3.263   7.574
 5836SOL    HW218252   2.743   3.316   7.444
 5837SOL     OW18253   2.523   3.647   8.381
 5837SOL    HW118254   2.503   3.739   8.364
 5837SOL    HW218255   2.619   3.643   8.379
 5838SOL     OW18256   2.731   2.831   8.302
 5838SOL    HW118257   2.783   2.760   8.339
 5838SOL    HW218258   2.694   2.876   8.378
 5839SOL     OW18259   2.950   2.866   7.543
 5839SOL    HW118260   2.922   2.907   7.461
 5839SOL    HW218261   3.018   2.804   7.517
 5840SOL     OW18262   3.708   3.415   8.287
 5840SOL    HW118263   3.628   3.397   8.238
 5840SOL    HW218264   3.714   3.345   8.351
 5841SOL     OW18265   2.088   3.160   9.302
 5841SOL    HW118266   2.026   3.096   9.267
 5841SOL    HW218267   2.062   3.173   9.393
 5842SOL     OW18268   1.954   3.088   8.113
 5842SOL    HW118269   1.961   3.046   8.199
 5842SOL    HW218270   2.025   3.050   8.062
 5843SOL     OW18271   2.548   3.269   9.080
 5843SOL    HW118272   2.468   3.228   9.113
 5843SOL    HW218273   2.546   3.357   9.118
 5844SOL     OW18274   3.671   2.036   8.684
 5844SOL    HW118275   3.663   1.941   8.685
 5844SOL    HW218276   3.688   2.058   8.592
 5845SOL     OW18277   3.553   3.351   8.543
 5845SOL    HW118278   3.477   3.328   8.491
 5845SOL    HW218279   3.562   3.279   8.605
 5846SOL     OW18280   2.209   2.407   8.740
 5846SOL    HW118281   2.197   2.324   8.787
 5846SOL    HW218282   2.293   2.397   8.694
 5847SOL     OW18283   2.693   3.441   8.124
 5847SOL    HW118284   2.670   3.498   8.051
 5847SOL    HW218285   2.620   3.380   8.131
 5848SOL     OW18286   3.291   2.092   8.564
 5848SOL    HW118287   3.309   2.007   8.604
 5848SOL    HW218288   3.242   2.140   8.630
 5849SOL     OW18289   2.873   1.879   8.581
 5849SOL    HW118290   2.817   1.814   8.538
 5849SOL    HW218291   2.960   1.838   8.583
 5850SOL     OW18292   2.637   3.198   7.773
 5850SOL    HW118293   2.613   3.106   7.783
 5850SOL    HW218294   2.721   3.206   7.819
 5851SOL     OW18295   2.482   3.414   8.734
 5851SOL    HW118296   2.481   3.496   8.784
 5851SOL    HW218297   2.571   3.409   8.698
 5852SOL     OW18298   3.221   1.920   7.620
 5852SOL    HW118299   3.249   1.854   7.557
 5852SOL    HW218300   3.129   1.900   7.637
 5853SOL     OW18301   3.164   2.330   8.130
 5853SOL    HW118302   3.110   2.409   8.133
 5853SOL    HW218303   3.156   2.291   8.217
 5854SOL     OW18304   3.441   2.055   8.329
 5854SOL    HW118305   3.389   2.082   8.404
 5854SOL    HW218306   3.444   2.133   8.272
 5855SOL     OW18307   1.896   2.923   7.772
 5855SOL    HW118308   1.984   2.940   7.806
 5855SOL    HW218309   1.888   2.827   7.775
 5856SOL     OW18310   2.750   3.527   7.789
 5856SOL    HW118311   2.678   3.509   7.729
 5856SOL    HW218312   2.720   3.600   7.842
 5857SOL     OW18313   2.087   2.512   9.448
 5857SOL    HW118314   2.004   2.482   9.485
 5857SOL    HW218315   2.076   2.504   9.354
 5858SOL     OW18316   1.856   2.286   9.926
 5858SOL    HW118317   1.768   2.281   9.964
 5858SOL    HW218318   1.863   2.208   9.871
 5859SOL     OW18319   2.429   3.159  10.493
 5859SOL    HW118320   2.344   3.167  10.450
 5859SOL    HW218321   2.447   3.247  10.527
 5860SOL     OW18322   3.430   3.375  10.020
 5860SOL    HW118323   3.387   3.351  10.102
 5860SOL    HW218324   3.359   3.378   9.956
 5861SOL     OW18325   2.993   2.561  10.005
 5861SOL    HW118326   3.042   2.643   9.992
 5861SOL    HW218327   2.947   2.574  10.088
 5862SOL     OW18328   3.632   2.465   9.538
 5862SOL    HW118329   3.610   2.458   9.446
 5862SOL    HW218330   3.598   2.385   9.578
 5863SOL     OW18331   2.604   2.998  10.357
 5863SOL    HW118332   2.539   3.037  10.415
 5863SOL    HW218333   2.646   3.072  10.313
 5864SOL     OW18334   2.736   2.623  11.134
 5864SOL    HW118335   2.728   2.692  11.199
 5864SOL    HW218336   2.759   2.669  11.053
 5865SOL     OW18337   2.546   2.855   9.954
 5865SOL    HW118338   2.613   2.849  10.022
 5865SOL    HW218339   2.479   2.912   9.991
 5866SOL     OW18340   2.577   3.013  11.128
 5866SOL    HW118341   2.625   3.090  11.159
 5866SOL    HW218342   2.497   3.049  11.089
 5867SOL     OW18343   2.194   3.278  10.376
 5867SOL    HW118344   2.119   3.240  10.330
 5867SOL    HW218345   2.238   3.332  10.310
 5868SOL     OW18346   3.320   3.364  10.671
 5868SOL    HW118347   3.375   3.442  10.681
 5868SOL    HW218348   3.251   3.375  10.738
 5869SOL     OW18349   3.468   2.304  10.056
 5869SOL    HW118350   3.399   2.324   9.993
 5869SOL    HW218351   3.472   2.381  10.113
 5870SOL     OW18352   2.085   3.577   9.789
 5870SOL    HW118353   2.112   3.637   9.859
 5870SOL    HW218354   2.158   3.577   9.728
 5871SOL     OW18355   3.000   3.204  11.005
 5871SOL    HW118356   3.042   3.196  11.091
 5871SOL    HW218357   2.947   3.124  10.996
 5872SOL     OW18358   2.093   3.305   9.847
 5872SOL    HW118359   2.075   3.399   9.849
 5872SOL    HW218360   2.035   3.268   9.913
 5873SOL     OW18361   2.128   2.960  10.199
 5873SOL    HW118362   2.124   2.872  10.237
 5873SOL    HW218363   2.070   3.012  10.254
 5874SOL     OW18364   2.464   3.646  10.737
 5874SOL    HW118365   2.383   3.633  10.787
 5874SOL    HW218366   2.492   3.735  10.761
 5875SOL     OW18367   2.441   2.852   9.448
 5875SOL    HW118368   2.490   2.896   9.379
 5875SOL    HW218369   2.479   2.885   9.530
 5876SOL     OW18370   3.455   1.990  10.774
 5876SOL    HW118371   3.480   2.070  10.727
 5876SOL    HW218372   3.437   2.019  10.863
 5877SOL     OW18373   1.990   2.521   9.872
 5877SOL    HW118374   1.949   2.436   9.888
 5877SOL    HW218375   1.976   2.570   9.953
 5878SOL     OW18376   3.700   3.610   9.654
 5878SOL    HW118377   3.772   3.585   9.710
 5878SOL    HW218378   3.717   3.702   9.631
 5879SOL     OW18379   1.896   3.449   9.430
 5879SOL    HW118380   1.879   3.357   9.450
 5879SOL    HW218381   1.874   3.495   9.510
 5880SOL     OW18382   3.553   2.783   9.961
 5880SOL    HW118383   3.635   2.738   9.942
 5880SOL    HW218384   3.532   2.831   9.881
 5881SOL     OW18385   3.504   2.963   9.743
 5881SOL    HW118386   3.589   2.966   9.699
 5881SOL    HW218387   3.511   3.028   9.813
 5882SOL     OW18388   1.991   2.600  10.894
 5882SOL    HW118389   2.083   2.620  10.911
 5882SOL    HW218390   1.946   2.683  10.910
 5883SOL     OW18391   2.479   3.255  10.044
 5883SOL    HW118392   2.435   3.171  10.052
 5883SOL    HW218393   2.462   3.282   9.954
 5884SOL     OW18394   3.146   3.097  10.731
 5884SOL    HW118395   3.178   3.029  10.670
 5884SOL    HW218396   3.207   3.092  10.805
 5885SOL     OW18397   2.698   1.866   9.823
 5885SOL    HW118398   2.737   1.949   9.798
 5885SOL    HW218399   2.603   1.881   9.821
 5886SOL     OW18400   2.050   2.828  10.589
 5886SOL    HW118401   2.134   2.786  10.572
 5886SOL    HW218402   1.987   2.777  10.539
 5887SOL     OW18403   3.388   2.862   9.512
 5887SOL    HW118404   3.319   2.805   9.545
 5887SOL    HW218405   3.431   2.896   9.590
 5888SOL     OW18406   3.088   3.669  10.940
 5888SOL    HW118407   3.059   3.730  10.872
 5888SOL    HW218408   3.087   3.583  10.897
 5889SOL     OW18409   3.327   3.282  10.255
 5889SOL    HW118410   3.262   3.297  10.324
 5889SOL    HW218411   3.315   3.190  10.231
 5890SOL     OW18412   3.504   3.610   9.891
 5890SOL    HW118413   3.497   3.574   9.802
 5890SOL    HW218414   3.491   3.535   9.948
 5891SOL     OW18415   2.472   2.603   9.587
 5891SOL    HW118416   2.471   2.682   9.534
 5891SOL    HW218417   2.406   2.619   9.655
 5892SOL     OW18418   3.139   2.229  10.245
 5892SOL    HW118419   3.051   2.193  10.253
 5892SOL    HW218420   3.193   2.174  10.302
 5893SOL     OW18421   3.434   3.540   9.619
 5893SOL    HW118422   3.527   3.561   9.614
 5893SOL    HW218423   3.408   3.521   9.529
 5894SOL     OW18424   2.653   2.476  10.755
 5894SOL    HW118425   2.630   2.454  10.845
 5894SOL    HW218426   2.605   2.413  10.701
 5895SOL     OW18427   3.255   2.336  10.988
 5895SOL    HW118428   3.259   2.380  11.073
 5895SOL    HW218429   3.311   2.259  10.998
 5896SOL     OW18430   2.810   2.747  10.896
 5896SOL    HW118431   2.867   2.680  10.857
 5896SOL    HW218432   2.763   2.784  10.822
 5897SOL     OW18433   2.863   2.276  10.544
 5897SOL    HW118434   2.778   2.295  10.584
 5897SOL    HW218435   2.841   2.232  10.461
 5898SOL     OW18436   2.917   2.561   9.734
 5898SOL    HW118437   2.936   2.555   9.828
 5898SOL    HW218438   2.833   2.516   9.724
 5899SOL     OW18439   1.951   2.683  10.090
 5899SOL    HW118440   2.033   2.683  10.138
 5899SOL    HW218441   1.904   2.760  10.123
 5900SOL     OW18442   1.977   3.719  10.889
 5900SOL    HW118443   1.985   3.697  10.982
 5900SOL    HW218444   1.885   3.701  10.867
 5901SOL     OW18445   2.755   2.217   9.512
 5901SOL    HW118446   2.803   2.268   9.447
 5901SOL    HW218447   2.718   2.143   9.462
 5902SOL     OW18448   3.568   2.432  11.141
 5902SOL    HW118449   3.532   2.506  11.091
 5902SOL    HW218450   3.593   2.369  11.074
 5903SOL     OW18451   3.240   3.003   9.849
 5903SOL    HW118452   3.320   2.991   9.798
 5903SOL    HW218453   3.188   3.066   9.798
 5904SOL     OW18454   2.446   2.064  10.215
 5904SOL    HW118455   2.351   2.076  10.218
 5904SOL    HW218456   2.480   2.147  10.180
 5905SOL     OW18457   2.861   3.307   9.778
 5905SOL    HW118458   2.829   3.383   9.729
 5905SOL    HW218459   2.838   3.326   9.869
 5906SOL     OW18460   2.213   3.676  10.146
 5906SOL    HW118461   2.263   3.597  10.165
 5906SOL    HW218462   2.271   3.748  10.171
 5907SOL     OW18463   3.670   2.923  10.180
 5907SOL    HW118464   3.618   2.893  10.105
 5907SOL    HW218465   3.607   2.926  10.252
 5908SOL     OW18466   3.088   3.401  10.822
 5908SOL    HW118467   3.077   3.328  10.884
 5908SOL    HW218468   3.018   3.389  10.758
 5909SOL     OW18469   2.176   2.819   9.566
 5909SOL    HW118470   2.256   2.839   9.518
 5909SOL    HW218471   2.145   2.736   9.528
 5910SOL     OW18472   3.343   2.614  10.032
 5910SOL    HW118473   3.340   2.572  10.118
 5910SOL    HW218474   3.422   2.668  10.034
 5911SOL     OW18475   2.332   3.129  11.047
 5911SOL    HW118476   2.306   3.134  10.955
 5911SOL    HW218477   2.249   3.127  11.095
 5912SOL     OW18478   2.978   3.645   9.529
 5912SOL    HW118479   2.911   3.601   9.581
 5912SOL    HW218480   3.008   3.578   9.468
 5913SOL     OW18481   3.485   3.250   9.400
 5913SOL    HW118482   3.442   3.333   9.382
 5913SOL    HW218483   3.419   3.184   9.378
 5914SOL     OW18484   2.326   3.601   9.635
 5914SOL    HW118485   2.366   3.663   9.696
 5914SOL    HW218486   2.399   3.573   9.578
 5915SOL     OW18487   3.262   1.969   9.752
 5915SOL    HW118488   3.257   1.943   9.660
 5915SOL    HW218489   3.356   1.976   9.769
 5916SOL     OW18490   2.123   3.652  10.527
 5916SOL    HW118491   2.169   3.579  10.569
 5916SOL    HW218492   2.104   3.621  10.439
 5917SOL     OW18493   2.802   3.566  10.207
 5917SOL    HW118494   2.880   3.515  10.230
 5917SOL    HW218495   2.760   3.515  10.138
 5918SOL     OW18496   2.258   2.543   9.784
 5918SOL    HW118497   2.265   2.459   9.739
 5918SOL    HW218498   2.167   2.549   9.811
 5919SOL     OW18499   3.390   2.086  11.034
 5919SOL    HW118500   3.400   2.106  11.127
 5919SOL    HW218501   3.323   2.018  11.032
 5920SOL     OW18502   2.536   1.984   9.405
 5920SOL    HW118503   2.574   1.903   9.440
 5920SOL    HW218504   2.467   1.954   9.345
 5921SOL     OW18505   2.628   2.147  11.063
 5921SOL    HW118506   2.708   2.095  11.057
 5921SOL    HW218507   2.580   2.108  11.136
 5922SOL     OW18508   2.737   3.383  10.506
 5922SOL    HW118509   2.720   3.346  10.419
 5922SOL    HW218510   2.807   3.328  10.541
 5923SOL     OW18511   3.201   2.453  10.744
 5923SOL    HW118512   3.232   2.421  10.829
 5923SOL    HW218513   3.239   2.540  10.735
 5924SOL     OW18514   2.681   3.250  10.257
 5924SOL    HW118515   2.765   3.239  10.214
 5924SOL    HW218516   2.618   3.257  10.185
 5925SOL     OW18517   2.787   2.368  10.210
 5925SOL    HW118518   2.763   2.361  10.118
 5925SOL    HW218519   2.822   2.282  10.233
 5926SOL     OW18520   2.431   1.914   9.805
 5926SOL    HW118521   2.378   1.895   9.883
 5926SOL    HW218522   2.407   2.003   9.781
 5927SOL     OW18523   3.289   3.064   9.348
 5927SOL    HW118524   3.320   2.989   9.400
 5927SOL    HW218525   3.204   3.085   9.386
 5928SOL     OW18526   2.808   2.114   9.765
 5928SOL    HW118527   2.784   2.149   9.679
 5928SOL    HW218528   2.902   2.128   9.771
 5929SOL     OW18529   2.944   2.548  10.767
 5929SOL    HW118530   2.881   2.476  10.774
 5929SOL    HW218531   3.029   2.504  10.762
 5930SOL     OW18532   3.079   3.435  10.105
 5930SOL    HW118533   3.094   3.501  10.037
 5930SOL    HW218534   3.151   3.447  10.167
 5931SOL     OW18535   2.336   3.016  10.034
 5931SOL    HW118536   2.269   2.999  10.100
 5931SOL    HW218537   2.292   3.003   9.951
 5932SOL     OW18538   3.124   3.653   9.921
 5932SOL    HW118539   3.173   3.718   9.870
 5932SOL    HW218540   3.049   3.701   9.956
 5933SOL     OW18541   2.888   2.395   9.335
 5933SOL    HW118542   2.843   2.477   9.318
 5933SOL    HW218543   2.951   2.416   9.404
 5934SOL     OW18544   1.941   2.426  10.692
 5934SOL    HW118545   2.035   2.421  10.674
 5934SOL    HW218546   1.934   2.484  10.768
 5935SOL     OW18547   2.725   2.317   9.947
 5935SOL    HW118548   2.690   2.375   9.879
 5935SOL    HW218549   2.753   2.239   9.899
 5936SOL     OW18550   2.876   1.917  10.058
 5936SOL    HW118551   2.820   1.907   9.980
 5936SOL    HW218552   2.854   1.842  10.113
 5937SOL     OW18553   3.303   3.022  10.167
 5937SOL    HW118554   3.232   2.958  10.166
 5937SOL    HW218555   3.330   3.030  10.075
 5938SOL     OW18556   3.327   2.473  10.277
 5938SOL    HW118557   3.271   2.396  10.279
 5938SOL    HW218558   3.384   2.464  10.353
 5939SOL     OW18559   3.724   2.676   9.685
 5939SOL    HW118560   3.767   2.620   9.750
 5939SOL    HW218561   3.687   2.614   9.621
 5940SOL     OW18562   2.351   3.282   9.461
 5940SOL    HW118563   2.276   3.255   9.512
 5940SOL    HW218564   2.344   3.233   9.379
 5941SOL     OW18565   3.532   3.128   9.951
 5941SOL    HW118566   3.627   3.129   9.961
 5941SOL    HW218567   3.504   3.217   9.972
 5942SOL     OW18568   3.256   2.434   9.381
 5942SOL    HW118569   3.194   2.413   9.451
 5942SOL    HW218570   3.340   2.404   9.414
 5943SOL     OW18571   3.611   3.094  10.869
 5943SOL    HW118572   3.699   3.060  10.851
 5943SOL    HW218573   3.626   3.184  10.897
 5944SOL     OW18574   2.916   3.213  10.641
 5944SOL    HW118575   2.841   3.182  10.691
 5944SOL    HW218576   2.992   3.172  10.683
 5945SOL     OW18577   3.469   3.493  10.969
 5945SOL    HW118578   3.459   3.527  10.880
 5945SOL    HW218579   3.548   3.439  10.965
 5946SOL     OW18580   2.997   3.073  10.411
 5946SOL    HW118581   2.938   3.111  10.476
 5946SOL    HW218582   2.968   3.108  10.327
 5947SOL     OW18583   3.487   2.955  10.383
 5947SOL    HW118584   3.476   3.017  10.455
 5947SOL    HW218585   3.412   2.972  10.325
 5948SOL     OW18586   2.791   1.950  10.701
 5948SOL    HW118587   2.813   1.932  10.609
 5948SOL    HW218588   2.871   1.990  10.737
 5949SOL     OW18589   2.846   2.977  11.032
 5949SOL    HW118590   2.755   2.994  11.057
 5949SOL    HW218591   2.842   2.898  10.979
 5950SOL     OW18592   2.572   2.924   9.681
 5950SOL    HW118593   2.557   2.903   9.773
 5950SOL    HW218594   2.647   2.871   9.656
 5951SOL     OW18595   2.279   2.675  10.561
 5951SOL    HW118596   2.348   2.689  10.627
 5951SOL    HW218597   2.243   2.589  10.583
 5952SOL     OW18598   3.130   2.237  10.592
 5952SOL    HW118599   3.161   2.315  10.638
 5952SOL    HW218600   3.039   2.258  10.568
 5953SOL     OW18601   1.937   3.435  10.666
 5953SOL    HW118602   1.909   3.510  10.612
 5953SOL    HW218603   2.032   3.435  10.660
 5954SOL     OW18604   2.199   2.981   9.798
 5954SOL    HW118605   2.201   3.055   9.738
 5954SOL    HW218606   2.196   2.904   9.741
 5955SOL     OW18607   2.405   2.386  10.170
 5955SOL    HW118608   2.413   2.450  10.100
 5955SOL    HW218609   2.463   2.417  10.239
 5956SOL     OW18610   3.108   3.212   9.700
 5956SOL    HW118611   3.164   3.283   9.733
 5956SOL    HW218612   3.021   3.234   9.734
 5957SOL     OW18613   3.152   3.323  10.459
 5957SOL    HW118614   3.208   3.329  10.537
 5957SOL    HW218615   3.097   3.246  10.474
 5958SOL     OW18616   3.436   2.479   9.796
 5958SOL    HW118617   3.388   2.529   9.862
 5958SOL    HW218618   3.478   2.544   9.741
 5959SOL     OW18619   2.207   3.393  10.618
 5959SOL    HW118620   2.196   3.347  10.535
 5959SOL    HW218621   2.302   3.404  10.628
 5960SOL     OW18622   2.288   2.606  10.923
 5960SOL    HW118623   2.346   2.648  10.860
 5960SOL    HW218624   2.337   2.530  10.953
 5961SOL     OW18625   3.470   2.642  10.997
 5961SOL    HW118626   3.385   2.685  10.992
 5961SOL    HW218627   3.523   2.685  10.929
 5962SOL     OW18628   2.856   1.995  11.054
 5962SOL    HW118629   2.917   2.068  11.039
 5962SOL    HW218630   2.906   1.917  11.033
 5963SOL     OW18631   2.350   1.901  11.077
 5963SOL    HW118632   2.303   1.851  11.009
 5963SOL    HW218633   2.291   1.973  11.098
 5964SOL     OW18634   2.456   2.736  10.346
 5964SOL    HW118635   2.489   2.826  10.345
 5964SOL    HW218636   2.394   2.734  10.419
 5965SOL     OW18637   3.208   2.721  10.330
 5965SOL    HW118638   3.123   2.705  10.290
 5965SOL    HW218639   3.256   2.638  10.321
 5966SOL     OW18640   3.061   2.389   9.571
 5966SOL    HW118641   3.069   2.310   9.625
 5966SOL    HW218642   3.019   2.453   9.629
 5967SOL     OW18643   1.909   3.174  10.584
 5967SOL    HW118644   1.940   3.119  10.656
 5967SOL    HW218645   1.914   3.263  10.618
 5968SOL     OW18646   2.578   2.484  10.361
 5968SOL    HW118647   2.654   2.469  10.305
 5968SOL    HW218648   2.554   2.575  10.345
 5969SOL     OW18649   3.591   2.822  11.177
 5969SOL    HW118650   3.553   2.753  11.123
 5969SOL    HW218651   3.526   2.837  11.246
 5970SOL     OW18652   3.484   2.242   9.670
 5970SOL    HW118653   3.510   2.175   9.733
 5970SOL    HW218654   3.460   2.317   9.723
 5971SOL     OW18655   2.889   2.619  10.267
 5971SOL    HW118656   2.881   2.636  10.361
 5971SOL    HW218657   2.862   2.527  10.257
 5972SOL     OW18658   2.848   3.430  11.034
 5972SOL    HW118659   2.827   3.470  10.949
 5972SOL    HW218660   2.890   3.347  11.011
 5973SOL     OW18661   3.702   3.355  10.906
 5973SOL    HW118662   3.728   3.387  10.820
 5973SOL    HW218663   3.782   3.362  10.959
 5974SOL     OW18664   2.213   2.778  11.124
 5974SOL    HW118665   2.294   2.802  11.169
 5974SOL    HW218666   2.242   2.718  11.055
 5975SOL     OW18667   3.389   2.134   9.436
 5975SOL    HW118668   3.326   2.068   9.464
 5975SOL    HW218669   3.423   2.171   9.517
 5976SOL     OW18670   3.148   2.686   9.338
 5976SOL    HW118671   3.191   2.600   9.343
 5976SOL    HW218672   3.181   2.725   9.257
 5977SOL     OW18673   2.931   3.201  10.167
 5977SOL    HW118674   2.937   3.129  10.105
 5977SOL    HW218675   2.988   3.269  10.131
 5978SOL     OW18676   2.178   2.683  10.250
 5978SOL    HW118677   2.267   2.706  10.227
 5978SOL    HW218678   2.186   2.601  10.300
 5979SOL     OW18679   2.996   2.236  10.994
 5979SOL    HW118680   2.948   2.288  11.058
 5979SOL    HW218681   3.083   2.276  10.991
 5980SOL     OW18682   3.028   2.060  10.782
 5980SOL    HW118683   3.014   2.122  10.853
 5980SOL    HW218684   3.071   2.111  10.714
 5981SOL     OW18685   1.869   3.177   9.503
 5981SOL    HW118686   1.782   3.193   9.469
 5981SOL    HW218687   1.864   3.088   9.539
 5982SOL     OW18688   1.962   3.634  10.250
 5982SOL    HW118689   1.929   3.557  10.203
 5982SOL    HW218690   2.045   3.655  10.207
 5983SOL     OW18691   2.352   3.439  10.214
 5983SOL    HW118692   2.420   3.502  10.238
 5983SOL    HW218693   2.397   3.376  10.156
 5984SOL     OW18694   2.834   2.648  10.533
 5984SOL    HW118695   2.897   2.630  10.603
 5984SOL    HW218696   2.752   2.613  10.566
 5985SOL     OW18697   1.885   2.398  10.427
 5985SOL    HW118698   1.965   2.407  10.375
 5985SOL    HW218699   1.913   2.412  10.517
 5986SOL     OW18700   3.243   2.795  10.967
 5986SOL    HW118701   3.265   2.888  10.963
 5986SOL    HW218702   3.239   2.768  10.875
 5987SOL     OW18703   2.679   2.433   9.683
 5987SOL    HW118704   2.687   2.361   9.621
 5987SOL    HW218705   2.609   2.488   9.648
 5988SOL     OW18706   3.500   2.463  10.489
 5988SOL    HW118707   3.489   2.402  10.563
 5988SOL    HW218708   3.587   2.443  10.455
 5989SOL     OW18709   2.101   3.409  11.031
 5989SOL    HW118710   2.079   3.476  11.095
 5989SOL    HW218711   2.107   3.328  11.082
 5990SOL     OW18712   2.531   2.320  10.569
 5990SOL    HW118713   2.524   2.231  10.535
 5990SOL    HW218714   2.546   2.374  10.492
 5991SOL     OW18715   2.785   3.531  10.782
 5991SOL    HW118716   2.759   3.491  10.699
 5991SOL    HW218717   2.777   3.625  10.766
 5992SOL     OW18718   2.328   2.383   9.533
 5992SOL    HW118719   2.392   2.454   9.537
 5992SOL    HW218720   2.249   2.424   9.498
 5993SOL     OW18721   2.002   3.006  10.786
 5993SOL    HW118722   2.003   2.957  10.869
 5993SOL    HW218723   2.020   2.940  10.719
 5994SOL     OW18724   3.179   2.904  10.529
 5994SOL    HW118725   3.202   2.841  10.460
 5994SOL    HW218726   3.115   2.962  10.489
 5995SOL     OW18727   3.176   2.717   9.614
 5995SOL    HW118728   3.102   2.685   9.665
 5995SOL    HW218729   3.150   2.703   9.523
 5996SOL     OW18730   3.644   3.598  10.470
 5996SOL    HW118731   3.701   3.624  10.398
 5996SOL    HW218732   3.614   3.510  10.445
 5997SOL     OW18733   3.107   3.594  10.415
 5997SOL    HW118734   3.190   3.617  10.374
 5997SOL    HW218735   3.115   3.501  10.436
 5998SOL     OW18736   1.949   3.127  10.321
 5998SOL    HW118737   1.932   3.143  10.414
 5998SOL    HW218738   1.875   3.073  10.292
 5999SOL     OW18739   2.542   3.529  11.049
 5999SOL    HW118740   2.483   3.605  11.053
 5999SOL    HW218741   2.604   3.551  10.979
 6000SOL     OW18742   3.568   2.018   9.819
 6000SOL    HW118743   3.636   2.005   9.753
 6000SOL    HW218744   3.558   1.931   9.859
 6001SOL     OW18745   3.253   3.430   9.801
 6001SOL    HW118746   3.311   3.465   9.733
 6001SOL    HW218747   3.203   3.506   9.832
 6002SOL     OW18748   2.002   3.649  11.148
 6002SOL    HW118749   1.950   3.586  11.197
 6002SOL    HW218750   2.048   3.699  11.215
 6003SOL     OW18751   3.139   2.790   9.981
 6003SOL    HW118752   3.213   2.731   9.992
 6003SOL    HW218753   3.173   2.862   9.927
 6004SOL     OW18754   2.666   3.138  10.734
 6004SOL    HW118755   2.639   3.179  10.816
 6004SOL    HW218756   2.596   3.160  10.672
 6005SOL     OW18757   2.535   3.482   9.470
 6005SOL    HW118758   2.546   3.501   9.377
 6005SOL    HW218759   2.476   3.407   9.472
 6006SOL     OW18760   3.478   3.590  10.701
 6006SOL    HW118761   3.535   3.591  10.624
 6006SOL    HW218762   3.464   3.682  10.723
 6007SOL     OW18763   3.701   2.043  10.275
 6007SOL    HW118764   3.733   1.955  10.252
 6007SOL    HW218765   3.614   2.049  10.235
 6008SOL     OW18766   3.069   3.462   9.347
 6008SOL    HW118767   3.059   3.370   9.372
 6008SOL    HW218768   3.008   3.475   9.275
 6009SOL     OW18769   2.685   2.869  10.685
 6009SOL    HW118770   2.729   2.864  10.600
 6009SOL    HW218771   2.681   2.963  10.704
 6010SOL     OW18772   2.780   2.774   9.602
 6010SOL    HW118773   2.839   2.806   9.534
 6010SOL    HW218774   2.830   2.706   9.647
 6011SOL     OW18775   3.347   3.500   9.354
 6011SOL    HW118776   3.254   3.484   9.337
 6011SOL    HW218777   3.387   3.503   9.267
 6012SOL     OW18778   2.230   3.167  10.801
 6012SOL    HW118779   2.216   3.243  10.746
 6012SOL    HW218780   2.152   3.113  10.788
 6013SOL     OW18781   3.459   3.141  10.585
 6013SOL    HW118782   3.528   3.131  10.650
 6013SOL    HW218783   3.403   3.210  10.621
 6014SOL     OW18784   2.924   2.973  10.022
 6014SOL    HW118785   2.851   2.922  10.058
 6014SOL    HW218786   2.988   2.907   9.995
 6015SOL     OW18787   2.885   2.104  10.275
 6015SOL    HW118788   2.881   2.057  10.191
 6015SOL    HW218789   2.882   2.035  10.341
 6016SOL     OW18790   2.468   3.353   9.789
 6016SOL    HW118791   2.517   3.302   9.724
 6016SOL    HW218792   2.397   3.393   9.739
 6017SOL     OW18793   3.589   2.249  10.688
 6017SOL    HW118794   3.662   2.312  10.685
 6017SOL    HW218795   3.617   2.178  10.630
 6018SOL     OW18796   2.124   3.203   9.603
 6018SOL    HW118797   2.032   3.199   9.578
 6018SOL    HW218798   2.125   3.244   9.689
 6019SOL     OW18799   1.976   2.890  11.034
 6019SOL    HW118800   1.899   2.865  11.085
 6019SOL    HW218801   2.050   2.850  11.079
 6020SOL     OW18802   2.552   2.037  10.807
 6020SOL    HW118803   2.639   2.016  10.773
 6020SOL    HW218804   2.569   2.084  10.889
 6021SOL     OW18805   1.894   2.275   9.326
 6021SOL    HW118806   1.813   2.224   9.321
 6021SOL    HW218807   1.904   2.312   9.238
 6022SOL     OW18808   3.285   2.720  10.707
 6022SOL    HW118809   3.235   2.781  10.653
 6022SOL    HW218810   3.373   2.722  10.670
 6023SOL     OW18811   3.039   3.195   9.428
 6023SOL    HW118812   2.948   3.166   9.429
 6023SOL    HW218813   3.065   3.196   9.520
 6024SOL     OW18814   2.482   2.691  10.742
 6024SOL    HW118815   2.538   2.768  10.729
 6024SOL    HW218816   2.544   2.618  10.751
 6025SOL     OW18817   3.349   3.646  10.294
 6025SOL    HW118818   3.372   3.705  10.222
 6025SOL    HW218819   3.432   3.609  10.322
 6026SOL     OW18820   2.573   2.423  11.008
 6026SOL    HW118821   2.621   2.480  11.069
 6026SOL    HW218822   2.591   2.334  11.039
 6027SOL     OW18823   3.336   3.055  10.938
 6027SOL    HW118824   3.326   3.071  11.032
 6027SOL    HW218825   3.428   3.072  10.920
 6028SOL     OW18826   2.232   3.606  10.879
 6028SOL    HW118827   2.148   3.650  10.861
 6028SOL    HW218828   2.207   3.522  10.918
 6029SOL     OW18829   3.524   2.741  10.569
 6029SOL    HW118830   3.523   2.656  10.525
 6029SOL    HW218831   3.517   2.804  10.497
 6030SOL     OW18832   3.079   2.182   9.767
 6030SOL    HW118833   3.141   2.108   9.761
 6030SOL    HW218834   3.109   2.232   9.843
 6031SOL     OW18835   2.437   2.595   9.990
 6031SOL    HW118836   2.482   2.677   9.971
 6031SOL    HW218837   2.377   2.582   9.916
 6032SOL     OW18838   3.616   2.228  10.961
 6032SOL    HW118839   3.601   2.242  10.867
 6032SOL    HW218840   3.545   2.171  10.988
 6033SOL     OW18841   3.620   2.788  10.822
 6033SOL    HW118842   3.610   2.881  10.841
 6033SOL    HW218843   3.594   2.779  10.731
 6034SOL     OW18844   2.727   3.228   9.355
 6034SOL    HW118845   2.686   3.256   9.437
 6034SOL    HW218846   2.740   3.310   9.307
 6035SOL     OW18847   2.523   3.647  10.244
 6035SOL    HW118848   2.503   3.739  10.226
 6035SOL    HW218849   2.619   3.643  10.241
 6036SOL     OW18850   2.732   2.833  10.163
 6036SOL    HW118851   2.781   2.760  10.200
 6036SOL    HW218852   2.693   2.876  10.239
 6037SOL     OW18853   2.938   2.849   9.398
 6037SOL    HW118854   2.918   2.902   9.320
 6037SOL    HW218855   3.013   2.795   9.372
 6038SOL     OW18856   3.708   3.415  10.149
 6038SOL    HW118857   3.628   3.397  10.100
 6038SOL    HW218858   3.713   3.345  10.214
 6039SOL     OW18859   2.088   3.160  11.164
 6039SOL    HW118860   2.025   3.097  11.129
 6039SOL    HW218861   2.062   3.173  11.255
 6040SOL     OW18862   1.951   3.090   9.975
 6040SOL    HW118863   1.965   3.046  10.059
 6040SOL    HW218864   2.017   3.052   9.918
 6041SOL     OW18865   2.548   3.269  10.942
 6041SOL    HW118866   2.468   3.228  10.975
 6041SOL    HW218867   2.546   3.357  10.980
 6042SOL     OW18868   3.671   2.037  10.546
 6042SOL    HW118869   3.663   1.941  10.547
 6042SOL    HW218870   3.688   2.058  10.454
 6043SOL     OW18871   3.554   3.351  10.405
 6043SOL    HW118872   3.477   3.328  10.352
 6043SOL    HW218873   3.562   3.279  10.467
 6044SOL     OW18874   2.207   2.407  10.593
 6044SOL    HW118875   2.190   2.323  10.635
 6044SOL    HW218876   2.294   2.397  10.554
 6045SOL     OW18877   2.693   3.441   9.986
 6045SOL    HW118878   2.669   3.498   9.913
 6045SOL    HW218879   2.620   3.379   9.994
 6046SOL     OW18880   3.291   2.092  10.425
 6046SOL    HW118881   3.308   2.006  10.465
 6046SOL    HW218882   3.242   2.140  10.492
 6047SOL     OW18883   2.873   1.879  10.443
 6047SOL    HW118884   2.817   1.813  10.401
 6047SOL    HW218885   2.960   1.839  10.445
 6048SOL     OW18886   2.636   3.195   9.633
 6048SOL    HW118887   2.609   3.103   9.641
 6048SOL    HW218888   2.719   3.199   9.681
 6049SOL     OW18889   2.482   3.414  10.597
 6049SOL    HW118890   2.481   3.496  10.646
 6049SOL    HW218891   2.570   3.409  10.560
 6050SOL     OW18892   3.221   1.913   9.482
 6050SOL    HW118893   3.254   1.842   9.428
 6050SOL    HW218894   3.132   1.887   9.504
 6051SOL     OW18895   3.157   2.326   9.988
 6051SOL    HW118896   3.105   2.406   9.992
 6051SOL    HW218897   3.153   2.290  10.076
 6052SOL     OW18898   3.442   2.056  10.191
 6052SOL    HW118899   3.389   2.082  10.266
 6052SOL    HW218900   3.443   2.133  10.134
 6053SOL     OW18901   1.904   2.926   9.620
 6053SOL    HW118902   1.998   2.918   9.601
 6053SOL    HW218903   1.876   2.838   9.642
 6054SOL     OW18904   2.751   3.526   9.650
 6054SOL    HW118905   2.678   3.507   9.591
 6054SOL    HW218906   2.720   3.600   9.703
 6055SOL     OW18907   2.079   2.514  11.305
 6055SOL    HW118908   1.994   2.498  11.346
 6055SOL    HW218909   2.062   2.512  11.211
 6056SOL     OW18910   1.849   2.290  11.785
 6056SOL    HW118911   1.762   2.286  11.825
 6056SOL    HW218912   1.854   2.213  11.729
 6057SOL     OW18913   2.429   3.159  12.355
 6057SOL    HW118914   2.344   3.167  12.312
 6057SOL    HW218915   2.447   3.247  12.389
 6058SOL     OW18916   3.430   3.375  11.882
 6058SOL    HW118917   3.387   3.351  11.964
 6058SOL    HW218918   3.359   3.378  11.818
 6059SOL     OW18919   2.993   2.561  11.867
 6059SOL    HW118920   3.042   2.643  11.854
 6059SOL    HW218921   2.947   2.574  11.950
 6060SOL     OW18922   3.632   2.465  11.400
 6060SOL    HW118923   3.610   2.458  11.308
 6060SOL    HW218924   3.598   2.385  11.440
 6061SOL     OW18925   2.604   2.998  12.219
 6061SOL    HW118926   2.539   3.037  12.277
 6061SOL    HW218927   2.646   3.072  12.175
 6062SOL     OW18928   2.736   2.623  12.996
 6062SOL    HW118929   2.728   2.693  13.060
 6062SOL    HW218930   2.759   2.668  12.914
 6063SOL     OW18931   2.546   2.855  11.816
 6063SOL    HW118932   2.613   2.849  11.884
 6063SOL    HW218933   2.479   2.912  11.853
 6064SOL     OW18934   2.577   3.013  12.989
 6064SOL    HW118935   2.625   3.090  13.021
 6064SOL    HW218936   2.497   3.049  12.950
 6065SOL     OW18937   2.195   3.278  12.238
 6065SOL    HW118938   2.119   3.241  12.192
 6065SOL    HW218939   2.238   3.332  12.172
 6066SOL     OW18940   3.320   3.364  12.533
 6066SOL    HW118941   3.375   3.442  12.543
 6066SOL    HW218942   3.251   3.375  12.600
 6067SOL     OW18943   3.468   2.304  11.919
 6067SOL    HW118944   3.399   2.324  11.855
 6067SOL    HW218945   3.472   2.381  11.975
 6068SOL     OW18946   2.085   3.577  11.651
 6068SOL    HW118947   2.112   3.637  11.721
 6068SOL    HW218948   2.158   3.577  11.590
 6069SOL     OW18949   3.000   3.204  12.866
 6069SOL    HW118950   3.041   3.197  12.952
 6069SOL    HW218951   2.947   3.124  12.857
 6070SOL     OW18952   2.093   3.305  11.709
 6070SOL    HW118953   2.076   3.399  11.710
 6070SOL    HW218954   2.035   3.268  11.775
 6071SOL     OW18955   2.128   2.960  12.061
 6071SOL    HW118956   2.124   2.872  12.099
 6071SOL    HW218957   2.070   3.012  12.116
 6072SOL     OW18958   2.464   3.646  12.599
 6072SOL    HW118959   2.383   3.633  12.649
 6072SOL    HW218960   2.492   3.735  12.623
 6073SOL     OW18961   2.441   2.852  11.310
 6073SOL    HW118962   2.490   2.896  11.241
 6073SOL    HW218963   2.479   2.884  11.392
 6074SOL     OW18964   3.455   1.990  12.636
 6074SOL    HW118965   3.480   2.070  12.590
 6074SOL    HW218966   3.437   2.018  12.725
 6075SOL     OW18967   1.991   2.522  11.734
 6075SOL    HW118968   1.947   2.438  11.748
 6075SOL    HW218969   1.977   2.570  11.815
 6076SOL     OW18970   3.700   3.610  11.515
 6076SOL    HW118971   3.772   3.585  11.572
 6076SOL    HW218972   3.717   3.702  11.493
 6077SOL     OW18973   1.896   3.449  11.292
 6077SOL    HW118974   1.879   3.357  11.312
 6077SOL    HW218975   1.874   3.496  11.372
 6078SOL     OW18976   3.553   2.783  11.823
 6078SOL    HW118977   3.635   2.738  11.804
 6078SOL    HW218978   3.532   2.831  11.743
 6079SOL     OW18979   3.504   2.963  11.605
 6079SOL    HW118980   3.589   2.966  11.561
 6079SOL    HW218981   3.511   3.028  11.675
 6080SOL     OW18982   1.991   2.600  12.756
 6080SOL    HW118983   2.083   2.620  12.773
 6080SOL    HW218984   1.946   2.683  12.772
 6081SOL     OW18985   2.479   3.255  11.906
 6081SOL    HW118986   2.435   3.171  11.914
 6081SOL    HW218987   2.462   3.282  11.816
 6082SOL     OW18988   3.147   3.097  12.593
 6082SOL    HW118989   3.178   3.029  12.532
 6082SOL    HW218990   3.207   3.092  12.667
 6083SOL     OW18991   2.698   1.865  11.685
 6083SOL    HW118992   2.736   1.949  11.660
 6083SOL    HW218993   2.603   1.881  11.684
 6084SOL     OW18994   2.050   2.828  12.451
 6084SOL    HW118995   2.134   2.786  12.434
 6084SOL    HW218996   1.987   2.776  12.402
 6085SOL     OW18997   3.388   2.862  11.374
 6085SOL    HW118998   3.319   2.805  11.407
 6085SOL    HW218999   3.431   2.896  11.452
 6086SOL     OW19000   3.088   3.669  12.801
 6086SOL    HW119001   3.059   3.730  12.733
 6086SOL    HW219002   3.087   3.583  12.758
 6087SOL     OW19003   3.327   3.282  12.118
 6087SOL    HW119004   3.262   3.297  12.186
 6087SOL    HW219005   3.315   3.190  12.093
 6088SOL     OW19006   3.504   3.610  11.753
 6088SOL    HW119007   3.497   3.574  11.664
 6088SOL    HW219008   3.491   3.535  11.810
 6089SOL     OW19009   2.471   2.601  11.448
 6089SOL    HW119010   2.472   2.681  11.395
 6089SOL    HW219011   2.407   2.618  11.517
 6090SOL     OW19012   3.139   2.229  12.107
 6090SOL    HW119013   3.051   2.193  12.115
 6090SOL    HW219014   3.193   2.174  12.164
 6091SOL     OW19015   3.434   3.540  11.481
 6091SOL    HW119016   3.527   3.561  11.476
 6091SOL    HW219017   3.408   3.521  11.391
 6092SOL     OW19018   2.654   2.477  12.618
 6092SOL    HW119019   2.630   2.454  12.708
 6092SOL    HW219020   2.607   2.413  12.564
 6093SOL     OW19021   3.255   2.336  12.850
 6093SOL    HW119022   3.259   2.380  12.935
 6093SOL    HW219023   3.311   2.259  12.860
 6094SOL     OW19024   2.810   2.747  12.758
 6094SOL    HW119025   2.867   2.680  12.719
 6094SOL    HW219026   2.763   2.784  12.684
 6095SOL     OW19027   2.862   2.276  12.406
 6095SOL    HW119028   2.777   2.294  12.446
 6095SOL    HW219029   2.841   2.232  12.323
 6096SOL     OW19030   2.917   2.561  11.596
 6096SOL    HW119031   2.936   2.555  11.690
 6096SOL    HW219032   2.833   2.516  11.586
 6097SOL     OW19033   1.950   2.684  11.951
 6097SOL    HW119034   2.033   2.683  12.000
 6097SOL    HW219035   1.903   2.760  11.986
 6098SOL     OW19036   1.977   3.719  12.751
 6098SOL    HW119037   1.985   3.698  12.844
 6098SOL    HW219038   1.886   3.701  12.730
 6099SOL     OW19039   2.755   2.217  11.373
 6099SOL    HW119040   2.803   2.269  11.309
 6099SOL    HW219041   2.721   2.143  11.324
 6100SOL     OW19042   3.567   2.433  13.003
 6100SOL    HW119043   3.531   2.506  12.953
 6100SOL    HW219044   3.593   2.369  12.936
 6101SOL     OW19045   3.240   3.003  11.711
 6101SOL    HW119046   3.320   2.991  11.660
 6101SOL    HW219047   3.188   3.066  11.660
 6102SOL     OW19048   2.442   2.064  12.078
 6102SOL    HW119049   2.347   2.076  12.076
 6102SOL    HW219050   2.478   2.145  12.042
 6103SOL     OW19051   2.861   3.307  11.640
 6103SOL    HW119052   2.829   3.383  11.591
 6103SOL    HW219053   2.838   3.326  11.731
 6104SOL     OW19054   2.213   3.676  12.008
 6104SOL    HW119055   2.263   3.597  12.027
 6104SOL    HW219056   2.271   3.748  12.033
 6105SOL     OW19057   3.670   2.923  12.042
 6105SOL    HW119058   3.618   2.893  11.967
 6105SOL    HW219059   3.607   2.926  12.114
 6106SOL     OW19060   3.088   3.401  12.684
 6106SOL    HW119061   3.077   3.328  12.746
 6106SOL    HW219062   3.018   3.389  12.620
 6107SOL     OW19063   2.176   2.820  11.428
 6107SOL    HW119064   2.257   2.841  11.381
 6107SOL    HW219065   2.146   2.738  11.387
 6108SOL     OW19066   3.343   2.614  11.894
 6108SOL    HW119067   3.340   2.572  11.980
 6108SOL    HW219068   3.422   2.668  11.896
 6109SOL     OW19069   2.332   3.129  12.909
 6109SOL    HW119070   2.306   3.134  12.817
 6109SOL    HW219071   2.249   3.127  12.957
 6110SOL     OW19072   2.978   3.645  11.391
 6110SOL    HW119073   2.911   3.601  11.443
 6110SOL    HW219074   3.008   3.578  11.330
 6111SOL     OW19075   3.485   3.250  11.262
 6111SOL    HW119076   3.442   3.333  11.244
 6111SOL    HW219077   3.419   3.184  11.240
 6112SOL     OW19078   2.327   3.600  11.497
 6112SOL    HW119079   2.366   3.663  11.558
 6112SOL    HW219080   2.399   3.573  11.440
 6113SOL     OW19081   3.262   1.969  11.614
 6113SOL    HW119082   3.257   1.943  11.522
 6113SOL    HW219083   3.356   1.976  11.632
 6114SOL     OW19084   2.123   3.652  12.389
 6114SOL    HW119085   2.169   3.579  12.431
 6114SOL    HW219086   2.104   3.621  12.301
 6115SOL     OW19087   2.802   3.566  12.069
 6115SOL    HW119088   2.880   3.515  12.092
 6115SOL    HW219089   2.760   3.515  12.000
 6116SOL     OW19090   2.258   2.543  11.645
 6116SOL    HW119091   2.264   2.459  11.598
 6116SOL    HW219092   2.167   2.548  11.673
 6117SOL     OW19093   3.390   2.086  12.896
 6117SOL    HW119094   3.400   2.106  12.989
 6117SOL    HW219095   3.323   2.018  12.893
 6118SOL     OW19096   2.532   1.984  11.265
 6118SOL    HW119097   2.569   1.904  11.300
 6118SOL    HW219098   2.463   1.955  11.205
 6119SOL     OW19099   2.628   2.148  12.925
 6119SOL    HW119100   2.708   2.095  12.918
 6119SOL    HW219101   2.580   2.109  12.997
 6120SOL     OW19102   2.737   3.383  12.368
 6120SOL    HW119103   2.720   3.346  12.281
 6120SOL    HW219104   2.807   3.328  12.403
 6121SOL     OW19105   3.201   2.453  12.606
 6121SOL    HW119106   3.232   2.421  12.691
 6121SOL    HW219107   3.239   2.540  12.597
 6122SOL     OW19108   2.681   3.249  12.119
 6122SOL    HW119109   2.766   3.239  12.076
 6122SOL    HW219110   2.618   3.257  12.047
 6123SOL     OW19111   2.787   2.368  12.072
 6123SOL    HW119112   2.763   2.361  11.980
 6123SOL    HW219113   2.822   2.282  12.095
 6124SOL     OW19114   2.430   1.914  11.668
 6124SOL    HW119115   2.377   1.896  11.745
 6124SOL    HW219116   2.407   2.003  11.642
 6125SOL     OW19117   3.289   3.064  11.210
 6125SOL    HW119118   3.320   2.989  11.262
 6125SOL    HW219119   3.204   3.085  11.248
 6126SOL     OW19120   2.808   2.114  11.627
 6126SOL    HW119121   2.784   2.149  11.541
 6126SOL    HW219122   2.902   2.128  11.633
 6127SOL     OW19123   2.944   2.548  12.629
 6127SOL    HW119124   2.881   2.476  12.636
 6127SOL    HW219125   3.029   2.504  12.624
 6128SOL     OW19126   3.079   3.435  11.967
 6128SOL    HW119127   3.094   3.501  11.899
 6128SOL    HW219128   3.151   3.447  12.029
 6129SOL     OW19129   2.336   3.016  11.896
 6129SOL    HW119130   2.269   2.999  11.962
 6129SOL    HW219131   2.292   3.004  11.813
 6130SOL     OW19132   3.124   3.653  11.783
 6130SOL    HW119133   3.173   3.718  11.732
 6130SOL    HW219134   3.049   3.701  11.818
 6131SOL     OW19135   2.888   2.395  11.197
 6131SOL    HW119136   2.843   2.478  11.179
 6131SOL    HW219137   2.951   2.416  11.266
 6132SOL     OW19138   1.941   2.426  12.554
 6132SOL    HW119139   2.035   2.422  12.536
 6132SOL    HW219140   1.934   2.484  12.630
 6133SOL     OW19141   2.725   2.317  11.809
 6133SOL    HW119142   2.690   2.375  11.741
 6133SOL    HW219143   2.753   2.239  11.761
 6134SOL     OW19144   2.876   1.917  11.920
 6134SOL    HW119145   2.821   1.906  11.842
 6134SOL    HW219146   2.854   1.842  11.975
 6135SOL     OW19147   3.303   3.022  12.029
 6135SOL    HW119148   3.232   2.958  12.028
 6135SOL    HW219149   3.329   3.030  11.937
 6136SOL     OW19150   3.327   2.473  12.139
 6136SOL    HW119151   3.271   2.396  12.142
 6136SOL    HW219152   3.384   2.464  12.215
 6137SOL     OW19153   3.724   2.676  11.547
 6137SOL    HW119154   3.767   2.620  11.612
 6137SOL    HW219155   3.687   2.614  11.483
 6138SOL     OW19156   2.351   3.282  11.323
 6138SOL    HW119157   2.276   3.255  11.374
 6138SOL    HW219158   2.344   3.233  11.241
 6139SOL     OW19159   3.532   3.128  11.813
 6139SOL    HW119160   3.627   3.129  11.823
 6139SOL    HW219161   3.504   3.217  11.834
 6140SOL     OW19162   3.256   2.434  11.243
 6140SOL    HW119163   3.194   2.413  11.313
 6140SOL    HW219164   3.340   2.404  11.276
 6141SOL     OW19165   3.611   3.094  12.731
 6141SOL    HW119166   3.699   3.060  12.713
 6141SOL    HW219167   3.626   3.184  12.760
 6142SOL     OW19168   2.916   3.213  12.502
 6142SOL    HW119169   2.841   3.182  12.553
 6142SOL    HW219170   2.992   3.172  12.545
 6143SOL     OW19171   3.469   3.492  12.831
 6143SOL    HW119172   3.459   3.527  12.742
 6143SOL    HW219173   3.548   3.439  12.827
 6144SOL     OW19174   2.997   3.072  12.273
 6144SOL    HW119175   2.938   3.111  12.338
 6144SOL    HW219176   2.968   3.108  12.189
 6145SOL     OW19177   3.487   2.955  12.245
 6145SOL    HW119178   3.476   3.017  12.317
 6145SOL    HW219179   3.412   2.972  12.188
 6146SOL     OW19180   2.791   1.950  12.563
 6146SOL    HW119181   2.813   1.932  12.471
 6146SOL    HW219182   2.870   1.990  12.599
 6147SOL     OW19183   2.846   2.977  12.895
 6147SOL    HW119184   2.755   2.994  12.919
 6147SOL    HW219185   2.842   2.898  12.841
 6148SOL     OW19186   2.572   2.924  11.543
 6148SOL    HW119187   2.557   2.903  11.636
 6148SOL    HW219188   2.647   2.871  11.518
 6149SOL     OW19189   2.279   2.676  12.423
 6149SOL    HW119190   2.348   2.689  12.489
 6149SOL    HW219191   2.243   2.590  12.444
 6150SOL     OW19192   3.129   2.237  12.454
 6150SOL    HW119193   3.161   2.315  12.500
 6150SOL    HW219194   3.039   2.258  12.430
 6151SOL     OW19195   1.937   3.435  12.528
 6151SOL    HW119196   1.909   3.510  12.475
 6151SOL    HW219197   2.033   3.435  12.522
 6152SOL     OW19198   2.199   2.981  11.660
 6152SOL    HW119199   2.201   3.055  11.600
 6152SOL    HW219200   2.196   2.904  11.603
 6153SOL     OW19201   2.403   2.387  12.033
 6153SOL    HW119202   2.412   2.452  11.962
 6153SOL    HW219203   2.462   2.418  12.101
 6154SOL     OW19204   3.108   3.212  11.562
 6154SOL    HW119205   3.164   3.283  11.595
 6154SOL    HW219206   3.021   3.234  11.596
 6155SOL     OW19207   3.152   3.323  12.321
 6155SOL    HW119208   3.208   3.329  12.399
 6155SOL    HW219209   3.097   3.246  12.337
 6156SOL     OW19210   3.436   2.479  11.658
 6156SOL    HW119211   3.388   2.529  11.724
 6156SOL    HW219212   3.478   2.545  11.603
 6157SOL     OW19213   2.207   3.393  12.480
 6157SOL    HW119214   2.196   3.347  12.397
 6157SOL    HW219215   2.302   3.404  12.490
 6158SOL     OW19216   2.288   2.607  12.786
 6158SOL    HW119217   2.347   2.648  12.722
 6158SOL    HW219218   2.337   2.530  12.816
 6159SOL     OW19219   3.470   2.642  12.859
 6159SOL    HW119220   3.385   2.685  12.853
 6159SOL    HW219221   3.523   2.685  12.791
 6160SOL     OW19222   2.856   1.996  12.916
 6160SOL    HW119223   2.917   2.068  12.901
 6160SOL    HW219224   2.906   1.917  12.895
 6161SOL     OW19225   2.350   1.901  12.938
 6161SOL    HW119226   2.303   1.852  12.870
 6161SOL    HW219227   2.291   1.974  12.959
 6162SOL     OW19228   2.456   2.736  12.208
 6162SOL    HW119229   2.490   2.826  12.207
 6162SOL    HW219230   2.394   2.735  12.281
 6163SOL     OW19231   3.208   2.721  12.192
 6163SOL    HW119232   3.123   2.705  12.152
 6163SOL    HW219233   3.256   2.638  12.182
 6164SOL     OW19234   3.061   2.389  11.433
 6164SOL    HW119235   3.069   2.310  11.487
 6164SOL    HW219236   3.019   2.453  11.491
 6165SOL     OW19237   1.909   3.174  12.446
 6165SOL    HW119238   1.940   3.119  12.518
 6165SOL    HW219239   1.914   3.263  12.480
 6166SOL     OW19240   2.578   2.484  12.223
 6166SOL    HW119241   2.654   2.469  12.167
 6166SOL    HW219242   2.555   2.575  12.207
 6167SOL     OW19243   3.592   2.820  13.041
 6167SOL    HW119244   3.553   2.752  12.985
 6167SOL    HW219245   3.526   2.836  13.108
 6168SOL     OW19246   3.484   2.242  11.532
 6168SOL    HW119247   3.510   2.175  11.595
 6168SOL    HW219248   3.460   2.318  11.585
 6169SOL     OW19249   2.889   2.619  12.129
 6169SOL    HW119250   2.881   2.636  12.223
 6169SOL    HW219251   2.862   2.527  12.119
 6170SOL     OW19252   2.848   3.430  12.895
 6170SOL    HW119253   2.827   3.470  12.811
 6170SOL    HW219254   2.889   3.347  12.873
 6171SOL     OW19255   3.702   3.355  12.768
 6171SOL    HW119256   3.728   3.387  12.682
 6171SOL    HW219257   3.781   3.363  12.821
 6172SOL     OW19258   2.213   2.778  12.987
 6172SOL    HW119259   2.294   2.803  13.031
 6172SOL    HW219260   2.242   2.718  12.917
 6173SOL     OW19261   3.389   2.134  11.298
 6173SOL    HW119262   3.326   2.068  11.326
 6173SOL    HW219263   3.423   2.171  11.379
 6174SOL     OW19264   3.148   2.686  11.200
 6174SOL    HW119265   3.191   2.600  11.205
 6174SOL    HW219266   3.181   2.725  11.119
 6175SOL     OW19267   2.931   3.201  12.029
 6175SOL    HW119268   2.937   3.129  11.966
 6175SOL    HW219269   2.988   3.269  11.993
 6176SOL     OW19270   2.177   2.683  12.112
 6176SOL    HW119271   2.267   2.706  12.089
 6176SOL    HW219272   2.186   2.602  12.162
 6177SOL     OW19273   2.997   2.236  12.856
 6177SOL    HW119274   2.948   2.288  12.920
 6177SOL    HW219275   3.084   2.276  12.853
 6178SOL     OW19276   3.028   2.060  12.644
 6178SOL    HW119277   3.014   2.122  12.715
 6178SOL    HW219278   3.071   2.111  12.576
 6179SOL     OW19279   1.869   3.176  11.365
 6179SOL    HW119280   1.782   3.194  11.330
 6179SOL    HW219281   1.864   3.088  11.401
 6180SOL     OW19282   1.962   3.634  12.112
 6180SOL    HW119283   1.929   3.557  12.065
 6180SOL    HW219284   2.044   3.655  12.069
 6181SOL     OW19285   2.352   3.439  12.076
 6181SOL    HW119286   2.420   3.502  12.100
 6181SOL    HW219287   2.397   3.376  12.018
 6182SOL     OW19288   2.834   2.648  12.395
 6182SOL    HW119289   2.897   2.630  12.465
 6182SOL    HW219290   2.751   2.613  12.428
 6183SOL     OW19291   1.885   2.397  12.289
 6183SOL    HW119292   1.965   2.408  12.238
 6183SOL    HW219293   1.913   2.411  12.380
 6184SOL     OW19294   3.243   2.795  12.829
 6184SOL    HW119295   3.265   2.888  12.825
 6184SOL    HW219296   3.239   2.768  12.737
 6185SOL     OW19297   2.679   2.433  11.545
 6185SOL    HW119298   2.687   2.360  11.483
 6185SOL    HW219299   2.609   2.487  11.510
 6186SOL     OW19300   3.500   2.463  12.351
 6186SOL    HW119301   3.489   2.402  12.425
 6186SOL    HW219302   3.587   2.443  12.317
 6187SOL     OW19303   2.101   3.409  12.893
 6187SOL    HW119304   2.079   3.477  12.957
 6187SOL    HW219305   2.107   3.329  12.945
 6188SOL     OW19306   2.535   2.319  12.432
 6188SOL    HW119307   2.524   2.231  12.397
 6188SOL    HW219308   2.548   2.374  12.354
 6189SOL     OW19309   2.785   3.531  12.644
 6189SOL    HW119310   2.759   3.491  12.561
 6189SOL    HW219311   2.777   3.625  12.628
 6190SOL     OW19312   2.321   2.385  11.394
 6190SOL    HW119313   2.387   2.454  11.397
 6190SOL    HW219314   2.243   2.428  11.358
 6191SOL     OW19315   2.002   3.006  12.648
 6191SOL    HW119316   2.003   2.957  12.731
 6191SOL    HW219317   2.020   2.940  12.581
 6192SOL     OW19318   3.180   2.904  12.391
 6192SOL    HW119319   3.202   2.841  12.322
 6192SOL    HW219320   3.115   2.962  12.351
 6193SOL     OW19321   3.176   2.717  11.476
 6193SOL    HW119322   3.102   2.685  11.527
 6193SOL    HW219323   3.150   2.703  11.385
 6194SOL     OW19324   3.644   3.598  12.331
 6194SOL    HW119325   3.701   3.624  12.260
 6194SOL    HW219326   3.613   3.510  12.307
 6195SOL     OW19327   3.107   3.594  12.277
 6195SOL    HW119328   3.190   3.617  12.236
 6195SOL    HW219329   3.115   3.501  12.298
 6196SOL     OW19330   1.949   3.127  12.183
 6196SOL    HW119331   1.932   3.143  12.276
 6196SOL    HW219332   1.875   3.073  12.154
 6197SOL     OW19333   2.542   3.529  12.911
 6197SOL    HW119334   2.483   3.604  12.915
 6197SOL    HW219335   2.604   3.551  12.841
 6198SOL     OW19336   3.568   2.018  11.681
 6198SOL    HW119337   3.636   2.005  11.615
 6198SOL    HW219338   3.558   1.931  11.721
 6199SOL     OW19339   3.253   3.430  11.663
 6199SOL    HW119340   3.311   3.465  11.595
 6199SOL    HW219341   3.203   3.506  11.694
 6200SOL     OW19342   2.001   3.649  13.010
 6200SOL    HW119343   1.949   3.586  13.059
 6200SOL    HW219344   2.048   3.699  13.077
 6201SOL     OW19345   3.139   2.790  11.843
 6201SOL    HW119346   3.213   2.731  11.854
 6201SOL    HW219347   3.173   2.862  11.789
 6202SOL     OW19348   2.666   3.138  12.596
 6202SOL    HW119349   2.639   3.179  12.678
 6202SOL    HW219350   2.596   3.160  12.534
 6203SOL     OW19351   2.535   3.482  11.332
 6203SOL    HW119352   2.546   3.501  11.239
 6203SOL    HW219353   2.476   3.407  11.334
 6204SOL     OW19354   3.478   3.590  12.563
 6204SOL    HW119355   3.536   3.591  12.486
 6204SOL    HW219356   3.465   3.682  12.584
 6205SOL     OW19357   3.701   2.043  12.137
 6205SOL    HW119358   3.733   1.955  12.114
 6205SOL    HW219359   3.614   2.049  12.097
 6206SOL     OW19360   3.069   3.462  11.209
 6206SOL    HW119361   3.059   3.370  11.234
 6206SOL    HW219362   3.008   3.475  11.137
 6207SOL     OW19363   2.685   2.869  12.547
 6207SOL    HW119364   2.729   2.864  12.462
 6207SOL    HW219365   2.681   2.963  12.566
 6208SOL     OW19366   2.780   2.773  11.464
 6208SOL    HW119367   2.839   2.806  11.396
 6208SOL    HW219368   2.830   2.705  11.509
 6209SOL     OW19369   3.347   3.499  11.216
 6209SOL    HW119370   3.254   3.484  11.199
 6209SOL    HW219371   3.387   3.503  11.129
 6210SOL     OW19372   2.230   3.166  12.663
 6210SOL    HW119373   2.216   3.243  12.608
 6210SOL    HW219374   2.151   3.113  12.650
 6211SOL     OW19375   3.459   3.142  12.447
 6211SOL    HW119376   3.528   3.131  12.513
 6211SOL    HW219377   3.403   3.210  12.483
 6212SOL     OW19378   2.924   2.973  11.883
 6212SOL    HW119379   2.851   2.922  11.920
 6212SOL    HW219380   2.988   2.907  11.857
 6213SOL     OW19381   2.884   2.104  12.137
 6213SOL    HW119382   2.881   2.057  12.053
 6213SOL    HW219383   2.882   2.035  12.203
 6214SOL     OW19384   2.468   3.353  11.651
 6214SOL    HW119385   2.517   3.302  11.586
 6214SOL    HW219386   2.397   3.394  11.601
 6215SOL     OW19387   3.589   2.249  12.550
 6215SOL    HW119388   3.662   2.312  12.547
 6215SOL    HW219389   3.617   2.178  12.492
 6216SOL     OW19390   2.124   3.202  11.465
 6216SOL    HW119391   2.032   3.199  11.440
 6216SOL    HW219392   2.125   3.244  11.551
 6217SOL     OW19393   1.976   2.889  12.895
 6217SOL    HW119394   1.899   2.865  12.947
 6217SOL    HW219395   2.050   2.849  12.942
 6218SOL     OW19396   2.552   2.037  12.670
 6218SOL    HW119397   2.639   2.016  12.636
 6218SOL    HW219398   2.568   2.084  12.751
 6219SOL     OW19399   3.285   2.720  12.569
 6219SOL    HW119400   3.235   2.781  12.515
 6219SOL    HW219401   3.373   2.722  12.532
 6220SOL     OW19402   3.039   3.195  11.290
 6220SOL    HW119403   2.948   3.167  11.291
 6220SOL    HW219404   3.065   3.196  11.382
 6221SOL     OW19405   2.482   2.691  12.604
 6221SOL    HW119406   2.537   2.768  12.591
 6221SOL    HW219407   2.544   2.619  12.613
 6222SOL     OW19408   3.349   3.646  12.156
 6222SOL    HW119409   3.372   3.705  12.084
 6222SOL    HW219410   3.432   3.609  12.184
 6223SOL     OW19411   2.573   2.423  12.871
 6223SOL    HW119412   2.621   2.480  12.931
 6223SOL    HW219413   2.591   2.334  12.901
 6224SOL     OW19414   3.336   3.056  12.800
 6224SOL    HW119415   3.326   3.071  12.894
 6224SOL    HW219416   3.428   3.072  12.782
 6225SOL     OW19417   2.231   3.606  12.741
 6225SOL    HW119418   2.148   3.650  12.723
 6225SOL    HW219419   2.207   3.522  12.780
 6226SOL     OW19420   3.524   2.741  12.431
 6226SOL    HW119421   3.523   2.656  12.387
 6226SOL    HW219422   3.517   2.804  12.359
 6227SOL     OW19423   3.079   2.181  11.629
 6227SOL    HW119424   3.141   2.108  11.623
 6227SOL    HW219425   3.109   2.231  11.705
 6228SOL     OW19426   2.437   2.595  11.851
 6228SOL    HW119427   2.481   2.677  11.833
 6228SOL    HW219428   2.377   2.582  11.778
 6229SOL     OW19429   3.616   2.229  12.823
 6229SOL    HW119430   3.601   2.242  12.729
 6229SOL    HW219431   3.545   2.171  12.850
 6230SOL     OW19432   3.620   2.788  12.684
 6230SOL    HW119433   3.610   2.881  12.703
 6230SOL    HW219434   3.594   2.779  12.593
 6231SOL     OW19435   2.727   3.228  11.217
 6231SOL    HW119436   2.686   3.256  11.299
 6231SOL    HW219437   2.740   3.310  11.168
 6232SOL     OW19438   2.523   3.647  12.106
 6232SOL    HW119439   2.503   3.739  12.088
 6232SOL    HW219440   2.619   3.643  12.103
 6233SOL     OW19441   2.732   2.833  12.025
 6233SOL    HW119442   2.781   2.760  12.062
 6233SOL    HW219443   2.693   2.876  12.101
 6234SOL     OW19444   2.938   2.849  11.260
 6234SOL    HW119445   2.918   2.902  11.182
 6234SOL    HW219446   3.012   2.795  11.234
 6235SOL     OW19447   3.708   3.415  12.011
 6235SOL    HW119448   3.628   3.397  11.962
 6235SOL    HW219449   3.713   3.345  12.076
 6236SOL     OW19450   2.088   3.160  13.026
 6236SOL    HW119451   2.025   3.097  12.991
 6236SOL    HW219452   2.061   3.174  13.116
 6237SOL     OW19453   1.951   3.090  11.837
 6237SOL    HW119454   1.966   3.046  11.922
 6237SOL    HW219455   2.018   3.052  11.780
 6238SOL     OW19456   2.548   3.269  12.804
 6238SOL    HW119457   2.468   3.228  12.837
 6238SOL    HW219458   2.546   3.357  12.841
 6239SOL     OW19459   3.670   2.037  12.408
 6239SOL    HW119460   3.663   1.941  12.409
 6239SOL    HW219461   3.688   2.058  12.316
 6240SOL     OW19462   3.554   3.351  12.267
 6240SOL    HW119463   3.477   3.328  12.214
 6240SOL    HW219464   3.562   3.279  12.329
 6241SOL     OW19465   2.205   2.408  12.450
 6241SOL    HW119466   2.188   2.322  12.490
 6241SOL    HW219467   2.292   2.398  12.411
 6242SOL     OW19468   2.693   3.441  11.848
 6242SOL    HW119469   2.669   3.498  11.775
 6242SOL    HW219470   2.620   3.379  11.856
 6243SOL     OW19471   3.291   2.092  12.287
 6243SOL    HW119472   3.308   2.006  12.327
 6243SOL    HW219473   3.242   2.140  12.354
 6244SOL     OW19474   2.873   1.879  12.305
 6244SOL    HW119475   2.817   1.813  12.264
 6244SOL    HW219476   2.960   1.839  12.307
 6245SOL     OW19477   2.636   3.195  11.495
 6245SOL    HW119478   2.609   3.103  11.503
 6245SOL    HW219479   2.718   3.200  11.543
 6246SOL     OW19480   2.482   3.414  12.458
 6246SOL    HW119481   2.481   3.496  12.508
 6246SOL    HW219482   2.570   3.409  12.422
 6247SOL     OW19483   3.221   1.913  11.344
 6247SOL    HW119484   3.255   1.842  11.290
 6247SOL    HW219485   3.132   1.887  11.365
 6248SOL     OW19486   3.156   2.326  11.850
 6248SOL    HW119487   3.105   2.407  11.854
 6248SOL    HW219488   3.153   2.290  11.938
 6249SOL     OW19489   3.442   2.056  12.053
 6249SOL    HW119490   3.389   2.082  12.128
 6249SOL    HW219491   3.443   2.133  11.996
 6250SOL     OW19492   1.904   2.926  11.482
 6250SOL    HW119493   1.997   2.918  11.463
 6250SOL    HW219494   1.876   2.837  11.504
 6251SOL     OW19495   2.751   3.526  11.512
 6251SOL    HW119496   2.678   3.507  11.453
 6251SOL    HW219497   2.720   3.600  11.565
 6252SOL     OW19498   2.078   2.512  13.169
 6252SOL    HW119499   1.992   2.496  13.208
 6252SOL    HW219500   2.062   2.512  13.075
 6253SOL     OW19501   1.859   2.269  13.649
 6253SOL    HW119502   1.764   2.276  13.661
 6253SOL    HW219503   1.869   2.213  13.572
 6254SOL     OW19504   3.377   3.355  13.732
 6254SOL    HW119505   3.328   3.278  13.761
 6254SOL    HW219506   3.333   3.381  13.651
 6255SOL     OW19507   2.993   2.557  13.725
 6255SOL    HW119508   3.043   2.637  13.709
 6255SOL    HW219509   2.945   2.576  13.806
 6256SOL     OW19510   3.647   2.463  13.259
 6256SOL    HW119511   3.619   2.457  13.167
 6256SOL    HW219512   3.604   2.390  13.302
 6257SOL     OW19513   2.543   2.871  13.671
 6257SOL    HW119514   2.596   2.854  13.749
 6257SOL    HW219515   2.468   2.921  13.703
 6258SOL     OW19516   3.478   2.320  13.755
 6258SOL    HW119517   3.391   2.306  13.718
 6258SOL    HW219518   3.469   2.400  13.808
 6259SOL     OW19519   2.089   3.578  13.522
 6259SOL    HW119520   2.124   3.627  13.596
 6259SOL    HW219521   2.159   3.579  13.457
 6260SOL     OW19522   2.095   3.303  13.570
 6260SOL    HW119523   2.077   3.397  13.574
 6260SOL    HW219524   2.035   3.265  13.635
 6261SOL     OW19525   2.102   2.975   0.031
 6261SOL    HW119526   2.122   2.912   0.100
 6261SOL    HW219527   2.032   3.029   0.066
 6262SOL     OW19528   2.440   2.852  13.170
 6262SOL    HW119529   2.489   2.896  13.100
 6262SOL    HW219530   2.478   2.885  13.251
 6263SOL     OW19531   1.989   2.516  13.597
 6263SOL    HW119532   1.950   2.431  13.614
 6263SOL    HW219533   1.971   2.568  13.676
 6264SOL     OW19534   3.699   3.611  13.375
 6264SOL    HW119535   3.773   3.585  13.430
 6264SOL    HW219536   3.715   3.703  13.356
 6265SOL     OW19537   1.895   3.449  13.154
 6265SOL    HW119538   1.879   3.357  13.175
 6265SOL    HW219539   1.875   3.496  13.235
 6266SOL     OW19540   3.549   2.781  13.671
 6266SOL    HW119541   3.633   2.742  13.646
 6266SOL    HW219542   3.525   2.836  13.597
 6267SOL     OW19543   3.503   2.964  13.463
 6267SOL    HW119544   3.588   2.965  13.419
 6267SOL    HW219545   3.512   3.031  13.531
 6268SOL     OW19546   2.466   3.243  13.756
 6268SOL    HW119547   2.421   3.159  13.762
 6268SOL    HW219548   2.443   3.278  13.670
 6269SOL     OW19549   2.703   1.866  13.544
 6269SOL    HW119550   2.736   1.952  13.520
 6269SOL    HW219551   2.608   1.876  13.545
 6270SOL     OW19552   3.387   2.861  13.235
 6270SOL    HW119553   3.318   2.803  13.269
 6270SOL    HW219554   3.429   2.897  13.314
 6271SOL     OW19555   3.508   3.599  13.616
 6271SOL    HW119556   3.494   3.570  13.526
 6271SOL    HW219557   3.503   3.519  13.668
 6272SOL     OW19558   2.470   2.603  13.308
 6272SOL    HW119559   2.469   2.682  13.255
 6272SOL    HW219560   2.403   2.619  13.375
 6273SOL     OW19561   3.115   2.186   0.039
 6273SOL    HW119562   3.039   2.136   0.067
 6273SOL    HW219563   3.190   2.138   0.074
 6274SOL     OW19564   3.434   3.545  13.341
 6274SOL    HW119565   3.527   3.565  13.337
 6274SOL    HW219566   3.411   3.524  13.250
 6275SOL     OW19567   2.914   2.559  13.457
 6275SOL    HW119568   2.932   2.548  13.550
 6275SOL    HW219569   2.830   2.513  13.444
 6276SOL     OW19570   1.947   2.685  13.809
 6276SOL    HW119571   2.022   2.683  13.869
 6276SOL    HW219572   1.893   2.757  13.842
 6277SOL     OW19573   2.755   2.216  13.234
 6277SOL    HW119574   2.803   2.268  13.170
 6277SOL    HW219575   2.722   2.141  13.185
 6278SOL     OW19576   3.223   2.996  13.547
 6278SOL    HW119577   3.313   2.995  13.514
 6278SOL    HW219578   3.181   3.068  13.500
 6279SOL     OW19579   2.856   3.302  13.500
 6279SOL    HW119580   2.829   3.380  13.452
 6279SOL    HW219581   2.823   3.315  13.588
 6280SOL     OW19582   2.262   3.671  13.789
 6280SOL    HW119583   2.204   3.615  13.841
 6280SOL    HW219584   2.331   3.697  13.850
 6281SOL     OW19585   3.655   2.909   0.002
 6281SOL    HW119586   3.602   2.895  13.823
 6281SOL    HW219587   3.591   2.906   0.073
 6282SOL     OW19588   2.177   2.819  13.291
 6282SOL    HW119589   2.257   2.841  13.242
 6282SOL    HW219590   2.146   2.738  13.251
 6283SOL     OW19591   3.356   2.597  13.745
 6283SOL    HW119592   3.348   2.564  13.834
 6283SOL    HW219593   3.428   2.660  13.749
 6284SOL     OW19594   2.977   3.646  13.251
 6284SOL    HW119595   2.913   3.602  13.306
 6284SOL    HW219596   3.008   3.578  13.192
 6285SOL     OW19597   3.485   3.249  13.123
 6285SOL    HW119598   3.442   3.333  13.105
 6285SOL    HW219599   3.419   3.183  13.102
 6286SOL     OW19600   2.326   3.599  13.357
 6286SOL    HW119601   2.365   3.661  13.419
 6286SOL    HW219602   2.399   3.574  13.300
 6287SOL     OW19603   3.265   1.977  13.471
 6287SOL    HW119604   3.258   1.947  13.380
 6287SOL    HW219605   3.359   1.977  13.489
 6288SOL     OW19606   2.791   3.543   0.004
 6288SOL    HW119607   2.799   3.476   0.073
 6288SOL    HW219608   2.750   3.497  13.831
 6289SOL     OW19609   2.256   2.545  13.504
 6289SOL    HW119610   2.265   2.458  13.463
 6289SOL    HW219611   2.165   2.548  13.533
 6290SOL     OW19612   2.531   1.985  13.126
 6290SOL    HW119613   2.567   1.904  13.164
 6290SOL    HW219614   2.463   1.955  13.066
 6291SOL     OW19615   2.433   1.898  13.534
 6291SOL    HW119616   2.385   1.878  13.615
 6291SOL    HW219617   2.408   1.988  13.513
 6292SOL     OW19618   3.289   3.063  13.072
 6292SOL    HW119619   3.319   2.988  13.124
 6292SOL    HW219620   3.203   3.085  13.109
 6293SOL     OW19621   2.808   2.115  13.488
 6293SOL    HW119622   2.784   2.150  13.403
 6293SOL    HW219623   2.902   2.128  13.495
 6294SOL     OW19624   2.322   3.007  13.765
 6294SOL    HW119625   2.252   2.994  13.829
 6294SOL    HW219626   2.279   2.996  13.680
 6295SOL     OW19627   3.125   3.659  13.628
 6295SOL    HW119628   3.172   3.727  13.581
 6295SOL    HW219629   3.055   3.705  13.674
 6296SOL     OW19630   2.888   2.395  13.059
 6296SOL    HW119631   2.843   2.478  13.041
 6296SOL    HW219632   2.951   2.415  13.128
 6297SOL     OW19633   2.752   2.329  13.670
 6297SOL    HW119634   2.703   2.382  13.607
 6297SOL    HW219635   2.768   2.247  13.625
 6298SOL     OW19636   2.886   1.894  13.768
 6298SOL    HW119637   2.830   1.895  13.691
 6298SOL    HW219638   2.861   1.815  13.816
 6299SOL     OW19639   3.730   2.674  13.411
 6299SOL    HW119640   3.778   2.619  13.473
 6299SOL    HW219641   3.695   2.613  13.347
 6300SOL     OW19642   2.352   3.282  13.185
 6300SOL    HW119643   2.276   3.255  13.236
 6300SOL    HW219644   2.344   3.233  13.103
 6301SOL     OW19645   3.543   3.136  13.660
 6301SOL    HW119646   3.637   3.134  13.676
 6301SOL    HW219647   3.513   3.218  13.700
 6302SOL     OW19648   3.256   2.434  13.105
 6302SOL    HW119649   3.193   2.413  13.175
 6302SOL    HW219650   3.340   2.403  13.138
 6303SOL     OW19651   2.572   2.927  13.400
 6303SOL    HW119652   2.557   2.909  13.493
 6303SOL    HW219653   2.648   2.873  13.377
 6304SOL     OW19654   2.200   2.980  13.522
 6304SOL    HW119655   2.202   3.056  13.464
 6304SOL    HW219656   2.197   2.905  13.463
 6305SOL     OW19657   2.407   2.426  13.890
 6305SOL    HW119658   2.420   2.487  13.817
 6305SOL    HW219659   2.495   2.403   0.018
 6306SOL     OW19660   3.105   3.217  13.417
 6306SOL    HW119661   3.159   3.290  13.446
 6306SOL    HW219662   3.018   3.236  13.453
 6307SOL     OW19663   3.440   2.486  13.499
 6307SOL    HW119664   3.399   2.520  13.579
 6307SOL    HW219665   3.468   2.564  13.451
 6308SOL     OW19666   3.060   2.389  13.294
 6308SOL    HW119667   3.069   2.310  13.348
 6308SOL    HW219668   3.018   2.453  13.351
 6309SOL     OW19669   3.485   2.241  13.392
 6309SOL    HW119670   3.508   2.177  13.459
 6309SOL    HW219671   3.461   2.319  13.441
 6310SOL     OW19672   3.389   2.133  13.159
 6310SOL    HW119673   3.326   2.068  13.188
 6310SOL    HW219674   3.424   2.170  13.240
 6311SOL     OW19675   3.147   2.685  13.061
 6311SOL    HW119676   3.191   2.600  13.065
 6311SOL    HW219677   3.181   2.724  12.980
 6312SOL     OW19678   1.870   3.177  13.227
 6312SOL    HW119679   1.782   3.194  13.192
 6312SOL    HW219680   1.865   3.088  13.263
 6313SOL     OW19681   2.678   2.433  13.402
 6313SOL    HW119682   2.684   2.359  13.342
 6313SOL    HW219683   2.607   2.487  13.368
 6314SOL     OW19684   2.323   2.384  13.256
 6314SOL    HW119685   2.388   2.454  13.258
 6314SOL    HW219686   2.244   2.426  13.221
 6315SOL     OW19687   3.178   2.712  13.336
 6315SOL    HW119688   3.102   2.685  13.387
 6315SOL    HW219689   3.151   2.700  13.245
 6316SOL     OW19690   3.571   2.015  13.544
 6316SOL    HW119691   3.638   2.004  13.476
 6316SOL    HW219692   3.560   1.928  13.582
 6317SOL     OW19693   3.243   3.438  13.509
 6317SOL    HW119694   3.302   3.476  13.445
 6317SOL    HW219695   3.196   3.513  13.546
 6318SOL     OW19696   3.151   2.775  13.684
 6318SOL    HW119697   3.228   2.718  13.672
 6318SOL    HW219698   3.174   2.856  13.638
 6319SOL     OW19699   2.535   3.482  13.193
 6319SOL    HW119700   2.547   3.501  13.100
 6319SOL    HW219701   2.476   3.407  13.195
 6320SOL     OW19702   3.677   2.027   0.089
 6320SOL    HW119703   3.685   1.942   0.046
 6320SOL    HW219704   3.583   2.046   0.087
 6321SOL     OW19705   3.070   3.462  13.071
 6321SOL    HW119706   3.059   3.370  13.095
 6321SOL    HW219707   3.008   3.476  12.999
 6322SOL     OW19708   2.783   2.777  13.332
 6322SOL    HW119709   2.840   2.806  13.261
 6322SOL    HW219710   2.830   2.704  13.372
 6323SOL     OW19711   3.347   3.499  13.077
 6323SOL    HW119712   3.254   3.484  13.060
 6323SOL    HW219713   3.387   3.503  12.990
 6324SOL     OW19714   2.913   2.953  13.755
 6324SOL    HW119715   2.828   2.916  13.727
 6324SOL    HW219716   2.975   2.921  13.689
 6325SOL     OW19717   2.460   3.354  13.503
 6325SOL    HW119718   2.509   3.303  13.438
 6325SOL    HW219719   2.393   3.400  13.452
 6326SOL     OW19720   2.125   3.202  13.326
 6326SOL    HW119721   2.032   3.198  13.302
 6326SOL    HW219722   2.126   3.243  13.412
 6327SOL     OW19723   3.038   3.195  13.149
 6327SOL    HW119724   2.946   3.168  13.150
 6327SOL    HW219725   3.064   3.197  13.241
 6328SOL     OW19726   3.079   2.183  13.489
 6328SOL    HW119727   3.141   2.110  13.481
 6328SOL    HW219728   3.111   2.232  13.565
 6329SOL     OW19729   2.451   2.605  13.690
 6329SOL    HW119730   2.485   2.692  13.670
 6329SOL    HW219731   2.384   2.591  13.623
 6330SOL     OW19732   2.728   3.228  13.078
 6330SOL    HW119733   2.687   3.254  13.160
 6330SOL    HW219734   2.740   3.310  13.030
 6331SOL     OW19735   2.513   3.721   0.063
 6331SOL    HW119736   2.502   3.813   0.086
 6331SOL    HW219737   2.606   3.703   0.076
 6332SOL     OW19738   2.681   2.831   0.002
 6332SOL    HW119739   2.698   2.743   0.037
 6332SOL    HW219740   2.736   2.889   0.054
 6333SOL     OW19741   2.936   2.847  13.122
 6333SOL    HW119742   2.917   2.901  13.045
 6333SOL    HW219743   3.011   2.793  13.096
 6334SOL     OW19744   1.955   3.088  13.698
 6334SOL    HW119745   1.955   3.032  13.776
 6334SOL    HW219746   2.023   3.050  13.642
 6335SOL     OW19747   3.543   3.315   0.357
 6335SOL    HW119748   3.512   3.291   0.270
 6335SOL    HW219749   3.635   3.287   0.358
 6336SOL     OW19750   2.678   3.407  13.702
 6336SOL    HW119751   2.644   3.458  13.629
 6336SOL    HW219752   2.605   3.349  13.726
 6337SOL     OW19753   2.635   3.196  13.351
 6337SOL    HW119754   2.609   3.105  13.360
 6337SOL    HW219755   2.716   3.203  13.401
 6338SOL     OW19756   3.221   1.913  13.204
 6338SOL    HW119757   3.254   1.841  13.150
 6338SOL    HW219758   3.131   1.887  13.226
 6339SOL     OW19759   3.168   2.323  13.709
 6339SOL    HW119760   3.115   2.403  13.715
 6339SOL    HW219761   3.149   2.276  13.791
 6340SOL     OW19762   1.905   2.926  13.342
 6340SOL    HW119763   1.999   2.918  13.323
 6340SOL    HW219764   1.878   2.836  13.364
 6341SOL     OW19765   2.751   3.525  13.375
 6341SOL    HW119766   2.678   3.509  13.316
 6341SOL    HW219767   2.722   3.598  13.430
 6342SOL     OW19768   2.094   3.979   0.978
 6342SOL    HW119769   2.118   3.961   1.069
 6342SOL    HW219770   2.002   3.953   0.971
 6343SOL     OW19771   1.875   0.063   0.715
 6343SOL    HW119772   1.798   0.095   0.669
 6343SOL    HW219773   1.927   0.019   0.648
 6344SOL     OW19774   3.658   0.360   0.259
 6344SOL    HW119775   3.638   0.300   0.186
 6344SOL    HW219776   3.576   0.366   0.308
 6345SOL     OW19777   2.304   0.092   1.504
 6345SOL    HW119778   2.374   0.045   1.458
 6345SOL    HW219779   2.225   0.042   1.486
 6346SOL     OW19780   3.454   3.853   1.456
 6346SOL    HW119781   3.463   3.940   1.417
 6346SOL    HW219782   3.439   3.869   1.549
 6347SOL     OW19783   2.672   3.728   0.512
 6347SOL    HW119784   2.698   3.820   0.501
 6347SOL    HW219785   2.576   3.731   0.520
 6348SOL     OW19786   3.129   0.062   0.932
 6348SOL    HW119787   3.052   0.011   0.905
 6348SOL    HW219788   3.182   0.001   0.983
 6349SOL     OW19789   2.416   3.902   0.894
 6349SOL    HW119790   2.411   3.922   0.988
 6349SOL    HW219791   2.413   3.988   0.851
 6350SOL     OW19792   2.055   3.980   1.487
 6350SOL    HW119793   2.001   0.057   1.506
 6350SOL    HW219794   2.013   3.909   1.536
 6351SOL     OW19795   3.270   3.834   0.437
 6351SOL    HW119796   3.265   3.797   0.349
 6351SOL    HW219797   3.360   3.819   0.465
 6352SOL     OW19798   3.399   3.935   1.722
 6352SOL    HW119799   3.423   3.938   1.814
 6352SOL    HW219800   3.326   3.873   1.718
 6353SOL     OW19801   2.633   3.952   1.739
 6353SOL    HW119802   2.684   3.924   1.816
 6353SOL    HW219803   2.547   3.975   1.775
 6354SOL     OW19804   2.400   3.780   0.522
 6354SOL    HW119805   2.352   3.778   0.604
 6354SOL    HW219806   2.407   3.873   0.500
 6355SOL     OW19807   2.132   3.748   0.208
 6355SOL    HW119808   2.167   3.836   0.191
 6355SOL    HW219809   2.208   3.697   0.236
 6356SOL     OW19810   2.419   3.944   1.172
 6356SOL    HW119811   2.463   3.879   1.226
 6356SOL    HW219812   2.326   3.937   1.196
 6357SOL     OW19813   2.884   3.765   0.725
 6357SOL    HW119814   2.817   3.753   0.657
 6357SOL    HW219815   2.860   3.702   0.793
 6358SOL     OW19816   2.786   3.800   1.394
 6358SOL    HW119817   2.816   3.778   1.305
 6358SOL    HW219818   2.860   3.846   1.433
 6359SOL     OW19819   3.129   0.071   1.266
 6359SOL    HW119820   3.133   0.142   1.331
 6359SOL    HW219821   3.058   0.096   1.207
 6360SOL     OW19822   2.373   3.750   1.759
 6360SOL    HW119823   2.314   3.706   1.698
 6360SOL    HW219824   2.347   3.842   1.754
 6361SOL     OW19825   2.155   3.918   1.248
 6361SOL    HW119826   2.111   3.937   1.331
 6361SOL    HW219827   2.144   3.824   1.235
 6362SOL     OW19828   3.463   3.929   0.161
 6362SOL    HW119829   3.382   3.878   0.155
 6362SOL    HW219830   3.436   0.014   0.195
 6363SOL     OW19831   3.024   3.917   1.473
 6363SOL    HW119832   3.025   3.993   1.532
 6363SOL    HW219833   3.070   3.948   1.394
 6364SOL     OW19834   2.786   3.823   0.146
 6364SOL    HW119835   2.816   3.818   0.055
 6364SOL    HW219836   2.848   3.770   0.195
 6365SOL     OW19837   3.592   3.863   0.540
 6365SOL    HW119838   3.658   3.849   0.472
 6365SOL    HW219839   3.569   3.774   0.569
 6366SOL     OW19840   3.699   3.894   0.961
 6366SOL    HW119841   3.731   3.807   0.939
 6366SOL    HW219842   3.613   3.899   0.920
 6367SOL     OW19843   2.541   3.906   1.484
 6367SOL    HW119844   2.625   3.893   1.440
 6367SOL    HW219845   2.565   3.929   1.574
 6368SOL     OW19846   1.920   3.853   0.342
 6368SOL    HW119847   1.916   3.945   0.314
 6368SOL    HW219848   1.998   3.819   0.298
 6369SOL     OW19849   3.053   0.008   0.465
 6369SOL    HW119850   3.113   3.934   0.470
 6369SOL    HW219851   3.074   0.061   0.543
 6370SOL     OW19852   3.647   0.045   1.624
 6370SOL    HW119853   3.600   0.083   1.550
 6370SOL    HW219854   3.580   3.995   1.672
 6371SOL     OW19855   3.675   3.909   1.233
 6371SOL    HW119856   3.661   3.817   1.256
 6371SOL    HW219857   3.686   3.908   1.138
 6372SOL     OW19858   3.300   3.930   1.116
 6372SOL    HW119859   3.325   3.846   1.155
 6372SOL    HW219860   3.244   3.971   1.181
 6373SOL     OW19861   2.881   3.738   1.144
 6373SOL    HW119862   2.823   3.684   1.090
 6373SOL    HW219863   2.966   3.693   1.139
 6374SOL     OW19864   3.218   3.783   0.151
 6374SOL    HW119865   3.261   3.710   0.105
 6374SOL    HW219866   3.135   3.747   0.181
 6375SOL     OW19867   3.147   0.163   0.676
 6375SOL    HW119868   3.145   0.258   0.684
 6375SOL    HW219869   3.148   0.131   0.766
 6376SOL     OW19870   3.441   3.928   0.882
 6376SOL    HW119871   3.391   3.930   0.964
 6376SOL    HW219872   3.437   0.018   0.849
 6377SOL     OW19873   2.095   3.977   2.839
 6377SOL    HW119874   2.118   3.961   2.930
 6377SOL    HW219875   2.003   3.953   2.833
 6378SOL     OW19876   1.873   0.059   2.580
 6378SOL    HW119877   1.801   0.099   2.530
 6378SOL    HW219878   1.928   0.017   2.514
 6379SOL     OW19879   3.629   0.314   2.040
 6379SOL    HW119880   3.553   0.297   1.985
 6379SOL    HW219881   3.593   0.343   2.124
 6380SOL     OW19882   2.304   0.092   3.365
 6380SOL    HW119883   2.374   0.045   3.320
 6380SOL    HW219884   2.225   0.042   3.348
 6381SOL     OW19885   3.454   3.853   3.318
 6381SOL    HW119886   3.462   3.940   3.279
 6381SOL    HW219887   3.438   3.869   3.411
 6382SOL     OW19888   2.671   3.732   2.372
 6382SOL    HW119889   2.695   3.824   2.365
 6382SOL    HW219890   2.575   3.733   2.379
 6383SOL     OW19891   3.128   0.062   2.798
 6383SOL    HW119892   3.053   0.010   2.768
 6383SOL    HW219893   3.182   0.000   2.847
 6384SOL     OW19894   2.416   3.903   2.756
 6384SOL    HW119895   2.411   3.922   2.850
 6384SOL    HW219896   2.413   3.990   2.714
 6385SOL     OW19897   2.055   3.980   3.349
 6385SOL    HW119898   2.002   0.058   3.368
 6385SOL    HW219899   2.013   3.910   3.399
 6386SOL     OW19900   3.268   3.826   2.299
 6386SOL    HW119901   3.261   3.796   2.208
 6386SOL    HW219902   3.360   3.813   2.321
 6387SOL     OW19903   3.399   3.935   3.584
 6387SOL    HW119904   3.423   3.937   3.676
 6387SOL    HW219905   3.326   3.873   3.580
 6388SOL     OW19906   2.493   3.846   1.995
 6388SOL    HW119907   2.584   3.818   1.989
 6388SOL    HW219908   2.449   3.799   1.924
 6389SOL     OW19909   2.633   3.952   3.601
 6389SOL    HW119910   2.684   3.924   3.678
 6389SOL    HW219911   2.547   3.975   3.637
 6390SOL     OW19912   2.399   3.783   2.381
 6390SOL    HW119913   2.353   3.784   2.465
 6390SOL    HW219914   2.405   3.875   2.355
 6391SOL     OW19915   2.145   3.765   2.043
 6391SOL    HW119916   2.183   3.853   2.041
 6391SOL    HW219917   2.213   3.710   2.081
 6392SOL     OW19918   2.418   3.944   3.033
 6392SOL    HW119919   2.463   3.879   3.088
 6392SOL    HW219920   2.326   3.937   3.058
 6393SOL     OW19921   2.883   3.764   2.586
 6393SOL    HW119922   2.817   3.751   2.518
 6393SOL    HW219923   2.860   3.702   2.655
 6394SOL     OW19924   2.786   3.800   3.256
 6394SOL    HW119925   2.816   3.778   3.167
 6394SOL    HW219926   2.860   3.846   3.295
 6395SOL     OW19927   3.129   0.071   3.128
 6395SOL    HW119928   3.133   0.141   3.193
 6395SOL    HW219929   3.060   0.097   3.068
 6396SOL     OW19930   2.373   3.750   3.621
 6396SOL    HW119931   2.314   3.706   3.560
 6396SOL    HW219932   2.348   3.842   3.616
 6397SOL     OW19933   2.155   3.918   3.109
 6397SOL    HW119934   2.111   3.937   3.192
 6397SOL    HW219935   2.143   3.824   3.097
 6398SOL     OW19936   3.444   3.951   1.984
 6398SOL    HW119937   3.378   3.895   2.024
 6398SOL    HW219938   3.460   0.020   2.048
 6399SOL     OW19939   3.025   3.917   3.335
 6399SOL    HW119940   3.025   3.993   3.394
 6399SOL    HW219941   3.070   3.948   3.256
 6400SOL     OW19942   2.763   3.809   1.958
 6400SOL    HW119943   2.819   3.762   1.896
 6400SOL    HW219944   2.808   3.801   2.042
 6401SOL     OW19945   3.597   3.859   2.393
 6401SOL    HW119946   3.663   3.845   2.326
 6401SOL    HW219947   3.572   3.771   2.422
 6402SOL     OW19948   3.699   3.895   2.824
 6402SOL    HW119949   3.731   3.807   2.802
 6402SOL    HW219950   3.613   3.899   2.783
 6403SOL     OW19951   2.541   3.906   3.346
 6403SOL    HW119952   2.625   3.893   3.302
 6403SOL    HW219953   2.565   3.929   3.436
 6404SOL     OW19954   1.905   0.053   1.895
 6404SOL    HW119955   1.871   0.025   1.810
 6404SOL    HW219956   1.933   0.143   1.882
 6405SOL     OW19957   1.918   3.861   2.167
 6405SOL    HW119958   1.909   3.952   2.138
 6405SOL    HW219959   1.999   3.830   2.126
 6406SOL     OW19960   3.066   0.015   2.319
 6406SOL    HW119961   3.125   3.941   2.327
 6406SOL    HW219962   3.079   0.065   2.400
 6407SOL     OW19963   3.647   0.045   3.486
 6407SOL    HW119964   3.600   0.083   3.412
 6407SOL    HW219965   3.580   3.995   3.534
 6408SOL     OW19966   3.675   3.909   3.096
 6408SOL    HW119967   3.661   3.816   3.119
 6408SOL    HW219968   3.686   3.908   3.001
 6409SOL     OW19969   3.300   3.929   2.979
 6409SOL    HW119970   3.326   3.846   3.019
 6409SOL    HW219971   3.244   3.971   3.043
 6410SOL     OW19972   2.881   3.738   3.006
 6410SOL    HW119973   2.823   3.684   2.952
 6410SOL    HW219974   2.966   3.693   3.001
 6411SOL     OW19975   3.219   3.770   2.025
 6411SOL    HW119976   3.257   3.699   1.973
 6411SOL    HW219977   3.131   3.741   2.048
 6412SOL     OW19978   3.143   0.162   2.542
 6412SOL    HW119979   3.148   0.257   2.547
 6412SOL    HW219980   3.146   0.133   2.633
 6413SOL     OW19981   3.440   3.928   2.744
 6413SOL    HW119982   3.391   3.930   2.826
 6413SOL    HW219983   3.437   0.018   2.711
 6414SOL     OW19984   2.095   3.977   4.701
 6414SOL    HW119985   2.118   3.961   4.792
 6414SOL    HW219986   2.003   3.953   4.695
 6415SOL     OW19987   1.873   0.059   4.442
 6415SOL    HW119988   1.802   0.099   4.392
 6415SOL    HW219989   1.928   0.017   4.376
 6416SOL     OW19990   3.629   0.314   3.902
 6416SOL    HW119991   3.553   0.297   3.847
 6416SOL    HW219992   3.593   0.343   3.986
 6417SOL     OW19993   2.304   0.092   5.228
 6417SOL    HW119994   2.374   0.045   5.182
 6417SOL    HW219995   2.225   0.042   5.210
 6418SOL     OW19996   3.454   3.853   5.179
 6418SOL    HW119997   3.463   3.940   5.141
 6418SOL    HW219998   3.439   3.869   5.272
 6419SOL     OW19999   2.671   3.732   4.234
 6419SOL    HW120000   2.695   3.824   4.227
 6419SOL    HW220001   2.575   3.733   4.241
 6420SOL     OW20002   3.128   0.062   4.660
 6420SOL    HW120003   3.053   0.010   4.630
 6420SOL    HW220004   3.182   0.000   4.709
 6421SOL     OW20005   2.416   3.903   4.618
 6421SOL    HW120006   2.411   3.922   4.712
 6421SOL    HW220007   2.413   3.990   4.576
 6422SOL     OW20008   2.055   3.981   5.211
 6422SOL    HW120009   2.003   0.059   5.230
 6422SOL    HW220010   2.012   3.911   5.261
 6423SOL     OW20011   3.268   3.826   4.161
 6423SOL    HW120012   3.261   3.796   4.070
 6423SOL    HW220013   3.360   3.813   4.183
 6424SOL     OW20014   3.399   3.935   5.446
 6424SOL    HW120015   3.423   3.937   5.538
 6424SOL    HW220016   3.326   3.873   5.442
 6425SOL     OW20017   2.493   3.846   3.857
 6425SOL    HW120018   2.584   3.818   3.851
 6425SOL    HW220019   2.449   3.799   3.786
 6426SOL     OW20020   2.633   3.952   5.464
 6426SOL    HW120021   2.684   3.924   5.540
 6426SOL    HW220022   2.547   3.975   5.499
 6427SOL     OW20023   2.399   3.783   4.243
 6427SOL    HW120024   2.353   3.784   4.327
 6427SOL    HW220025   2.404   3.875   4.217
 6428SOL     OW20026   2.145   3.766   3.905
 6428SOL    HW120027   2.183   3.853   3.903
 6428SOL    HW220028   2.213   3.710   3.943
 6429SOL     OW20029   2.418   3.944   4.895
 6429SOL    HW120030   2.463   3.879   4.950
 6429SOL    HW220031   2.326   3.937   4.920
 6430SOL     OW20032   2.883   3.764   4.448
 6430SOL    HW120033   2.817   3.751   4.380
 6430SOL    HW220034   2.860   3.702   4.517
 6431SOL     OW20035   2.786   3.800   5.118
 6431SOL    HW120036   2.816   3.779   5.029
 6431SOL    HW220037   2.860   3.846   5.157
 6432SOL     OW20038   3.129   0.071   4.990
 6432SOL    HW120039   3.133   0.142   5.054
 6432SOL    HW220040   3.060   0.096   4.930
 6433SOL     OW20041   2.372   3.750   5.483
 6433SOL    HW120042   2.314   3.706   5.422
 6433SOL    HW220043   2.348   3.842   5.478
 6434SOL     OW20044   2.155   3.918   4.971
 6434SOL    HW120045   2.111   3.937   5.054
 6434SOL    HW220046   2.143   3.824   4.959
 6435SOL     OW20047   3.445   3.951   3.846
 6435SOL    HW120048   3.378   3.895   3.886
 6435SOL    HW220049   3.460   0.020   3.910
 6436SOL     OW20050   3.025   3.917   5.197
 6436SOL    HW120051   3.025   3.993   5.255
 6436SOL    HW220052   3.070   3.948   5.118
 6437SOL     OW20053   2.763   3.809   3.820
 6437SOL    HW120054   2.819   3.762   3.758
 6437SOL    HW220055   2.808   3.801   3.904
 6438SOL     OW20056   3.597   3.859   4.255
 6438SOL    HW120057   3.663   3.845   4.188
 6438SOL    HW220058   3.572   3.771   4.284
 6439SOL     OW20059   3.699   3.895   4.686
 6439SOL    HW120060   3.731   3.807   4.664
 6439SOL    HW220061   3.613   3.899   4.645
 6440SOL     OW20062   2.542   3.906   5.208
 6440SOL    HW120063   2.625   3.893   5.164
 6440SOL    HW220064   2.565   3.929   5.298
 6441SOL     OW20065   1.905   0.053   3.757
 6441SOL    HW120066   1.871   0.026   3.672
 6441SOL    HW220067   1.933   0.143   3.744
 6442SOL     OW20068   1.918   3.861   4.029
 6442SOL    HW120069   1.909   3.952   4.000
 6442SOL    HW220070   1.999   3.830   3.988
 6443SOL     OW20071   3.066   0.015   4.181
 6443SOL    HW120072   3.125   3.941   4.189
 6443SOL    HW220073   3.079   0.065   4.262
 6444SOL     OW20074   3.647   0.045   5.349
 6444SOL    HW120075   3.600   0.083   5.274
 6444SOL    HW220076   3.580   3.995   5.396
 6445SOL     OW20077   3.675   3.908   4.958
 6445SOL    HW120078   3.661   3.816   4.981
 6445SOL    HW220079   3.687   3.908   4.863
 6446SOL     OW20080   3.300   3.929   4.841
 6446SOL    HW120081   3.326   3.846   4.881
 6446SOL    HW220082   3.244   3.971   4.905
 6447SOL     OW20083   2.881   3.738   4.868
 6447SOL    HW120084   2.823   3.684   4.814
 6447SOL    HW220085   2.966   3.693   4.863
 6448SOL     OW20086   3.219   3.771   3.887
 6448SOL    HW120087   3.257   3.699   3.835
 6448SOL    HW220088   3.131   3.741   3.909
 6449SOL     OW20089   3.143   0.162   4.404
 6449SOL    HW120090   3.148   0.257   4.409
 6449SOL    HW220091   3.146   0.133   4.495
 6450SOL     OW20092   3.440   3.928   4.606
 6450SOL    HW120093   3.391   3.930   4.688
 6450SOL    HW220094   3.437   0.018   4.573
 6451SOL     OW20095   2.095   3.976   6.563
 6451SOL    HW120096   2.118   3.960   6.654
 6451SOL    HW220097   2.003   3.952   6.557
 6452SOL     OW20098   1.873   0.059   6.305
 6452SOL    HW120099   1.802   0.099   6.255
 6452SOL    HW220100   1.928   0.017   6.238
 6453SOL     OW20101   3.629   0.314   5.765
 6453SOL    HW120102   3.553   0.297   5.709
 6453SOL    HW220103   3.592   0.343   5.848
 6454SOL     OW20104   2.305   0.092   7.090
 6454SOL    HW120105   2.374   0.045   7.043
 6454SOL    HW220106   2.225   0.042   7.072
 6455SOL     OW20107   3.454   3.852   7.042
 6455SOL    HW120108   3.463   3.939   7.002
 6455SOL    HW220109   3.439   3.870   7.135
 6456SOL     OW20110   2.671   3.732   6.096
 6456SOL    HW120111   2.695   3.824   6.089
 6456SOL    HW220112   2.575   3.733   6.103
 6457SOL     OW20113   3.127   0.063   6.523
 6457SOL    HW120114   3.053   0.011   6.491
 6457SOL    HW220115   3.182   0.000   6.570
 6458SOL     OW20116   2.416   3.903   6.480
 6458SOL    HW120117   2.411   3.922   6.573
 6458SOL    HW220118   2.413   3.989   6.438
 6459SOL     OW20119   2.054   3.983   7.073
 6459SOL    HW120120   2.004   0.062   7.089
 6459SOL    HW220121   2.010   3.915   7.125
 6460SOL     OW20122   3.268   3.826   6.023
 6460SOL    HW120123   3.261   3.796   5.932
 6460SOL    HW220124   3.360   3.813   6.045
 6461SOL     OW20125   3.399   3.936   7.308
 6461SOL    HW120126   3.423   3.938   7.400
 6461SOL    HW220127   3.326   3.873   7.304
 6462SOL     OW20128   2.493   3.846   5.719
 6462SOL    HW120129   2.584   3.818   5.713
 6462SOL    HW220130   2.449   3.799   5.648
 6463SOL     OW20131   2.633   3.952   7.325
 6463SOL    HW120132   2.683   3.925   7.402
 6463SOL    HW220133   2.547   3.975   7.360
 6464SOL     OW20134   2.399   3.783   6.105
 6464SOL    HW120135   2.354   3.785   6.189
 6464SOL    HW220136   2.405   3.875   6.078
 6465SOL     OW20137   2.145   3.766   5.767
 6465SOL    HW120138   2.183   3.853   5.765
 6465SOL    HW220139   2.214   3.710   5.805
 6466SOL     OW20140   2.418   3.944   6.757
 6466SOL    HW120141   2.463   3.879   6.812
 6466SOL    HW220142   2.326   3.937   6.782
 6467SOL     OW20143   2.883   3.765   6.311
 6467SOL    HW120144   2.817   3.751   6.242
 6467SOL    HW220145   2.859   3.702   6.379
 6468SOL     OW20146   2.787   3.800   6.980
 6468SOL    HW120147   2.816   3.779   6.891
 6468SOL    HW220148   2.861   3.846   7.019
 6469SOL     OW20149   3.129   0.070   6.852
 6469SOL    HW120150   3.133   0.141   6.916
 6469SOL    HW220151   3.061   0.096   6.791
 6470SOL     OW20152   2.372   3.750   7.345
 6470SOL    HW120153   2.314   3.706   7.284
 6470SOL    HW220154   2.348   3.843   7.340
 6471SOL     OW20155   2.155   3.918   6.834
 6471SOL    HW120156   2.110   3.937   6.916
 6471SOL    HW220157   2.143   3.824   6.821
 6472SOL     OW20158   3.444   3.950   5.707
 6472SOL    HW120159   3.378   3.895   5.748
 6472SOL    HW220160   3.460   0.020   5.772
 6473SOL     OW20161   3.025   3.918   7.059
 6473SOL    HW120162   3.025   3.994   7.117
 6473SOL    HW220163   3.070   3.947   6.980
 6474SOL     OW20164   2.763   3.809   5.682
 6474SOL    HW120165   2.818   3.762   5.620
 6474SOL    HW220166   2.809   3.800   5.766
 6475SOL     OW20167   3.597   3.859   6.117
 6475SOL    HW120168   3.663   3.845   6.050
 6475SOL    HW220169   3.572   3.771   6.146
 6476SOL     OW20170   3.699   3.894   6.549
 6476SOL    HW120171   3.731   3.807   6.526
 6476SOL    HW220172   3.613   3.899   6.507
 6477SOL     OW20173   2.542   3.905   7.070
 6477SOL    HW120174   2.626   3.892   7.026
 6477SOL    HW220175   2.565   3.929   7.160
 6478SOL     OW20176   1.904   0.053   5.620
 6478SOL    HW120177   1.870   0.026   5.535
 6478SOL    HW220178   1.933   0.143   5.606
 6479SOL     OW20179   1.918   3.861   5.891
 6479SOL    HW120180   1.909   3.952   5.861
 6479SOL    HW220181   1.999   3.830   5.850
 6480SOL     OW20182   3.065   0.014   6.045
 6480SOL    HW120183   3.125   3.941   6.051
 6480SOL    HW220184   3.079   0.065   6.125
 6481SOL     OW20185   3.647   0.046   7.211
 6481SOL    HW120186   3.600   0.083   7.136
 6481SOL    HW220187   3.580   3.995   7.258
 6482SOL     OW20188   3.674   3.908   6.820
 6482SOL    HW120189   3.661   3.816   6.843
 6482SOL    HW220190   3.686   3.909   6.725
 6483SOL     OW20191   3.301   3.929   6.702
 6483SOL    HW120192   3.326   3.845   6.742
 6483SOL    HW220193   3.244   3.970   6.767
 6484SOL     OW20194   2.881   3.737   6.730
 6484SOL    HW120195   2.823   3.684   6.675
 6484SOL    HW220196   2.966   3.693   6.725
 6485SOL     OW20197   3.219   3.770   5.749
 6485SOL    HW120198   3.257   3.699   5.698
 6485SOL    HW220199   3.131   3.740   5.771
 6486SOL     OW20200   3.143   0.162   6.266
 6486SOL    HW120201   3.148   0.257   6.270
 6486SOL    HW220202   3.146   0.134   6.358
 6487SOL     OW20203   3.441   3.928   6.468
 6487SOL    HW120204   3.391   3.931   6.550
 6487SOL    HW220205   3.437   0.018   6.435
 6488SOL     OW20206   2.095   3.977   8.425
 6488SOL    HW120207   2.118   3.960   8.516
 6488SOL    HW220208   2.003   3.952   8.419
 6489SOL     OW20209   1.873   0.059   8.166
 6489SOL    HW120210   1.802   0.100   8.117
 6489SOL    HW220211   1.927   0.016   8.100
 6490SOL     OW20212   3.629   0.315   7.627
 6490SOL    HW120213   3.553   0.298   7.571
 6490SOL    HW220214   3.592   0.343   7.710
 6491SOL     OW20215   2.305   0.092   8.952
 6491SOL    HW120216   2.374   0.044   8.906
 6491SOL    HW220217   2.225   0.042   8.934
 6492SOL     OW20218   3.454   3.852   8.904
 6492SOL    HW120219   3.463   3.939   8.865
 6492SOL    HW220220   3.438   3.869   8.997
 6493SOL     OW20221   2.670   3.732   7.958
 6493SOL    HW120222   2.695   3.824   7.951
 6493SOL    HW220223   2.575   3.733   7.965
 6494SOL     OW20224   3.127   0.062   8.384
 6494SOL    HW120225   3.053   0.010   8.354
 6494SOL    HW220226   3.182   0.000   8.433
 6495SOL     OW20227   2.416   3.903   8.342
 6495SOL    HW120228   2.411   3.922   8.436
 6495SOL    HW220229   2.413   3.989   8.300
 6496SOL     OW20230   2.055   3.980   8.935
 6496SOL    HW120231   2.002   0.058   8.954
 6496SOL    HW220232   2.013   3.910   8.985
 6497SOL     OW20233   3.268   3.826   7.885
 6497SOL    HW120234   3.261   3.796   7.794
 6497SOL    HW220235   3.360   3.813   7.908
 6498SOL     OW20236   3.399   3.936   9.170
 6498SOL    HW120237   3.423   3.938   9.262
 6498SOL    HW220238   3.326   3.873   9.166
 6499SOL     OW20239   2.493   3.845   7.581
 6499SOL    HW120240   2.584   3.818   7.575
 6499SOL    HW220241   2.449   3.799   7.509
 6500SOL     OW20242   2.633   3.952   9.187
 6500SOL    HW120243   2.684   3.924   9.264
 6500SOL    HW220244   2.547   3.975   9.222
 6501SOL     OW20245   2.399   3.783   7.967
 6501SOL    HW120246   2.353   3.785   8.051
 6501SOL    HW220247   2.404   3.875   7.941
 6502SOL     OW20248   2.145   3.766   7.629
 6502SOL    HW120249   2.182   3.854   7.627
 6502SOL    HW220250   2.215   3.711   7.667
 6503SOL     OW20251   2.418   3.944   8.619
 6503SOL    HW120252   2.463   3.879   8.674
 6503SOL    HW220253   2.326   3.937   8.644
 6504SOL     OW20254   2.883   3.765   8.173
 6504SOL    HW120255   2.817   3.752   8.105
 6504SOL    HW220256   2.860   3.702   8.241
 6505SOL     OW20257   2.786   3.800   8.842
 6505SOL    HW120258   2.816   3.779   8.753
 6505SOL    HW220259   2.860   3.846   8.881
 6506SOL     OW20260   3.129   0.070   8.714
 6506SOL    HW120261   3.133   0.141   8.779
 6506SOL    HW220262   3.060   0.097   8.654
 6507SOL     OW20263   2.373   3.750   9.207
 6507SOL    HW120264   2.314   3.706   9.146
 6507SOL    HW220265   2.348   3.842   9.202
 6508SOL     OW20266   2.155   3.918   8.695
 6508SOL    HW120267   2.111   3.937   8.778
 6508SOL    HW220268   2.143   3.824   8.683
 6509SOL     OW20269   3.444   3.951   7.569
 6509SOL    HW120270   3.379   3.894   7.611
 6509SOL    HW220271   3.462   0.018   7.635
 6510SOL     OW20272   3.025   3.917   8.921
 6510SOL    HW120273   3.025   3.993   8.979
 6510SOL    HW220274   3.070   3.947   8.842
 6511SOL     OW20275   2.763   3.809   7.544
 6511SOL    HW120276   2.818   3.762   7.481
 6511SOL    HW220277   2.809   3.800   7.627
 6512SOL     OW20278   3.597   3.859   7.979
 6512SOL    HW120279   3.663   3.845   7.911
 6512SOL    HW220280   3.572   3.771   8.008
 6513SOL     OW20281   3.699   3.894   8.411
 6513SOL    HW120282   3.731   3.807   8.388
 6513SOL    HW220283   3.613   3.899   8.369
 6514SOL     OW20284   2.541   3.906   8.932
 6514SOL    HW120285   2.625   3.893   8.888
 6514SOL    HW220286   2.565   3.929   9.022
 6515SOL     OW20287   1.907   0.052   7.480
 6515SOL    HW120288   1.871   0.025   7.396
 6515SOL    HW220289   1.934   0.143   7.468
 6516SOL     OW20290   1.918   3.861   7.754
 6516SOL    HW120291   1.909   3.952   7.725
 6516SOL    HW220292   1.999   3.831   7.712
 6517SOL     OW20293   3.064   0.014   7.907
 6517SOL    HW120294   3.125   3.941   7.913
 6517SOL    HW220295   3.079   0.065   7.987
 6518SOL     OW20296   3.647   0.045   9.073
 6518SOL    HW120297   3.600   0.083   8.998
 6518SOL    HW220298   3.580   3.995   9.120
 6519SOL     OW20299   3.674   3.908   8.682
 6519SOL    HW120300   3.661   3.816   8.704
 6519SOL    HW220301   3.686   3.909   8.587
 6520SOL     OW20302   3.301   3.929   8.564
 6520SOL    HW120303   3.326   3.846   8.604
 6520SOL    HW220304   3.244   3.971   8.629
 6521SOL     OW20305   2.881   3.738   8.592
 6521SOL    HW120306   2.823   3.684   8.538
 6521SOL    HW220307   2.966   3.693   8.587
 6522SOL     OW20308   3.220   3.770   7.612
 6522SOL    HW120309   3.257   3.699   7.560
 6522SOL    HW220310   3.131   3.740   7.633
 6523SOL     OW20311   3.142   0.162   8.128
 6523SOL    HW120312   3.148   0.257   8.133
 6523SOL    HW220313   3.146   0.133   8.219
 6524SOL     OW20314   3.440   3.928   8.330
 6524SOL    HW120315   3.391   3.930   8.412
 6524SOL    HW220316   3.437   0.018   8.297
 6525SOL     OW20317   2.095   3.977  10.287
 6525SOL    HW120318   2.118   3.960  10.378
 6525SOL    HW220319   2.003   3.953  10.281
 6526SOL     OW20320   1.873   0.059  10.028
 6526SOL    HW120321   1.802   0.099   9.978
 6526SOL    HW220322   1.927   0.016   9.962
 6527SOL     OW20323   3.629   0.314   9.489
 6527SOL    HW120324   3.553   0.297   9.433
 6527SOL    HW220325   3.592   0.343   9.572
 6528SOL     OW20326   2.305   0.092  10.814
 6528SOL    HW120327   2.374   0.045  10.768
 6528SOL    HW220328   2.225   0.042  10.796
 6529SOL     OW20329   3.454   3.852  10.766
 6529SOL    HW120330   3.463   3.939  10.727
 6529SOL    HW220331   3.438   3.869  10.859
 6530SOL     OW20332   2.671   3.731   9.820
 6530SOL    HW120333   2.695   3.824   9.813
 6530SOL    HW220334   2.575   3.733   9.827
 6531SOL     OW20335   3.127   0.062  10.246
 6531SOL    HW120336   3.053   0.011  10.216
 6531SOL    HW220337   3.182   0.000  10.294
 6532SOL     OW20338   2.416   3.903  10.204
 6532SOL    HW120339   2.411   3.922  10.298
 6532SOL    HW220340   2.413   3.989  10.162
 6533SOL     OW20341   2.055   3.981  10.797
 6533SOL    HW120342   2.002   0.058  10.816
 6533SOL    HW220343   2.013   3.910  10.846
 6534SOL     OW20344   3.268   3.826   9.747
 6534SOL    HW120345   3.261   3.796   9.656
 6534SOL    HW220346   3.360   3.813   9.769
 6535SOL     OW20347   3.399   3.935  11.032
 6535SOL    HW120348   3.423   3.937  11.124
 6535SOL    HW220349   3.326   3.873  11.028
 6536SOL     OW20350   2.493   3.846   9.443
 6536SOL    HW120351   2.584   3.818   9.437
 6536SOL    HW220352   2.449   3.799   9.372
 6537SOL     OW20353   2.633   3.953  11.049
 6537SOL    HW120354   2.683   3.924  11.126
 6537SOL    HW220355   2.547   3.975  11.084
 6538SOL     OW20356   2.399   3.783   9.829
 6538SOL    HW120357   2.353   3.785   9.913
 6538SOL    HW220358   2.405   3.875   9.803
 6539SOL     OW20359   2.145   3.766   9.491
 6539SOL    HW120360   2.183   3.853   9.489
 6539SOL    HW220361   2.213   3.710   9.529
 6540SOL     OW20362   2.418   3.944  10.481
 6540SOL    HW120363   2.463   3.879  10.536
 6540SOL    HW220364   2.326   3.937  10.506
 6541SOL     OW20365   2.883   3.764  10.034
 6541SOL    HW120366   2.817   3.751   9.966
 6541SOL    HW220367   2.860   3.702  10.103
 6542SOL     OW20368   2.787   3.800  10.704
 6542SOL    HW120369   2.816   3.779  10.615
 6542SOL    HW220370   2.861   3.846  10.743
 6543SOL     OW20371   3.129   0.070  10.576
 6543SOL    HW120372   3.133   0.142  10.640
 6543SOL    HW220373   3.060   0.096  10.516
 6544SOL     OW20374   2.372   3.750  11.069
 6544SOL    HW120375   2.314   3.706  11.008
 6544SOL    HW220376   2.348   3.842  11.064
 6545SOL     OW20377   2.155   3.918  10.557
 6545SOL    HW120378   2.111   3.937  10.640
 6545SOL    HW220379   2.143   3.824  10.545
 6546SOL     OW20380   3.444   3.951   9.432
 6546SOL    HW120381   3.378   3.895   9.472
 6546SOL    HW220382   3.461   0.020   9.496
 6547SOL     OW20383   3.025   3.917  10.783
 6547SOL    HW120384   3.025   3.993  10.841
 6547SOL    HW220385   3.070   3.947  10.704
 6548SOL     OW20386   2.763   3.809   9.406
 6548SOL    HW120387   2.819   3.762   9.344
 6548SOL    HW220388   2.808   3.801   9.490
 6549SOL     OW20389   3.597   3.859   9.841
 6549SOL    HW120390   3.663   3.845   9.774
 6549SOL    HW220391   3.572   3.771   9.870
 6550SOL     OW20392   3.699   3.894  10.273
 6550SOL    HW120393   3.731   3.807  10.250
 6550SOL    HW220394   3.613   3.899  10.231
 6551SOL     OW20395   2.542   3.906  10.794
 6551SOL    HW120396   2.625   3.893  10.750
 6551SOL    HW220397   2.565   3.929  10.884
 6552SOL     OW20398   1.905   0.053   9.343
 6552SOL    HW120399   1.871   0.025   9.258
 6552SOL    HW220400   1.933   0.143   9.330
 6553SOL     OW20401   1.918   3.861   9.615
 6553SOL    HW120402   1.909   3.952   9.586
 6553SOL    HW220403   1.999   3.830   9.574
 6554SOL     OW20404   3.065   0.015   9.768
 6554SOL    HW120405   3.125   3.941   9.775
 6554SOL    HW220406   3.079   0.065   9.848
 6555SOL     OW20407   3.647   0.045  10.935
 6555SOL    HW120408   3.600   0.083  10.860
 6555SOL    HW220409   3.580   3.995  10.982
 6556SOL     OW20410   3.675   3.908  10.544
 6556SOL    HW120411   3.661   3.816  10.566
 6556SOL    HW220412   3.686   3.909  10.449
 6557SOL     OW20413   3.301   3.929  10.426
 6557SOL    HW120414   3.326   3.846  10.467
 6557SOL    HW220415   3.244   3.971  10.491
 6558SOL     OW20416   2.881   3.738  10.454
 6558SOL    HW120417   2.823   3.684  10.400
 6558SOL    HW220418   2.966   3.693  10.449
 6559SOL     OW20419   3.219   3.770   9.473
 6559SOL    HW120420   3.257   3.699   9.422
 6559SOL    HW220421   3.131   3.740   9.496
 6560SOL     OW20422   3.143   0.162   9.990
 6560SOL    HW120423   3.148   0.257   9.995
 6560SOL    HW220424   3.146   0.133  10.081
 6561SOL     OW20425   3.440   3.928  10.192
 6561SOL    HW120426   3.391   3.930  10.274
 6561SOL    HW220427   3.437   0.018  10.159
 6562SOL     OW20428   2.095   3.977  12.149
 6562SOL    HW120429   2.118   3.961  12.240
 6562SOL    HW220430   2.003   3.953  12.143
 6563SOL     OW20431   1.873   0.059  11.890
 6563SOL    HW120432   1.802   0.099  11.840
 6563SOL    HW220433   1.927   0.017  11.824
 6564SOL     OW20434   3.629   0.314  11.351
 6564SOL    HW120435   3.553   0.297  11.295
 6564SOL    HW220436   3.592   0.343  11.434
 6565SOL     OW20437   2.305   0.092  12.675
 6565SOL    HW120438   2.373   0.044  12.629
 6565SOL    HW220439   2.225   0.042  12.658
 6566SOL     OW20440   3.454   3.853  12.628
 6566SOL    HW120441   3.462   3.940  12.589
 6566SOL    HW220442   3.438   3.869  12.721
 6567SOL     OW20443   2.671   3.731  11.682
 6567SOL    HW120444   2.695   3.824  11.675
 6567SOL    HW220445   2.575   3.733  11.689
 6568SOL     OW20446   3.127   0.062  12.108
 6568SOL    HW120447   3.053   0.011  12.078
 6568SOL    HW220448   3.182   0.000  12.156
 6569SOL     OW20449   2.416   3.903  12.066
 6569SOL    HW120450   2.411   3.922  12.160
 6569SOL    HW220451   2.413   3.989  12.024
 6570SOL     OW20452   2.055   3.980  12.659
 6570SOL    HW120453   2.001   0.057  12.678
 6570SOL    HW220454   2.014   3.909  12.708
 6571SOL     OW20455   3.268   3.826  11.609
 6571SOL    HW120456   3.261   3.796  11.518
 6571SOL    HW220457   3.360   3.813  11.631
 6572SOL     OW20458   3.398   3.937  12.896
 6572SOL    HW120459   3.422   3.941  12.989
 6572SOL    HW220460   3.327   3.874  12.893
 6573SOL     OW20461   2.493   3.846  11.305
 6573SOL    HW120462   2.584   3.818  11.299
 6573SOL    HW220463   2.449   3.799  11.234
 6574SOL     OW20464   2.634   3.953  12.912
 6574SOL    HW120465   2.684   3.923  12.988
 6574SOL    HW220466   2.547   3.974  12.946
 6575SOL     OW20467   2.399   3.783  11.691
 6575SOL    HW120468   2.353   3.785  11.775
 6575SOL    HW220469   2.405   3.875  11.665
 6576SOL     OW20470   2.145   3.766  11.353
 6576SOL    HW120471   2.183   3.853  11.351
 6576SOL    HW220472   2.214   3.710  11.391
 6577SOL     OW20473   2.418   3.944  12.344
 6577SOL    HW120474   2.463   3.879  12.398
 6577SOL    HW220475   2.326   3.937  12.368
 6578SOL     OW20476   2.883   3.764  11.896
 6578SOL    HW120477   2.817   3.751  11.828
 6578SOL    HW220478   2.860   3.702  11.965
 6579SOL     OW20479   2.786   3.800  12.566
 6579SOL    HW120480   2.816   3.778  12.477
 6579SOL    HW220481   2.860   3.846  12.605
 6580SOL     OW20482   3.129   0.070  12.438
 6580SOL    HW120483   3.133   0.142  12.502
 6580SOL    HW220484   3.060   0.096  12.378
 6581SOL     OW20485   2.373   3.750  12.930
 6581SOL    HW120486   2.314   3.706  12.870
 6581SOL    HW220487   2.347   3.842  12.926
 6582SOL     OW20488   2.155   3.918  12.419
 6582SOL    HW120489   2.111   3.937  12.502
 6582SOL    HW220490   2.143   3.824  12.407
 6583SOL     OW20491   3.444   3.951  11.294
 6583SOL    HW120492   3.378   3.895  11.334
 6583SOL    HW220493   3.460   0.020  11.358
 6584SOL     OW20494   3.025   3.917  12.645
 6584SOL    HW120495   3.025   3.993  12.704
 6584SOL    HW220496   3.070   3.948  12.566
 6585SOL     OW20497   2.763   3.809  11.268
 6585SOL    HW120498   2.819   3.762  11.206
 6585SOL    HW220499   2.809   3.801  11.352
 6586SOL     OW20500   3.597   3.859  11.703
 6586SOL    HW120501   3.663   3.845  11.636
 6586SOL    HW220502   3.572   3.771  11.732
 6587SOL     OW20503   3.699   3.894  12.135
 6587SOL    HW120504   3.731   3.807  12.112
 6587SOL    HW220505   3.613   3.899  12.093
 6588SOL     OW20506   2.542   3.906  12.656
 6588SOL    HW120507   2.625   3.893  12.612
 6588SOL    HW220508   2.565   3.929  12.746
 6589SOL     OW20509   1.905   0.053  11.205
 6589SOL    HW120510   1.871   0.025  11.120
 6589SOL    HW220511   1.933   0.143  11.192
 6590SOL     OW20512   1.918   3.861  11.477
 6590SOL    HW120513   1.909   3.952  11.448
 6590SOL    HW220514   1.999   3.830  11.436
 6591SOL     OW20515   3.065   0.015  11.630
 6591SOL    HW120516   3.125   3.941  11.637
 6591SOL    HW220517   3.079   0.065  11.710
 6592SOL     OW20518   3.646   0.046  12.796
 6592SOL    HW120519   3.599   0.083  12.722
 6592SOL    HW220520   3.580   3.996  12.844
 6593SOL     OW20521   3.675   3.909  12.406
 6593SOL    HW120522   3.661   3.817  12.429
 6593SOL    HW220523   3.686   3.908  12.311
 6594SOL     OW20524   3.301   3.929  12.288
 6594SOL    HW120525   3.326   3.846  12.329
 6594SOL    HW220526   3.244   3.971  12.353
 6595SOL     OW20527   2.881   3.738  12.316
 6595SOL    HW120528   2.823   3.684  12.262
 6595SOL    HW220529   2.966   3.693  12.311
 6596SOL     OW20530   3.219   3.770  11.335
 6596SOL    HW120531   3.257   3.699  11.284
 6596SOL    HW220532   3.131   3.740  11.358
 6597SOL     OW20533   3.143   0.162  11.852
 6597SOL    HW120534   3.148   0.257  11.857
 6597SOL    HW220535   3.146   0.133  11.943
 6598SOL     OW20536   3.440   3.928  12.054
 6598SOL    HW120537   3.391   3.931  12.136
 6598SOL    HW220538   3.437   0.018  12.021
 6599SOL     OW20539   1.874   0.091  13.685
 6599SOL    HW120540   1.791   0.115  13.727
 6599SOL    HW220541   1.863   3.999  13.661
 6600SOL     OW20542   3.629   0.312  13.213
 6600SOL    HW120543   3.554   0.294  13.157
 6600SOL    HW220544   3.591   0.339  13.296
 6601SOL     OW20545   3.467   0.174  13.771
 6601SOL    HW120546   3.380   0.144  13.746
 6601SOL    HW220547   3.456   0.267  13.791
 6602SOL     OW20548   2.673   3.733  13.542
 6602SOL    HW120549   2.695   3.826  13.535
 6602SOL    HW220550   2.578   3.732  13.551
 6603SOL     OW20551   3.271   3.834  13.466
 6603SOL    HW120552   3.267   3.799  13.377
 6603SOL    HW220553   3.363   3.826  13.491
 6604SOL     OW20554   2.493   3.847  13.166
 6604SOL    HW120555   2.584   3.818  13.162
 6604SOL    HW220556   2.449   3.799  13.095
 6605SOL     OW20557   2.400   3.775  13.553
 6605SOL    HW120558   2.348   3.761  13.632
 6605SOL    HW220559   2.399   3.870  13.540
 6606SOL     OW20560   2.144   3.766  13.215
 6606SOL    HW120561   2.183   3.853  13.213
 6606SOL    HW220562   2.211   3.710  13.254
 6607SOL     OW20563   2.874   3.759  13.765
 6607SOL    HW120564   2.816   3.753  13.689
 6607SOL    HW220565   2.853   3.680  13.817
 6608SOL     OW20566   3.446   3.955  13.159
 6608SOL    HW120567   3.387   3.893  13.201
 6608SOL    HW220568   3.488   0.002  13.232
 6609SOL     OW20569   2.764   3.809  13.130
 6609SOL    HW120570   2.820   3.762  13.068
 6609SOL    HW220571   2.807   3.799  13.214
 6610SOL     OW20572   3.592   3.856  13.568
 6610SOL    HW120573   3.661   3.843  13.504
 6610SOL    HW220574   3.573   3.768  13.601
 6611SOL     OW20575   3.713   3.902   0.045
 6611SOL    HW120576   3.753   3.816   0.055
 6611SOL    HW220577   3.627   3.894   0.085
 6612SOL     OW20578   1.906   0.052  13.062
 6612SOL    HW120579   1.871   0.027  12.976
 6612SOL    HW220580   1.933   0.143  13.052
 6613SOL     OW20581   1.916   3.863  13.341
 6613SOL    HW120582   1.913   3.958  13.326
 6613SOL    HW220583   1.995   3.834  13.295
 6614SOL     OW20584   3.055   0.001  13.520
 6614SOL    HW120585   3.127   3.941  13.501
 6614SOL    HW220586   3.089   0.056  13.592
 6615SOL     OW20587   3.221   3.770  13.195
 6615SOL    HW120588   3.256   3.698  13.144
 6615SOL    HW220589   3.133   3.742  13.219
 6616SOL     OW20590   3.178   0.150  13.736
 6616SOL    HW120591   3.146   0.240  13.724
 6616SOL    HW220592   3.156   0.128  13.827
 6617SOL     OW20593   3.952   0.625   0.131
 6617SOL    HW120594   3.895   0.635   0.208
 6617SOL    HW220595   3.901   0.572   0.070
 6618SOL     OW20596   3.954   0.304   1.000
 6618SOL    HW120597   3.963   0.275   1.090
 6618SOL    HW220598   3.870   0.269   0.971
 6619SOL     OW20599   3.732   0.395   0.635
 6619SOL    HW120600   3.644   0.408   0.672
 6619SOL    HW220601   3.722   0.320   0.577
 6620SOL     OW20602   0.014   1.529   1.056
 6620SOL    HW120603   3.954   1.456   1.039
 6620SOL    HW220604   0.077   1.525   0.984
 6621SOL     OW20605   3.948   1.715   0.477
 6621SOL    HW120606   3.941   1.789   0.537
 6621SOL    HW220607   0.041   1.707   0.460
 6622SOL     OW20608   3.937   1.436   0.506
 6622SOL    HW120609   3.927   1.531   0.507
 6622SOL    HW220610   3.882   1.405   0.578
 6623SOL     OW20611   3.803   0.651   0.558
 6623SOL    HW120612   3.785   0.560   0.582
 6623SOL    HW220613   3.808   0.698   0.642
 6624SOL     OW20614   3.691   1.617   0.095
 6624SOL    HW120615   3.729   1.530   0.113
 6624SOL    HW220616   3.698   1.664   0.178
 6625SOL     OW20617   3.821   0.754   1.572
 6625SOL    HW120618   3.899   0.807   1.591
 6625SOL    HW220619   3.750   0.818   1.563
 6626SOL     OW20620   3.807   0.821   0.771
 6626SOL    HW120621   3.901   0.818   0.787
 6626SOL    HW220622   3.774   0.891   0.828
 6627SOL     OW20623   3.848   1.883   1.570
 6627SOL    HW120624   3.846   1.853   1.661
 6627SOL    HW220625   3.773   1.840   1.529
 6628SOL     OW20626   3.924   0.309   1.520
 6628SOL    HW120627   3.854   0.363   1.483
 6628SOL    HW220628   3.879   0.249   1.580
 6629SOL     OW20629   3.812   0.546   1.393
 6629SOL    HW120630   3.907   0.546   1.380
 6629SOL    HW220631   3.795   0.622   1.448
 6630SOL     OW20632   3.792   1.574   1.352
 6630SOL    HW120633   3.765   1.636   1.285
 6630SOL    HW220634   3.888   1.582   1.355
 6631SOL     OW20635   0.070   1.104   0.545
 6631SOL    HW120636   0.074   1.153   0.463
 6631SOL    HW220637   0.149   1.050   0.544
 6632SOL     OW20638   0.001   0.213   1.251
 6632SOL    HW120639   3.972   0.237   1.339
 6632SOL    HW220640   4.000   0.117   1.250
 6633SOL     OW20641   3.751   1.314   1.275
 6633SOL    HW120642   3.792   1.263   1.345
 6633SOL    HW220643   3.764   1.405   1.301
 6634SOL     OW20644   3.745   1.322   0.172
 6634SOL    HW120645   3.660   1.336   0.130
 6634SOL    HW220646   3.735   1.238   0.217
 6635SOL     OW20647   3.802   1.791   0.941
 6635SOL    HW120648   3.777   1.713   0.892
 6635SOL    HW220649   3.896   1.799   0.927
 6636SOL     OW20650   0.208   1.546   0.861
 6636SOL    HW120651   0.298   1.579   0.858
 6636SOL    HW220652   0.205   1.478   0.794
 6637SOL     OW20653   3.751   0.537   1.118
 6637SOL    HW120654   3.830   0.533   1.063
 6637SOL    HW220655   3.785   0.544   1.207
 6638SOL     OW20656   3.900   0.534   1.713
 6638SOL    HW120657   3.939   0.481   1.643
 6638SOL    HW220658   3.861   0.609   1.667
 6639SOL     OW20659   3.938   1.531   1.726
 6639SOL    HW120660   3.924   1.620   1.758
 6639SOL    HW220661   3.988   1.488   1.795
 6640SOL     OW20662   3.860   1.140   1.470
 6640SOL    HW120663   3.938   1.147   1.526
 6640SOL    HW220664   3.888   1.088   1.395
 6641SOL     OW20665   3.813   1.271   1.011
 6641SOL    HW120666   3.783   1.282   1.101
 6641SOL    HW220667   3.754   1.204   0.975
 6642SOL     OW20668   3.848   1.787   1.822
 6642SOL    HW120669   3.796   1.725   1.871
 6642SOL    HW220670   3.898   1.835   1.888
 6643SOL     OW20671   3.800   0.413   0.004
 6643SOL    HW120672   3.762   0.334   0.041
 6643SOL    HW220673   3.778   0.409  13.811
 6644SOL     OW20674   3.794   0.146   0.356
 6644SOL    HW120675   3.757   0.223   0.313
 6644SOL    HW220676   3.889   0.161   0.352
 6645SOL     OW20677   3.802   1.232   0.666
 6645SOL    HW120678   3.791   1.185   0.749
 6645SOL    HW220679   3.884   1.198   0.630
 6646SOL     OW20680   3.754   1.083   0.308
 6646SOL    HW120681   3.849   1.092   0.322
 6646SOL    HW220682   3.736   0.991   0.326
 6647SOL     OW20683   3.955   0.634   1.968
 6647SOL    HW120684   3.874   0.636   2.020
 6647SOL    HW220685   3.929   0.600   1.883
 6648SOL     OW20686   3.954   0.302   2.860
 6648SOL    HW120687   3.963   0.274   2.952
 6648SOL    HW220688   3.869   0.267   2.833
 6649SOL     OW20689   3.731   0.394   2.497
 6649SOL    HW120690   3.644   0.408   2.535
 6649SOL    HW220691   3.721   0.319   2.439
 6650SOL     OW20692   0.013   1.529   2.917
 6650SOL    HW120693   3.954   1.455   2.901
 6650SOL    HW220694   0.077   1.525   2.846
 6651SOL     OW20695   3.941   1.720   2.339
 6651SOL    HW120696   3.942   1.792   2.403
 6651SOL    HW220697   0.033   1.708   2.316
 6652SOL     OW20698   3.947   1.438   2.368
 6652SOL    HW120699   3.925   1.531   2.367
 6652SOL    HW220700   3.888   1.400   2.433
 6653SOL     OW20701   3.801   0.651   2.423
 6653SOL    HW120702   3.785   0.560   2.447
 6653SOL    HW220703   3.807   0.697   2.506
 6654SOL     OW20704   3.763   1.596   1.992
 6654SOL    HW120705   3.739   1.504   2.008
 6654SOL    HW220706   3.730   1.643   2.068
 6655SOL     OW20707   3.821   0.754   3.434
 6655SOL    HW120708   3.899   0.807   3.453
 6655SOL    HW220709   3.750   0.818   3.425
 6656SOL     OW20710   3.807   0.820   2.636
 6656SOL    HW120711   3.901   0.818   2.650
 6656SOL    HW220712   3.775   0.892   2.691
 6657SOL     OW20713   3.848   1.883   3.432
 6657SOL    HW120714   3.846   1.853   3.523
 6657SOL    HW220715   3.773   1.840   3.391
 6658SOL     OW20716   3.924   0.309   3.382
 6658SOL    HW120717   3.855   0.363   3.344
 6658SOL    HW220718   3.879   0.250   3.442
 6659SOL     OW20719   3.812   0.546   3.255
 6659SOL    HW120720   3.907   0.546   3.242
 6659SOL    HW220721   3.795   0.622   3.310
 6660SOL     OW20722   0.266   0.295   2.192
 6660SOL    HW120723   0.327   0.229   2.160
 6660SOL    HW220724   0.309   0.379   2.176
 6661SOL     OW20725   3.792   1.574   3.214
 6661SOL    HW120726   3.765   1.636   3.147
 6661SOL    HW220727   3.888   1.582   3.216
 6662SOL     OW20728   0.061   1.101   2.400
 6662SOL    HW120729   0.050   1.130   2.309
 6662SOL    HW220730   0.132   1.037   2.397
 6663SOL     OW20731   0.001   0.214   3.113
 6663SOL    HW120732   3.972   0.237   3.201
 6663SOL    HW220733   4.000   0.118   3.112
 6664SOL     OW20734   3.751   1.313   3.137
 6664SOL    HW120735   3.792   1.263   3.207
 6664SOL    HW220736   3.764   1.405   3.163
 6665SOL     OW20737   3.728   1.327   2.047
 6665SOL    HW120738   3.642   1.341   2.008
 6665SOL    HW220739   3.719   1.244   2.095
 6666SOL     OW20740   3.802   1.792   2.802
 6666SOL    HW120741   3.778   1.713   2.755
 6666SOL    HW220742   3.897   1.800   2.789
 6667SOL     OW20743   0.208   1.546   2.723
 6667SOL    HW120744   0.298   1.578   2.720
 6667SOL    HW220745   0.204   1.477   2.656
 6668SOL     OW20746   3.752   0.537   2.980
 6668SOL    HW120747   3.830   0.534   2.926
 6668SOL    HW220748   3.785   0.543   3.070
 6669SOL     OW20749   3.900   0.534   3.575
 6669SOL    HW120750   3.939   0.481   3.506
 6669SOL    HW220751   3.861   0.609   3.529
 6670SOL     OW20752   3.938   1.531   3.588
 6670SOL    HW120753   3.924   1.620   3.620
 6670SOL    HW220754   3.988   1.488   3.658
 6671SOL     OW20755   3.860   1.140   3.332
 6671SOL    HW120756   3.938   1.147   3.387
 6671SOL    HW220757   3.888   1.088   3.257
 6672SOL     OW20758   3.812   1.272   2.872
 6672SOL    HW120759   3.783   1.283   2.963
 6672SOL    HW220760   3.755   1.204   2.837
 6673SOL     OW20761   3.848   1.787   3.684
 6673SOL    HW120762   3.796   1.724   3.733
 6673SOL    HW220763   3.898   1.835   3.750
 6674SOL     OW20764   3.823   0.317   1.859
 6674SOL    HW120765   3.755   0.331   1.924
 6674SOL    HW220766   3.818   0.393   1.802
 6675SOL     OW20767   3.773   0.149   2.206
 6675SOL    HW120768   3.739   0.203   2.135
 6675SOL    HW220769   3.868   0.157   2.199
 6676SOL     OW20770   3.804   1.236   2.527
 6676SOL    HW120771   3.795   1.188   2.609
 6676SOL    HW220772   3.879   1.194   2.484
 6677SOL     OW20773   3.753   1.083   2.175
 6677SOL    HW120774   3.843   1.084   2.143
 6677SOL    HW220775   3.736   0.991   2.194
 6678SOL     OW20776   3.955   0.634   3.831
 6678SOL    HW120777   3.874   0.636   3.882
 6678SOL    HW220778   3.929   0.600   3.745
 6679SOL     OW20779   3.955   0.302   4.722
 6679SOL    HW120780   3.963   0.274   4.814
 6679SOL    HW220781   3.869   0.267   4.695
 6680SOL     OW20782   3.731   0.394   4.359
 6680SOL    HW120783   3.644   0.408   4.397
 6680SOL    HW220784   3.721   0.319   4.301
 6681SOL     OW20785   0.014   1.529   4.780
 6681SOL    HW120786   3.955   1.456   4.764
 6681SOL    HW220787   0.077   1.525   4.708
 6682SOL     OW20788   3.941   1.720   4.201
 6682SOL    HW120789   3.942   1.792   4.265
 6682SOL    HW220790   0.033   1.708   4.178
 6683SOL     OW20791   3.948   1.438   4.230
 6683SOL    HW120792   3.925   1.531   4.229
 6683SOL    HW220793   3.888   1.400   4.295
 6684SOL     OW20794   3.801   0.651   4.285
 6684SOL    HW120795   3.785   0.560   4.310
 6684SOL    HW220796   3.807   0.697   4.368
 6685SOL     OW20797   3.763   1.596   3.854
 6685SOL    HW120798   3.739   1.504   3.870
 6685SOL    HW220799   3.730   1.643   3.930
 6686SOL     OW20800   3.821   0.754   5.296
 6686SOL    HW120801   3.899   0.807   5.315
 6686SOL    HW220802   3.750   0.818   5.287
 6687SOL     OW20803   3.807   0.820   4.498
 6687SOL    HW120804   3.901   0.818   4.513
 6687SOL    HW220805   3.775   0.892   4.553
 6688SOL     OW20806   3.848   1.883   5.294
 6688SOL    HW120807   3.846   1.853   5.385
 6688SOL    HW220808   3.773   1.841   5.253
 6689SOL     OW20809   3.924   0.309   5.244
 6689SOL    HW120810   3.855   0.363   5.206
 6689SOL    HW220811   3.878   0.250   5.304
 6690SOL     OW20812   3.812   0.546   5.117
 6690SOL    HW120813   3.907   0.547   5.104
 6690SOL    HW220814   3.795   0.622   5.172
 6691SOL     OW20815   0.266   0.295   4.054
 6691SOL    HW120816   0.328   0.230   4.022
 6691SOL    HW220817   0.309   0.379   4.038
 6692SOL     OW20818   3.792   1.574   5.076
 6692SOL    HW120819   3.764   1.636   5.009
 6692SOL    HW220820   3.888   1.582   5.078
 6693SOL     OW20821   0.061   1.102   4.262
 6693SOL    HW120822   0.050   1.130   4.172
 6693SOL    HW220823   0.132   1.038   4.259
 6694SOL     OW20824   0.002   0.214   4.975
 6694SOL    HW120825   3.971   0.237   5.063
 6694SOL    HW220826   4.000   0.118   4.974
 6695SOL     OW20827   3.751   1.313   4.999
 6695SOL    HW120828   3.792   1.263   5.070
 6695SOL    HW220829   3.764   1.405   5.025
 6696SOL     OW20830   3.728   1.327   3.909
 6696SOL    HW120831   3.642   1.341   3.870
 6696SOL    HW220832   3.719   1.244   3.957
 6697SOL     OW20833   3.802   1.792   4.665
 6697SOL    HW120834   3.778   1.713   4.617
 6697SOL    HW220835   3.897   1.800   4.651
 6698SOL     OW20836   0.208   1.546   4.585
 6698SOL    HW120837   0.298   1.578   4.581
 6698SOL    HW220838   0.204   1.477   4.518
 6699SOL     OW20839   3.751   0.537   4.842
 6699SOL    HW120840   3.830   0.533   4.788
 6699SOL    HW220841   3.785   0.543   4.932
 6700SOL     OW20842   3.900   0.534   5.437
 6700SOL    HW120843   3.939   0.481   5.367
 6700SOL    HW220844   3.861   0.609   5.391
 6701SOL     OW20845   3.939   1.531   5.450
 6701SOL    HW120846   3.924   1.620   5.481
 6701SOL    HW220847   3.987   1.488   5.521
 6702SOL     OW20848   3.860   1.140   5.194
 6702SOL    HW120849   3.939   1.147   5.249
 6702SOL    HW220850   3.888   1.088   5.119
 6703SOL     OW20851   3.812   1.272   4.734
 6703SOL    HW120852   3.783   1.283   4.825
 6703SOL    HW220853   3.755   1.204   4.699
 6704SOL     OW20854   3.848   1.787   5.545
 6704SOL    HW120855   3.796   1.724   5.595
 6704SOL    HW220856   3.897   1.835   5.612
 6705SOL     OW20857   3.823   0.317   3.721
 6705SOL    HW120858   3.755   0.331   3.786
 6705SOL    HW220859   3.818   0.393   3.664
 6706SOL     OW20860   3.773   0.149   4.068
 6706SOL    HW120861   3.739   0.203   3.997
 6706SOL    HW220862   3.868   0.157   4.061
 6707SOL     OW20863   3.804   1.236   4.389
 6707SOL    HW120864   3.794   1.188   4.471
 6707SOL    HW220865   3.879   1.194   4.346
 6708SOL     OW20866   3.753   1.083   4.037
 6708SOL    HW120867   3.843   1.084   4.005
 6708SOL    HW220868   3.736   0.991   4.056
 6709SOL     OW20869   3.955   0.634   5.693
 6709SOL    HW120870   3.874   0.636   5.743
 6709SOL    HW220871   3.929   0.601   5.607
 6710SOL     OW20872   3.954   0.302   6.584
 6710SOL    HW120873   3.963   0.274   6.676
 6710SOL    HW220874   3.869   0.267   6.557
 6711SOL     OW20875   3.731   0.394   6.221
 6711SOL    HW120876   3.644   0.407   6.259
 6711SOL    HW220877   3.721   0.319   6.162
 6712SOL     OW20878   0.012   1.529   6.641
 6712SOL    HW120879   3.954   1.454   6.625
 6712SOL    HW220880   0.076   1.525   6.570
 6713SOL     OW20881   3.941   1.720   6.063
 6713SOL    HW120882   3.942   1.792   6.127
 6713SOL    HW220883   0.033   1.708   6.040
 6714SOL     OW20884   3.948   1.438   6.093
 6714SOL    HW120885   3.926   1.531   6.091
 6714SOL    HW220886   3.889   1.400   6.157
 6715SOL     OW20887   3.801   0.651   6.147
 6715SOL    HW120888   3.786   0.559   6.172
 6715SOL    HW220889   3.807   0.697   6.230
 6716SOL     OW20890   3.764   1.595   5.716
 6716SOL    HW120891   3.739   1.504   5.732
 6716SOL    HW220892   3.730   1.643   5.792
 6717SOL     OW20893   3.822   0.755   7.158
 6717SOL    HW120894   3.899   0.807   7.176
 6717SOL    HW220895   3.751   0.818   7.149
 6718SOL     OW20896   3.807   0.820   6.360
 6718SOL    HW120897   3.901   0.818   6.375
 6718SOL    HW220898   3.775   0.892   6.415
 6719SOL     OW20899   3.847   1.883   7.156
 6719SOL    HW120900   3.846   1.853   7.247
 6719SOL    HW220901   3.773   1.840   7.115
 6720SOL     OW20902   3.924   0.309   7.106
 6720SOL    HW120903   3.855   0.363   7.068
 6720SOL    HW220904   3.878   0.250   7.166
 6721SOL     OW20905   3.812   0.546   6.979
 6721SOL    HW120906   3.907   0.547   6.966
 6721SOL    HW220907   3.795   0.622   7.034
 6722SOL     OW20908   0.266   0.295   5.916
 6722SOL    HW120909   0.327   0.229   5.884
 6722SOL    HW220910   0.310   0.379   5.899
 6723SOL     OW20911   3.793   1.574   6.938
 6723SOL    HW120912   3.765   1.636   6.871
 6723SOL    HW220913   3.888   1.582   6.940
 6724SOL     OW20914   0.060   1.101   6.124
 6724SOL    HW120915   0.049   1.129   6.033
 6724SOL    HW220916   0.130   1.036   6.121
 6725SOL     OW20917   0.001   0.214   6.837
 6725SOL    HW120918   3.972   0.237   6.925
 6725SOL    HW220919   4.000   0.118   6.836
 6726SOL     OW20920   3.750   1.314   6.862
 6726SOL    HW120921   3.793   1.263   6.931
 6726SOL    HW220922   3.764   1.405   6.888
 6727SOL     OW20923   3.728   1.326   5.771
 6727SOL    HW120924   3.642   1.341   5.731
 6727SOL    HW220925   3.719   1.244   5.819
 6728SOL     OW20926   3.802   1.792   6.526
 6728SOL    HW120927   3.778   1.713   6.478
 6728SOL    HW220928   3.897   1.800   6.513
 6729SOL     OW20929   0.208   1.546   6.447
 6729SOL    HW120930   0.297   1.578   6.443
 6729SOL    HW220931   0.204   1.477   6.380
 6730SOL     OW20932   3.751   0.537   6.704
 6730SOL    HW120933   3.830   0.533   6.649
 6730SOL    HW220934   3.785   0.543   6.794
 6731SOL     OW20935   3.900   0.534   7.299
 6731SOL    HW120936   3.940   0.482   7.230
 6731SOL    HW220937   3.862   0.609   7.253
 6732SOL     OW20938   3.937   1.530   7.312
 6732SOL    HW120939   3.924   1.619   7.344
 6732SOL    HW220940   3.991   1.489   7.379
 6733SOL     OW20941   3.860   1.139   7.056
 6733SOL    HW120942   3.939   1.147   7.110
 6733SOL    HW220943   3.888   1.088   6.981
 6734SOL     OW20944   3.812   1.272   6.597
 6734SOL    HW120945   3.782   1.282   6.687
 6734SOL    HW220946   3.755   1.204   6.561
 6735SOL     OW20947   3.848   1.787   7.408
 6735SOL    HW120948   3.796   1.724   7.458
 6735SOL    HW220949   3.898   1.835   7.474
 6736SOL     OW20950   3.823   0.317   5.583
 6736SOL    HW120951   3.755   0.331   5.648
 6736SOL    HW220952   3.818   0.393   5.526
 6737SOL     OW20953   3.773   0.149   5.930
 6737SOL    HW120954   3.739   0.204   5.859
 6737SOL    HW220955   3.868   0.158   5.923
 6738SOL     OW20956   3.805   1.236   6.251
 6738SOL    HW120957   3.794   1.187   6.333
 6738SOL    HW220958   3.879   1.194   6.208
 6739SOL     OW20959   3.753   1.083   5.899
 6739SOL    HW120960   3.843   1.084   5.867
 6739SOL    HW220961   3.736   0.991   5.918
 6740SOL     OW20962   3.955   0.634   7.554
 6740SOL    HW120963   3.874   0.636   7.605
 6740SOL    HW220964   3.929   0.600   7.469
 6741SOL     OW20965   3.954   0.302   8.447
 6741SOL    HW120966   3.963   0.274   8.538
 6741SOL    HW220967   3.869   0.267   8.419
 6742SOL     OW20968   3.731   0.394   8.083
 6742SOL    HW120969   3.644   0.407   8.120
 6742SOL    HW220970   3.722   0.318   8.025
 6743SOL     OW20971   0.013   1.528   8.504
 6743SOL    HW120972   3.955   1.455   8.487
 6743SOL    HW220973   0.077   1.525   8.432
 6744SOL     OW20974   3.941   1.720   7.926
 6744SOL    HW120975   3.942   1.791   7.989
 6744SOL    HW220976   0.033   1.708   7.901
 6745SOL     OW20977   3.948   1.438   7.955
 6745SOL    HW120978   3.926   1.531   7.952
 6745SOL    HW220979   3.887   1.402   8.020
 6746SOL     OW20980   3.799   0.651   8.009
 6746SOL    HW120981   3.785   0.559   8.034
 6746SOL    HW220982   3.807   0.697   8.092
 6747SOL     OW20983   3.763   1.596   7.578
 6747SOL    HW120984   3.740   1.504   7.595
 6747SOL    HW220985   3.730   1.643   7.655
 6748SOL     OW20986   3.821   0.754   9.020
 6748SOL    HW120987   3.899   0.807   9.039
 6748SOL    HW220988   3.751   0.818   9.011
 6749SOL     OW20989   3.806   0.820   8.222
 6749SOL    HW120990   3.901   0.818   8.236
 6749SOL    HW220991   3.775   0.892   8.277
 6750SOL     OW20992   3.848   1.884   9.018
 6750SOL    HW120993   3.846   1.853   9.109
 6750SOL    HW220994   3.773   1.839   8.977
 6751SOL     OW20995   3.924   0.309   8.968
 6751SOL    HW120996   3.855   0.363   8.930
 6751SOL    HW220997   3.878   0.250   9.028
 6752SOL     OW20998   3.812   0.546   8.841
 6752SOL    HW120999   3.907   0.546   8.828
 6752SOL    HW221000   3.795   0.622   8.896
 6753SOL     OW21001   0.266   0.295   7.778
 6753SOL    HW121002   0.327   0.229   7.746
 6753SOL    HW221003   0.310   0.378   7.761
 6754SOL     OW21004   3.793   1.574   8.800
 6754SOL    HW121005   3.765   1.636   8.732
 6754SOL    HW221006   3.888   1.582   8.802
 6755SOL     OW21007   0.062   1.101   7.986
 6755SOL    HW121008   0.051   1.131   7.895
 6755SOL    HW221009   0.136   1.040   7.982
 6756SOL     OW21010   0.001   0.214   8.699
 6756SOL    HW121011   3.972   0.237   8.787
 6756SOL    HW221012   4.000   0.118   8.698
 6757SOL     OW21013   3.749   1.314   8.724
 6757SOL    HW121014   3.792   1.263   8.793
 6757SOL    HW221015   3.763   1.405   8.749
 6758SOL     OW21016   3.728   1.327   7.634
 6758SOL    HW121017   3.643   1.341   7.595
 6758SOL    HW221018   3.720   1.244   7.682
 6759SOL     OW21019   3.803   1.792   8.389
 6759SOL    HW121020   3.778   1.713   8.341
 6759SOL    HW221021   3.897   1.800   8.375
 6760SOL     OW21022   0.208   1.546   8.309
 6760SOL    HW121023   0.298   1.579   8.306
 6760SOL    HW221024   0.205   1.478   8.242
 6761SOL     OW21025   3.751   0.537   8.566
 6761SOL    HW121026   3.830   0.533   8.511
 6761SOL    HW221027   3.785   0.543   8.655
 6762SOL     OW21028   3.900   0.534   9.161
 6762SOL    HW121029   3.939   0.481   9.092
 6762SOL    HW221030   3.861   0.609   9.115
 6763SOL     OW21031   3.938   1.530   9.174
 6763SOL    HW121032   3.924   1.619   9.207
 6763SOL    HW221033   3.989   1.488   9.243
 6764SOL     OW21034   3.860   1.140   8.918
 6764SOL    HW121035   3.938   1.147   8.973
 6764SOL    HW221036   3.889   1.089   8.843
 6765SOL     OW21037   3.812   1.272   8.458
 6765SOL    HW121038   3.782   1.283   8.549
 6765SOL    HW221039   3.755   1.204   8.423
 6766SOL     OW21040   3.848   1.788   9.270
 6766SOL    HW121041   3.796   1.724   9.320
 6766SOL    HW221042   3.897   1.835   9.336
 6767SOL     OW21043   3.823   0.317   7.444
 6767SOL    HW121044   3.755   0.331   7.510
 6767SOL    HW221045   3.818   0.393   7.387
 6768SOL     OW21046   3.773   0.150   7.792
 6768SOL    HW121047   3.739   0.204   7.721
 6768SOL    HW221048   3.868   0.158   7.785
 6769SOL     OW21049   3.803   1.235   8.113
 6769SOL    HW121050   3.796   1.188   8.196
 6769SOL    HW221051   3.878   1.196   8.069
 6770SOL     OW21052   3.753   1.083   7.761
 6770SOL    HW121053   3.843   1.084   7.729
 6770SOL    HW221054   3.735   0.991   7.780
 6771SOL     OW21055   3.955   0.634   9.417
 6771SOL    HW121056   3.874   0.636   9.467
 6771SOL    HW221057   3.929   0.600   9.331
 6772SOL     OW21058   3.954   0.302  10.309
 6772SOL    HW121059   3.963   0.274  10.400
 6772SOL    HW221060   3.869   0.267  10.281
 6773SOL     OW21061   3.731   0.394   9.945
 6773SOL    HW121062   3.644   0.407   9.983
 6773SOL    HW221063   3.721   0.319   9.887
 6774SOL     OW21064   0.013   1.529  10.365
 6774SOL    HW121065   3.955   1.455  10.349
 6774SOL    HW221066   0.077   1.525  10.294
 6775SOL     OW21067   3.941   1.720   9.787
 6775SOL    HW121068   3.942   1.792   9.851
 6775SOL    HW221069   0.033   1.708   9.764
 6776SOL     OW21070   3.948   1.438   9.817
 6776SOL    HW121071   3.926   1.531   9.815
 6776SOL    HW221072   3.888   1.401   9.882
 6777SOL     OW21073   3.800   0.651   9.871
 6777SOL    HW121074   3.785   0.560   9.896
 6777SOL    HW221075   3.807   0.697   9.954
 6778SOL     OW21076   3.763   1.596   9.440
 6778SOL    HW121077   3.739   1.504   9.456
 6778SOL    HW221078   3.729   1.643   9.516
 6779SOL     OW21079   3.821   0.754  10.882
 6779SOL    HW121080   3.899   0.807  10.901
 6779SOL    HW221081   3.751   0.818  10.873
 6780SOL     OW21082   3.807   0.820  10.084
 6780SOL    HW121083   3.901   0.818  10.099
 6780SOL    HW221084   3.775   0.892  10.139
 6781SOL     OW21085   3.848   1.884  10.880
 6781SOL    HW121086   3.846   1.853  10.971
 6781SOL    HW221087   3.774   1.839  10.839
 6782SOL     OW21088   3.924   0.309  10.830
 6782SOL    HW121089   3.855   0.363  10.792
 6782SOL    HW221090   3.878   0.250  10.890
 6783SOL     OW21091   3.812   0.546  10.703
 6783SOL    HW121092   3.907   0.546  10.690
 6783SOL    HW221093   3.795   0.622  10.758
 6784SOL     OW21094   0.266   0.295   9.640
 6784SOL    HW121095   0.327   0.229   9.608
 6784SOL    HW221096   0.310   0.379   9.623
 6785SOL     OW21097   3.793   1.574  10.662
 6785SOL    HW121098   3.765   1.636  10.594
 6785SOL    HW221099   3.888   1.582  10.664
 6786SOL     OW21100   0.061   1.101   9.848
 6786SOL    HW121101   0.050   1.130   9.757
 6786SOL    HW221102   0.133   1.038   9.845
 6787SOL     OW21103   0.001   0.214  10.561
 6787SOL    HW121104   3.972   0.237  10.649
 6787SOL    HW221105   4.000   0.118  10.560
 6788SOL     OW21106   3.750   1.314  10.586
 6788SOL    HW121107   3.792   1.263  10.655
 6788SOL    HW221108   3.763   1.405  10.611
 6789SOL     OW21109   3.728   1.327   9.495
 6789SOL    HW121110   3.642   1.341   9.456
 6789SOL    HW221111   3.719   1.244   9.543
 6790SOL     OW21112   3.802   1.792  10.251
 6790SOL    HW121113   3.778   1.713  10.203
 6790SOL    HW221114   3.897   1.800  10.237
 6791SOL     OW21115   0.208   1.546  10.171
 6791SOL    HW121116   0.298   1.578  10.168
 6791SOL    HW221117   0.204   1.477  10.104
 6792SOL     OW21118   3.751   0.537  10.428
 6792SOL    HW121119   3.830   0.533  10.373
 6792SOL    HW221120   3.785   0.543  10.518
 6793SOL     OW21121   3.900   0.534  11.023
 6793SOL    HW121122   3.939   0.482  10.954
 6793SOL    HW221123   3.861   0.609  10.977
 6794SOL     OW21124   3.938   1.530  11.036
 6794SOL    HW121125   3.924   1.619  11.069
 6794SOL    HW221126   3.989   1.488  11.105
 6795SOL     OW21127   3.860   1.140  10.780
 6795SOL    HW121128   3.938   1.147  10.835
 6795SOL    HW221129   3.888   1.088  10.705
 6796SOL     OW21130   3.812   1.272  10.321
 6796SOL    HW121131   3.782   1.283  10.411
 6796SOL    HW221132   3.755   1.204  10.285
 6797SOL     OW21133   3.848   1.788  11.132
 6797SOL    HW121134   3.796   1.725  11.182
 6797SOL    HW221135   3.897   1.835  11.198
 6798SOL     OW21136   3.823   0.317   9.307
 6798SOL    HW121137   3.755   0.331   9.372
 6798SOL    HW221138   3.818   0.393   9.250
 6799SOL     OW21139   3.773   0.149   9.654
 6799SOL    HW121140   3.739   0.204   9.583
 6799SOL    HW221141   3.868   0.158   9.647
 6800SOL     OW21142   3.804   1.236   9.975
 6800SOL    HW121143   3.795   1.188  10.057
 6800SOL    HW221144   3.879   1.195   9.931
 6801SOL     OW21145   3.753   1.083   9.623
 6801SOL    HW121146   3.843   1.084   9.591
 6801SOL    HW221147   3.736   0.991   9.642
 6802SOL     OW21148   3.955   0.634  11.279
 6802SOL    HW121149   3.874   0.636  11.329
 6802SOL    HW221150   3.929   0.600  11.193
 6803SOL     OW21151   3.954   0.302  12.171
 6803SOL    HW121152   3.963   0.274  12.262
 6803SOL    HW221153   3.869   0.267  12.143
 6804SOL     OW21154   3.731   0.394  11.807
 6804SOL    HW121155   3.644   0.407  11.845
 6804SOL    HW221156   3.721   0.319  11.749
 6805SOL     OW21157   0.013   1.529  12.227
 6805SOL    HW121158   3.955   1.455  12.211
 6805SOL    HW221159   0.077   1.525  12.156
 6806SOL     OW21160   3.941   1.720  11.649
 6806SOL    HW121161   3.942   1.792  11.713
 6806SOL    HW221162   0.033   1.708  11.626
 6807SOL     OW21163   3.948   1.438  11.679
 6807SOL    HW121164   3.926   1.531  11.677
 6807SOL    HW221165   3.888   1.401  11.744
 6808SOL     OW21166   3.800   0.651  11.733
 6808SOL    HW121167   3.785   0.560  11.758
 6808SOL    HW221168   3.807   0.697  11.816
 6809SOL     OW21169   3.763   1.596  11.302
 6809SOL    HW121170   3.739   1.504  11.318
 6809SOL    HW221171   3.729   1.643  11.378
 6810SOL     OW21172   3.821   0.754  12.744
 6810SOL    HW121173   3.899   0.807  12.762
 6810SOL    HW221174   3.751   0.818  12.735
 6811SOL     OW21175   3.807   0.820  11.946
 6811SOL    HW121176   3.901   0.818  11.961
 6811SOL    HW221177   3.775   0.892  12.001
 6812SOL     OW21178   3.848   1.883  12.743
 6812SOL    HW121179   3.846   1.854  12.834
 6812SOL    HW221180   3.773   1.839  12.702
 6813SOL     OW21181   3.924   0.309  12.693
 6813SOL    HW121182   3.855   0.363  12.654
 6813SOL    HW221183   3.878   0.249  12.751
 6814SOL     OW21184   3.812   0.546  12.565
 6814SOL    HW121185   3.907   0.546  12.552
 6814SOL    HW221186   3.795   0.622  12.620
 6815SOL     OW21187   0.266   0.295  11.502
 6815SOL    HW121188   0.328   0.229  11.470
 6815SOL    HW221189   0.309   0.379  11.485
 6816SOL     OW21190   3.793   1.574  12.524
 6816SOL    HW121191   3.765   1.636  12.456
 6816SOL    HW221192   3.888   1.582  12.526
 6817SOL     OW21193   0.061   1.101  11.710
 6817SOL    HW121194   0.050   1.130  11.619
 6817SOL    HW221195   0.133   1.039  11.707
 6818SOL     OW21196   0.002   0.213  12.423
 6818SOL    HW121197   3.972   0.237  12.511
 6818SOL    HW221198   4.000   0.118  12.422
 6819SOL     OW21199   3.750   1.314  12.448
 6819SOL    HW121200   3.792   1.263  12.517
 6819SOL    HW221201   3.763   1.405  12.473
 6820SOL     OW21202   3.728   1.327  11.357
 6820SOL    HW121203   3.642   1.341  11.318
 6820SOL    HW221204   3.719   1.244  11.405
 6821SOL     OW21205   3.802   1.792  12.113
 6821SOL    HW121206   3.778   1.713  12.065
 6821SOL    HW221207   3.897   1.800  12.099
 6822SOL     OW21208   0.208   1.546  12.033
 6822SOL    HW121209   0.298   1.578  12.030
 6822SOL    HW221210   0.204   1.477  11.966
 6823SOL     OW21211   3.751   0.537  12.290
 6823SOL    HW121212   3.830   0.533  12.235
 6823SOL    HW221213   3.785   0.543  12.380
 6824SOL     OW21214   3.901   0.535  12.885
 6824SOL    HW121215   3.939   0.481  12.815
 6824SOL    HW221216   3.862   0.610  12.839
 6825SOL     OW21217   3.938   1.531  12.899
 6825SOL    HW121218   3.924   1.620  12.931
 6825SOL    HW221219   3.987   1.487  12.968
 6826SOL     OW21220   3.860   1.140  12.642
 6826SOL    HW121221   3.938   1.147  12.696
 6826SOL    HW221222   3.888   1.088  12.567
 6827SOL     OW21223   3.812   1.272  12.183
 6827SOL    HW121224   3.782   1.283  12.273
 6827SOL    HW221225   3.755   1.204  12.147
 6828SOL     OW21226   3.848   1.789  12.995
 6828SOL    HW121227   3.796   1.725  13.045
 6828SOL    HW221228   3.897   1.837  13.062
 6829SOL     OW21229   3.823   0.317  11.169
 6829SOL    HW121230   3.755   0.331  11.234
 6829SOL    HW221231   3.818   0.393  11.112
 6830SOL     OW21232   3.773   0.149  11.516
 6830SOL    HW121233   3.739   0.204  11.445
 6830SOL    HW221234   3.868   0.158  11.509
 6831SOL     OW21235   3.804   1.236  11.837
 6831SOL    HW121236   3.795   1.188  11.919
 6831SOL    HW221237   3.879   1.195  11.793
 6832SOL     OW21238   3.753   1.083  11.485
 6832SOL    HW121239   3.843   1.084  11.453
 6832SOL    HW221240   3.736   0.991  11.504
 6833SOL     OW21241   3.952   0.632  13.142
 6833SOL    HW121242   3.869   0.634  13.190
 6833SOL    HW221243   3.929   0.600  13.055
 6834SOL     OW21244   3.719   0.386  13.645
 6834SOL    HW121245   3.627   0.401  13.667
 6834SOL    HW221246   3.722   0.295  13.615
 6835SOL     OW21247   3.940   1.714  13.504
 6835SOL    HW121248   3.939   1.787  13.566
 6835SOL    HW221249   0.033   1.702  13.484
 6836SOL     OW21250   3.947   1.434  13.533
 6836SOL    HW121251   3.927   1.528  13.533
 6836SOL    HW221252   3.886   1.398  13.598
 6837SOL     OW21253   3.936   1.099   0.011
 6837SOL    HW121254   3.978   1.057   0.086
 6837SOL    HW221255   3.843   1.099   0.033
 6838SOL     OW21256   3.823   0.644  13.595
 6838SOL    HW121257   3.779   0.560  13.611
 6838SOL    HW221258   3.812   0.692  13.677
 6839SOL     OW21259   3.761   1.596  13.163
 6839SOL    HW121260   3.738   1.504  13.179
 6839SOL    HW221261   3.728   1.643  13.239
 6840SOL     OW21262   3.796   0.807  13.812
 6840SOL    HW121263   3.891   0.818  13.824
 6840SOL    HW221264   3.758   0.885  13.852
 6841SOL     OW21265   0.097   1.812  13.889
 6841SOL    HW121266   0.059   1.735   0.030
 6841SOL    HW221267   0.165   1.841   0.051
 6842SOL     OW21268   0.267   0.295  13.367
 6842SOL    HW121269   0.324   0.224  13.338
 6842SOL    HW221270   0.317   0.375  13.348
 6843SOL     OW21271   0.066   1.103  13.563
 6843SOL    HW121272   0.058   1.132  13.472
 6843SOL    HW221273   0.141   1.043  13.562
 6844SOL     OW21274   3.728   1.327  13.220
 6844SOL    HW121275   3.642   1.341  13.180
 6844SOL    HW221276   3.718   1.244  13.268
 6845SOL     OW21277   0.309   1.536   0.012
 6845SOL    HW121278   0.240   1.589   0.052
 6845SOL    HW221279   0.262   1.478  13.852
 6846SOL     OW21280   3.822   0.317  13.030
 6846SOL    HW121281   3.754   0.331  13.096
 6846SOL    HW221282   3.817   0.394  12.973
 6847SOL     OW21283   3.785   0.149  13.369
 6847SOL    HW121284   3.746   0.205  13.301
 6847SOL    HW221285   3.879   0.157  13.355
 6848SOL     OW21286   3.812   1.229  13.683
 6848SOL    HW121287   3.811   1.175  13.762
 6848SOL    HW221288   3.886   1.196  13.632
 6849SOL     OW21289   3.753   1.081  13.345
 6849SOL    HW121290   3.842   1.083  13.310
 6849SOL    HW221291   3.738   0.988  13.366
 6850SOL     OW21292   3.953   2.496   0.135
 6850SOL    HW121293   3.889   2.505   0.205
 6850SOL    HW221294   3.907   2.447   0.067
 6851SOL     OW21295   3.962   2.126   0.988
 6851SOL    HW121296   3.966   2.118   1.084
 6851SOL    HW221297   3.870   2.113   0.967
 6852SOL     OW21298   3.721   2.245   0.637
 6852SOL    HW121299   3.642   2.268   0.685
 6852SOL    HW221300   3.701   2.162   0.595
 6853SOL     OW21301   0.014   3.387   1.057
 6853SOL    HW121302   3.956   3.314   1.035
 6853SOL    HW221303   0.076   3.390   0.984
 6854SOL     OW21304   3.937   3.571   0.480
 6854SOL    HW121305   3.947   3.646   0.540
 6854SOL    HW221306   0.025   3.560   0.443
 6855SOL     OW21307   3.933   3.294   0.507
 6855SOL    HW121308   3.925   3.390   0.503
 6855SOL    HW221309   3.880   3.269   0.582
 6856SOL     OW21310   3.809   2.502   0.559
 6856SOL    HW121311   3.779   2.415   0.584
 6856SOL    HW221312   3.808   2.552   0.641
 6857SOL     OW21313   3.758   3.464   0.119
 6857SOL    HW121314   3.732   3.374   0.137
 6857SOL    HW221315   3.723   3.514   0.193
 6858SOL     OW21316   3.822   2.605   1.581
 6858SOL    HW121317   3.901   2.655   1.601
 6858SOL    HW221318   3.753   2.671   1.570
 6859SOL     OW21319   3.806   2.681   0.767
 6859SOL    HW121320   3.900   2.679   0.785
 6859SOL    HW221321   3.772   2.750   0.824
 6860SOL     OW21322   3.849   3.728   1.569
 6860SOL    HW121323   3.846   3.700   1.661
 6860SOL    HW221324   3.767   3.696   1.531
 6861SOL     OW21325   3.920   2.150   1.516
 6861SOL    HW121326   3.838   2.194   1.493
 6861SOL    HW221327   3.893   2.064   1.548
 6862SOL     OW21328   3.812   2.407   1.392
 6862SOL    HW121329   3.907   2.403   1.382
 6862SOL    HW221330   3.797   2.480   1.451
 6863SOL     OW21331   3.793   3.436   1.352
 6863SOL    HW121332   3.766   3.499   1.285
 6863SOL    HW221333   3.888   3.444   1.355
 6864SOL     OW21334   0.076   2.961   0.543
 6864SOL    HW121335   0.071   3.014   0.464
 6864SOL    HW221336   0.162   2.918   0.539
 6865SOL     OW21337   0.001   2.073   1.254
 6865SOL    HW121338   3.972   2.105   1.339
 6865SOL    HW221339   0.012   1.978   1.266
 6866SOL     OW21340   3.749   3.176   1.275
 6866SOL    HW121341   3.791   3.125   1.344
 6866SOL    HW221342   3.764   3.267   1.300
 6867SOL     OW21343   3.986   1.922   0.657
 6867SOL    HW121344   0.004   2.015   0.667
 6867SOL    HW221345   0.013   1.882   0.739
 6868SOL     OW21346   3.740   3.177   0.175
 6868SOL    HW121347   3.657   3.188   0.129
 6868SOL    HW221348   3.732   3.093   0.220
 6869SOL     OW21349   3.803   3.648   0.940
 6869SOL    HW121350   3.779   3.569   0.892
 6869SOL    HW221351   3.897   3.656   0.929
 6870SOL     OW21352   0.207   3.420   0.863
 6870SOL    HW121353   0.282   3.479   0.858
 6870SOL    HW221354   0.222   3.356   0.793
 6871SOL     OW21355   3.757   2.404   1.121
 6871SOL    HW121356   3.839   2.402   1.072
 6871SOL    HW221357   3.783   2.406   1.213
 6872SOL     OW21358   3.896   2.378   1.724
 6872SOL    HW121359   3.920   2.315   1.656
 6872SOL    HW221360   3.858   2.451   1.677
 6873SOL     OW21361   3.938   3.391   1.728
 6873SOL    HW121362   3.923   3.481   1.756
 6873SOL    HW221363   3.989   3.351   1.798
 6874SOL     OW21364   3.859   3.003   1.470
 6874SOL    HW121365   3.935   3.009   1.528
 6874SOL    HW221366   3.890   2.952   1.395
 6875SOL     OW21367   3.811   3.133   1.010
 6875SOL    HW121368   3.783   3.145   1.101
 6875SOL    HW221369   3.754   3.064   0.976
 6876SOL     OW21370   3.843   3.644   1.822
 6876SOL    HW121371   3.793   3.581   1.873
 6876SOL    HW221372   3.889   3.697   1.887
 6877SOL     OW21373   3.774   2.276   0.033
 6877SOL    HW121374   3.741   2.192   0.065
 6877SOL    HW221375   3.755   2.275  13.839
 6878SOL     OW21376   3.781   2.017   0.346
 6878SOL    HW121377   3.755   2.038   0.256
 6878SOL    HW221378   3.877   2.023   0.345
 6879SOL     OW21379   3.799   3.093   0.669
 6879SOL    HW121380   3.792   3.047   0.752
 6879SOL    HW221381   3.885   3.069   0.634
 6880SOL     OW21382   3.752   2.936   0.309
 6880SOL    HW121383   3.846   2.945   0.321
 6880SOL    HW221384   3.735   2.843   0.324
 6881SOL     OW21385   3.953   2.495   1.973
 6881SOL    HW121386   3.873   2.491   2.025
 6881SOL    HW221387   3.929   2.459   1.888
 6882SOL     OW21388   3.963   2.125   2.851
 6882SOL    HW121389   3.966   2.118   2.946
 6882SOL    HW221390   3.870   2.113   2.829
 6883SOL     OW21391   3.720   2.242   2.499
 6883SOL    HW121392   3.641   2.268   2.547
 6883SOL    HW221393   3.696   2.160   2.457
 6884SOL     OW21394   0.012   3.388   2.918
 6884SOL    HW121395   3.956   3.313   2.898
 6884SOL    HW221396   0.076   3.389   2.846
 6885SOL     OW21397   3.940   3.579   2.339
 6885SOL    HW121398   3.947   3.653   2.400
 6885SOL    HW221399   0.030   3.562   2.312
 6886SOL     OW21400   3.943   3.299   2.366
 6886SOL    HW121401   3.926   3.393   2.368
 6886SOL    HW221402   3.887   3.263   2.435
 6887SOL     OW21403   3.813   2.500   2.424
 6887SOL    HW121404   3.781   2.413   2.447
 6887SOL    HW221405   3.809   2.549   2.506
 6888SOL     OW21406   3.758   3.456   1.994
 6888SOL    HW121407   3.737   3.363   2.009
 6888SOL    HW221408   3.726   3.500   2.073
 6889SOL     OW21409   3.822   2.605   3.443
 6889SOL    HW121410   3.901   2.655   3.463
 6889SOL    HW221411   3.753   2.671   3.432
 6890SOL     OW21412   3.806   2.679   2.632
 6890SOL    HW121413   3.901   2.679   2.647
 6890SOL    HW221414   3.773   2.750   2.687
 6891SOL     OW21415   3.849   3.728   3.431
 6891SOL    HW121416   3.846   3.700   3.523
 6891SOL    HW221417   3.767   3.696   3.393
 6892SOL     OW21418   3.920   2.150   3.379
 6892SOL    HW121419   3.838   2.194   3.354
 6892SOL    HW221420   3.893   2.064   3.410
 6893SOL     OW21421   4.000   1.895   2.021
 6893SOL    HW121422   0.039   1.981   2.006
 6893SOL    HW221423   0.056   1.854   2.087
 6894SOL     OW21424   3.812   2.406   3.254
 6894SOL    HW121425   3.908   2.403   3.244
 6894SOL    HW221426   3.797   2.480   3.313
 6895SOL     OW21427   0.280   2.151   2.180
 6895SOL    HW121428   0.295   2.073   2.126
 6895SOL    HW221429   0.330   2.221   2.137
 6896SOL     OW21430   3.793   3.436   3.214
 6896SOL    HW121431   3.766   3.498   3.146
 6896SOL    HW221432   3.888   3.444   3.218
 6897SOL     OW21433   0.064   2.960   2.399
 6897SOL    HW121434   0.050   2.992   2.310
 6897SOL    HW221435   0.141   2.904   2.393
 6898SOL     OW21436   0.002   2.073   3.116
 6898SOL    HW121437   3.972   2.105   3.201
 6898SOL    HW221438   0.012   1.978   3.128
 6899SOL     OW21439   3.749   3.176   3.137
 6899SOL    HW121440   3.791   3.124   3.206
 6899SOL    HW221441   3.764   3.267   3.162
 6900SOL     OW21442   3.993   1.923   2.517
 6900SOL    HW121443   3.999   2.017   2.532
 6900SOL    HW221444   0.017   1.884   2.601
 6901SOL     OW21445   3.727   3.186   2.049
 6901SOL    HW121446   3.641   3.201   2.010
 6901SOL    HW221447   3.717   3.103   2.096
 6902SOL     OW21448   3.803   3.649   2.802
 6902SOL    HW121449   3.779   3.569   2.755
 6902SOL    HW221450   3.897   3.656   2.791
 6903SOL     OW21451   0.207   3.417   2.726
 6903SOL    HW121452   0.283   3.475   2.719
 6903SOL    HW221453   0.219   3.352   2.657
 6904SOL     OW21454   3.756   2.404   2.983
 6904SOL    HW121455   3.839   2.402   2.934
 6904SOL    HW221456   3.783   2.406   3.075
 6905SOL     OW21457   3.896   2.378   3.586
 6905SOL    HW121458   3.920   2.315   3.518
 6905SOL    HW221459   3.858   2.451   3.539
 6906SOL     OW21460   3.938   3.391   3.590
 6906SOL    HW121461   3.923   3.481   3.619
 6906SOL    HW221462   3.989   3.351   3.660
 6907SOL     OW21463   3.859   3.003   3.332
 6907SOL    HW121464   3.935   3.009   3.389
 6907SOL    HW221465   3.889   2.952   3.257
 6908SOL     OW21466   3.810   3.135   2.872
 6908SOL    HW121467   3.782   3.145   2.963
 6908SOL    HW221468   3.754   3.065   2.837
 6909SOL     OW21469   3.843   3.644   3.684
 6909SOL    HW121470   3.793   3.581   3.735
 6909SOL    HW221471   3.889   3.697   3.749
 6910SOL     OW21472   3.800   2.191   1.906
 6910SOL    HW121473   3.717   2.157   1.875
 6910SOL    HW221474   3.819   2.265   1.848
 6911SOL     OW21475   3.761   2.026   2.174
 6911SOL    HW121476   3.753   2.082   2.097
 6911SOL    HW221477   3.851   2.038   2.204
 6912SOL     OW21478   3.802   3.098   2.529
 6912SOL    HW121479   3.794   3.050   2.611
 6912SOL    HW221480   3.879   3.060   2.486
 6913SOL     OW21481   3.751   2.938   2.176
 6913SOL    HW121482   3.841   2.941   2.143
 6913SOL    HW221483   3.735   2.846   2.193
 6914SOL     OW21484   3.953   2.495   3.835
 6914SOL    HW121485   3.873   2.491   3.886
 6914SOL    HW221486   3.929   2.459   3.750
 6915SOL     OW21487   3.963   2.125   4.713
 6915SOL    HW121488   3.966   2.118   4.808
 6915SOL    HW221489   3.870   2.113   4.691
 6916SOL     OW21490   3.719   2.242   4.361
 6916SOL    HW121491   3.641   2.268   4.409
 6916SOL    HW221492   3.696   2.160   4.318
 6917SOL     OW21493   0.012   3.388   4.780
 6917SOL    HW121494   3.956   3.313   4.761
 6917SOL    HW221495   0.076   3.389   4.709
 6918SOL     OW21496   3.940   3.579   4.201
 6918SOL    HW121497   3.947   3.653   4.262
 6918SOL    HW221498   0.030   3.562   4.174
 6919SOL     OW21499   3.943   3.299   4.228
 6919SOL    HW121500   3.926   3.393   4.230
 6919SOL    HW221501   3.887   3.263   4.297
 6920SOL     OW21502   3.813   2.500   4.286
 6920SOL    HW121503   3.781   2.413   4.309
 6920SOL    HW221504   3.809   2.549   4.368
 6921SOL     OW21505   3.758   3.456   3.856
 6921SOL    HW121506   3.737   3.363   3.871
 6921SOL    HW221507   3.726   3.500   3.935
 6922SOL     OW21508   3.821   2.604   5.305
 6922SOL    HW121509   3.900   2.655   5.325
 6922SOL    HW221510   3.753   2.670   5.294
 6923SOL     OW21511   3.806   2.679   4.494
 6923SOL    HW121512   3.901   2.679   4.509
 6923SOL    HW221513   3.773   2.750   4.549
 6924SOL     OW21514   3.849   3.728   5.293
 6924SOL    HW121515   3.846   3.700   5.385
 6924SOL    HW221516   3.768   3.696   5.255
 6925SOL     OW21517   3.919   2.150   5.241
 6925SOL    HW121518   3.838   2.194   5.216
 6925SOL    HW221519   3.892   2.064   5.272
 6926SOL     OW21520   4.000   1.895   3.883
 6926SOL    HW121521   0.039   1.981   3.868
 6926SOL    HW221522   0.056   1.854   3.948
 6927SOL     OW21523   3.813   2.406   5.116
 6927SOL    HW121524   3.908   2.403   5.106
 6927SOL    HW221525   3.797   2.480   5.175
 6928SOL     OW21526   0.280   2.151   4.042
 6928SOL    HW121527   0.295   2.073   3.988
 6928SOL    HW221528   0.330   2.220   3.999
 6929SOL     OW21529   3.793   3.436   5.076
 6929SOL    HW121530   3.766   3.498   5.008
 6929SOL    HW221531   3.888   3.444   5.080
 6930SOL     OW21532   0.064   2.960   4.261
 6930SOL    HW121533   0.050   2.992   4.172
 6930SOL    HW221534   0.141   2.904   4.255
 6931SOL     OW21535   0.003   2.073   4.979
 6931SOL    HW121536   3.971   2.105   5.063
 6931SOL    HW221537   0.010   1.978   4.990
 6932SOL     OW21538   3.750   3.176   4.999
 6932SOL    HW121539   3.791   3.125   5.068
 6932SOL    HW221540   3.764   3.267   5.024
 6933SOL     OW21541   3.993   1.923   4.379
 6933SOL    HW121542   3.999   2.017   4.394
 6933SOL    HW221543   0.017   1.884   4.463
 6934SOL     OW21544   3.727   3.186   3.911
 6934SOL    HW121545   3.641   3.201   3.872
 6934SOL    HW221546   3.717   3.103   3.958
 6935SOL     OW21547   3.803   3.649   4.664
 6935SOL    HW121548   3.779   3.569   4.617
 6935SOL    HW221549   3.897   3.656   4.653
 6936SOL     OW21550   0.207   3.417   4.588
 6936SOL    HW121551   0.283   3.475   4.581
 6936SOL    HW221552   0.219   3.352   4.519
 6937SOL     OW21553   3.756   2.403   4.845
 6937SOL    HW121554   3.839   2.402   4.796
 6937SOL    HW221555   3.783   2.406   4.937
 6938SOL     OW21556   3.897   2.377   5.448
 6938SOL    HW121557   3.919   2.314   5.380
 6938SOL    HW221558   3.858   2.451   5.401
 6939SOL     OW21559   3.938   3.391   5.452
 6939SOL    HW121560   3.924   3.481   5.480
 6939SOL    HW221561   3.989   3.351   5.522
 6940SOL     OW21562   3.859   3.003   5.194
 6940SOL    HW121563   3.936   3.009   5.251
 6940SOL    HW221564   3.889   2.951   5.119
 6941SOL     OW21565   3.810   3.135   4.734
 6941SOL    HW121566   3.782   3.145   4.824
 6941SOL    HW221567   3.754   3.066   4.699
 6942SOL     OW21568   3.844   3.644   5.546
 6942SOL    HW121569   3.793   3.581   5.598
 6942SOL    HW221570   3.889   3.697   5.612
 6943SOL     OW21571   3.800   2.191   3.768
 6943SOL    HW121572   3.717   2.157   3.736
 6943SOL    HW221573   3.819   2.265   3.710
 6944SOL     OW21574   3.761   2.026   4.036
 6944SOL    HW121575   3.753   2.082   3.959
 6944SOL    HW221576   3.851   2.038   4.066
 6945SOL     OW21577   3.802   3.098   4.391
 6945SOL    HW121578   3.794   3.050   4.473
 6945SOL    HW221579   3.879   3.060   4.348
 6946SOL     OW21580   3.751   2.938   4.038
 6946SOL    HW121581   3.841   2.941   4.005
 6946SOL    HW221582   3.735   2.846   4.055
 6947SOL     OW21583   3.953   2.495   5.697
 6947SOL    HW121584   3.873   2.492   5.748
 6947SOL    HW221585   3.929   2.459   5.611
 6948SOL     OW21586   3.962   2.125   6.575
 6948SOL    HW121587   3.966   2.117   6.670
 6948SOL    HW221588   3.870   2.113   6.553
 6949SOL     OW21589   3.720   2.242   6.223
 6949SOL    HW121590   3.642   2.267   6.272
 6949SOL    HW221591   3.697   2.159   6.180
 6950SOL     OW21592   0.012   3.388   6.642
 6950SOL    HW121593   3.956   3.313   6.623
 6950SOL    HW221594   0.076   3.389   6.571
 6951SOL     OW21595   3.940   3.579   6.063
 6951SOL    HW121596   3.947   3.653   6.124
 6951SOL    HW221597   0.030   3.562   6.036
 6952SOL     OW21598   3.943   3.299   6.090
 6952SOL    HW121599   3.926   3.393   6.092
 6952SOL    HW221600   3.888   3.263   6.159
 6953SOL     OW21601   3.814   2.500   6.148
 6953SOL    HW121602   3.781   2.413   6.171
 6953SOL    HW221603   3.810   2.549   6.230
 6954SOL     OW21604   3.758   3.456   5.718
 6954SOL    HW121605   3.737   3.363   5.733
 6954SOL    HW221606   3.726   3.500   5.797
 6955SOL     OW21607   3.822   2.604   7.166
 6955SOL    HW121608   3.901   2.654   7.187
 6955SOL    HW221609   3.753   2.671   7.156
 6956SOL     OW21610   3.806   2.679   6.357
 6956SOL    HW121611   3.901   2.678   6.372
 6956SOL    HW221612   3.773   2.750   6.411
 6957SOL     OW21613   3.849   3.729   7.156
 6957SOL    HW121614   3.845   3.701   7.247
 6957SOL    HW221615   3.768   3.695   7.117
 6958SOL     OW21616   3.920   2.150   7.103
 6958SOL    HW121617   3.838   2.194   7.079
 6958SOL    HW221618   3.893   2.064   7.134
 6959SOL     OW21619   3.999   1.895   5.744
 6959SOL    HW121620   0.039   1.981   5.729
 6959SOL    HW221621   0.055   1.854   5.810
 6960SOL     OW21622   3.812   2.406   6.978
 6960SOL    HW121623   3.907   2.403   6.968
 6960SOL    HW221624   3.797   2.480   7.037
 6961SOL     OW21625   0.283   2.150   5.907
 6961SOL    HW121626   0.296   2.073   5.852
 6961SOL    HW221627   0.329   2.220   5.860
 6962SOL     OW21628   3.793   3.436   6.938
 6962SOL    HW121629   3.766   3.498   6.870
 6962SOL    HW221630   3.888   3.444   6.942
 6963SOL     OW21631   0.063   2.960   6.123
 6963SOL    HW121632   0.050   2.992   6.034
 6963SOL    HW221633   0.140   2.904   6.117
 6964SOL     OW21634   0.000   2.072   6.840
 6964SOL    HW121635   3.972   2.105   6.925
 6964SOL    HW221636   0.014   1.978   6.853
 6965SOL     OW21637   3.749   3.176   6.861
 6965SOL    HW121638   3.791   3.124   6.930
 6965SOL    HW221639   3.764   3.267   6.886
 6966SOL     OW21640   3.992   1.923   6.241
 6966SOL    HW121641   3.999   2.017   6.256
 6966SOL    HW221642   0.017   1.884   6.325
 6967SOL     OW21643   3.727   3.186   5.773
 6967SOL    HW121644   3.641   3.201   5.734
 6967SOL    HW221645   3.717   3.103   5.820
 6968SOL     OW21646   3.803   3.649   6.526
 6968SOL    HW121647   3.779   3.569   6.479
 6968SOL    HW221648   3.898   3.656   6.515
 6969SOL     OW21649   0.207   3.417   6.450
 6969SOL    HW121650   0.283   3.475   6.443
 6969SOL    HW221651   0.219   3.352   6.381
 6970SOL     OW21652   3.757   2.404   6.706
 6970SOL    HW121653   3.839   2.402   6.658
 6970SOL    HW221654   3.783   2.406   6.798
 6971SOL     OW21655   3.896   2.378   7.311
 6971SOL    HW121656   3.920   2.315   7.243
 6971SOL    HW221657   3.858   2.451   7.263
 6972SOL     OW21658   3.937   3.391   7.313
 6972SOL    HW121659   3.924   3.480   7.344
 6972SOL    HW221660   3.991   3.350   7.382
 6973SOL     OW21661   3.859   3.003   7.056
 6973SOL    HW121662   3.935   3.009   7.114
 6973SOL    HW221663   3.890   2.951   6.981
 6974SOL     OW21664   3.810   3.135   6.596
 6974SOL    HW121665   3.782   3.145   6.687
 6974SOL    HW221666   3.754   3.065   6.561
 6975SOL     OW21667   3.843   3.644   7.409
 6975SOL    HW121668   3.793   3.581   7.460
 6975SOL    HW221669   3.889   3.697   7.474
 6976SOL     OW21670   3.801   2.191   5.630
 6976SOL    HW121671   3.716   2.157   5.599
 6976SOL    HW221672   3.819   2.265   5.572
 6977SOL     OW21673   3.761   2.026   5.899
 6977SOL    HW121674   3.753   2.082   5.822
 6977SOL    HW221675   3.851   2.038   5.928
 6978SOL     OW21676   3.802   3.098   6.253
 6978SOL    HW121677   3.795   3.050   6.335
 6978SOL    HW221678   3.879   3.060   6.209
 6979SOL     OW21679   3.751   2.938   5.900
 6979SOL    HW121680   3.840   2.942   5.867
 6979SOL    HW221681   3.735   2.846   5.918
 6980SOL     OW21682   3.953   2.496   7.559
 6980SOL    HW121683   3.872   2.491   7.610
 6980SOL    HW221684   3.929   2.459   7.474
 6981SOL     OW21685   3.962   2.125   8.437
 6981SOL    HW121686   3.966   2.118   8.532
 6981SOL    HW221687   3.870   2.113   8.415
 6982SOL     OW21688   3.720   2.242   8.085
 6982SOL    HW121689   3.641   2.267   8.133
 6982SOL    HW221690   3.697   2.160   8.042
 6983SOL     OW21691   0.013   3.387   8.504
 6983SOL    HW121692   3.956   3.313   8.484
 6983SOL    HW221693   0.076   3.389   8.433
 6984SOL     OW21694   3.940   3.579   7.926
 6984SOL    HW121695   3.947   3.653   7.986
 6984SOL    HW221696   0.030   3.562   7.898
 6985SOL     OW21697   3.944   3.299   7.953
 6985SOL    HW121698   3.926   3.393   7.954
 6985SOL    HW221699   3.888   3.263   8.022
 6986SOL     OW21700   3.812   2.500   8.010
 6986SOL    HW121701   3.781   2.413   8.033
 6986SOL    HW221702   3.809   2.549   8.092
 6987SOL     OW21703   3.758   3.456   7.581
 6987SOL    HW121704   3.738   3.364   7.595
 6987SOL    HW221705   3.726   3.500   7.659
 6988SOL     OW21706   3.822   2.604   9.029
 6988SOL    HW121707   3.901   2.655   9.048
 6988SOL    HW221708   3.754   2.671   9.018
 6989SOL     OW21709   3.806   2.678   8.219
 6989SOL    HW121710   3.901   2.678   8.234
 6989SOL    HW221711   3.773   2.750   8.274
 6990SOL     OW21712   3.849   3.728   9.018
 6990SOL    HW121713   3.846   3.700   9.109
 6990SOL    HW221714   3.768   3.696   8.979
 6991SOL     OW21715   3.920   2.150   8.965
 6991SOL    HW121716   3.839   2.194   8.940
 6991SOL    HW221717   3.893   2.064   8.996
 6992SOL     OW21718   0.000   1.896   7.607
 6992SOL    HW121719   0.040   1.981   7.589
 6992SOL    HW221720   0.059   1.855   7.671
 6993SOL     OW21721   3.813   2.406   8.841
 6993SOL    HW121722   3.908   2.403   8.830
 6993SOL    HW221723   3.798   2.480   8.900
 6994SOL     OW21724   0.276   2.151   7.764
 6994SOL    HW121725   0.296   2.074   7.711
 6994SOL    HW221726   0.330   2.221   7.725
 6995SOL     OW21727   3.793   3.436   8.800
 6995SOL    HW121728   3.766   3.498   8.732
 6995SOL    HW221729   3.888   3.444   8.803
 6996SOL     OW21730   0.064   2.960   7.985
 6996SOL    HW121731   0.050   2.991   7.895
 6996SOL    HW221732   0.141   2.905   7.979
 6997SOL     OW21733   0.001   2.072   8.702
 6997SOL    HW121734   3.972   2.104   8.788
 6997SOL    HW221735   0.012   1.978   8.714
 6998SOL     OW21736   3.748   3.176   8.723
 6998SOL    HW121737   3.791   3.125   8.791
 6998SOL    HW221738   3.764   3.267   8.748
 6999SOL     OW21739   3.992   1.923   8.103
 6999SOL    HW121740   3.999   2.017   8.117
 6999SOL    HW221741   0.017   1.884   8.187
 7000SOL     OW21742   3.726   3.186   7.635
 7000SOL    HW121743   3.640   3.201   7.596
 7000SOL    HW221744   3.717   3.103   7.682
 7001SOL     OW21745   3.803   3.649   8.389
 7001SOL    HW121746   3.779   3.569   8.341
 7001SOL    HW221747   3.898   3.656   8.377
 7002SOL     OW21748   0.207   3.417   8.312
 7002SOL    HW121749   0.283   3.474   8.305
 7002SOL    HW221750   0.219   3.352   8.242
 7003SOL     OW21751   3.756   2.403   8.569
 7003SOL    HW121752   3.838   2.402   8.520
 7003SOL    HW221753   3.783   2.406   8.661
 7004SOL     OW21754   3.896   2.377   9.172
 7004SOL    HW121755   3.920   2.315   9.104
 7004SOL    HW221756   3.858   2.451   9.125
 7005SOL     OW21757   3.937   3.391   9.176
 7005SOL    HW121758   3.923   3.481   9.205
 7005SOL    HW221759   3.990   3.351   9.245
 7006SOL     OW21760   3.859   3.002   8.918
 7006SOL    HW121761   3.935   3.009   8.975
 7006SOL    HW221762   3.890   2.952   8.843
 7007SOL     OW21763   3.810   3.135   8.458
 7007SOL    HW121764   3.782   3.145   8.548
 7007SOL    HW221765   3.755   3.066   8.423
 7008SOL     OW21766   3.843   3.644   9.270
 7008SOL    HW121767   3.793   3.581   9.322
 7008SOL    HW221768   3.889   3.697   9.336
 7009SOL     OW21769   3.800   2.191   7.492
 7009SOL    HW121770   3.716   2.157   7.460
 7009SOL    HW221771   3.819   2.265   7.434
 7010SOL     OW21772   3.760   2.026   7.760
 7010SOL    HW121773   3.753   2.082   7.682
 7010SOL    HW221774   3.850   2.038   7.790
 7011SOL     OW21775   3.802   3.098   8.114
 7011SOL    HW121776   3.795   3.050   8.197
 7011SOL    HW221777   3.878   3.060   8.071
 7012SOL     OW21778   3.751   2.939   7.762
 7012SOL    HW121779   3.841   2.941   7.728
 7012SOL    HW221780   3.735   2.846   7.780
 7013SOL     OW21781   3.953   2.495   9.421
 7013SOL    HW121782   3.872   2.491   9.472
 7013SOL    HW221783   3.929   2.459   9.336
 7014SOL     OW21784   3.963   2.125  10.299
 7014SOL    HW121785   3.966   2.118  10.394
 7014SOL    HW221786   3.870   2.113  10.277
 7015SOL     OW21787   3.720   2.242   9.947
 7015SOL    HW121788   3.641   2.268   9.995
 7015SOL    HW221789   3.696   2.160   9.904
 7016SOL     OW21790   0.012   3.387  10.366
 7016SOL    HW121791   3.956   3.313  10.346
 7016SOL    HW221792   0.076   3.389  10.295
 7017SOL     OW21793   3.940   3.579   9.787
 7017SOL    HW121794   3.947   3.653   9.848
 7017SOL    HW221795   0.030   3.562   9.760
 7018SOL     OW21796   3.943   3.299   9.815
 7018SOL    HW121797   3.926   3.393   9.816
 7018SOL    HW221798   3.887   3.263   9.884
 7019SOL     OW21799   3.813   2.500   9.872
 7019SOL    HW121800   3.781   2.413   9.895
 7019SOL    HW221801   3.809   2.549   9.954
 7020SOL     OW21802   3.758   3.456   9.442
 7020SOL    HW121803   3.737   3.364   9.457
 7020SOL    HW221804   3.726   3.500   9.521
 7021SOL     OW21805   3.822   2.605  10.891
 7021SOL    HW121806   3.901   2.655  10.910
 7021SOL    HW221807   3.753   2.671  10.880
 7022SOL     OW21808   3.806   2.679  10.080
 7022SOL    HW121809   3.901   2.679  10.096
 7022SOL    HW221810   3.773   2.750  10.135
 7023SOL     OW21811   3.849   3.728  10.880
 7023SOL    HW121812   3.846   3.700  10.971
 7023SOL    HW221813   3.767   3.696  10.841
 7024SOL     OW21814   3.920   2.150  10.827
 7024SOL    HW121815   3.839   2.194  10.802
 7024SOL    HW221816   3.893   2.064  10.858
 7025SOL     OW21817   4.000   1.895   9.469
 7025SOL    HW121818   0.039   1.981   9.453
 7025SOL    HW221819   0.057   1.854   9.534
 7026SOL     OW21820   3.813   2.406  10.702
 7026SOL    HW121821   3.908   2.403  10.692
 7026SOL    HW221822   3.797   2.480  10.762
 7027SOL     OW21823   0.280   2.151   9.628
 7027SOL    HW121824   0.295   2.073   9.574
 7027SOL    HW221825   0.329   2.220   9.585
 7028SOL     OW21826   3.793   3.436  10.662
 7028SOL    HW121827   3.766   3.498  10.594
 7028SOL    HW221828   3.888   3.444  10.665
 7029SOL     OW21829   0.064   2.960   9.847
 7029SOL    HW121830   0.050   2.992   9.758
 7029SOL    HW221831   0.141   2.904   9.841
 7030SOL     OW21832   0.001   2.072  10.564
 7030SOL    HW121833   3.972   2.104  10.649
 7030SOL    HW221834   0.012   1.978  10.576
 7031SOL     OW21835   3.749   3.176  10.585
 7031SOL    HW121836   3.791   3.125  10.654
 7031SOL    HW221837   3.764   3.267  10.610
 7032SOL     OW21838   3.992   1.923   9.965
 7032SOL    HW121839   3.999   2.017   9.980
 7032SOL    HW221840   0.017   1.884  10.049
 7033SOL     OW21841   3.727   3.186   9.497
 7033SOL    HW121842   3.641   3.201   9.458
 7033SOL    HW221843   3.717   3.103   9.544
 7034SOL     OW21844   3.803   3.649  10.250
 7034SOL    HW121845   3.779   3.569  10.203
 7034SOL    HW221846   3.898   3.656  10.239
 7035SOL     OW21847   0.207   3.417  10.174
 7035SOL    HW121848   0.283   3.475  10.167
 7035SOL    HW221849   0.219   3.353  10.105
 7036SOL     OW21850   3.756   2.403  10.431
 7036SOL    HW121851   3.838   2.402  10.382
 7036SOL    HW221852   3.783   2.406  10.523
 7037SOL     OW21853   3.896   2.377  11.034
 7037SOL    HW121854   3.920   2.315  10.966
 7037SOL    HW221855   3.858   2.451  10.987
 7038SOL     OW21856   3.937   3.391  11.038
 7038SOL    HW121857   3.923   3.481  11.067
 7038SOL    HW221858   3.990   3.351  11.108
 7039SOL     OW21859   3.859   3.002  10.780
 7039SOL    HW121860   3.935   3.009  10.837
 7039SOL    HW221861   3.890   2.952  10.705
 7040SOL     OW21862   3.810   3.135  10.320
 7040SOL    HW121863   3.782   3.145  10.411
 7040SOL    HW221864   3.754   3.065  10.285
 7041SOL     OW21865   3.843   3.644  11.132
 7041SOL    HW121866   3.793   3.581  11.184
 7041SOL    HW221867   3.889   3.697  11.198
 7042SOL     OW21868   3.800   2.191   9.354
 7042SOL    HW121869   3.717   2.157   9.322
 7042SOL    HW221870   3.820   2.265   9.296
 7043SOL     OW21871   3.761   2.026   9.622
 7043SOL    HW121872   3.753   2.082   9.545
 7043SOL    HW221873   3.851   2.038   9.652
 7044SOL     OW21874   3.802   3.098   9.977
 7044SOL    HW121875   3.795   3.050  10.059
 7044SOL    HW221876   3.878   3.060   9.933
 7045SOL     OW21877   3.751   2.938   9.624
 7045SOL    HW121878   3.841   2.941   9.591
 7045SOL    HW221879   3.735   2.846   9.641
 7046SOL     OW21880   3.953   2.495  11.283
 7046SOL    HW121881   3.872   2.491  11.334
 7046SOL    HW221882   3.929   2.459  11.198
 7047SOL     OW21883   3.963   2.125  12.161
 7047SOL    HW121884   3.966   2.118  12.256
 7047SOL    HW221885   3.870   2.113  12.139
 7048SOL     OW21886   3.720   2.242  11.809
 7048SOL    HW121887   3.641   2.268  11.857
 7048SOL    HW221888   3.696   2.160  11.766
 7049SOL     OW21889   0.013   3.388  12.228
 7049SOL    HW121890   3.956   3.313  12.209
 7049SOL    HW221891   0.076   3.389  12.157
 7050SOL     OW21892   3.940   3.579  11.649
 7050SOL    HW121893   3.947   3.653  11.710
 7050SOL    HW221894   0.030   3.562  11.622
 7051SOL     OW21895   3.943   3.299  11.676
 7051SOL    HW121896   3.926   3.393  11.678
 7051SOL    HW221897   3.887   3.263  11.746
 7052SOL     OW21898   3.812   2.500  11.734
 7052SOL    HW121899   3.781   2.413  11.757
 7052SOL    HW221900   3.809   2.549  11.816
 7053SOL     OW21901   3.758   3.456  11.304
 7053SOL    HW121902   3.737   3.364  11.319
 7053SOL    HW221903   3.726   3.500  11.383
 7054SOL     OW21904   3.822   2.605  12.753
 7054SOL    HW121905   3.901   2.655  12.772
 7054SOL    HW221906   3.753   2.671  12.743
 7055SOL     OW21907   3.806   2.679  11.942
 7055SOL    HW121908   3.901   2.679  11.958
 7055SOL    HW221909   3.773   2.750  11.997
 7056SOL     OW21910   3.849   3.729  12.743
 7056SOL    HW121911   3.846   3.701  12.835
 7056SOL    HW221912   3.768   3.695  12.705
 7057SOL     OW21913   3.920   2.150  12.689
 7057SOL    HW121914   3.839   2.194  12.664
 7057SOL    HW221915   3.893   2.064  12.720
 7058SOL     OW21916   4.000   1.895  11.331
 7058SOL    HW121917   0.039   1.981  11.315
 7058SOL    HW221918   0.057   1.854  11.396
 7059SOL     OW21919   3.813   2.406  12.565
 7059SOL    HW121920   3.908   2.403  12.554
 7059SOL    HW221921   3.797   2.480  12.624
 7060SOL     OW21922   0.280   2.151  11.490
 7060SOL    HW121923   0.295   2.073  11.436
 7060SOL    HW221924   0.329   2.220  11.447
 7061SOL     OW21925   3.793   3.436  12.524
 7061SOL    HW121926   3.766   3.499  12.456
 7061SOL    HW221927   3.888   3.444  12.527
 7062SOL     OW21928   0.064   2.960  11.709
 7062SOL    HW121929   0.050   2.992  11.620
 7062SOL    HW221930   0.141   2.904  11.703
 7063SOL     OW21931   0.001   2.072  12.426
 7063SOL    HW121932   3.972   2.104  12.511
 7063SOL    HW221933   0.012   1.978  12.438
 7064SOL     OW21934   3.749   3.176  12.447
 7064SOL    HW121935   3.791   3.125  12.516
 7064SOL    HW221936   3.764   3.267  12.472
 7065SOL     OW21937   3.992   1.923  11.827
 7065SOL    HW121938   3.999   2.017  11.842
 7065SOL    HW221939   0.017   1.884  11.911
 7066SOL     OW21940   3.727   3.186  11.359
 7066SOL    HW121941   3.641   3.201  11.320
 7066SOL    HW221942   3.717   3.103  11.406
 7067SOL     OW21943   3.803   3.649  12.112
 7067SOL    HW121944   3.779   3.569  12.065
 7067SOL    HW221945   3.898   3.656  12.101
 7068SOL     OW21946   0.207   3.417  12.036
 7068SOL    HW121947   0.283   3.475  12.029
 7068SOL    HW221948   0.219   3.352  11.967
 7069SOL     OW21949   3.756   2.403  12.293
 7069SOL    HW121950   3.839   2.402  12.244
 7069SOL    HW221951   3.783   2.406  12.385
 7070SOL     OW21952   3.896   2.378  12.897
 7070SOL    HW121953   3.920   2.315  12.829
 7070SOL    HW221954   3.858   2.452  12.849
 7071SOL     OW21955   3.937   3.392  12.901
 7071SOL    HW121956   3.923   3.482  12.931
 7071SOL    HW221957   3.987   3.350  12.971
 7072SOL     OW21958   3.859   3.002  12.642
 7072SOL    HW121959   3.936   3.009  12.699
 7072SOL    HW221960   3.889   2.952  12.567
 7073SOL     OW21961   3.810   3.135  12.182
 7073SOL    HW121962   3.782   3.145  12.273
 7073SOL    HW221963   3.754   3.065  12.147
 7074SOL     OW21964   3.845   3.646  12.997
 7074SOL    HW121965   3.795   3.582  13.047
 7074SOL    HW221966   3.889   3.700  13.063
 7075SOL     OW21967   3.800   2.191  11.216
 7075SOL    HW121968   3.717   2.157  11.184
 7075SOL    HW221969   3.820   2.265  11.158
 7076SOL     OW21970   3.761   2.026  11.484
 7076SOL    HW121971   3.754   2.082  11.407
 7076SOL    HW221972   3.851   2.038  11.514
 7077SOL     OW21973   3.802   3.098  11.839
 7077SOL    HW121974   3.795   3.050  11.921
 7077SOL    HW221975   3.879   3.060  11.795
 7078SOL     OW21976   3.751   2.938  11.486
 7078SOL    HW121977   3.841   2.941  11.453
 7078SOL    HW221978   3.735   2.846  11.503
 7079SOL     OW21979   3.950   2.494  13.147
 7079SOL    HW121980   3.867   2.488  13.195
 7079SOL    HW221981   3.929   2.458  13.060
 7080SOL     OW21982   3.718   2.244  13.662
 7080SOL    HW121983   3.631   2.274  13.689
 7080SOL    HW221984   3.702   2.160  13.619
 7081SOL     OW21985   3.942   3.577  13.502
 7081SOL    HW121986   3.937   3.653  13.560
 7081SOL    HW221987   0.036   3.565  13.486
 7082SOL     OW21988   3.944   3.296  13.532
 7082SOL    HW121989   3.930   3.391  13.533
 7082SOL    HW221990   3.886   3.262  13.600
 7083SOL     OW21991   3.936   2.959   0.011
 7083SOL    HW121992   3.978   2.919   0.087
 7083SOL    HW221993   3.843   2.961   0.033
 7084SOL     OW21994   3.834   2.500  13.597
 7084SOL    HW121995   3.783   2.420  13.612
 7084SOL    HW221996   3.818   2.553  13.675
 7085SOL     OW21997   3.754   3.456  13.163
 7085SOL    HW121998   3.736   3.364  13.179
 7085SOL    HW221999   3.723   3.501  13.242
 7086SOL     OW22000   3.802   2.672  13.805
 7086SOL    HW122001   3.895   2.684  13.819
 7086SOL    HW222002   3.760   2.745  13.851
 7087SOL     OW22003   0.122   3.641  13.843
 7087SOL    HW122004   0.078   3.580   0.002
 7087SOL    HW222005   0.189   3.682  13.898
 7088SOL     OW22006   0.001   1.897  13.194
 7088SOL    HW122007   0.045   1.979  13.172
 7088SOL    HW222008   0.059   1.855  13.258
 7089SOL     OW22009   0.276   2.153  13.342
 7089SOL    HW122010   0.298   2.074  13.292
 7089SOL    HW222011   0.334   2.220  13.305
 7090SOL     OW22012   0.067   2.965  13.562
 7090SOL    HW122013   0.058   2.997  13.473
 7090SOL    HW222014   0.145   2.910  13.560
 7091SOL     OW22015   3.979   1.923  13.673
 7091SOL    HW122016   3.997   2.016  13.684
 7091SOL    HW222017   0.021   1.881  13.748
 7092SOL     OW22018   3.726   3.186  13.221
 7092SOL    HW122019   3.641   3.201  13.181
 7092SOL    HW222020   3.717   3.104  13.268
 7093SOL     OW22021   0.319   3.407   0.007
 7093SOL    HW122022   0.251   3.458   0.049
 7093SOL    HW222023   0.272   3.349  13.846
 7094SOL     OW22024   3.800   2.191  13.078
 7094SOL    HW122025   3.716   2.157  13.046
 7094SOL    HW222026   3.820   2.265  13.020
 7095SOL     OW22027   3.763   2.027  13.346
 7095SOL    HW122028   3.756   2.082  13.268
 7095SOL    HW222029   3.853   2.040  13.376
 7096SOL     OW22030   3.810   3.090  13.684
 7096SOL    HW122031   3.810   3.034  13.762
 7096SOL    HW222032   3.885   3.060  13.633
 7097SOL     OW22033   3.751   2.937  13.346
 7097SOL    HW122034   3.840   2.941  13.311
 7097SOL    HW222035   3.737   2.844  13.365
 7098SOL     OW22036   3.966   3.973   0.989
 7098SOL    HW122037   3.967   3.965   1.085
 7098SOL    HW222038   3.877   3.951   0.964
 7099SOL     OW22039   3.749   0.050   0.690
 7099SOL    HW122040   3.675   0.111   0.690
 7099SOL    HW222041   3.714   3.969   0.652
 7100SOL     OW22042   3.906   3.993   1.514
 7100SOL    HW122043   3.819   0.030   1.528
 7100SOL    HW222044   3.903   3.906   1.553
 7101SOL     OW22045   3.974   3.775   0.177
 7101SOL    HW122046   0.007   3.844   0.119
 7101SOL    HW222047   0.046   3.713   0.184
 7102SOL     OW22048   3.994   3.933   1.258
 7102SOL    HW122049   3.951   3.942   1.343
 7102SOL    HW222050   0.028   3.844   1.258
 7103SOL     OW22051   0.022   3.774   0.647
 7103SOL    HW122052   0.044   3.867   0.650
 7103SOL    HW222053   0.031   3.745   0.738
 7104SOL     OW22054   3.783   3.869   0.345
 7104SOL    HW122055   3.787   3.964   0.339
 7104SOL    HW222056   3.856   3.838   0.292
 7105SOL     OW22057   3.967   3.970   2.850
 7105SOL    HW122058   3.968   3.965   2.945
 7105SOL    HW222059   3.877   3.950   2.825
 7106SOL     OW22060   3.746   0.049   2.555
 7106SOL    HW122061   3.672   0.110   2.553
 7106SOL    HW222062   3.712   3.969   2.515
 7107SOL     OW22063   3.907   3.993   3.375
 7107SOL    HW122064   3.819   0.030   3.390
 7107SOL    HW222065   3.903   3.906   3.414
 7108SOL     OW22066   3.986   3.771   2.018
 7108SOL    HW122067   0.028   3.844   1.970
 7108SOL    HW222068   0.055   3.739   2.075
 7109SOL     OW22069   3.994   3.934   3.120
 7109SOL    HW122070   3.951   3.943   3.205
 7109SOL    HW222071   0.028   3.844   3.119
 7110SOL     OW22072   0.014   3.777   2.515
 7110SOL    HW122073   0.046   3.866   2.517
 7110SOL    HW222074   0.027   3.744   2.604
 7111SOL     OW22075   3.806   0.048   1.881
 7111SOL    HW122076   3.742   0.019   1.815
 7111SOL    HW222077   3.805   0.143   1.875
 7112SOL     OW22078   3.780   3.868   2.185
 7112SOL    HW122079   3.777   3.963   2.176
 7112SOL    HW222080   3.861   3.842   2.142
 7113SOL     OW22081   3.967   3.970   4.712
 7113SOL    HW122082   3.968   3.965   4.807
 7113SOL    HW222083   3.877   3.950   4.687
 7114SOL     OW22084   3.746   0.049   4.417
 7114SOL    HW122085   3.672   0.110   4.415
 7114SOL    HW222086   3.712   3.969   4.377
 7115SOL     OW22087   3.906   3.993   5.237
 7115SOL    HW122088   3.819   0.030   5.252
 7115SOL    HW222089   3.902   3.906   5.276
 7116SOL     OW22090   3.986   3.771   3.880
 7116SOL    HW122091   0.028   3.844   3.832
 7116SOL    HW222092   0.055   3.738   3.937
 7117SOL     OW22093   3.994   3.934   4.982
 7117SOL    HW122094   3.951   3.943   5.067
 7117SOL    HW222095   0.027   3.844   4.981
 7118SOL     OW22096   0.014   3.777   4.377
 7118SOL    HW122097   0.046   3.866   4.379
 7118SOL    HW222098   0.027   3.744   4.466
 7119SOL     OW22099   3.806   0.048   3.743
 7119SOL    HW122100   3.742   0.019   3.678
 7119SOL    HW222101   3.805   0.143   3.737
 7120SOL     OW22102   3.780   3.868   4.047
 7120SOL    HW122103   3.777   3.963   4.038
 7120SOL    HW222104   3.861   3.842   4.004
 7121SOL     OW22105   3.967   3.971   6.574
 7121SOL    HW122106   3.968   3.965   6.669
 7121SOL    HW222107   3.877   3.950   6.549
 7122SOL     OW22108   3.746   0.049   6.280
 7122SOL    HW122109   3.672   0.110   6.276
 7122SOL    HW222110   3.712   3.969   6.240
 7123SOL     OW22111   3.907   3.993   7.099
 7123SOL    HW122112   3.819   0.030   7.113
 7123SOL    HW222113   3.902   3.905   7.138
 7124SOL     OW22114   3.986   3.772   5.742
 7124SOL    HW122115   0.028   3.844   5.694
 7124SOL    HW222116   0.055   3.739   5.799
 7125SOL     OW22117   3.994   3.934   6.843
 7125SOL    HW122118   3.951   3.943   6.929
 7125SOL    HW222119   0.028   3.844   6.843
 7126SOL     OW22120   0.014   3.776   6.239
 7126SOL    HW122121   0.047   3.866   6.241
 7126SOL    HW222122   0.027   3.744   6.328
 7127SOL     OW22123   3.806   0.048   5.605
 7127SOL    HW122124   3.743   0.019   5.539
 7127SOL    HW222125   3.805   0.143   5.599
 7128SOL     OW22126   3.780   3.868   5.909
 7128SOL    HW122127   3.777   3.963   5.899
 7128SOL    HW222128   3.861   3.842   5.866
 7129SOL     OW22129   3.967   3.971   8.436
 7129SOL    HW122130   3.967   3.965   8.532
 7129SOL    HW222131   3.877   3.950   8.411
 7130SOL     OW22132   3.745   0.049   8.142
 7130SOL    HW122133   3.671   0.109   8.138
 7130SOL    HW222134   3.713   3.969   8.101
 7131SOL     OW22135   3.907   3.993   8.961
 7131SOL    HW122136   3.819   0.030   8.976
 7131SOL    HW222137   3.902   3.906   9.000
 7132SOL     OW22138   3.986   3.772   7.604
 7132SOL    HW122139   0.028   3.844   7.556
 7132SOL    HW222140   0.056   3.738   7.660
 7133SOL     OW22141   3.994   3.934   8.706
 7133SOL    HW122142   3.951   3.943   8.791
 7133SOL    HW222143   0.028   3.844   8.705
 7134SOL     OW22144   0.013   3.777   8.101
 7134SOL    HW122145   0.047   3.866   8.103
 7134SOL    HW222146   0.026   3.744   8.190
 7135SOL     OW22147   3.805   0.048   7.467
 7135SOL    HW122148   3.743   0.020   7.400
 7135SOL    HW222149   3.805   0.144   7.461
 7136SOL     OW22150   3.780   3.868   7.771
 7136SOL    HW122151   3.777   3.963   7.761
 7136SOL    HW222152   3.861   3.841   7.727
 7137SOL     OW22153   3.967   3.971  10.298
 7137SOL    HW122154   3.968   3.965  10.393
 7137SOL    HW222155   3.877   3.950  10.273
 7138SOL     OW22156   3.746   0.049  10.004
 7138SOL    HW122157   3.672   0.110  10.000
 7138SOL    HW222158   3.713   3.969   9.964
 7139SOL     OW22159   3.907   3.993  10.823
 7139SOL    HW122160   3.819   0.030  10.838
 7139SOL    HW222161   3.902   3.906  10.862
 7140SOL     OW22162   3.986   3.772   9.466
 7140SOL    HW122163   0.028   3.844   9.418
 7140SOL    HW222164   0.056   3.739   9.523
 7141SOL     OW22165   3.994   3.934  10.568
 7141SOL    HW122166   3.951   3.943  10.653
 7141SOL    HW222167   0.028   3.844  10.567
 7142SOL     OW22168   0.013   3.777   9.963
 7142SOL    HW122169   0.047   3.866   9.965
 7142SOL    HW222170   0.026   3.744  10.052
 7143SOL     OW22171   3.805   0.048   9.329
 7143SOL    HW122172   3.743   0.019   9.263
 7143SOL    HW222173   3.805   0.143   9.323
 7144SOL     OW22174   3.780   3.868   9.633
 7144SOL    HW122175   3.777   3.963   9.623
 7144SOL    HW222176   3.861   3.842   9.590
 7145SOL     OW22177   3.967   3.971  12.160
 7145SOL    HW122178   3.967   3.965  12.256
 7145SOL    HW222179   3.877   3.950  12.135
 7146SOL     OW22180   3.746   0.049  11.866
 7146SOL    HW122181   3.672   0.110  11.862
 7146SOL    HW222182   3.712   3.969  11.826
 7147SOL     OW22183   3.906   3.993  12.686
 7147SOL    HW122184   3.819   0.029  12.700
 7147SOL    HW222185   3.902   3.906  12.724
 7148SOL     OW22186   3.987   3.772  11.328
 7148SOL    HW122187   0.028   3.844  11.280
 7148SOL    HW222188   0.056   3.739  11.385
 7149SOL     OW22189   3.994   3.934  12.430
 7149SOL    HW122190   3.951   3.943  12.515
 7149SOL    HW222191   0.027   3.844  12.429
 7150SOL     OW22192   0.013   3.777  11.825
 7150SOL    HW122193   0.047   3.866  11.827
 7150SOL    HW222194   0.027   3.744  11.914
 7151SOL     OW22195   3.805   0.048  11.191
 7151SOL    HW122196   3.743   0.019  11.125
 7151SOL    HW222197   3.805   0.143  11.185
 7152SOL     OW22198   3.780   3.868  11.495
 7152SOL    HW122199   3.777   3.963  11.485
 7152SOL    HW222200   3.861   3.842  11.452
 7153SOL     OW22201   3.739   0.080  13.684
 7153SOL    HW122202   3.666   0.111  13.737
 7153SOL    HW222203   3.719   3.988  13.667
 7154SOL     OW22204   3.987   3.775  13.195
 7154SOL    HW122205   0.031   3.843  13.144
 7154SOL    HW222206   0.056   3.738  13.250
 7155SOL     OW22207   3.972   3.787  13.674
 7155SOL    HW122208   0.020   3.869  13.669
 7155SOL    HW222209   0.020   3.734  13.737
 7156SOL     OW22210   3.807   0.048  13.050
 7156SOL    HW122211   3.743   0.020  12.984
 7156SOL    HW222212   3.806   0.143  13.045
 7157SOL     OW22213   3.776   3.869  13.356
 7157SOL    HW122214   3.778   3.965  13.352
 7157SOL    HW222215   3.856   3.842  13.310
   4.00000   4.00000  13.90000
