2aCDOH_1PEG_l8
22146
    1LIG      O    1   2.783   2.598   8.074
    1LIG      C    2   2.767   2.610   0.137
    1LIG     C1    3   2.634   2.543   0.184
    1LIG     O1    4   2.564   2.632   0.273
    1LIG     C2    5   2.592   2.611   0.412
    1LIG     C3    6   2.743   2.641   0.444
    1LIG     O2    7   2.770   2.620   0.583
    1LIG     C4    8   2.699   2.712   0.668
    1LIG     C5    9   2.579   2.637   0.732
    1LIG     O3   10   2.534   2.710   0.846
    1LIG     C6   11   2.587   2.660   0.970
    1LIG     C7   12   2.742   2.685   0.985
    1LIG     O4   13   2.794   2.630   1.107
    1LIG     C8   14   2.730   2.678   1.226
    1LIG     C9   15   2.619   2.576   1.267
    1LIG     O5   16   2.523   2.637   1.355
    1LIG    C10   17   2.569   2.629   1.490
    1LIG    C11   18   2.669   2.743   1.524
    1LIG     O6   19   2.631   2.798   1.650
    1LIG    C12   20   2.683   2.730   1.766
    1LIG    C13   21   2.616   2.590   1.791
    1LIG     O7   22   2.679   2.524   1.903
    1LIG    C14   23   2.635   2.577   2.029
    1LIG    C15   24   2.732   2.688   2.077
    1LIG     O8   25   2.652   2.793   2.137
    1LIG    C16   26   2.641   2.776   2.279
    1LIG    C17   27   2.530   2.672   2.318
    1LIG     O9   28   2.588   2.565   2.398
    1LIG    C18   29   2.585   2.593   2.540
    1LIG    C19   30   2.693   2.699   2.577
    1LIG    O10   31   2.663   2.765   2.699
    1LIG    C20   32   2.722   2.705   2.813
    1LIG    C21   33   2.620   2.609   2.879
    1LIG    O11   34   2.683   2.543   2.991
    1LIG    C22   35   2.655   2.605   3.117
    1LIG    C23   36   2.741   2.734   3.144
    1LIG    O12   37   2.687   2.806   3.256
    1LIG    C24   38   2.700   2.738   3.380
    1LIG    C25   39   2.578   2.642   3.402
    1LIG    O13   40   2.512   2.679   3.521
    1LIG    C26   41   2.562   2.614   3.637
    1LIG    C27   42   2.707   2.654   3.672
    1LIG    O14   43   2.748   2.582   3.789
    1LIG    C28   44   2.706   2.647   3.910
    1LIG    C29   45   2.573   2.591   3.968
    1LIG    O15   46   2.516   2.687   4.061
    1LIG    C30   47   2.562   2.666   4.194
    1LIG    C31   48   2.702   2.728   4.222
    1LIG    O16   49   2.779   2.633   4.298
    1LIG    C32   50   2.757   2.649   4.439
    1LIG    C33   51   2.625   2.585   4.489
    1LIG    O17   52   2.550   2.683   4.563
    1LIG    C34   53   2.574   2.671   4.704
    1LIG    C35   54   2.714   2.730   4.744
    1LIG    O18   55   2.776   2.648   4.843
    1LIG    C36   56   2.726   2.675   4.974
    1LIG    C37   57   2.611   2.576   5.009
    1LIG    O19   58   2.522   2.636   5.104
    1LIG    C38   59   2.573   2.620   5.237
    1LIG    C39   60   2.680   2.727   5.270
    1LIG    O20   61   2.644   2.792   5.391
    1LIG    C40   62   2.691   2.728   5.510
    1LIG    C41   63   2.621   2.591   5.539
    1LIG    O21   64   2.679   2.529   5.655
    1LIG    C42   65   2.630   2.585   5.778
    1LIG    C43   66   2.725   2.697   5.828
    1LIG    O22   67   2.646   2.795   5.899
    1LIG    C44   68   2.647   2.771   6.040
    1LIG    C45   69   2.540   2.664   6.082
    1LIG    O23   70   2.602   2.564   6.166
    1LIG    C46   71   2.599   2.596   6.307
    1LIG    C47   72   2.697   2.714   6.339
    1LIG    O24   73   2.682   2.763   6.472
    1LIG    C48   74   2.737   2.680   6.573
    1LIG    C49   75   2.622   2.596   6.636
    1LIG    O25   76   2.671   2.530   6.753
    1LIG    C50   77   2.635   2.595   6.876
    1LIG    C51   78   2.702   2.736   6.897
    1LIG    O26   79   2.642   2.805   7.009
    1LIG    C52   80   2.668   2.748   7.138
    1LIG    C53   81   2.568   2.630   7.163
    1LIG    O27   82   2.512   2.633   7.294
    1LIG    C54   83   2.595   2.562   7.388
    1LIG    C55   84   2.714   2.653   7.435
    1LIG    O28   85   2.777   2.595   7.550
    1LIG    C56   86   2.735   2.653   7.676
    1LIG    C57   87   2.586   2.615   7.706
    1LIG    O29   88   2.538   2.682   7.823
    1LIG    C58   89   2.575   2.619   7.946
    1LIG    C59   90   2.701   2.692   8.003
    1LIG      H   91   2.766   2.716   0.166
    1LIG     H1   92   2.852   2.563   0.186
    1LIG     H2   93   2.656   2.448   0.236
    1LIG     H3   94   2.568   2.519   0.100
    1LIG     H4   95   2.567   2.508   0.440
    1LIG     H5   96   2.528   2.679   0.468
    1LIG     H6   97   2.767   2.745   0.417
    1LIG     H7   98   2.809   2.575   0.388
    1LIG     H8   99   2.665   2.799   0.612
    1LIG     H9  100   2.769   2.748   0.743
    1LIG    H10  101   2.608   2.535   0.760
    1LIG    H11  102   2.496   2.629   0.661
    1LIG    H12  103   2.567   2.552   0.976
    1LIG    H13  104   2.532   2.709   1.051
    1LIG    H14  105   2.763   2.792   0.980
    1LIG    H15  106   2.795   2.635   0.904
    1LIG    H16  107   2.687   2.778   1.210
    1LIG    H17  108   2.804   2.685   1.306
    1LIG    H18  109   2.666   2.489   1.314
    1LIG    H19  110   2.564   2.538   1.181
    1LIG    H20  111   2.615   2.531   1.508
    1LIG    H21  112   2.483   2.637   1.556
    1LIG    H22  113   2.664   2.821   1.448
    1LIG    H23  114   2.772   2.705   1.529
    1LIG    H24  115   2.662   2.794   1.851
    1LIG    H25  116   2.791   2.718   1.757
    1LIG    H26  117   2.630   2.524   1.705
    1LIG    H27  118   2.508   2.602   1.808
    1LIG    H28  119   2.633   2.497   2.103
    1LIG    H29  120   2.533   2.616   2.020
    1LIG    H30  121   2.789   2.730   1.994
    1LIG    H31  122   2.806   2.647   2.147
    1LIG    H32  123   2.619   2.873   2.325
    1LIG    H33  124   2.739   2.743   2.317
    1LIG    H34  125   2.485   2.629   2.229
    1LIG    H35  126   2.451   2.723   2.374
    1LIG    H36  127   2.605   2.500   2.595
    1LIG    H37  128   2.485   2.627   2.570
    1LIG    H38  129   2.697   2.780   2.506
    1LIG    H39  130   2.793   2.654   2.580
    1LIG    H40  131   2.751   2.787   2.879
    1LIG    H41  132   2.814   2.652   2.787
    1LIG    H42  133   2.591   2.533   2.807
    1LIG    H43  134   2.529   2.662   2.910
    1LIG    H44  135   2.677   2.531   3.195
    1LIG    H45  136   2.548   2.629   3.122
    1LIG    H46  137   2.736   2.804   3.061
    1LIG    H47  138   2.846   2.708   3.162
    1LIG    H48  139   2.704   2.812   3.460
    1LIG    H49  140   2.794   2.681   3.382
    1LIG    H50  141   2.611   2.538   3.407
    1LIG    H51  142   2.506   2.652   3.321
    1LIG    H52  143   2.562   2.506   3.623
    1LIG    H53  144   2.493   2.640   3.718
    1LIG    H54  145   2.716   2.762   3.686
    1LIG    H55  146   2.774   2.623   3.591
    1LIG    H56  147   2.701   2.756   3.896
    1LIG    H57  148   2.784   2.629   3.982
    1LIG    H58  149   2.592   2.495   4.017
    1LIG    H59  150   2.498   2.570   3.891
    1LIG    H60  151   2.568   2.558   4.212
    1LIG    H61  152   2.490   2.707   4.266
    1LIG    H62  153   2.693   2.821   4.278
    1LIG    H63  154   2.756   2.754   4.131
    1LIG    H64  155   2.759   2.755   4.463
    1LIG    H65  156   2.840   2.604   4.495
    1LIG    H66  157   2.649   2.498   4.552
    1LIG    H67  158   2.562   2.548   4.408
    1LIG    H68  159   2.570   2.564   4.729
    1LIG    H69  160   2.496   2.722   4.761
    1LIG    H70  161   2.702   2.832   4.781
    1LIG    H71  162   2.783   2.735   4.660
    1LIG    H72  163   2.688   2.778   4.979
    1LIG    H73  164   2.807   2.666   5.046
    1LIG    H74  165   2.652   2.482   5.046
    1LIG    H75  166   2.550   2.552   4.922
    1LIG    H76  167   2.613   2.519   5.250
    1LIG    H77  168   2.490   2.632   5.307
    1LIG    H78  169   2.684   2.804   5.191
    1LIG    H79  170   2.780   2.682   5.278
    1LIG    H80  171   2.668   2.797   5.592
    1LIG    H81  172   2.800   2.714   5.505
    1LIG    H82  173   2.636   2.522   5.456
    1LIG    H83  174   2.512   2.605   5.551
    1LIG    H84  175   2.624   2.507   5.854
    1LIG    H85  176   2.528   2.624   5.764
    1LIG    H86  177   2.775   2.747   5.745
    1LIG    H87  178   2.805   2.655   5.890
    1LIG    H88  179   2.627   2.865   6.091
    1LIG    H89  180   2.747   2.737   6.071
    1LIG    H90  181   2.499   2.615   5.994
    1LIG    H91  182   2.457   2.713   6.135
    1LIG    H92  183   2.629   2.508   6.364
    1LIG    H93  184   2.496   2.622   6.338
    1LIG    H94  185   2.676   2.800   6.276
    1LIG    H95  186   2.801   2.683   6.322
    1LIG    H96  187   2.784   2.744   6.648
    1LIG    H97  188   2.815   2.615   6.533
    1LIG    H98  189   2.589   2.519   6.565
    1LIG    H99  190   2.535   2.658   6.659
    1LIG   H100  191   2.666   2.528   6.955
    1LIG   H101  192   2.526   2.606   6.880
    1LIG   H102  193   2.684   2.799   6.809
    1LIG   H103  194   2.811   2.725   6.911
    1LIG   H104  195   2.652   2.825   7.214
    1LIG   H105  196   2.772   2.713   7.144
    1LIG   H106  197   2.618   2.534   7.146
    1LIG   H107  198   2.486   2.638   7.091
    1LIG   H108  199   2.635   2.470   7.344
    1LIG   H109  200   2.532   2.530   7.471
    1LIG   H110  201   2.678   2.755   7.457
    1LIG   H111  202   2.788   2.660   7.355
    1LIG   H112  203   2.746   2.762   7.672
    1LIG   H113  204   2.800   2.614   7.755
    1LIG   H114  205   2.575   2.506   7.715
    1LIG   H115  206   2.523   2.649   7.624
    1LIG   H116  207   2.597   2.513   7.930
    1LIG   H117  208   2.492   2.627   8.017
    1LIG   H118  209   2.759   2.735   7.921
    1LIG   H119  210   2.670   2.776   8.066
    2MOL     C1  211   3.207   2.650   3.504
    2MOL     H1  212   3.294   2.716   3.514
    2MOL     O1  213   3.189   2.571   3.623
    2MOL     C2  214   3.073   2.485   3.623
    2MOL     H2  215   2.982   2.544   3.605
    2MOL     C3  216   3.063   2.425   3.764
    2MOL     H3  217   3.164   2.396   3.796
    2MOL     H4  218   3.001   2.335   3.765
    2MOL     O2  219   3.006   2.521   3.852
    2MOL     H5  220   2.910   2.525   3.827
    2MOL     C4  221   3.229   2.554   3.385
    2MOL     H6  222   3.323   2.499   3.403
    2MOL     O3  223   3.240   2.627   3.262
    2MOL     H7  224   3.203   2.718   3.280
    2MOL     C5  225   3.114   2.451   3.374
    2MOL     H8  226   3.024   2.507   3.346
    2MOL     O4  227   3.143   2.355   3.271
    2MOL     H9  228   3.173   2.410   3.196
    2MOL     C6  229   3.084   2.380   3.509
    2MOL    H10  230   3.164   2.308   3.531
    2MOL     O5  231   2.956   2.316   3.494
    2MOL     C7  232   2.940   2.181   3.542
    2MOL    H11  233   3.037   2.133   3.559
    2MOL     O6  234   2.862   2.182   3.665
    2MOL     C8  235   2.733   2.248   3.658
    2MOL    H12  236   2.746   2.354   3.631
    2MOL     C9  237   2.664   2.241   3.799
    2MOL    H13  238   2.651   2.135   3.825
    2MOL    H14  239   2.565   2.287   3.793
    2MOL     O7  240   2.740   2.305   3.902
    2MOL    H15  241   2.687   2.296   3.984
    2MOL    C10  242   2.862   2.099   3.437
    2MOL    H16  243   2.848   1.998   3.476
    2MOL     O8  244   2.935   2.093   3.314
    2MOL    H17  245   2.937   2.184   3.275
    2MOL    C11  246   2.722   2.163   3.415
    2MOL    H18  247   2.736   2.263   3.373
    2MOL     O9  248   2.648   2.083   3.322
    2MOL    H19  249   2.711   2.071   3.247
    2MOL    C12  250   2.646   2.178   3.550
    2MOL    H20  251   2.621   2.077   3.587
    2MOL    O10  252   2.526   2.257   3.528
    2MOL    C13  253   2.399   2.189   3.542
    2MOL    H21  254   2.416   2.081   3.553
    2MOL    O11  255   2.327   2.240   3.657
    2MOL    C14  256   2.292   2.382   3.653
    2MOL    H22  257   2.385   2.438   3.653
    2MOL    C15  258   2.216   2.424   3.781
    2MOL    H23  259   2.212   2.534   3.785
    2MOL    H24  260   2.274   2.392   3.869
    2MOL    O12  261   2.084   2.371   3.787
    2MOL    H25  262   2.027   2.441   3.827
    2MOL    C16  263   2.314   2.211   3.416
    2MOL    H26  264   2.219   2.159   3.432
    2MOL    O13  265   2.378   2.158   3.301
    2MOL    H27  266   2.475   2.173   3.313
    2MOL    C17  267   2.286   2.361   3.396
    2MOL    H28  268   2.383   2.412   3.386
    2MOL    O14  269   2.209   2.383   3.275
    2MOL    H29  270   2.243   2.314   3.213
    2MOL    C18  271   2.216   2.419   3.522
    2MOL    H30  272   2.113   2.383   3.527
    2MOL    O15  273   2.222   2.562   3.507
    2MOL    C19  274   2.100   2.640   3.520
    2MOL    H31  275   2.012   2.576   3.526
    2MOL    O16  276   2.108   2.722   3.639
    2MOL    C20  277   2.219   2.817   3.647
    2MOL    H32  278   2.313   2.760   3.653
    2MOL    C21  279   2.205   2.897   3.779
    2MOL    H33  280   2.281   2.976   3.781
    2MOL    H34  281   2.226   2.830   3.863
    2MOL    O17  282   2.079   2.959   3.798
    2MOL    H35  283   2.096   3.031   3.863
    2MOL    C22  284   2.090   2.730   3.396
    2MOL    H36  285   1.997   2.788   3.402
    2MOL    O18  286   2.089   2.645   3.283
    2MOL    H37  287   2.152   2.574   3.310
    2MOL    C23  288   2.212   2.825   3.388
    2MOL    H38  289   2.301   2.762   3.381
    2MOL    O19  290   2.206   2.910   3.270
    2MOL    H39  291   2.229   2.854   3.191
    2MOL    C24  292   2.229   2.907   3.520
    2MOL    H40  293   2.153   2.985   3.525
    2MOL    O20  294   2.362   2.964   3.512
    2MOL    C25  295   2.383   3.104   3.545
    2MOL    H41  296   2.288   3.154   3.568
    2MOL    O21  297   2.472   3.113   3.658
    2MOL    C26  298   2.604   3.053   3.640
    2MOL    H42  299   2.592   2.946   3.618
    2MOL    C27  300   2.686   3.064   3.773
    2MOL    H43  301   2.743   2.972   3.787
    2MOL    H44  302   2.616   3.073   3.857
    2MOL    O22  303   2.777   3.174   3.776
    2MOL    H45  304   2.859   3.132   3.742
    2MOL    C28  305   2.448   3.177   3.424
    2MOL    H46  306   2.460   3.283   3.449
    2MOL    O23  307   2.363   3.163   3.311
    2MOL    H47  308   2.342   3.067   3.305
    2MOL    C29  309   2.589   3.119   3.391
    2MOL    H48  310   2.575   3.014   3.360
    2MOL    O24  311   2.654   3.193   3.286
    2MOL    H49  312   2.583   3.235   3.233
    2MOL    C30  313   2.676   3.119   3.519
    2MOL    H50  314   2.700   3.223   3.543
    2MOL    O25  315   2.796   3.044   3.488
    2MOL    C31  316   2.923   3.105   3.518
    2MOL    H51  317   2.912   3.213   3.534
    2MOL    O26  318   2.976   3.043   3.638
    2MOL    C32  319   2.998   2.899   3.629
    2MOL    H52  320   2.903   2.848   3.613
    2MOL    C33  321   3.056   2.852   3.765
    2MOL    H53  322   3.116   2.932   3.810
    2MOL    H54  323   3.123   2.766   3.750
    2MOL    O27  324   2.952   2.816   3.856
    2MOL    H55  325   2.975   2.725   3.885
    2MOL    C34  326   3.020   3.084   3.399
    2MOL    H56  327   3.114   3.134   3.421
    2MOL    O28  328   2.959   3.142   3.283
    2MOL    H57  329   2.863   3.124   3.294
    2MOL    C35  330   3.045   2.932   3.378
    2MOL    H58  331   2.950   2.887   3.350
    2MOL    O29  332   3.143   2.905   3.275
    2MOL    H59  333   3.145   2.979   3.213
    2MOL    C36  334   3.092   2.867   3.509
    2MOL    H60  335   3.194   2.900   3.533
    2MOL    O30  336   3.086   2.725   3.483
    3MOL     C1  337   2.093   2.652   4.548
    3MOL     H1  338   2.005   2.716   4.534
    3MOL     O1  339   2.115   2.570   4.431
    3MOL     C2  340   2.232   2.482   4.434
    3MOL     H2  341   2.322   2.543   4.443
    3MOL     C3  342   2.237   2.405   4.300
    3MOL     H3  343   2.135   2.391   4.263
    3MOL     H4  344   2.279   2.305   4.314
    3MOL     O2  345   2.315   2.474   4.202
    3MOL     H5  346   2.404   2.434   4.205
    3MOL     C4  347   2.071   2.560   4.670
    3MOL     H6  348   1.982   2.498   4.651
    3MOL     O3  349   2.052   2.639   4.788
    3MOL     H7  350   2.104   2.722   4.774
    3MOL     C5  351   2.194   2.469   4.689
    3MOL     H8  352   2.281   2.533   4.708
    3MOL     O4  353   2.174   2.383   4.801
    3MOL     H9  354   2.128   2.439   4.866
    3MOL     C6  355   2.225   2.389   4.559
    3MOL    H10  356   2.146   2.313   4.544
    3MOL     O5  357   2.355   2.328   4.579
    3MOL     C7  358   2.369   2.188   4.548
    3MOL    H11  359   2.271   2.141   4.535
    3MOL     O6  360   2.447   2.174   4.427
    3MOL     C8  361   2.578   2.237   4.430
    3MOL    H12  362   2.564   2.343   4.452
    3MOL     C9  363   2.640   2.228   4.289
    3MOL    H13  364   2.641   2.122   4.260
    3MOL    H14  365   2.744   2.264   4.292
    3MOL     O7  366   2.565   2.303   4.193
    3MOL    H15  367   2.507   2.237   4.147
    3MOL    C10  368   2.445   2.118   4.663
    3MOL    H16  369   2.451   2.011   4.638
    3MOL     O8  370   2.377   2.135   4.787
    3MOL    H17  371   2.287   2.169   4.765
    3MOL    C11  372   2.590   2.172   4.678
    3MOL    H18  373   2.582   2.277   4.711
    3MOL     O9  374   2.661   2.096   4.775
    3MOL    H19  375   2.603   2.088   4.854
    3MOL    C12  376   2.666   2.174   4.543
    3MOL    H20  377   2.693   2.072   4.514
    3MOL    O10  378   2.784   2.257   4.564
    3MOL    C13  379   2.913   2.191   4.566
    3MOL    H21  380   2.901   2.082   4.558
    3MOL    O11  381   2.991   2.239   4.454
    3MOL    C14  382   3.015   2.382   4.451
    3MOL    H22  383   2.919   2.433   4.438
    3MOL    C15  384   3.104   2.415   4.330
    3MOL    H23  385   3.112   2.523   4.319
    3MOL    H24  386   3.052   2.374   4.244
    3MOL    O12  387   3.235   2.357   4.338
    3MOL    H25  388   3.288   2.407   4.270
    3MOL    C16  389   2.993   2.224   4.696
    3MOL    H26  390   3.090   2.173   4.687
    3MOL    O13  391   2.926   2.177   4.813
    3MOL    H27  392   2.839   2.141   4.784
    3MOL    C17  393   3.018   2.375   4.710
    3MOL    H28  394   2.921   2.425   4.723
    3MOL    O14  395   3.102   2.404   4.824
    3MOL    H29  396   3.054   2.368   4.902
    3MOL    C18  397   3.083   2.432   4.582
    3MOL    H30  398   3.187   2.400   4.579
    3MOL    O15  399   3.071   2.576   4.591
    3MOL    C19  400   3.193   2.654   4.578
    3MOL    H31  401   3.282   2.590   4.573
    3MOL    O16  402   3.185   2.734   4.458
    3MOL    C20  403   3.071   2.824   4.447
    3MOL    H32  404   2.980   2.765   4.445
    3MOL    C21  405   3.079   2.903   4.314
    3MOL    H33  406   2.983   2.953   4.296
    3MOL    H34  407   3.096   2.833   4.231
    3MOL    O17  408   3.184   3.000   4.318
    3MOL    H35  409   3.168   3.062   4.242
    3MOL    C22  410   3.205   2.749   4.700
    3MOL    H36  411   3.298   2.807   4.688
    3MOL    O18  412   3.209   2.674   4.821
    3MOL    H37  413   3.164   2.589   4.799
    3MOL    C23  414   3.085   2.846   4.706
    3MOL    H38  415   2.996   2.784   4.721
    3MOL    O19  416   3.098   2.940   4.815
    3MOL    H39  417   3.109   2.886   4.897
    3MOL    C24  418   3.065   2.919   4.570
    3MOL    H40  419   3.141   2.998   4.562
    3MOL    O20  420   2.932   2.976   4.579
    3MOL    C25  421   2.913   3.115   4.545
    3MOL    H41  422   3.008   3.165   4.524
    3MOL    O21  423   2.827   3.123   4.429
    3MOL    C26  424   2.698   3.057   4.444
    3MOL    H42  425   2.715   2.952   4.473
    3MOL    C27  426   2.621   3.054   4.310
    3MOL    H43  427   2.557   2.965   4.309
    3MOL    H44  428   2.692   3.044   4.228
    3MOL    O22  429   2.537   3.166   4.290
    3MOL    H45  430   2.449   3.135   4.321
    3MOL    C28  431   2.843   3.185   4.665
    3MOL    H46  432   2.832   3.292   4.642
    3MOL    O23  433   2.922   3.168   4.782
    3MOL    H47  434   2.965   3.080   4.772
    3MOL    C29  435   2.703   3.124   4.690
    3MOL    H48  436   2.719   3.019   4.717
    3MOL    O24  437   2.632   3.190   4.797
    3MOL    H49  438   2.690   3.190   4.876
    3MOL    C30  439   2.620   3.124   4.559
    3MOL    H50  440   2.596   3.228   4.533
    3MOL    O25  441   2.502   3.046   4.585
    3MOL    C31  442   2.376   3.108   4.553
    3MOL    H51  443   2.387   3.216   4.540
    3MOL    O26  444   2.324   3.050   4.431
    3MOL    C32  445   2.298   2.906   4.432
    3MOL    H52  446   2.392   2.851   4.444
    3MOL    C33  447   2.232   2.867   4.296
    3MOL    H53  448   2.148   2.934   4.277
    3MOL    H54  449   2.192   2.765   4.302
    3MOL    O27  450   2.325   2.876   4.187
    3MOL    H55  451   2.346   2.784   4.160
    3MOL    C34  452   2.278   3.083   4.670
    3MOL    H56  453   2.184   3.133   4.647
    3MOL    O28  454   2.334   3.134   4.791
    3MOL    H57  455   2.431   3.141   4.775
    3MOL    C35  456   2.253   2.931   4.685
    3MOL    H58  457   2.348   2.884   4.711
    3MOL    O29  458   2.157   2.906   4.789
    3MOL    H59  459   2.173   2.975   4.857
    3MOL    C36  460   2.205   2.871   4.552
    3MOL    H60  461   2.102   2.904   4.532
    3MOL    O30  462   2.211   2.729   4.571
    4SOL     OW  463   0.214   0.597   0.126
    4SOL    HW1  464   0.174   0.537   0.189
    4SOL    HW2  465   0.242   0.542   0.053
    5SOL     OW  466   0.233   0.283   0.990
    5SOL    HW1  467   0.252   0.241   1.073
    5SOL    HW2  468   0.151   0.243   0.960
    6SOL     OW  469   5.300   0.409   0.661
    6SOL    HW1  470   5.207   0.433   0.667
    6SOL    HW2  471   5.299   0.318   0.631
    7SOL     OW  472   0.582   1.296   1.197
    7SOL    HW1  473   0.500   1.301   1.147
    7SOL    HW2  474   0.596   1.386   1.228
    8SOL     OW  475   1.573   1.516   0.710
    8SOL    HW1  476   1.529   1.491   0.792
    8SOL    HW2  477   1.503   1.518   0.645
    9SOL     OW  478   1.136   0.698   0.697
    9SOL    HW1  479   1.182   0.781   0.684
    9SOL    HW2  480   1.087   0.710   0.778
   10SOL     OW  481   1.777   0.596   0.227
   10SOL    HW1  482   1.725   0.607   0.147
   10SOL    HW2  483   1.736   0.521   0.271
   11SOL     OW  484   0.745   1.135   1.047
   11SOL    HW1  485   0.684   1.173   1.110
   11SOL    HW2  486   0.784   1.210   1.002
   12SOL     OW  487   0.874   0.767   1.825
   12SOL    HW1  488   0.869   0.838   1.889
   12SOL    HW2  489   0.897   0.811   1.743
   13SOL     OW  490   0.682   0.992   0.649
   13SOL    HW1  491   0.750   0.986   0.717
   13SOL    HW2  492   0.617   1.051   0.686
   14SOL     OW  493   0.713   1.149   1.821
   14SOL    HW1  494   0.762   1.226   1.852
   14SOL    HW2  495   0.635   1.186   1.780
   15SOL     OW  496   0.360   1.401   1.063
   15SOL    HW1  497   0.272   1.394   1.026
   15SOL    HW2  498   0.406   1.462   1.005
   16SOL     OW  499   1.459   1.503   1.362
   16SOL    HW1  500   1.513   1.581   1.372
   16SOL    HW2  501   1.390   1.513   1.428
   17SOL     OW  502   0.458   0.395   1.470
   17SOL    HW1  503   0.539   0.343   1.475
   17SOL    HW2  504   0.388   0.332   1.489
   18SOL     OW  505   1.602   0.449   0.742
   18SOL    HW1  506   1.523   0.462   0.690
   18SOL    HW2  507   1.610   0.529   0.794
   19SOL     OW  508   0.221   1.738   0.458
   19SOL    HW1  509   0.258   1.793   0.527
   19SOL    HW2  510   0.297   1.712   0.406
   20SOL     OW  511   1.138   1.343   1.695
   20SOL    HW1  512   1.180   1.335   1.781
   20SOL    HW2  513   1.086   1.263   1.686
   21SOL     OW  514   0.219   1.455   0.524
   21SOL    HW1  515   0.193   1.546   0.538
   21SOL    HW2  516   0.168   1.405   0.589
   22SOL     OW  517   0.265   1.075   0.877
   22SOL    HW1  518   0.269   0.985   0.910
   22SOL    HW2  519   0.206   1.120   0.937
   23SOL     OW  520   0.604   1.791   1.431
   23SOL    HW1  521   0.521   1.775   1.475
   23SOL    HW2  522   0.627   1.881   1.456
   24SOL     OW  523   0.605   0.957   0.154
   24SOL    HW1  524   0.564   1.035   0.117
   24SOL    HW2  525   0.665   0.991   0.220
   25SOL     OW  526   1.588   0.140   1.454
   25SOL    HW1  527   1.622   0.219   1.414
   25SOL    HW2  528   1.574   0.163   1.546
   26SOL     OW  529   0.126   0.639   0.583
   26SOL    HW1  530   0.092   0.555   0.613
   26SOL    HW2  531   0.099   0.702   0.650
   27SOL     OW  532   1.851   1.754   0.323
   27SOL    HW1  533   1.919   1.726   0.384
   27SOL    HW2  534   1.871   1.845   0.304
   28SOL     OW  535   0.026   1.569   0.103
   28SOL    HW1  536   0.017   1.486   0.150
   28SOL    HW2  537   0.008   1.636   0.170
   29SOL     OW  538   1.690   0.920   0.649
   29SOL    HW1  539   1.769   0.873   0.623
   29SOL    HW2  540   1.667   0.972   0.573
   30SOL     OW  541   1.650   1.101   0.435
   30SOL    HW1  542   1.732   1.106   0.387
   30SOL    HW2  543   1.657   1.166   0.505
   31SOL     OW  544   0.138   0.752   1.582
   31SOL    HW1  545   0.233   0.764   1.577
   31SOL    HW2  546   0.103   0.839   1.599
   32SOL     OW  547   0.620   1.392   0.731
   32SOL    HW1  548   0.573   1.309   0.742
   32SOL    HW2  549   0.603   1.418   0.641
   33SOL     OW  550   1.284   1.235   1.421
   33SOL    HW1  551   1.314   1.167   1.361
   33SOL    HW2  552   1.344   1.230   1.495
   34SOL     OW  553   0.825   0.039   0.536
   34SOL    HW1  554   0.853   0.124   0.503
   34SOL    HW2  555   0.729   0.041   0.528
   35SOL     OW  556   0.165   0.936   1.283
   35SOL    HW1  557   0.256   0.906   1.276
   35SOL    HW2  558   0.131   0.930   1.194
   36SOL     OW  559   1.498   1.016   0.218
   36SOL    HW1  560   1.436   0.952   0.254
   36SOL    HW2  561   1.556   1.037   0.291
   37SOL     OW  562   1.183   1.814   1.627
   37SOL    HW1  563   1.188   1.876   1.554
   37SOL    HW2  564   1.201   1.729   1.588
   38SOL     OW  565   0.339   0.296   1.795
   38SOL    HW1  566   0.395   0.344   1.856
   38SOL    HW2  567   0.259   0.279   1.845
   39SOL     OW  568   1.468   1.419   0.946
   39SOL    HW1  569   1.402   1.435   1.013
   39SOL    HW2  570   1.454   1.328   0.920
   40SOL     OW  571   1.654   1.758   0.581
   40SOL    HW1  572   1.633   1.725   0.494
   40SOL    HW2  573   1.637   1.684   0.640
   41SOL     OW  574   0.598   0.710   0.286
   41SOL    HW1  575   0.613   0.794   0.244
   41SOL    HW2  576   0.534   0.728   0.355
   42SOL     OW  577   1.275   0.359   0.934
   42SOL    HW1  578   1.185   0.328   0.946
   42SOL    HW2  579   1.326   0.306   0.995
   43SOL     OW  580   1.588   1.673   0.324
   43SOL    HW1  581   1.680   1.697   0.314
   43SOL    HW2  582   1.557   1.656   0.235
   44SOL     OW  583   0.794   0.620   1.445
   44SOL    HW1  584   0.765   0.596   1.533
   44SOL    HW2  585   0.758   0.550   1.389
   45SOL     OW  586   1.394   0.477   1.678
   45SOL    HW1  587   1.398   0.522   1.763
   45SOL    HW2  588   1.455   0.404   1.687
   46SOL     OW  589   0.950   0.885   1.586
   46SOL    HW1  590   1.005   0.818   1.547
   46SOL    HW2  591   0.901   0.922   1.513
   47SOL     OW  592   0.995   0.415   1.227
   47SOL    HW1  593   0.905   0.430   1.255
   47SOL    HW2  594   0.986   0.369   1.143
   48SOL     OW  595   1.057   0.700   0.428
   48SOL    HW1  596   1.076   0.693   0.522
   48SOL    HW2  597   0.973   0.655   0.417
   49SOL     OW  598   0.062   0.796   0.811
   49SOL    HW1  599   0.140   0.797   0.865
   49SOL    HW2  600   0.074   0.867   0.749
   50SOL     OW  601   0.122   1.888   1.588
   50SOL    HW1  602   0.131   1.865   1.681
   50SOL    HW2  603   0.057   1.826   1.555
   51SOL     OW  604   0.887   0.359   0.205
   51SOL    HW1  605   0.932   0.408   0.136
   51SOL    HW2  606   0.870   0.273   0.166
   52SOL     OW  607   1.700   0.567   1.829
   52SOL    HW1  608   1.668   0.642   1.780
   52SOL    HW2  609   1.735   0.508   1.763
   53SOL     OW  610   1.381   1.142   0.541
   53SOL    HW1  611   1.460   1.132   0.487
   53SOL    HW2  612   1.327   1.204   0.492
   54SOL     OW  613   0.528   0.208   0.880
   54SOL    HW1  614   0.546   0.223   0.973
   54SOL    HW2  615   0.545   0.293   0.838
   55SOL     OW  616   0.995   1.442   0.467
   55SOL    HW1  617   0.965   1.518   0.418
   55SOL    HW2  618   0.971   1.462   0.558
   56SOL     OW  619   0.361   1.807   0.871
   56SOL    HW1  620   0.400   1.721   0.885
   56SOL    HW2  621   0.425   1.868   0.907
   57SOL     OW  622   1.802   1.052   0.874
   57SOL    HW1  623   1.751   1.030   0.796
   57SOL    HW2  624   1.737   1.058   0.944
   58SOL     OW  625   1.226   1.541   1.513
   58SOL    HW1  626   1.215   1.468   1.575
   58SOL    HW2  627   1.158   1.528   1.448
   59SOL     OW  628   0.325   0.950   0.265
   59SOL    HW1  629   0.405   0.962   0.214
   59SOL    HW2  630   0.316   0.855   0.273
   60SOL     OW  631   1.482   0.752   0.723
   60SOL    HW1  632   1.478   0.713   0.810
   60SOL    HW2  633   1.560   0.808   0.724
   61SOL     OW  634   0.470   1.269   1.738
   61SOL    HW1  635   0.443   1.274   1.646
   61SOL    HW2  636   0.388   1.268   1.787
   62SOL     OW  637   1.106   1.782   0.217
   62SOL    HW1  638   1.046   1.741   0.280
   62SOL    HW2  639   1.132   1.711   0.158
   63SOL     OW  640   0.196   0.282   1.499
   63SOL    HW1  641   0.163   0.370   1.483
   63SOL    HW2  642   0.213   0.279   1.593
   64SOL     OW  643   1.636   1.370   0.084
   64SOL    HW1  644   1.595   1.457   0.086
   64SOL    HW2  645   1.564   1.310   0.064
   65SOL     OW  646   0.472   1.728   0.327
   65SOL    HW1  647   0.517   1.790   0.385
   65SOL    HW2  648   0.538   1.701   0.263
   66SOL     OW  649   1.424   0.105   0.446
   66SOL    HW1  650   1.424   0.084   0.353
   66SOL    HW2  651   1.515   0.128   0.466
   67SOL     OW  652   0.277   1.800   1.199
   67SOL    HW1  653   0.306   1.717   1.238
   67SOL    HW2  654   0.218   1.774   1.129
   68SOL     OW  655   0.941   1.700   0.895
   68SOL    HW1  656   1.020   1.651   0.917
   68SOL    HW2  657   0.900   1.649   0.825
   69SOL     OW  658   0.377   0.698   0.470
   69SOL    HW1  659   0.408   0.608   0.483
   69SOL    HW2  660   0.287   0.697   0.502
   70SOL     OW  661   1.530   0.228   1.719
   70SOL    HW1  662   1.539   0.243   1.813
   70SOL    HW2  663   1.453   0.172   1.711
   71SOL     OW  664   0.628   0.143   0.121
   71SOL    HW1  665   0.719   0.116   0.129
   71SOL    HW2  666   0.598   0.103   0.039
   72SOL     OW  667   0.774   0.311   1.770
   72SOL    HW1  668   0.839   0.241   1.769
   72SOL    HW2  669   0.729   0.301   1.854
   73SOL     OW  670   0.878   1.524   1.194
   73SOL    HW1  671   0.859   1.485   1.108
   73SOL    HW2  672   0.946   1.469   1.231
   74SOL     OW  673   1.338   0.590   1.433
   74SOL    HW1  674   1.369   0.560   1.518
   74SOL    HW2  675   1.375   0.678   1.423
   75SOL     OW  676   0.819   1.386   0.947
   75SOL    HW1  677   0.905   1.376   0.905
   75SOL    HW2  678   0.758   1.396   0.874
   76SOL     OW  679   0.929   0.512   0.900
   76SOL    HW1  680   0.903   0.503   0.808
   76SOL    HW2  681   0.955   0.424   0.926
   77SOL     OW  682   0.554   0.057   0.511
   77SOL    HW1  683   0.474   0.056   0.564
   77SOL    HW2  684   0.538   0.124   0.445
   78SOL     OW  685   1.430   1.202   0.033
   78SOL    HW1  686   1.453   1.130   0.092
   78SOL    HW2  687   1.343   1.230   0.062
   79SOL     OW  688   0.329   0.086   0.196
   79SOL    HW1  689   0.400   0.150   0.198
   79SOL    HW2  690   0.373   0.003   0.176
   80SOL     OW  691   0.950   0.268   0.454
   80SOL    HW1  692   0.925   0.309   0.372
   80SOL    HW2  693   1.043   0.290   0.464
   81SOL     OW  694   1.081   0.687   1.456
   81SOL    HW1  695   1.016   0.617   1.459
   81SOL    HW2  696   1.165   0.641   1.450
   82SOL     OW  697   1.218   1.573   0.796
   82SOL    HW1  698   1.231   1.638   0.727
   82SOL    HW2  699   1.288   1.590   0.859
   83SOL     OW  700   0.473   1.157   0.724
   83SOL    HW1  701   0.406   1.133   0.788
   83SOL    HW2  702   0.431   1.145   0.639
   84SOL     OW  703   1.263   1.792   0.613
   84SOL    HW1  704   1.314   1.856   0.565
   84SOL    HW2  705   1.192   1.844   0.653
   85SOL     OW  706   1.031   0.520   0.037
   85SOL    HW1  707   1.002   0.607   0.009
   85SOL    HW2  708   1.095   0.536   0.105
   86SOL     OW  709   0.110   0.527   1.417
   86SOL    HW1  710   0.188   0.549   1.366
   86SOL    HW2  711   0.087   0.609   1.461
   87SOL     OW  712   0.558   0.239   1.159
   87SOL    HW1  713   0.592   0.155   1.188
   87SOL    HW2  714   0.466   0.238   1.185
   88SOL     OW  715   0.866   0.463   0.640
   88SOL    HW1  716   0.825   0.518   0.573
   88SOL    HW2  717   0.890   0.382   0.593
   89SOL     OW  718   0.980   0.064   0.768
   89SOL    HW1  719   0.919   0.065   0.695
   89SOL    HW2  720   0.991   5.271   0.789
   90SOL     OW  721   1.439   1.159   0.856
   90SOL    HW1  722   1.368   1.096   0.858
   90SOL    HW2  723   1.462   1.168   0.764
   91SOL     OW  724   1.465   0.613   0.968
   91SOL    HW1  725   1.410   0.535   0.971
   91SOL    HW2  726   1.524   0.604   1.043
   92SOL     OW  727   1.845   0.809   0.389
   92SOL    HW1  728   1.899   0.758   0.449
   92SOL    HW2  729   1.818   0.746   0.322
   93SOL     OW  730   0.488   1.440   0.174
   93SOL    HW1  731   0.412   1.408   0.223
   93SOL    HW2  732   0.500   1.377   0.103
   94SOL     OW  733   1.680   1.266   0.642
   94SOL    HW1  734   1.775   1.265   0.658
   94SOL    HW2  735   1.653   1.355   0.664
   95SOL     OW  736   1.395   0.570   0.088
   95SOL    HW1  737   1.332   0.555   0.158
   95SOL    HW2  738   1.446   0.489   0.082
   96SOL     OW  739   0.523   0.268   0.328
   96SOL    HW1  740   0.573   0.218   0.263
   96SOL    HW2  741   0.504   0.351   0.284
   97SOL     OW  742   1.747   1.243   1.559
   97SOL    HW1  743   1.835   1.204   1.552
   97SOL    HW2  744   1.763   1.332   1.590
   98SOL     OW  745   1.053   1.353   1.331
   98SOL    HW1  746   0.978   1.322   1.381
   98SOL    HW2  747   1.128   1.311   1.373
   99SOL     OW  748   1.609   1.628   1.659
   99SOL    HW1  749   1.600   1.662   1.570
   99SOL    HW2  750   1.691   1.578   1.658
  100SOL     OW  751   1.137   1.213   1.102
  100SOL    HW1  752   1.076   1.250   1.165
  100SOL    HW2  753   1.108   1.247   1.017
  101SOL     OW  754   1.622   1.095   1.075
  101SOL    HW1  755   1.615   1.158   1.147
  101SOL    HW2  756   1.547   1.114   1.019
  102SOL     OW  757   0.904   0.111   1.378
  102SOL    HW1  758   0.936   0.077   1.295
  102SOL    HW2  759   0.981   0.152   1.418
  103SOL     OW  760   0.984   1.116   1.723
  103SOL    HW1  761   0.893   1.133   1.747
  103SOL    HW2  762   0.981   1.037   1.668
  104SOL     OW  763   0.722   1.065   0.384
  104SOL    HW1  764   0.703   1.043   0.475
  104SOL    HW2  765   0.799   1.013   0.362
  105SOL     OW  766   0.420   0.829   1.256
  105SOL    HW1  767   0.489   0.836   1.322
  105SOL    HW2  768   0.389   0.739   1.264
  106SOL     OW  769   1.263   0.376   1.279
  106SOL    HW1  770   1.297   0.453   1.324
  106SOL    HW2  771   1.173   0.399   1.255
  107SOL     OW  772   0.104   1.618   1.362
  107SOL    HW1  773   0.082   1.619   1.269
  107SOL    HW2  774   0.193   1.583   1.366
  108SOL     OW  775   0.341   1.119   0.484
  108SOL    HW1  776   0.332   1.198   0.432
  108SOL    HW2  777   0.350   1.048   0.420
  109SOL     OW  778   0.552   0.527   0.858
  109SOL    HW1  779   0.564   0.588   0.784
  109SOL    HW2  780   0.618   0.554   0.922
  110SOL     OW  781   1.245   1.347   0.397
  110SOL    HW1  782   1.300   1.419   0.427
  110SOL    HW2  783   1.157   1.370   0.427
  111SOL     OW  784   1.291   1.461   1.148
  111SOL    HW1  785   1.346   1.466   1.227
  111SOL    HW2  786   1.236   1.384   1.162
  112SOL     OW  787   1.574   0.623   0.487
  112SOL    HW1  788   1.525   0.666   0.557
  112SOL    HW2  789   1.603   0.695   0.431
  113SOL     OW  790   0.354   1.521   1.307
  113SOL    HW1  791   0.343   1.476   1.224
  113SOL    HW2  792   0.447   1.539   1.314
  114SOL     OW  793   0.422   0.738   1.605
  114SOL    HW1  794   0.481   0.786   1.547
  114SOL    HW2  795   0.467   0.656   1.623
  115SOL     OW  796   1.610   0.781   1.687
  115SOL    HW1  797   1.524   0.823   1.682
  115SOL    HW2  798   1.662   0.823   1.619
  116SOL     OW  799   1.062   0.122   1.791
  116SOL    HW1  800   1.090   0.202   1.746
  116SOL    HW2  801   1.066   0.054   1.723
  117SOL     OW  802   0.482   0.066   1.736
  117SOL    HW1  803   0.415   0.000   1.717
  117SOL    HW2  804   0.434   0.147   1.747
  118SOL     OW  805   0.587   0.876   1.035
  118SOL    HW1  806   0.622   0.965   1.035
  118SOL    HW2  807   0.529   0.873   1.111
  119SOL     OW  808   1.344   0.859   1.020
  119SOL    HW1  809   1.258   0.843   0.982
  119SOL    HW2  810   1.391   0.776   1.010
  120SOL     OW  811   1.195   0.524   0.268
  120SOL    HW1  812   1.209   0.448   0.323
  120SOL    HW2  813   1.154   0.589   0.325
  121SOL     OW  814   0.300   0.202   1.247
  121SOL    HW1  815   0.259   0.235   1.327
  121SOL    HW2  816   0.292   0.106   1.254
  122SOL     OW  817   0.050   1.309   1.275
  122SOL    HW1  818   0.084   1.253   1.346
  122SOL    HW2  819   5.279   1.359   1.315
  123SOL     OW  820   0.722   0.631   1.054
  123SOL    HW1  821   0.798   0.618   0.997
  123SOL    HW2  822   0.692   0.720   1.035
  124SOL     OW  823   1.741   0.959   1.860
  124SOL    HW1  824   1.697   0.892   1.808
  124SOL    HW2  825   1.679   0.978   1.931
  125SOL     OW  826   0.324   0.066   0.664
  125SOL    HW1  827   0.299   0.158   0.663
  125SOL    HW2  828   0.352   0.049   0.754
  126SOL     OW  829   1.634   0.388   0.360
  126SOL    HW1  830   1.655   0.317   0.421
  126SOL    HW2  831   1.605   0.460   0.416
  127SOL     OW  832   1.030   0.759   0.958
  127SOL    HW1  833   1.020   0.776   1.052
  127SOL    HW2  834   1.002   0.668   0.946
  128SOL     OW  835   0.981   1.565   1.723
  128SOL    HW1  836   0.965   1.610   1.639
  128SOL    HW2  837   1.025   1.484   1.699
  129SOL     OW  838   1.849   1.500   1.604
  129SOL    HW1  839   1.872   1.528   1.515
  129SOL    HW2  840   1.930   1.513   1.655
  130SOL     OW  841   0.356   0.917   1.807
  130SOL    HW1  842   0.436   0.938   1.857
  130SOL    HW2  843   0.385   0.852   1.743
  131SOL     OW  844   1.513   0.321   0.124
  131SOL    HW1  845   1.486   0.229   0.133
  131SOL    HW2  846   1.558   0.341   0.206
  132SOL     OW  847   1.299   0.818   0.021
  132SOL    HW1  848   1.334   0.730   0.035
  132SOL    HW2  849   1.367   0.863   8.050
  133SOL     OW  850   1.071   1.340   0.858
  133SOL    HW1  851   1.075   1.268   0.795
  133SOL    HW2  852   1.127   1.408   0.822
  134SOL     OW  853   0.310   0.806   0.948
  134SOL    HW1  854   0.404   0.825   0.946
  134SOL    HW2  855   0.304   0.716   0.978
  135SOL     OW  856   0.334   0.529   1.016
  135SOL    HW1  857   0.296   0.442   1.003
  135SOL    HW2  858   0.409   0.531   0.957
  136SOL     OW  859   1.136   0.376   1.693
  136SOL    HW1  860   1.087   0.430   1.755
  136SOL    HW2  861   1.222   0.418   1.687
  137SOL     OW  862   1.130   0.220   1.471
  137SOL    HW1  863   1.132   0.280   1.545
  137SOL    HW2  864   1.186   0.261   1.405
  138SOL     OW  865   0.018   1.310   0.200
  138SOL    HW1  866   5.254   1.281   0.134
  138SOL    HW2  867   0.017   1.240   0.266
  139SOL     OW  868   0.101   1.783   0.954
  139SOL    HW1  869   0.062   1.719   0.895
  139SOL    HW2  870   0.188   1.800   0.918
  140SOL     OW  871   0.503   1.573   0.908
  140SOL    HW1  872   0.570   1.639   0.927
  140SOL    HW2  873   0.545   1.514   0.846
  141SOL     OW  874   0.971   0.787   1.223
  141SOL    HW1  875   1.031   0.770   1.295
  141SOL    HW2  876   0.889   0.746   1.249
  142SOL     OW  877   0.035   0.585   1.127
  142SOL    HW1  878   0.112   0.551   1.082
  142SOL    HW2  879   0.032   0.537   1.210
  143SOL     OW  880   0.159   0.525   1.730
  143SOL    HW1  881   0.245   0.498   1.699
  143SOL    HW2  882   0.137   0.602   1.677
  144SOL     OW  883   1.382   0.932   1.657
  144SOL    HW1  884   1.403   1.025   1.653
  144SOL    HW2  885   1.377   0.904   1.565
  145SOL     OW  886   0.822   0.571   0.375
  145SOL    HW1  887   0.831   0.499   0.313
  145SOL    HW2  888   0.745   0.620   0.345
  146SOL     OW  889   1.640   0.601   1.178
  146SOL    HW1  890   1.630   0.542   1.253
  146SOL    HW2  891   1.728   0.583   1.146
  147SOL     OW  892   0.253   1.553   1.732
  147SOL    HW1  893   0.235   1.617   1.801
  147SOL    HW2  894   0.253   1.469   1.777
  148SOL     OW  895   0.715   0.446   1.252
  148SOL    HW1  896   0.658   0.375   1.224
  148SOL    HW2  897   0.707   0.512   1.183
  149SOL     OW  898   0.922   1.678   1.472
  149SOL    HW1  899   0.898   1.638   1.389
  149SOL    HW2  900   0.916   1.772   1.456
  150SOL     OW  901   0.473   0.492   0.177
  150SOL    HW1  902   0.541   0.555   0.200
  150SOL    HW2  903   0.391   0.539   0.190
  151SOL     OW  904   0.145   1.137   1.469
  151SOL    HW1  905   0.142   1.093   1.553
  151SOL    HW2  906   0.153   1.066   1.405
  152SOL     OW  907   1.319   1.043   1.219
  152SOL    HW1  908   1.340   0.979   1.150
  152SOL    HW2  909   1.254   1.101   1.179
  153SOL     OW  910   1.304   0.845   0.310
  153SOL    HW1  911   1.229   0.812   0.358
  153SOL    HW2  912   1.283   0.830   0.218
  154SOL     OW  913   1.781   1.736   1.158
  154SOL    HW1  914   1.840   1.761   1.088
  154SOL    HW2  915   1.752   1.647   1.135
  155SOL     OW  916   1.240   1.733   1.104
  155SOL    HW1  917   1.323   1.757   1.063
  155SOL    HW2  918   1.250   1.640   1.125
  156SOL     OW  919   0.080   1.200   1.026
  156SOL    HW1  920   0.065   1.230   1.115
  156SOL    HW2  921   5.293   1.195   0.987
  157SOL     OW  922   0.679   1.673   1.740
  157SOL    HW1  923   0.618   1.746   1.730
  157SOL    HW2  924   0.747   1.689   1.674
  158SOL     OW  925   0.893   0.083   0.138
  158SOL    HW1  926   0.950   0.068   0.062
  158SOL    HW2  927   0.896   0.001   0.188
  159SOL     OW  928   1.709   0.156   0.499
  159SOL    HW1  929   1.783   0.135   0.441
  159SOL    HW2  930   1.707   0.083   0.561
  160SOL     OW  931   1.392   1.568   0.494
  160SOL    HW1  932   1.453   1.602   0.429
  160SOL    HW2  933   1.342   1.644   0.523
  161SOL     OW  934   0.151   1.797   1.843
  161SOL    HW1  935   0.097   1.735   1.892
  161SOL    HW2  936   0.204   1.840   1.910
  162SOL     OW  937   1.277   0.930   0.672
  162SOL    HW1  938   1.351   0.870   0.682
  162SOL    HW2  939   1.311   1.001   0.617
  163SOL     OW  940   0.803   1.277   1.423
  163SOL    HW1  941   0.775   1.319   1.503
  163SOL    HW2  942   0.731   1.293   1.361
  164SOL     OW  943   0.678   1.626   0.155
  164SOL    HW1  944   0.685   1.636   0.060
  164SOL    HW2  945   0.617   1.553   0.167
  165SOL     OW  946   1.618   1.728   1.392
  165SOL    HW1  947   1.673   1.732   1.314
  165SOL    HW2  948   1.604   1.819   1.417
  166SOL     OW  949   1.848   0.144   0.955
  166SOL    HW1  950   1.834   0.051   0.970
  166SOL    HW2  951   1.764   0.176   0.922
  167SOL     OW  952   0.270   0.331   0.716
  167SOL    HW1  953   0.181   0.365   0.706
  167SOL    HW2  954   0.279   0.316   0.810
  168SOL     OW  955   1.167   1.576   0.051
  168SOL    HW1  956   1.172   1.484   0.076
  168SOL    HW2  957   1.179   1.575   8.036
  169SOL     OW  958   0.824   1.007   1.376
  169SOL    HW1  959   0.866   1.000   1.291
  169SOL    HW2  960   0.820   1.101   1.393
  170SOL     OW  961   0.922   0.912   0.300
  170SOL    HW1  962   0.974   0.934   0.222
  170SOL    HW2  963   0.972   0.843   0.343
  171SOL     OW  964   1.508   1.619   0.064
  171SOL    HW1  965   1.413   1.622   0.052
  171SOL    HW2  966   1.544   1.630   8.056
  172SOL     OW  967   0.366   1.305   1.494
  172SOL    HW1  968   0.359   1.378   1.433
  172SOL    HW2  969   0.291   1.249   1.474
  173SOL     OW  970   1.607   1.285   1.279
  173SOL    HW1  971   1.666   1.267   1.353
  173SOL    HW2  972   1.547   1.352   1.312
  174SOL     OW  973   1.062   1.111   0.712
  174SOL    HW1  974   0.989   1.061   0.748
  174SOL    HW2  975   1.126   1.045   0.685
  175SOL     OW  976   1.016   0.247   0.974
  175SOL    HW1  977   0.997   0.202   0.891
  175SOL    HW2  978   1.011   0.178   1.040
  176SOL     OW  979   0.606   1.484   0.475
  176SOL    HW1  980   0.652   1.435   0.406
  176SOL    HW2  981   0.536   1.529   0.428
  177SOL     OW  982   1.732   0.384   1.377
  177SOL    HW1  983   1.803   0.448   1.376
  177SOL    HW2  984   1.760   0.315   1.318
  178SOL     OW  985   0.274   1.324   0.299
  178SOL    HW1  986   0.189   1.327   0.255
  178SOL    HW2  987   0.262   1.375   0.379
  179SOL     OW  988   0.122   1.018   1.715
  179SOL    HW1  989   0.051   0.983   1.770
  179SOL    HW2  990   0.202   0.987   1.757
  180SOL     OW  991   0.681   0.225   1.497
  180SOL    HW1  992   0.763   0.210   1.450
  180SOL    HW2  993   0.708   0.267   1.579
  181SOL     OW  994   0.076   0.354   8.062
  181SOL    HW1  995   0.012   0.313   0.040
  181SOL    HW2  996   0.047   0.445   8.055
  182SOL     OW  997   1.424   0.857   1.396
  182SOL    HW1  998   1.374   0.918   1.342
  182SOL    HW2  999   1.513   0.860   1.360
  183SOL     OW 1000   0.085   0.151   0.275
  183SOL    HW1 1001   0.086   0.247   0.279
  183SOL    HW2 1002   0.176   0.128   0.252
  184SOL     OW 1003   1.182   1.309   0.121
  184SOL    HW1 1004   1.087   1.307   0.116
  184SOL    HW2 1005   1.200   1.310   0.215
  185SOL     OW 1006   0.621   0.832   1.438
  185SOL    HW1 1007   0.678   0.908   1.422
  185SOL    HW2 1008   0.681   0.758   1.442
  186SOL     OW 1009   1.483   1.786   0.984
  186SOL    HW1 1010   1.506   1.853   0.919
  186SOL    HW2 1011   1.567   1.757   1.018
  187SOL     OW 1012   0.712   0.573   1.698
  187SOL    HW1 1013   0.759   0.634   1.755
  187SOL    HW2 1014   0.736   0.487   1.732
  188SOL     OW 1015   1.474   1.193   1.628
  188SOL    HW1 1016   1.462   1.209   1.721
  188SOL    HW2 1017   1.566   1.213   1.611
  189SOL     OW 1018   0.369   1.747   1.566
  189SOL    HW1 1019   0.287   1.792   1.548
  189SOL    HW2 1020   0.342   1.666   1.609
  190SOL     OW 1021   1.663   0.879   1.255
  190SOL    HW1 1022   1.660   0.794   1.211
  190SOL    HW2 1023   1.653   0.943   1.184
  191SOL     OW 1024   1.219   0.328   0.471
  191SOL    HW1 1025   1.277   0.252   0.459
  191SOL    HW2 1026   1.257   0.375   0.545
  192SOL     OW 1027   0.582   0.732   0.672
  192SOL    HW1 1028   0.623   0.818   0.661
  192SOL    HW2 1029   0.513   0.729   0.606
  193SOL     OW 1030   1.763   0.362   1.650
  193SOL    HW1 1031   1.746   0.378   1.557
  193SOL    HW2 1032   1.688   0.308   1.678
  194SOL     OW 1033   1.749   0.933   1.510
  194SOL    HW1 1034   1.738   1.027   1.523
  194SOL    HW2 1035   1.730   0.919   1.417
  195SOL     OW 1036   0.907   1.366   0.057
  195SOL    HW1 1037   0.847   1.353   0.131
  195SOL    HW2 1038   0.875   1.445   0.015
  196SOL     OW 1039   0.668   1.788   0.935
  196SOL    HW1 1040   0.649   1.880   0.916
  196SOL    HW2 1041   0.763   1.781   0.930
  197SOL     OW 1042   0.870   0.970   0.854
  197SOL    HW1 1043   0.921   0.898   0.891
  197SOL    HW2 1044   0.832   1.014   0.929
  198SOL     OW 1045   1.076   0.965   0.083
  198SOL    HW1 1046   1.071   1.038   0.021
  198SOL    HW2 1047   1.154   0.916   0.056
  199SOL     OW 1048   1.845   1.553   0.841
  199SOL    HW1 1049   1.766   1.541   0.790
  199SOL    HW2 1050   1.838   1.489   0.912
  200SOL     OW 1051   0.231   1.301   1.863
  200SOL    HW1 1052   0.165   1.238   1.835
  200SOL    HW2 1053   0.216   1.311   1.957
  201SOL     OW 1054   0.112   1.240   0.664
  201SOL    HW1 1055   0.106   1.194   0.748
  201SOL    HW2 1056   0.180   1.192   0.615
  202SOL     OW 1057   0.686   1.408   1.632
  202SOL    HW1 1058   0.606   1.367   1.664
  202SOL    HW2 1059   0.683   1.497   1.668
  203SOL     OW 1060   1.803   0.172   1.227
  203SOL    HW1 1061   1.765   0.084   1.222
  203SOL    HW2 1062   1.834   0.190   1.138
  204SOL     OW 1063   0.432   0.443   0.522
  204SOL    HW1 1064   0.470   0.369   0.475
  204SOL    HW2 1065   0.385   0.403   0.596
  205SOL     OW 1066   1.697   1.486   1.091
  205SOL    HW1 1067   1.618   1.466   1.041
  205SOL    HW2 1068   1.701   1.416   1.157
  206SOL     OW 1069   0.344   0.569   1.289
  206SOL    HW1 1070   0.399   0.508   1.339
  206SOL    HW2 1071   0.354   0.541   1.198
  207SOL     OW 1072   0.834   1.578   0.675
  207SOL    HW1 1073   0.812   1.642   0.608
  207SOL    HW2 1074   0.759   1.518   0.677
  208SOL     OW 1075   1.425   0.222   1.116
  208SOL    HW1 1076   1.459   0.146   1.162
  208SOL    HW2 1077   1.376   0.271   1.183
  209SOL     OW 1078   1.000   0.017   1.133
  209SOL    HW1 1079   0.949   5.251   1.086
  209SOL    HW2 1080   1.084   5.274   1.150
  210SOL     OW 1081   0.778   1.326   0.310
  210SOL    HW1 1082   0.751   1.237   0.330
  210SOL    HW2 1083   0.856   1.340   0.364
  211SOL     OW 1084   0.625   1.556   1.291
  211SOL    HW1 1085   0.624   1.638   1.340
  211SOL    HW2 1086   0.712   1.553   1.252
  212SOL     OW 1087   1.405   0.060   0.164
  212SOL    HW1 1088   1.388   0.033   0.074
  212SOL    HW2 1089   1.321   0.092   0.195
  213SOL     OW 1090   1.310   0.470   0.687
  213SOL    HW1 1091   1.255   0.548   0.687
  213SOL    HW2 1092   1.296   0.431   0.773
  214SOL     OW 1093   1.597   0.214   0.887
  214SOL    HW1 1094   1.533   0.227   0.958
  214SOL    HW2 1095   1.589   0.293   0.833
  215SOL     OW 1096   0.051   1.061   0.337
  215SOL    HW1 1097   0.138   1.039   0.302
  215SOL    HW2 1098   5.296   0.986   0.315
  216SOL     OW 1099   0.887   1.662   0.344
  216SOL    HW1 1100   0.816   1.648   0.282
  216SOL    HW2 1101   0.858   1.736   0.398
  217SOL     OW 1102   0.229   0.629   1.986
  217SOL    HW1 1103   0.162   0.592   2.043
  217SOL    HW2 1104   0.200   0.607   1.898
  218SOL     OW 1105   0.234   0.283   2.851
  218SOL    HW1 1106   0.252   0.242   2.936
  218SOL    HW2 1107   0.152   0.242   2.822
  219SOL     OW 1108   5.296   0.407   2.533
  219SOL    HW1 1109   5.204   0.432   2.533
  219SOL    HW2 1110   5.298   0.318   2.497
  220SOL     OW 1111   0.582   1.296   3.058
  220SOL    HW1 1112   0.500   1.301   3.008
  220SOL    HW2 1113   0.596   1.385   3.090
  221SOL     OW 1114   1.573   1.515   2.571
  221SOL    HW1 1115   1.529   1.491   2.652
  221SOL    HW2 1116   1.503   1.519   2.506
  222SOL     OW 1117   1.135   0.698   2.557
  222SOL    HW1 1118   1.182   0.781   2.545
  222SOL    HW2 1119   1.086   0.710   2.638
  223SOL     OW 1120   1.778   0.598   2.086
  223SOL    HW1 1121   1.751   0.593   1.994
  223SOL    HW2 1122   1.738   0.522   2.127
  224SOL     OW 1123   0.744   1.134   2.908
  224SOL    HW1 1124   0.683   1.173   2.972
  224SOL    HW2 1125   0.784   1.210   2.864
  225SOL     OW 1126   0.874   0.767   3.687
  225SOL    HW1 1127   0.869   0.837   3.751
  225SOL    HW2 1128   0.897   0.811   3.605
  226SOL     OW 1129   0.685   0.995   2.506
  226SOL    HW1 1130   0.752   0.988   2.573
  226SOL    HW2 1131   0.618   1.052   2.544
  227SOL     OW 1132   0.713   1.149   3.683
  227SOL    HW1 1133   0.762   1.226   3.714
  227SOL    HW2 1134   0.635   1.186   3.642
  228SOL     OW 1135   0.360   1.402   2.924
  228SOL    HW1 1136   0.269   1.405   2.894
  228SOL    HW2 1137   0.407   1.462   2.867
  229SOL     OW 1138   1.459   1.502   3.225
  229SOL    HW1 1139   1.513   1.581   3.234
  229SOL    HW2 1140   1.390   1.513   3.290
  230SOL     OW 1141   0.459   0.395   3.331
  230SOL    HW1 1142   0.539   0.343   3.337
  230SOL    HW2 1143   0.389   0.333   3.352
  231SOL     OW 1144   1.603   0.449   2.603
  231SOL    HW1 1145   1.528   0.465   2.545
  231SOL    HW2 1146   1.610   0.529   2.655
  232SOL     OW 1147   0.243   1.712   2.338
  232SOL    HW1 1148   0.267   1.785   2.395
  232SOL    HW2 1149   0.307   1.715   2.267
  233SOL     OW 1150   1.138   1.343   3.556
  233SOL    HW1 1151   1.179   1.335   3.643
  233SOL    HW2 1152   1.086   1.263   3.548
  234SOL     OW 1153   0.214   1.451   2.409
  234SOL    HW1 1154   0.228   1.543   2.388
  234SOL    HW2 1155   0.142   1.451   2.472
  235SOL     OW 1156   0.257   1.075   2.732
  235SOL    HW1 1157   0.267   0.986   2.767
  235SOL    HW2 1158   0.202   1.120   2.796
  236SOL     OW 1159   0.605   1.791   3.294
  236SOL    HW1 1160   0.521   1.775   3.337
  236SOL    HW2 1161   0.627   1.881   3.318
  237SOL     OW 1162   0.574   0.987   2.003
  237SOL    HW1 1163   0.624   1.031   1.934
  237SOL    HW2 1164   0.614   1.017   2.085
  238SOL     OW 1165   1.587   0.140   3.316
  238SOL    HW1 1166   1.622   0.220   3.276
  238SOL    HW2 1167   1.574   0.163   3.408
  239SOL     OW 1168   0.122   0.630   2.436
  239SOL    HW1 1169   0.088   0.551   2.478
  239SOL    HW2 1170   0.097   0.701   2.496
  240SOL     OW 1171   1.844   1.753   2.192
  240SOL    HW1 1172   1.914   1.728   2.252
  240SOL    HW2 1173   1.862   1.845   2.172
  241SOL     OW 1174   0.039   1.600   1.998
  241SOL    HW1 1175   0.028   1.508   2.023
  241SOL    HW2 1176   5.273   1.647   2.049
  242SOL     OW 1177   1.691   0.920   2.508
  242SOL    HW1 1178   1.771   0.874   2.484
  242SOL    HW2 1179   1.668   0.971   2.431
  243SOL     OW 1180   1.650   1.103   2.292
  243SOL    HW1 1181   1.737   1.102   2.251
  243SOL    HW2 1182   1.657   1.166   2.363
  244SOL     OW 1183   0.138   0.752   3.444
  244SOL    HW1 1184   0.233   0.764   3.439
  244SOL    HW2 1185   0.104   0.839   3.462
  245SOL     OW 1186   0.619   1.391   2.595
  245SOL    HW1 1187   0.573   1.308   2.605
  245SOL    HW2 1188   0.602   1.419   2.505
  246SOL     OW 1189   1.284   1.235   3.283
  246SOL    HW1 1190   1.314   1.167   3.223
  246SOL    HW2 1191   1.344   1.229   3.357
  247SOL     OW 1192   0.823   0.040   2.399
  247SOL    HW1 1193   0.851   0.126   2.369
  247SOL    HW2 1194   0.728   0.040   2.389
  248SOL     OW 1195   0.165   0.936   3.145
  248SOL    HW1 1196   0.256   0.906   3.138
  248SOL    HW2 1197   0.131   0.929   3.056
  249SOL     OW 1198   1.531   1.001   2.063
  249SOL    HW1 1199   1.462   0.943   2.096
  249SOL    HW2 1200   1.574   1.033   2.141
  250SOL     OW 1201   1.183   1.814   3.489
  250SOL    HW1 1202   1.188   1.876   3.416
  250SOL    HW2 1203   1.202   1.729   3.450
  251SOL     OW 1204   0.339   0.296   3.657
  251SOL    HW1 1205   0.395   0.344   3.718
  251SOL    HW2 1206   0.258   0.279   3.706
  252SOL     OW 1207   1.468   1.419   2.807
  252SOL    HW1 1208   1.401   1.435   2.874
  252SOL    HW2 1209   1.454   1.328   2.782
  253SOL     OW 1210   1.652   1.757   2.438
  253SOL    HW1 1211   1.635   1.723   2.351
  253SOL    HW2 1212   1.635   1.683   2.497
  254SOL     OW 1213   0.589   0.715   2.133
  254SOL    HW1 1214   0.597   0.799   2.088
  254SOL    HW2 1215   0.524   0.730   2.202
  255SOL     OW 1216   1.276   0.360   2.795
  255SOL    HW1 1217   1.186   0.329   2.807
  255SOL    HW2 1218   1.327   0.307   2.855
  256SOL     OW 1219   1.578   1.674   2.173
  256SOL    HW1 1220   1.671   1.698   2.165
  256SOL    HW2 1221   1.549   1.657   2.084
  257SOL     OW 1222   0.793   0.619   3.307
  257SOL    HW1 1223   0.765   0.596   3.395
  257SOL    HW2 1224   0.758   0.550   3.251
  258SOL     OW 1225   1.394   0.477   3.540
  258SOL    HW1 1226   1.398   0.522   3.625
  258SOL    HW2 1227   1.455   0.404   3.549
  259SOL     OW 1228   0.949   0.885   3.448
  259SOL    HW1 1229   1.005   0.818   3.409
  259SOL    HW2 1230   0.901   0.922   3.375
  260SOL     OW 1231   0.995   0.415   3.089
  260SOL    HW1 1232   0.905   0.430   3.117
  260SOL    HW2 1233   0.986   0.370   3.005
  261SOL     OW 1234   1.055   0.697   2.287
  261SOL    HW1 1235   1.073   0.691   2.380
  261SOL    HW2 1236   0.970   0.654   2.277
  262SOL     OW 1237   0.064   0.794   2.669
  262SOL    HW1 1238   0.143   0.796   2.722
  262SOL    HW2 1239   0.075   0.865   2.605
  263SOL     OW 1240   0.121   1.888   3.450
  263SOL    HW1 1241   0.131   1.865   3.543
  263SOL    HW2 1242   0.056   1.826   3.417
  264SOL     OW 1243   0.882   0.376   2.056
  264SOL    HW1 1244   0.917   0.432   1.987
  264SOL    HW2 1245   0.935   0.297   2.053
  265SOL     OW 1246   1.700   0.567   3.691
  265SOL    HW1 1247   1.668   0.642   3.642
  265SOL    HW2 1248   1.735   0.508   3.625
  266SOL     OW 1249   1.382   1.142   2.401
  266SOL    HW1 1250   1.461   1.131   2.348
  266SOL    HW2 1251   1.328   1.204   2.351
  267SOL     OW 1252   0.529   0.209   2.740
  267SOL    HW1 1253   0.546   0.223   2.834
  267SOL    HW2 1254   0.545   0.295   2.700
  268SOL     OW 1255   0.998   1.443   2.330
  268SOL    HW1 1256   0.969   1.519   2.279
  268SOL    HW2 1257   0.974   1.464   2.420
  269SOL     OW 1258   0.361   1.809   2.734
  269SOL    HW1 1259   0.400   1.723   2.747
  269SOL    HW2 1260   0.426   1.871   2.768
  270SOL     OW 1261   1.802   1.051   2.736
  270SOL    HW1 1262   1.750   1.031   2.657
  270SOL    HW2 1263   1.737   1.057   2.806
  271SOL     OW 1264   1.226   1.541   3.375
  271SOL    HW1 1265   1.215   1.468   3.437
  271SOL    HW2 1266   1.158   1.529   3.310
  272SOL     OW 1267   0.311   0.951   2.115
  272SOL    HW1 1268   0.392   0.975   2.070
  272SOL    HW2 1269   0.291   0.863   2.083
  273SOL     OW 1270   1.483   0.751   2.583
  273SOL    HW1 1271   1.479   0.713   2.671
  273SOL    HW2 1272   1.561   0.807   2.584
  274SOL     OW 1273   0.470   1.269   3.600
  274SOL    HW1 1274   0.443   1.274   3.508
  274SOL    HW2 1275   0.388   1.268   3.649
  275SOL     OW 1276   1.126   1.778   2.090
  275SOL    HW1 1277   1.050   1.739   2.133
  275SOL    HW2 1278   1.150   1.714   2.022
  276SOL     OW 1279   0.196   0.282   3.361
  276SOL    HW1 1280   0.163   0.371   3.346
  276SOL    HW2 1281   0.213   0.279   3.456
  277SOL     OW 1282   1.628   1.382   1.954
  277SOL    HW1 1283   1.587   1.467   1.939
  277SOL    HW2 1284   1.560   1.319   1.932
  278SOL     OW 1285   0.472   1.735   2.178
  278SOL    HW1 1286   0.518   1.791   2.241
  278SOL    HW2 1287   0.541   1.701   2.122
  279SOL     OW 1288   1.410   0.106   2.294
  279SOL    HW1 1289   1.402   0.078   2.203
  279SOL    HW2 1290   1.503   0.120   2.307
  280SOL     OW 1291   0.276   1.800   3.062
  280SOL    HW1 1292   0.306   1.716   3.099
  280SOL    HW2 1293   0.218   1.775   2.990
  281SOL     OW 1294   0.942   1.700   2.757
  281SOL    HW1 1295   1.022   1.652   2.779
  281SOL    HW2 1296   0.901   1.649   2.688
  282SOL     OW 1297   0.384   0.694   2.339
  282SOL    HW1 1298   0.414   0.604   2.349
  282SOL    HW2 1299   0.291   0.692   2.361
  283SOL     OW 1300   1.530   0.228   3.581
  283SOL    HW1 1301   1.539   0.243   3.675
  283SOL    HW2 1302   1.454   0.172   3.573
  284SOL     OW 1303   0.623   0.129   1.969
  284SOL    HW1 1304   0.671   0.053   2.002
  284SOL    HW2 1305   0.573   0.096   1.895
  285SOL     OW 1306   0.774   0.311   3.632
  285SOL    HW1 1307   0.840   0.241   3.631
  285SOL    HW2 1308   0.729   0.301   3.715
  286SOL     OW 1309   0.877   1.524   3.056
  286SOL    HW1 1310   0.859   1.485   2.970
  286SOL    HW2 1311   0.946   1.469   3.093
  287SOL     OW 1312   1.338   0.590   3.295
  287SOL    HW1 1313   1.369   0.559   3.380
  287SOL    HW2 1314   1.375   0.677   3.285
  288SOL     OW 1315   0.820   1.386   2.809
  288SOL    HW1 1316   0.905   1.376   2.767
  288SOL    HW2 1317   0.758   1.395   2.737
  289SOL     OW 1318   0.929   0.513   2.763
  289SOL    HW1 1319   0.903   0.504   2.671
  289SOL    HW2 1320   0.956   0.424   2.789
  290SOL     OW 1321   0.552   0.058   2.366
  290SOL    HW1 1322   0.475   0.058   2.422
  290SOL    HW2 1323   0.535   0.126   2.301
  291SOL     OW 1324   1.428   1.201   1.900
  291SOL    HW1 1325   1.457   1.126   1.952
  291SOL    HW2 1326   1.343   1.224   1.937
  292SOL     OW 1327   0.324   0.075   2.047
  292SOL    HW1 1328   0.394   0.138   2.062
  292SOL    HW2 1329   0.370   5.292   2.030
  293SOL     OW 1330   0.943   0.275   2.324
  293SOL    HW1 1331   0.916   0.305   2.237
  293SOL    HW2 1332   1.038   0.282   2.324
  294SOL     OW 1333   1.081   0.687   3.318
  294SOL    HW1 1334   1.016   0.617   3.321
  294SOL    HW2 1335   1.165   0.641   3.312
  295SOL     OW 1336   1.218   1.574   2.658
  295SOL    HW1 1337   1.232   1.638   2.588
  295SOL    HW2 1338   1.288   1.591   2.720
  296SOL     OW 1339   0.472   1.155   2.584
  296SOL    HW1 1340   0.404   1.131   2.647
  296SOL    HW2 1341   0.431   1.141   2.498
  297SOL     OW 1342   1.263   1.792   2.475
  297SOL    HW1 1343   1.311   1.854   2.421
  297SOL    HW2 1344   1.193   1.844   2.515
  298SOL     OW 1345   1.025   0.541   1.886
  298SOL    HW1 1346   0.983   0.625   1.869
  298SOL    HW2 1347   1.087   0.559   1.957
  299SOL     OW 1348   0.110   0.528   3.279
  299SOL    HW1 1349   0.188   0.549   3.228
  299SOL    HW2 1350   0.087   0.610   3.323
  300SOL     OW 1351   0.558   0.239   3.020
  300SOL    HW1 1352   0.592   0.155   3.050
  300SOL    HW2 1353   0.466   0.238   3.047
  301SOL     OW 1354   0.863   0.469   2.504
  301SOL    HW1 1355   0.817   0.523   2.440
  301SOL    HW2 1356   0.890   0.391   2.455
  302SOL     OW 1357   0.982   0.063   2.631
  302SOL    HW1 1358   0.919   0.066   2.558
  302SOL    HW2 1359   0.991   5.270   2.651
  303SOL     OW 1360   1.440   1.160   2.718
  303SOL    HW1 1361   1.368   1.097   2.719
  303SOL    HW2 1362   1.465   1.168   2.626
  304SOL     OW 1363   1.465   0.613   2.829
  304SOL    HW1 1364   1.410   0.535   2.832
  304SOL    HW2 1365   1.523   0.604   2.905
  305SOL     OW 1366   1.838   0.810   2.247
  305SOL    HW1 1367   1.897   0.762   2.305
  305SOL    HW2 1368   1.815   0.747   2.179
  306SOL     OW 1369   0.491   1.424   2.015
  306SOL    HW1 1370   0.416   1.396   2.067
  306SOL    HW2 1371   0.485   1.372   1.934
  307SOL     OW 1372   1.678   1.264   2.504
  307SOL    HW1 1373   1.773   1.263   2.518
  307SOL    HW2 1374   1.651   1.354   2.525
  308SOL     OW 1375   1.393   0.574   1.933
  308SOL    HW1 1376   1.332   0.552   2.003
  308SOL    HW2 1377   1.478   0.548   1.967
  309SOL     OW 1378   0.516   0.264   2.177
  309SOL    HW1 1379   0.574   0.222   2.113
  309SOL    HW2 1380   0.495   0.348   2.138
  310SOL     OW 1381   1.747   1.242   3.422
  310SOL    HW1 1382   1.835   1.204   3.415
  310SOL    HW2 1383   1.763   1.332   3.452
  311SOL     OW 1384   1.053   1.353   3.193
  311SOL    HW1 1385   0.978   1.322   3.242
  311SOL    HW2 1386   1.128   1.311   3.235
  312SOL     OW 1387   1.610   1.629   3.522
  312SOL    HW1 1388   1.600   1.663   3.433
  312SOL    HW2 1389   1.691   1.577   3.519
  313SOL     OW 1390   1.137   1.212   2.964
  313SOL    HW1 1391   1.076   1.250   3.027
  313SOL    HW2 1392   1.108   1.247   2.879
  314SOL     OW 1393   1.621   1.095   2.937
  314SOL    HW1 1394   1.614   1.158   3.009
  314SOL    HW2 1395   1.547   1.114   2.881
  315SOL     OW 1396   0.904   0.111   3.240
  315SOL    HW1 1397   0.936   0.077   3.156
  315SOL    HW2 1398   0.981   0.152   3.280
  316SOL     OW 1399   0.984   1.116   3.585
  316SOL    HW1 1400   0.893   1.133   3.609
  316SOL    HW2 1401   0.981   1.037   3.530
  317SOL     OW 1402   0.709   1.062   2.233
  317SOL    HW1 1403   0.696   1.042   2.326
  317SOL    HW2 1404   0.785   1.008   2.208
  318SOL     OW 1405   0.420   0.829   3.119
  318SOL    HW1 1406   0.490   0.836   3.184
  318SOL    HW2 1407   0.389   0.739   3.126
  319SOL     OW 1408   1.263   0.376   3.141
  319SOL    HW1 1409   1.297   0.453   3.186
  319SOL    HW2 1410   1.173   0.399   3.117
  320SOL     OW 1411   0.104   1.618   3.224
  320SOL    HW1 1412   0.083   1.623   3.131
  320SOL    HW2 1413   0.193   1.583   3.227
  321SOL     OW 1414   0.345   1.116   2.340
  321SOL    HW1 1415   0.338   1.195   2.287
  321SOL    HW2 1416   0.342   1.044   2.277
  322SOL     OW 1417   0.552   0.528   2.720
  322SOL    HW1 1418   0.564   0.588   2.646
  322SOL    HW2 1419   0.618   0.554   2.784
  323SOL     OW 1420   1.247   1.350   2.253
  323SOL    HW1 1421   1.303   1.421   2.285
  323SOL    HW2 1422   1.160   1.371   2.286
  324SOL     OW 1423   1.292   1.461   3.010
  324SOL    HW1 1424   1.346   1.466   3.089
  324SOL    HW2 1425   1.236   1.384   3.025
  325SOL     OW 1426   1.576   0.620   2.345
  325SOL    HW1 1427   1.527   0.667   2.412
  325SOL    HW2 1428   1.622   0.688   2.296
  326SOL     OW 1429   0.354   1.521   3.169
  326SOL    HW1 1430   0.344   1.476   3.085
  326SOL    HW2 1431   0.447   1.539   3.176
  327SOL     OW 1432   0.423   0.738   3.468
  327SOL    HW1 1433   0.481   0.786   3.409
  327SOL    HW2 1434   0.468   0.656   3.485
  328SOL     OW 1435   1.611   0.781   3.549
  328SOL    HW1 1436   1.525   0.823   3.543
  328SOL    HW2 1437   1.663   0.823   3.481
  329SOL     OW 1438   1.062   0.122   3.652
  329SOL    HW1 1439   1.090   0.202   3.608
  329SOL    HW2 1440   1.066   0.054   3.585
  330SOL     OW 1441   0.482   0.066   3.598
  330SOL    HW1 1442   0.415   0.000   3.579
  330SOL    HW2 1443   0.434   0.147   3.609
  331SOL     OW 1444   0.587   0.876   2.897
  331SOL    HW1 1445   0.623   0.965   2.898
  331SOL    HW2 1446   0.529   0.873   2.973
  332SOL     OW 1447   1.344   0.859   2.882
  332SOL    HW1 1448   1.258   0.842   2.844
  332SOL    HW2 1449   1.391   0.776   2.872
  333SOL     OW 1450   1.199   0.525   2.124
  333SOL    HW1 1451   1.207   0.447   2.177
  333SOL    HW2 1452   1.157   0.589   2.182
  334SOL     OW 1453   0.300   0.202   3.109
  334SOL    HW1 1454   0.260   0.236   3.189
  334SOL    HW2 1455   0.287   0.108   3.114
  335SOL     OW 1456   0.049   1.308   3.138
  335SOL    HW1 1457   0.083   1.253   3.208
  335SOL    HW2 1458   5.278   1.358   3.178
  336SOL     OW 1459   0.721   0.631   2.916
  336SOL    HW1 1460   0.797   0.618   2.859
  336SOL    HW2 1461   0.692   0.720   2.897
  337SOL     OW 1462   1.741   0.960   3.722
  337SOL    HW1 1463   1.698   0.892   3.669
  337SOL    HW2 1464   1.679   0.978   3.793
  338SOL     OW 1465   0.327   0.068   2.526
  338SOL    HW1 1466   0.298   0.160   2.526
  338SOL    HW2 1467   0.357   0.053   2.616
  339SOL     OW 1468   1.621   0.384   2.214
  339SOL    HW1 1469   1.649   0.315   2.274
  339SOL    HW2 1470   1.597   0.457   2.270
  340SOL     OW 1471   1.030   0.760   2.820
  340SOL    HW1 1472   1.020   0.776   2.913
  340SOL    HW2 1473   1.003   0.669   2.808
  341SOL     OW 1474   0.981   1.566   3.585
  341SOL    HW1 1475   0.965   1.610   3.501
  341SOL    HW2 1476   1.025   1.484   3.560
  342SOL     OW 1477   1.850   1.500   3.466
  342SOL    HW1 1478   1.872   1.528   3.377
  342SOL    HW2 1479   1.931   1.512   3.516
  343SOL     OW 1480   0.357   0.918   3.669
  343SOL    HW1 1481   0.436   0.938   3.719
  343SOL    HW2 1482   0.385   0.852   3.605
  344SOL     OW 1483   1.520   0.266   1.985
  344SOL    HW1 1484   1.453   0.209   2.022
  344SOL    HW2 1485   1.560   0.309   2.061
  345SOL     OW 1486   1.286   0.825   1.889
  345SOL    HW1 1487   1.328   0.739   1.894
  345SOL    HW2 1488   1.319   0.863   1.808
  346SOL     OW 1489   1.071   1.340   2.720
  346SOL    HW1 1490   1.076   1.268   2.657
  346SOL    HW2 1491   1.127   1.408   2.684
  347SOL     OW 1492   0.311   0.808   2.809
  347SOL    HW1 1493   0.405   0.826   2.807
  347SOL    HW2 1494   0.304   0.718   2.840
  348SOL     OW 1495   0.333   0.530   2.878
  348SOL    HW1 1496   0.296   0.443   2.865
  348SOL    HW2 1497   0.409   0.532   2.819
  349SOL     OW 1498   1.136   0.376   3.555
  349SOL    HW1 1499   1.087   0.431   3.617
  349SOL    HW2 1500   1.222   0.418   3.549
  350SOL     OW 1501   1.130   0.220   3.333
  350SOL    HW1 1502   1.132   0.280   3.407
  350SOL    HW2 1503   1.185   0.261   3.266
  351SOL     OW 1504   0.008   1.322   2.069
  351SOL    HW1 1505   5.238   1.308   2.005
  351SOL    HW2 1506   0.018   1.238   2.114
  352SOL     OW 1507   0.104   1.782   2.824
  352SOL    HW1 1508   0.065   1.718   2.763
  352SOL    HW2 1509   0.189   1.804   2.784
  353SOL     OW 1510   0.503   1.574   2.770
  353SOL    HW1 1511   0.570   1.640   2.789
  353SOL    HW2 1512   0.545   1.514   2.708
  354SOL     OW 1513   0.971   0.787   3.085
  354SOL    HW1 1514   1.031   0.769   3.157
  354SOL    HW2 1515   0.889   0.746   3.111
  355SOL     OW 1516   0.035   0.585   2.989
  355SOL    HW1 1517   0.112   0.552   2.944
  355SOL    HW2 1518   0.033   0.537   3.072
  356SOL     OW 1519   0.158   0.525   3.592
  356SOL    HW1 1520   0.244   0.498   3.561
  356SOL    HW2 1521   0.137   0.602   3.539
  357SOL     OW 1522   1.382   0.932   3.518
  357SOL    HW1 1523   1.403   1.025   3.514
  357SOL    HW2 1524   1.377   0.904   3.427
  358SOL     OW 1525   0.814   0.577   2.233
  358SOL    HW1 1526   0.823   0.505   2.172
  358SOL    HW2 1527   0.738   0.627   2.201
  359SOL     OW 1528   1.640   0.601   3.041
  359SOL    HW1 1529   1.630   0.542   3.115
  359SOL    HW2 1530   1.728   0.583   3.008
  360SOL     OW 1531   0.254   1.553   3.594
  360SOL    HW1 1532   0.235   1.618   3.662
  360SOL    HW2 1533   0.253   1.469   3.639
  361SOL     OW 1534   0.715   0.446   3.114
  361SOL    HW1 1535   0.658   0.375   3.085
  361SOL    HW2 1536   0.707   0.512   3.044
  362SOL     OW 1537   0.922   1.678   3.334
  362SOL    HW1 1538   0.898   1.638   3.251
  362SOL    HW2 1539   0.916   1.772   3.318
  363SOL     OW 1540   0.461   0.490   2.031
  363SOL    HW1 1541   0.524   0.555   2.060
  363SOL    HW2 1542   0.379   0.538   2.021
  364SOL     OW 1543   0.145   1.137   3.331
  364SOL    HW1 1544   0.141   1.093   3.415
  364SOL    HW2 1545   0.153   1.066   3.267
  365SOL     OW 1546   1.319   1.043   3.081
  365SOL    HW1 1547   1.340   0.979   3.012
  365SOL    HW2 1548   1.254   1.101   3.041
  366SOL     OW 1549   1.317   0.857   2.165
  366SOL    HW1 1550   1.243   0.824   2.217
  366SOL    HW2 1551   1.290   0.843   2.074
  367SOL     OW 1552   1.783   1.732   3.022
  367SOL    HW1 1553   1.841   1.759   2.951
  367SOL    HW2 1554   1.753   1.644   2.996
  368SOL     OW 1555   1.239   1.732   2.966
  368SOL    HW1 1556   1.322   1.757   2.925
  368SOL    HW2 1557   1.250   1.639   2.987
  369SOL     OW 1558   0.080   1.200   2.889
  369SOL    HW1 1559   0.065   1.230   2.978
  369SOL    HW2 1560   5.292   1.193   2.850
  370SOL     OW 1561   0.679   1.673   3.602
  370SOL    HW1 1562   0.618   1.745   3.592
  370SOL    HW2 1563   0.747   1.689   3.536
  371SOL     OW 1564   1.708   0.156   2.354
  371SOL    HW1 1565   1.784   0.137   2.299
  371SOL    HW2 1566   1.706   0.085   2.418
  372SOL     OW 1567   1.394   1.568   2.354
  372SOL    HW1 1568   1.451   1.602   2.286
  372SOL    HW2 1569   1.342   1.644   2.382
  373SOL     OW 1570   0.151   1.796   3.705
  373SOL    HW1 1571   0.097   1.735   3.754
  373SOL    HW2 1572   0.204   1.840   3.772
  374SOL     OW 1573   1.278   0.929   2.533
  374SOL    HW1 1574   1.352   0.869   2.543
  374SOL    HW2 1575   1.312   1.000   2.479
  375SOL     OW 1576   0.803   1.277   3.285
  375SOL    HW1 1577   0.775   1.319   3.366
  375SOL    HW2 1578   0.732   1.293   3.223
  376SOL     OW 1579   0.672   1.626   2.016
  376SOL    HW1 1580   0.684   1.641   1.923
  376SOL    HW2 1581   0.616   1.548   2.021
  377SOL     OW 1582   1.619   1.727   3.254
  377SOL    HW1 1583   1.673   1.732   3.175
  377SOL    HW2 1584   1.605   1.819   3.279
  378SOL     OW 1585   1.848   0.145   2.817
  378SOL    HW1 1586   1.834   0.051   2.832
  378SOL    HW2 1587   1.764   0.176   2.783
  379SOL     OW 1588   0.268   0.331   2.578
  379SOL    HW1 1589   0.180   0.366   2.568
  379SOL    HW2 1590   0.279   0.317   2.672
  380SOL     OW 1591   1.208   1.600   1.895
  380SOL    HW1 1592   1.197   1.509   1.922
  380SOL    HW2 1593   1.142   1.614   1.828
  381SOL     OW 1594   0.824   1.007   3.238
  381SOL    HW1 1595   0.867   1.000   3.153
  381SOL    HW2 1596   0.820   1.101   3.255
  382SOL     OW 1597   0.916   0.910   2.154
  382SOL    HW1 1598   0.976   0.943   2.087
  382SOL    HW2 1599   0.966   0.842   2.200
  383SOL     OW 1600   1.488   1.630   1.908
  383SOL    HW1 1601   1.394   1.619   1.892
  383SOL    HW2 1602   1.527   1.635   1.821
  384SOL     OW 1603   0.366   1.305   3.356
  384SOL    HW1 1604   0.359   1.378   3.295
  384SOL    HW2 1605   0.291   1.249   3.336
  385SOL     OW 1606   1.607   1.285   3.141
  385SOL    HW1 1607   1.665   1.267   3.215
  385SOL    HW2 1608   1.547   1.352   3.174
  386SOL     OW 1609   1.063   1.111   2.574
  386SOL    HW1 1610   0.990   1.061   2.610
  386SOL    HW2 1611   1.127   1.045   2.548
  387SOL     OW 1612   1.017   0.247   2.836
  387SOL    HW1 1613   0.998   0.202   2.753
  387SOL    HW2 1614   1.012   0.178   2.902
  388SOL     OW 1615   0.604   1.488   2.341
  388SOL    HW1 1616   0.654   1.437   2.277
  388SOL    HW2 1617   0.534   1.529   2.290
  389SOL     OW 1618   1.732   0.384   3.239
  389SOL    HW1 1619   1.803   0.448   3.238
  389SOL    HW2 1620   1.760   0.315   3.180
  390SOL     OW 1621   0.264   1.349   2.163
  390SOL    HW1 1622   0.172   1.347   2.137
  390SOL    HW2 1623   0.263   1.388   2.250
  391SOL     OW 1624   0.122   1.017   3.577
  391SOL    HW1 1625   0.051   0.983   3.632
  391SOL    HW2 1626   0.202   0.987   3.619
  392SOL     OW 1627   0.681   0.225   3.359
  392SOL    HW1 1628   0.763   0.210   3.312
  392SOL    HW2 1629   0.708   0.267   3.441
  393SOL     OW 1630   0.079   0.324   1.895
  393SOL    HW1 1631   5.284   0.316   1.902
  393SOL    HW2 1632   0.093   0.401   1.840
  394SOL     OW 1633   1.424   0.857   3.258
  394SOL    HW1 1634   1.374   0.918   3.204
  394SOL    HW2 1635   1.513   0.859   3.222
  395SOL     OW 1636   0.089   0.148   2.150
  395SOL    HW1 1637   0.083   0.240   2.125
  395SOL    HW2 1638   0.176   0.120   2.120
  396SOL     OW 1639   1.178   1.333   1.980
  396SOL    HW1 1640   1.087   1.304   1.981
  396SOL    HW2 1641   1.204   1.335   2.072
  397SOL     OW 1642   0.621   0.832   3.300
  397SOL    HW1 1643   0.678   0.908   3.284
  397SOL    HW2 1644   0.681   0.758   3.304
  398SOL     OW 1645   1.483   1.786   2.845
  398SOL    HW1 1646   1.504   1.853   2.780
  398SOL    HW2 1647   1.567   1.757   2.879
  399SOL     OW 1648   0.712   0.573   3.560
  399SOL    HW1 1649   0.759   0.634   3.617
  399SOL    HW2 1650   0.736   0.487   3.593
  400SOL     OW 1651   1.474   1.193   3.490
  400SOL    HW1 1652   1.462   1.209   3.584
  400SOL    HW2 1653   1.566   1.213   3.473
  401SOL     OW 1654   0.369   1.747   3.428
  401SOL    HW1 1655   0.287   1.792   3.409
  401SOL    HW2 1656   0.342   1.666   3.472
  402SOL     OW 1657   1.663   0.879   3.117
  402SOL    HW1 1658   1.660   0.794   3.073
  402SOL    HW2 1659   1.653   0.943   3.046
  403SOL     OW 1660   1.222   0.318   2.323
  403SOL    HW1 1661   1.283   0.244   2.318
  403SOL    HW2 1662   1.251   0.369   2.398
  404SOL     OW 1663   0.584   0.733   2.535
  404SOL    HW1 1664   0.625   0.819   2.520
  404SOL    HW2 1665   0.517   0.726   2.467
  405SOL     OW 1666   1.763   0.362   3.512
  405SOL    HW1 1667   1.746   0.378   3.419
  405SOL    HW2 1668   1.689   0.308   3.540
  406SOL     OW 1669   1.750   0.933   3.372
  406SOL    HW1 1670   1.737   1.027   3.385
  406SOL    HW2 1671   1.731   0.919   3.280
  407SOL     OW 1672   0.865   1.364   1.906
  407SOL    HW1 1673   0.827   1.393   1.989
  407SOL    HW2 1674   0.880   1.445   1.858
  408SOL     OW 1675   0.668   1.787   2.797
  408SOL    HW1 1676   0.649   1.879   2.778
  408SOL    HW2 1677   0.764   1.782   2.792
  409SOL     OW 1678   0.870   0.971   2.714
  409SOL    HW1 1679   0.920   0.898   2.752
  409SOL    HW2 1680   0.831   1.014   2.790
  410SOL     OW 1681   1.074   0.986   1.950
  410SOL    HW1 1682   1.055   1.040   1.873
  410SOL    HW2 1683   1.149   0.933   1.924
  411SOL     OW 1684   1.845   1.553   2.703
  411SOL    HW1 1685   1.766   1.542   2.650
  411SOL    HW2 1686   1.837   1.489   2.774
  412SOL     OW 1687   0.231   1.301   3.726
  412SOL    HW1 1688   0.164   1.239   3.698
  412SOL    HW2 1689   0.217   1.312   3.820
  413SOL     OW 1690   0.095   1.199   2.509
  413SOL    HW1 1691   0.119   1.179   2.600
  413SOL    HW2 1692   0.171   1.244   2.473
  414SOL     OW 1693   0.686   1.408   3.494
  414SOL    HW1 1694   0.606   1.367   3.526
  414SOL    HW2 1695   0.683   1.497   3.530
  415SOL     OW 1696   1.803   0.172   3.089
  415SOL    HW1 1697   1.765   0.084   3.084
  415SOL    HW2 1698   1.834   0.190   3.000
  416SOL     OW 1699   0.437   0.437   2.385
  416SOL    HW1 1700   0.469   0.362   2.335
  416SOL    HW2 1701   0.387   0.398   2.457
  417SOL     OW 1702   1.696   1.484   2.952
  417SOL    HW1 1703   1.618   1.465   2.901
  417SOL    HW2 1704   1.699   1.414   3.018
  418SOL     OW 1705   0.344   0.569   3.151
  418SOL    HW1 1706   0.399   0.508   3.201
  418SOL    HW2 1707   0.354   0.541   3.060
  419SOL     OW 1708   0.835   1.579   2.536
  419SOL    HW1 1709   0.812   1.646   2.472
  419SOL    HW2 1710   0.759   1.520   2.537
  420SOL     OW 1711   1.425   0.223   2.978
  420SOL    HW1 1712   1.460   0.146   3.024
  420SOL    HW2 1713   1.376   0.271   3.044
  421SOL     OW 1714   1.001   0.017   2.995
  421SOL    HW1 1715   0.949   5.251   2.949
  421SOL    HW2 1716   1.085   5.274   3.012
  422SOL     OW 1717   0.774   1.333   2.185
  422SOL    HW1 1718   0.748   1.242   2.193
  422SOL    HW2 1719   0.856   1.340   2.234
  423SOL     OW 1720   0.625   1.556   3.153
  423SOL    HW1 1721   0.624   1.638   3.202
  423SOL    HW2 1722   0.712   1.552   3.114
  424SOL     OW 1723   1.354   0.027   2.031
  424SOL    HW1 1724   1.411   5.292   1.963
  424SOL    HW2 1725   1.280   5.267   2.033
  425SOL     OW 1726   1.300   0.465   2.542
  425SOL    HW1 1727   1.247   0.545   2.545
  425SOL    HW2 1728   1.292   0.428   2.630
  426SOL     OW 1729   1.596   0.214   2.749
  426SOL    HW1 1730   1.533   0.227   2.819
  426SOL    HW2 1731   1.589   0.293   2.695
  427SOL     OW 1732   0.049   1.065   2.151
  427SOL    HW1 1733   0.137   1.029   2.143
  427SOL    HW2 1734   5.298   0.996   2.194
  428SOL     OW 1735   0.891   1.660   2.198
  428SOL    HW1 1736   0.816   1.646   2.141
  428SOL    HW2 1737   0.865   1.733   2.255
  429SOL     OW 1738   0.229   0.629   3.848
  429SOL    HW1 1739   0.162   0.592   3.906
  429SOL    HW2 1740   0.200   0.607   3.760
  430SOL     OW 1741   0.234   0.283   4.713
  430SOL    HW1 1742   0.252   0.242   4.798
  430SOL    HW2 1743   0.152   0.242   4.684
  431SOL     OW 1744   5.296   0.407   4.395
  431SOL    HW1 1745   5.204   0.432   4.395
  431SOL    HW2 1746   5.297   0.318   4.359
  432SOL     OW 1747   0.581   1.296   4.920
  432SOL    HW1 1748   0.500   1.301   4.870
  432SOL    HW2 1749   0.596   1.385   4.952
  433SOL     OW 1750   1.573   1.515   4.433
  433SOL    HW1 1751   1.529   1.491   4.515
  433SOL    HW2 1752   1.503   1.519   4.368
  434SOL     OW 1753   1.135   0.698   4.419
  434SOL    HW1 1754   1.182   0.781   4.407
  434SOL    HW2 1755   1.086   0.710   4.500
  435SOL     OW 1756   1.778   0.598   3.948
  435SOL    HW1 1757   1.751   0.593   3.856
  435SOL    HW2 1758   1.738   0.522   3.989
  436SOL     OW 1759   0.744   1.134   4.770
  436SOL    HW1 1760   0.683   1.172   4.833
  436SOL    HW2 1761   0.783   1.210   4.726
  437SOL     OW 1762   0.874   0.767   5.549
  437SOL    HW1 1763   0.869   0.837   5.613
  437SOL    HW2 1764   0.897   0.811   5.467
  438SOL     OW 1765   0.685   0.995   4.368
  438SOL    HW1 1766   0.752   0.988   4.435
  438SOL    HW2 1767   0.618   1.052   4.406
  439SOL     OW 1768   0.713   1.149   5.545
  439SOL    HW1 1769   0.762   1.226   5.576
  439SOL    HW2 1770   0.635   1.186   5.504
  440SOL     OW 1771   0.360   1.402   4.786
  440SOL    HW1 1772   0.269   1.405   4.756
  440SOL    HW2 1773   0.407   1.462   4.729
  441SOL     OW 1774   1.459   1.503   5.086
  441SOL    HW1 1775   1.513   1.581   5.096
  441SOL    HW2 1776   1.390   1.513   5.152
  442SOL     OW 1777   0.459   0.395   5.193
  442SOL    HW1 1778   0.539   0.343   5.199
  442SOL    HW2 1779   0.389   0.333   5.214
  443SOL     OW 1780   1.603   0.449   4.465
  443SOL    HW1 1781   1.528   0.465   4.407
  443SOL    HW2 1782   1.609   0.529   4.518
  444SOL     OW 1783   0.243   1.712   4.200
  444SOL    HW1 1784   0.267   1.785   4.257
  444SOL    HW2 1785   0.307   1.715   4.129
  445SOL     OW 1786   1.138   1.343   5.419
  445SOL    HW1 1787   1.180   1.335   5.504
  445SOL    HW2 1788   1.086   1.263   5.410
  446SOL     OW 1789   0.214   1.451   4.271
  446SOL    HW1 1790   0.229   1.543   4.250
  446SOL    HW2 1791   0.142   1.452   4.334
  447SOL     OW 1792   0.257   1.075   4.594
  447SOL    HW1 1793   0.267   0.986   4.629
  447SOL    HW2 1794   0.202   1.120   4.658
  448SOL     OW 1795   0.604   1.791   5.155
  448SOL    HW1 1796   0.521   1.775   5.198
  448SOL    HW2 1797   0.627   1.881   5.180
  449SOL     OW 1798   0.574   0.987   3.865
  449SOL    HW1 1799   0.624   1.031   3.796
  449SOL    HW2 1800   0.614   1.017   3.947
  450SOL     OW 1801   1.587   0.140   5.178
  450SOL    HW1 1802   1.623   0.220   5.138
  450SOL    HW2 1803   1.574   0.163   5.270
  451SOL     OW 1804   0.121   0.630   4.298
  451SOL    HW1 1805   0.088   0.551   4.340
  451SOL    HW2 1806   0.097   0.701   4.357
  452SOL     OW 1807   1.844   1.750   4.053
  452SOL    HW1 1808   1.912   1.727   4.116
  452SOL    HW2 1809   1.860   1.842   4.032
  453SOL     OW 1810   0.039   1.600   3.861
  453SOL    HW1 1811   0.028   1.509   3.886
  453SOL    HW2 1812   5.272   1.647   3.910
  454SOL     OW 1813   1.691   0.920   4.370
  454SOL    HW1 1814   1.771   0.874   4.346
  454SOL    HW2 1815   1.668   0.971   4.293
  455SOL     OW 1816   1.651   1.102   4.154
  455SOL    HW1 1817   1.737   1.102   4.113
  455SOL    HW2 1818   1.658   1.166   4.225
  456SOL     OW 1819   0.138   0.752   5.306
  456SOL    HW1 1820   0.233   0.764   5.301
  456SOL    HW2 1821   0.104   0.839   5.324
  457SOL     OW 1822   0.620   1.391   4.457
  457SOL    HW1 1823   0.573   1.308   4.467
  457SOL    HW2 1824   0.602   1.419   4.367
  458SOL     OW 1825   1.284   1.235   5.145
  458SOL    HW1 1826   1.314   1.167   5.085
  458SOL    HW2 1827   1.344   1.230   5.219
  459SOL     OW 1828   0.823   0.040   4.262
  459SOL    HW1 1829   0.851   0.126   4.231
  459SOL    HW2 1830   0.728   0.040   4.251
  460SOL     OW 1831   0.165   0.936   5.007
  460SOL    HW1 1832   0.256   0.906   5.000
  460SOL    HW2 1833   0.131   0.929   4.918
  461SOL     OW 1834   1.531   1.000   3.925
  461SOL    HW1 1835   1.462   0.943   3.957
  461SOL    HW2 1836   1.574   1.033   4.003
  462SOL     OW 1837   1.182   1.814   5.351
  462SOL    HW1 1838   1.188   1.876   5.278
  462SOL    HW2 1839   1.201   1.729   5.312
  463SOL     OW 1840   0.339   0.296   5.519
  463SOL    HW1 1841   0.395   0.344   5.580
  463SOL    HW2 1842   0.258   0.279   5.568
  464SOL     OW 1843   1.468   1.419   4.670
  464SOL    HW1 1844   1.402   1.435   4.737
  464SOL    HW2 1845   1.454   1.328   4.644
  465SOL     OW 1846   1.655   1.754   4.299
  465SOL    HW1 1847   1.633   1.720   4.212
  465SOL    HW2 1848   1.636   1.682   4.359
  466SOL     OW 1849   0.589   0.715   3.995
  466SOL    HW1 1850   0.597   0.799   3.950
  466SOL    HW2 1851   0.524   0.730   4.064
  467SOL     OW 1852   1.276   0.359   4.657
  467SOL    HW1 1853   1.186   0.329   4.669
  467SOL    HW2 1854   1.327   0.307   4.717
  468SOL     OW 1855   1.577   1.673   4.035
  468SOL    HW1 1856   1.670   1.697   4.026
  468SOL    HW2 1857   1.548   1.657   3.945
  469SOL     OW 1858   0.793   0.619   5.169
  469SOL    HW1 1859   0.765   0.596   5.257
  469SOL    HW2 1860   0.758   0.550   5.113
  470SOL     OW 1861   1.394   0.477   5.402
  470SOL    HW1 1862   1.398   0.522   5.487
  470SOL    HW2 1863   1.455   0.404   5.410
  471SOL     OW 1864   0.949   0.885   5.310
  471SOL    HW1 1865   1.005   0.818   5.271
  471SOL    HW2 1866   0.901   0.922   5.237
  472SOL     OW 1867   0.995   0.415   4.951
  472SOL    HW1 1868   0.905   0.431   4.980
  472SOL    HW2 1869   0.986   0.370   4.867
  473SOL     OW 1870   1.055   0.697   4.149
  473SOL    HW1 1871   1.073   0.691   4.242
  473SOL    HW2 1872   0.970   0.654   4.138
  474SOL     OW 1873   0.064   0.794   4.531
  474SOL    HW1 1874   0.144   0.796   4.584
  474SOL    HW2 1875   0.075   0.865   4.467
  475SOL     OW 1876   0.121   1.888   5.312
  475SOL    HW1 1877   0.131   1.865   5.405
  475SOL    HW2 1878   0.056   1.826   5.279
  476SOL     OW 1879   0.881   0.376   3.918
  476SOL    HW1 1880   0.917   0.432   3.849
  476SOL    HW2 1881   0.935   0.296   3.915
  477SOL     OW 1882   1.700   0.567   5.553
  477SOL    HW1 1883   1.667   0.642   5.504
  477SOL    HW2 1884   1.735   0.508   5.487
  478SOL     OW 1885   1.382   1.142   4.263
  478SOL    HW1 1886   1.461   1.131   4.210
  478SOL    HW2 1887   1.328   1.204   4.214
  479SOL     OW 1888   0.529   0.209   4.602
  479SOL    HW1 1889   0.546   0.223   4.695
  479SOL    HW2 1890   0.545   0.295   4.562
  480SOL     OW 1891   0.998   1.443   4.192
  480SOL    HW1 1892   0.969   1.519   4.141
  480SOL    HW2 1893   0.974   1.464   4.282
  481SOL     OW 1894   0.361   1.809   4.596
  481SOL    HW1 1895   0.400   1.723   4.609
  481SOL    HW2 1896   0.426   1.871   4.630
  482SOL     OW 1897   1.802   1.052   4.596
  482SOL    HW1 1898   1.750   1.031   4.519
  482SOL    HW2 1899   1.737   1.058   4.667
  483SOL     OW 1900   1.226   1.541   5.237
  483SOL    HW1 1901   1.215   1.468   5.299
  483SOL    HW2 1902   1.158   1.528   5.172
  484SOL     OW 1903   0.311   0.951   3.977
  484SOL    HW1 1904   0.392   0.975   3.932
  484SOL    HW2 1905   0.291   0.863   3.945
  485SOL     OW 1906   1.483   0.751   4.445
  485SOL    HW1 1907   1.479   0.713   4.533
  485SOL    HW2 1908   1.561   0.807   4.447
  486SOL     OW 1909   0.470   1.269   5.462
  486SOL    HW1 1910   0.443   1.274   5.370
  486SOL    HW2 1911   0.388   1.268   5.511
  487SOL     OW 1912   1.126   1.777   3.952
  487SOL    HW1 1913   1.050   1.739   3.995
  487SOL    HW2 1914   1.150   1.714   3.885
  488SOL     OW 1915   0.196   0.283   5.223
  488SOL    HW1 1916   0.163   0.371   5.208
  488SOL    HW2 1917   0.213   0.280   5.317
  489SOL     OW 1918   1.629   1.383   3.816
  489SOL    HW1 1919   1.587   1.468   3.801
  489SOL    HW2 1920   1.562   1.319   3.794
  490SOL     OW 1921   0.472   1.735   4.040
  490SOL    HW1 1922   0.518   1.791   4.103
  490SOL    HW2 1923   0.541   1.701   3.984
  491SOL     OW 1924   1.409   0.106   4.156
  491SOL    HW1 1925   1.402   0.077   4.065
  491SOL    HW2 1926   1.503   0.120   4.169
  492SOL     OW 1927   0.276   1.800   4.924
  492SOL    HW1 1928   0.306   1.716   4.961
  492SOL    HW2 1929   0.218   1.775   4.852
  493SOL     OW 1930   0.942   1.700   4.619
  493SOL    HW1 1931   1.022   1.652   4.642
  493SOL    HW2 1932   0.901   1.649   4.550
  494SOL     OW 1933   0.384   0.694   4.201
  494SOL    HW1 1934   0.414   0.604   4.211
  494SOL    HW2 1935   0.291   0.692   4.223
  495SOL     OW 1936   1.530   0.228   5.443
  495SOL    HW1 1937   1.539   0.243   5.537
  495SOL    HW2 1938   1.453   0.172   5.435
  496SOL     OW 1939   0.624   0.130   3.831
  496SOL    HW1 1940   0.672   0.053   3.863
  496SOL    HW2 1941   0.573   0.096   3.757
  497SOL     OW 1942   0.775   0.311   5.494
  497SOL    HW1 1943   0.840   0.242   5.493
  497SOL    HW2 1944   0.729   0.301   5.577
  498SOL     OW 1945   0.878   1.524   4.918
  498SOL    HW1 1946   0.859   1.485   4.832
  498SOL    HW2 1947   0.946   1.469   4.955
  499SOL     OW 1948   1.338   0.590   5.157
  499SOL    HW1 1949   1.369   0.560   5.242
  499SOL    HW2 1950   1.375   0.678   5.147
  500SOL     OW 1951   0.820   1.386   4.671
  500SOL    HW1 1952   0.905   1.376   4.629
  500SOL    HW2 1953   0.758   1.395   4.599
  501SOL     OW 1954   0.929   0.513   4.625
  501SOL    HW1 1955   0.903   0.504   4.533
  501SOL    HW2 1956   0.956   0.424   4.651
  502SOL     OW 1957   0.552   0.058   4.228
  502SOL    HW1 1958   0.475   0.058   4.284
  502SOL    HW2 1959   0.535   0.126   4.163
  503SOL     OW 1960   1.429   1.202   3.762
  503SOL    HW1 1961   1.458   1.127   3.814
  503SOL    HW2 1962   1.343   1.225   3.799
  504SOL     OW 1963   0.324   0.075   3.909
  504SOL    HW1 1964   0.394   0.138   3.925
  504SOL    HW2 1965   0.370   5.293   3.892
  505SOL     OW 1966   0.943   0.275   4.186
  505SOL    HW1 1967   0.916   0.304   4.099
  505SOL    HW2 1968   1.038   0.282   4.186
  506SOL     OW 1969   1.081   0.687   5.180
  506SOL    HW1 1970   1.016   0.617   5.183
  506SOL    HW2 1971   1.165   0.641   5.174
  507SOL     OW 1972   1.218   1.573   4.519
  507SOL    HW1 1973   1.232   1.638   4.450
  507SOL    HW2 1974   1.288   1.591   4.583
  508SOL     OW 1975   0.472   1.155   4.446
  508SOL    HW1 1976   0.404   1.131   4.509
  508SOL    HW2 1977   0.431   1.141   4.360
  509SOL     OW 1978   1.263   1.792   4.337
  509SOL    HW1 1979   1.311   1.854   4.283
  509SOL    HW2 1980   1.193   1.844   4.377
  510SOL     OW 1981   1.025   0.541   3.748
  510SOL    HW1 1982   0.982   0.625   3.731
  510SOL    HW2 1983   1.087   0.559   3.819
  511SOL     OW 1984   0.110   0.528   5.141
  511SOL    HW1 1985   0.188   0.549   5.090
  511SOL    HW2 1986   0.087   0.610   5.185
  512SOL     OW 1987   0.558   0.239   4.882
  512SOL    HW1 1988   0.592   0.155   4.912
  512SOL    HW2 1989   0.466   0.238   4.909
  513SOL     OW 1990   0.863   0.469   4.366
  513SOL    HW1 1991   0.817   0.523   4.302
  513SOL    HW2 1992   0.890   0.392   4.317
  514SOL     OW 1993   0.982   0.063   4.493
  514SOL    HW1 1994   0.919   0.066   4.420
  514SOL    HW2 1995   0.991   5.270   4.513
  515SOL     OW 1996   1.440   1.159   4.580
  515SOL    HW1 1997   1.368   1.096   4.582
  515SOL    HW2 1998   1.463   1.167   4.488
  516SOL     OW 1999   1.465   0.613   4.691
  516SOL    HW1 2000   1.410   0.535   4.694
  516SOL    HW2 2001   1.523   0.604   4.767
  517SOL     OW 2002   1.838   0.810   4.109
  517SOL    HW1 2003   1.897   0.762   4.167
  517SOL    HW2 2004   1.815   0.747   4.041
  518SOL     OW 2005   0.491   1.424   3.877
  518SOL    HW1 2006   0.416   1.396   3.929
  518SOL    HW2 2007   0.485   1.372   3.796
  519SOL     OW 2008   1.679   1.265   4.364
  519SOL    HW1 2009   1.774   1.265   4.380
  519SOL    HW2 2010   1.652   1.354   4.387
  520SOL     OW 2011   1.393   0.574   3.795
  520SOL    HW1 2012   1.331   0.552   3.865
  520SOL    HW2 2013   1.478   0.548   3.829
  521SOL     OW 2014   0.516   0.263   4.039
  521SOL    HW1 2015   0.574   0.222   3.975
  521SOL    HW2 2016   0.494   0.348   4.000
  522SOL     OW 2017   1.748   1.243   5.283
  522SOL    HW1 2018   1.835   1.205   5.276
  522SOL    HW2 2019   1.763   1.332   5.314
  523SOL     OW 2020   1.054   1.353   5.055
  523SOL    HW1 2021   0.978   1.322   5.104
  523SOL    HW2 2022   1.129   1.311   5.097
  524SOL     OW 2023   1.609   1.628   5.383
  524SOL    HW1 2024   1.600   1.662   5.294
  524SOL    HW2 2025   1.691   1.578   5.382
  525SOL     OW 2026   1.136   1.212   4.826
  525SOL    HW1 2027   1.076   1.249   4.889
  525SOL    HW2 2028   1.107   1.247   4.741
  526SOL     OW 2029   1.622   1.095   4.799
  526SOL    HW1 2030   1.615   1.158   4.870
  526SOL    HW2 2031   1.547   1.114   4.743
  527SOL     OW 2032   0.904   0.111   5.102
  527SOL    HW1 2033   0.936   0.077   5.018
  527SOL    HW2 2034   0.981   0.152   5.142
  528SOL     OW 2035   0.984   1.116   5.447
  528SOL    HW1 2036   0.893   1.133   5.471
  528SOL    HW2 2037   0.981   1.037   5.392
  529SOL     OW 2038   0.709   1.062   4.095
  529SOL    HW1 2039   0.696   1.042   4.188
  529SOL    HW2 2040   0.785   1.008   4.070
  530SOL     OW 2041   0.420   0.829   4.981
  530SOL    HW1 2042   0.490   0.836   5.046
  530SOL    HW2 2043   0.389   0.739   4.988
  531SOL     OW 2044   1.263   0.376   5.003
  531SOL    HW1 2045   1.297   0.453   5.048
  531SOL    HW2 2046   1.173   0.399   4.979
  532SOL     OW 2047   0.104   1.617   5.086
  532SOL    HW1 2048   0.083   1.623   4.993
  532SOL    HW2 2049   0.193   1.583   5.089
  533SOL     OW 2050   0.345   1.116   4.202
  533SOL    HW1 2051   0.338   1.195   4.149
  533SOL    HW2 2052   0.342   1.044   4.139
  534SOL     OW 2053   0.552   0.527   4.582
  534SOL    HW1 2054   0.564   0.588   4.508
  534SOL    HW2 2055   0.618   0.554   4.646
  535SOL     OW 2056   1.247   1.350   4.115
  535SOL    HW1 2057   1.303   1.421   4.147
  535SOL    HW2 2058   1.160   1.371   4.148
  536SOL     OW 2059   1.292   1.461   4.872
  536SOL    HW1 2060   1.346   1.467   4.951
  536SOL    HW2 2061   1.236   1.385   4.888
  537SOL     OW 2062   1.576   0.620   4.207
  537SOL    HW1 2063   1.527   0.667   4.275
  537SOL    HW2 2064   1.621   0.689   4.158
  538SOL     OW 2065   0.354   1.521   5.031
  538SOL    HW1 2066   0.344   1.475   4.947
  538SOL    HW2 2067   0.447   1.539   5.038
  539SOL     OW 2068   0.423   0.738   5.330
  539SOL    HW1 2069   0.481   0.786   5.271
  539SOL    HW2 2070   0.468   0.656   5.347
  540SOL     OW 2071   1.610   0.781   5.411
  540SOL    HW1 2072   1.524   0.823   5.406
  540SOL    HW2 2073   1.662   0.823   5.343
  541SOL     OW 2074   1.061   0.123   5.514
  541SOL    HW1 2075   1.090   0.202   5.470
  541SOL    HW2 2076   1.066   0.055   5.447
  542SOL     OW 2077   0.482   0.066   5.460
  542SOL    HW1 2078   0.415   0.000   5.441
  542SOL    HW2 2079   0.434   0.147   5.471
  543SOL     OW 2080   0.587   0.876   4.759
  543SOL    HW1 2081   0.623   0.965   4.760
  543SOL    HW2 2082   0.529   0.873   4.835
  544SOL     OW 2083   1.344   0.859   4.743
  544SOL    HW1 2084   1.258   0.842   4.706
  544SOL    HW2 2085   1.391   0.776   4.733
  545SOL     OW 2086   1.199   0.526   3.986
  545SOL    HW1 2087   1.207   0.447   4.039
  545SOL    HW2 2088   1.157   0.589   4.044
  546SOL     OW 2089   0.300   0.202   4.971
  546SOL    HW1 2090   0.260   0.236   5.051
  546SOL    HW2 2091   0.287   0.107   4.976
  547SOL     OW 2092   0.049   1.308   5.000
  547SOL    HW1 2093   0.083   1.253   5.070
  547SOL    HW2 2094   5.278   1.358   5.040
  548SOL     OW 2095   0.721   0.631   4.778
  548SOL    HW1 2096   0.797   0.618   4.721
  548SOL    HW2 2097   0.692   0.720   4.759
  549SOL     OW 2098   1.741   0.959   5.584
  549SOL    HW1 2099   1.697   0.892   5.532
  549SOL    HW2 2100   1.679   0.978   5.655
  550SOL     OW 2101   0.327   0.068   4.388
  550SOL    HW1 2102   0.298   0.160   4.388
  550SOL    HW2 2103   0.357   0.053   4.478
  551SOL     OW 2104   1.621   0.384   4.076
  551SOL    HW1 2105   1.649   0.315   4.136
  551SOL    HW2 2106   1.597   0.457   4.132
  552SOL     OW 2107   1.031   0.759   4.682
  552SOL    HW1 2108   1.020   0.776   4.776
  552SOL    HW2 2109   1.003   0.669   4.670
  553SOL     OW 2110   0.980   1.565   5.447
  553SOL    HW1 2111   0.965   1.610   5.363
  553SOL    HW2 2112   1.025   1.484   5.423
  554SOL     OW 2113   1.849   1.500   5.328
  554SOL    HW1 2114   1.872   1.528   5.239
  554SOL    HW2 2115   1.930   1.514   5.378
  555SOL     OW 2116   0.357   0.918   5.531
  555SOL    HW1 2117   0.436   0.938   5.581
  555SOL    HW2 2118   0.385   0.852   5.467
  556SOL     OW 2119   1.520   0.266   3.847
  556SOL    HW1 2120   1.452   0.209   3.885
  556SOL    HW2 2121   1.560   0.309   3.923
  557SOL     OW 2122   1.286   0.825   3.751
  557SOL    HW1 2123   1.328   0.739   3.756
  557SOL    HW2 2124   1.319   0.863   3.670
  558SOL     OW 2125   1.071   1.340   4.582
  558SOL    HW1 2126   1.076   1.268   4.519
  558SOL    HW2 2127   1.128   1.408   4.546
  559SOL     OW 2128   0.311   0.808   4.671
  559SOL    HW1 2129   0.405   0.826   4.670
  559SOL    HW2 2130   0.304   0.718   4.702
  560SOL     OW 2131   0.333   0.530   4.739
  560SOL    HW1 2132   0.296   0.443   4.727
  560SOL    HW2 2133   0.409   0.532   4.681
  561SOL     OW 2134   1.136   0.376   5.417
  561SOL    HW1 2135   1.087   0.431   5.479
  561SOL    HW2 2136   1.222   0.418   5.411
  562SOL     OW 2137   1.130   0.220   5.195
  562SOL    HW1 2138   1.132   0.281   5.269
  562SOL    HW2 2139   1.186   0.261   5.128
  563SOL     OW 2140   0.008   1.322   3.931
  563SOL    HW1 2141   5.238   1.308   3.867
  563SOL    HW2 2142   0.018   1.238   3.975
  564SOL     OW 2143   0.104   1.782   4.685
  564SOL    HW1 2144   0.066   1.718   4.625
  564SOL    HW2 2145   0.189   1.804   4.646
  565SOL     OW 2146   0.503   1.574   4.632
  565SOL    HW1 2147   0.570   1.640   4.651
  565SOL    HW2 2148   0.545   1.514   4.570
  566SOL     OW 2149   0.971   0.787   4.947
  566SOL    HW1 2150   1.031   0.770   5.019
  566SOL    HW2 2151   0.889   0.747   4.973
  567SOL     OW 2152   0.035   0.585   4.851
  567SOL    HW1 2153   0.112   0.552   4.806
  567SOL    HW2 2154   0.033   0.537   4.934
  568SOL     OW 2155   0.158   0.525   5.454
  568SOL    HW1 2156   0.244   0.498   5.423
  568SOL    HW2 2157   0.137   0.602   5.401
  569SOL     OW 2158   1.382   0.932   5.380
  569SOL    HW1 2159   1.403   1.025   5.377
  569SOL    HW2 2160   1.377   0.904   5.289
  570SOL     OW 2161   0.814   0.577   4.095
  570SOL    HW1 2162   0.823   0.505   4.034
  570SOL    HW2 2163   0.738   0.627   4.063
  571SOL     OW 2164   1.640   0.601   4.902
  571SOL    HW1 2165   1.630   0.542   4.977
  571SOL    HW2 2166   1.728   0.583   4.870
  572SOL     OW 2167   0.253   1.553   5.456
  572SOL    HW1 2168   0.235   1.618   5.524
  572SOL    HW2 2169   0.253   1.469   5.501
  573SOL     OW 2170   0.715   0.446   4.976
  573SOL    HW1 2171   0.658   0.375   4.947
  573SOL    HW2 2172   0.707   0.512   4.906
  574SOL     OW 2173   0.922   1.678   5.196
  574SOL    HW1 2174   0.897   1.638   5.113
  574SOL    HW2 2175   0.916   1.772   5.181
  575SOL     OW 2176   0.461   0.490   3.893
  575SOL    HW1 2177   0.524   0.555   3.922
  575SOL    HW2 2178   0.379   0.538   3.883
  576SOL     OW 2179   0.145   1.137   5.193
  576SOL    HW1 2180   0.141   1.093   5.277
  576SOL    HW2 2181   0.153   1.066   5.129
  577SOL     OW 2182   1.319   1.042   4.943
  577SOL    HW1 2183   1.340   0.979   4.874
  577SOL    HW2 2184   1.254   1.100   4.903
  578SOL     OW 2185   1.317   0.857   4.027
  578SOL    HW1 2186   1.244   0.824   4.079
  578SOL    HW2 2187   1.289   0.843   3.936
  579SOL     OW 2188   1.780   1.733   4.883
  579SOL    HW1 2189   1.837   1.761   4.812
  579SOL    HW2 2190   1.752   1.645   4.858
  580SOL     OW 2191   1.239   1.732   4.827
  580SOL    HW1 2192   1.323   1.757   4.787
  580SOL    HW2 2193   1.250   1.639   4.849
  581SOL     OW 2194   0.080   1.200   4.751
  581SOL    HW1 2195   0.065   1.230   4.840
  581SOL    HW2 2196   5.292   1.193   4.712
  582SOL     OW 2197   0.679   1.673   5.464
  582SOL    HW1 2198   0.618   1.746   5.453
  582SOL    HW2 2199   0.748   1.689   5.399
  583SOL     OW 2200   1.708   0.156   4.216
  583SOL    HW1 2201   1.784   0.137   4.161
  583SOL    HW2 2202   1.706   0.085   4.280
  584SOL     OW 2203   1.393   1.568   4.216
  584SOL    HW1 2204   1.450   1.602   4.147
  584SOL    HW2 2205   1.342   1.643   4.245
  585SOL     OW 2206   0.151   1.797   5.567
  585SOL    HW1 2207   0.097   1.735   5.616
  585SOL    HW2 2208   0.204   1.840   5.634
  586SOL     OW 2209   1.278   0.929   4.395
  586SOL    HW1 2210   1.352   0.869   4.405
  586SOL    HW2 2211   1.313   1.000   4.341
  587SOL     OW 2212   0.803   1.277   5.147
  587SOL    HW1 2213   0.775   1.319   5.228
  587SOL    HW2 2214   0.732   1.293   5.085
  588SOL     OW 2215   0.672   1.626   3.878
  588SOL    HW1 2216   0.684   1.641   3.784
  588SOL    HW2 2217   0.616   1.548   3.883
  589SOL     OW 2218   1.618   1.727   5.116
  589SOL    HW1 2219   1.673   1.732   5.037
  589SOL    HW2 2220   1.604   1.818   5.141
  590SOL     OW 2221   1.848   0.145   4.679
  590SOL    HW1 2222   1.834   0.051   4.695
  590SOL    HW2 2223   1.764   0.176   4.645
  591SOL     OW 2224   0.268   0.331   4.440
  591SOL    HW1 2225   0.180   0.366   4.430
  591SOL    HW2 2226   0.279   0.317   4.534
  592SOL     OW 2227   1.209   1.600   3.757
  592SOL    HW1 2228   1.197   1.509   3.783
  592SOL    HW2 2229   1.143   1.615   3.690
  593SOL     OW 2230   0.824   1.007   5.100
  593SOL    HW1 2231   0.867   1.000   5.015
  593SOL    HW2 2232   0.820   1.101   5.117
  594SOL     OW 2233   0.916   0.910   4.016
  594SOL    HW1 2234   0.976   0.943   3.949
  594SOL    HW2 2235   0.966   0.842   4.062
  595SOL     OW 2236   1.488   1.630   3.770
  595SOL    HW1 2237   1.395   1.619   3.754
  595SOL    HW2 2238   1.527   1.635   3.682
  596SOL     OW 2239   0.366   1.305   5.218
  596SOL    HW1 2240   0.359   1.378   5.157
  596SOL    HW2 2241   0.290   1.249   5.198
  597SOL     OW 2242   1.607   1.285   5.003
  597SOL    HW1 2243   1.666   1.268   5.076
  597SOL    HW2 2244   1.547   1.352   5.035
  598SOL     OW 2245   1.063   1.111   4.436
  598SOL    HW1 2246   0.990   1.061   4.472
  598SOL    HW2 2247   1.127   1.045   4.410
  599SOL     OW 2248   1.017   0.247   4.698
  599SOL    HW1 2249   0.998   0.202   4.615
  599SOL    HW2 2250   1.012   0.178   4.764
  600SOL     OW 2251   0.604   1.488   4.203
  600SOL    HW1 2252   0.654   1.437   4.139
  600SOL    HW2 2253   0.534   1.529   4.152
  601SOL     OW 2254   1.732   0.384   5.101
  601SOL    HW1 2255   1.803   0.448   5.100
  601SOL    HW2 2256   1.760   0.315   5.042
  602SOL     OW 2257   0.264   1.349   4.025
  602SOL    HW1 2258   0.172   1.347   3.999
  602SOL    HW2 2259   0.263   1.388   4.112
  603SOL     OW 2260   0.122   1.017   5.439
  603SOL    HW1 2261   0.051   0.983   5.494
  603SOL    HW2 2262   0.202   0.987   5.480
  604SOL     OW 2263   0.681   0.225   5.221
  604SOL    HW1 2264   0.763   0.210   5.174
  604SOL    HW2 2265   0.708   0.267   5.303
  605SOL     OW 2266   0.079   0.324   3.757
  605SOL    HW1 2267   5.284   0.317   3.765
  605SOL    HW2 2268   0.093   0.401   3.702
  606SOL     OW 2269   1.424   0.857   5.120
  606SOL    HW1 2270   1.374   0.918   5.066
  606SOL    HW2 2271   1.513   0.860   5.084
  607SOL     OW 2272   0.089   0.148   4.012
  607SOL    HW1 2273   0.083   0.240   3.987
  607SOL    HW2 2274   0.176   0.120   3.981
  608SOL     OW 2275   1.178   1.333   3.842
  608SOL    HW1 2276   1.087   1.304   3.843
  608SOL    HW2 2277   1.204   1.335   3.934
  609SOL     OW 2278   0.621   0.832   5.162
  609SOL    HW1 2279   0.678   0.908   5.146
  609SOL    HW2 2280   0.681   0.758   5.166
  610SOL     OW 2281   1.483   1.787   4.707
  610SOL    HW1 2282   1.505   1.855   4.644
  610SOL    HW2 2283   1.568   1.760   4.743
  611SOL     OW 2284   0.712   0.573   5.422
  611SOL    HW1 2285   0.758   0.635   5.479
  611SOL    HW2 2286   0.736   0.487   5.455
  612SOL     OW 2287   1.474   1.193   5.352
  612SOL    HW1 2288   1.462   1.209   5.445
  612SOL    HW2 2289   1.566   1.213   5.335
  613SOL     OW 2290   0.369   1.747   5.290
  613SOL    HW1 2291   0.287   1.792   5.271
  613SOL    HW2 2292   0.342   1.666   5.334
  614SOL     OW 2293   1.663   0.879   4.979
  614SOL    HW1 2294   1.660   0.794   4.935
  614SOL    HW2 2295   1.653   0.943   4.908
  615SOL     OW 2296   1.222   0.318   4.184
  615SOL    HW1 2297   1.283   0.244   4.180
  615SOL    HW2 2298   1.251   0.369   4.260
  616SOL     OW 2299   0.584   0.733   4.397
  616SOL    HW1 2300   0.625   0.819   4.382
  616SOL    HW2 2301   0.517   0.726   4.329
  617SOL     OW 2302   1.763   0.361   5.374
  617SOL    HW1 2303   1.747   0.378   5.281
  617SOL    HW2 2304   1.688   0.308   5.402
  618SOL     OW 2305   1.749   0.933   5.234
  618SOL    HW1 2306   1.738   1.028   5.247
  618SOL    HW2 2307   1.730   0.919   5.142
  619SOL     OW 2308   0.865   1.364   3.769
  619SOL    HW1 2309   0.827   1.393   3.851
  619SOL    HW2 2310   0.880   1.445   3.720
  620SOL     OW 2311   0.668   1.787   4.659
  620SOL    HW1 2312   0.649   1.879   4.640
  620SOL    HW2 2313   0.764   1.782   4.654
  621SOL     OW 2314   0.870   0.971   4.576
  621SOL    HW1 2315   0.920   0.898   4.614
  621SOL    HW2 2316   0.831   1.014   4.652
  622SOL     OW 2317   1.074   0.986   3.812
  622SOL    HW1 2318   1.055   1.040   3.735
  622SOL    HW2 2319   1.149   0.933   3.786
  623SOL     OW 2320   1.844   1.551   4.564
  623SOL    HW1 2321   1.764   1.540   4.513
  623SOL    HW2 2322   1.834   1.490   4.637
  624SOL     OW 2323   0.231   1.301   5.588
  624SOL    HW1 2324   0.164   1.239   5.560
  624SOL    HW2 2325   0.217   1.312   5.682
  625SOL     OW 2326   0.095   1.198   4.371
  625SOL    HW1 2327   0.119   1.179   4.461
  625SOL    HW2 2328   0.171   1.245   4.335
  626SOL     OW 2329   0.686   1.408   5.356
  626SOL    HW1 2330   0.606   1.367   5.389
  626SOL    HW2 2331   0.683   1.497   5.392
  627SOL     OW 2332   1.803   0.172   4.951
  627SOL    HW1 2333   1.765   0.084   4.946
  627SOL    HW2 2334   1.834   0.190   4.862
  628SOL     OW 2335   0.437   0.437   4.247
  628SOL    HW1 2336   0.469   0.362   4.197
  628SOL    HW2 2337   0.387   0.398   4.319
  629SOL     OW 2338   1.699   1.483   4.812
  629SOL    HW1 2339   1.618   1.464   4.763
  629SOL    HW2 2340   1.702   1.415   4.879
  630SOL     OW 2341   0.344   0.569   5.013
  630SOL    HW1 2342   0.399   0.508   5.063
  630SOL    HW2 2343   0.354   0.541   4.922
  631SOL     OW 2344   0.835   1.578   4.398
  631SOL    HW1 2345   0.811   1.646   4.334
  631SOL    HW2 2346   0.759   1.519   4.400
  632SOL     OW 2347   1.425   0.223   4.840
  632SOL    HW1 2348   1.460   0.147   4.886
  632SOL    HW2 2349   1.376   0.271   4.906
  633SOL     OW 2350   1.001   0.017   4.857
  633SOL    HW1 2351   0.950   5.251   4.811
  633SOL    HW2 2352   1.085   5.274   4.874
  634SOL     OW 2353   0.774   1.333   4.047
  634SOL    HW1 2354   0.748   1.242   4.055
  634SOL    HW2 2355   0.856   1.340   4.096
  635SOL     OW 2356   0.625   1.556   5.015
  635SOL    HW1 2357   0.624   1.638   5.064
  635SOL    HW2 2358   0.712   1.552   4.976
  636SOL     OW 2359   1.353   0.026   3.893
  636SOL    HW1 2360   1.412   5.292   3.826
  636SOL    HW2 2361   1.280   5.265   3.895
  637SOL     OW 2362   1.300   0.465   4.404
  637SOL    HW1 2363   1.247   0.545   4.407
  637SOL    HW2 2364   1.292   0.428   4.492
  638SOL     OW 2365   1.596   0.214   4.611
  638SOL    HW1 2366   1.533   0.227   4.681
  638SOL    HW2 2367   1.589   0.293   4.557
  639SOL     OW 2368   0.049   1.065   4.013
  639SOL    HW1 2369   0.137   1.029   4.005
  639SOL    HW2 2370   5.299   0.996   4.056
  640SOL     OW 2371   0.891   1.660   4.060
  640SOL    HW1 2372   0.816   1.646   4.003
  640SOL    HW2 2373   0.865   1.733   4.117
  641SOL     OW 2374   0.229   0.629   5.710
  641SOL    HW1 2375   0.162   0.593   5.768
  641SOL    HW2 2376   0.200   0.607   5.622
  642SOL     OW 2377   0.233   0.283   6.575
  642SOL    HW1 2378   0.252   0.242   6.659
  642SOL    HW2 2379   0.152   0.242   6.546
  643SOL     OW 2380   5.296   0.407   6.257
  643SOL    HW1 2381   5.204   0.432   6.257
  643SOL    HW2 2382   5.297   0.318   6.221
  644SOL     OW 2383   0.581   1.296   6.782
  644SOL    HW1 2384   0.500   1.302   6.732
  644SOL    HW2 2385   0.596   1.385   6.814
  645SOL     OW 2386   1.573   1.515   6.295
  645SOL    HW1 2387   1.529   1.491   6.376
  645SOL    HW2 2388   1.503   1.519   6.230
  646SOL     OW 2389   1.135   0.698   6.281
  646SOL    HW1 2390   1.182   0.781   6.269
  646SOL    HW2 2391   1.086   0.710   6.363
  647SOL     OW 2392   1.778   0.598   5.810
  647SOL    HW1 2393   1.751   0.593   5.718
  647SOL    HW2 2394   1.738   0.522   5.851
  648SOL     OW 2395   0.744   1.134   6.632
  648SOL    HW1 2396   0.683   1.172   6.695
  648SOL    HW2 2397   0.783   1.209   6.588
  649SOL     OW 2398   0.871   0.768   7.405
  649SOL    HW1 2399   0.874   0.839   7.469
  649SOL    HW2 2400   0.896   0.808   7.322
  650SOL     OW 2401   0.685   0.995   6.230
  650SOL    HW1 2402   0.752   0.988   6.297
  650SOL    HW2 2403   0.618   1.052   6.268
  651SOL     OW 2404   0.714   1.152   7.406
  651SOL    HW1 2405   0.762   1.228   7.437
  651SOL    HW2 2406   0.636   1.188   7.365
  652SOL     OW 2407   0.360   1.402   6.648
  652SOL    HW1 2408   0.269   1.406   6.618
  652SOL    HW2 2409   0.407   1.462   6.591
  653SOL     OW 2410   1.459   1.503   6.948
  653SOL    HW1 2411   1.513   1.581   6.957
  653SOL    HW2 2412   1.390   1.513   7.014
  654SOL     OW 2413   0.458   0.395   7.058
  654SOL    HW1 2414   0.539   0.344   7.064
  654SOL    HW2 2415   0.388   0.332   7.074
  655SOL     OW 2416   1.603   0.449   6.327
  655SOL    HW1 2417   1.529   0.465   6.269
  655SOL    HW2 2418   1.610   0.529   6.379
  656SOL     OW 2419   0.243   1.712   6.062
  656SOL    HW1 2420   0.267   1.784   6.119
  656SOL    HW2 2421   0.307   1.715   5.991
  657SOL     OW 2422   1.138   1.342   7.275
  657SOL    HW1 2423   1.178   1.337   7.362
  657SOL    HW2 2424   1.086   1.261   7.269
  658SOL     OW 2425   0.214   1.451   6.133
  658SOL    HW1 2426   0.229   1.543   6.112
  658SOL    HW2 2427   0.142   1.452   6.196
  659SOL     OW 2428   0.256   1.075   6.455
  659SOL    HW1 2429   0.267   0.986   6.491
  659SOL    HW2 2430   0.202   1.120   6.520
  660SOL     OW 2431   0.603   1.791   7.015
  660SOL    HW1 2432   0.520   1.775   7.060
  660SOL    HW2 2433   0.627   1.881   7.041
  661SOL     OW 2434   0.574   0.987   5.727
  661SOL    HW1 2435   0.624   1.031   5.658
  661SOL    HW2 2436   0.614   1.017   5.809
  662SOL     OW 2437   1.588   0.140   7.041
  662SOL    HW1 2438   1.623   0.219   7.001
  662SOL    HW2 2439   1.573   0.163   7.133
  663SOL     OW 2440   0.121   0.630   6.160
  663SOL    HW1 2441   0.088   0.551   6.203
  663SOL    HW2 2442   0.097   0.701   6.219
  664SOL     OW 2443   1.844   1.753   5.916
  664SOL    HW1 2444   1.914   1.728   5.977
  664SOL    HW2 2445   1.862   1.845   5.896
  665SOL     OW 2446   0.039   1.600   5.722
  665SOL    HW1 2447   0.028   1.509   5.747
  665SOL    HW2 2448   5.273   1.647   5.773
  666SOL     OW 2449   1.690   0.919   6.232
  666SOL    HW1 2450   1.771   0.874   6.208
  666SOL    HW2 2451   1.668   0.971   6.154
  667SOL     OW 2452   1.650   1.103   6.016
  667SOL    HW1 2453   1.737   1.103   5.975
  667SOL    HW2 2454   1.658   1.166   6.087
  668SOL     OW 2455   0.138   0.752   7.167
  668SOL    HW1 2456   0.233   0.765   7.161
  668SOL    HW2 2457   0.103   0.840   7.187
  669SOL     OW 2458   0.619   1.391   6.319
  669SOL    HW1 2459   0.573   1.308   6.329
  669SOL    HW2 2460   0.602   1.418   6.229
  670SOL     OW 2461   1.285   1.235   7.006
  670SOL    HW1 2462   1.315   1.167   6.947
  670SOL    HW2 2463   1.344   1.230   7.081
  671SOL     OW 2464   0.823   0.040   6.124
  671SOL    HW1 2465   0.851   0.126   6.093
  671SOL    HW2 2466   0.728   0.040   6.113
  672SOL     OW 2467   0.165   0.936   6.869
  672SOL    HW1 2468   0.256   0.906   6.862
  672SOL    HW2 2469   0.131   0.930   6.780
  673SOL     OW 2470   1.531   1.001   5.787
  673SOL    HW1 2471   1.462   0.943   5.820
  673SOL    HW2 2472   1.574   1.034   5.865
  674SOL     OW 2473   1.182   1.814   7.212
  674SOL    HW1 2474   1.188   1.876   7.139
  674SOL    HW2 2475   1.202   1.729   7.173
  675SOL     OW 2476   0.342   0.290   7.392
  675SOL    HW1 2477   0.394   0.346   7.449
  675SOL    HW2 2478   0.257   0.285   7.435
  676SOL     OW 2479   1.468   1.419   6.532
  676SOL    HW1 2480   1.402   1.436   6.599
  676SOL    HW2 2481   1.454   1.328   6.506
  677SOL     OW 2482   1.651   1.757   6.162
  677SOL    HW1 2483   1.635   1.723   6.075
  677SOL    HW2 2484   1.635   1.684   6.221
  678SOL     OW 2485   0.590   0.715   5.857
  678SOL    HW1 2486   0.597   0.799   5.812
  678SOL    HW2 2487   0.524   0.730   5.926
  679SOL     OW 2488   1.276   0.359   6.519
  679SOL    HW1 2489   1.186   0.329   6.531
  679SOL    HW2 2490   1.327   0.307   6.579
  680SOL     OW 2491   1.578   1.674   5.897
  680SOL    HW1 2492   1.671   1.698   5.889
  680SOL    HW2 2493   1.550   1.657   5.807
  681SOL     OW 2494   0.793   0.619   7.031
  681SOL    HW1 2495   0.764   0.597   7.119
  681SOL    HW2 2496   0.757   0.550   6.975
  682SOL     OW 2497   1.394   0.477   7.264
  682SOL    HW1 2498   1.397   0.521   7.349
  682SOL    HW2 2499   1.454   0.403   7.273
  683SOL     OW 2500   0.951   0.886   7.170
  683SOL    HW1 2501   1.006   0.819   7.131
  683SOL    HW2 2502   0.902   0.923   7.097
  684SOL     OW 2503   0.995   0.415   6.813
  684SOL    HW1 2504   0.905   0.431   6.842
  684SOL    HW2 2505   0.986   0.371   6.729
  685SOL     OW 2506   1.055   0.697   6.011
  685SOL    HW1 2507   1.073   0.691   6.104
  685SOL    HW2 2508   0.970   0.654   6.001
  686SOL     OW 2509   0.064   0.794   6.393
  686SOL    HW1 2510   0.144   0.796   6.446
  686SOL    HW2 2511   0.076   0.865   6.329
  687SOL     OW 2512   0.121   1.887   7.174
  687SOL    HW1 2513   0.129   1.865   7.267
  687SOL    HW2 2514   0.056   1.825   7.140
  688SOL     OW 2515   0.881   0.376   5.780
  688SOL    HW1 2516   0.917   0.432   5.711
  688SOL    HW2 2517   0.935   0.296   5.776
  689SOL     OW 2518   1.703   0.568   7.417
  689SOL    HW1 2519   1.669   0.643   7.368
  689SOL    HW2 2520   1.735   0.508   7.350
  690SOL     OW 2521   1.381   1.142   6.125
  690SOL    HW1 2522   1.461   1.131   6.072
  690SOL    HW2 2523   1.328   1.204   6.075
  691SOL     OW 2524   0.529   0.209   6.464
  691SOL    HW1 2525   0.546   0.223   6.557
  691SOL    HW2 2526   0.545   0.295   6.424
  692SOL     OW 2527   0.998   1.443   6.054
  692SOL    HW1 2528   0.969   1.519   6.003
  692SOL    HW2 2529   0.974   1.464   6.144
  693SOL     OW 2530   0.361   1.809   6.458
  693SOL    HW1 2531   0.400   1.723   6.471
  693SOL    HW2 2532   0.426   1.871   6.492
  694SOL     OW 2533   1.801   1.050   6.460
  694SOL    HW1 2534   1.750   1.031   6.381
  694SOL    HW2 2535   1.737   1.057   6.530
  695SOL     OW 2536   1.227   1.542   7.098
  695SOL    HW1 2537   1.215   1.469   7.159
  695SOL    HW2 2538   1.157   1.530   7.034
  696SOL     OW 2539   0.311   0.951   5.839
  696SOL    HW1 2540   0.392   0.975   5.794
  696SOL    HW2 2541   0.291   0.863   5.807
  697SOL     OW 2542   1.483   0.751   6.307
  697SOL    HW1 2543   1.479   0.714   6.395
  697SOL    HW2 2544   1.560   0.807   6.308
  698SOL     OW 2545   0.469   1.267   7.324
  698SOL    HW1 2546   0.442   1.273   7.232
  698SOL    HW2 2547   0.386   1.266   7.372
  699SOL     OW 2548   1.126   1.778   5.814
  699SOL    HW1 2549   1.050   1.739   5.857
  699SOL    HW2 2550   1.150   1.715   5.746
  700SOL     OW 2551   0.196   0.282   7.084
  700SOL    HW1 2552   0.163   0.371   7.068
  700SOL    HW2 2553   0.211   0.279   7.179
  701SOL     OW 2554   1.628   1.382   5.678
  701SOL    HW1 2555   1.587   1.467   5.663
  701SOL    HW2 2556   1.560   1.319   5.656
  702SOL     OW 2557   0.472   1.735   5.902
  702SOL    HW1 2558   0.518   1.791   5.965
  702SOL    HW2 2559   0.541   1.701   5.845
  703SOL     OW 2560   1.409   0.106   6.018
  703SOL    HW1 2561   1.402   0.077   5.927
  703SOL    HW2 2562   1.503   0.120   6.031
  704SOL     OW 2563   0.277   1.800   6.786
  704SOL    HW1 2564   0.306   1.717   6.823
  704SOL    HW2 2565   0.219   1.775   6.714
  705SOL     OW 2566   0.942   1.700   6.482
  705SOL    HW1 2567   1.022   1.652   6.503
  705SOL    HW2 2568   0.901   1.649   6.412
  706SOL     OW 2569   0.384   0.694   6.062
  706SOL    HW1 2570   0.414   0.604   6.073
  706SOL    HW2 2571   0.291   0.692   6.084
  707SOL     OW 2572   1.530   0.228   7.307
  707SOL    HW1 2573   1.539   0.244   7.400
  707SOL    HW2 2574   1.453   0.172   7.299
  708SOL     OW 2575   0.623   0.130   5.693
  708SOL    HW1 2576   0.672   0.054   5.725
  708SOL    HW2 2577   0.573   0.096   5.619
  709SOL     OW 2578   0.777   0.312   7.353
  709SOL    HW1 2579   0.843   0.243   7.354
  709SOL    HW2 2580   0.741   0.313   7.441
  710SOL     OW 2581   0.878   1.524   6.780
  710SOL    HW1 2582   0.859   1.485   6.694
  710SOL    HW2 2583   0.946   1.469   6.817
  711SOL     OW 2584   1.338   0.590   7.019
  711SOL    HW1 2585   1.369   0.560   7.104
  711SOL    HW2 2586   1.375   0.678   7.009
  712SOL     OW 2587   0.820   1.386   6.533
  712SOL    HW1 2588   0.905   1.376   6.491
  712SOL    HW2 2589   0.758   1.395   6.461
  713SOL     OW 2590   0.929   0.513   6.487
  713SOL    HW1 2591   0.903   0.504   6.396
  713SOL    HW2 2592   0.956   0.424   6.513
  714SOL     OW 2593   0.552   0.058   6.090
  714SOL    HW1 2594   0.474   0.058   6.146
  714SOL    HW2 2595   0.535   0.126   6.025
  715SOL     OW 2596   1.428   1.201   5.624
  715SOL    HW1 2597   1.457   1.127   5.676
  715SOL    HW2 2598   1.343   1.224   5.661
  716SOL     OW 2599   0.324   0.075   5.771
  716SOL    HW1 2600   0.394   0.138   5.787
  716SOL    HW2 2601   0.370   5.293   5.754
  717SOL     OW 2602   0.943   0.275   6.049
  717SOL    HW1 2603   0.916   0.304   5.961
  717SOL    HW2 2604   1.038   0.282   6.048
  718SOL     OW 2605   1.082   0.686   7.041
  718SOL    HW1 2606   1.017   0.616   7.045
  718SOL    HW2 2607   1.166   0.641   7.036
  719SOL     OW 2608   1.218   1.574   6.381
  719SOL    HW1 2609   1.232   1.638   6.312
  719SOL    HW2 2610   1.288   1.590   6.444
  720SOL     OW 2611   0.472   1.155   6.308
  720SOL    HW1 2612   0.404   1.131   6.371
  720SOL    HW2 2613   0.431   1.141   6.223
  721SOL     OW 2614   1.263   1.792   6.199
  721SOL    HW1 2615   1.311   1.854   6.145
  721SOL    HW2 2616   1.193   1.844   6.239
  722SOL     OW 2617   1.025   0.541   5.610
  722SOL    HW1 2618   0.982   0.625   5.593
  722SOL    HW2 2619   1.087   0.559   5.681
  723SOL     OW 2620   0.109   0.527   7.002
  723SOL    HW1 2621   0.188   0.549   6.952
  723SOL    HW2 2622   0.085   0.609   7.045
  724SOL     OW 2623   0.558   0.239   6.744
  724SOL    HW1 2624   0.593   0.155   6.774
  724SOL    HW2 2625   0.466   0.237   6.771
  725SOL     OW 2626   0.863   0.469   6.228
  725SOL    HW1 2627   0.817   0.523   6.164
  725SOL    HW2 2628   0.890   0.391   6.179
  726SOL     OW 2629   0.981   0.063   6.355
  726SOL    HW1 2630   0.919   0.066   6.282
  726SOL    HW2 2631   0.991   5.270   6.375
  727SOL     OW 2632   1.440   1.160   6.443
  727SOL    HW1 2633   1.368   1.097   6.443
  727SOL    HW2 2634   1.465   1.168   6.350
  728SOL     OW 2635   1.465   0.613   6.553
  728SOL    HW1 2636   1.410   0.535   6.556
  728SOL    HW2 2637   1.523   0.604   6.629
  729SOL     OW 2638   1.838   0.810   5.971
  729SOL    HW1 2639   1.897   0.762   6.029
  729SOL    HW2 2640   1.815   0.747   5.903
  730SOL     OW 2641   0.491   1.424   5.739
  730SOL    HW1 2642   0.416   1.396   5.791
  730SOL    HW2 2643   0.485   1.372   5.658
  731SOL     OW 2644   1.678   1.264   6.228
  731SOL    HW1 2645   1.773   1.263   6.243
  731SOL    HW2 2646   1.652   1.353   6.249
  732SOL     OW 2647   1.393   0.574   5.657
  732SOL    HW1 2648   1.332   0.552   5.727
  732SOL    HW2 2649   1.479   0.548   5.691
  733SOL     OW 2650   0.516   0.263   5.901
  733SOL    HW1 2651   0.574   0.222   5.837
  733SOL    HW2 2652   0.494   0.348   5.862
  734SOL     OW 2653   1.747   1.242   7.145
  734SOL    HW1 2654   1.835   1.205   7.136
  734SOL    HW2 2655   1.762   1.332   7.176
  735SOL     OW 2656   1.054   1.352   6.916
  735SOL    HW1 2657   0.978   1.322   6.966
  735SOL    HW2 2658   1.129   1.311   6.959
  736SOL     OW 2659   1.610   1.628   7.242
  736SOL    HW1 2660   1.602   1.662   7.153
  736SOL    HW2 2661   1.691   1.577   7.241
  737SOL     OW 2662   1.136   1.211   6.687
  737SOL    HW1 2663   1.076   1.250   6.752
  737SOL    HW2 2664   1.107   1.247   6.603
  738SOL     OW 2665   1.621   1.095   6.662
  738SOL    HW1 2666   1.615   1.158   6.733
  738SOL    HW2 2667   1.547   1.114   6.605
  739SOL     OW 2668   0.904   0.111   6.964
  739SOL    HW1 2669   0.935   0.078   6.880
  739SOL    HW2 2670   0.981   0.152   7.004
  740SOL     OW 2671   0.984   1.114   7.312
  740SOL    HW1 2672   0.893   1.131   7.334
  740SOL    HW2 2673   0.982   1.036   7.257
  741SOL     OW 2674   0.709   1.062   5.957
  741SOL    HW1 2675   0.695   1.041   6.050
  741SOL    HW2 2676   0.785   1.008   5.932
  742SOL     OW 2677   0.420   0.829   6.843
  742SOL    HW1 2678   0.490   0.836   6.908
  742SOL    HW2 2679   0.389   0.739   6.850
  743SOL     OW 2680   1.263   0.376   6.865
  743SOL    HW1 2681   1.297   0.453   6.910
  743SOL    HW2 2682   1.173   0.399   6.841
  744SOL     OW 2683   0.104   1.618   6.948
  744SOL    HW1 2684   0.084   1.623   6.854
  744SOL    HW2 2685   0.193   1.583   6.951
  745SOL     OW 2686   0.346   1.116   6.064
  745SOL    HW1 2687   0.338   1.195   6.011
  745SOL    HW2 2688   0.342   1.044   6.001
  746SOL     OW 2689   0.552   0.528   6.444
  746SOL    HW1 2690   0.564   0.588   6.370
  746SOL    HW2 2691   0.618   0.555   6.508
  747SOL     OW 2692   1.247   1.350   5.977
  747SOL    HW1 2693   1.303   1.421   6.009
  747SOL    HW2 2694   1.160   1.371   6.010
  748SOL     OW 2695   1.292   1.461   6.735
  748SOL    HW1 2696   1.347   1.467   6.813
  748SOL    HW2 2697   1.236   1.385   6.751
  749SOL     OW 2698   1.576   0.620   6.069
  749SOL    HW1 2699   1.527   0.667   6.136
  749SOL    HW2 2700   1.622   0.688   6.021
  750SOL     OW 2701   0.354   1.521   6.893
  750SOL    HW1 2702   0.344   1.475   6.809
  750SOL    HW2 2703   0.447   1.539   6.900
  751SOL     OW 2704   0.423   0.738   7.191
  751SOL    HW1 2705   0.481   0.786   7.132
  751SOL    HW2 2706   0.470   0.656   7.210
  752SOL     OW 2707   1.610   0.780   7.274
  752SOL    HW1 2708   1.524   0.822   7.268
  752SOL    HW2 2709   1.662   0.823   7.206
  753SOL     OW 2710   1.051   0.122   7.374
  753SOL    HW1 2711   1.086   0.201   7.334
  753SOL    HW2 2712   1.064   0.053   7.309
  754SOL     OW 2713   0.480   0.063   7.323
  754SOL    HW1 2714   0.412   5.300   7.302
  754SOL    HW2 2715   0.433   0.146   7.336
  755SOL     OW 2716   0.587   0.876   6.621
  755SOL    HW1 2717   0.623   0.965   6.621
  755SOL    HW2 2718   0.529   0.874   6.697
  756SOL     OW 2719   1.344   0.859   6.605
  756SOL    HW1 2720   1.258   0.842   6.568
  756SOL    HW2 2721   1.391   0.776   6.595
  757SOL     OW 2722   1.199   0.525   5.848
  757SOL    HW1 2723   1.208   0.447   5.902
  757SOL    HW2 2724   1.157   0.589   5.906
  758SOL     OW 2725   0.300   0.202   6.833
  758SOL    HW1 2726   0.259   0.236   6.912
  758SOL    HW2 2727   0.287   0.107   6.837
  759SOL     OW 2728   0.049   1.308   6.862
  759SOL    HW1 2729   0.083   1.253   6.932
  759SOL    HW2 2730   5.278   1.358   6.902
  760SOL     OW 2731   0.721   0.631   6.640
  760SOL    HW1 2732   0.797   0.618   6.584
  760SOL    HW2 2733   0.692   0.720   6.621
  761SOL     OW 2734   1.741   0.960   7.445
  761SOL    HW1 2735   1.696   0.893   7.395
  761SOL    HW2 2736   1.683   0.979   7.518
  762SOL     OW 2737   0.327   0.068   6.250
  762SOL    HW1 2738   0.298   0.160   6.250
  762SOL    HW2 2739   0.357   0.053   6.340
  763SOL     OW 2740   1.621   0.384   5.937
  763SOL    HW1 2741   1.649   0.315   5.998
  763SOL    HW2 2742   1.597   0.457   5.994
  764SOL     OW 2743   1.030   0.759   6.544
  764SOL    HW1 2744   1.020   0.776   6.637
  764SOL    HW2 2745   1.003   0.669   6.532
  765SOL     OW 2746   0.980   1.564   7.307
  765SOL    HW1 2747   0.965   1.609   7.225
  765SOL    HW2 2748   1.026   1.484   7.283
  766SOL     OW 2749   1.850   1.500   7.189
  766SOL    HW1 2750   1.873   1.528   7.100
  766SOL    HW2 2751   1.930   1.513   7.240
  767SOL     OW 2752   0.356   0.914   7.394
  767SOL    HW1 2753   0.436   0.938   7.440
  767SOL    HW2 2754   0.385   0.850   7.328
  768SOL     OW 2755   1.520   0.265   5.709
  768SOL    HW1 2756   1.452   0.209   5.747
  768SOL    HW2 2757   1.560   0.309   5.785
  769SOL     OW 2758   1.285   0.825   5.613
  769SOL    HW1 2759   1.328   0.739   5.618
  769SOL    HW2 2760   1.319   0.863   5.532
  770SOL     OW 2761   1.071   1.340   6.444
  770SOL    HW1 2762   1.076   1.268   6.381
  770SOL    HW2 2763   1.127   1.408   6.408
  771SOL     OW 2764   0.311   0.808   6.533
  771SOL    HW1 2765   0.406   0.826   6.531
  771SOL    HW2 2766   0.304   0.718   6.564
  772SOL     OW 2767   0.334   0.530   6.602
  772SOL    HW1 2768   0.296   0.443   6.589
  772SOL    HW2 2769   0.409   0.532   6.543
  773SOL     OW 2770   1.137   0.374   7.280
  773SOL    HW1 2771   1.088   0.429   7.342
  773SOL    HW2 2772   1.223   0.415   7.274
  774SOL     OW 2773   1.130   0.219   7.057
  774SOL    HW1 2774   1.133   0.279   7.131
  774SOL    HW2 2775   1.185   0.261   6.991
  775SOL     OW 2776   0.008   1.322   5.793
  775SOL    HW1 2777   5.238   1.308   5.729
  775SOL    HW2 2778   0.017   1.238   5.837
  776SOL     OW 2779   0.104   1.782   6.548
  776SOL    HW1 2780   0.066   1.718   6.487
  776SOL    HW2 2781   0.189   1.804   6.509
  777SOL     OW 2782   0.503   1.574   6.494
  777SOL    HW1 2783   0.570   1.640   6.513
  777SOL    HW2 2784   0.545   1.514   6.432
  778SOL     OW 2785   0.971   0.787   6.808
  778SOL    HW1 2786   1.032   0.769   6.880
  778SOL    HW2 2787   0.889   0.747   6.836
  779SOL     OW 2788   0.035   0.585   6.713
  779SOL    HW1 2789   0.112   0.552   6.667
  779SOL    HW2 2790   0.033   0.537   6.796
  780SOL     OW 2791   0.165   0.525   7.310
  780SOL    HW1 2792   0.251   0.500   7.276
  780SOL    HW2 2793   0.140   0.602   7.259
  781SOL     OW 2794   1.382   0.932   7.243
  781SOL    HW1 2795   1.403   1.025   7.239
  781SOL    HW2 2796   1.377   0.905   7.151
  782SOL     OW 2797   0.814   0.577   5.957
  782SOL    HW1 2798   0.823   0.505   5.896
  782SOL    HW2 2799   0.738   0.627   5.925
  783SOL     OW 2800   1.640   0.601   6.764
  783SOL    HW1 2801   1.629   0.542   6.839
  783SOL    HW2 2802   1.728   0.583   6.732
  784SOL     OW 2803   0.252   1.554   7.318
  784SOL    HW1 2804   0.234   1.618   7.387
  784SOL    HW2 2805   0.254   1.469   7.363
  785SOL     OW 2806   0.714   0.447   6.838
  785SOL    HW1 2807   0.657   0.375   6.809
  785SOL    HW2 2808   0.707   0.512   6.769
  786SOL     OW 2809   0.922   1.678   7.057
  786SOL    HW1 2810   0.897   1.639   6.974
  786SOL    HW2 2811   0.916   1.772   7.043
  787SOL     OW 2812   0.461   0.490   5.755
  787SOL    HW1 2813   0.524   0.555   5.784
  787SOL    HW2 2814   0.379   0.538   5.745
  788SOL     OW 2815   0.145   1.137   7.054
  788SOL    HW1 2816   0.141   1.092   7.139
  788SOL    HW2 2817   0.153   1.066   6.990
  789SOL     OW 2818   1.319   1.042   6.805
  789SOL    HW1 2819   1.340   0.979   6.736
  789SOL    HW2 2820   1.254   1.100   6.765
  790SOL     OW 2821   1.317   0.856   5.889
  790SOL    HW1 2822   1.243   0.824   5.941
  790SOL    HW2 2823   1.289   0.843   5.798
  791SOL     OW 2824   1.780   1.736   6.744
  791SOL    HW1 2825   1.840   1.761   6.674
  791SOL    HW2 2826   1.752   1.647   6.720
  792SOL     OW 2827   1.239   1.732   6.690
  792SOL    HW1 2828   1.323   1.757   6.649
  792SOL    HW2 2829   1.250   1.639   6.711
  793SOL     OW 2830   0.080   1.199   6.613
  793SOL    HW1 2831   0.065   1.230   6.702
  793SOL    HW2 2832   5.292   1.193   6.575
  794SOL     OW 2833   0.678   1.670   7.324
  794SOL    HW1 2834   0.619   1.746   7.317
  794SOL    HW2 2835   0.749   1.689   7.262
  795SOL     OW 2836   1.708   0.156   6.078
  795SOL    HW1 2837   1.784   0.137   6.023
  795SOL    HW2 2838   1.707   0.085   6.142
  796SOL     OW 2839   1.393   1.568   6.078
  796SOL    HW1 2840   1.451   1.602   6.010
  796SOL    HW2 2841   1.342   1.644   6.106
  797SOL     OW 2842   0.146   1.796   7.430
  797SOL    HW1 2843   0.091   1.735   7.480
  797SOL    HW2 2844   0.200   1.839   7.496
  798SOL     OW 2845   1.278   0.929   6.257
  798SOL    HW1 2846   1.352   0.869   6.267
  798SOL    HW2 2847   1.312   1.000   6.203
  799SOL     OW 2848   0.803   1.277   7.009
  799SOL    HW1 2849   0.775   1.319   7.090
  799SOL    HW2 2850   0.732   1.294   6.947
  800SOL     OW 2851   0.672   1.626   5.740
  800SOL    HW1 2852   0.685   1.641   5.647
  800SOL    HW2 2853   0.616   1.548   5.745
  801SOL     OW 2854   1.619   1.728   6.977
  801SOL    HW1 2855   1.673   1.733   6.898
  801SOL    HW2 2856   1.604   1.820   7.002
  802SOL     OW 2857   1.848   0.145   6.541
  802SOL    HW1 2858   1.834   0.052   6.556
  802SOL    HW2 2859   1.764   0.176   6.508
  803SOL     OW 2860   0.268   0.331   6.302
  803SOL    HW1 2861   0.180   0.366   6.292
  803SOL    HW2 2862   0.279   0.317   6.396
  804SOL     OW 2863   1.208   1.600   5.619
  804SOL    HW1 2864   1.197   1.509   5.645
  804SOL    HW2 2865   1.142   1.614   5.552
  805SOL     OW 2866   0.824   1.008   6.961
  805SOL    HW1 2867   0.867   1.001   6.876
  805SOL    HW2 2868   0.820   1.102   6.978
  806SOL     OW 2869   0.916   0.910   5.878
  806SOL    HW1 2870   0.976   0.943   5.811
  806SOL    HW2 2871   0.966   0.842   5.924
  807SOL     OW 2872   1.488   1.630   5.632
  807SOL    HW1 2873   1.394   1.619   5.616
  807SOL    HW2 2874   1.527   1.635   5.544
  808SOL     OW 2875   0.366   1.305   7.080
  808SOL    HW1 2876   0.359   1.378   7.019
  808SOL    HW2 2877   0.290   1.250   7.059
  809SOL     OW 2878   1.607   1.285   6.865
  809SOL    HW1 2879   1.666   1.267   6.939
  809SOL    HW2 2880   1.547   1.352   6.898
  810SOL     OW 2881   1.063   1.111   6.298
  810SOL    HW1 2882   0.990   1.061   6.334
  810SOL    HW2 2883   1.127   1.045   6.272
  811SOL     OW 2884   1.017   0.247   6.560
  811SOL    HW1 2885   0.998   0.202   6.477
  811SOL    HW2 2886   1.012   0.178   6.626
  812SOL     OW 2887   0.604   1.488   6.065
  812SOL    HW1 2888   0.654   1.437   6.001
  812SOL    HW2 2889   0.534   1.529   6.014
  813SOL     OW 2890   1.732   0.383   6.965
  813SOL    HW1 2891   1.803   0.447   6.963
  813SOL    HW2 2892   1.760   0.314   6.905
  814SOL     OW 2893   0.264   1.349   5.887
  814SOL    HW1 2894   0.172   1.347   5.861
  814SOL    HW2 2895   0.263   1.388   5.974
  815SOL     OW 2896   0.121   1.015   7.299
  815SOL    HW1 2897   0.051   0.986   7.357
  815SOL    HW2 2898   0.201   0.985   7.343
  816SOL     OW 2899   0.681   0.224   7.086
  816SOL    HW1 2900   0.763   0.210   7.038
  816SOL    HW2 2901   0.709   0.267   7.167
  817SOL     OW 2902   0.079   0.324   5.619
  817SOL    HW1 2903   5.284   0.317   5.627
  817SOL    HW2 2904   0.093   0.401   5.564
  818SOL     OW 2905   1.424   0.857   6.982
  818SOL    HW1 2906   1.374   0.918   6.928
  818SOL    HW2 2907   1.513   0.860   6.946
  819SOL     OW 2908   0.089   0.148   5.874
  819SOL    HW1 2909   0.083   0.240   5.849
  819SOL    HW2 2910   0.176   0.120   5.843
  820SOL     OW 2911   1.178   1.333   5.704
  820SOL    HW1 2912   1.087   1.304   5.706
  820SOL    HW2 2913   1.204   1.335   5.796
  821SOL     OW 2914   0.621   0.833   7.023
  821SOL    HW1 2915   0.678   0.908   7.008
  821SOL    HW2 2916   0.681   0.758   7.028
  822SOL     OW 2917   1.483   1.786   6.570
  822SOL    HW1 2918   1.505   1.853   6.505
  822SOL    HW2 2919   1.567   1.757   6.604
  823SOL     OW 2920   0.708   0.574   7.284
  823SOL    HW1 2921   0.755   0.636   7.340
  823SOL    HW2 2922   0.734   0.488   7.316
  824SOL     OW 2923   1.473   1.192   7.215
  824SOL    HW1 2924   1.462   1.209   7.308
  824SOL    HW2 2925   1.565   1.213   7.198
  825SOL     OW 2926   0.368   1.747   7.152
  825SOL    HW1 2927   0.286   1.793   7.134
  825SOL    HW2 2928   0.342   1.666   7.196
  826SOL     OW 2929   1.663   0.879   6.841
  826SOL    HW1 2930   1.660   0.794   6.797
  826SOL    HW2 2931   1.653   0.943   6.770
  827SOL     OW 2932   1.222   0.317   6.046
  827SOL    HW1 2933   1.283   0.244   6.043
  827SOL    HW2 2934   1.250   0.369   6.121
  828SOL     OW 2935   0.584   0.733   6.259
  828SOL    HW1 2936   0.625   0.819   6.244
  828SOL    HW2 2937   0.517   0.726   6.191
  829SOL     OW 2938   1.762   0.360   7.238
  829SOL    HW1 2939   1.747   0.377   7.145
  829SOL    HW2 2940   1.686   0.308   7.265
  830SOL     OW 2941   1.749   0.932   7.097
  830SOL    HW1 2942   1.738   1.027   7.110
  830SOL    HW2 2943   1.730   0.919   7.004
  831SOL     OW 2944   0.864   1.364   5.630
  831SOL    HW1 2945   0.827   1.393   5.713
  831SOL    HW2 2946   0.880   1.445   5.581
  832SOL     OW 2947   0.668   1.787   6.520
  832SOL    HW1 2948   0.649   1.879   6.502
  832SOL    HW2 2949   0.764   1.782   6.516
  833SOL     OW 2950   0.870   0.971   6.438
  833SOL    HW1 2951   0.921   0.898   6.476
  833SOL    HW2 2952   0.831   1.014   6.514
  834SOL     OW 2953   1.074   0.986   5.674
  834SOL    HW1 2954   1.055   1.040   5.597
  834SOL    HW2 2955   1.149   0.933   5.648
  835SOL     OW 2956   1.845   1.553   6.427
  835SOL    HW1 2957   1.766   1.541   6.375
  835SOL    HW2 2958   1.837   1.490   6.498
  836SOL     OW 2959   0.230   1.301   7.450
  836SOL    HW1 2960   0.159   1.243   7.421
  836SOL    HW2 2961   0.215   1.313   7.543
  837SOL     OW 2962   0.095   1.198   6.232
  837SOL    HW1 2963   0.119   1.179   6.323
  837SOL    HW2 2964   0.170   1.245   6.197
  838SOL     OW 2965   0.685   1.407   7.219
  838SOL    HW1 2966   0.604   1.367   7.250
  838SOL    HW2 2967   0.683   1.496   7.254
  839SOL     OW 2968   1.803   0.172   6.813
  839SOL    HW1 2969   1.765   0.084   6.808
  839SOL    HW2 2970   1.834   0.191   6.725
  840SOL     OW 2971   0.437   0.437   6.109
  840SOL    HW1 2972   0.469   0.362   6.059
  840SOL    HW2 2973   0.387   0.398   6.181
  841SOL     OW 2974   1.697   1.485   6.677
  841SOL    HW1 2975   1.618   1.466   6.626
  841SOL    HW2 2976   1.701   1.416   6.743
  842SOL     OW 2977   0.345   0.569   6.875
  842SOL    HW1 2978   0.400   0.508   6.925
  842SOL    HW2 2979   0.354   0.541   6.784
  843SOL     OW 2980   0.835   1.578   6.260
  843SOL    HW1 2981   0.812   1.646   6.196
  843SOL    HW2 2982   0.759   1.520   6.261
  844SOL     OW 2983   1.425   0.223   6.702
  844SOL    HW1 2984   1.460   0.147   6.748
  844SOL    HW2 2985   1.376   0.271   6.768
  845SOL     OW 2986   1.001   0.017   6.719
  845SOL    HW1 2987   0.949   5.251   6.672
  845SOL    HW2 2988   1.085   5.274   6.736
  846SOL     OW 2989   0.774   1.333   5.909
  846SOL    HW1 2990   0.749   1.241   5.917
  846SOL    HW2 2991   0.856   1.340   5.958
  847SOL     OW 2992   0.625   1.556   6.877
  847SOL    HW1 2993   0.623   1.638   6.925
  847SOL    HW2 2994   0.712   1.552   6.838
  848SOL     OW 2995   1.352   0.026   5.755
  848SOL    HW1 2996   1.412   5.293   5.688
  848SOL    HW2 2997   1.280   5.264   5.756
  849SOL     OW 2998   1.300   0.465   6.266
  849SOL    HW1 2999   1.247   0.545   6.269
  849SOL    HW2 3000   1.292   0.428   6.354
  850SOL     OW 3001   1.596   0.214   6.473
  850SOL    HW1 3002   1.533   0.227   6.543
  850SOL    HW2 3003   1.589   0.293   6.419
  851SOL     OW 3004   0.049   1.065   5.874
  851SOL    HW1 3005   0.137   1.029   5.867
  851SOL    HW2 3006   5.299   0.996   5.919
  852SOL     OW 3007   0.891   1.660   5.922
  852SOL    HW1 3008   0.816   1.646   5.865
  852SOL    HW2 3009   0.865   1.733   5.979
  853SOL     OW 3010   0.219   0.626   7.573
  853SOL    HW1 3011   0.154   0.572   7.619
  853SOL    HW2 3012   0.202   0.610   7.480
  854SOL     OW 3013   1.775   0.591   7.677
  854SOL    HW1 3014   1.750   0.587   7.585
  854SOL    HW2 3015   1.735   0.513   7.716
  855SOL     OW 3016   0.246   1.692   7.924
  855SOL    HW1 3017   0.260   1.757   7.992
  855SOL    HW2 3018   0.312   1.712   7.857
  856SOL     OW 3019   0.211   1.436   7.998
  856SOL    HW1 3020   0.222   1.528   7.973
  856SOL    HW2 3021   0.150   1.438   8.071
  857SOL     OW 3022   0.575   0.989   7.585
  857SOL    HW1 3023   0.623   1.033   7.516
  857SOL    HW2 3024   0.616   1.019   7.666
  858SOL     OW 3025   1.839   1.756   7.795
  858SOL    HW1 3026   1.913   1.728   7.849
  858SOL    HW2 3027   1.861   1.845   7.768
  859SOL     OW 3028   0.032   1.605   7.590
  859SOL    HW1 3029   0.030   1.512   7.612
  859SOL    HW2 3030   5.266   1.645   7.647
  860SOL     OW 3031   1.683   0.855   8.023
  860SOL    HW1 3032   1.757   0.867   0.002
  860SOL    HW2 3033   1.666   0.941   7.987
  861SOL     OW 3034   1.659   1.095   7.883
  861SOL    HW1 3035   1.747   1.122   7.857
  861SOL    HW2 3036   1.625   1.169   7.933
  862SOL     OW 3037   0.811   5.273   7.935
  862SOL    HW1 3038   0.858   0.056   7.927
  862SOL    HW2 3039   0.719   5.299   7.939
  863SOL     OW 3040   1.536   1.001   7.653
  863SOL    HW1 3041   1.467   0.944   7.686
  863SOL    HW2 3042   1.581   1.032   7.731
  864SOL     OW 3043   0.583   0.720   7.707
  864SOL    HW1 3044   0.590   0.805   7.664
  864SOL    HW2 3045   0.540   0.739   7.790
  865SOL     OW 3046   1.573   1.674   7.758
  865SOL    HW1 3047   1.665   1.699   7.767
  865SOL    HW2 3048   1.560   1.662   7.664
  866SOL     OW 3049   0.047   0.815   0.178
  866SOL    HW1 3050   0.113   0.747   0.165
  866SOL    HW2 3051   0.048   0.865   0.096
  867SOL     OW 3052   0.878   0.373   7.632
  867SOL    HW1 3053   0.916   0.430   7.565
  867SOL    HW2 3054   0.944   0.305   7.645
  868SOL     OW 3055   0.311   0.945   7.693
  868SOL    HW1 3056   0.391   0.972   7.650
  868SOL    HW2 3057   0.292   0.859   7.656
  869SOL     OW 3058   1.130   1.775   7.681
  869SOL    HW1 3059   1.050   1.739   7.719
  869SOL    HW2 3060   1.155   1.713   7.613
  870SOL     OW 3061   1.629   1.383   7.538
  870SOL    HW1 3062   1.587   1.468   7.523
  870SOL    HW2 3063   1.561   1.319   7.517
  871SOL     OW 3064   0.473   1.743   7.767
  871SOL    HW1 3065   0.521   1.791   7.835
  871SOL    HW2 3066   0.541   1.703   7.714
  872SOL     OW 3067   1.420   0.108   7.891
  872SOL    HW1 3068   1.417   0.081   7.799
  872SOL    HW2 3069   1.514   0.116   7.910
  873SOL     OW 3070   0.377   0.698   7.930
  873SOL    HW1 3071   0.394   0.604   7.936
  873SOL    HW2 3072   0.283   0.706   7.948
  874SOL     OW 3073   0.611   0.132   7.562
  874SOL    HW1 3074   0.674   0.066   7.588
  874SOL    HW2 3075   0.567   0.095   7.485
  875SOL     OW 3076   0.553   0.065   7.947
  875SOL    HW1 3077   0.463   0.047   7.971
  875SOL    HW2 3078   0.547   0.141   7.888
  876SOL     OW 3079   1.428   1.201   7.488
  876SOL    HW1 3080   1.458   1.128   7.542
  876SOL    HW2 3081   1.343   1.225   7.525
  877SOL     OW 3082   0.319   0.079   7.657
  877SOL    HW1 3083   0.383   0.141   7.620
  877SOL    HW2 3084   0.360   5.293   7.647
  878SOL     OW 3085   0.948   0.218   7.909
  878SOL    HW1 3086   0.899   0.293   7.876
  878SOL    HW2 3087   1.038   0.251   7.919
  879SOL     OW 3088   0.442   1.162   0.084
  879SOL    HW1 3089   0.372   1.195   0.140
  879SOL    HW2 3090   0.400   1.147   8.079
  880SOL     OW 3091   1.295   1.818   8.013
  880SOL    HW1 3092   1.335   1.886   7.959
  880SOL    HW2 3093   1.203   1.842   8.019
  881SOL     OW 3094   1.025   0.541   7.470
  881SOL    HW1 3095   0.981   0.625   7.457
  881SOL    HW2 3096   1.082   0.556   7.546
  882SOL     OW 3097   1.876   0.810   7.805
  882SOL    HW1 3098   1.835   0.805   7.892
  882SOL    HW2 3099   1.841   0.735   7.758
  883SOL     OW 3100   0.487   1.421   7.598
  883SOL    HW1 3101   0.414   1.393   7.653
  883SOL    HW2 3102   0.479   1.369   7.518
  884SOL     OW 3103   1.392   0.573   7.519
  884SOL    HW1 3104   1.329   0.549   7.586
  884SOL    HW2 3105   1.477   0.543   7.553
  885SOL     OW 3106   0.524   0.279   7.774
  885SOL    HW1 3107   0.568   0.228   7.707
  885SOL    HW2 3108   0.499   0.360   7.729
  886SOL     OW 3109   0.712   1.063   7.813
  886SOL    HW1 3110   0.689   1.043   7.903
  886SOL    HW2 3111   0.789   1.009   7.795
  887SOL     OW 3112   0.334   1.102   7.920
  887SOL    HW1 3113   0.325   1.186   7.875
  887SOL    HW2 3114   0.337   1.038   7.849
  888SOL     OW 3115   1.215   1.357   7.822
  888SOL    HW1 3116   1.270   1.434   7.840
  888SOL    HW2 3117   1.209   1.312   7.906
  889SOL     OW 3118   1.587   0.617   7.916
  889SOL    HW1 3119   1.584   0.675   7.992
  889SOL    HW2 3120   1.615   0.673   7.844
  890SOL     OW 3121   1.198   0.519   7.708
  890SOL    HW1 3122   1.197   0.433   7.749
  890SOL    HW2 3123   1.185   0.580   7.781
  891SOL     OW 3124   1.623   0.375   7.804
  891SOL    HW1 3125   1.644   0.307   7.868
  891SOL    HW2 3126   1.598   0.450   7.858
  892SOL     OW 3127   1.524   0.267   7.572
  892SOL    HW1 3128   1.464   0.201   7.605
  892SOL    HW2 3129   1.562   0.306   7.651
  893SOL     OW 3130   1.288   0.826   7.477
  893SOL    HW1 3131   1.329   0.739   7.480
  893SOL    HW2 3132   1.320   0.864   7.396
  894SOL     OW 3133   0.010   1.329   7.651
  894SOL    HW1 3134   5.232   1.324   7.595
  894SOL    HW2 3135   0.018   1.242   7.690
  895SOL     OW 3136   0.850   0.629   7.748
  895SOL    HW1 3137   0.850   0.536   7.725
  895SOL    HW2 3138   0.758   0.652   7.755
  896SOL     OW 3139   0.454   0.494   7.619
  896SOL    HW1 3140   0.518   0.560   7.643
  896SOL    HW2 3141   0.372   0.542   7.610
  897SOL     OW 3142   1.316   0.858   7.749
  897SOL    HW1 3143   1.231   0.870   7.791
  897SOL    HW2 3144   1.296   0.843   7.657
  898SOL     OW 3145   1.710   0.139   7.939
  898SOL    HW1 3146   1.783   0.137   7.876
  898SOL    HW2 3147   1.745   0.094   8.016
  899SOL     OW 3148   1.355   1.581   7.890
  899SOL    HW1 3149   1.432   1.599   7.837
  899SOL    HW2 3150   1.328   1.667   7.923
  900SOL     OW 3151   0.667   1.623   7.602
  900SOL    HW1 3152   0.679   1.638   7.508
  900SOL    HW2 3153   0.611   1.546   7.606
  901SOL     OW 3154   1.212   1.602   7.479
  901SOL    HW1 3155   1.198   1.511   7.506
  901SOL    HW2 3156   1.144   1.619   7.413
  902SOL     OW 3157   0.919   0.901   7.757
  902SOL    HW1 3158   0.974   0.921   7.681
  902SOL    HW2 3159   0.910   0.806   7.755
  903SOL     OW 3160   1.491   1.632   7.490
  903SOL    HW1 3161   1.397   1.620   7.476
  903SOL    HW2 3162   1.528   1.636   7.402
  904SOL     OW 3163   0.619   1.516   7.936
  904SOL    HW1 3164   0.665   1.455   7.877
  904SOL    HW2 3165   0.537   1.535   7.891
  905SOL     OW 3166   0.263   1.343   7.751
  905SOL    HW1 3167   0.172   1.348   7.722
  905SOL    HW2 3168   0.263   1.379   7.839
  906SOL     OW 3169   0.083   0.328   7.478
  906SOL    HW1 3170   5.288   0.317   7.485
  906SOL    HW2 3171   0.093   0.404   7.421
  907SOL     OW 3172   0.069   0.148   7.730
  907SOL    HW1 3173   0.067   0.242   7.712
  907SOL    HW2 3174   0.158   0.121   7.709
  908SOL     OW 3175   1.169   1.334   7.555
  908SOL    HW1 3176   1.076   1.315   7.550
  908SOL    HW2 3177   1.188   1.340   7.649
  909SOL     OW 3178   1.219   0.312   7.917
  909SOL    HW1 3179   1.289   0.246   7.911
  909SOL    HW2 3180   1.240   0.362   7.995
  910SOL     OW 3181   0.629   0.766   8.024
  910SOL    HW1 3182   0.629   0.823   0.021
  910SOL    HW2 3183   0.537   0.743   8.011
  911SOL     OW 3184   0.868   1.367   7.495
  911SOL    HW1 3185   0.826   1.399   7.575
  911SOL    HW2 3186   0.882   1.445   7.442
  912SOL     OW 3187   1.062   0.966   7.536
  912SOL    HW1 3188   1.048   1.031   7.467
  912SOL    HW2 3189   1.143   0.921   7.510
  913SOL     OW 3190   0.406   0.435   7.987
  913SOL    HW1 3191   0.449   0.370   7.932
  913SOL    HW2 3192   0.450   0.427   8.072
  914SOL     OW 3193   0.765   1.339   7.774
  914SOL    HW1 3194   0.738   1.247   7.775
  914SOL    HW2 3195   0.851   1.339   7.817
  915SOL     OW 3196   1.368   0.033   7.621
  915SOL    HW1 3197   1.381   5.279   7.543
  915SOL    HW2 3198   1.284   0.005   7.657
  916SOL     OW 3199   0.052   1.067   7.719
  916SOL    HW1 3200   0.140   1.029   7.712
  916SOL    HW2 3201   0.005   1.007   7.777
  917SOL     OW 3202   0.894   1.661   7.773
  917SOL    HW1 3203   0.818   1.635   7.722
  917SOL    HW2 3204   0.860   1.719   7.841
  918SOL     OW 3205   0.212   2.467   0.129
  918SOL    HW1 3206   0.153   2.400   0.163
  918SOL    HW2 3207   0.224   2.444   0.036
  919SOL     OW 3208   0.245   2.137   0.984
  919SOL    HW1 3209   0.258   2.102   1.072
  919SOL    HW2 3210   0.158   2.104   0.959
  920SOL     OW 3211   5.293   2.265   0.643
  920SOL    HW1 3212   5.202   2.293   0.652
  920SOL    HW2 3213   5.287   2.171   0.629
  921SOL     OW 3214   0.582   3.158   1.197
  921SOL    HW1 3215   0.500   3.163   1.147
  921SOL    HW2 3216   0.596   3.247   1.228
  922SOL     OW 3217   1.573   3.378   0.711
  922SOL    HW1 3218   1.529   3.353   0.792
  922SOL    HW2 3219   1.503   3.380   0.645
  923SOL     OW 3220   1.134   2.561   0.696
  923SOL    HW1 3221   1.181   2.643   0.684
  923SOL    HW2 3222   1.086   2.573   0.778
  924SOL     OW 3223   1.777   2.459   0.229
  924SOL    HW1 3224   1.727   2.473   0.149
  924SOL    HW2 3225   1.736   2.382   0.270
  925SOL     OW 3226   0.746   2.997   1.047
  925SOL    HW1 3227   0.684   3.035   1.110
  925SOL    HW2 3228   0.784   3.072   1.002
  926SOL     OW 3229   0.877   2.622   1.825
  926SOL    HW1 3230   0.868   2.693   1.889
  926SOL    HW2 3231   0.897   2.667   1.743
  927SOL     OW 3232   0.683   2.854   0.649
  927SOL    HW1 3233   0.750   2.849   0.717
  927SOL    HW2 3234   0.617   2.913   0.686
  928SOL     OW 3235   0.713   3.011   1.821
  928SOL    HW1 3236   0.762   3.088   1.852
  928SOL    HW2 3237   0.635   3.048   1.780
  929SOL     OW 3238   0.360   3.263   1.063
  929SOL    HW1 3239   0.272   3.258   1.026
  929SOL    HW2 3240   0.406   3.324   1.005
  930SOL     OW 3241   1.459   3.365   1.362
  930SOL    HW1 3242   1.513   3.443   1.372
  930SOL    HW2 3243   1.390   3.375   1.428
  931SOL     OW 3244   0.455   2.258   1.481
  931SOL    HW1 3245   0.529   2.198   1.488
  931SOL    HW2 3246   0.378   2.203   1.497
  932SOL     OW 3247   1.604   2.304   0.746
  932SOL    HW1 3248   1.532   2.321   0.685
  932SOL    HW2 3249   1.603   2.378   0.806
  933SOL     OW 3250   0.221   3.600   0.458
  933SOL    HW1 3251   0.258   3.655   0.527
  933SOL    HW2 3252   0.297   3.574   0.406
  934SOL     OW 3253   1.138   3.204   1.694
  934SOL    HW1 3254   1.179   3.197   1.780
  934SOL    HW2 3255   1.086   3.125   1.686
  935SOL     OW 3256   0.218   3.317   0.525
  935SOL    HW1 3257   0.192   3.408   0.539
  935SOL    HW2 3258   0.168   3.267   0.590
  936SOL     OW 3259   0.265   2.937   0.878
  936SOL    HW1 3260   0.268   2.847   0.910
  936SOL    HW2 3261   0.206   2.983   0.938
  937SOL     OW 3262   0.605   3.653   1.432
  937SOL    HW1 3263   0.521   3.637   1.475
  937SOL    HW2 3264   0.627   3.743   1.456
  938SOL     OW 3265   0.603   2.819   0.154
  938SOL    HW1 3266   0.564   2.897   0.115
  938SOL    HW2 3267   0.663   2.852   0.221
  939SOL     OW 3268   1.596   1.990   1.464
  939SOL    HW1 3269   1.619   2.071   1.418
  939SOL    HW2 3270   1.574   2.019   1.553
  940SOL     OW 3271   0.131   2.496   0.585
  940SOL    HW1 3272   0.086   2.413   0.605
  940SOL    HW2 3273   0.102   2.556   0.654
  941SOL     OW 3274   1.851   3.615   0.323
  941SOL    HW1 3275   1.919   3.588   0.384
  941SOL    HW2 3276   1.870   3.707   0.304
  942SOL     OW 3277   0.025   3.431   0.103
  942SOL    HW1 3278   0.016   3.348   0.150
  942SOL    HW2 3279   0.008   3.498   0.170
  943SOL     OW 3280   1.688   2.781   0.648
  943SOL    HW1 3281   1.768   2.735   0.620
  943SOL    HW2 3282   1.664   2.835   0.572
  944SOL     OW 3283   1.650   2.962   0.435
  944SOL    HW1 3284   1.732   2.970   0.386
  944SOL    HW2 3285   1.657   3.027   0.505
  945SOL     OW 3286   0.140   2.611   1.581
  945SOL    HW1 3287   0.235   2.623   1.578
  945SOL    HW2 3288   0.105   2.698   1.600
  946SOL     OW 3289   0.620   3.254   0.731
  946SOL    HW1 3290   0.573   3.171   0.742
  946SOL    HW2 3291   0.603   3.280   0.641
  947SOL     OW 3292   1.284   3.097   1.421
  947SOL    HW1 3293   1.314   3.029   1.361
  947SOL    HW2 3294   1.344   3.092   1.495
  948SOL     OW 3295   0.830   1.870   0.519
  948SOL    HW1 3296   0.869   1.953   0.492
  948SOL    HW2 3297   0.736   1.887   0.521
  949SOL     OW 3298   0.165   2.798   1.283
  949SOL    HW1 3299   0.256   2.767   1.277
  949SOL    HW2 3300   0.134   2.797   1.193
  950SOL     OW 3301   1.498   2.879   0.219
  950SOL    HW1 3302   1.436   2.814   0.254
  950SOL    HW2 3303   1.555   2.900   0.293
  951SOL     OW 3304   1.183   3.676   1.627
  951SOL    HW1 3305   1.188   3.738   1.554
  951SOL    HW2 3306   1.202   3.591   1.588
  952SOL     OW 3307   0.353   2.119   1.835
  952SOL    HW1 3308   0.396   2.202   1.858
  952SOL    HW2 3309   0.261   2.132   1.859
  953SOL     OW 3310   1.468   3.281   0.946
  953SOL    HW1 3311   1.401   3.297   1.013
  953SOL    HW2 3312   1.454   3.189   0.920
  954SOL     OW 3313   1.654   3.619   0.582
  954SOL    HW1 3314   1.633   3.586   0.494
  954SOL    HW2 3315   1.637   3.545   0.640
  955SOL     OW 3316   0.596   2.569   0.286
  955SOL    HW1 3317   0.612   2.653   0.244
  955SOL    HW2 3318   0.531   2.588   0.354
  956SOL     OW 3319   1.279   2.230   0.935
  956SOL    HW1 3320   1.190   2.195   0.943
  956SOL    HW2 3321   1.331   2.174   0.993
  957SOL     OW 3322   1.588   3.534   0.324
  957SOL    HW1 3323   1.680   3.558   0.314
  957SOL    HW2 3324   1.558   3.518   0.235
  958SOL     OW 3325   0.791   2.479   1.446
  958SOL    HW1 3326   0.765   2.453   1.535
  958SOL    HW2 3327   0.758   2.410   1.390
  959SOL     OW 3328   1.392   2.336   1.678
  959SOL    HW1 3329   1.396   2.381   1.762
  959SOL    HW2 3330   1.449   2.260   1.688
  960SOL     OW 3331   0.949   2.746   1.587
  960SOL    HW1 3332   1.004   2.679   1.548
  960SOL    HW2 3333   0.901   2.784   1.513
  961SOL     OW 3334   0.995   2.270   1.232
  961SOL    HW1 3335   0.905   2.287   1.260
  961SOL    HW2 3336   0.985   2.228   1.146
  962SOL     OW 3337   1.057   2.561   0.428
  962SOL    HW1 3338   1.075   2.556   0.521
  962SOL    HW2 3339   0.973   2.517   0.417
  963SOL     OW 3340   0.063   2.655   0.809
  963SOL    HW1 3341   0.142   2.658   0.863
  963SOL    HW2 3342   0.075   2.725   0.746
  964SOL     OW 3343   0.122   3.750   1.588
  964SOL    HW1 3344   0.131   3.727   1.681
  964SOL    HW2 3345   0.057   3.688   1.555
  965SOL     OW 3346   0.887   2.218   0.207
  965SOL    HW1 3347   0.931   2.270   0.140
  965SOL    HW2 3348   0.886   2.129   0.171
  966SOL     OW 3349   1.703   2.432   1.830
  966SOL    HW1 3350   1.669   2.506   1.781
  966SOL    HW2 3351   1.731   2.369   1.764
  967SOL     OW 3352   1.381   3.004   0.541
  967SOL    HW1 3353   1.459   2.994   0.487
  967SOL    HW2 3354   1.326   3.066   0.492
  968SOL     OW 3355   0.561   2.044   0.898
  968SOL    HW1 3356   0.558   2.071   0.989
  968SOL    HW2 3357   0.557   2.125   0.848
  969SOL     OW 3358   0.995   3.304   0.467
  969SOL    HW1 3359   0.965   3.380   0.418
  969SOL    HW2 3360   0.971   3.324   0.558
  970SOL     OW 3361   0.361   3.669   0.871
  970SOL    HW1 3362   0.400   3.583   0.885
  970SOL    HW2 3363   0.425   3.730   0.907
  971SOL     OW 3364   1.800   2.910   0.875
  971SOL    HW1 3365   1.747   2.892   0.797
  971SOL    HW2 3366   1.736   2.918   0.945
  972SOL     OW 3367   1.226   3.403   1.513
  972SOL    HW1 3368   1.215   3.330   1.575
  972SOL    HW2 3369   1.157   3.391   1.448
  973SOL     OW 3370   0.332   2.815   0.266
  973SOL    HW1 3371   0.414   2.816   0.217
  973SOL    HW2 3372   0.304   2.724   0.265
  974SOL     OW 3373   1.481   2.612   0.721
  974SOL    HW1 3374   1.478   2.573   0.808
  974SOL    HW2 3375   1.559   2.668   0.722
  975SOL     OW 3376   0.470   3.131   1.738
  975SOL    HW1 3377   0.443   3.136   1.646
  975SOL    HW2 3378   0.388   3.130   1.787
  976SOL     OW 3379   1.106   3.644   0.217
  976SOL    HW1 3380   1.046   3.603   0.280
  976SOL    HW2 3381   1.132   3.572   0.159
  977SOL     OW 3382   0.207   2.135   1.496
  977SOL    HW1 3383   0.131   2.188   1.476
  977SOL    HW2 3384   0.171   2.054   1.533
  978SOL     OW 3385   1.635   3.232   0.084
  978SOL    HW1 3386   1.594   3.319   0.086
  978SOL    HW2 3387   1.564   3.172   0.064
  979SOL     OW 3388   0.472   3.590   0.327
  979SOL    HW1 3389   0.517   3.652   0.384
  979SOL    HW2 3390   0.538   3.563   0.263
  980SOL     OW 3391   1.407   1.973   0.453
  980SOL    HW1 3392   1.401   1.950   0.360
  980SOL    HW2 3393   1.502   1.979   0.470
  981SOL     OW 3394   0.277   3.662   1.199
  981SOL    HW1 3395   0.305   3.579   1.238
  981SOL    HW2 3396   0.218   3.636   1.128
  982SOL     OW 3397   0.941   3.562   0.895
  982SOL    HW1 3398   1.020   3.513   0.918
  982SOL    HW2 3399   0.900   3.511   0.825
  983SOL     OW 3400   0.380   2.559   0.474
  983SOL    HW1 3401   0.410   2.469   0.486
  983SOL    HW2 3402   0.289   2.558   0.503
  984SOL     OW 3403   1.527   2.086   1.723
  984SOL    HW1 3404   1.538   2.106   1.816
  984SOL    HW2 3405   1.458   2.020   1.721
  985SOL     OW 3406   0.629   1.968   0.142
  985SOL    HW1 3407   0.724   1.957   0.143
  985SOL    HW2 3408   0.604   1.952   0.051
  986SOL     OW 3409   0.763   2.141   1.756
  986SOL    HW1 3410   0.844   2.090   1.753
  986SOL    HW2 3411   0.717   2.108   1.833
  987SOL     OW 3412   0.878   3.386   1.194
  987SOL    HW1 3413   0.859   3.347   1.108
  987SOL    HW2 3414   0.946   3.331   1.231
  988SOL     OW 3415   1.338   2.451   1.433
  988SOL    HW1 3416   1.369   2.421   1.518
  988SOL    HW2 3417   1.375   2.539   1.424
  989SOL     OW 3418   0.819   3.248   0.947
  989SOL    HW1 3419   0.905   3.238   0.905
  989SOL    HW2 3420   0.758   3.257   0.874
  990SOL     OW 3421   0.930   2.371   0.899
  990SOL    HW1 3422   0.904   2.362   0.807
  990SOL    HW2 3423   0.958   2.284   0.924
  991SOL     OW 3424   0.564   1.924   0.497
  991SOL    HW1 3425   0.489   1.922   0.556
  991SOL    HW2 3426   0.550   2.002   0.444
  992SOL     OW 3427   1.429   3.064   0.033
  992SOL    HW1 3428   1.452   2.992   0.092
  992SOL    HW2 3429   1.343   3.092   0.062
  993SOL     OW 3430   0.318   1.916   0.189
  993SOL    HW1 3431   0.387   1.982   0.193
  993SOL    HW2 3432   0.357   1.837   0.226
  994SOL     OW 3433   0.947   2.113   0.457
  994SOL    HW1 3434   0.919   2.152   0.373
  994SOL    HW2 3435   1.041   2.130   0.461
  995SOL     OW 3436   1.080   2.547   1.456
  995SOL    HW1 3437   1.014   2.477   1.460
  995SOL    HW2 3438   1.164   2.501   1.451
  996SOL     OW 3439   1.218   3.435   0.796
  996SOL    HW1 3440   1.231   3.500   0.726
  996SOL    HW2 3441   1.288   3.453   0.859
  997SOL     OW 3442   0.474   3.018   0.724
  997SOL    HW1 3443   0.406   2.995   0.788
  997SOL    HW2 3444   0.431   3.007   0.639
  998SOL     OW 3445   1.263   3.654   0.613
  998SOL    HW1 3446   1.315   3.718   0.565
  998SOL    HW2 3447   1.192   3.706   0.653
  999SOL     OW 3448   1.031   2.381   0.039
  999SOL    HW1 3449   1.001   2.466   0.008
  999SOL    HW2 3450   1.096   2.401   0.106
 1000SOL     OW 3451   0.095   2.401   1.401
 1000SOL    HW1 3452   0.182   2.410   1.363
 1000SOL    HW2 3453   0.084   2.479   1.455
 1001SOL     OW 3454   0.561   2.090   1.171
 1001SOL    HW1 3455   0.598   2.013   1.214
 1001SOL    HW2 3456   0.469   2.090   1.196
 1002SOL     OW 3457   0.867   2.318   0.638
 1002SOL    HW1 3458   0.828   2.375   0.572
 1002SOL    HW2 3459   0.891   2.238   0.591
 1003SOL     OW 3460   1.019   1.915   0.745
 1003SOL    HW1 3461   0.959   1.910   0.671
 1003SOL    HW2 3462   0.995   1.842   0.801
 1004SOL     OW 3463   1.440   3.021   0.856
 1004SOL    HW1 3464   1.367   2.959   0.857
 1004SOL    HW2 3465   1.463   3.030   0.764
 1005SOL     OW 3466   1.466   2.472   0.965
 1005SOL    HW1 3467   1.407   2.396   0.970
 1005SOL    HW2 3468   1.521   2.463   1.042
 1006SOL     OW 3469   1.851   2.671   0.391
 1006SOL    HW1 3470   1.904   2.618   0.451
 1006SOL    HW2 3471   1.821   2.609   0.325
 1007SOL     OW 3472   0.488   3.301   0.174
 1007SOL    HW1 3473   0.412   3.270   0.223
 1007SOL    HW2 3474   0.501   3.235   0.106
 1008SOL     OW 3475   1.678   3.127   0.643
 1008SOL    HW1 3476   1.772   3.125   0.660
 1008SOL    HW2 3477   1.651   3.217   0.665
 1009SOL     OW 3478   1.396   2.432   0.088
 1009SOL    HW1 3479   1.333   2.417   0.159
 1009SOL    HW2 3480   1.444   2.350   0.082
 1010SOL     OW 3481   0.511   2.127   0.321
 1010SOL    HW1 3482   0.565   2.075   0.261
 1010SOL    HW2 3483   0.495   2.209   0.274
 1011SOL     OW 3484   1.747   3.105   1.560
 1011SOL    HW1 3485   1.834   3.068   1.550
 1011SOL    HW2 3486   1.762   3.195   1.590
 1012SOL     OW 3487   1.053   3.215   1.331
 1012SOL    HW1 3488   0.978   3.183   1.380
 1012SOL    HW2 3489   1.128   3.173   1.373
 1013SOL     OW 3490   1.609   3.490   1.659
 1013SOL    HW1 3491   1.601   3.524   1.570
 1013SOL    HW2 3492   1.691   3.440   1.657
 1014SOL     OW 3493   1.136   3.073   1.102
 1014SOL    HW1 3494   1.076   3.111   1.165
 1014SOL    HW2 3495   1.108   3.109   1.017
 1015SOL     OW 3496   1.621   2.957   1.076
 1015SOL    HW1 3497   1.614   3.020   1.147
 1015SOL    HW2 3498   1.546   2.976   1.019
 1016SOL     OW 3499   0.919   1.954   1.391
 1016SOL    HW1 3500   0.941   1.936   1.300
 1016SOL    HW2 3501   0.998   1.994   1.428
 1017SOL     OW 3502   0.984   2.977   1.723
 1017SOL    HW1 3503   0.893   2.994   1.747
 1017SOL    HW2 3504   0.980   2.898   1.669
 1018SOL     OW 3505   0.722   2.927   0.383
 1018SOL    HW1 3506   0.702   2.905   0.474
 1018SOL    HW2 3507   0.799   2.875   0.362
 1019SOL     OW 3508   0.419   2.688   1.257
 1019SOL    HW1 3509   0.489   2.696   1.322
 1019SOL    HW2 3510   0.389   2.598   1.266
 1020SOL     OW 3511   1.263   2.236   1.282
 1020SOL    HW1 3512   1.295   2.314   1.327
 1020SOL    HW2 3513   1.172   2.256   1.260
 1021SOL     OW 3514   0.104   3.480   1.362
 1021SOL    HW1 3515   0.083   3.482   1.269
 1021SOL    HW2 3516   0.193   3.445   1.366
 1022SOL     OW 3517   0.342   2.981   0.485
 1022SOL    HW1 3518   0.333   3.061   0.433
 1022SOL    HW2 3519   0.352   2.911   0.420
 1023SOL     OW 3520   0.548   2.389   0.858
 1023SOL    HW1 3521   0.561   2.448   0.784
 1023SOL    HW2 3522   0.614   2.415   0.921
 1024SOL     OW 3523   1.245   3.209   0.397
 1024SOL    HW1 3524   1.300   3.281   0.427
 1024SOL    HW2 3525   1.157   3.232   0.427
 1025SOL     OW 3526   1.291   3.323   1.149
 1025SOL    HW1 3527   1.346   3.329   1.227
 1025SOL    HW2 3528   1.236   3.247   1.164
 1026SOL     OW 3529   1.576   2.481   0.489
 1026SOL    HW1 3530   1.526   2.524   0.558
 1026SOL    HW2 3531   1.600   2.551   0.429
 1027SOL     OW 3532   0.353   3.383   1.307
 1027SOL    HW1 3533   0.343   3.338   1.223
 1027SOL    HW2 3534   0.447   3.401   1.314
 1028SOL     OW 3535   0.420   2.603   1.603
 1028SOL    HW1 3536   0.483   2.648   1.547
 1028SOL    HW2 3537   0.458   2.516   1.616
 1029SOL     OW 3538   1.609   2.643   1.688
 1029SOL    HW1 3539   1.524   2.684   1.682
 1029SOL    HW2 3540   1.661   2.685   1.619
 1030SOL     OW 3541   0.996   1.996   1.755
 1030SOL    HW1 3542   1.054   2.069   1.733
 1030SOL    HW2 3543   1.045   1.918   1.729
 1031SOL     OW 3544   0.496   1.899   1.752
 1031SOL    HW1 3545   0.448   1.848   1.686
 1031SOL    HW2 3546   0.442   1.976   1.767
 1032SOL     OW 3547   0.586   2.737   1.036
 1032SOL    HW1 3548   0.621   2.826   1.035
 1032SOL    HW2 3549   0.529   2.734   1.112
 1033SOL     OW 3550   1.345   2.720   1.020
 1033SOL    HW1 3551   1.259   2.704   0.982
 1033SOL    HW2 3552   1.391   2.637   1.009
 1034SOL     OW 3553   1.197   2.386   0.269
 1034SOL    HW1 3554   1.207   2.309   0.325
 1034SOL    HW2 3555   1.156   2.451   0.326
 1035SOL     OW 3556   0.301   2.063   1.244
 1035SOL    HW1 3557   0.269   2.085   1.331
 1035SOL    HW2 3558   0.290   1.968   1.237
 1036SOL     OW 3559   0.050   3.170   1.275
 1036SOL    HW1 3560   0.084   3.115   1.346
 1036SOL    HW2 3561   5.279   3.221   1.316
 1037SOL     OW 3562   0.718   2.490   1.051
 1037SOL    HW1 3563   0.796   2.479   0.996
 1037SOL    HW2 3564   0.690   2.580   1.035
 1038SOL     OW 3565   1.739   2.821   1.860
 1038SOL    HW1 3566   1.696   2.753   1.808
 1038SOL    HW2 3567   1.678   2.840   1.931
 1039SOL     OW 3568   0.325   1.925   0.634
 1039SOL    HW1 3569   0.310   2.016   0.661
 1039SOL    HW2 3570   0.335   1.877   0.715
 1040SOL     OW 3571   1.631   2.244   0.362
 1040SOL    HW1 3572   1.656   2.176   0.425
 1040SOL    HW2 3573   1.603   2.318   0.416
 1041SOL     OW 3574   1.030   2.619   0.958
 1041SOL    HW1 3575   1.019   2.636   1.051
 1041SOL    HW2 3576   1.002   2.528   0.946
 1042SOL     OW 3577   0.981   3.428   1.723
 1042SOL    HW1 3578   0.965   3.472   1.639
 1042SOL    HW2 3579   1.025   3.346   1.699
 1043SOL     OW 3580   1.850   3.363   1.603
 1043SOL    HW1 3581   1.873   3.390   1.515
 1043SOL    HW2 3582   1.930   3.376   1.654
 1044SOL     OW 3583   0.357   2.781   1.807
 1044SOL    HW1 3584   0.437   2.800   1.857
 1044SOL    HW2 3585   0.385   2.715   1.742
 1045SOL     OW 3586   1.503   2.174   0.129
 1045SOL    HW1 3587   1.458   2.091   0.147
 1045SOL    HW2 3588   1.550   2.194   0.210
 1046SOL     OW 3589   1.300   2.680   0.022
 1046SOL    HW1 3590   1.335   2.592   0.035
 1046SOL    HW2 3591   1.367   2.725   8.049
 1047SOL     OW 3592   1.071   3.202   0.858
 1047SOL    HW1 3593   1.076   3.130   0.795
 1047SOL    HW2 3594   1.127   3.270   0.822
 1048SOL     OW 3595   0.309   2.668   0.949
 1048SOL    HW1 3596   0.403   2.688   0.946
 1048SOL    HW2 3597   0.305   2.577   0.979
 1049SOL     OW 3598   0.330   2.390   1.017
 1049SOL    HW1 3599   0.295   2.302   1.004
 1049SOL    HW2 3600   0.406   2.394   0.959
 1050SOL     OW 3601   1.134   2.233   1.687
 1050SOL    HW1 3602   1.086   2.288   1.749
 1050SOL    HW2 3603   1.221   2.274   1.682
 1051SOL     OW 3604   1.161   2.059   1.473
 1051SOL    HW1 3605   1.149   2.122   1.544
 1051SOL    HW2 3606   1.203   2.109   1.403
 1052SOL     OW 3607   0.018   3.173   0.200
 1052SOL    HW1 3608   5.255   3.142   0.134
 1052SOL    HW2 3609   0.015   3.106   0.269
 1053SOL     OW 3610   0.101   3.644   0.955
 1053SOL    HW1 3611   0.062   3.581   0.895
 1053SOL    HW2 3612   0.188   3.662   0.918
 1054SOL     OW 3613   0.503   3.435   0.908
 1054SOL    HW1 3614   0.570   3.501   0.927
 1054SOL    HW2 3615   0.545   3.376   0.846
 1055SOL     OW 3616   0.971   2.647   1.222
 1055SOL    HW1 3617   1.031   2.630   1.295
 1055SOL    HW2 3618   0.888   2.609   1.250
 1056SOL     OW 3619   0.030   2.429   1.119
 1056SOL    HW1 3620   0.120   2.415   1.088
 1056SOL    HW2 3621   0.034   2.409   1.213
 1057SOL     OW 3622   0.165   2.376   1.715
 1057SOL    HW1 3623   0.227   2.331   1.656
 1057SOL    HW2 3624   0.147   2.459   1.671
 1058SOL     OW 3625   1.382   2.794   1.656
 1058SOL    HW1 3626   1.403   2.887   1.653
 1058SOL    HW2 3627   1.377   2.767   1.565
 1059SOL     OW 3628   0.822   2.431   0.376
 1059SOL    HW1 3629   0.831   2.359   0.314
 1059SOL    HW2 3630   0.745   2.479   0.346
 1060SOL     OW 3631   1.638   2.462   1.178
 1060SOL    HW1 3632   1.629   2.405   1.254
 1060SOL    HW2 3633   1.727   2.445   1.145
 1061SOL     OW 3634   0.253   3.415   1.732
 1061SOL    HW1 3635   0.235   3.479   1.800
 1061SOL    HW2 3636   0.253   3.331   1.777
 1062SOL     OW 3637   0.716   2.306   1.252
 1062SOL    HW1 3638   0.659   2.234   1.228
 1062SOL    HW2 3639   0.706   2.370   1.181
 1063SOL     OW 3640   0.922   3.540   1.472
 1063SOL    HW1 3641   0.898   3.500   1.388
 1063SOL    HW2 3642   0.916   3.634   1.456
 1064SOL     OW 3643   0.467   2.353   0.173
 1064SOL    HW1 3644   0.530   2.418   0.203
 1064SOL    HW2 3645   0.382   2.397   0.177
 1065SOL     OW 3646   0.145   2.999   1.469
 1065SOL    HW1 3647   0.142   2.955   1.554
 1065SOL    HW2 3648   0.153   2.928   1.405
 1066SOL     OW 3649   1.319   2.904   1.218
 1066SOL    HW1 3650   1.340   2.841   1.150
 1066SOL    HW2 3651   1.254   2.962   1.179
 1067SOL     OW 3652   1.305   2.706   0.310
 1067SOL    HW1 3653   1.228   2.675   0.357
 1067SOL    HW2 3654   1.284   2.693   0.217
 1068SOL     OW 3655   1.780   3.598   1.158
 1068SOL    HW1 3656   1.840   3.624   1.088
 1068SOL    HW2 3657   1.752   3.509   1.134
 1069SOL     OW 3658   1.240   3.594   1.104
 1069SOL    HW1 3659   1.323   3.619   1.063
 1069SOL    HW2 3660   1.250   3.502   1.125
 1070SOL     OW 3661   0.080   3.060   1.027
 1070SOL    HW1 3662   0.064   3.092   1.116
 1070SOL    HW2 3663   5.293   3.057   0.987
 1071SOL     OW 3664   0.679   3.535   1.740
 1071SOL    HW1 3665   0.618   3.608   1.730
 1071SOL    HW2 3666   0.747   3.551   1.674
 1072SOL     OW 3667   0.905   1.954   0.125
 1072SOL    HW1 3668   0.911   1.932   0.032
 1072SOL    HW2 3669   0.975   1.903   0.167
 1073SOL     OW 3670   1.727   2.017   0.505
 1073SOL    HW1 3671   1.795   1.997   0.440
 1073SOL    HW2 3672   1.709   1.933   0.547
 1074SOL     OW 3673   1.392   3.430   0.494
 1074SOL    HW1 3674   1.453   3.464   0.429
 1074SOL    HW2 3675   1.342   3.506   0.522
 1075SOL     OW 3676   0.151   3.659   1.843
 1075SOL    HW1 3677   0.097   3.597   1.892
 1075SOL    HW2 3678   0.204   3.702   1.910
 1076SOL     OW 3679   1.278   2.791   0.672
 1076SOL    HW1 3680   1.352   2.730   0.681
 1076SOL    HW2 3681   1.311   2.862   0.617
 1077SOL     OW 3682   0.803   3.139   1.423
 1077SOL    HW1 3683   0.775   3.181   1.504
 1077SOL    HW2 3684   0.731   3.155   1.361
 1078SOL     OW 3685   0.677   3.488   0.155
 1078SOL    HW1 3686   0.685   3.498   0.060
 1078SOL    HW2 3687   0.617   3.414   0.166
 1079SOL     OW 3688   1.618   3.590   1.392
 1079SOL    HW1 3689   1.673   3.594   1.313
 1079SOL    HW2 3690   1.604   3.681   1.416
 1080SOL     OW 3691   1.843   2.031   0.964
 1080SOL    HW1 3692   1.871   1.943   0.941
 1080SOL    HW2 3693   1.755   2.040   0.926
 1081SOL     OW 3694   0.271   2.179   0.713
 1081SOL    HW1 3695   0.187   2.224   0.698
 1081SOL    HW2 3696   0.276   2.169   0.808
 1082SOL     OW 3697   1.167   3.438   0.051
 1082SOL    HW1 3698   1.173   3.346   0.077
 1082SOL    HW2 3699   1.179   3.437   8.036
 1083SOL     OW 3700   0.824   2.869   1.376
 1083SOL    HW1 3701   0.866   2.863   1.290
 1083SOL    HW2 3702   0.819   2.963   1.393
 1084SOL     OW 3703   0.923   2.774   0.300
 1084SOL    HW1 3704   0.974   2.796   0.222
 1084SOL    HW2 3705   0.972   2.705   0.343
 1085SOL     OW 3706   1.508   3.481   0.064
 1085SOL    HW1 3707   1.413   3.483   0.051
 1085SOL    HW2 3708   1.545   3.492   8.056
 1086SOL     OW 3709   0.366   3.167   1.494
 1086SOL    HW1 3710   0.359   3.240   1.433
 1086SOL    HW2 3711   0.291   3.111   1.474
 1087SOL     OW 3712   1.606   3.147   1.279
 1087SOL    HW1 3713   1.666   3.130   1.352
 1087SOL    HW2 3714   1.546   3.214   1.311
 1088SOL     OW 3715   1.063   2.973   0.713
 1088SOL    HW1 3716   0.990   2.923   0.749
 1088SOL    HW2 3717   1.126   2.907   0.685
 1089SOL     OW 3718   1.026   2.104   0.965
 1089SOL    HW1 3719   1.022   2.058   0.881
 1089SOL    HW2 3720   1.019   2.035   1.031
 1090SOL     OW 3721   0.606   3.346   0.475
 1090SOL    HW1 3722   0.652   3.297   0.406
 1090SOL    HW2 3723   0.536   3.391   0.429
 1091SOL     OW 3724   1.728   2.253   1.380
 1091SOL    HW1 3725   1.800   2.317   1.379
 1091SOL    HW2 3726   1.758   2.183   1.322
 1092SOL     OW 3727   0.274   3.186   0.300
 1092SOL    HW1 3728   0.189   3.190   0.255
 1092SOL    HW2 3729   0.261   3.237   0.380
 1093SOL     OW 3730   0.122   2.879   1.715
 1093SOL    HW1 3731   0.052   2.844   1.771
 1093SOL    HW2 3732   0.202   2.848   1.756
 1094SOL     OW 3733   0.677   2.056   1.500
 1094SOL    HW1 3734   0.761   2.034   1.460
 1094SOL    HW2 3735   0.700   2.090   1.587
 1095SOL     OW 3736   0.045   2.238   0.024
 1095SOL    HW1 3737   0.019   2.165   0.080
 1095SOL    HW2 3738   0.128   2.211   8.065
 1096SOL     OW 3739   1.424   2.718   1.396
 1096SOL    HW1 3740   1.374   2.780   1.342
 1096SOL    HW2 3741   1.513   2.722   1.360
 1097SOL     OW 3742   0.060   2.002   0.198
 1097SOL    HW1 3743   0.061   2.080   0.255
 1097SOL    HW2 3744   0.151   1.972   0.198
 1098SOL     OW 3745   1.182   3.171   0.121
 1098SOL    HW1 3746   1.086   3.169   0.115
 1098SOL    HW2 3747   1.200   3.172   0.215
 1099SOL     OW 3748   0.622   2.694   1.438
 1099SOL    HW1 3749   0.679   2.769   1.423
 1099SOL    HW2 3750   0.681   2.619   1.443
 1100SOL     OW 3751   1.483   3.648   0.983
 1100SOL    HW1 3752   1.506   3.716   0.919
 1100SOL    HW2 3753   1.568   3.620   1.019
 1101SOL     OW 3754   0.718   2.421   1.700
 1101SOL    HW1 3755   0.764   2.479   1.760
 1101SOL    HW2 3756   0.736   2.333   1.733
 1102SOL     OW 3757   1.474   3.055   1.628
 1102SOL    HW1 3758   1.462   3.071   1.721
 1102SOL    HW2 3759   1.566   3.075   1.611
 1103SOL     OW 3760   0.369   3.609   1.566
 1103SOL    HW1 3761   0.287   3.654   1.548
 1103SOL    HW2 3762   0.342   3.528   1.609
 1104SOL     OW 3763   1.663   2.741   1.255
 1104SOL    HW1 3764   1.659   2.656   1.210
 1104SOL    HW2 3765   1.652   2.805   1.184
 1105SOL     OW 3766   1.218   2.180   0.461
 1105SOL    HW1 3767   1.281   2.108   0.457
 1105SOL    HW2 3768   1.245   2.232   0.536
 1106SOL     OW 3769   0.582   2.594   0.673
 1106SOL    HW1 3770   0.623   2.679   0.661
 1106SOL    HW2 3771   0.514   2.590   0.606
 1107SOL     OW 3772   1.756   2.225   1.653
 1107SOL    HW1 3773   1.741   2.242   1.560
 1107SOL    HW2 3774   1.683   2.169   1.678
 1108SOL     OW 3775   1.750   2.794   1.510
 1108SOL    HW1 3776   1.739   2.888   1.524
 1108SOL    HW2 3777   1.731   2.781   1.418
 1109SOL     OW 3778   0.907   3.228   0.058
 1109SOL    HW1 3779   0.847   3.215   0.132
 1109SOL    HW2 3780   0.874   3.307   0.014
 1110SOL     OW 3781   0.668   3.650   0.935
 1110SOL    HW1 3782   0.649   3.742   0.916
 1110SOL    HW2 3783   0.763   3.643   0.930
 1111SOL     OW 3784   0.870   2.832   0.854
 1111SOL    HW1 3785   0.921   2.760   0.892
 1111SOL    HW2 3786   0.832   2.876   0.930
 1112SOL     OW 3787   1.076   2.827   0.083
 1112SOL    HW1 3788   1.072   2.900   0.022
 1112SOL    HW2 3789   1.154   2.778   0.056
 1113SOL     OW 3790   1.846   3.414   0.840
 1113SOL    HW1 3791   1.765   3.403   0.790
 1113SOL    HW2 3792   1.836   3.353   0.913
 1114SOL     OW 3793   0.231   3.163   1.863
 1114SOL    HW1 3794   0.165   3.099   1.835
 1114SOL    HW2 3795   0.216   3.173   1.957
 1115SOL     OW 3796   0.112   3.102   0.666
 1115SOL    HW1 3797   0.110   3.055   0.749
 1115SOL    HW2 3798   0.174   3.053   0.612
 1116SOL     OW 3799   0.686   3.270   1.632
 1116SOL    HW1 3800   0.606   3.229   1.665
 1116SOL    HW2 3801   0.683   3.359   1.668
 1117SOL     OW 3802   1.813   2.043   1.235
 1117SOL    HW1 3803   1.816   1.948   1.248
 1117SOL    HW2 3804   1.823   2.055   1.141
 1118SOL     OW 3805   0.434   2.302   0.523
 1118SOL    HW1 3806   0.464   2.230   0.468
 1118SOL    HW2 3807   0.388   2.260   0.595
 1119SOL     OW 3808   1.698   3.347   1.089
 1119SOL    HW1 3809   1.618   3.327   1.040
 1119SOL    HW2 3810   1.702   3.278   1.156
 1120SOL     OW 3811   0.344   2.427   1.294
 1120SOL    HW1 3812   0.396   2.367   1.347
 1120SOL    HW2 3813   0.355   2.396   1.204
 1121SOL     OW 3814   0.834   3.440   0.675
 1121SOL    HW1 3815   0.812   3.505   0.608
 1121SOL    HW2 3816   0.759   3.380   0.676
 1122SOL     OW 3817   1.429   2.091   1.117
 1122SOL    HW1 3818   1.445   2.007   1.158
 1122SOL    HW2 3819   1.378   2.141   1.182
 1123SOL     OW 3820   1.009   1.878   1.134
 1123SOL    HW1 3821   0.954   1.813   1.091
 1123SOL    HW2 3822   1.096   1.839   1.136
 1124SOL     OW 3823   0.778   3.188   0.310
 1124SOL    HW1 3824   0.750   3.099   0.330
 1124SOL    HW2 3825   0.856   3.202   0.364
 1125SOL     OW 3826   0.625   3.418   1.291
 1125SOL    HW1 3827   0.624   3.500   1.340
 1125SOL    HW2 3828   0.712   3.414   1.252
 1126SOL     OW 3829   1.355   1.918   0.190
 1126SOL    HW1 3830   1.371   1.875   0.106
 1126SOL    HW2 3831   1.268   1.887   0.215
 1127SOL     OW 3832   1.297   2.327   0.678
 1127SOL    HW1 3833   1.245   2.407   0.682
 1127SOL    HW2 3834   1.291   2.291   0.767
 1128SOL     OW 3835   1.584   2.056   0.884
 1128SOL    HW1 3836   1.528   2.081   0.958
 1128SOL    HW2 3837   1.583   2.133   0.827
 1129SOL     OW 3838   0.050   2.927   0.344
 1129SOL    HW1 3839   0.138   2.913   0.308
 1129SOL    HW2 3840   5.299   2.852   0.315
 1130SOL     OW 3841   0.887   3.524   0.344
 1130SOL    HW1 3842   0.816   3.510   0.282
 1130SOL    HW2 3843   0.858   3.598   0.398
 1131SOL     OW 3844   0.230   2.485   1.982
 1131SOL    HW1 3845   0.163   2.442   2.036
 1131SOL    HW2 3846   0.207   2.461   1.892
 1132SOL     OW 3847   0.247   2.138   2.848
 1132SOL    HW1 3848   0.260   2.102   2.936
 1132SOL    HW2 3849   0.161   2.106   2.822
 1133SOL     OW 3850   5.295   2.265   2.519
 1133SOL    HW1 3851   5.202   2.286   2.519
 1133SOL    HW2 3852   0.000   2.178   2.480
 1134SOL     OW 3853   0.582   3.158   3.058
 1134SOL    HW1 3854   0.500   3.163   3.008
 1134SOL    HW2 3855   0.596   3.247   3.090
 1135SOL     OW 3856   1.573   3.377   2.571
 1135SOL    HW1 3857   1.529   3.353   2.653
 1135SOL    HW2 3858   1.503   3.380   2.506
 1136SOL     OW 3859   1.133   2.561   2.556
 1136SOL    HW1 3860   1.181   2.643   2.544
 1136SOL    HW2 3861   1.086   2.572   2.638
 1137SOL     OW 3862   1.780   2.459   2.087
 1137SOL    HW1 3863   1.752   2.455   1.995
 1137SOL    HW2 3864   1.739   2.383   2.128
 1138SOL     OW 3865   0.745   2.996   2.908
 1138SOL    HW1 3866   0.684   3.034   2.972
 1138SOL    HW2 3867   0.784   3.072   2.864
 1139SOL     OW 3868   0.877   2.622   3.687
 1139SOL    HW1 3869   0.867   2.693   3.751
 1139SOL    HW2 3870   0.897   2.667   3.605
 1140SOL     OW 3871   0.685   2.857   2.506
 1140SOL    HW1 3872   0.752   2.850   2.574
 1140SOL    HW2 3873   0.618   2.914   2.544
 1141SOL     OW 3874   0.713   3.011   3.683
 1141SOL    HW1 3875   0.762   3.088   3.714
 1141SOL    HW2 3876   0.635   3.048   3.642
 1142SOL     OW 3877   0.360   3.263   2.924
 1142SOL    HW1 3878   0.269   3.267   2.894
 1142SOL    HW2 3879   0.407   3.324   2.867
 1143SOL     OW 3880   1.456   3.367   3.222
 1143SOL    HW1 3881   1.512   3.444   3.232
 1143SOL    HW2 3882   1.389   3.377   3.289
 1144SOL     OW 3883   0.455   2.258   3.344
 1144SOL    HW1 3884   0.529   2.198   3.350
 1144SOL    HW2 3885   0.378   2.203   3.360
 1145SOL     OW 3886   1.604   2.303   2.607
 1145SOL    HW1 3887   1.532   2.321   2.547
 1145SOL    HW2 3888   1.606   2.379   2.666
 1146SOL     OW 3889   0.243   3.574   2.338
 1146SOL    HW1 3890   0.267   3.647   2.395
 1146SOL    HW2 3891   0.307   3.577   2.267
 1147SOL     OW 3892   1.137   3.204   3.556
 1147SOL    HW1 3893   1.180   3.197   3.642
 1147SOL    HW2 3894   1.086   3.124   3.548
 1148SOL     OW 3895   0.215   3.313   2.409
 1148SOL    HW1 3896   0.228   3.406   2.388
 1148SOL    HW2 3897   0.143   3.313   2.472
 1149SOL     OW 3898   0.257   2.937   2.732
 1149SOL    HW1 3899   0.267   2.848   2.767
 1149SOL    HW2 3900   0.202   2.982   2.796
 1150SOL     OW 3901   0.605   3.653   3.294
 1150SOL    HW1 3902   0.521   3.637   3.337
 1150SOL    HW2 3903   0.627   3.743   3.318
 1151SOL     OW 3904   0.575   2.849   2.003
 1151SOL    HW1 3905   0.625   2.893   1.934
 1151SOL    HW2 3906   0.614   2.879   2.085
 1152SOL     OW 3907   1.595   1.988   3.329
 1152SOL    HW1 3908   1.620   2.067   3.280
 1152SOL    HW2 3909   1.574   2.020   3.417
 1153SOL     OW 3910   0.128   2.490   2.443
 1153SOL    HW1 3911   0.089   2.410   2.477
 1153SOL    HW2 3912   0.101   2.558   2.504
 1154SOL     OW 3913   1.844   3.615   2.192
 1154SOL    HW1 3914   1.914   3.590   2.252
 1154SOL    HW2 3915   1.861   3.707   2.172
 1155SOL     OW 3916   0.039   3.462   1.998
 1155SOL    HW1 3917   0.028   3.370   2.023
 1155SOL    HW2 3918   5.273   3.509   2.049
 1156SOL     OW 3919   1.688   2.781   2.507
 1156SOL    HW1 3920   1.771   2.738   2.484
 1156SOL    HW2 3921   1.666   2.833   2.429
 1157SOL     OW 3922   1.651   2.965   2.292
 1157SOL    HW1 3923   1.737   2.965   2.251
 1157SOL    HW2 3924   1.658   3.028   2.363
 1158SOL     OW 3925   0.140   2.611   3.443
 1158SOL    HW1 3926   0.235   2.623   3.439
 1158SOL    HW2 3927   0.105   2.698   3.462
 1159SOL     OW 3928   0.619   3.253   2.595
 1159SOL    HW1 3929   0.573   3.170   2.605
 1159SOL    HW2 3930   0.602   3.281   2.505
 1160SOL     OW 3931   1.283   3.097   3.282
 1160SOL    HW1 3932   1.314   3.029   3.222
 1160SOL    HW2 3933   1.341   3.091   3.357
 1161SOL     OW 3934   0.830   1.866   2.377
 1161SOL    HW1 3935   0.870   1.949   2.352
 1161SOL    HW2 3936   0.736   1.885   2.380
 1162SOL     OW 3937   0.166   2.798   3.145
 1162SOL    HW1 3938   0.257   2.767   3.139
 1162SOL    HW2 3939   0.133   2.793   3.055
 1163SOL     OW 3940   1.531   2.862   2.063
 1163SOL    HW1 3941   1.462   2.805   2.096
 1163SOL    HW2 3942   1.574   2.896   2.141
 1164SOL     OW 3943   1.183   3.676   3.489
 1164SOL    HW1 3944   1.188   3.738   3.416
 1164SOL    HW2 3945   1.201   3.591   3.450
 1165SOL     OW 3946   0.353   2.119   3.697
 1165SOL    HW1 3947   0.396   2.202   3.720
 1165SOL    HW2 3948   0.261   2.132   3.721
 1166SOL     OW 3949   1.468   3.281   2.808
 1166SOL    HW1 3950   1.401   3.297   2.874
 1166SOL    HW2 3951   1.454   3.189   2.782
 1167SOL     OW 3952   1.651   3.619   2.438
 1167SOL    HW1 3953   1.634   3.584   2.351
 1167SOL    HW2 3954   1.635   3.545   2.497
 1168SOL     OW 3955   0.593   2.578   2.135
 1168SOL    HW1 3956   0.599   2.661   2.089
 1168SOL    HW2 3957   0.527   2.593   2.203
 1169SOL     OW 3958   1.279   2.230   2.797
 1169SOL    HW1 3959   1.190   2.195   2.805
 1169SOL    HW2 3960   1.331   2.175   2.855
 1170SOL     OW 3961   1.578   3.536   2.173
 1170SOL    HW1 3962   1.670   3.560   2.165
 1170SOL    HW2 3963   1.549   3.519   2.083
 1171SOL     OW 3964   0.791   2.480   3.308
 1171SOL    HW1 3965   0.765   2.453   3.396
 1171SOL    HW2 3966   0.757   2.410   3.252
 1172SOL     OW 3967   1.392   2.336   3.540
 1172SOL    HW1 3968   1.396   2.381   3.625
 1172SOL    HW2 3969   1.448   2.259   3.551
 1173SOL     OW 3970   0.949   2.746   3.449
 1173SOL    HW1 3971   1.004   2.679   3.410
 1173SOL    HW2 3972   0.901   2.784   3.375
 1174SOL     OW 3973   0.995   2.270   3.094
 1174SOL    HW1 3974   0.905   2.286   3.122
 1174SOL    HW2 3975   0.986   2.228   3.008
 1175SOL     OW 3976   1.054   2.560   2.286
 1175SOL    HW1 3977   1.073   2.554   2.379
 1175SOL    HW2 3978   0.971   2.515   2.275
 1176SOL     OW 3979   0.064   2.656   2.669
 1176SOL    HW1 3980   0.144   2.659   2.721
 1176SOL    HW2 3981   0.075   2.725   2.605
 1177SOL     OW 3982   0.121   3.750   3.450
 1177SOL    HW1 3983   0.131   3.727   3.543
 1177SOL    HW2 3984   0.056   3.688   3.417
 1178SOL     OW 3985   0.899   2.213   2.058
 1178SOL    HW1 3986   0.939   2.277   1.998
 1178SOL    HW2 3987   0.908   2.129   2.012
 1179SOL     OW 3988   1.712   2.435   3.695
 1179SOL    HW1 3989   1.673   2.508   3.647
 1179SOL    HW2 3990   1.733   2.370   3.628
 1180SOL     OW 3991   1.381   3.004   2.401
 1180SOL    HW1 3992   1.461   2.993   2.348
 1180SOL    HW2 3993   1.328   3.066   2.351
 1181SOL     OW 3994   0.562   2.042   2.760
 1181SOL    HW1 3995   0.559   2.072   2.851
 1181SOL    HW2 3996   0.554   2.122   2.709
 1182SOL     OW 3997   0.998   3.305   2.330
 1182SOL    HW1 3998   0.969   3.381   2.279
 1182SOL    HW2 3999   0.974   3.326   2.420
 1183SOL     OW 4000   0.361   3.671   2.734
 1183SOL    HW1 4001   0.400   3.585   2.747
 1183SOL    HW2 4002   0.426   3.733   2.768
 1184SOL     OW 4003   1.798   2.910   2.736
 1184SOL    HW1 4004   1.746   2.893   2.657
 1184SOL    HW2 4005   1.734   2.918   2.806
 1185SOL     OW 4006   1.226   3.403   3.376
 1185SOL    HW1 4007   1.214   3.330   3.437
 1185SOL    HW2 4008   1.158   3.390   3.310
 1186SOL     OW 4009   0.311   2.812   2.115
 1186SOL    HW1 4010   0.391   2.836   2.069
 1186SOL    HW2 4011   0.290   2.724   2.083
 1187SOL     OW 4012   1.482   2.612   2.582
 1187SOL    HW1 4013   1.479   2.573   2.670
 1187SOL    HW2 4014   1.559   2.668   2.582
 1188SOL     OW 4015   0.470   3.131   3.600
 1188SOL    HW1 4016   0.443   3.136   3.508
 1188SOL    HW2 4017   0.388   3.129   3.649
 1189SOL     OW 4018   1.126   3.640   2.090
 1189SOL    HW1 4019   1.050   3.601   2.133
 1189SOL    HW2 4020   1.150   3.577   2.022
 1190SOL     OW 4021   0.208   2.135   3.359
 1190SOL    HW1 4022   0.131   2.189   3.338
 1190SOL    HW2 4023   0.171   2.055   3.395
 1191SOL     OW 4024   1.629   3.244   1.954
 1191SOL    HW1 4025   1.588   3.329   1.939
 1191SOL    HW2 4026   1.561   3.180   1.932
 1192SOL     OW 4027   0.472   3.597   2.178
 1192SOL    HW1 4028   0.518   3.653   2.241
 1192SOL    HW2 4029   0.541   3.563   2.122
 1193SOL     OW 4030   1.400   1.968   2.304
 1193SOL    HW1 4031   1.392   1.943   2.212
 1193SOL    HW2 4032   1.494   1.973   2.319
 1194SOL     OW 4033   0.276   3.662   3.062
 1194SOL    HW1 4034   0.306   3.578   3.098
 1194SOL    HW2 4035   0.218   3.638   2.990
 1195SOL     OW 4036   0.942   3.562   2.757
 1195SOL    HW1 4037   1.022   3.514   2.779
 1195SOL    HW2 4038   0.901   3.511   2.688
 1196SOL     OW 4039   0.386   2.555   2.339
 1196SOL    HW1 4040   0.415   2.464   2.349
 1196SOL    HW2 4041   0.293   2.552   2.362
 1197SOL     OW 4042   1.527   2.088   3.587
 1197SOL    HW1 4043   1.537   2.108   3.680
 1197SOL    HW2 4044   1.459   2.021   3.584
 1198SOL     OW 4045   0.646   1.978   1.963
 1198SOL    HW1 4046   0.705   1.905   1.981
 1198SOL    HW2 4047   0.592   1.949   1.890
 1199SOL     OW 4048   0.764   2.141   3.619
 1199SOL    HW1 4049   0.844   2.090   3.615
 1199SOL    HW2 4050   0.717   2.108   3.695
 1200SOL     OW 4051   0.877   3.386   3.056
 1200SOL    HW1 4052   0.859   3.348   2.970
 1200SOL    HW2 4053   0.946   3.331   3.093
 1201SOL     OW 4054   1.337   2.451   3.295
 1201SOL    HW1 4055   1.369   2.421   3.380
 1201SOL    HW2 4056   1.373   2.539   3.285
 1202SOL     OW 4057   0.820   3.248   2.809
 1202SOL    HW1 4058   0.905   3.238   2.767
 1202SOL    HW2 4059   0.758   3.257   2.737
 1203SOL     OW 4060   0.930   2.372   2.761
 1203SOL    HW1 4061   0.904   2.363   2.669
 1203SOL    HW2 4062   0.958   2.284   2.786
 1204SOL     OW 4063   0.565   1.924   2.353
 1204SOL    HW1 4064   0.489   1.924   2.412
 1204SOL    HW2 4065   0.553   2.001   2.298
 1205SOL     OW 4066   1.428   3.063   1.900
 1205SOL    HW1 4067   1.457   2.989   1.952
 1205SOL    HW2 4068   1.343   3.086   1.937
 1206SOL     OW 4069   0.307   1.906   2.037
 1206SOL    HW1 4070   0.366   1.974   2.004
 1206SOL    HW2 4071   0.364   1.846   2.084
 1207SOL     OW 4072   0.945   2.112   2.316
 1207SOL    HW1 4073   0.920   2.151   2.232
 1207SOL    HW2 4074   1.039   2.129   2.323
 1208SOL     OW 4075   1.080   2.547   3.318
 1208SOL    HW1 4076   1.015   2.477   3.321
 1208SOL    HW2 4077   1.164   2.502   3.312
 1209SOL     OW 4078   1.218   3.436   2.657
 1209SOL    HW1 4079   1.232   3.500   2.588
 1209SOL    HW2 4080   1.288   3.453   2.720
 1210SOL     OW 4081   0.471   3.017   2.584
 1210SOL    HW1 4082   0.404   2.993   2.647
 1210SOL    HW2 4083   0.430   3.003   2.498
 1211SOL     OW 4084   1.263   3.654   2.475
 1211SOL    HW1 4085   1.311   3.716   2.421
 1211SOL    HW2 4086   1.193   3.706   2.515
 1212SOL     OW 4087   1.024   2.395   1.889
 1212SOL    HW1 4088   0.981   2.478   1.869
 1212SOL    HW2 4089   1.089   2.417   1.956
 1213SOL     OW 4090   0.096   2.399   3.264
 1213SOL    HW1 4091   0.183   2.409   3.225
 1213SOL    HW2 4092   0.084   2.478   3.317
 1214SOL     OW 4093   0.561   2.091   3.033
 1214SOL    HW1 4094   0.598   2.014   3.076
 1214SOL    HW2 4095   0.469   2.090   3.058
 1215SOL     OW 4096   0.867   2.319   2.499
 1215SOL    HW1 4097   0.823   2.375   2.435
 1215SOL    HW2 4098   0.890   2.240   2.450
 1216SOL     OW 4099   1.019   1.916   2.608
 1216SOL    HW1 4100   0.959   1.910   2.533
 1216SOL    HW2 4101   0.996   1.842   2.664
 1217SOL     OW 4102   1.440   3.021   2.719
 1217SOL    HW1 4103   1.368   2.958   2.719
 1217SOL    HW2 4104   1.465   3.030   2.627
 1218SOL     OW 4105   1.465   2.473   2.827
 1218SOL    HW1 4106   1.408   2.397   2.831
 1218SOL    HW2 4107   1.522   2.464   2.904
 1219SOL     OW 4108   1.841   2.671   2.249
 1219SOL    HW1 4109   1.900   2.622   2.306
 1219SOL    HW2 4110   1.817   2.608   2.180
 1220SOL     OW 4111   0.491   3.286   2.015
 1220SOL    HW1 4112   0.416   3.258   2.067
 1220SOL    HW2 4113   0.485   3.234   1.934
 1221SOL     OW 4114   1.678   3.126   2.504
 1221SOL    HW1 4115   1.772   3.124   2.519
 1221SOL    HW2 4116   1.652   3.215   2.525
 1222SOL     OW 4117   1.393   2.435   1.933
 1222SOL    HW1 4118   1.332   2.414   2.003
 1222SOL    HW2 4119   1.478   2.405   1.965
 1223SOL     OW 4120   0.526   2.123   2.170
 1223SOL    HW1 4121   0.577   2.080   2.102
 1223SOL    HW2 4122   0.499   2.206   2.131
 1224SOL     OW 4123   1.724   3.121   3.415
 1224SOL    HW1 4124   1.808   3.085   3.386
 1224SOL    HW2 4125   1.747   3.205   3.454
 1225SOL     OW 4126   1.053   3.215   3.192
 1225SOL    HW1 4127   0.977   3.184   3.242
 1225SOL    HW2 4128   1.128   3.173   3.234
 1226SOL     OW 4129   1.610   3.491   3.521
 1226SOL    HW1 4130   1.600   3.525   3.432
 1226SOL    HW2 4131   1.692   3.442   3.519
 1227SOL     OW 4132   1.136   3.073   2.963
 1227SOL    HW1 4133   1.075   3.111   3.027
 1227SOL    HW2 4134   1.107   3.109   2.879
 1228SOL     OW 4135   1.621   2.959   2.938
 1228SOL    HW1 4136   1.613   3.021   3.011
 1228SOL    HW2 4137   1.546   2.978   2.882
 1229SOL     OW 4138   0.919   1.953   3.254
 1229SOL    HW1 4139   0.941   1.936   3.162
 1229SOL    HW2 4140   0.998   1.993   3.290
 1230SOL     OW 4141   0.984   2.977   3.586
 1230SOL    HW1 4142   0.893   2.994   3.609
 1230SOL    HW2 4143   0.980   2.898   3.531
 1231SOL     OW 4144   0.709   2.924   2.234
 1231SOL    HW1 4145   0.696   2.903   2.326
 1231SOL    HW2 4146   0.785   2.871   2.208
 1232SOL     OW 4147   0.420   2.688   3.119
 1232SOL    HW1 4148   0.489   2.696   3.184
 1232SOL    HW2 4149   0.389   2.598   3.128
 1233SOL     OW 4150   1.263   2.235   3.144
 1233SOL    HW1 4151   1.295   2.314   3.189
 1233SOL    HW2 4152   1.172   2.256   3.122
 1234SOL     OW 4153   0.104   3.480   3.224
 1234SOL    HW1 4154   0.083   3.485   3.131
 1234SOL    HW2 4155   0.193   3.445   3.227
 1235SOL     OW 4156   0.344   2.978   2.340
 1235SOL    HW1 4157   0.337   3.057   2.287
 1235SOL    HW2 4158   0.341   2.906   2.277
 1236SOL     OW 4159   0.548   2.391   2.720
 1236SOL    HW1 4160   0.562   2.450   2.646
 1236SOL    HW2 4161   0.615   2.417   2.784
 1237SOL     OW 4162   1.247   3.212   2.253
 1237SOL    HW1 4163   1.303   3.283   2.285
 1237SOL    HW2 4164   1.160   3.233   2.286
 1238SOL     OW 4165   1.290   3.323   3.009
 1238SOL    HW1 4166   1.345   3.330   3.087
 1238SOL    HW2 4167   1.235   3.247   3.025
 1239SOL     OW 4168   1.578   2.481   2.347
 1239SOL    HW1 4169   1.527   2.527   2.414
 1239SOL    HW2 4170   1.621   2.551   2.298
 1240SOL     OW 4171   0.354   3.383   3.169
 1240SOL    HW1 4172   0.344   3.338   3.085
 1240SOL    HW2 4173   0.447   3.401   3.176
 1241SOL     OW 4174   0.420   2.603   3.465
 1241SOL    HW1 4175   0.483   2.648   3.409
 1241SOL    HW2 4176   0.457   2.515   3.478
 1242SOL     OW 4177   1.609   2.640   3.552
 1242SOL    HW1 4178   1.523   2.682   3.546
 1242SOL    HW2 4179   1.661   2.684   3.484
 1243SOL     OW 4180   0.996   1.996   3.617
 1243SOL    HW1 4181   1.054   2.069   3.595
 1243SOL    HW2 4182   1.045   1.918   3.591
 1244SOL     OW 4183   0.496   1.899   3.614
 1244SOL    HW1 4184   0.448   1.848   3.548
 1244SOL    HW2 4185   0.442   1.976   3.629
 1245SOL     OW 4186   0.586   2.737   2.897
 1245SOL    HW1 4187   0.622   2.826   2.898
 1245SOL    HW2 4188   0.529   2.734   2.974
 1246SOL     OW 4189   1.345   2.720   2.881
 1246SOL    HW1 4190   1.258   2.704   2.844
 1246SOL    HW2 4191   1.392   2.638   2.871
 1247SOL     OW 4192   1.199   2.389   2.123
 1247SOL    HW1 4193   1.207   2.311   2.178
 1247SOL    HW2 4194   1.157   2.454   2.180
 1248SOL     OW 4195   0.301   2.062   3.107
 1248SOL    HW1 4196   0.269   2.084   3.195
 1248SOL    HW2 4197   0.290   1.968   3.100
 1249SOL     OW 4198   0.050   3.170   3.138
 1249SOL    HW1 4199   0.083   3.115   3.208
 1249SOL    HW2 4200   5.279   3.220   3.178
 1250SOL     OW 4201   0.719   2.490   2.914
 1250SOL    HW1 4202   0.796   2.479   2.858
 1250SOL    HW2 4203   0.690   2.580   2.897
 1251SOL     OW 4204   1.720   2.830   3.733
 1251SOL    HW1 4205   1.690   2.761   3.674
 1251SOL    HW2 4206   1.651   2.839   3.798
 1252SOL     OW 4207   0.329   1.924   2.493
 1252SOL    HW1 4208   0.308   2.014   2.517
 1252SOL    HW2 4209   0.337   1.878   2.577
 1253SOL     OW 4210   1.624   2.242   2.220
 1253SOL    HW1 4211   1.652   2.177   2.284
 1253SOL    HW2 4212   1.599   2.318   2.273
 1254SOL     OW 4213   1.030   2.620   2.819
 1254SOL    HW1 4214   1.019   2.637   2.913
 1254SOL    HW2 4215   1.003   2.529   2.808
 1255SOL     OW 4216   0.981   3.427   3.585
 1255SOL    HW1 4217   0.964   3.472   3.501
 1255SOL    HW2 4218   1.025   3.346   3.560
 1256SOL     OW 4219   1.853   3.367   3.466
 1256SOL    HW1 4220   1.872   3.394   3.376
 1256SOL    HW2 4221   1.934   3.385   3.514
 1257SOL     OW 4222   0.357   2.780   3.669
 1257SOL    HW1 4223   0.437   2.800   3.719
 1257SOL    HW2 4224   0.384   2.715   3.605
 1258SOL     OW 4225   1.526   2.133   1.987
 1258SOL    HW1 4226   1.463   2.068   2.016
 1258SOL    HW2 4227   1.561   2.171   2.068
 1259SOL     OW 4228   1.286   2.686   1.889
 1259SOL    HW1 4229   1.328   2.601   1.894
 1259SOL    HW2 4230   1.318   2.725   1.808
 1260SOL     OW 4231   1.071   3.202   2.720
 1260SOL    HW1 4232   1.076   3.130   2.656
 1260SOL    HW2 4233   1.127   3.270   2.684
 1261SOL     OW 4234   0.311   2.670   2.810
 1261SOL    HW1 4235   0.405   2.688   2.809
 1261SOL    HW2 4236   0.304   2.580   2.841
 1262SOL     OW 4237   0.331   2.391   2.879
 1262SOL    HW1 4238   0.296   2.303   2.866
 1262SOL    HW2 4239   0.406   2.396   2.820
 1263SOL     OW 4240   1.134   2.233   3.549
 1263SOL    HW1 4241   1.086   2.288   3.611
 1263SOL    HW2 4242   1.220   2.274   3.543
 1264SOL     OW 4243   1.161   2.058   3.335
 1264SOL    HW1 4244   1.149   2.121   3.406
 1264SOL    HW2 4245   1.203   2.108   3.265
 1265SOL     OW 4246   0.009   3.184   2.069
 1265SOL    HW1 4247   5.238   3.170   2.005
 1265SOL    HW2 4248   0.018   3.100   2.114
 1266SOL     OW 4249   0.104   3.643   2.824
 1266SOL    HW1 4250   0.065   3.581   2.763
 1266SOL    HW2 4251   0.189   3.666   2.784
 1267SOL     OW 4252   0.503   3.436   2.770
 1267SOL    HW1 4253   0.570   3.502   2.789
 1267SOL    HW2 4254   0.545   3.376   2.708
 1268SOL     OW 4255   0.971   2.648   3.084
 1268SOL    HW1 4256   1.031   2.631   3.157
 1268SOL    HW2 4257   0.888   2.608   3.112
 1269SOL     OW 4258   0.030   2.439   2.984
 1269SOL    HW1 4259   0.115   2.415   2.948
 1269SOL    HW2 4260   0.034   2.412   3.076
 1270SOL     OW 4261   0.166   2.376   3.577
 1270SOL    HW1 4262   0.226   2.331   3.518
 1270SOL    HW2 4263   0.147   2.459   3.533
 1271SOL     OW 4264   1.381   2.792   3.519
 1271SOL    HW1 4265   1.401   2.886   3.515
 1271SOL    HW2 4266   1.377   2.765   3.427
 1272SOL     OW 4267   0.818   2.432   2.230
 1272SOL    HW1 4268   0.824   2.358   2.169
 1272SOL    HW2 4269   0.743   2.482   2.199
 1273SOL     OW 4270   1.639   2.461   3.038
 1273SOL    HW1 4271   1.628   2.402   3.113
 1273SOL    HW2 4272   1.727   2.442   3.006
 1274SOL     OW 4273   0.253   3.415   3.594
 1274SOL    HW1 4274   0.235   3.479   3.662
 1274SOL    HW2 4275   0.253   3.331   3.639
 1275SOL     OW 4276   0.716   2.306   3.114
 1275SOL    HW1 4277   0.659   2.234   3.089
 1275SOL    HW2 4278   0.706   2.370   3.043
 1276SOL     OW 4279   0.922   3.540   3.334
 1276SOL    HW1 4280   0.898   3.500   3.251
 1276SOL    HW2 4281   0.916   3.634   3.318
 1277SOL     OW 4282   0.463   2.353   2.037
 1277SOL    HW1 4283   0.524   2.421   2.066
 1277SOL    HW2 4284   0.380   2.399   2.024
 1278SOL     OW 4285   0.146   2.999   3.331
 1278SOL    HW1 4286   0.142   2.955   3.415
 1278SOL    HW2 4287   0.154   2.928   3.267
 1279SOL     OW 4288   1.318   2.904   3.080
 1279SOL    HW1 4289   1.340   2.841   3.012
 1279SOL    HW2 4290   1.253   2.962   3.041
 1280SOL     OW 4291   1.317   2.718   2.164
 1280SOL    HW1 4292   1.243   2.688   2.217
 1280SOL    HW2 4293   1.290   2.705   2.074
 1281SOL     OW 4294   1.779   3.600   3.019
 1281SOL    HW1 4295   1.839   3.625   2.949
 1281SOL    HW2 4296   1.751   3.511   2.996
 1282SOL     OW 4297   1.240   3.595   2.966
 1282SOL    HW1 4298   1.323   3.619   2.925
 1282SOL    HW2 4299   1.250   3.502   2.986
 1283SOL     OW 4300   0.080   3.062   2.889
 1283SOL    HW1 4301   0.065   3.092   2.978
 1283SOL    HW2 4302   5.292   3.056   2.850
 1284SOL     OW 4303   0.679   3.535   3.602
 1284SOL    HW1 4304   0.618   3.607   3.591
 1284SOL    HW2 4305   0.747   3.551   3.536
 1285SOL     OW 4306   1.725   2.020   2.366
 1285SOL    HW1 4307   1.794   2.003   2.302
 1285SOL    HW2 4308   1.707   1.935   2.406
 1286SOL     OW 4309   1.393   3.430   2.354
 1286SOL    HW1 4310   1.451   3.464   2.286
 1286SOL    HW2 4311   1.342   3.505   2.382
 1287SOL     OW 4312   0.151   3.659   3.705
 1287SOL    HW1 4313   0.097   3.597   3.754
 1287SOL    HW2 4314   0.204   3.702   3.772
 1288SOL     OW 4315   1.278   2.791   2.532
 1288SOL    HW1 4316   1.352   2.731   2.543
 1288SOL    HW2 4317   1.313   2.862   2.479
 1289SOL     OW 4318   0.803   3.138   3.285
 1289SOL    HW1 4319   0.775   3.181   3.366
 1289SOL    HW2 4320   0.731   3.155   3.223
 1290SOL     OW 4321   0.672   3.488   2.016
 1290SOL    HW1 4322   0.684   3.503   1.923
 1290SOL    HW2 4323   0.616   3.410   2.021
 1291SOL     OW 4324   1.618   3.590   3.254
 1291SOL    HW1 4325   1.672   3.594   3.175
 1291SOL    HW2 4326   1.604   3.682   3.278
 1292SOL     OW 4327   1.845   2.032   2.823
 1292SOL    HW1 4328   1.873   1.944   2.801
 1292SOL    HW2 4329   1.758   2.040   2.784
 1293SOL     OW 4330   0.275   2.178   2.577
 1293SOL    HW1 4331   0.189   2.216   2.561
 1293SOL    HW2 4332   0.280   2.169   2.672
 1294SOL     OW 4333   1.208   3.462   1.895
 1294SOL    HW1 4334   1.197   3.371   1.922
 1294SOL    HW2 4335   1.142   3.476   1.828
 1295SOL     OW 4336   0.824   2.869   3.238
 1295SOL    HW1 4337   0.866   2.862   3.153
 1295SOL    HW2 4338   0.820   2.963   3.255
 1296SOL     OW 4339   0.916   2.772   2.154
 1296SOL    HW1 4340   0.975   2.805   2.086
 1296SOL    HW2 4341   0.967   2.705   2.199
 1297SOL     OW 4342   1.488   3.492   1.908
 1297SOL    HW1 4343   1.395   3.481   1.892
 1297SOL    HW2 4344   1.527   3.497   1.820
 1298SOL     OW 4345   0.366   3.167   3.356
 1298SOL    HW1 4346   0.359   3.240   3.295
 1298SOL    HW2 4347   0.291   3.111   3.336
 1299SOL     OW 4348   1.599   3.145   3.145
 1299SOL    HW1 4349   1.651   3.129   3.224
 1299SOL    HW2 4350   1.540   3.216   3.170
 1300SOL     OW 4351   1.063   2.973   2.574
 1300SOL    HW1 4352   0.990   2.923   2.610
 1300SOL    HW2 4353   1.127   2.907   2.548
 1301SOL     OW 4354   1.025   2.105   2.828
 1301SOL    HW1 4355   1.022   2.059   2.744
 1301SOL    HW2 4356   1.019   2.036   2.894
 1302SOL     OW 4357   0.604   3.350   2.341
 1302SOL    HW1 4358   0.654   3.300   2.277
 1302SOL    HW2 4359   0.534   3.391   2.290
 1303SOL     OW 4360   1.720   2.248   3.246
 1303SOL    HW1 4361   1.790   2.313   3.242
 1303SOL    HW2 4362   1.747   2.180   3.184
 1304SOL     OW 4363   0.264   3.211   2.163
 1304SOL    HW1 4364   0.172   3.209   2.137
 1304SOL    HW2 4365   0.263   3.250   2.250
 1305SOL     OW 4366   0.122   2.879   3.577
 1305SOL    HW1 4367   0.052   2.844   3.632
 1305SOL    HW2 4368   0.202   2.848   3.618
 1306SOL     OW 4369   0.677   2.056   3.362
 1306SOL    HW1 4370   0.761   2.034   3.322
 1306SOL    HW2 4371   0.700   2.090   3.449
 1307SOL     OW 4372   0.090   2.191   1.897
 1307SOL    HW1 4373   0.002   2.159   1.879
 1307SOL    HW2 4374   0.104   2.261   1.833
 1308SOL     OW 4375   1.421   2.718   3.258
 1308SOL    HW1 4376   1.372   2.780   3.205
 1308SOL    HW2 4377   1.510   2.721   3.222
 1309SOL     OW 4378   0.068   2.003   2.122
 1309SOL    HW1 4379   0.062   2.086   2.075
 1309SOL    HW2 4380   0.147   1.962   2.087
 1310SOL     OW 4381   1.178   3.195   1.980
 1310SOL    HW1 4382   1.087   3.166   1.981
 1310SOL    HW2 4383   1.204   3.197   2.072
 1311SOL     OW 4384   0.622   2.694   3.300
 1311SOL    HW1 4385   0.679   2.769   3.285
 1311SOL    HW2 4386   0.681   2.619   3.305
 1312SOL     OW 4387   1.483   3.649   2.846
 1312SOL    HW1 4388   1.506   3.715   2.781
 1312SOL    HW2 4389   1.568   3.619   2.881
 1313SOL     OW 4390   0.718   2.420   3.562
 1313SOL    HW1 4391   0.764   2.479   3.622
 1313SOL    HW2 4392   0.736   2.333   3.595
 1314SOL     OW 4393   1.465   3.054   3.491
 1314SOL    HW1 4394   1.457   3.070   3.586
 1314SOL    HW2 4395   1.555   3.079   3.471
 1315SOL     OW 4396   0.369   3.609   3.428
 1315SOL    HW1 4397   0.287   3.654   3.409
 1315SOL    HW2 4398   0.342   3.528   3.472
 1316SOL     OW 4399   1.659   2.741   3.116
 1316SOL    HW1 4400   1.659   2.656   3.070
 1316SOL    HW2 4401   1.652   2.805   3.045
 1317SOL     OW 4402   1.217   2.182   2.318
 1317SOL    HW1 4403   1.278   2.108   2.313
 1317SOL    HW2 4404   1.245   2.232   2.395
 1318SOL     OW 4405   0.585   2.595   2.535
 1318SOL    HW1 4406   0.625   2.680   2.520
 1318SOL    HW2 4407   0.518   2.588   2.467
 1319SOL     OW 4408   1.759   2.224   3.518
 1319SOL    HW1 4409   1.738   2.245   3.427
 1319SOL    HW2 4410   1.687   2.168   3.548
 1320SOL     OW 4411   1.738   2.792   3.371
 1320SOL    HW1 4412   1.733   2.887   3.385
 1320SOL    HW2 4413   1.721   2.780   3.278
 1321SOL     OW 4414   0.865   3.226   1.907
 1321SOL    HW1 4415   0.827   3.255   1.990
 1321SOL    HW2 4416   0.880   3.307   1.858
 1322SOL     OW 4417   0.668   3.649   2.797
 1322SOL    HW1 4418   0.649   3.741   2.778
 1322SOL    HW2 4419   0.764   3.644   2.792
 1323SOL     OW 4420   0.870   2.833   2.714
 1323SOL    HW1 4421   0.920   2.760   2.752
 1323SOL    HW2 4422   0.831   2.876   2.790
 1324SOL     OW 4423   1.075   2.849   1.951
 1324SOL    HW1 4424   1.055   2.902   1.873
 1324SOL    HW2 4425   1.150   2.795   1.924
 1325SOL     OW 4426   1.845   3.416   2.702
 1325SOL    HW1 4427   1.765   3.404   2.650
 1325SOL    HW2 4428   1.836   3.353   2.774
 1326SOL     OW 4429   0.231   3.163   3.725
 1326SOL    HW1 4430   0.165   3.099   3.697
 1326SOL    HW2 4431   0.215   3.173   3.819
 1327SOL     OW 4432   0.095   3.061   2.509
 1327SOL    HW1 4433   0.119   3.041   2.600
 1327SOL    HW2 4434   0.171   3.106   2.474
 1328SOL     OW 4435   0.686   3.270   3.495
 1328SOL    HW1 4436   0.606   3.229   3.527
 1328SOL    HW2 4437   0.683   3.359   3.530
 1329SOL     OW 4438   1.795   2.042   3.091
 1329SOL    HW1 4439   1.814   1.950   3.106
 1329SOL    HW2 4440   1.812   2.056   2.998
 1330SOL     OW 4441   0.439   2.297   2.384
 1330SOL    HW1 4442   0.467   2.224   2.329
 1330SOL    HW2 4443   0.391   2.256   2.455
 1331SOL     OW 4444   1.697   3.350   2.952
 1331SOL    HW1 4445   1.617   3.326   2.904
 1331SOL    HW2 4446   1.708   3.280   3.016
 1332SOL     OW 4447   0.343   2.428   3.155
 1332SOL    HW1 4448   0.396   2.367   3.208
 1332SOL    HW2 4449   0.355   2.397   3.066
 1333SOL     OW 4450   0.834   3.441   2.536
 1333SOL    HW1 4451   0.812   3.508   2.472
 1333SOL    HW2 4452   0.759   3.382   2.537
 1334SOL     OW 4453   1.429   2.092   2.979
 1334SOL    HW1 4454   1.451   2.010   3.022
 1334SOL    HW2 4455   1.378   2.141   3.043
 1335SOL     OW 4456   1.009   1.878   2.996
 1335SOL    HW1 4457   0.954   1.813   2.953
 1335SOL    HW2 4458   1.096   1.839   2.998
 1336SOL     OW 4459   0.774   3.196   2.185
 1336SOL    HW1 4460   0.748   3.104   2.193
 1336SOL    HW2 4461   0.856   3.202   2.234
 1337SOL     OW 4462   0.625   3.418   3.153
 1337SOL    HW1 4463   0.624   3.500   3.202
 1337SOL    HW2 4464   0.712   3.414   3.114
 1338SOL     OW 4465   1.358   1.913   2.035
 1338SOL    HW1 4466   1.393   1.843   1.980
 1338SOL    HW2 4467   1.269   1.886   2.055
 1339SOL     OW 4468   1.296   2.326   2.539
 1339SOL    HW1 4469   1.244   2.406   2.542
 1339SOL    HW2 4470   1.291   2.290   2.628
 1340SOL     OW 4471   1.585   2.056   2.746
 1340SOL    HW1 4472   1.529   2.081   2.820
 1340SOL    HW2 4473   1.584   2.133   2.688
 1341SOL     OW 4474   0.049   2.927   2.151
 1341SOL    HW1 4475   0.137   2.890   2.143
 1341SOL    HW2 4476   5.298   2.858   2.194
 1342SOL     OW 4477   0.891   3.522   2.198
 1342SOL    HW1 4478   0.816   3.508   2.141
 1342SOL    HW2 4479   0.865   3.595   2.255
 1343SOL     OW 4480   0.230   2.485   3.844
 1343SOL    HW1 4481   0.163   2.442   3.898
 1343SOL    HW2 4482   0.207   2.461   3.754
 1344SOL     OW 4483   0.247   2.138   4.710
 1344SOL    HW1 4484   0.260   2.102   4.798
 1344SOL    HW2 4485   0.161   2.106   4.684
 1345SOL     OW 4486   5.296   2.265   4.381
 1345SOL    HW1 4487   5.202   2.287   4.381
 1345SOL    HW2 4488   0.000   2.178   4.342
 1346SOL     OW 4489   0.581   3.158   4.920
 1346SOL    HW1 4490   0.500   3.163   4.870
 1346SOL    HW2 4491   0.596   3.247   4.952
 1347SOL     OW 4492   1.568   3.380   4.433
 1347SOL    HW1 4493   1.525   3.356   4.516
 1347SOL    HW2 4494   1.497   3.386   4.370
 1348SOL     OW 4495   1.133   2.560   4.419
 1348SOL    HW1 4496   1.180   2.643   4.406
 1348SOL    HW2 4497   1.085   2.572   4.501
 1349SOL     OW 4498   1.769   2.464   3.958
 1349SOL    HW1 4499   1.750   2.461   3.865
 1349SOL    HW2 4500   1.734   2.383   3.993
 1350SOL     OW 4501   0.744   2.996   4.770
 1350SOL    HW1 4502   0.683   3.034   4.833
 1350SOL    HW2 4503   0.784   3.072   4.726
 1351SOL     OW 4504   0.877   2.623   5.549
 1351SOL    HW1 4505   0.868   2.693   5.613
 1351SOL    HW2 4506   0.897   2.667   5.467
 1352SOL     OW 4507   0.685   2.857   4.368
 1352SOL    HW1 4508   0.752   2.850   4.436
 1352SOL    HW2 4509   0.618   2.914   4.406
 1353SOL     OW 4510   0.713   3.011   5.545
 1353SOL    HW1 4511   0.762   3.088   5.576
 1353SOL    HW2 4512   0.635   3.048   5.504
 1354SOL     OW 4513   0.360   3.263   4.786
 1354SOL    HW1 4514   0.269   3.267   4.756
 1354SOL    HW2 4515   0.407   3.324   4.729
 1355SOL     OW 4516   1.459   3.363   5.086
 1355SOL    HW1 4517   1.514   3.441   5.094
 1355SOL    HW2 4518   1.391   3.375   5.152
 1356SOL     OW 4519   0.455   2.258   5.206
 1356SOL    HW1 4520   0.529   2.198   5.212
 1356SOL    HW2 4521   0.378   2.203   5.222
 1357SOL     OW 4522   1.605   2.300   4.469
 1357SOL    HW1 4523   1.537   2.319   4.405
 1357SOL    HW2 4524   1.605   2.375   4.528
 1358SOL     OW 4525   0.243   3.574   4.200
 1358SOL    HW1 4526   0.267   3.647   4.257
 1358SOL    HW2 4527   0.307   3.577   4.129
 1359SOL     OW 4528   1.138   3.204   5.419
 1359SOL    HW1 4529   1.180   3.197   5.504
 1359SOL    HW2 4530   1.086   3.125   5.410
 1360SOL     OW 4531   0.215   3.313   4.271
 1360SOL    HW1 4532   0.228   3.406   4.250
 1360SOL    HW2 4533   0.143   3.313   4.334
 1361SOL     OW 4534   0.257   2.937   4.594
 1361SOL    HW1 4535   0.267   2.849   4.629
 1361SOL    HW2 4536   0.202   2.982   4.658
 1362SOL     OW 4537   0.604   3.653   5.155
 1362SOL    HW1 4538   0.521   3.637   5.199
 1362SOL    HW2 4539   0.627   3.743   5.180
 1363SOL     OW 4540   0.575   2.849   3.865
 1363SOL    HW1 4541   0.625   2.893   3.796
 1363SOL    HW2 4542   0.614   2.879   3.947
 1364SOL     OW 4543   1.594   1.987   5.190
 1364SOL    HW1 4544   1.623   2.064   5.140
 1364SOL    HW2 4545   1.573   2.021   5.277
 1365SOL     OW 4546   0.128   2.490   4.305
 1365SOL    HW1 4547   0.089   2.410   4.339
 1365SOL    HW2 4548   0.101   2.558   4.366
 1366SOL     OW 4549   1.845   3.616   4.054
 1366SOL    HW1 4550   1.914   3.590   4.115
 1366SOL    HW2 4551   1.862   3.708   4.036
 1367SOL     OW 4552   0.039   3.462   3.860
 1367SOL    HW1 4553   0.028   3.370   3.885
 1367SOL    HW2 4554   5.272   3.509   3.910
 1368SOL     OW 4555   1.707   2.784   4.366
 1368SOL    HW1 4556   1.762   2.733   4.307
 1368SOL    HW2 4557   1.662   2.847   4.309
 1369SOL     OW 4558   1.642   2.966   4.155
 1369SOL    HW1 4559   1.728   2.965   4.112
 1369SOL    HW2 4560   1.650   3.034   4.222
 1370SOL     OW 4561   0.140   2.611   5.305
 1370SOL    HW1 4562   0.235   2.623   5.302
 1370SOL    HW2 4563   0.105   2.699   5.324
 1371SOL     OW 4564   0.619   3.253   4.457
 1371SOL    HW1 4565   0.573   3.170   4.467
 1371SOL    HW2 4566   0.602   3.281   4.368
 1372SOL     OW 4567   1.284   3.096   5.145
 1372SOL    HW1 4568   1.314   3.028   5.085
 1372SOL    HW2 4569   1.344   3.091   5.219
 1373SOL     OW 4570   0.830   1.866   4.239
 1373SOL    HW1 4571   0.870   1.949   4.214
 1373SOL    HW2 4572   0.736   1.885   4.242
 1374SOL     OW 4573   0.166   2.798   5.007
 1374SOL    HW1 4574   0.257   2.767   5.001
 1374SOL    HW2 4575   0.133   2.793   4.917
 1375SOL     OW 4576   1.521   2.863   3.928
 1375SOL    HW1 4577   1.453   2.805   3.963
 1375SOL    HW2 4578   1.565   2.897   4.006
 1376SOL     OW 4579   1.182   3.676   5.351
 1376SOL    HW1 4580   1.188   3.738   5.278
 1376SOL    HW2 4581   1.202   3.591   5.312
 1377SOL     OW 4582   0.353   2.119   5.559
 1377SOL    HW1 4583   0.396   2.201   5.582
 1377SOL    HW2 4584   0.261   2.132   5.583
 1378SOL     OW 4585   1.466   3.282   4.669
 1378SOL    HW1 4586   1.400   3.298   4.737
 1378SOL    HW2 4587   1.454   3.190   4.645
 1379SOL     OW 4588   1.651   3.620   4.299
 1379SOL    HW1 4589   1.633   3.583   4.213
 1379SOL    HW2 4590   1.637   3.547   4.360
 1380SOL     OW 4591   0.593   2.578   3.997
 1380SOL    HW1 4592   0.599   2.662   3.951
 1380SOL    HW2 4593   0.527   2.593   4.065
 1381SOL     OW 4594   1.279   2.231   4.659
 1381SOL    HW1 4595   1.190   2.196   4.666
 1381SOL    HW2 4596   1.331   2.175   4.717
 1382SOL     OW 4597   1.579   3.535   4.035
 1382SOL    HW1 4598   1.671   3.561   4.027
 1382SOL    HW2 4599   1.550   3.520   3.945
 1383SOL     OW 4600   0.791   2.480   5.170
 1383SOL    HW1 4601   0.765   2.453   5.259
 1383SOL    HW2 4602   0.758   2.410   5.114
 1384SOL     OW 4603   1.392   2.337   5.402
 1384SOL    HW1 4604   1.396   2.381   5.486
 1384SOL    HW2 4605   1.448   2.260   5.412
 1385SOL     OW 4606   0.949   2.746   5.311
 1385SOL    HW1 4607   1.004   2.679   5.272
 1385SOL    HW2 4608   0.901   2.784   5.237
 1386SOL     OW 4609   0.995   2.270   4.956
 1386SOL    HW1 4610   0.905   2.287   4.984
 1386SOL    HW2 4611   0.986   2.228   4.870
 1387SOL     OW 4612   1.055   2.560   4.148
 1387SOL    HW1 4613   1.073   2.554   4.242
 1387SOL    HW2 4614   0.971   2.515   4.137
 1388SOL     OW 4615   0.064   2.656   4.531
 1388SOL    HW1 4616   0.144   2.659   4.584
 1388SOL    HW2 4617   0.075   2.725   4.466
 1389SOL     OW 4618   0.121   3.750   5.312
 1389SOL    HW1 4619   0.131   3.727   5.405
 1389SOL    HW2 4620   0.056   3.688   5.279
 1390SOL     OW 4621   0.900   2.213   3.920
 1390SOL    HW1 4622   0.939   2.277   3.860
 1390SOL    HW2 4623   0.907   2.129   3.874
 1391SOL     OW 4624   1.703   2.431   5.555
 1391SOL    HW1 4625   1.668   2.505   5.505
 1391SOL    HW2 4626   1.732   2.369   5.488
 1392SOL     OW 4627   1.378   3.003   4.262
 1392SOL    HW1 4628   1.458   2.994   4.210
 1392SOL    HW2 4629   1.325   3.066   4.215
 1393SOL     OW 4630   0.562   2.042   4.622
 1393SOL    HW1 4631   0.559   2.072   4.713
 1393SOL    HW2 4632   0.553   2.122   4.571
 1394SOL     OW 4633   0.998   3.305   4.192
 1394SOL    HW1 4634   0.969   3.381   4.141
 1394SOL    HW2 4635   0.974   3.326   4.282
 1395SOL     OW 4636   0.361   3.671   4.596
 1395SOL    HW1 4637   0.400   3.585   4.609
 1395SOL    HW2 4638   0.426   3.733   4.630
 1396SOL     OW 4639   1.816   2.938   4.588
 1396SOL    HW1 4640   1.771   2.889   4.520
 1396SOL    HW2 4641   1.755   2.938   4.662
 1397SOL     OW 4642   1.227   3.403   5.238
 1397SOL    HW1 4643   1.215   3.330   5.299
 1397SOL    HW2 4644   1.158   3.390   5.172
 1398SOL     OW 4645   0.311   2.812   3.977
 1398SOL    HW1 4646   0.391   2.836   3.931
 1398SOL    HW2 4647   0.290   2.724   3.945
 1399SOL     OW 4648   1.486   2.617   4.445
 1399SOL    HW1 4649   1.476   2.572   4.529
 1399SOL    HW2 4650   1.566   2.668   4.454
 1400SOL     OW 4651   0.470   3.131   5.462
 1400SOL    HW1 4652   0.443   3.136   5.370
 1400SOL    HW2 4653   0.388   3.130   5.511
 1401SOL     OW 4654   1.126   3.640   3.952
 1401SOL    HW1 4655   1.050   3.601   3.995
 1401SOL    HW2 4656   1.150   3.576   3.884
 1402SOL     OW 4657   0.208   2.135   5.221
 1402SOL    HW1 4658   0.131   2.189   5.200
 1402SOL    HW2 4659   0.171   2.054   5.257
 1403SOL     OW 4660   1.622   3.249   3.811
 1403SOL    HW1 4661   1.578   3.333   3.796
 1403SOL    HW2 4662   1.555   3.184   3.790
 1404SOL     OW 4663   0.472   3.597   4.040
 1404SOL    HW1 4664   0.518   3.653   4.103
 1404SOL    HW2 4665   0.541   3.563   3.984
 1405SOL     OW 4666   1.400   1.969   4.166
 1405SOL    HW1 4667   1.392   1.943   4.074
 1405SOL    HW2 4668   1.494   1.976   4.181
 1406SOL     OW 4669   0.276   3.662   4.924
 1406SOL    HW1 4670   0.306   3.578   4.960
 1406SOL    HW2 4671   0.218   3.637   4.852
 1407SOL     OW 4672   0.942   3.562   4.619
 1407SOL    HW1 4673   1.022   3.514   4.642
 1407SOL    HW2 4674   0.901   3.511   4.550
 1408SOL     OW 4675   0.386   2.555   4.201
 1408SOL    HW1 4676   0.416   2.464   4.211
 1408SOL    HW2 4677   0.293   2.552   4.224
 1409SOL     OW 4678   1.527   2.088   5.447
 1409SOL    HW1 4679   1.537   2.108   5.541
 1409SOL    HW2 4680   1.459   2.020   5.445
 1410SOL     OW 4681   0.646   1.978   3.825
 1410SOL    HW1 4682   0.705   1.905   3.843
 1410SOL    HW2 4683   0.592   1.949   3.752
 1411SOL     OW 4684   0.763   2.141   5.480
 1411SOL    HW1 4685   0.844   2.090   5.477
 1411SOL    HW2 4686   0.717   2.108   5.557
 1412SOL     OW 4687   0.877   3.386   4.918
 1412SOL    HW1 4688   0.859   3.347   4.832
 1412SOL    HW2 4689   0.946   3.331   4.955
 1413SOL     OW 4690   1.339   2.452   5.156
 1413SOL    HW1 4691   1.369   2.421   5.242
 1413SOL    HW2 4692   1.375   2.540   5.148
 1414SOL     OW 4693   0.820   3.248   4.671
 1414SOL    HW1 4694   0.905   3.238   4.629
 1414SOL    HW2 4695   0.758   3.257   4.599
 1415SOL     OW 4696   0.930   2.372   4.622
 1415SOL    HW1 4697   0.904   2.363   4.531
 1415SOL    HW2 4698   0.958   2.284   4.649
 1416SOL     OW 4699   0.565   1.924   4.215
 1416SOL    HW1 4700   0.489   1.924   4.274
 1416SOL    HW2 4701   0.553   2.001   4.160
 1417SOL     OW 4702   1.425   3.064   3.764
 1417SOL    HW1 4703   1.454   2.989   3.816
 1417SOL    HW2 4704   1.340   3.088   3.800
 1418SOL     OW 4705   0.307   1.906   3.898
 1418SOL    HW1 4706   0.366   1.974   3.865
 1418SOL    HW2 4707   0.364   1.846   3.946
 1419SOL     OW 4708   0.945   2.113   4.178
 1419SOL    HW1 4709   0.920   2.151   4.094
 1419SOL    HW2 4710   1.039   2.129   4.185
 1420SOL     OW 4711   1.080   2.547   5.180
 1420SOL    HW1 4712   1.015   2.477   5.184
 1420SOL    HW2 4713   1.164   2.501   5.174
 1421SOL     OW 4714   1.218   3.435   4.519
 1421SOL    HW1 4715   1.232   3.500   4.450
 1421SOL    HW2 4716   1.288   3.453   4.582
 1422SOL     OW 4717   0.472   3.017   4.445
 1422SOL    HW1 4718   0.404   2.993   4.509
 1422SOL    HW2 4719   0.430   3.003   4.360
 1423SOL     OW 4720   1.262   3.654   4.337
 1423SOL    HW1 4721   1.311   3.716   4.283
 1423SOL    HW2 4722   1.193   3.706   4.377
 1424SOL     OW 4723   1.024   2.395   3.751
 1424SOL    HW1 4724   0.980   2.478   3.731
 1424SOL    HW2 4725   1.089   2.418   3.818
 1425SOL     OW 4726   0.096   2.399   5.126
 1425SOL    HW1 4727   0.183   2.409   5.087
 1425SOL    HW2 4728   0.084   2.478   5.179
 1426SOL     OW 4729   0.561   2.091   4.895
 1426SOL    HW1 4730   0.598   2.014   4.939
 1426SOL    HW2 4731   0.469   2.090   4.920
 1427SOL     OW 4732   0.867   2.319   4.361
 1427SOL    HW1 4733   0.823   2.375   4.297
 1427SOL    HW2 4734   0.890   2.240   4.312
 1428SOL     OW 4735   1.019   1.916   4.470
 1428SOL    HW1 4736   0.959   1.910   4.395
 1428SOL    HW2 4737   0.996   1.842   4.526
 1429SOL     OW 4738   1.441   3.021   4.582
 1429SOL    HW1 4739   1.368   2.959   4.583
 1429SOL    HW2 4740   1.463   3.031   4.489
 1430SOL     OW 4741   1.464   2.471   4.686
 1430SOL    HW1 4742   1.405   2.396   4.690
 1430SOL    HW2 4743   1.518   2.464   4.765
 1431SOL     OW 4744   1.849   2.666   4.128
 1431SOL    HW1 4745   1.916   2.612   4.169
 1431SOL    HW2 4746   1.814   2.612   4.058
 1432SOL     OW 4747   0.491   3.285   3.876
 1432SOL    HW1 4748   0.416   3.258   3.929
 1432SOL    HW2 4749   0.484   3.234   3.796
 1433SOL     OW 4750   1.665   3.133   4.360
 1433SOL    HW1 4751   1.759   3.135   4.378
 1433SOL    HW2 4752   1.635   3.221   4.384
 1434SOL     OW 4753   1.394   2.434   3.796
 1434SOL    HW1 4754   1.331   2.413   3.864
 1434SOL    HW2 4755   1.477   2.398   3.828
 1435SOL     OW 4756   0.526   2.123   4.032
 1435SOL    HW1 4757   0.577   2.080   3.964
 1435SOL    HW2 4758   0.499   2.206   3.993
 1436SOL     OW 4759   1.744   3.108   5.281
 1436SOL    HW1 4760   1.832   3.070   5.272
 1436SOL    HW2 4761   1.760   3.197   5.313
 1437SOL     OW 4762   1.054   3.214   5.054
 1437SOL    HW1 4763   0.978   3.183   5.104
 1437SOL    HW2 4764   1.128   3.173   5.097
 1438SOL     OW 4765   1.609   3.490   5.383
 1438SOL    HW1 4766   1.600   3.524   5.294
 1438SOL    HW2 4767   1.691   3.441   5.381
 1439SOL     OW 4768   1.135   3.072   4.825
 1439SOL    HW1 4769   1.076   3.111   4.890
 1439SOL    HW2 4770   1.107   3.109   4.741
 1440SOL     OW 4771   1.629   2.956   4.796
 1440SOL    HW1 4772   1.622   3.019   4.868
 1440SOL    HW2 4773   1.554   2.974   4.740
 1441SOL     OW 4774   0.919   1.954   5.115
 1441SOL    HW1 4775   0.941   1.936   5.024
 1441SOL    HW2 4776   0.998   1.993   5.152
 1442SOL     OW 4777   0.984   2.977   5.447
 1442SOL    HW1 4778   0.893   2.994   5.471
 1442SOL    HW2 4779   0.980   2.898   5.393
 1443SOL     OW 4780   0.709   2.924   4.096
 1443SOL    HW1 4781   0.696   2.903   4.188
 1443SOL    HW2 4782   0.785   2.871   4.070
 1444SOL     OW 4783   0.420   2.688   4.981
 1444SOL    HW1 4784   0.489   2.696   5.046
 1444SOL    HW2 4785   0.389   2.598   4.990
 1445SOL     OW 4786   1.263   2.236   5.006
 1445SOL    HW1 4787   1.295   2.314   5.051
 1445SOL    HW2 4788   1.172   2.256   4.984
 1446SOL     OW 4789   0.104   3.479   5.086
 1446SOL    HW1 4790   0.084   3.485   4.993
 1446SOL    HW2 4791   0.193   3.445   5.089
 1447SOL     OW 4792   0.344   2.978   4.202
 1447SOL    HW1 4793   0.337   3.057   4.149
 1447SOL    HW2 4794   0.341   2.906   4.139
 1448SOL     OW 4795   0.548   2.391   4.582
 1448SOL    HW1 4796   0.562   2.450   4.508
 1448SOL    HW2 4797   0.615   2.417   4.646
 1449SOL     OW 4798   1.246   3.212   4.116
 1449SOL    HW1 4799   1.302   3.283   4.147
 1449SOL    HW2 4800   1.159   3.233   4.149
 1450SOL     OW 4801   1.291   3.323   4.873
 1450SOL    HW1 4802   1.347   3.329   4.951
 1450SOL    HW2 4803   1.235   3.247   4.890
 1451SOL     OW 4804   1.573   2.479   4.212
 1451SOL    HW1 4805   1.525   2.528   4.280
 1451SOL    HW2 4806   1.597   2.546   4.148
 1452SOL     OW 4807   0.353   3.383   5.031
 1452SOL    HW1 4808   0.344   3.338   4.947
 1452SOL    HW2 4809   0.447   3.401   5.038
 1453SOL     OW 4810   0.420   2.603   5.327
 1453SOL    HW1 4811   0.483   2.648   5.271
 1453SOL    HW2 4812   0.457   2.515   5.340
 1454SOL     OW 4813   1.609   2.642   5.412
 1454SOL    HW1 4814   1.523   2.684   5.406
 1454SOL    HW2 4815   1.661   2.684   5.344
 1455SOL     OW 4816   0.996   1.996   5.479
 1455SOL    HW1 4817   1.054   2.069   5.457
 1455SOL    HW2 4818   1.045   1.918   5.453
 1456SOL     OW 4819   0.496   1.899   5.476
 1456SOL    HW1 4820   0.448   1.848   5.410
 1456SOL    HW2 4821   0.442   1.976   5.491
 1457SOL     OW 4822   0.586   2.737   4.760
 1457SOL    HW1 4823   0.622   2.826   4.760
 1457SOL    HW2 4824   0.529   2.734   4.836
 1458SOL     OW 4825   1.344   2.720   4.743
 1458SOL    HW1 4826   1.257   2.703   4.707
 1458SOL    HW2 4827   1.391   2.637   4.732
 1459SOL     OW 4828   1.199   2.389   3.985
 1459SOL    HW1 4829   1.208   2.311   4.040
 1459SOL    HW2 4830   1.157   2.453   4.042
 1460SOL     OW 4831   0.301   2.062   4.969
 1460SOL    HW1 4832   0.269   2.084   5.057
 1460SOL    HW2 4833   0.290   1.968   4.962
 1461SOL     OW 4834   0.050   3.170   5.000
 1461SOL    HW1 4835   0.083   3.115   5.070
 1461SOL    HW2 4836   5.279   3.220   5.040
 1462SOL     OW 4837   0.719   2.490   4.776
 1462SOL    HW1 4838   0.796   2.479   4.720
 1462SOL    HW2 4839   0.690   2.580   4.759
 1463SOL     OW 4840   1.739   2.820   5.585
 1463SOL    HW1 4841   1.696   2.752   5.533
 1463SOL    HW2 4842   1.677   2.839   5.655
 1464SOL     OW 4843   0.329   1.924   4.355
 1464SOL    HW1 4844   0.308   2.014   4.379
 1464SOL    HW2 4845   0.337   1.878   4.439
 1465SOL     OW 4846   1.623   2.242   4.084
 1465SOL    HW1 4847   1.653   2.176   4.146
 1465SOL    HW2 4848   1.598   2.317   4.139
 1466SOL     OW 4849   1.030   2.620   4.682
 1466SOL    HW1 4850   1.019   2.637   4.775
 1466SOL    HW2 4851   1.003   2.529   4.671
 1467SOL     OW 4852   0.981   3.427   5.447
 1467SOL    HW1 4853   0.965   3.472   5.363
 1467SOL    HW2 4854   1.025   3.346   5.423
 1468SOL     OW 4855   1.850   3.364   5.326
 1468SOL    HW1 4856   1.873   3.389   5.237
 1468SOL    HW2 4857   1.931   3.376   5.376
 1469SOL     OW 4858   0.357   2.781   5.531
 1469SOL    HW1 4859   0.437   2.800   5.581
 1469SOL    HW2 4860   0.385   2.715   5.466
 1470SOL     OW 4861   1.520   2.138   3.850
 1470SOL    HW1 4862   1.459   2.070   3.880
 1470SOL    HW2 4863   1.559   2.172   3.931
 1471SOL     OW 4864   1.286   2.685   3.753
 1471SOL    HW1 4865   1.330   2.600   3.757
 1471SOL    HW2 4866   1.318   2.724   3.671
 1472SOL     OW 4867   1.071   3.202   4.582
 1472SOL    HW1 4868   1.076   3.130   4.519
 1472SOL    HW2 4869   1.127   3.270   4.546
 1473SOL     OW 4870   0.311   2.670   4.672
 1473SOL    HW1 4871   0.405   2.688   4.670
 1473SOL    HW2 4872   0.304   2.580   4.703
 1474SOL     OW 4873   0.331   2.391   4.741
 1474SOL    HW1 4874   0.296   2.303   4.728
 1474SOL    HW2 4875   0.406   2.396   4.682
 1475SOL     OW 4876   1.134   2.234   5.411
 1475SOL    HW1 4877   1.086   2.288   5.473
 1475SOL    HW2 4878   1.221   2.274   5.406
 1476SOL     OW 4879   1.161   2.059   5.197
 1476SOL    HW1 4880   1.149   2.122   5.268
 1476SOL    HW2 4881   1.203   2.109   5.127
 1477SOL     OW 4882   0.009   3.184   3.931
 1477SOL    HW1 4883   5.238   3.169   3.867
 1477SOL    HW2 4884   0.018   3.100   3.976
 1478SOL     OW 4885   0.104   3.643   4.686
 1478SOL    HW1 4886   0.065   3.581   4.625
 1478SOL    HW2 4887   0.189   3.666   4.646
 1479SOL     OW 4888   0.503   3.436   4.632
 1479SOL    HW1 4889   0.570   3.502   4.651
 1479SOL    HW2 4890   0.545   3.376   4.570
 1480SOL     OW 4891   0.971   2.648   4.946
 1480SOL    HW1 4892   1.031   2.630   5.019
 1480SOL    HW2 4893   0.888   2.609   4.974
 1481SOL     OW 4894   0.029   2.439   4.846
 1481SOL    HW1 4895   0.115   2.415   4.809
 1481SOL    HW2 4896   0.035   2.412   4.938
 1482SOL     OW 4897   0.166   2.376   5.439
 1482SOL    HW1 4898   0.227   2.331   5.380
 1482SOL    HW2 4899   0.147   2.459   5.395
 1483SOL     OW 4900   1.382   2.794   5.380
 1483SOL    HW1 4901   1.403   2.887   5.377
 1483SOL    HW2 4902   1.377   2.767   5.289
 1484SOL     OW 4903   0.818   2.432   4.091
 1484SOL    HW1 4904   0.824   2.358   4.031
 1484SOL    HW2 4905   0.743   2.483   4.061
 1485SOL     OW 4906   1.630   2.464   4.905
 1485SOL    HW1 4907   1.612   2.413   4.984
 1485SOL    HW2 4908   1.714   2.431   4.873
 1486SOL     OW 4909   0.253   3.415   5.456
 1486SOL    HW1 4910   0.235   3.479   5.525
 1486SOL    HW2 4911   0.253   3.331   5.501
 1487SOL     OW 4912   0.716   2.306   4.976
 1487SOL    HW1 4913   0.659   2.234   4.952
 1487SOL    HW2 4914   0.706   2.370   4.905
 1488SOL     OW 4915   0.922   3.540   5.196
 1488SOL    HW1 4916   0.897   3.500   5.113
 1488SOL    HW2 4917   0.916   3.634   5.181
 1489SOL     OW 4918   0.463   2.353   3.899
 1489SOL    HW1 4919   0.524   2.422   3.928
 1489SOL    HW2 4920   0.380   2.399   3.886
 1490SOL     OW 4921   0.145   2.999   5.193
 1490SOL    HW1 4922   0.142   2.954   5.277
 1490SOL    HW2 4923   0.153   2.928   5.129
 1491SOL     OW 4924   1.319   2.904   4.942
 1491SOL    HW1 4925   1.340   2.841   4.873
 1491SOL    HW2 4926   1.253   2.962   4.903
 1492SOL     OW 4927   1.315   2.713   4.029
 1492SOL    HW1 4928   1.239   2.684   4.080
 1492SOL    HW2 4929   1.288   2.701   3.938
 1493SOL     OW 4930   1.784   3.599   4.884
 1493SOL    HW1 4931   1.842   3.624   4.812
 1493SOL    HW2 4932   1.753   3.511   4.860
 1494SOL     OW 4933   1.239   3.594   4.827
 1494SOL    HW1 4934   1.323   3.619   4.787
 1494SOL    HW2 4935   1.250   3.502   4.849
 1495SOL     OW 4936   0.080   3.062   4.751
 1495SOL    HW1 4937   0.065   3.092   4.840
 1495SOL    HW2 4938   5.292   3.056   4.712
 1496SOL     OW 4939   0.679   3.535   5.464
 1496SOL    HW1 4940   0.618   3.608   5.453
 1496SOL    HW2 4941   0.748   3.551   5.398
 1497SOL     OW 4942   1.721   2.015   4.224
 1497SOL    HW1 4943   1.789   2.000   4.159
 1497SOL    HW2 4944   1.706   1.929   4.263
 1498SOL     OW 4945   1.392   3.430   4.215
 1498SOL    HW1 4946   1.450   3.464   4.147
 1498SOL    HW2 4947   1.341   3.506   4.243
 1499SOL     OW 4948   0.151   3.659   5.567
 1499SOL    HW1 4949   0.097   3.597   5.616
 1499SOL    HW2 4950   0.204   3.702   5.634
 1500SOL     OW 4951   1.277   2.790   4.394
 1500SOL    HW1 4952   1.352   2.731   4.405
 1500SOL    HW2 4953   1.310   2.862   4.340
 1501SOL     OW 4954   0.803   3.139   5.147
 1501SOL    HW1 4955   0.775   3.181   5.228
 1501SOL    HW2 4956   0.732   3.155   5.085
 1502SOL     OW 4957   0.672   3.488   3.878
 1502SOL    HW1 4958   0.684   3.503   3.784
 1502SOL    HW2 4959   0.616   3.410   3.883
 1503SOL     OW 4960   1.618   3.589   5.116
 1503SOL    HW1 4961   1.674   3.593   5.038
 1503SOL    HW2 4962   1.604   3.681   5.140
 1504SOL     OW 4963   1.837   2.032   4.691
 1504SOL    HW1 4964   1.865   1.943   4.668
 1504SOL    HW2 4965   1.751   2.041   4.650
 1505SOL     OW 4966   0.275   2.178   4.439
 1505SOL    HW1 4967   0.189   2.216   4.422
 1505SOL    HW2 4968   0.280   2.169   4.534
 1506SOL     OW 4969   1.208   3.462   3.757
 1506SOL    HW1 4970   1.197   3.371   3.783
 1506SOL    HW2 4971   1.142   3.476   3.689
 1507SOL     OW 4972   0.824   2.869   5.100
 1507SOL    HW1 4973   0.866   2.862   5.015
 1507SOL    HW2 4974   0.820   2.963   5.117
 1508SOL     OW 4975   0.916   2.772   4.016
 1508SOL    HW1 4976   0.976   2.805   3.949
 1508SOL    HW2 4977   0.966   2.705   4.061
 1509SOL     OW 4978   1.487   3.495   3.769
 1509SOL    HW1 4979   1.393   3.484   3.753
 1509SOL    HW2 4980   1.525   3.500   3.681
 1510SOL     OW 4981   0.366   3.167   5.218
 1510SOL    HW1 4982   0.359   3.240   5.157
 1510SOL    HW2 4983   0.291   3.111   5.198
 1511SOL     OW 4984   1.610   3.145   5.004
 1511SOL    HW1 4985   1.665   3.127   5.080
 1511SOL    HW2 4986   1.549   3.213   5.034
 1512SOL     OW 4987   1.063   2.973   4.436
 1512SOL    HW1 4988   0.990   2.923   4.472
 1512SOL    HW2 4989   1.126   2.906   4.410
 1513SOL     OW 4990   1.025   2.105   4.690
 1513SOL    HW1 4991   1.022   2.059   4.606
 1513SOL    HW2 4992   1.019   2.036   4.756
 1514SOL     OW 4993   0.604   3.350   4.203
 1514SOL    HW1 4994   0.654   3.300   4.139
 1514SOL    HW2 4995   0.534   3.391   4.152
 1515SOL     OW 4996   1.731   2.257   5.109
 1515SOL    HW1 4997   1.801   2.321   5.099
 1515SOL    HW2 4998   1.754   2.186   5.049
 1516SOL     OW 4999   0.264   3.211   4.025
 1516SOL    HW1 5000   0.173   3.209   3.999
 1516SOL    HW2 5001   0.263   3.250   4.112
 1517SOL     OW 5002   0.122   2.879   5.439
 1517SOL    HW1 5003   0.052   2.844   5.495
 1517SOL    HW2 5004   0.202   2.849   5.480
 1518SOL     OW 5005   0.677   2.056   5.224
 1518SOL    HW1 5006   0.761   2.034   5.184
 1518SOL    HW2 5007   0.700   2.090   5.311
 1519SOL     OW 5008   0.090   2.191   3.759
 1519SOL    HW1 5009   0.001   2.160   3.741
 1519SOL    HW2 5010   0.104   2.261   3.695
 1520SOL     OW 5011   1.424   2.719   5.120
 1520SOL    HW1 5012   1.374   2.780   5.066
 1520SOL    HW2 5013   1.513   2.722   5.084
 1521SOL     OW 5014   0.069   2.004   3.985
 1521SOL    HW1 5015   0.062   2.086   3.936
 1521SOL    HW2 5016   0.148   1.962   3.950
 1522SOL     OW 5017   1.177   3.195   3.843
 1522SOL    HW1 5018   1.086   3.167   3.843
 1522SOL    HW2 5019   1.203   3.197   3.935
 1523SOL     OW 5020   0.622   2.694   5.162
 1523SOL    HW1 5021   0.679   2.769   5.147
 1523SOL    HW2 5022   0.681   2.619   5.167
 1524SOL     OW 5023   1.483   3.649   4.708
 1524SOL    HW1 5024   1.507   3.716   4.644
 1524SOL    HW2 5025   1.567   3.616   4.741
 1525SOL     OW 5026   0.718   2.421   5.424
 1525SOL    HW1 5027   0.764   2.479   5.484
 1525SOL    HW2 5028   0.736   2.333   5.457
 1526SOL     OW 5029   1.473   3.055   5.352
 1526SOL    HW1 5030   1.462   3.071   5.445
 1526SOL    HW2 5031   1.565   3.076   5.334
 1527SOL     OW 5032   0.369   3.609   5.290
 1527SOL    HW1 5033   0.287   3.654   5.271
 1527SOL    HW2 5034   0.342   3.528   5.334
 1528SOL     OW 5035   1.663   2.742   4.980
 1528SOL    HW1 5036   1.660   2.657   4.936
 1528SOL    HW2 5037   1.656   2.806   4.909
 1529SOL     OW 5038   1.217   2.182   4.181
 1529SOL    HW1 5039   1.278   2.109   4.176
 1529SOL    HW2 5040   1.246   2.232   4.257
 1530SOL     OW 5041   0.586   2.595   4.397
 1530SOL    HW1 5042   0.626   2.680   4.382
 1530SOL    HW2 5043   0.518   2.588   4.329
 1531SOL     OW 5044   1.757   2.224   5.378
 1531SOL    HW1 5045   1.742   2.243   5.285
 1531SOL    HW2 5046   1.683   2.169   5.404
 1532SOL     OW 5047   1.752   2.791   5.236
 1532SOL    HW1 5048   1.740   2.885   5.250
 1532SOL    HW2 5049   1.733   2.779   5.143
 1533SOL     OW 5050   0.866   3.226   3.769
 1533SOL    HW1 5051   0.827   3.256   3.851
 1533SOL    HW2 5052   0.880   3.307   3.719
 1534SOL     OW 5053   0.668   3.649   4.659
 1534SOL    HW1 5054   0.649   3.741   4.640
 1534SOL    HW2 5055   0.764   3.644   4.654
 1535SOL     OW 5056   0.870   2.833   4.577
 1535SOL    HW1 5057   0.920   2.760   4.614
 1535SOL    HW2 5058   0.831   2.876   4.652
 1536SOL     OW 5059   1.076   2.849   3.813
 1536SOL    HW1 5060   1.055   2.902   3.736
 1536SOL    HW2 5061   1.150   2.795   3.786
 1537SOL     OW 5062   1.851   3.411   4.565
 1537SOL    HW1 5063   1.767   3.396   4.522
 1537SOL    HW2 5064   1.862   3.337   4.624
 1538SOL     OW 5065   0.231   3.163   5.587
 1538SOL    HW1 5066   0.165   3.099   5.559
 1538SOL    HW2 5067   0.216   3.173   5.681
 1539SOL     OW 5068   0.095   3.062   4.372
 1539SOL    HW1 5069   0.120   3.040   4.462
 1539SOL    HW2 5070   0.171   3.106   4.336
 1540SOL     OW 5071   0.686   3.270   5.356
 1540SOL    HW1 5072   0.606   3.229   5.389
 1540SOL    HW2 5073   0.683   3.359   5.392
 1541SOL     OW 5074   1.798   2.043   4.962
 1541SOL    HW1 5075   1.820   1.951   4.976
 1541SOL    HW2 5076   1.814   2.057   4.868
 1542SOL     OW 5077   0.439   2.297   4.246
 1542SOL    HW1 5078   0.467   2.224   4.191
 1542SOL    HW2 5079   0.391   2.256   4.317
 1543SOL     OW 5080   1.688   3.354   4.822
 1543SOL    HW1 5081   1.615   3.332   4.765
 1543SOL    HW2 5082   1.696   3.279   4.882
 1544SOL     OW 5083   0.343   2.428   5.017
 1544SOL    HW1 5084   0.396   2.367   5.070
 1544SOL    HW2 5085   0.355   2.397   4.927
 1545SOL     OW 5086   0.835   3.440   4.398
 1545SOL    HW1 5087   0.812   3.508   4.334
 1545SOL    HW2 5088   0.759   3.382   4.399
 1546SOL     OW 5089   1.429   2.093   4.840
 1546SOL    HW1 5090   1.450   2.010   4.883
 1546SOL    HW2 5091   1.378   2.141   4.906
 1547SOL     OW 5092   1.009   1.878   4.858
 1547SOL    HW1 5093   0.954   1.813   4.815
 1547SOL    HW2 5094   1.096   1.839   4.860
 1548SOL     OW 5095   0.774   3.196   4.047
 1548SOL    HW1 5096   0.748   3.104   4.055
 1548SOL    HW2 5097   0.856   3.202   4.096
 1549SOL     OW 5098   0.625   3.418   5.015
 1549SOL    HW1 5099   0.624   3.500   5.064
 1549SOL    HW2 5100   0.712   3.414   4.976
 1550SOL     OW 5101   1.358   1.913   3.898
 1550SOL    HW1 5102   1.392   1.844   3.841
 1550SOL    HW2 5103   1.269   1.886   3.918
 1551SOL     OW 5104   1.296   2.327   4.401
 1551SOL    HW1 5105   1.242   2.406   4.405
 1551SOL    HW2 5106   1.291   2.290   4.489
 1552SOL     OW 5107   1.580   2.053   4.606
 1552SOL    HW1 5108   1.526   2.081   4.680
 1552SOL    HW2 5109   1.582   2.130   4.548
 1553SOL     OW 5110   0.049   2.927   4.014
 1553SOL    HW1 5111   0.137   2.890   4.005
 1553SOL    HW2 5112   5.298   2.858   4.055
 1554SOL     OW 5113   0.891   3.522   4.060
 1554SOL    HW1 5114   0.816   3.508   4.003
 1554SOL    HW2 5115   0.865   3.595   4.117
 1555SOL     OW 5116   0.229   2.485   5.706
 1555SOL    HW1 5117   0.163   2.441   5.760
 1555SOL    HW2 5118   0.207   2.461   5.616
 1556SOL     OW 5119   0.247   2.138   6.572
 1556SOL    HW1 5120   0.260   2.102   6.660
 1556SOL    HW2 5121   0.161   2.106   6.546
 1557SOL     OW 5122   5.296   2.265   6.243
 1557SOL    HW1 5123   5.202   2.286   6.243
 1557SOL    HW2 5124   0.000   2.178   6.204
 1558SOL     OW 5125   0.581   3.158   6.782
 1558SOL    HW1 5126   0.500   3.164   6.732
 1558SOL    HW2 5127   0.596   3.247   6.814
 1559SOL     OW 5128   1.573   3.377   6.295
 1559SOL    HW1 5129   1.529   3.353   6.377
 1559SOL    HW2 5130   1.503   3.380   6.230
 1560SOL     OW 5131   1.133   2.561   6.280
 1560SOL    HW1 5132   1.181   2.643   6.268
 1560SOL    HW2 5133   1.086   2.572   6.362
 1561SOL     OW 5134   1.780   2.459   5.811
 1561SOL    HW1 5135   1.752   2.455   5.720
 1561SOL    HW2 5136   1.739   2.383   5.852
 1562SOL     OW 5137   0.744   2.996   6.632
 1562SOL    HW1 5138   0.683   3.034   6.695
 1562SOL    HW2 5139   0.784   3.072   6.588
 1563SOL     OW 5140   0.874   2.623   7.405
 1563SOL    HW1 5141   0.871   2.695   7.468
 1563SOL    HW2 5142   0.897   2.665   7.322
 1564SOL     OW 5143   0.685   2.857   6.230
 1564SOL    HW1 5144   0.752   2.850   6.298
 1564SOL    HW2 5145   0.618   2.914   6.268
 1565SOL     OW 5146   0.714   3.014   7.407
 1565SOL    HW1 5147   0.762   3.090   7.437
 1565SOL    HW2 5148   0.636   3.050   7.365
 1566SOL     OW 5149   0.360   3.263   6.648
 1566SOL    HW1 5150   0.269   3.266   6.617
 1566SOL    HW2 5151   0.407   3.324   6.591
 1567SOL     OW 5152   1.459   3.365   6.948
 1567SOL    HW1 5153   1.513   3.443   6.957
 1567SOL    HW2 5154   1.390   3.375   7.014
 1568SOL     OW 5155   0.455   2.258   7.068
 1568SOL    HW1 5156   0.530   2.199   7.075
 1568SOL    HW2 5157   0.378   2.203   7.084
 1569SOL     OW 5158   1.604   2.304   6.331
 1569SOL    HW1 5159   1.533   2.321   6.270
 1569SOL    HW2 5160   1.604   2.379   6.391
 1570SOL     OW 5161   0.243   3.574   6.062
 1570SOL    HW1 5162   0.267   3.647   6.119
 1570SOL    HW2 5163   0.307   3.577   5.991
 1571SOL     OW 5164   1.137   3.203   7.275
 1571SOL    HW1 5165   1.178   3.199   7.362
 1571SOL    HW2 5166   1.086   3.122   7.269
 1572SOL     OW 5167   0.215   3.313   6.133
 1572SOL    HW1 5168   0.228   3.406   6.112
 1572SOL    HW2 5169   0.143   3.313   6.196
 1573SOL     OW 5170   0.256   2.937   6.456
 1573SOL    HW1 5171   0.267   2.849   6.491
 1573SOL    HW2 5172   0.202   2.982   6.520
 1574SOL     OW 5173   0.603   3.654   7.016
 1574SOL    HW1 5174   0.520   3.637   7.060
 1574SOL    HW2 5175   0.627   3.743   7.041
 1575SOL     OW 5176   0.575   2.849   5.727
 1575SOL    HW1 5177   0.625   2.893   5.658
 1575SOL    HW2 5178   0.614   2.879   5.809
 1576SOL     OW 5179   1.595   1.990   7.049
 1576SOL    HW1 5180   1.620   2.070   7.004
 1576SOL    HW2 5181   1.574   2.018   7.138
 1577SOL     OW 5182   0.128   2.490   6.167
 1577SOL    HW1 5183   0.089   2.410   6.201
 1577SOL    HW2 5184   0.101   2.558   6.229
 1578SOL     OW 5185   1.844   3.615   5.916
 1578SOL    HW1 5186   1.913   3.590   5.977
 1578SOL    HW2 5187   1.861   3.707   5.896
 1579SOL     OW 5188   0.039   3.462   5.722
 1579SOL    HW1 5189   0.028   3.370   5.747
 1579SOL    HW2 5190   5.273   3.509   5.773
 1580SOL     OW 5191   1.689   2.781   6.231
 1580SOL    HW1 5192   1.770   2.737   6.207
 1580SOL    HW2 5193   1.666   2.833   6.154
 1581SOL     OW 5194   1.650   2.965   6.016
 1581SOL    HW1 5195   1.737   2.965   5.975
 1581SOL    HW2 5196   1.657   3.029   6.087
 1582SOL     OW 5197   0.140   2.609   7.169
 1582SOL    HW1 5198   0.235   2.621   7.164
 1582SOL    HW2 5199   0.106   2.697   7.188
 1583SOL     OW 5200   0.619   3.253   6.319
 1583SOL    HW1 5201   0.573   3.170   6.329
 1583SOL    HW2 5202   0.602   3.280   6.229
 1584SOL     OW 5203   1.285   3.097   7.006
 1584SOL    HW1 5204   1.315   3.029   6.946
 1584SOL    HW2 5205   1.344   3.092   7.081
 1585SOL     OW 5206   0.830   1.866   6.101
 1585SOL    HW1 5207   0.870   1.949   6.076
 1585SOL    HW2 5208   0.736   1.885   6.104
 1586SOL     OW 5209   0.166   2.798   6.869
 1586SOL    HW1 5210   0.257   2.767   6.863
 1586SOL    HW2 5211   0.133   2.792   6.779
 1587SOL     OW 5212   1.531   2.862   5.787
 1587SOL    HW1 5213   1.462   2.805   5.820
 1587SOL    HW2 5214   1.574   2.896   5.865
 1588SOL     OW 5215   1.182   3.676   7.212
 1588SOL    HW1 5216   1.188   3.737   7.139
 1588SOL    HW2 5217   1.202   3.591   7.174
 1589SOL     OW 5218   0.353   2.116   7.419
 1589SOL    HW1 5219   0.395   2.198   7.442
 1589SOL    HW2 5220   0.261   2.127   7.444
 1590SOL     OW 5221   1.468   3.281   6.532
 1590SOL    HW1 5222   1.401   3.298   6.599
 1590SOL    HW2 5223   1.454   3.190   6.506
 1591SOL     OW 5224   1.651   3.619   6.162
 1591SOL    HW1 5225   1.634   3.584   6.075
 1591SOL    HW2 5226   1.635   3.545   6.221
 1592SOL     OW 5227   0.593   2.578   5.859
 1592SOL    HW1 5228   0.599   2.661   5.813
 1592SOL    HW2 5229   0.527   2.593   5.927
 1593SOL     OW 5230   1.279   2.230   6.521
 1593SOL    HW1 5231   1.190   2.195   6.529
 1593SOL    HW2 5232   1.331   2.175   6.579
 1594SOL     OW 5233   1.578   3.536   5.897
 1594SOL    HW1 5234   1.670   3.560   5.889
 1594SOL    HW2 5235   1.549   3.519   5.807
 1595SOL     OW 5236   0.790   2.480   7.033
 1595SOL    HW1 5237   0.764   2.453   7.121
 1595SOL    HW2 5238   0.757   2.410   6.976
 1596SOL     OW 5239   1.392   2.336   7.262
 1596SOL    HW1 5240   1.397   2.381   7.347
 1596SOL    HW2 5241   1.449   2.259   7.273
 1597SOL     OW 5242   0.951   2.747   7.171
 1597SOL    HW1 5243   1.005   2.679   7.132
 1597SOL    HW2 5244   0.902   2.784   7.098
 1598SOL     OW 5245   0.995   2.270   6.818
 1598SOL    HW1 5246   0.905   2.287   6.846
 1598SOL    HW2 5247   0.985   2.228   6.732
 1599SOL     OW 5248   1.054   2.560   6.010
 1599SOL    HW1 5249   1.073   2.554   6.103
 1599SOL    HW2 5250   0.971   2.515   5.999
 1600SOL     OW 5251   0.064   2.656   6.393
 1600SOL    HW1 5252   0.144   2.659   6.445
 1600SOL    HW2 5253   0.075   2.726   6.329
 1601SOL     OW 5254   0.121   3.750   7.174
 1601SOL    HW1 5255   0.129   3.728   7.267
 1601SOL    HW2 5256   0.056   3.687   7.140
 1602SOL     OW 5257   0.900   2.213   5.782
 1602SOL    HW1 5258   0.939   2.277   5.722
 1602SOL    HW2 5259   0.908   2.129   5.736
 1603SOL     OW 5260   1.704   2.432   7.418
 1603SOL    HW1 5261   1.669   2.506   7.369
 1603SOL    HW2 5262   1.732   2.369   7.351
 1604SOL     OW 5263   1.381   3.004   6.125
 1604SOL    HW1 5264   1.461   2.994   6.072
 1604SOL    HW2 5265   1.328   3.066   6.076
 1605SOL     OW 5266   0.561   2.042   6.484
 1605SOL    HW1 5267   0.559   2.071   6.575
 1605SOL    HW2 5268   0.554   2.123   6.433
 1606SOL     OW 5269   0.998   3.305   6.054
 1606SOL    HW1 5270   0.969   3.381   6.003
 1606SOL    HW2 5271   0.975   3.326   6.144
 1607SOL     OW 5272   0.361   3.671   6.458
 1607SOL    HW1 5273   0.400   3.585   6.471
 1607SOL    HW2 5274   0.426   3.733   6.492
 1608SOL     OW 5275   1.800   2.910   6.460
 1608SOL    HW1 5276   1.747   2.894   6.382
 1608SOL    HW2 5277   1.735   2.918   6.531
 1609SOL     OW 5278   1.226   3.403   7.099
 1609SOL    HW1 5279   1.215   3.330   7.159
 1609SOL    HW2 5280   1.158   3.391   7.033
 1610SOL     OW 5281   0.311   2.812   5.839
 1610SOL    HW1 5282   0.391   2.836   5.793
 1610SOL    HW2 5283   0.290   2.724   5.807
 1611SOL     OW 5284   1.482   2.612   6.306
 1611SOL    HW1 5285   1.479   2.573   6.394
 1611SOL    HW2 5286   1.560   2.668   6.307
 1612SOL     OW 5287   0.469   3.129   7.324
 1612SOL    HW1 5288   0.443   3.135   7.232
 1612SOL    HW2 5289   0.386   3.128   7.372
 1613SOL     OW 5290   1.126   3.640   5.814
 1613SOL    HW1 5291   1.050   3.601   5.857
 1613SOL    HW2 5292   1.150   3.577   5.746
 1614SOL     OW 5293   0.207   2.135   7.084
 1614SOL    HW1 5294   0.131   2.188   7.062
 1614SOL    HW2 5295   0.171   2.054   7.120
 1615SOL     OW 5296   1.629   3.244   5.679
 1615SOL    HW1 5297   1.588   3.329   5.663
 1615SOL    HW2 5298   1.561   3.180   5.656
 1616SOL     OW 5299   0.472   3.597   5.902
 1616SOL    HW1 5300   0.518   3.653   5.965
 1616SOL    HW2 5301   0.541   3.563   5.846
 1617SOL     OW 5302   1.400   1.969   6.028
 1617SOL    HW1 5303   1.392   1.943   5.936
 1617SOL    HW2 5304   1.494   1.973   6.043
 1618SOL     OW 5305   0.277   3.662   6.786
 1618SOL    HW1 5306   0.306   3.579   6.823
 1618SOL    HW2 5307   0.218   3.638   6.714
 1619SOL     OW 5308   0.942   3.562   6.481
 1619SOL    HW1 5309   1.022   3.514   6.504
 1619SOL    HW2 5310   0.901   3.511   6.412
 1620SOL     OW 5311   0.386   2.555   6.063
 1620SOL    HW1 5312   0.415   2.465   6.073
 1620SOL    HW2 5313   0.293   2.552   6.086
 1621SOL     OW 5314   1.526   2.085   7.308
 1621SOL    HW1 5315   1.537   2.107   7.401
 1621SOL    HW2 5316   1.458   2.019   7.307
 1622SOL     OW 5317   0.646   1.978   5.688
 1622SOL    HW1 5318   0.705   1.906   5.705
 1622SOL    HW2 5319   0.592   1.949   5.614
 1623SOL     OW 5320   0.763   2.140   7.343
 1623SOL    HW1 5321   0.844   2.089   7.340
 1623SOL    HW2 5322   0.721   2.114   7.425
 1624SOL     OW 5323   0.878   3.386   6.780
 1624SOL    HW1 5324   0.859   3.347   6.694
 1624SOL    HW2 5325   0.946   3.331   6.817
 1625SOL     OW 5326   1.338   2.452   7.018
 1625SOL    HW1 5327   1.369   2.421   7.103
 1625SOL    HW2 5328   1.375   2.540   7.010
 1626SOL     OW 5329   0.820   3.248   6.533
 1626SOL    HW1 5330   0.905   3.238   6.491
 1626SOL    HW2 5331   0.758   3.257   6.461
 1627SOL     OW 5332   0.930   2.372   6.485
 1627SOL    HW1 5333   0.904   2.362   6.393
 1627SOL    HW2 5334   0.958   2.284   6.511
 1628SOL     OW 5335   0.565   1.923   6.077
 1628SOL    HW1 5336   0.489   1.924   6.136
 1628SOL    HW2 5337   0.552   2.001   6.022
 1629SOL     OW 5338   1.428   3.063   5.624
 1629SOL    HW1 5339   1.457   2.989   5.676
 1629SOL    HW2 5340   1.343   3.087   5.661
 1630SOL     OW 5341   0.307   1.906   5.761
 1630SOL    HW1 5342   0.366   1.974   5.728
 1630SOL    HW2 5343   0.364   1.846   5.808
 1631SOL     OW 5344   0.945   2.112   6.040
 1631SOL    HW1 5345   0.920   2.151   5.956
 1631SOL    HW2 5346   1.039   2.129   6.047
 1632SOL     OW 5347   1.080   2.547   7.041
 1632SOL    HW1 5348   1.016   2.476   7.046
 1632SOL    HW2 5349   1.165   2.502   7.036
 1633SOL     OW 5350   1.218   3.435   6.381
 1633SOL    HW1 5351   1.232   3.500   6.312
 1633SOL    HW2 5352   1.288   3.452   6.444
 1634SOL     OW 5353   0.471   3.017   6.307
 1634SOL    HW1 5354   0.404   2.993   6.371
 1634SOL    HW2 5355   0.430   3.003   6.222
 1635SOL     OW 5356   1.263   3.654   6.199
 1635SOL    HW1 5357   1.311   3.716   6.145
 1635SOL    HW2 5358   1.193   3.706   6.239
 1636SOL     OW 5359   1.024   2.395   5.613
 1636SOL    HW1 5360   0.981   2.478   5.593
 1636SOL    HW2 5361   1.089   2.417   5.680
 1637SOL     OW 5362   0.096   2.399   6.989
 1637SOL    HW1 5363   0.182   2.408   6.950
 1637SOL    HW2 5364   0.084   2.477   7.042
 1638SOL     OW 5365   0.561   2.091   6.757
 1638SOL    HW1 5366   0.598   2.014   6.801
 1638SOL    HW2 5367   0.469   2.090   6.782
 1639SOL     OW 5368   0.867   2.319   6.223
 1639SOL    HW1 5369   0.823   2.375   6.159
 1639SOL    HW2 5370   0.890   2.240   6.174
 1640SOL     OW 5371   1.019   1.916   6.332
 1640SOL    HW1 5372   0.959   1.910   6.257
 1640SOL    HW2 5373   0.996   1.842   6.388
 1641SOL     OW 5374   1.440   3.022   6.443
 1641SOL    HW1 5375   1.368   2.959   6.443
 1641SOL    HW2 5376   1.464   3.030   6.350
 1642SOL     OW 5377   1.466   2.472   6.551
 1642SOL    HW1 5378   1.407   2.396   6.555
 1642SOL    HW2 5379   1.522   2.464   6.628
 1643SOL     OW 5380   1.841   2.671   5.973
 1643SOL    HW1 5381   1.900   2.622   6.030
 1643SOL    HW2 5382   1.817   2.608   5.905
 1644SOL     OW 5383   0.491   3.286   5.739
 1644SOL    HW1 5384   0.416   3.258   5.791
 1644SOL    HW2 5385   0.485   3.234   5.658
 1645SOL     OW 5386   1.678   3.126   6.228
 1645SOL    HW1 5387   1.773   3.124   6.244
 1645SOL    HW2 5388   1.652   3.215   6.249
 1646SOL     OW 5389   1.393   2.435   5.657
 1646SOL    HW1 5390   1.332   2.414   5.727
 1646SOL    HW2 5391   1.478   2.405   5.689
 1647SOL     OW 5392   0.526   2.123   5.894
 1647SOL    HW1 5393   0.577   2.080   5.826
 1647SOL    HW2 5394   0.499   2.206   5.855
 1648SOL     OW 5395   1.746   3.105   7.145
 1648SOL    HW1 5396   1.834   3.068   7.136
 1648SOL    HW2 5397   1.762   3.194   7.177
 1649SOL     OW 5398   1.054   3.214   6.916
 1649SOL    HW1 5399   0.978   3.184   6.966
 1649SOL    HW2 5400   1.129   3.173   6.959
 1650SOL     OW 5401   1.609   3.490   7.242
 1650SOL    HW1 5402   1.601   3.524   7.153
 1650SOL    HW2 5403   1.691   3.440   7.241
 1651SOL     OW 5404   1.136   3.073   6.687
 1651SOL    HW1 5405   1.076   3.111   6.752
 1651SOL    HW2 5406   1.107   3.109   6.603
 1652SOL     OW 5407   1.621   2.957   6.662
 1652SOL    HW1 5408   1.614   3.020   6.733
 1652SOL    HW2 5409   1.546   2.976   6.605
 1653SOL     OW 5410   0.919   1.954   6.977
 1653SOL    HW1 5411   0.941   1.936   6.886
 1653SOL    HW2 5412   0.998   1.993   7.014
 1654SOL     OW 5413   0.984   2.975   7.313
 1654SOL    HW1 5414   0.893   2.993   7.334
 1654SOL    HW2 5415   0.982   2.897   7.257
 1655SOL     OW 5416   0.709   2.924   5.958
 1655SOL    HW1 5417   0.696   2.903   6.050
 1655SOL    HW2 5418   0.785   2.870   5.932
 1656SOL     OW 5419   0.420   2.688   6.843
 1656SOL    HW1 5420   0.489   2.696   6.908
 1656SOL    HW2 5421   0.389   2.598   6.852
 1657SOL     OW 5422   1.263   2.236   6.868
 1657SOL    HW1 5423   1.295   2.314   6.913
 1657SOL    HW2 5424   1.172   2.257   6.846
 1658SOL     OW 5425   0.104   3.480   6.948
 1658SOL    HW1 5426   0.084   3.484   6.854
 1658SOL    HW2 5427   0.194   3.445   6.951
 1659SOL     OW 5428   0.344   2.978   6.064
 1659SOL    HW1 5429   0.337   3.057   6.011
 1659SOL    HW2 5430   0.341   2.906   6.001
 1660SOL     OW 5431   0.548   2.391   6.444
 1660SOL    HW1 5432   0.562   2.450   6.370
 1660SOL    HW2 5433   0.615   2.416   6.508
 1661SOL     OW 5434   1.247   3.212   5.977
 1661SOL    HW1 5435   1.303   3.283   6.009
 1661SOL    HW2 5436   1.160   3.233   6.010
 1662SOL     OW 5437   1.291   3.323   6.735
 1662SOL    HW1 5438   1.347   3.329   6.813
 1662SOL    HW2 5439   1.236   3.247   6.751
 1663SOL     OW 5440   1.577   2.481   6.071
 1663SOL    HW1 5441   1.527   2.527   6.139
 1663SOL    HW2 5442   1.620   2.551   6.021
 1664SOL     OW 5443   0.354   3.383   6.893
 1664SOL    HW1 5444   0.344   3.337   6.809
 1664SOL    HW2 5445   0.447   3.401   6.900
 1665SOL     OW 5446   0.420   2.602   7.189
 1665SOL    HW1 5447   0.483   2.647   7.133
 1665SOL    HW2 5448   0.457   2.515   7.201
 1666SOL     OW 5449   1.609   2.643   7.275
 1666SOL    HW1 5450   1.523   2.685   7.268
 1666SOL    HW2 5451   1.661   2.684   7.206
 1667SOL     OW 5452   0.997   1.996   7.340
 1667SOL    HW1 5453   1.055   2.070   7.318
 1667SOL    HW2 5454   1.046   1.918   7.314
 1668SOL     OW 5455   0.499   1.897   7.337
 1668SOL    HW1 5456   0.451   1.847   7.271
 1668SOL    HW2 5457   0.446   1.976   7.351
 1669SOL     OW 5458   0.586   2.738   6.621
 1669SOL    HW1 5459   0.623   2.826   6.622
 1669SOL    HW2 5460   0.529   2.734   6.698
 1670SOL     OW 5461   1.345   2.720   6.605
 1670SOL    HW1 5462   1.258   2.703   6.568
 1670SOL    HW2 5463   1.392   2.637   6.595
 1671SOL     OW 5464   1.199   2.389   5.847
 1671SOL    HW1 5465   1.208   2.311   5.902
 1671SOL    HW2 5466   1.157   2.454   5.904
 1672SOL     OW 5467   0.301   2.063   6.832
 1672SOL    HW1 5468   0.269   2.084   6.919
 1672SOL    HW2 5469   0.290   1.968   6.825
 1673SOL     OW 5470   0.050   3.170   6.862
 1673SOL    HW1 5471   0.083   3.115   6.932
 1673SOL    HW2 5472   5.279   3.220   6.902
 1674SOL     OW 5473   0.719   2.490   6.637
 1674SOL    HW1 5474   0.796   2.479   6.582
 1674SOL    HW2 5475   0.690   2.580   6.621
 1675SOL     OW 5476   1.740   2.822   7.445
 1675SOL    HW1 5477   1.695   2.755   7.395
 1675SOL    HW2 5478   1.681   2.841   7.519
 1676SOL     OW 5479   0.328   1.924   6.217
 1676SOL    HW1 5480   0.308   2.014   6.241
 1676SOL    HW2 5481   0.337   1.878   6.301
 1677SOL     OW 5482   1.624   2.242   5.945
 1677SOL    HW1 5483   1.652   2.177   6.008
 1677SOL    HW2 5484   1.599   2.318   5.998
 1678SOL     OW 5485   1.030   2.620   6.543
 1678SOL    HW1 5486   1.019   2.637   6.637
 1678SOL    HW2 5487   1.003   2.529   6.532
 1679SOL     OW 5488   0.980   3.426   7.307
 1679SOL    HW1 5489   0.965   3.471   7.224
 1679SOL    HW2 5490   1.026   3.345   7.283
 1680SOL     OW 5491   1.850   3.363   7.189
 1680SOL    HW1 5492   1.873   3.390   7.100
 1680SOL    HW2 5493   1.930   3.375   7.240
 1681SOL     OW 5494   0.356   2.777   7.394
 1681SOL    HW1 5495   0.437   2.800   7.439
 1681SOL    HW2 5496   0.384   2.713   7.328
 1682SOL     OW 5497   1.525   2.134   5.711
 1682SOL    HW1 5498   1.463   2.068   5.741
 1682SOL    HW2 5499   1.561   2.171   5.792
 1683SOL     OW 5500   1.286   2.686   5.613
 1683SOL    HW1 5501   1.328   2.601   5.618
 1683SOL    HW2 5502   1.318   2.725   5.532
 1684SOL     OW 5503   1.071   3.202   6.444
 1684SOL    HW1 5504   1.076   3.130   6.381
 1684SOL    HW2 5505   1.127   3.270   6.408
 1685SOL     OW 5506   0.311   2.670   6.534
 1685SOL    HW1 5507   0.405   2.688   6.533
 1685SOL    HW2 5508   0.304   2.580   6.565
 1686SOL     OW 5509   0.331   2.391   6.603
 1686SOL    HW1 5510   0.296   2.303   6.590
 1686SOL    HW2 5511   0.406   2.396   6.544
 1687SOL     OW 5512   1.135   2.233   7.272
 1687SOL    HW1 5513   1.087   2.288   7.334
 1687SOL    HW2 5514   1.222   2.274   7.266
 1688SOL     OW 5515   1.161   2.058   7.058
 1688SOL    HW1 5516   1.149   2.121   7.129
 1688SOL    HW2 5517   1.203   2.109   6.989
 1689SOL     OW 5518   0.008   3.184   5.793
 1689SOL    HW1 5519   5.238   3.170   5.729
 1689SOL    HW2 5520   0.018   3.100   5.838
 1690SOL     OW 5521   0.104   3.643   6.547
 1690SOL    HW1 5522   0.066   3.580   6.487
 1690SOL    HW2 5523   0.189   3.666   6.508
 1691SOL     OW 5524   0.503   3.436   6.494
 1691SOL    HW1 5525   0.570   3.502   6.513
 1691SOL    HW2 5526   0.545   3.376   6.432
 1692SOL     OW 5527   0.970   2.648   6.808
 1692SOL    HW1 5528   1.031   2.630   6.880
 1692SOL    HW2 5529   0.888   2.608   6.836
 1693SOL     OW 5530   0.030   2.439   6.708
 1693SOL    HW1 5531   0.115   2.416   6.672
 1693SOL    HW2 5532   0.035   2.412   6.800
 1694SOL     OW 5533   0.166   2.375   7.305
 1694SOL    HW1 5534   0.225   2.328   7.246
 1694SOL    HW2 5535   0.147   2.457   7.261
 1695SOL     OW 5536   1.381   2.794   7.243
 1695SOL    HW1 5537   1.403   2.888   7.239
 1695SOL    HW2 5538   1.377   2.767   7.151
 1696SOL     OW 5539   0.818   2.431   5.954
 1696SOL    HW1 5540   0.824   2.358   5.893
 1696SOL    HW2 5541   0.743   2.482   5.923
 1697SOL     OW 5542   1.639   2.462   6.764
 1697SOL    HW1 5543   1.629   2.405   6.840
 1697SOL    HW2 5544   1.727   2.444   6.731
 1698SOL     OW 5545   0.252   3.416   7.318
 1698SOL    HW1 5546   0.234   3.479   7.388
 1698SOL    HW2 5547   0.253   3.331   7.363
 1699SOL     OW 5548   0.716   2.307   6.838
 1699SOL    HW1 5549   0.659   2.234   6.814
 1699SOL    HW2 5550   0.706   2.370   6.767
 1700SOL     OW 5551   0.922   3.540   7.057
 1700SOL    HW1 5552   0.897   3.500   6.974
 1700SOL    HW2 5553   0.916   3.634   7.043
 1701SOL     OW 5554   0.463   2.353   5.761
 1701SOL    HW1 5555   0.524   2.421   5.790
 1701SOL    HW2 5556   0.380   2.399   5.748
 1702SOL     OW 5557   0.145   2.998   7.054
 1702SOL    HW1 5558   0.141   2.954   7.139
 1702SOL    HW2 5559   0.154   2.928   6.990
 1703SOL     OW 5560   1.319   2.904   6.804
 1703SOL    HW1 5561   1.340   2.841   6.735
 1703SOL    HW2 5562   1.254   2.962   6.765
 1704SOL     OW 5563   1.317   2.718   5.888
 1704SOL    HW1 5564   1.243   2.688   5.941
 1704SOL    HW2 5565   1.290   2.705   5.798
 1705SOL     OW 5566   1.780   3.598   6.744
 1705SOL    HW1 5567   1.840   3.624   6.674
 1705SOL    HW2 5568   1.753   3.509   6.720
 1706SOL     OW 5569   1.240   3.594   6.689
 1706SOL    HW1 5570   1.323   3.619   6.649
 1706SOL    HW2 5571   1.250   3.502   6.711
 1707SOL     OW 5572   0.080   3.062   6.613
 1707SOL    HW1 5573   0.065   3.092   6.702
 1707SOL    HW2 5574   5.293   3.056   6.574
 1708SOL     OW 5575   0.678   3.532   7.324
 1708SOL    HW1 5576   0.620   3.608   7.317
 1708SOL    HW2 5577   0.749   3.551   7.262
 1709SOL     OW 5578   1.725   2.020   6.090
 1709SOL    HW1 5579   1.794   2.003   6.026
 1709SOL    HW2 5580   1.707   1.935   6.130
 1710SOL     OW 5581   1.393   3.430   6.078
 1710SOL    HW1 5582   1.451   3.464   6.010
 1710SOL    HW2 5583   1.342   3.505   6.106
 1711SOL     OW 5584   0.146   3.658   7.430
 1711SOL    HW1 5585   0.091   3.598   7.480
 1711SOL    HW2 5586   0.200   3.701   7.496
 1712SOL     OW 5587   1.278   2.791   6.256
 1712SOL    HW1 5588   1.352   2.731   6.267
 1712SOL    HW2 5589   1.312   2.862   6.202
 1713SOL     OW 5590   0.803   3.139   7.009
 1713SOL    HW1 5591   0.775   3.181   7.090
 1713SOL    HW2 5592   0.732   3.155   6.947
 1714SOL     OW 5593   0.672   3.488   5.740
 1714SOL    HW1 5594   0.684   3.503   5.647
 1714SOL    HW2 5595   0.616   3.410   5.745
 1715SOL     OW 5596   1.618   3.590   6.977
 1715SOL    HW1 5597   1.673   3.595   6.898
 1715SOL    HW2 5598   1.604   3.682   7.001
 1716SOL     OW 5599   1.843   2.032   6.550
 1716SOL    HW1 5600   1.871   1.943   6.527
 1716SOL    HW2 5601   1.756   2.040   6.512
 1717SOL     OW 5602   0.275   2.178   6.301
 1717SOL    HW1 5603   0.189   2.216   6.285
 1717SOL    HW2 5604   0.280   2.169   6.396
 1718SOL     OW 5605   1.208   3.462   5.619
 1718SOL    HW1 5606   1.197   3.371   5.645
 1718SOL    HW2 5607   1.143   3.476   5.552
 1719SOL     OW 5608   0.824   2.869   6.961
 1719SOL    HW1 5609   0.867   2.862   6.876
 1719SOL    HW2 5610   0.820   2.963   6.979
 1720SOL     OW 5611   0.916   2.772   5.878
 1720SOL    HW1 5612   0.975   2.805   5.810
 1720SOL    HW2 5613   0.966   2.705   5.923
 1721SOL     OW 5614   1.489   3.492   5.632
 1721SOL    HW1 5615   1.395   3.481   5.616
 1721SOL    HW2 5616   1.527   3.497   5.544
 1722SOL     OW 5617   0.366   3.167   7.080
 1722SOL    HW1 5618   0.359   3.240   7.019
 1722SOL    HW2 5619   0.290   3.111   7.060
 1723SOL     OW 5620   1.606   3.146   6.865
 1723SOL    HW1 5621   1.666   3.130   6.938
 1723SOL    HW2 5622   1.546   3.213   6.898
 1724SOL     OW 5623   1.063   2.973   6.298
 1724SOL    HW1 5624   0.990   2.923   6.334
 1724SOL    HW2 5625   1.127   2.907   6.272
 1725SOL     OW 5626   1.025   2.105   6.552
 1725SOL    HW1 5627   1.022   2.059   6.468
 1725SOL    HW2 5628   1.019   2.036   6.618
 1726SOL     OW 5629   0.604   3.350   6.065
 1726SOL    HW1 5630   0.654   3.299   6.001
 1726SOL    HW2 5631   0.534   3.391   6.014
 1727SOL     OW 5632   1.729   2.253   6.967
 1727SOL    HW1 5633   1.800   2.316   6.966
 1727SOL    HW2 5634   1.758   2.183   6.909
 1728SOL     OW 5635   0.264   3.211   5.887
 1728SOL    HW1 5636   0.172   3.209   5.860
 1728SOL    HW2 5637   0.264   3.250   5.974
 1729SOL     OW 5638   0.121   2.877   7.300
 1729SOL    HW1 5639   0.051   2.846   7.357
 1729SOL    HW2 5640   0.202   2.847   7.342
 1730SOL     OW 5641   0.676   2.056   7.086
 1730SOL    HW1 5642   0.761   2.034   7.046
 1730SOL    HW2 5643   0.699   2.088   7.174
 1731SOL     OW 5644   0.090   2.192   5.622
 1731SOL    HW1 5645   0.002   2.159   5.603
 1731SOL    HW2 5646   0.104   2.261   5.557
 1732SOL     OW 5647   1.424   2.719   6.982
 1732SOL    HW1 5648   1.375   2.780   6.928
 1732SOL    HW2 5649   1.513   2.722   6.947
 1733SOL     OW 5650   0.068   2.003   5.846
 1733SOL    HW1 5651   0.062   2.086   5.799
 1733SOL    HW2 5652   0.147   1.962   5.811
 1734SOL     OW 5653   1.178   3.195   5.704
 1734SOL    HW1 5654   1.087   3.166   5.705
 1734SOL    HW2 5655   1.204   3.197   5.796
 1735SOL     OW 5656   0.621   2.694   7.024
 1735SOL    HW1 5657   0.679   2.769   7.009
 1735SOL    HW2 5658   0.680   2.619   7.030
 1736SOL     OW 5659   1.483   3.649   6.570
 1736SOL    HW1 5660   1.506   3.715   6.505
 1736SOL    HW2 5661   1.568   3.619   6.605
 1737SOL     OW 5662   0.716   2.420   7.286
 1737SOL    HW1 5663   0.762   2.479   7.345
 1737SOL    HW2 5664   0.736   2.332   7.319
 1738SOL     OW 5665   1.473   3.055   7.215
 1738SOL    HW1 5666   1.462   3.071   7.308
 1738SOL    HW2 5667   1.565   3.075   7.198
 1739SOL     OW 5668   0.368   3.609   7.152
 1739SOL    HW1 5669   0.286   3.655   7.134
 1739SOL    HW2 5670   0.342   3.528   7.196
 1740SOL     OW 5671   1.664   2.741   6.840
 1740SOL    HW1 5672   1.659   2.656   6.796
 1740SOL    HW2 5673   1.652   2.805   6.770
 1741SOL     OW 5674   1.217   2.182   6.042
 1741SOL    HW1 5675   1.278   2.108   6.037
 1741SOL    HW2 5676   1.245   2.232   6.119
 1742SOL     OW 5677   0.585   2.595   6.259
 1742SOL    HW1 5678   0.625   2.680   6.244
 1742SOL    HW2 5679   0.518   2.588   6.191
 1743SOL     OW 5680   1.755   2.225   7.240
 1743SOL    HW1 5681   1.742   2.242   7.147
 1743SOL    HW2 5682   1.681   2.169   7.265
 1744SOL     OW 5683   1.747   2.795   7.097
 1744SOL    HW1 5684   1.737   2.889   7.111
 1744SOL    HW2 5685   1.729   2.782   7.004
 1745SOL     OW 5686   0.865   3.226   5.630
 1745SOL    HW1 5687   0.827   3.255   5.713
 1745SOL    HW2 5688   0.880   3.307   5.582
 1746SOL     OW 5689   0.668   3.649   6.520
 1746SOL    HW1 5690   0.649   3.741   6.502
 1746SOL    HW2 5691   0.764   3.643   6.516
 1747SOL     OW 5692   0.870   2.833   6.438
 1747SOL    HW1 5693   0.920   2.760   6.476
 1747SOL    HW2 5694   0.831   2.876   6.514
 1748SOL     OW 5695   1.075   2.849   5.674
 1748SOL    HW1 5696   1.055   2.902   5.597
 1748SOL    HW2 5697   1.150   2.795   5.648
 1749SOL     OW 5698   1.846   3.414   6.426
 1749SOL    HW1 5699   1.766   3.403   6.376
 1749SOL    HW2 5700   1.839   3.351   6.498
 1750SOL     OW 5701   0.230   3.162   7.449
 1750SOL    HW1 5702   0.161   3.103   7.420
 1750SOL    HW2 5703   0.213   3.175   7.542
 1751SOL     OW 5704   0.095   3.062   6.234
 1751SOL    HW1 5705   0.120   3.040   6.324
 1751SOL    HW2 5706   0.171   3.106   6.198
 1752SOL     OW 5707   0.685   3.269   7.219
 1752SOL    HW1 5708   0.604   3.229   7.251
 1752SOL    HW2 5709   0.683   3.358   7.254
 1753SOL     OW 5710   1.812   2.043   6.821
 1753SOL    HW1 5711   1.816   1.948   6.834
 1753SOL    HW2 5712   1.823   2.055   6.727
 1754SOL     OW 5713   0.439   2.297   6.108
 1754SOL    HW1 5714   0.467   2.224   6.053
 1754SOL    HW2 5715   0.391   2.256   6.179
 1755SOL     OW 5716   1.697   3.348   6.677
 1755SOL    HW1 5717   1.618   3.328   6.627
 1755SOL    HW2 5718   1.702   3.278   6.742
 1756SOL     OW 5719   0.343   2.427   6.880
 1756SOL    HW1 5720   0.396   2.367   6.932
 1756SOL    HW2 5721   0.355   2.397   6.790
 1757SOL     OW 5722   0.834   3.440   6.260
 1757SOL    HW1 5723   0.811   3.508   6.196
 1757SOL    HW2 5724   0.759   3.381   6.262
 1758SOL     OW 5725   1.429   2.092   6.703
 1758SOL    HW1 5726   1.446   2.008   6.745
 1758SOL    HW2 5727   1.378   2.141   6.768
 1759SOL     OW 5728   1.009   1.878   6.720
 1759SOL    HW1 5729   0.954   1.813   6.677
 1759SOL    HW2 5730   1.096   1.839   6.722
 1760SOL     OW 5731   0.774   3.196   5.909
 1760SOL    HW1 5732   0.749   3.104   5.917
 1760SOL    HW2 5733   0.856   3.202   5.958
 1761SOL     OW 5734   0.625   3.418   6.876
 1761SOL    HW1 5735   0.623   3.500   6.925
 1761SOL    HW2 5736   0.712   3.414   6.838
 1762SOL     OW 5737   1.358   1.913   5.759
 1762SOL    HW1 5738   1.393   1.843   5.704
 1762SOL    HW2 5739   1.269   1.886   5.779
 1763SOL     OW 5740   1.296   2.326   6.263
 1763SOL    HW1 5741   1.244   2.406   6.266
 1763SOL    HW2 5742   1.291   2.290   6.352
 1764SOL     OW 5743   1.584   2.056   6.470
 1764SOL    HW1 5744   1.529   2.082   6.544
 1764SOL    HW2 5745   1.584   2.133   6.413
 1765SOL     OW 5746   0.049   2.927   5.875
 1765SOL    HW1 5747   0.137   2.890   5.867
 1765SOL    HW2 5748   5.298   2.858   5.917
 1766SOL     OW 5749   0.891   3.522   5.922
 1766SOL    HW1 5750   0.816   3.508   5.865
 1766SOL    HW2 5751   0.865   3.595   5.979
 1767SOL     OW 5752   0.223   2.484   7.572
 1767SOL    HW1 5753   0.157   2.433   7.619
 1767SOL    HW2 5754   0.208   2.464   7.480
 1768SOL     OW 5755   1.773   2.454   7.677
 1768SOL    HW1 5756   1.750   2.451   7.584
 1768SOL    HW2 5757   1.733   2.374   7.714
 1769SOL     OW 5758   0.246   3.554   7.924
 1769SOL    HW1 5759   0.260   3.619   7.993
 1769SOL    HW2 5760   0.311   3.574   7.857
 1770SOL     OW 5761   0.211   3.298   7.997
 1770SOL    HW1 5762   0.221   3.391   7.973
 1770SOL    HW2 5763   0.151   3.299   8.071
 1771SOL     OW 5764   0.575   2.851   7.585
 1771SOL    HW1 5765   0.624   2.894   7.516
 1771SOL    HW2 5766   0.616   2.881   7.666
 1772SOL     OW 5767   1.839   3.618   7.796
 1772SOL    HW1 5768   1.913   3.590   7.850
 1772SOL    HW2 5769   1.860   3.707   7.768
 1773SOL     OW 5770   0.032   3.467   7.590
 1773SOL    HW1 5771   0.030   3.374   7.612
 1773SOL    HW2 5772   5.267   3.507   7.648
 1774SOL     OW 5773   1.677   2.718   8.032
 1774SOL    HW1 5774   1.755   2.729   0.005
 1774SOL    HW2 5775   1.664   2.802   7.989
 1775SOL     OW 5776   1.659   2.955   7.883
 1775SOL    HW1 5777   1.747   2.982   7.855
 1775SOL    HW2 5778   1.626   3.030   7.932
 1776SOL     OW 5779   0.796   1.862   7.937
 1776SOL    HW1 5780   0.847   1.941   7.916
 1776SOL    HW2 5781   0.706   1.894   7.946
 1777SOL     OW 5782   1.534   2.862   7.653
 1777SOL    HW1 5783   1.466   2.804   7.687
 1777SOL    HW2 5784   1.580   2.893   7.731
 1778SOL     OW 5785   0.586   2.584   7.709
 1778SOL    HW1 5786   0.591   2.668   7.664
 1778SOL    HW2 5787   0.542   2.604   7.792
 1779SOL     OW 5788   1.572   3.537   7.758
 1779SOL    HW1 5789   1.665   3.561   7.767
 1779SOL    HW2 5790   1.560   3.524   7.664
 1780SOL     OW 5791   0.058   2.694   0.185
 1780SOL    HW1 5792   0.110   2.614   0.176
 1780SOL    HW2 5793   0.050   2.726   0.095
 1781SOL     OW 5794   0.894   2.216   7.644
 1781SOL    HW1 5795   0.931   2.275   7.577
 1781SOL    HW2 5796   0.921   2.129   7.616
 1782SOL     OW 5797   0.310   2.805   7.693
 1782SOL    HW1 5798   0.391   2.834   7.649
 1782SOL    HW2 5799   0.290   2.721   7.653
 1783SOL     OW 5800   1.131   3.637   7.681
 1783SOL    HW1 5801   1.050   3.601   7.719
 1783SOL    HW2 5802   1.156   3.575   7.613
 1784SOL     OW 5803   1.628   3.245   7.538
 1784SOL    HW1 5804   1.587   3.330   7.523
 1784SOL    HW2 5805   1.560   3.181   7.517
 1785SOL     OW 5806   0.473   3.605   7.767
 1785SOL    HW1 5807   0.521   3.652   7.835
 1785SOL    HW2 5808   0.541   3.564   7.714
 1786SOL     OW 5809   1.422   2.001   7.865
 1786SOL    HW1 5810   1.411   1.965   7.777
 1786SOL    HW2 5811   1.516   2.004   7.878
 1787SOL     OW 5812   0.371   2.563   7.928
 1787SOL    HW1 5813   0.386   2.469   7.937
 1787SOL    HW2 5814   0.277   2.571   7.909
 1788SOL     OW 5815   0.640   1.977   7.557
 1788SOL    HW1 5816   0.704   1.908   7.573
 1788SOL    HW2 5817   0.591   1.947   7.480
 1789SOL     OW 5818   0.522   1.947   7.963
 1789SOL    HW1 5819   0.432   1.952   7.996
 1789SOL    HW2 5820   0.526   2.013   7.895
 1790SOL     OW 5821   1.428   3.063   7.488
 1790SOL    HW1 5822   1.458   2.990   7.542
 1790SOL    HW2 5823   1.343   3.086   7.525
 1791SOL     OW 5824   0.306   1.904   7.620
 1791SOL    HW1 5825   0.365   1.968   7.579
 1791SOL    HW2 5826   0.365   1.845   7.668
 1792SOL     OW 5827   0.944   2.088   7.901
 1792SOL    HW1 5828   0.906   2.150   7.840
 1792SOL    HW2 5829   1.035   2.117   7.912
 1793SOL     OW 5830   0.446   3.028   0.080
 1793SOL    HW1 5831   0.376   3.052   0.140
 1793SOL    HW2 5832   0.402   3.010   8.077
 1794SOL     OW 5833   1.295   3.680   8.013
 1794SOL    HW1 5834   1.335   3.749   7.959
 1794SOL    HW2 5835   1.203   3.704   8.020
 1795SOL     OW 5836   1.024   2.394   7.472
 1795SOL    HW1 5837   0.978   2.476   7.455
 1795SOL    HW2 5838   1.083   2.413   7.545
 1796SOL     OW 5839   1.870   2.676   7.801
 1796SOL    HW1 5840   1.845   2.660   7.892
 1796SOL    HW2 5841   1.837   2.599   7.754
 1797SOL     OW 5842   0.487   3.283   7.598
 1797SOL    HW1 5843   0.414   3.255   7.653
 1797SOL    HW2 5844   0.479   3.231   7.518
 1798SOL     OW 5845   1.394   2.435   7.516
 1798SOL    HW1 5846   1.332   2.411   7.585
 1798SOL    HW2 5847   1.478   2.405   7.549
 1799SOL     OW 5848   0.526   2.128   7.764
 1799SOL    HW1 5849   0.575   2.081   7.696
 1799SOL    HW2 5850   0.500   2.210   7.722
 1800SOL     OW 5851   0.713   2.925   7.812
 1800SOL    HW1 5852   0.689   2.906   7.903
 1800SOL    HW2 5853   0.790   2.870   7.796
 1801SOL     OW 5854   0.335   2.964   7.919
 1801SOL    HW1 5855   0.325   3.048   7.873
 1801SOL    HW2 5856   0.336   2.899   7.849
 1802SOL     OW 5857   1.215   3.219   7.822
 1802SOL    HW1 5858   1.270   3.295   7.840
 1802SOL    HW2 5859   1.208   3.174   7.906
 1803SOL     OW 5860   1.589   2.484   7.917
 1803SOL    HW1 5861   1.588   2.546   7.989
 1803SOL    HW2 5862   1.617   2.535   7.841
 1804SOL     OW 5863   1.200   2.386   7.708
 1804SOL    HW1 5864   1.197   2.306   7.760
 1804SOL    HW2 5865   1.188   2.456   7.771
 1805SOL     OW 5866   1.623   2.243   7.804
 1805SOL    HW1 5867   1.647   2.177   7.869
 1805SOL    HW2 5868   1.598   2.319   7.856
 1806SOL     OW 5869   1.526   2.137   7.571
 1806SOL    HW1 5870   1.462   2.070   7.598
 1806SOL    HW2 5871   1.560   2.173   7.653
 1807SOL     OW 5872   1.289   2.688   7.477
 1807SOL    HW1 5873   1.330   2.601   7.479
 1807SOL    HW2 5874   1.320   2.727   7.395
 1808SOL     OW 5875   0.011   3.191   7.651
 1808SOL    HW1 5876   5.234   3.185   7.594
 1808SOL    HW2 5877   0.018   3.104   7.690
 1809SOL     OW 5878   0.852   2.487   7.743
 1809SOL    HW1 5879   0.853   2.393   7.729
 1809SOL    HW2 5880   0.760   2.510   7.750
 1810SOL     OW 5881   0.458   2.355   7.631
 1810SOL    HW1 5882   0.520   2.425   7.652
 1810SOL    HW2 5883   0.375   2.400   7.615
 1811SOL     OW 5884   1.313   2.717   7.749
 1811SOL    HW1 5885   1.228   2.740   7.786
 1811SOL    HW2 5886   1.295   2.704   7.656
 1812SOL     OW 5887   1.715   2.017   7.937
 1812SOL    HW1 5888   1.789   2.012   7.876
 1812SOL    HW2 5889   1.722   1.937   7.990
 1813SOL     OW 5890   1.355   3.443   7.890
 1813SOL    HW1 5891   1.432   3.461   7.837
 1813SOL    HW2 5892   1.328   3.529   7.923
 1814SOL     OW 5893   0.666   3.485   7.602
 1814SOL    HW1 5894   0.679   3.500   7.508
 1814SOL    HW2 5895   0.610   3.408   7.606
 1815SOL     OW 5896   1.211   3.464   7.479
 1815SOL    HW1 5897   1.198   3.373   7.506
 1815SOL    HW2 5898   1.144   3.480   7.413
 1816SOL     OW 5899   0.920   2.762   7.757
 1816SOL    HW1 5900   0.974   2.783   7.681
 1816SOL    HW2 5901   0.911   2.667   7.753
 1817SOL     OW 5902   1.491   3.494   7.490
 1817SOL    HW1 5903   1.397   3.482   7.476
 1817SOL    HW2 5904   1.528   3.498   7.402
 1818SOL     OW 5905   0.621   3.380   7.935
 1818SOL    HW1 5906   0.666   3.318   7.877
 1818SOL    HW2 5907   0.536   3.395   7.893
 1819SOL     OW 5908   0.264   3.205   7.751
 1819SOL    HW1 5909   0.173   3.210   7.722
 1819SOL    HW2 5910   0.263   3.241   7.839
 1820SOL     OW 5911   0.091   2.185   7.485
 1820SOL    HW1 5912   0.001   2.156   7.471
 1820SOL    HW2 5913   0.104   2.256   7.422
 1821SOL     OW 5914   0.088   2.012   7.745
 1821SOL    HW1 5915   0.076   2.091   7.692
 1821SOL    HW2 5916   0.156   1.963   7.698
 1822SOL     OW 5917   1.169   3.196   7.555
 1822SOL    HW1 5918   1.076   3.176   7.550
 1822SOL    HW2 5919   1.188   3.202   7.649
 1823SOL     OW 5920   1.212   2.181   7.904
 1823SOL    HW1 5921   1.288   2.124   7.892
 1823SOL    HW2 5922   1.230   2.228   7.985
 1824SOL     OW 5923   0.626   2.623   8.028
 1824SOL    HW1 5924   0.627   2.683   0.022
 1824SOL    HW2 5925   0.533   2.605   8.013
 1825SOL     OW 5926   0.868   3.229   7.495
 1825SOL    HW1 5927   0.826   3.261   7.575
 1825SOL    HW2 5928   0.883   3.307   7.442
 1826SOL     OW 5929   1.064   2.830   7.537
 1826SOL    HW1 5930   1.048   2.893   7.467
 1826SOL    HW2 5931   1.143   2.784   7.510
 1827SOL     OW 5932   0.390   2.299   7.984
 1827SOL    HW1 5933   0.431   2.235   7.927
 1827SOL    HW2 5934   0.438   2.293   8.067
 1828SOL     OW 5935   0.765   3.201   7.774
 1828SOL    HW1 5936   0.738   3.109   7.774
 1828SOL    HW2 5937   0.851   3.200   7.816
 1829SOL     OW 5938   1.360   1.912   7.613
 1829SOL    HW1 5939   1.395   1.838   7.563
 1829SOL    HW2 5940   1.272   1.885   7.637
 1830SOL     OW 5941   0.052   2.929   7.719
 1830SOL    HW1 5942   0.139   2.891   7.711
 1830SOL    HW2 5943   0.006   2.871   7.780
 1831SOL     OW 5944   0.894   3.524   7.773
 1831SOL    HW1 5945   0.818   3.497   7.722
 1831SOL    HW2 5946   0.860   3.581   7.841
 1832SOL     OW 5947   0.216   4.329   0.125
 1832SOL    HW1 5948   0.155   4.268   0.166
 1832SOL    HW2 5949   0.222   4.299   0.034
 1833SOL     OW 5950   0.245   3.998   0.984
 1833SOL    HW1 5951   0.259   3.964   1.072
 1833SOL    HW2 5952   0.159   3.967   0.959
 1834SOL     OW 5953   5.291   4.126   0.646
 1834SOL    HW1 5954   5.200   4.154   0.654
 1834SOL    HW2 5955   5.285   4.031   0.630
 1835SOL     OW 5956   0.587   5.014   1.198
 1835SOL    HW1 5957   0.506   5.012   1.147
 1835SOL    HW2 5958   0.604   5.107   1.213
 1836SOL     OW 5959   1.563   5.236   0.688
 1836SOL    HW1 5960   1.546   5.232   0.782
 1836SOL    HW2 5961   1.481   5.268   0.650
 1837SOL     OW 5962   1.134   4.423   0.696
 1837SOL    HW1 5963   1.181   4.505   0.684
 1837SOL    HW2 5964   1.086   4.435   0.778
 1838SOL     OW 5965   1.774   4.320   0.229
 1838SOL    HW1 5966   1.726   4.329   0.147
 1838SOL    HW2 5967   1.736   4.244   0.272
 1839SOL     OW 5968   0.750   4.859   1.041
 1839SOL    HW1 5969   0.691   4.893   1.109
 1839SOL    HW2 5970   0.782   4.937   0.996
 1840SOL     OW 5971   0.877   4.485   1.825
 1840SOL    HW1 5972   0.865   4.555   1.889
 1840SOL    HW2 5973   0.898   4.530   1.743
 1841SOL     OW 5974   0.682   4.716   0.649
 1841SOL    HW1 5975   0.750   4.712   0.717
 1841SOL    HW2 5976   0.616   4.775   0.685
 1842SOL     OW 5977   0.708   4.866   1.820
 1842SOL    HW1 5978   0.756   4.946   1.844
 1842SOL    HW2 5979   0.628   4.899   1.778
 1843SOL     OW 5980   0.383   5.148   1.054
 1843SOL    HW1 5981   0.289   5.165   1.041
 1843SOL    HW2 5982   0.424   5.180   0.973
 1844SOL     OW 5983   1.454   5.224   1.350
 1844SOL    HW1 5984   1.510   5.296   1.380
 1844SOL    HW2 5985   1.386   5.216   1.418
 1845SOL     OW 5986   0.455   4.120   1.482
 1845SOL    HW1 5987   0.529   4.060   1.488
 1845SOL    HW2 5988   0.378   4.065   1.497
 1846SOL     OW 5989   1.604   4.165   0.746
 1846SOL    HW1 5990   1.532   4.183   0.685
 1846SOL    HW2 5991   1.605   4.240   0.805
 1847SOL     OW 5992   1.133   5.077   1.708
 1847SOL    HW1 5993   1.159   5.078   1.800
 1847SOL    HW2 5994   1.080   4.998   1.699
 1848SOL     OW 5995   0.202   5.151   0.541
 1848SOL    HW1 5996   0.256   5.223   0.575
 1848SOL    HW2 5997   0.116   5.165   0.582
 1849SOL     OW 5998   0.259   4.799   0.874
 1849SOL    HW1 5999   0.268   4.707   0.901
 1849SOL    HW2 6000   0.198   4.836   0.937
 1850SOL     OW 6001   0.604   4.678   0.154
 1850SOL    HW1 6002   0.563   4.755   0.115
 1850SOL    HW2 6003   0.661   4.713   0.223
 1851SOL     OW 6004   1.595   3.852   1.464
 1851SOL    HW1 6005   1.621   3.932   1.417
 1851SOL    HW2 6006   1.574   3.881   1.552
 1852SOL     OW 6007   0.134   4.349   0.578
 1852SOL    HW1 6008   0.085   4.273   0.610
 1852SOL    HW2 6009   0.103   4.422   0.631
 1853SOL     OW 6010   0.011   5.281   0.074
 1853SOL    HW1 6011   0.017   5.200   0.124
 1853SOL    HW2 6012   0.042   0.049   0.135
 1854SOL     OW 6013   1.688   4.643   0.648
 1854SOL    HW1 6014   1.768   4.596   0.622
 1854SOL    HW2 6015   1.665   4.695   0.571
 1855SOL     OW 6016   1.649   4.825   0.434
 1855SOL    HW1 6017   1.733   4.829   0.387
 1855SOL    HW2 6018   1.658   4.889   0.505
 1856SOL     OW 6019   0.139   4.472   1.582
 1856SOL    HW1 6020   0.234   4.487   1.578
 1856SOL    HW2 6021   0.102   4.560   1.593
 1857SOL     OW 6022   0.627   5.104   0.747
 1857SOL    HW1 6023   0.573   5.025   0.737
 1857SOL    HW2 6024   0.610   5.154   0.668
 1858SOL     OW 6025   1.286   4.949   1.425
 1858SOL    HW1 6026   1.317   4.882   1.364
 1858SOL    HW2 6027   1.348   4.945   1.498
 1859SOL     OW 6028   0.830   3.732   0.519
 1859SOL    HW1 6029   0.869   3.815   0.492
 1859SOL    HW2 6030   0.736   3.749   0.521
 1860SOL     OW 6031   0.163   4.660   1.286
 1860SOL    HW1 6032   0.252   4.626   1.274
 1860SOL    HW2 6033   0.133   4.681   1.197
 1861SOL     OW 6034   1.496   4.745   0.215
 1861SOL    HW1 6035   1.436   4.680   0.250
 1861SOL    HW2 6036   1.555   4.765   0.288
 1862SOL     OW 6037   0.353   3.981   1.835
 1862SOL    HW1 6038   0.396   4.064   1.858
 1862SOL    HW2 6039   0.261   3.994   1.859
 1863SOL     OW 6040   1.483   5.150   0.960
 1863SOL    HW1 6041   1.410   5.163   1.020
 1863SOL    HW2 6042   1.471   5.062   0.925
 1864SOL     OW 6043   0.597   4.430   0.286
 1864SOL    HW1 6044   0.612   4.515   0.244
 1864SOL    HW2 6045   0.532   4.448   0.354
 1865SOL     OW 6046   1.279   4.092   0.935
 1865SOL    HW1 6047   1.190   4.057   0.943
 1865SOL    HW2 6048   1.331   4.036   0.993
 1866SOL     OW 6049   0.791   4.341   1.446
 1866SOL    HW1 6050   0.765   4.315   1.535
 1866SOL    HW2 6051   0.757   4.272   1.390
 1867SOL     OW 6052   1.392   4.198   1.678
 1867SOL    HW1 6053   1.397   4.243   1.762
 1867SOL    HW2 6054   1.449   4.122   1.688
 1868SOL     OW 6055   0.951   4.609   1.588
 1868SOL    HW1 6056   1.006   4.541   1.550
 1868SOL    HW2 6057   0.901   4.645   1.514
 1869SOL     OW 6058   0.995   4.133   1.231
 1869SOL    HW1 6059   0.905   4.148   1.260
 1869SOL    HW2 6060   0.985   4.090   1.146
 1870SOL     OW 6061   1.057   4.424   0.428
 1870SOL    HW1 6062   1.075   4.418   0.522
 1870SOL    HW2 6063   0.973   4.379   0.417
 1871SOL     OW 6064   0.058   4.517   0.816
 1871SOL    HW1 6065   0.139   4.517   0.866
 1871SOL    HW2 6066   0.075   4.578   0.744
 1872SOL     OW 6067   0.887   4.080   0.206
 1872SOL    HW1 6068   0.932   4.131   0.139
 1872SOL    HW2 6069   0.886   3.991   0.171
 1873SOL     OW 6070   1.702   4.294   1.831
 1873SOL    HW1 6071   1.668   4.368   1.780
 1873SOL    HW2 6072   1.731   4.231   1.764
 1874SOL     OW 6073   1.380   4.864   0.535
 1874SOL    HW1 6074   1.462   4.853   0.487
 1874SOL    HW2 6075   1.330   4.926   0.482
 1875SOL     OW 6076   0.562   3.906   0.898
 1875SOL    HW1 6077   0.559   3.934   0.989
 1875SOL    HW2 6078   0.556   3.987   0.847
 1876SOL     OW 6079   1.009   5.150   0.477
 1876SOL    HW1 6080   0.945   5.220   0.486
 1876SOL    HW2 6081   1.026   5.121   0.567
 1877SOL     OW 6082   1.804   4.776   0.869
 1877SOL    HW1 6083   1.749   4.754   0.794
 1877SOL    HW2 6084   1.743   4.785   0.942
 1878SOL     OW 6085   1.254   5.242   1.532
 1878SOL    HW1 6086   1.217   5.175   1.589
 1878SOL    HW2 6087   1.180   5.276   1.483
 1879SOL     OW 6088   0.330   4.671   0.260
 1879SOL    HW1 6089   0.414   4.671   0.213
 1879SOL    HW2 6090   0.306   4.578   0.266
 1880SOL     OW 6091   1.481   4.474   0.721
 1880SOL    HW1 6092   1.478   4.434   0.809
 1880SOL    HW2 6093   1.559   4.530   0.722
 1881SOL     OW 6094   0.464   4.991   1.747
 1881SOL    HW1 6095   0.438   4.994   1.655
 1881SOL    HW2 6096   0.381   4.991   1.795
 1882SOL     OW 6097   1.165   0.152   0.233
 1882SOL    HW1 6098   1.085   0.177   0.279
 1882SOL    HW2 6099   1.134   0.122   0.147
 1883SOL     OW 6100   0.207   3.997   1.496
 1883SOL    HW1 6101   0.131   4.051   1.475
 1883SOL    HW2 6102   0.171   3.917   1.533
 1884SOL     OW 6103   1.631   5.093   0.079
 1884SOL    HW1 6104   1.591   5.178   0.100
 1884SOL    HW2 6105   1.557   5.035   0.061
 1885SOL     OW 6106   1.408   3.835   0.453
 1885SOL    HW1 6107   1.402   3.812   0.360
 1885SOL    HW2 6108   1.502   3.842   0.470
 1886SOL     OW 6109   0.383   4.421   0.472
 1886SOL    HW1 6110   0.412   4.331   0.485
 1886SOL    HW2 6111   0.291   4.420   0.500
 1887SOL     OW 6112   1.526   3.948   1.723
 1887SOL    HW1 6113   1.537   3.968   1.816
 1887SOL    HW2 6114   1.458   3.881   1.721
 1888SOL     OW 6115   0.629   3.831   0.142
 1888SOL    HW1 6116   0.724   3.819   0.143
 1888SOL    HW2 6117   0.604   3.814   0.051
 1889SOL     OW 6118   0.763   4.003   1.757
 1889SOL    HW1 6119   0.844   3.952   1.753
 1889SOL    HW2 6120   0.717   3.970   1.833
 1890SOL     OW 6121   1.337   4.313   1.433
 1890SOL    HW1 6122   1.369   4.282   1.518
 1890SOL    HW2 6123   1.375   4.401   1.423
 1891SOL     OW 6124   0.821   5.110   0.944
 1891SOL    HW1 6125   0.899   5.103   0.889
 1891SOL    HW2 6126   0.749   5.121   0.881
 1892SOL     OW 6127   0.930   4.234   0.898
 1892SOL    HW1 6128   0.904   4.224   0.807
 1892SOL    HW2 6129   0.958   4.146   0.924
 1893SOL     OW 6130   0.564   3.786   0.497
 1893SOL    HW1 6131   0.489   3.784   0.556
 1893SOL    HW2 6132   0.550   3.864   0.444
 1894SOL     OW 6133   1.422   4.930   0.029
 1894SOL    HW1 6134   1.446   4.858   0.088
 1894SOL    HW2 6135   1.337   4.959   0.060
 1895SOL     OW 6136   0.318   3.778   0.189
 1895SOL    HW1 6137   0.387   3.844   0.194
 1895SOL    HW2 6138   0.357   3.699   0.225
 1896SOL     OW 6139   0.947   3.975   0.456
 1896SOL    HW1 6140   0.919   4.014   0.373
 1896SOL    HW2 6141   1.041   3.992   0.461
 1897SOL     OW 6142   1.080   4.409   1.456
 1897SOL    HW1 6143   1.014   4.340   1.460
 1897SOL    HW2 6144   1.163   4.363   1.451
 1898SOL     OW 6145   1.265   5.265   0.777
 1898SOL    HW1 6146   1.211   0.041   0.755
 1898SOL    HW2 6147   1.313   5.291   0.855
 1899SOL     OW 6148   0.469   4.878   0.720
 1899SOL    HW1 6149   0.401   4.855   0.783
 1899SOL    HW2 6150   0.429   4.862   0.634
 1900SOL     OW 6151   1.033   4.243   0.038
 1900SOL    HW1 6152   1.000   4.328   0.011
 1900SOL    HW2 6153   1.096   4.262   0.107
 1901SOL     OW 6154   0.095   4.262   1.401
 1901SOL    HW1 6155   0.183   4.272   1.363
 1901SOL    HW2 6156   0.084   4.341   1.455
 1902SOL     OW 6157   0.561   3.952   1.171
 1902SOL    HW1 6158   0.598   3.875   1.214
 1902SOL    HW2 6159   0.469   3.952   1.196
 1903SOL     OW 6160   0.867   4.180   0.638
 1903SOL    HW1 6161   0.827   4.237   0.572
 1903SOL    HW2 6162   0.891   4.101   0.590
 1904SOL     OW 6163   1.019   3.777   0.745
 1904SOL    HW1 6164   0.959   3.772   0.671
 1904SOL    HW2 6165   0.995   3.704   0.801
 1905SOL     OW 6166   1.444   4.891   0.859
 1905SOL    HW1 6167   1.373   4.827   0.857
 1905SOL    HW2 6168   1.469   4.902   0.768
 1906SOL     OW 6169   1.466   4.333   0.965
 1906SOL    HW1 6170   1.408   4.258   0.970
 1906SOL    HW2 6171   1.522   4.325   1.042
 1907SOL     OW 6172   1.846   4.534   0.390
 1907SOL    HW1 6173   1.901   4.483   0.449
 1907SOL    HW2 6174   1.818   4.471   0.323
 1908SOL     OW 6175   0.470   5.159   0.153
 1908SOL    HW1 6176   0.416   5.116   0.219
 1908SOL    HW2 6177   0.509   5.086   0.104
 1909SOL     OW 6178   1.676   4.989   0.643
 1909SOL    HW1 6179   1.770   4.995   0.662
 1909SOL    HW2 6180   1.643   5.078   0.658
 1910SOL     OW 6181   1.395   4.295   0.088
 1910SOL    HW1 6182   1.333   4.280   0.159
 1910SOL    HW2 6183   1.444   4.213   0.082
 1911SOL     OW 6184   0.510   3.988   0.321
 1911SOL    HW1 6185   0.564   3.937   0.260
 1911SOL    HW2 6186   0.495   4.071   0.274
 1912SOL     OW 6187   1.747   4.962   1.561
 1912SOL    HW1 6188   1.832   4.917   1.563
 1912SOL    HW2 6189   1.768   5.054   1.572
 1913SOL     OW 6190   1.062   5.072   1.326
 1913SOL    HW1 6191   0.981   5.047   1.370
 1913SOL    HW2 6192   1.132   5.034   1.379
 1914SOL     OW 6193   1.132   4.930   1.105
 1914SOL    HW1 6194   1.085   4.972   1.177
 1914SOL    HW2 6195   1.079   4.949   1.027
 1915SOL     OW 6196   1.625   4.820   1.074
 1915SOL    HW1 6197   1.619   4.882   1.146
 1915SOL    HW2 6198   1.551   4.841   1.017
 1916SOL     OW 6199   0.919   3.816   1.391
 1916SOL    HW1 6200   0.941   3.798   1.300
 1916SOL    HW2 6201   0.998   3.855   1.428
 1917SOL     OW 6202   0.984   4.840   1.727
 1917SOL    HW1 6203   0.892   4.857   1.747
 1917SOL    HW2 6204   0.983   4.763   1.671
 1918SOL     OW 6205   0.718   4.788   0.382
 1918SOL    HW1 6206   0.698   4.767   0.473
 1918SOL    HW2 6207   0.797   4.737   0.362
 1919SOL     OW 6208   0.419   4.550   1.256
 1919SOL    HW1 6209   0.488   4.558   1.322
 1919SOL    HW2 6210   0.388   4.460   1.265
 1920SOL     OW 6211   1.263   4.097   1.282
 1920SOL    HW1 6212   1.295   4.176   1.327
 1920SOL    HW2 6213   1.172   4.118   1.259
 1921SOL     OW 6214   0.107   5.281   1.319
 1921SOL    HW1 6215   0.049   0.032   1.375
 1921SOL    HW2 6216   0.188   5.271   1.370
 1922SOL     OW 6217   0.348   4.830   0.480
 1922SOL    HW1 6218   0.330   4.910   0.431
 1922SOL    HW2 6219   0.353   4.762   0.414
 1923SOL     OW 6220   0.548   4.251   0.858
 1923SOL    HW1 6221   0.560   4.310   0.784
 1923SOL    HW2 6222   0.615   4.277   0.922
 1924SOL     OW 6223   1.255   5.077   0.380
 1924SOL    HW1 6224   1.308   5.153   0.404
 1924SOL    HW2 6225   1.167   5.099   0.411
 1925SOL     OW 6226   1.276   5.185   1.140
 1925SOL    HW1 6227   1.333   5.200   1.216
 1925SOL    HW2 6228   1.233   5.101   1.159
 1926SOL     OW 6229   1.575   4.342   0.489
 1926SOL    HW1 6230   1.525   4.387   0.557
 1926SOL    HW2 6231   1.603   4.412   0.430
 1927SOL     OW 6232   0.382   5.229   1.314
 1927SOL    HW1 6233   0.372   5.193   1.225
 1927SOL    HW2 6234   0.474   5.256   1.318
 1928SOL     OW 6235   0.420   4.465   1.603
 1928SOL    HW1 6236   0.483   4.509   1.547
 1928SOL    HW2 6237   0.456   4.377   1.616
 1929SOL     OW 6238   1.610   4.506   1.688
 1929SOL    HW1 6239   1.524   4.546   1.681
 1929SOL    HW2 6240   1.662   4.547   1.618
 1930SOL     OW 6241   0.996   3.858   1.755
 1930SOL    HW1 6242   1.054   3.931   1.733
 1930SOL    HW2 6243   1.045   3.780   1.729
 1931SOL     OW 6244   0.496   3.761   1.752
 1931SOL    HW1 6245   0.448   3.710   1.686
 1931SOL    HW2 6246   0.442   3.838   1.767
 1932SOL     OW 6247   0.587   4.597   1.035
 1932SOL    HW1 6248   0.620   4.687   1.033
 1932SOL    HW2 6249   0.528   4.594   1.111
 1933SOL     OW 6250   1.344   4.581   1.018
 1933SOL    HW1 6251   1.258   4.564   0.980
 1933SOL    HW2 6252   1.391   4.498   1.008
 1934SOL     OW 6253   1.196   4.249   0.269
 1934SOL    HW1 6254   1.206   4.171   0.324
 1934SOL    HW2 6255   1.155   4.314   0.326
 1935SOL     OW 6256   0.301   3.925   1.244
 1935SOL    HW1 6257   0.268   3.947   1.331
 1935SOL    HW2 6258   0.290   3.830   1.237
 1936SOL     OW 6259   0.036   5.018   1.272
 1936SOL    HW1 6260   0.067   4.971   1.350
 1936SOL    HW2 6261   0.045   5.110   1.294
 1937SOL     OW 6262   0.719   4.351   1.051
 1937SOL    HW1 6263   0.796   4.341   0.995
 1937SOL    HW2 6264   0.690   4.441   1.035
 1938SOL     OW 6265   1.739   4.684   1.860
 1938SOL    HW1 6266   1.697   4.616   1.807
 1938SOL    HW2 6267   1.678   4.702   1.931
 1939SOL     OW 6268   0.325   3.788   0.634
 1939SOL    HW1 6269   0.310   3.878   0.661
 1939SOL    HW2 6270   0.335   3.739   0.715
 1940SOL     OW 6271   1.631   4.106   0.362
 1940SOL    HW1 6272   1.656   4.038   0.425
 1940SOL    HW2 6273   1.603   4.179   0.416
 1941SOL     OW 6274   1.030   4.481   0.958
 1941SOL    HW1 6275   1.020   4.498   1.052
 1941SOL    HW2 6276   1.003   4.390   0.947
 1942SOL     OW 6277   1.854   5.213   1.574
 1942SOL    HW1 6278   1.831   5.297   1.534
 1942SOL    HW2 6279   1.925   5.234   1.634
 1943SOL     OW 6280   0.357   4.643   1.806
 1943SOL    HW1 6281   0.436   4.660   1.857
 1943SOL    HW2 6282   0.384   4.577   1.741
 1944SOL     OW 6283   1.502   4.036   0.129
 1944SOL    HW1 6284   1.457   3.954   0.147
 1944SOL    HW2 6285   1.550   4.056   0.210
 1945SOL     OW 6286   1.299   4.542   0.018
 1945SOL    HW1 6287   1.334   4.454   0.034
 1945SOL    HW2 6288   1.366   4.585   8.045
 1946SOL     OW 6289   1.054   5.090   0.808
 1946SOL    HW1 6290   1.064   5.000   0.775
 1946SOL    HW2 6291   1.142   5.127   0.802
 1947SOL     OW 6292   0.312   4.529   0.945
 1947SOL    HW1 6293   0.406   4.547   0.943
 1947SOL    HW2 6294   0.305   4.439   0.977
 1948SOL     OW 6295   0.330   4.252   1.018
 1948SOL    HW1 6296   0.294   4.164   1.004
 1948SOL    HW2 6297   0.406   4.256   0.959
 1949SOL     OW 6298   1.134   4.095   1.687
 1949SOL    HW1 6299   1.086   4.150   1.749
 1949SOL    HW2 6300   1.221   4.136   1.682
 1950SOL     OW 6301   1.161   3.921   1.473
 1950SOL    HW1 6302   1.149   3.983   1.544
 1950SOL    HW2 6303   1.203   3.971   1.403
 1951SOL     OW 6304   0.012   5.040   0.198
 1951SOL    HW1 6305   5.235   5.023   0.143
 1951SOL    HW2 6306   0.021   4.961   0.251
 1952SOL     OW 6307   0.971   4.510   1.223
 1952SOL    HW1 6308   1.031   4.492   1.295
 1952SOL    HW2 6309   0.888   4.468   1.249
 1953SOL     OW 6310   0.030   4.279   1.119
 1953SOL    HW1 6311   0.120   4.277   1.089
 1953SOL    HW2 6312   0.035   4.267   1.213
 1954SOL     OW 6313   0.166   4.237   1.715
 1954SOL    HW1 6314   0.226   4.192   1.656
 1954SOL    HW2 6315   0.147   4.321   1.672
 1955SOL     OW 6316   1.381   4.655   1.656
 1955SOL    HW1 6317   1.402   4.748   1.651
 1955SOL    HW2 6318   1.376   4.626   1.565
 1956SOL     OW 6319   0.822   4.293   0.375
 1956SOL    HW1 6320   0.831   4.220   0.314
 1956SOL    HW2 6321   0.745   4.340   0.345
 1957SOL     OW 6322   1.640   4.324   1.178
 1957SOL    HW1 6323   1.630   4.267   1.253
 1957SOL    HW2 6324   1.728   4.307   1.145
 1958SOL     OW 6325   0.207   5.273   1.735
 1958SOL    HW1 6326   0.149   0.008   1.803
 1958SOL    HW2 6327   0.213   5.180   1.755
 1959SOL     OW 6328   0.716   4.168   1.252
 1959SOL    HW1 6329   0.659   4.095   1.228
 1959SOL    HW2 6330   0.706   4.231   1.181
 1960SOL     OW 6331   0.468   4.214   0.173
 1960SOL    HW1 6332   0.530   4.280   0.204
 1960SOL    HW2 6333   0.384   4.259   0.173
 1961SOL     OW 6334   0.148   4.861   1.472
 1961SOL    HW1 6335   0.144   4.816   1.557
 1961SOL    HW2 6336   0.153   4.791   1.408
 1962SOL     OW 6337   1.321   4.764   1.218
 1962SOL    HW1 6338   1.341   4.701   1.148
 1962SOL    HW2 6339   1.255   4.821   1.180
 1963SOL     OW 6340   1.306   4.570   0.308
 1963SOL    HW1 6341   1.231   4.539   0.357
 1963SOL    HW2 6342   1.283   4.555   0.216
 1964SOL     OW 6343   0.070   4.895   1.034
 1964SOL    HW1 6344   0.056   4.943   1.116
 1964SOL    HW2 6345   5.287   4.904   0.987
 1965SOL     OW 6346   0.756   0.030   1.708
 1965SOL    HW1 6347   0.664   0.052   1.717
 1965SOL    HW2 6348   0.779   0.057   1.619
 1966SOL     OW 6349   0.905   3.816   0.125
 1966SOL    HW1 6350   0.910   3.793   0.033
 1966SOL    HW2 6351   0.975   3.764   0.167
 1967SOL     OW 6352   1.725   3.879   0.504
 1967SOL    HW1 6353   1.794   3.859   0.440
 1967SOL    HW2 6354   1.708   3.795   0.547
 1968SOL     OW 6355   1.278   4.654   0.672
 1968SOL    HW1 6356   1.351   4.593   0.682
 1968SOL    HW2 6357   1.312   4.724   0.616
 1969SOL     OW 6358   0.805   4.992   1.397
 1969SOL    HW1 6359   0.771   5.025   1.481
 1969SOL    HW2 6360   0.730   4.995   1.338
 1970SOL     OW 6361   1.843   3.893   0.965
 1970SOL    HW1 6362   1.872   3.805   0.941
 1970SOL    HW2 6363   1.756   3.901   0.926
 1971SOL     OW 6364   0.271   4.041   0.713
 1971SOL    HW1 6365   0.188   4.087   0.697
 1971SOL    HW2 6366   0.276   4.031   0.808
 1972SOL     OW 6367   1.134   0.014   8.078
 1972SOL    HW1 6368   1.151   5.224   0.028
 1972SOL    HW2 6369   1.149   0.011   7.984
 1973SOL     OW 6370   0.827   4.724   1.373
 1973SOL    HW1 6371   0.874   4.710   1.290
 1973SOL    HW2 6372   0.827   4.819   1.384
 1974SOL     OW 6373   0.924   4.639   0.303
 1974SOL    HW1 6374   0.976   4.661   0.226
 1974SOL    HW2 6375   0.972   4.568   0.345
 1975SOL     OW 6376   0.366   5.027   1.503
 1975SOL    HW1 6377   0.370   5.094   1.435
 1975SOL    HW2 6378   0.290   4.973   1.479
 1976SOL     OW 6379   1.613   5.006   1.281
 1976SOL    HW1 6380   1.665   4.992   1.360
 1976SOL    HW2 6381   1.549   5.072   1.306
 1977SOL     OW 6382   1.067   4.837   0.721
 1977SOL    HW1 6383   0.992   4.785   0.753
 1977SOL    HW2 6384   1.130   4.772   0.692
 1978SOL     OW 6385   1.025   3.966   0.965
 1978SOL    HW1 6386   1.022   3.920   0.881
 1978SOL    HW2 6387   1.019   3.897   1.031
 1979SOL     OW 6388   1.728   4.115   1.381
 1979SOL    HW1 6389   1.800   4.178   1.380
 1979SOL    HW2 6390   1.757   4.045   1.323
 1980SOL     OW 6391   0.273   5.038   0.303
 1980SOL    HW1 6392   0.191   5.044   0.254
 1980SOL    HW2 6393   0.255   5.085   0.385
 1981SOL     OW 6394   0.121   4.747   1.722
 1981SOL    HW1 6395   0.051   4.703   1.771
 1981SOL    HW2 6396   0.202   4.712   1.759
 1982SOL     OW 6397   0.677   3.918   1.500
 1982SOL    HW1 6398   0.761   3.896   1.460
 1982SOL    HW2 6399   0.700   3.952   1.587
 1983SOL     OW 6400   0.046   4.099   0.023
 1983SOL    HW1 6401   0.020   4.028   0.081
 1983SOL    HW2 6402   0.129   4.070   8.065
 1984SOL     OW 6403   1.425   4.579   1.396
 1984SOL    HW1 6404   1.375   4.640   1.341
 1984SOL    HW2 6405   1.513   4.582   1.360
 1985SOL     OW 6406   0.060   3.865   0.199
 1985SOL    HW1 6407   0.061   3.942   0.256
 1985SOL    HW2 6408   0.151   3.835   0.198
 1986SOL     OW 6409   1.186   5.059   0.105
 1986SOL    HW1 6410   1.091   5.050   0.098
 1986SOL    HW2 6411   1.203   5.056   0.199
 1987SOL     OW 6412   0.621   4.555   1.437
 1987SOL    HW1 6413   0.679   4.629   1.421
 1987SOL    HW2 6414   0.680   4.479   1.443
 1988SOL     OW 6415   0.719   4.282   1.700
 1988SOL    HW1 6416   0.764   4.341   1.760
 1988SOL    HW2 6417   0.736   4.194   1.733
 1989SOL     OW 6418   1.477   4.913   1.626
 1989SOL    HW1 6419   1.464   4.930   1.720
 1989SOL    HW2 6420   1.570   4.932   1.612
 1990SOL     OW 6421   1.663   4.603   1.254
 1990SOL    HW1 6422   1.659   4.518   1.210
 1990SOL    HW2 6423   1.653   4.667   1.183
 1991SOL     OW 6424   1.218   4.042   0.460
 1991SOL    HW1 6425   1.281   3.971   0.456
 1991SOL    HW2 6426   1.245   4.094   0.536
 1992SOL     OW 6427   0.582   4.456   0.674
 1992SOL    HW1 6428   0.623   4.541   0.661
 1992SOL    HW2 6429   0.514   4.452   0.607
 1993SOL     OW 6430   1.755   4.087   1.654
 1993SOL    HW1 6431   1.742   4.104   1.560
 1993SOL    HW2 6432   1.682   4.031   1.679
 1994SOL     OW 6433   1.748   4.657   1.509
 1994SOL    HW1 6434   1.735   4.751   1.520
 1994SOL    HW2 6435   1.730   4.641   1.416
 1995SOL     OW 6436   0.922   5.091   0.041
 1995SOL    HW1 6437   0.863   5.069   0.113
 1995SOL    HW2 6438   0.869   5.146   8.063
 1996SOL     OW 6439   0.872   4.694   0.853
 1996SOL    HW1 6440   0.920   4.621   0.892
 1996SOL    HW2 6441   0.832   4.739   0.928
 1997SOL     OW 6442   1.079   4.691   0.086
 1997SOL    HW1 6443   1.061   4.752   0.015
 1997SOL    HW2 6444   1.156   4.642   0.057
 1998SOL     OW 6445   0.217   5.014   1.854
 1998SOL    HW1 6446   0.160   4.940   1.834
 1998SOL    HW2 6447   0.209   5.025   1.949
 1999SOL     OW 6448   0.088   4.913   0.654
 1999SOL    HW1 6449   0.128   4.892   0.739
 1999SOL    HW2 6450   0.151   4.971   0.612
 2000SOL     OW 6451   0.680   5.092   1.608
 2000SOL    HW1 6452   0.600   5.069   1.655
 2000SOL    HW2 6453   0.717   5.164   1.660
 2001SOL     OW 6454   1.811   3.905   1.236
 2001SOL    HW1 6455   1.817   3.810   1.249
 2001SOL    HW2 6456   1.822   3.917   1.141
 2002SOL     OW 6457   0.437   4.165   0.524
 2002SOL    HW1 6458   0.464   4.092   0.468
 2002SOL    HW2 6459   0.388   4.123   0.595
 2003SOL     OW 6460   1.706   5.227   1.116
 2003SOL    HW1 6461   1.633   5.210   1.057
 2003SOL    HW2 6462   1.712   5.149   1.171
 2004SOL     OW 6463   0.344   4.289   1.294
 2004SOL    HW1 6464   0.396   4.229   1.347
 2004SOL    HW2 6465   0.355   4.258   1.204
 2005SOL     OW 6466   1.429   3.954   1.117
 2005SOL    HW1 6467   1.447   3.870   1.159
 2005SOL    HW2 6468   1.378   4.003   1.182
 2006SOL     OW 6469   1.009   3.740   1.134
 2006SOL    HW1 6470   0.954   3.675   1.091
 2006SOL    HW2 6471   1.096   3.701   1.136
 2007SOL     OW 6472   0.804   5.036   0.281
 2007SOL    HW1 6473   0.757   4.958   0.311
 2007SOL    HW2 6474   0.861   5.059   0.355
 2008SOL     OW 6475   0.643   0.006   1.298
 2008SOL    HW1 6476   0.643   0.062   1.375
 2008SOL    HW2 6477   0.736   5.290   1.280
 2009SOL     OW 6478   1.355   3.780   0.190
 2009SOL    HW1 6479   1.372   3.737   0.106
 2009SOL    HW2 6480   1.268   3.749   0.215
 2010SOL     OW 6481   1.297   4.189   0.678
 2010SOL    HW1 6482   1.244   4.269   0.682
 2010SOL    HW2 6483   1.291   4.153   0.767
 2011SOL     OW 6484   1.584   3.918   0.884
 2011SOL    HW1 6485   1.529   3.943   0.958
 2011SOL    HW2 6486   1.584   3.994   0.827
 2012SOL     OW 6487   0.045   4.799   0.316
 2012SOL    HW1 6488   0.135   4.768   0.303
 2012SOL    HW2 6489   5.292   4.719   0.316
 2013SOL     OW 6490   0.230   4.347   1.982
 2013SOL    HW1 6491   0.163   4.306   2.036
 2013SOL    HW2 6492   0.207   4.323   1.892
 2014SOL     OW 6493   0.247   3.999   2.848
 2014SOL    HW1 6494   0.260   3.964   2.936
 2014SOL    HW2 6495   0.161   3.968   2.822
 2015SOL     OW 6496   5.295   4.126   2.521
 2015SOL    HW1 6497   5.202   4.148   2.520
 2015SOL    HW2 6498   5.300   4.039   2.481
 2016SOL     OW 6499   0.588   5.014   3.060
 2016SOL    HW1 6500   0.507   5.013   3.009
 2016SOL    HW2 6501   0.604   5.106   3.078
 2017SOL     OW 6502   1.560   5.234   2.552
 2017SOL    HW1 6503   1.550   5.230   2.647
 2017SOL    HW2 6504   1.476   5.268   2.521
 2018SOL     OW 6505   1.133   4.423   2.556
 2018SOL    HW1 6506   1.181   4.505   2.544
 2018SOL    HW2 6507   1.085   4.434   2.638
 2019SOL     OW 6508   1.778   4.321   2.087
 2019SOL    HW1 6509   1.751   4.317   1.995
 2019SOL    HW2 6510   1.738   4.245   2.128
 2020SOL     OW 6511   0.750   4.859   2.903
 2020SOL    HW1 6512   0.691   4.893   2.970
 2020SOL    HW2 6513   0.782   4.937   2.858
 2021SOL     OW 6514   0.878   4.485   3.688
 2021SOL    HW1 6515   0.865   4.555   3.751
 2021SOL    HW2 6516   0.898   4.530   3.606
 2022SOL     OW 6517   0.685   4.719   2.506
 2022SOL    HW1 6518   0.751   4.713   2.574
 2022SOL    HW2 6519   0.617   4.776   2.543
 2023SOL     OW 6520   0.708   4.866   3.682
 2023SOL    HW1 6521   0.756   4.946   3.706
 2023SOL    HW2 6522   0.628   4.899   3.640
 2024SOL     OW 6523   0.382   5.148   2.916
 2024SOL    HW1 6524   0.289   5.165   2.903
 2024SOL    HW2 6525   0.424   5.181   2.836
 2025SOL     OW 6526   1.454   5.224   3.212
 2025SOL    HW1 6527   1.509   5.296   3.242
 2025SOL    HW2 6528   1.386   5.216   3.279
 2026SOL     OW 6529   0.455   4.120   3.344
 2026SOL    HW1 6530   0.529   4.060   3.350
 2026SOL    HW2 6531   0.378   4.065   3.360
 2027SOL     OW 6532   1.604   4.165   2.607
 2027SOL    HW1 6533   1.533   4.183   2.546
 2027SOL    HW2 6534   1.605   4.241   2.666
 2028SOL     OW 6535   1.133   5.077   3.570
 2028SOL    HW1 6536   1.159   5.078   3.662
 2028SOL    HW2 6537   1.080   4.998   3.561
 2029SOL     OW 6538   0.204   5.154   2.408
 2029SOL    HW1 6539   0.257   5.226   2.443
 2029SOL    HW2 6540   0.118   5.166   2.448
 2030SOL     OW 6541   0.257   4.795   2.734
 2030SOL    HW1 6542   0.271   4.706   2.765
 2030SOL    HW2 6543   0.198   4.834   2.797
 2031SOL     OW 6544   0.574   4.708   2.004
 2031SOL    HW1 6545   0.624   4.751   1.935
 2031SOL    HW2 6546   0.613   4.739   2.085
 2032SOL     OW 6547   1.595   3.852   3.326
 2032SOL    HW1 6548   1.621   3.931   3.279
 2032SOL    HW2 6549   1.574   3.882   3.414
 2033SOL     OW 6550   0.128   4.349   2.441
 2033SOL    HW1 6551   0.088   4.271   2.478
 2033SOL    HW2 6552   0.102   4.420   2.499
 2034SOL     OW 6553   0.001   5.291   1.944
 2034SOL    HW1 6554   0.011   5.204   1.983
 2034SOL    HW2 6555   0.031   0.051   2.012
 2035SOL     OW 6556   1.690   4.642   2.508
 2035SOL    HW1 6557   1.771   4.597   2.484
 2035SOL    HW2 6558   1.668   4.693   2.430
 2036SOL     OW 6559   1.650   4.826   2.292
 2036SOL    HW1 6560   1.737   4.825   2.251
 2036SOL    HW2 6561   1.658   4.890   2.363
 2037SOL     OW 6562   0.139   4.472   3.444
 2037SOL    HW1 6563   0.234   4.486   3.440
 2037SOL    HW2 6564   0.102   4.560   3.456
 2038SOL     OW 6565   0.626   5.102   2.609
 2038SOL    HW1 6566   0.573   5.023   2.600
 2038SOL    HW2 6567   0.610   5.152   2.530
 2039SOL     OW 6568   1.286   4.949   3.287
 2039SOL    HW1 6569   1.317   4.882   3.226
 2039SOL    HW2 6570   1.348   4.945   3.360
 2040SOL     OW 6571   0.830   3.728   2.377
 2040SOL    HW1 6572   0.870   3.811   2.352
 2040SOL    HW2 6573   0.736   3.747   2.380
 2041SOL     OW 6574   0.164   4.660   3.148
 2041SOL    HW1 6575   0.253   4.626   3.137
 2041SOL    HW2 6576   0.133   4.677   3.059
 2042SOL     OW 6577   1.530   4.727   2.061
 2042SOL    HW1 6578   1.461   4.669   2.094
 2042SOL    HW2 6579   1.573   4.759   2.140
 2043SOL     OW 6580   0.353   3.981   3.697
 2043SOL    HW1 6581   0.396   4.064   3.720
 2043SOL    HW2 6582   0.261   3.994   3.721
 2044SOL     OW 6583   1.483   5.150   2.822
 2044SOL    HW1 6584   1.410   5.163   2.883
 2044SOL    HW2 6585   1.471   5.062   2.788
 2045SOL     OW 6586   0.593   4.440   2.136
 2045SOL    HW1 6587   0.598   4.523   2.089
 2045SOL    HW2 6588   0.527   4.454   2.204
 2046SOL     OW 6589   1.279   4.092   2.797
 2046SOL    HW1 6590   1.190   4.057   2.805
 2046SOL    HW2 6591   1.331   4.037   2.855
 2047SOL     OW 6592   0.791   4.341   3.308
 2047SOL    HW1 6593   0.765   4.315   3.397
 2047SOL    HW2 6594   0.757   4.272   3.252
 2048SOL     OW 6595   1.392   4.198   3.540
 2048SOL    HW1 6596   1.397   4.243   3.624
 2048SOL    HW2 6597   1.449   4.122   3.549
 2049SOL     OW 6598   0.951   4.609   3.450
 2049SOL    HW1 6599   1.006   4.541   3.412
 2049SOL    HW2 6600   0.901   4.645   3.377
 2050SOL     OW 6601   0.995   4.133   3.093
 2050SOL    HW1 6602   0.905   4.148   3.122
 2050SOL    HW2 6603   0.986   4.090   3.008
 2051SOL     OW 6604   1.054   4.423   2.285
 2051SOL    HW1 6605   1.073   4.416   2.379
 2051SOL    HW2 6606   0.971   4.378   2.274
 2052SOL     OW 6607   0.065   4.514   2.668
 2052SOL    HW1 6608   0.145   4.518   2.721
 2052SOL    HW2 6609   0.073   4.589   2.609
 2053SOL     OW 6610   0.900   4.075   2.058
 2053SOL    HW1 6611   0.939   4.138   1.998
 2053SOL    HW2 6612   0.907   3.991   2.012
 2054SOL     OW 6613   1.702   4.294   3.693
 2054SOL    HW1 6614   1.668   4.368   3.643
 2054SOL    HW2 6615   1.731   4.231   3.627
 2055SOL     OW 6616   1.382   4.862   2.396
 2055SOL    HW1 6617   1.465   4.850   2.350
 2055SOL    HW2 6618   1.333   4.925   2.343
 2056SOL     OW 6619   0.562   3.904   2.760
 2056SOL    HW1 6620   0.559   3.934   2.851
 2056SOL    HW2 6621   0.553   3.984   2.709
 2057SOL     OW 6622   1.017   5.158   2.344
 2057SOL    HW1 6623   0.949   5.225   2.347
 2057SOL    HW2 6624   1.027   5.130   2.435
 2058SOL     OW 6625   1.804   4.776   2.731
 2058SOL    HW1 6626   1.749   4.754   2.655
 2058SOL    HW2 6627   1.742   4.784   2.804
 2059SOL     OW 6628   1.254   5.242   3.394
 2059SOL    HW1 6629   1.217   5.175   3.451
 2059SOL    HW2 6630   1.179   5.276   3.345
 2060SOL     OW 6631   0.311   4.672   2.113
 2060SOL    HW1 6632   0.392   4.694   2.069
 2060SOL    HW2 6633   0.289   4.584   2.081
 2061SOL     OW 6634   1.481   4.475   2.583
 2061SOL    HW1 6635   1.479   4.435   2.670
 2061SOL    HW2 6636   1.560   4.530   2.584
 2062SOL     OW 6637   0.464   4.991   3.609
 2062SOL    HW1 6638   0.438   4.994   3.517
 2062SOL    HW2 6639   0.381   4.991   3.657
 2063SOL     OW 6640   1.047   0.167   2.058
 2063SOL    HW1 6641   1.096   0.103   2.110
 2063SOL    HW2 6642   1.064   0.143   1.967
 2064SOL     OW 6643   0.208   3.997   3.359
 2064SOL    HW1 6644   0.131   4.051   3.338
 2064SOL    HW2 6645   0.171   3.917   3.395
 2065SOL     OW 6646   1.619   5.107   1.974
 2065SOL    HW1 6647   1.638   5.165   1.900
 2065SOL    HW2 6648   1.555   5.045   1.941
 2066SOL     OW 6649   1.400   3.831   2.304
 2066SOL    HW1 6650   1.392   3.805   2.212
 2066SOL    HW2 6651   1.494   3.836   2.320
 2067SOL     OW 6652   0.387   4.417   2.339
 2067SOL    HW1 6653   0.416   4.326   2.349
 2067SOL    HW2 6654   0.294   4.415   2.360
 2068SOL     OW 6655   1.526   3.949   3.585
 2068SOL    HW1 6656   1.537   3.969   3.678
 2068SOL    HW2 6657   1.458   3.882   3.583
 2069SOL     OW 6658   0.646   3.840   1.963
 2069SOL    HW1 6659   0.705   3.767   1.981
 2069SOL    HW2 6660   0.592   3.811   1.890
 2070SOL     OW 6661   0.764   4.003   3.619
 2070SOL    HW1 6662   0.844   3.952   3.615
 2070SOL    HW2 6663   0.717   3.970   3.695
 2071SOL     OW 6664   1.337   4.313   3.295
 2071SOL    HW1 6665   1.368   4.282   3.380
 2071SOL    HW2 6666   1.375   4.401   3.286
 2072SOL     OW 6667   0.822   5.109   2.804
 2072SOL    HW1 6668   0.900   5.103   2.749
 2072SOL    HW2 6669   0.750   5.120   2.743
 2073SOL     OW 6670   0.930   4.234   2.760
 2073SOL    HW1 6671   0.905   4.225   2.668
 2073SOL    HW2 6672   0.958   4.146   2.787
 2074SOL     OW 6673   0.565   3.786   2.353
 2074SOL    HW1 6674   0.489   3.786   2.412
 2074SOL    HW2 6675   0.552   3.863   2.298
 2075SOL     OW 6676   1.430   4.928   1.897
 2075SOL    HW1 6677   1.457   4.852   1.949
 2075SOL    HW2 6678   1.341   4.947   1.927
 2076SOL     OW 6679   0.307   3.768   2.037
 2076SOL    HW1 6680   0.366   3.836   2.004
 2076SOL    HW2 6681   0.364   3.708   2.084
 2077SOL     OW 6682   0.945   3.975   2.316
 2077SOL    HW1 6683   0.920   4.013   2.232
 2077SOL    HW2 6684   1.039   3.991   2.323
 2078SOL     OW 6685   1.080   4.409   3.318
 2078SOL    HW1 6686   1.014   4.339   3.322
 2078SOL    HW2 6687   1.164   4.364   3.312
 2079SOL     OW 6688   1.266   5.267   2.635
 2079SOL    HW1 6689   1.208   0.041   2.620
 2079SOL    HW2 6690   1.314   5.289   2.715
 2080SOL     OW 6691   0.468   4.877   2.580
 2080SOL    HW1 6692   0.400   4.853   2.643
 2080SOL    HW2 6693   0.428   4.861   2.495
 2081SOL     OW 6694   1.024   4.257   1.889
 2081SOL    HW1 6695   0.981   4.340   1.869
 2081SOL    HW2 6696   1.089   4.279   1.956
 2082SOL     OW 6697   0.096   4.261   3.264
 2082SOL    HW1 6698   0.183   4.271   3.225
 2082SOL    HW2 6699   0.083   4.340   3.317
 2083SOL     OW 6700   0.561   3.953   3.034
 2083SOL    HW1 6701   0.598   3.875   3.076
 2083SOL    HW2 6702   0.469   3.952   3.058
 2084SOL     OW 6703   0.867   4.181   2.499
 2084SOL    HW1 6704   0.823   4.237   2.435
 2084SOL    HW2 6705   0.890   4.102   2.450
 2085SOL     OW 6706   1.019   3.779   2.608
 2085SOL    HW1 6707   0.959   3.772   2.533
 2085SOL    HW2 6708   0.996   3.704   2.664
 2086SOL     OW 6709   1.444   4.891   2.721
 2086SOL    HW1 6710   1.375   4.826   2.719
 2086SOL    HW2 6711   1.471   4.901   2.630
 2087SOL     OW 6712   1.466   4.334   2.827
 2087SOL    HW1 6713   1.408   4.258   2.831
 2087SOL    HW2 6714   1.522   4.325   2.904
 2088SOL     OW 6715   1.838   4.533   2.248
 2088SOL    HW1 6716   1.898   4.484   2.306
 2088SOL    HW2 6717   1.815   4.470   2.180
 2089SOL     OW 6718   0.475   5.150   2.001
 2089SOL    HW1 6719   0.422   5.098   2.062
 2089SOL    HW2 6720   0.494   5.090   1.929
 2090SOL     OW 6721   1.674   4.988   2.503
 2090SOL    HW1 6722   1.768   4.993   2.522
 2090SOL    HW2 6723   1.642   5.077   2.519
 2091SOL     OW 6724   1.393   4.297   1.933
 2091SOL    HW1 6725   1.332   4.275   2.003
 2091SOL    HW2 6726   1.478   4.266   1.965
 2092SOL     OW 6727   0.526   3.985   2.170
 2092SOL    HW1 6728   0.577   3.942   2.102
 2092SOL    HW2 6729   0.499   4.068   2.131
 2093SOL     OW 6730   1.747   4.962   3.424
 2093SOL    HW1 6731   1.832   4.917   3.426
 2093SOL    HW2 6732   1.768   5.054   3.434
 2094SOL     OW 6733   1.062   5.072   3.188
 2094SOL    HW1 6734   0.981   5.047   3.233
 2094SOL    HW2 6735   1.132   5.034   3.241
 2095SOL     OW 6736   1.132   4.930   2.967
 2095SOL    HW1 6737   1.086   4.972   3.040
 2095SOL    HW2 6738   1.077   4.946   2.891
 2096SOL     OW 6739   1.625   4.820   2.936
 2096SOL    HW1 6740   1.619   4.882   3.009
 2096SOL    HW2 6741   1.551   4.841   2.880
 2097SOL     OW 6742   0.919   3.816   3.253
 2097SOL    HW1 6743   0.941   3.798   3.162
 2097SOL    HW2 6744   0.998   3.855   3.290
 2098SOL     OW 6745   0.984   4.840   3.589
 2098SOL    HW1 6746   0.892   4.856   3.609
 2098SOL    HW2 6747   0.983   4.763   3.533
 2099SOL     OW 6748   0.707   4.786   2.232
 2099SOL    HW1 6749   0.692   4.766   2.325
 2099SOL    HW2 6750   0.783   4.734   2.208
 2100SOL     OW 6751   0.420   4.550   3.118
 2100SOL    HW1 6752   0.488   4.558   3.184
 2100SOL    HW2 6753   0.388   4.460   3.126
 2101SOL     OW 6754   1.263   4.097   3.144
 2101SOL    HW1 6755   1.295   4.176   3.189
 2101SOL    HW2 6756   1.172   4.118   3.122
 2102SOL     OW 6757   0.109   5.284   3.179
 2102SOL    HW1 6758   0.049   0.033   3.236
 2102SOL    HW2 6759   0.187   5.271   3.232
 2103SOL     OW 6760   0.348   4.834   2.337
 2103SOL    HW1 6761   0.333   4.913   2.285
 2103SOL    HW2 6762   0.343   4.762   2.274
 2104SOL     OW 6763   0.548   4.253   2.720
 2104SOL    HW1 6764   0.561   4.312   2.646
 2104SOL    HW2 6765   0.615   4.278   2.784
 2105SOL     OW 6766   1.261   5.083   2.249
 2105SOL    HW1 6767   1.318   5.149   2.288
 2105SOL    HW2 6768   1.174   5.105   2.281
 2106SOL     OW 6769   1.276   5.185   3.002
 2106SOL    HW1 6770   1.333   5.200   3.078
 2106SOL    HW2 6771   1.234   5.101   3.021
 2107SOL     OW 6772   1.577   4.342   2.347
 2107SOL    HW1 6773   1.527   4.389   2.414
 2107SOL    HW2 6774   1.621   4.411   2.298
 2108SOL     OW 6775   0.382   5.226   3.176
 2108SOL    HW1 6776   0.372   5.192   3.088
 2108SOL    HW2 6777   0.473   5.256   3.180
 2109SOL     OW 6778   0.420   4.465   3.465
 2109SOL    HW1 6779   0.483   4.509   3.409
 2109SOL    HW2 6780   0.456   4.377   3.478
 2110SOL     OW 6781   1.610   4.506   3.550
 2110SOL    HW1 6782   1.524   4.547   3.543
 2110SOL    HW2 6783   1.662   4.547   3.480
 2111SOL     OW 6784   0.996   3.858   3.617
 2111SOL    HW1 6785   1.054   3.931   3.595
 2111SOL    HW2 6786   1.045   3.780   3.591
 2112SOL     OW 6787   0.496   3.761   3.614
 2112SOL    HW1 6788   0.448   3.710   3.548
 2112SOL    HW2 6789   0.442   3.838   3.629
 2113SOL     OW 6790   0.587   4.597   2.897
 2113SOL    HW1 6791   0.620   4.687   2.896
 2113SOL    HW2 6792   0.529   4.594   2.973
 2114SOL     OW 6793   1.344   4.581   2.879
 2114SOL    HW1 6794   1.258   4.564   2.842
 2114SOL    HW2 6795   1.392   4.499   2.869
 2115SOL     OW 6796   1.199   4.251   2.123
 2115SOL    HW1 6797   1.208   4.173   2.178
 2115SOL    HW2 6798   1.157   4.315   2.180
 2116SOL     OW 6799   0.301   3.924   3.107
 2116SOL    HW1 6800   0.269   3.946   3.195
 2116SOL    HW2 6801   0.290   3.830   3.100
 2117SOL     OW 6802   0.038   5.018   3.133
 2117SOL    HW1 6803   0.068   4.972   3.211
 2117SOL    HW2 6804   0.043   5.111   3.156
 2118SOL     OW 6805   0.720   4.352   2.914
 2118SOL    HW1 6806   0.797   4.341   2.858
 2118SOL    HW2 6807   0.691   4.441   2.897
 2119SOL     OW 6808   1.739   4.685   3.722
 2119SOL    HW1 6809   1.697   4.616   3.669
 2119SOL    HW2 6810   1.678   4.702   3.793
 2120SOL     OW 6811   0.329   3.786   2.493
 2120SOL    HW1 6812   0.308   3.876   2.517
 2120SOL    HW2 6813   0.337   3.740   2.577
 2121SOL     OW 6814   1.624   4.104   2.220
 2121SOL    HW1 6815   1.652   4.038   2.284
 2121SOL    HW2 6816   1.599   4.180   2.274
 2122SOL     OW 6817   1.030   4.482   2.820
 2122SOL    HW1 6818   1.019   4.498   2.914
 2122SOL    HW2 6819   1.003   4.391   2.808
 2123SOL     OW 6820   1.853   5.213   3.436
 2123SOL    HW1 6821   1.831   5.297   3.395
 2123SOL    HW2 6822   1.925   5.234   3.497
 2124SOL     OW 6823   0.357   4.643   3.668
 2124SOL    HW1 6824   0.436   4.660   3.719
 2124SOL    HW2 6825   0.384   4.577   3.603
 2125SOL     OW 6826   1.525   3.996   1.987
 2125SOL    HW1 6827   1.462   3.930   2.016
 2125SOL    HW2 6828   1.561   4.033   2.068
 2126SOL     OW 6829   1.286   4.548   1.890
 2126SOL    HW1 6830   1.328   4.462   1.895
 2126SOL    HW2 6831   1.318   4.586   1.808
 2127SOL     OW 6832   1.054   5.091   2.665
 2127SOL    HW1 6833   1.063   5.000   2.635
 2127SOL    HW2 6834   1.143   5.126   2.661
 2128SOL     OW 6835   0.313   4.530   2.807
 2128SOL    HW1 6836   0.407   4.546   2.807
 2128SOL    HW2 6837   0.304   4.441   2.840
 2129SOL     OW 6838   0.331   4.252   2.880
 2129SOL    HW1 6839   0.296   4.164   2.867
 2129SOL    HW2 6840   0.406   4.257   2.821
 2130SOL     OW 6841   1.134   4.095   3.549
 2130SOL    HW1 6842   1.086   4.150   3.611
 2130SOL    HW2 6843   1.221   4.136   3.544
 2131SOL     OW 6844   1.161   3.920   3.335
 2131SOL    HW1 6845   1.149   3.984   3.406
 2131SOL    HW2 6846   1.203   3.970   3.265
 2132SOL     OW 6847   0.005   5.036   2.064
 2132SOL    HW1 6848   5.235   5.017   2.002
 2132SOL    HW2 6849   0.018   4.954   2.113
 2133SOL     OW 6850   0.970   4.510   3.085
 2133SOL    HW1 6851   1.031   4.492   3.157
 2133SOL    HW2 6852   0.889   4.468   3.111
 2134SOL     OW 6853   0.028   4.295   2.983
 2134SOL    HW1 6854   0.115   4.277   2.948
 2134SOL    HW2 6855   0.034   4.272   3.076
 2135SOL     OW 6856   0.166   4.237   3.577
 2135SOL    HW1 6857   0.226   4.192   3.518
 2135SOL    HW2 6858   0.147   4.320   3.534
 2136SOL     OW 6859   1.381   4.655   3.518
 2136SOL    HW1 6860   1.402   4.748   3.513
 2136SOL    HW2 6861   1.376   4.626   3.427
 2137SOL     OW 6862   0.818   4.294   2.229
 2137SOL    HW1 6863   0.824   4.220   2.169
 2137SOL    HW2 6864   0.743   4.344   2.199
 2138SOL     OW 6865   1.640   4.325   3.040
 2138SOL    HW1 6866   1.630   4.266   3.115
 2138SOL    HW2 6867   1.728   4.307   3.007
 2139SOL     OW 6868   0.207   5.273   3.597
 2139SOL    HW1 6869   0.149   0.008   3.665
 2139SOL    HW2 6870   0.213   5.180   3.617
 2140SOL     OW 6871   0.716   4.168   3.114
 2140SOL    HW1 6872   0.659   4.095   3.090
 2140SOL    HW2 6873   0.706   4.231   3.043
 2141SOL     OW 6874   0.464   4.215   2.037
 2141SOL    HW1 6875   0.524   4.284   2.066
 2141SOL    HW2 6876   0.381   4.261   2.024
 2142SOL     OW 6877   0.147   4.861   3.334
 2142SOL    HW1 6878   0.144   4.816   3.419
 2142SOL    HW2 6879   0.153   4.791   3.270
 2143SOL     OW 6880   1.321   4.764   3.080
 2143SOL    HW1 6881   1.341   4.701   3.010
 2143SOL    HW2 6882   1.255   4.821   3.042
 2144SOL     OW 6883   1.316   4.582   2.164
 2144SOL    HW1 6884   1.243   4.548   2.217
 2144SOL    HW2 6885   1.289   4.567   2.074
 2145SOL     OW 6886   0.071   4.896   2.895
 2145SOL    HW1 6887   0.059   4.943   2.977
 2145SOL    HW2 6888   5.287   4.905   2.849
 2146SOL     OW 6889   0.756   0.029   3.570
 2146SOL    HW1 6890   0.664   0.052   3.579
 2146SOL    HW2 6891   0.779   0.057   3.481
 2147SOL     OW 6892   1.723   3.882   2.366
 2147SOL    HW1 6893   1.793   3.865   2.302
 2147SOL    HW2 6894   1.706   3.796   2.406
 2148SOL     OW 6895   1.278   4.654   2.534
 2148SOL    HW1 6896   1.351   4.593   2.545
 2148SOL    HW2 6897   1.313   4.723   2.478
 2149SOL     OW 6898   0.805   4.992   3.259
 2149SOL    HW1 6899   0.772   5.025   3.343
 2149SOL    HW2 6900   0.730   4.994   3.200
 2150SOL     OW 6901   1.843   3.894   2.827
 2150SOL    HW1 6902   1.872   3.806   2.803
 2150SOL    HW2 6903   1.756   3.902   2.788
 2151SOL     OW 6904   0.275   4.040   2.577
 2151SOL    HW1 6905   0.189   4.078   2.560
 2151SOL    HW2 6906   0.279   4.030   2.672
 2152SOL     OW 6907   0.827   4.724   3.235
 2152SOL    HW1 6908   0.875   4.709   3.153
 2152SOL    HW2 6909   0.827   4.819   3.246
 2153SOL     OW 6910   0.917   4.636   2.154
 2153SOL    HW1 6911   0.977   4.670   2.088
 2153SOL    HW2 6912   0.966   4.568   2.199
 2154SOL     OW 6913   0.366   5.026   3.365
 2154SOL    HW1 6914   0.370   5.093   3.298
 2154SOL    HW2 6915   0.290   4.972   3.342
 2155SOL     OW 6916   1.612   5.006   3.143
 2155SOL    HW1 6917   1.665   4.992   3.221
 2155SOL    HW2 6918   1.548   5.072   3.168
 2156SOL     OW 6919   1.067   4.836   2.582
 2156SOL    HW1 6920   0.992   4.785   2.614
 2156SOL    HW2 6921   1.131   4.771   2.555
 2157SOL     OW 6922   1.025   3.967   2.828
 2157SOL    HW1 6923   1.021   3.921   2.744
 2157SOL    HW2 6924   1.019   3.898   2.894
 2158SOL     OW 6925   1.728   4.116   3.243
 2158SOL    HW1 6926   1.801   4.178   3.242
 2158SOL    HW2 6927   1.757   4.045   3.185
 2159SOL     OW 6928   0.261   5.056   2.160
 2159SOL    HW1 6929   0.170   5.057   2.132
 2159SOL    HW2 6930   0.261   5.100   2.245
 2160SOL     OW 6931   0.121   4.747   3.584
 2160SOL    HW1 6932   0.051   4.703   3.633
 2160SOL    HW2 6933   0.202   4.712   3.621
 2161SOL     OW 6934   0.677   3.918   3.362
 2161SOL    HW1 6935   0.761   3.896   3.322
 2161SOL    HW2 6936   0.700   3.952   3.449
 2162SOL     OW 6937   0.090   4.053   1.897
 2162SOL    HW1 6938   0.001   4.022   1.880
 2162SOL    HW2 6939   0.104   4.122   1.833
 2163SOL     OW 6940   1.425   4.579   3.258
 2163SOL    HW1 6941   1.375   4.640   3.203
 2163SOL    HW2 6942   1.513   4.582   3.222
 2164SOL     OW 6943   0.068   3.865   2.122
 2164SOL    HW1 6944   0.062   3.948   2.075
 2164SOL    HW2 6945   0.147   3.824   2.087
 2165SOL     OW 6946   1.182   5.057   1.987
 2165SOL    HW1 6947   1.092   5.025   1.989
 2165SOL    HW2 6948   1.212   5.052   2.078
 2166SOL     OW 6949   0.621   4.555   3.300
 2166SOL    HW1 6950   0.679   4.629   3.284
 2166SOL    HW2 6951   0.679   4.479   3.305
 2167SOL     OW 6952   0.719   4.282   3.562
 2167SOL    HW1 6953   0.764   4.341   3.623
 2167SOL    HW2 6954   0.736   4.194   3.595
 2168SOL     OW 6955   1.477   4.914   3.488
 2168SOL    HW1 6956   1.464   4.930   3.582
 2168SOL    HW2 6957   1.570   4.932   3.474
 2169SOL     OW 6958   1.663   4.603   3.116
 2169SOL    HW1 6959   1.660   4.518   3.072
 2169SOL    HW2 6960   1.654   4.666   3.045
 2170SOL     OW 6961   1.217   4.044   2.318
 2170SOL    HW1 6962   1.278   3.970   2.313
 2170SOL    HW2 6963   1.246   4.094   2.395
 2171SOL     OW 6964   0.585   4.457   2.535
 2171SOL    HW1 6965   0.625   4.543   2.520
 2171SOL    HW2 6966   0.518   4.450   2.468
 2172SOL     OW 6967   1.755   4.088   3.516
 2172SOL    HW1 6968   1.742   4.104   3.423
 2172SOL    HW2 6969   1.682   4.031   3.541
 2173SOL     OW 6970   1.748   4.657   3.371
 2173SOL    HW1 6971   1.734   4.751   3.382
 2173SOL    HW2 6972   1.730   4.641   3.278
 2174SOL     OW 6973   0.843   5.092   1.884
 2174SOL    HW1 6974   0.831   5.091   1.979
 2174SOL    HW2 6975   0.851   5.185   1.862
 2175SOL     OW 6976   0.872   4.695   2.714
 2175SOL    HW1 6977   0.919   4.621   2.752
 2175SOL    HW2 6978   0.831   4.739   2.788
 2176SOL     OW 6979   1.079   4.715   1.953
 2176SOL    HW1 6980   1.056   4.765   1.875
 2176SOL    HW2 6981   1.151   4.659   1.925
 2177SOL     OW 6982   0.217   5.014   3.716
 2177SOL    HW1 6983   0.160   4.940   3.696
 2177SOL    HW2 6984   0.210   5.026   3.811
 2178SOL     OW 6985   0.092   4.912   2.510
 2178SOL    HW1 6986   0.122   4.897   2.600
 2178SOL    HW2 6987   0.156   4.973   2.474
 2179SOL     OW 6988   0.680   5.093   3.470
 2179SOL    HW1 6989   0.600   5.069   3.517
 2179SOL    HW2 6990   0.717   5.164   3.521
 2180SOL     OW 6991   1.810   3.905   3.098
 2180SOL    HW1 6992   1.816   3.810   3.110
 2180SOL    HW2 6993   1.822   3.918   3.004
 2181SOL     OW 6994   0.440   4.158   2.384
 2181SOL    HW1 6995   0.467   4.085   2.329
 2181SOL    HW2 6996   0.391   4.118   2.456
 2182SOL     OW 6997   1.706   5.227   2.978
 2182SOL    HW1 6998   1.632   5.210   2.919
 2182SOL    HW2 6999   1.712   5.150   3.033
 2183SOL     OW 7000   0.344   4.290   3.156
 2183SOL    HW1 7001   0.396   4.229   3.208
 2183SOL    HW2 7002   0.354   4.259   3.066
 2184SOL     OW 7003   1.429   3.954   2.979
 2184SOL    HW1 7004   1.448   3.870   3.020
 2184SOL    HW2 7005   1.378   4.002   3.044
 2185SOL     OW 7006   1.009   3.740   2.996
 2185SOL    HW1 7007   0.954   3.675   2.953
 2185SOL    HW2 7008   1.096   3.701   2.998
 2186SOL     OW 7009   0.812   5.043   2.149
 2186SOL    HW1 7010   0.763   4.965   2.175
 2186SOL    HW2 7011   0.867   5.063   2.225
 2187SOL     OW 7012   0.643   0.007   3.160
 2187SOL    HW1 7013   0.642   0.063   3.238
 2187SOL    HW2 7014   0.736   5.290   3.144
 2188SOL     OW 7015   1.358   3.775   2.035
 2188SOL    HW1 7016   1.393   3.705   1.980
 2188SOL    HW2 7017   1.269   3.748   2.056
 2189SOL     OW 7018   1.296   4.188   2.539
 2189SOL    HW1 7019   1.244   4.268   2.543
 2189SOL    HW2 7020   1.291   4.152   2.628
 2190SOL     OW 7021   1.584   3.918   2.746
 2190SOL    HW1 7022   1.529   3.943   2.819
 2190SOL    HW2 7023   1.584   3.994   2.688
 2191SOL     OW 7024   0.050   4.785   2.153
 2191SOL    HW1 7025   0.139   4.749   2.144
 2191SOL    HW2 7026   0.002   4.717   2.200
 2192SOL     OW 7027   0.230   4.348   3.844
 2192SOL    HW1 7028   0.163   4.306   3.898
 2192SOL    HW2 7029   0.207   4.323   3.754
 2193SOL     OW 7030   0.247   3.999   4.710
 2193SOL    HW1 7031   0.260   3.964   4.798
 2193SOL    HW2 7032   0.161   3.968   4.684
 2194SOL     OW 7033   5.295   4.126   4.383
 2194SOL    HW1 7034   5.202   4.148   4.382
 2194SOL    HW2 7035   5.300   4.039   4.343
 2195SOL     OW 7036   0.587   5.014   4.922
 2195SOL    HW1 7037   0.507   5.013   4.871
 2195SOL    HW2 7038   0.604   5.106   4.940
 2196SOL     OW 7039   1.560   5.234   4.414
 2196SOL    HW1 7040   1.550   5.230   4.509
 2196SOL    HW2 7041   1.476   5.267   4.383
 2197SOL     OW 7042   1.133   4.423   4.418
 2197SOL    HW1 7043   1.181   4.505   4.407
 2197SOL    HW2 7044   1.085   4.434   4.500
 2198SOL     OW 7045   1.778   4.321   3.949
 2198SOL    HW1 7046   1.751   4.317   3.857
 2198SOL    HW2 7047   1.738   4.245   3.990
 2199SOL     OW 7048   0.750   4.859   4.765
 2199SOL    HW1 7049   0.691   4.893   4.832
 2199SOL    HW2 7050   0.782   4.937   4.720
 2200SOL     OW 7051   0.877   4.485   5.550
 2200SOL    HW1 7052   0.865   4.556   5.613
 2200SOL    HW2 7053   0.898   4.530   5.468
 2201SOL     OW 7054   0.685   4.719   4.368
 2201SOL    HW1 7055   0.751   4.713   4.436
 2201SOL    HW2 7056   0.617   4.776   4.405
 2202SOL     OW 7057   0.708   4.866   5.544
 2202SOL    HW1 7058   0.756   4.946   5.568
 2202SOL    HW2 7059   0.628   4.899   5.502
 2203SOL     OW 7060   0.382   5.148   4.778
 2203SOL    HW1 7061   0.289   5.165   4.765
 2203SOL    HW2 7062   0.424   5.181   4.698
 2204SOL     OW 7063   1.454   5.224   5.074
 2204SOL    HW1 7064   1.509   5.296   5.104
 2204SOL    HW2 7065   1.386   5.216   5.142
 2205SOL     OW 7066   0.455   4.120   5.206
 2205SOL    HW1 7067   0.529   4.060   5.212
 2205SOL    HW2 7068   0.378   4.065   5.222
 2206SOL     OW 7069   1.605   4.165   4.469
 2206SOL    HW1 7070   1.533   4.183   4.408
 2206SOL    HW2 7071   1.606   4.241   4.527
 2207SOL     OW 7072   1.133   5.076   5.432
 2207SOL    HW1 7073   1.159   5.078   5.524
 2207SOL    HW2 7074   1.080   4.997   5.423
 2208SOL     OW 7075   0.204   5.154   4.270
 2208SOL    HW1 7076   0.257   5.226   4.304
 2208SOL    HW2 7077   0.118   5.166   4.310
 2209SOL     OW 7078   0.257   4.795   4.596
 2209SOL    HW1 7079   0.271   4.706   4.627
 2209SOL    HW2 7080   0.198   4.834   4.659
 2210SOL     OW 7081   0.574   4.708   3.866
 2210SOL    HW1 7082   0.624   4.751   3.797
 2210SOL    HW2 7083   0.613   4.739   3.947
 2211SOL     OW 7084   1.595   3.852   5.188
 2211SOL    HW1 7085   1.621   3.931   5.141
 2211SOL    HW2 7086   1.574   3.882   5.276
 2212SOL     OW 7087   0.128   4.349   4.303
 2212SOL    HW1 7088   0.088   4.271   4.340
 2212SOL    HW2 7089   0.102   4.420   4.362
 2213SOL     OW 7090   0.001   5.291   3.806
 2213SOL    HW1 7091   0.011   5.204   3.845
 2213SOL    HW2 7092   0.031   0.051   3.874
 2214SOL     OW 7093   1.690   4.642   4.370
 2214SOL    HW1 7094   1.771   4.597   4.346
 2214SOL    HW2 7095   1.668   4.693   4.292
 2215SOL     OW 7096   1.650   4.826   4.154
 2215SOL    HW1 7097   1.737   4.825   4.113
 2215SOL    HW2 7098   1.658   4.890   4.225
 2216SOL     OW 7099   0.139   4.472   5.306
 2216SOL    HW1 7100   0.234   4.486   5.302
 2216SOL    HW2 7101   0.102   4.560   5.318
 2217SOL     OW 7102   0.626   5.102   4.471
 2217SOL    HW1 7103   0.572   5.023   4.462
 2217SOL    HW2 7104   0.610   5.152   4.392
 2218SOL     OW 7105   1.286   4.949   5.149
 2218SOL    HW1 7106   1.317   4.882   5.088
 2218SOL    HW2 7107   1.348   4.945   5.222
 2219SOL     OW 7108   0.830   3.728   4.239
 2219SOL    HW1 7109   0.870   3.811   4.214
 2219SOL    HW2 7110   0.736   3.747   4.242
 2220SOL     OW 7111   0.164   4.660   5.010
 2220SOL    HW1 7112   0.253   4.626   4.999
 2220SOL    HW2 7113   0.133   4.677   4.921
 2221SOL     OW 7114   1.530   4.727   3.923
 2221SOL    HW1 7115   1.461   4.669   3.956
 2221SOL    HW2 7116   1.573   4.759   4.002
 2222SOL     OW 7117   0.353   3.981   5.559
 2222SOL    HW1 7118   0.396   4.064   5.582
 2222SOL    HW2 7119   0.261   3.994   5.583
 2223SOL     OW 7120   1.483   5.150   4.684
 2223SOL    HW1 7121   1.410   5.163   4.745
 2223SOL    HW2 7122   1.471   5.062   4.650
 2224SOL     OW 7123   0.593   4.440   3.998
 2224SOL    HW1 7124   0.598   4.523   3.951
 2224SOL    HW2 7125   0.527   4.454   4.066
 2225SOL     OW 7126   1.279   4.092   4.659
 2225SOL    HW1 7127   1.190   4.057   4.667
 2225SOL    HW2 7128   1.331   4.037   4.717
 2226SOL     OW 7129   0.790   4.341   5.170
 2226SOL    HW1 7130   0.765   4.315   5.259
 2226SOL    HW2 7131   0.757   4.272   5.114
 2227SOL     OW 7132   1.392   4.198   5.402
 2227SOL    HW1 7133   1.397   4.243   5.486
 2227SOL    HW2 7134   1.449   4.122   5.411
 2228SOL     OW 7135   0.951   4.609   5.312
 2228SOL    HW1 7136   1.006   4.541   5.274
 2228SOL    HW2 7137   0.901   4.645   5.239
 2229SOL     OW 7138   0.995   4.133   4.955
 2229SOL    HW1 7139   0.905   4.148   4.984
 2229SOL    HW2 7140   0.986   4.090   4.870
 2230SOL     OW 7141   1.054   4.423   4.147
 2230SOL    HW1 7142   1.073   4.416   4.241
 2230SOL    HW2 7143   0.971   4.378   4.136
 2231SOL     OW 7144   0.065   4.514   4.530
 2231SOL    HW1 7145   0.145   4.518   4.583
 2231SOL    HW2 7146   0.073   4.589   4.471
 2232SOL     OW 7147   0.900   4.075   3.920
 2232SOL    HW1 7148   0.939   4.138   3.860
 2232SOL    HW2 7149   0.907   3.991   3.874
 2233SOL     OW 7150   1.702   4.294   5.555
 2233SOL    HW1 7151   1.668   4.368   5.504
 2233SOL    HW2 7152   1.731   4.231   5.489
 2234SOL     OW 7153   1.382   4.862   4.258
 2234SOL    HW1 7154   1.465   4.850   4.212
 2234SOL    HW2 7155   1.333   4.925   4.205
 2235SOL     OW 7156   0.562   3.904   4.622
 2235SOL    HW1 7157   0.559   3.934   4.713
 2235SOL    HW2 7158   0.553   3.984   4.571
 2236SOL     OW 7159   1.017   5.158   4.206
 2236SOL    HW1 7160   0.950   5.225   4.209
 2236SOL    HW2 7161   1.027   5.129   4.297
 2237SOL     OW 7162   1.804   4.776   4.593
 2237SOL    HW1 7163   1.749   4.754   4.517
 2237SOL    HW2 7164   1.742   4.784   4.666
 2238SOL     OW 7165   1.254   5.242   5.256
 2238SOL    HW1 7166   1.217   5.175   5.313
 2238SOL    HW2 7167   1.179   5.276   5.207
 2239SOL     OW 7168   0.311   4.672   3.975
 2239SOL    HW1 7169   0.392   4.694   3.930
 2239SOL    HW2 7170   0.289   4.584   3.943
 2240SOL     OW 7171   1.481   4.475   4.445
 2240SOL    HW1 7172   1.479   4.435   4.532
 2240SOL    HW2 7173   1.560   4.530   4.446
 2241SOL     OW 7174   0.464   4.991   5.471
 2241SOL    HW1 7175   0.438   4.994   5.379
 2241SOL    HW2 7176   0.381   4.991   5.519
 2242SOL     OW 7177   1.047   0.167   3.921
 2242SOL    HW1 7178   1.099   0.105   3.972
 2242SOL    HW2 7179   1.065   0.143   3.830
 2243SOL     OW 7180   0.208   3.997   5.221
 2243SOL    HW1 7181   0.131   4.051   5.200
 2243SOL    HW2 7182   0.171   3.917   5.257
 2244SOL     OW 7183   1.619   5.108   3.837
 2244SOL    HW1 7184   1.639   5.164   3.762
 2244SOL    HW2 7185   1.554   5.045   3.803
 2245SOL     OW 7186   1.400   3.831   4.166
 2245SOL    HW1 7187   1.392   3.806   4.074
 2245SOL    HW2 7188   1.494   3.836   4.182
 2246SOL     OW 7189   0.387   4.417   4.201
 2246SOL    HW1 7190   0.416   4.326   4.211
 2246SOL    HW2 7191   0.294   4.414   4.223
 2247SOL     OW 7192   1.526   3.949   5.447
 2247SOL    HW1 7193   1.537   3.969   5.540
 2247SOL    HW2 7194   1.458   3.881   5.445
 2248SOL     OW 7195   0.646   3.841   3.825
 2248SOL    HW1 7196   0.705   3.767   3.843
 2248SOL    HW2 7197   0.592   3.811   3.752
 2249SOL     OW 7198   0.764   4.003   5.481
 2249SOL    HW1 7199   0.844   3.952   5.477
 2249SOL    HW2 7200   0.717   3.970   5.557
 2250SOL     OW 7201   1.337   4.313   5.157
 2250SOL    HW1 7202   1.368   4.282   5.242
 2250SOL    HW2 7203   1.375   4.401   5.148
 2251SOL     OW 7204   0.822   5.109   4.666
 2251SOL    HW1 7205   0.900   5.103   4.611
 2251SOL    HW2 7206   0.750   5.120   4.605
 2252SOL     OW 7207   0.930   4.234   4.622
 2252SOL    HW1 7208   0.905   4.225   4.530
 2252SOL    HW2 7209   0.958   4.147   4.649
 2253SOL     OW 7210   0.565   3.786   4.215
 2253SOL    HW1 7211   0.489   3.786   4.274
 2253SOL    HW2 7212   0.553   3.863   4.160
 2254SOL     OW 7213   1.430   4.928   3.759
 2254SOL    HW1 7214   1.457   4.852   3.811
 2254SOL    HW2 7215   1.341   4.946   3.789
 2255SOL     OW 7216   0.307   3.768   3.898
 2255SOL    HW1 7217   0.366   3.836   3.866
 2255SOL    HW2 7218   0.364   3.708   3.946
 2256SOL     OW 7219   0.945   3.975   4.178
 2256SOL    HW1 7220   0.920   4.013   4.094
 2256SOL    HW2 7221   1.039   3.990   4.185
 2257SOL     OW 7222   1.080   4.409   5.180
 2257SOL    HW1 7223   1.015   4.339   5.184
 2257SOL    HW2 7224   1.164   4.364   5.174
 2258SOL     OW 7225   1.266   5.267   4.497
 2258SOL    HW1 7226   1.208   0.042   4.482
 2258SOL    HW2 7227   1.314   5.289   4.577
 2259SOL     OW 7228   0.468   4.877   4.442
 2259SOL    HW1 7229   0.400   4.853   4.505
 2259SOL    HW2 7230   0.428   4.861   4.357
 2260SOL     OW 7231   1.024   4.257   3.751
 2260SOL    HW1 7232   0.981   4.340   3.731
 2260SOL    HW2 7233   1.089   4.279   3.818
 2261SOL     OW 7234   0.096   4.261   5.125
 2261SOL    HW1 7235   0.183   4.271   5.087
 2261SOL    HW2 7236   0.083   4.340   5.179
 2262SOL     OW 7237   0.561   3.953   4.896
 2262SOL    HW1 7238   0.598   3.875   4.938
 2262SOL    HW2 7239   0.469   3.952   4.920
 2263SOL     OW 7240   0.867   4.181   4.361
 2263SOL    HW1 7241   0.823   4.237   4.297
 2263SOL    HW2 7242   0.890   4.102   4.312
 2264SOL     OW 7243   1.019   3.779   4.470
 2264SOL    HW1 7244   0.959   3.772   4.395
 2264SOL    HW2 7245   0.995   3.705   4.526
 2265SOL     OW 7246   1.444   4.891   4.583
 2265SOL    HW1 7247   1.375   4.826   4.581
 2265SOL    HW2 7248   1.471   4.901   4.492
 2266SOL     OW 7249   1.466   4.334   4.689
 2266SOL    HW1 7250   1.408   4.258   4.693
 2266SOL    HW2 7251   1.522   4.325   4.766
 2267SOL     OW 7252   1.838   4.533   4.110
 2267SOL    HW1 7253   1.898   4.484   4.168
 2267SOL    HW2 7254   1.815   4.470   4.042
 2268SOL     OW 7255   0.475   5.150   3.863
 2268SOL    HW1 7256   0.422   5.098   3.923
 2268SOL    HW2 7257   0.495   5.090   3.791
 2269SOL     OW 7258   1.674   4.988   4.365
 2269SOL    HW1 7259   1.768   4.993   4.384
 2269SOL    HW2 7260   1.642   5.077   4.381
 2270SOL     OW 7261   1.393   4.297   3.795
 2270SOL    HW1 7262   1.332   4.275   3.865
 2270SOL    HW2 7263   1.478   4.266   3.826
 2271SOL     OW 7264   0.526   3.985   4.032
 2271SOL    HW1 7265   0.577   3.942   3.964
 2271SOL    HW2 7266   0.499   4.068   3.993
 2272SOL     OW 7267   1.747   4.962   5.286
 2272SOL    HW1 7268   1.832   4.917   5.288
 2272SOL    HW2 7269   1.768   5.055   5.296
 2273SOL     OW 7270   1.062   5.072   5.050
 2273SOL    HW1 7271   0.981   5.047   5.095
 2273SOL    HW2 7272   1.132   5.034   5.103
 2274SOL     OW 7273   1.132   4.930   4.829
 2274SOL    HW1 7274   1.086   4.972   4.902
 2274SOL    HW2 7275   1.077   4.946   4.753
 2275SOL     OW 7276   1.625   4.820   4.798
 2275SOL    HW1 7277   1.619   4.882   4.871
 2275SOL    HW2 7278   1.551   4.841   4.742
 2276SOL     OW 7279   0.919   3.816   5.115
 2276SOL    HW1 7280   0.941   3.798   5.024
 2276SOL    HW2 7281   0.998   3.855   5.152
 2277SOL     OW 7282   0.984   4.840   5.451
 2277SOL    HW1 7283   0.892   4.857   5.471
 2277SOL    HW2 7284   0.983   4.763   5.395
 2278SOL     OW 7285   0.707   4.786   4.094
 2278SOL    HW1 7286   0.693   4.766   4.187
 2278SOL    HW2 7287   0.783   4.734   4.070
 2279SOL     OW 7288   0.420   4.550   4.980
 2279SOL    HW1 7289   0.488   4.558   5.046
 2279SOL    HW2 7290   0.388   4.460   4.988
 2280SOL     OW 7291   1.262   4.097   5.006
 2280SOL    HW1 7292   1.295   4.176   5.051
 2280SOL    HW2 7293   1.172   4.118   4.984
 2281SOL     OW 7294   0.109   5.284   5.041
 2281SOL    HW1 7295   0.049   0.033   5.098
 2281SOL    HW2 7296   0.187   5.271   5.094
 2282SOL     OW 7297   0.348   4.834   4.199
 2282SOL    HW1 7298   0.332   4.913   4.147
 2282SOL    HW2 7299   0.343   4.762   4.136
 2283SOL     OW 7300   0.548   4.253   4.582
 2283SOL    HW1 7301   0.561   4.312   4.508
 2283SOL    HW2 7302   0.615   4.278   4.646
 2284SOL     OW 7303   1.261   5.083   4.111
 2284SOL    HW1 7304   1.318   5.149   4.151
 2284SOL    HW2 7305   1.174   5.105   4.143
 2285SOL     OW 7306   1.276   5.185   4.864
 2285SOL    HW1 7307   1.333   5.200   4.940
 2285SOL    HW2 7308   1.234   5.101   4.883
 2286SOL     OW 7309   1.577   4.342   4.209
 2286SOL    HW1 7310   1.527   4.389   4.276
 2286SOL    HW2 7311   1.621   4.411   4.160
 2287SOL     OW 7312   0.382   5.227   5.038
 2287SOL    HW1 7313   0.372   5.192   4.950
 2287SOL    HW2 7314   0.473   5.256   5.042
 2288SOL     OW 7315   0.420   4.465   5.327
 2288SOL    HW1 7316   0.483   4.509   5.271
 2288SOL    HW2 7317   0.456   4.377   5.340
 2289SOL     OW 7318   1.610   4.506   5.412
 2289SOL    HW1 7319   1.524   4.547   5.405
 2289SOL    HW2 7320   1.662   4.547   5.342
 2290SOL     OW 7321   0.996   3.858   5.479
 2290SOL    HW1 7322   1.054   3.931   5.457
 2290SOL    HW2 7323   1.045   3.780   5.453
 2291SOL     OW 7324   0.496   3.761   5.476
 2291SOL    HW1 7325   0.448   3.710   5.410
 2291SOL    HW2 7326   0.442   3.838   5.491
 2292SOL     OW 7327   0.587   4.597   4.759
 2292SOL    HW1 7328   0.620   4.687   4.758
 2292SOL    HW2 7329   0.529   4.594   4.835
 2293SOL     OW 7330   1.344   4.581   4.741
 2293SOL    HW1 7331   1.258   4.564   4.704
 2293SOL    HW2 7332   1.392   4.499   4.732
 2294SOL     OW 7333   1.199   4.251   3.985
 2294SOL    HW1 7334   1.208   4.173   4.040
 2294SOL    HW2 7335   1.157   4.315   4.042
 2295SOL     OW 7336   0.301   3.924   4.969
 2295SOL    HW1 7337   0.269   3.946   5.057
 2295SOL    HW2 7338   0.290   3.830   4.962
 2296SOL     OW 7339   0.038   5.018   4.995
 2296SOL    HW1 7340   0.068   4.972   5.073
 2296SOL    HW2 7341   0.043   5.111   5.018
 2297SOL     OW 7342   0.720   4.352   4.776
 2297SOL    HW1 7343   0.797   4.341   4.720
 2297SOL    HW2 7344   0.691   4.441   4.759
 2298SOL     OW 7345   1.739   4.684   5.584
 2298SOL    HW1 7346   1.697   4.616   5.531
 2298SOL    HW2 7347   1.678   4.702   5.655
 2299SOL     OW 7348   0.329   3.786   4.355
 2299SOL    HW1 7349   0.308   3.876   4.379
 2299SOL    HW2 7350   0.337   3.740   4.439
 2300SOL     OW 7351   1.624   4.104   4.082
 2300SOL    HW1 7352   1.652   4.038   4.145
 2300SOL    HW2 7353   1.599   4.179   4.136
 2301SOL     OW 7354   1.030   4.482   4.682
 2301SOL    HW1 7355   1.019   4.498   4.776
 2301SOL    HW2 7356   1.003   4.391   4.670
 2302SOL     OW 7357   1.853   5.213   5.298
 2302SOL    HW1 7358   1.831   5.297   5.257
 2302SOL    HW2 7359   1.925   5.234   5.358
 2303SOL     OW 7360   0.357   4.643   5.530
 2303SOL    HW1 7361   0.436   4.660   5.581
 2303SOL    HW2 7362   0.384   4.577   5.465
 2304SOL     OW 7363   1.525   3.996   3.849
 2304SOL    HW1 7364   1.462   3.930   3.879
 2304SOL    HW2 7365   1.560   4.033   3.930
 2305SOL     OW 7366   1.286   4.548   3.752
 2305SOL    HW1 7367   1.328   4.462   3.757
 2305SOL    HW2 7368   1.318   4.586   3.670
 2306SOL     OW 7369   1.054   5.091   4.527
 2306SOL    HW1 7370   1.063   5.000   4.497
 2306SOL    HW2 7371   1.143   5.126   4.523
 2307SOL     OW 7372   0.313   4.530   4.669
 2307SOL    HW1 7373   0.407   4.546   4.669
 2307SOL    HW2 7374   0.304   4.441   4.702
 2308SOL     OW 7375   0.331   4.252   4.742
 2308SOL    HW1 7376   0.296   4.164   4.729
 2308SOL    HW2 7377   0.406   4.257   4.683
 2309SOL     OW 7378   1.134   4.096   5.411
 2309SOL    HW1 7379   1.086   4.150   5.473
 2309SOL    HW2 7380   1.221   4.136   5.406
 2310SOL     OW 7381   1.161   3.920   5.197
 2310SOL    HW1 7382   1.149   3.984   5.268
 2310SOL    HW2 7383   1.203   3.970   5.127
 2311SOL     OW 7384   0.005   5.036   3.926
 2311SOL    HW1 7385   5.235   5.017   3.864
 2311SOL    HW2 7386   0.018   4.954   3.975
 2312SOL     OW 7387   0.970   4.510   4.947
 2312SOL    HW1 7388   1.031   4.492   5.019
 2312SOL    HW2 7389   0.889   4.468   4.973
 2313SOL     OW 7390   0.028   4.295   4.845
 2313SOL    HW1 7391   0.115   4.277   4.810
 2313SOL    HW2 7392   0.035   4.272   4.938
 2314SOL     OW 7393   0.166   4.237   5.439
 2314SOL    HW1 7394   0.226   4.192   5.380
 2314SOL    HW2 7395   0.147   4.320   5.396
 2315SOL     OW 7396   1.381   4.655   5.380
 2315SOL    HW1 7397   1.402   4.748   5.375
 2315SOL    HW2 7398   1.376   4.626   5.289
 2316SOL     OW 7399   0.818   4.294   4.091
 2316SOL    HW1 7400   0.824   4.220   4.031
 2316SOL    HW2 7401   0.743   4.344   4.061
 2317SOL     OW 7402   1.640   4.325   4.902
 2317SOL    HW1 7403   1.630   4.266   4.977
 2317SOL    HW2 7404   1.728   4.307   4.869
 2318SOL     OW 7405   0.207   5.273   5.459
 2318SOL    HW1 7406   0.149   0.008   5.527
 2318SOL    HW2 7407   0.213   5.180   5.479
 2319SOL     OW 7408   0.716   4.168   4.976
 2319SOL    HW1 7409   0.659   4.095   4.952
 2319SOL    HW2 7410   0.706   4.231   4.905
 2320SOL     OW 7411   0.463   4.215   3.899
 2320SOL    HW1 7412   0.524   4.284   3.928
 2320SOL    HW2 7413   0.381   4.261   3.886
 2321SOL     OW 7414   0.147   4.861   5.196
 2321SOL    HW1 7415   0.144   4.816   5.281
 2321SOL    HW2 7416   0.153   4.791   5.132
 2322SOL     OW 7417   1.321   4.764   4.942
 2322SOL    HW1 7418   1.341   4.701   4.872
 2322SOL    HW2 7419   1.255   4.821   4.904
 2323SOL     OW 7420   1.316   4.582   4.026
 2323SOL    HW1 7421   1.243   4.548   4.079
 2323SOL    HW2 7422   1.289   4.567   3.936
 2324SOL     OW 7423   0.071   4.896   4.757
 2324SOL    HW1 7424   0.059   4.943   4.839
 2324SOL    HW2 7425   5.287   4.905   4.711
 2325SOL     OW 7426   0.756   0.029   5.432
 2325SOL    HW1 7427   0.663   0.052   5.441
 2325SOL    HW2 7428   0.779   0.057   5.344
 2326SOL     OW 7429   1.722   3.882   4.227
 2326SOL    HW1 7430   1.793   3.866   4.165
 2326SOL    HW2 7431   1.706   3.797   4.268
 2327SOL     OW 7432   1.278   4.654   4.396
 2327SOL    HW1 7433   1.351   4.593   4.408
 2327SOL    HW2 7434   1.313   4.723   4.340
 2328SOL     OW 7435   0.805   4.992   5.121
 2328SOL    HW1 7436   0.772   5.025   5.205
 2328SOL    HW2 7437   0.730   4.994   5.062
 2329SOL     OW 7438   1.842   3.895   4.689
 2329SOL    HW1 7439   1.872   3.807   4.666
 2329SOL    HW2 7440   1.755   3.902   4.649
 2330SOL     OW 7441   0.275   4.040   4.439
 2330SOL    HW1 7442   0.189   4.078   4.422
 2330SOL    HW2 7443   0.279   4.030   4.534
 2331SOL     OW 7444   0.827   4.724   5.097
 2331SOL    HW1 7445   0.875   4.709   5.015
 2331SOL    HW2 7446   0.827   4.819   5.108
 2332SOL     OW 7447   0.916   4.636   4.016
 2332SOL    HW1 7448   0.977   4.670   3.950
 2332SOL    HW2 7449   0.966   4.568   4.061
 2333SOL     OW 7450   0.366   5.026   5.227
 2333SOL    HW1 7451   0.370   5.093   5.160
 2333SOL    HW2 7452   0.290   4.972   5.204
 2334SOL     OW 7453   1.612   5.006   5.005
 2334SOL    HW1 7454   1.665   4.992   5.083
 2334SOL    HW2 7455   1.548   5.072   5.030
 2335SOL     OW 7456   1.067   4.837   4.444
 2335SOL    HW1 7457   0.992   4.785   4.476
 2335SOL    HW2 7458   1.131   4.771   4.417
 2336SOL     OW 7459   1.025   3.967   4.690
 2336SOL    HW1 7460   1.022   3.921   4.606
 2336SOL    HW2 7461   1.019   3.898   4.756
 2337SOL     OW 7462   1.729   4.114   5.105
 2337SOL    HW1 7463   1.801   4.177   5.104
 2337SOL    HW2 7464   1.758   4.044   5.046
 2338SOL     OW 7465   0.261   5.056   4.022
 2338SOL    HW1 7466   0.170   5.057   3.994
 2338SOL    HW2 7467   0.261   5.100   4.107
 2339SOL     OW 7468   0.121   4.747   5.446
 2339SOL    HW1 7469   0.051   4.703   5.495
 2339SOL    HW2 7470   0.202   4.712   5.483
 2340SOL     OW 7471   0.677   3.918   5.224
 2340SOL    HW1 7472   0.761   3.896   5.184
 2340SOL    HW2 7473   0.700   3.952   5.311
 2341SOL     OW 7474   0.090   4.053   3.759
 2341SOL    HW1 7475   0.001   4.021   3.741
 2341SOL    HW2 7476   0.104   4.122   3.695
 2342SOL     OW 7477   1.425   4.579   5.120
 2342SOL    HW1 7478   1.375   4.640   5.065
 2342SOL    HW2 7479   1.513   4.582   5.084
 2343SOL     OW 7480   0.069   3.865   3.985
 2343SOL    HW1 7481   0.062   3.948   3.937
 2343SOL    HW2 7482   0.147   3.824   3.950
 2344SOL     OW 7483   1.182   5.057   3.849
 2344SOL    HW1 7484   1.092   5.025   3.851
 2344SOL    HW2 7485   1.212   5.052   3.940
 2345SOL     OW 7486   0.621   4.555   5.162
 2345SOL    HW1 7487   0.679   4.629   5.146
 2345SOL    HW2 7488   0.679   4.479   5.167
 2346SOL     OW 7489   0.719   4.282   5.424
 2346SOL    HW1 7490   0.764   4.340   5.485
 2346SOL    HW2 7491   0.736   4.194   5.457
 2347SOL     OW 7492   1.477   4.914   5.350
 2347SOL    HW1 7493   1.464   4.930   5.444
 2347SOL    HW2 7494   1.570   4.932   5.336
 2348SOL     OW 7495   1.663   4.603   4.978
 2348SOL    HW1 7496   1.660   4.517   4.934
 2348SOL    HW2 7497   1.654   4.666   4.907
 2349SOL     OW 7498   1.217   4.044   4.180
 2349SOL    HW1 7499   1.278   3.970   4.175
 2349SOL    HW2 7500   1.246   4.094   4.257
 2350SOL     OW 7501   0.585   4.457   4.397
 2350SOL    HW1 7502   0.625   4.543   4.382
 2350SOL    HW2 7503   0.518   4.450   4.330
 2351SOL     OW 7504   1.755   4.088   5.378
 2351SOL    HW1 7505   1.742   4.104   5.284
 2351SOL    HW2 7506   1.682   4.031   5.403
 2352SOL     OW 7507   1.749   4.657   5.233
 2352SOL    HW1 7508   1.735   4.751   5.244
 2352SOL    HW2 7509   1.730   4.641   5.140
 2353SOL     OW 7510   0.843   5.092   3.746
 2353SOL    HW1 7511   0.831   5.091   3.841
 2353SOL    HW2 7512   0.851   5.185   3.724
 2354SOL     OW 7513   0.872   4.695   4.576
 2354SOL    HW1 7514   0.919   4.621   4.614
 2354SOL    HW2 7515   0.831   4.739   4.650
 2355SOL     OW 7516   1.079   4.715   3.815
 2355SOL    HW1 7517   1.056   4.765   3.737
 2355SOL    HW2 7518   1.151   4.659   3.787
 2356SOL     OW 7519   0.217   5.014   5.578
 2356SOL    HW1 7520   0.160   4.940   5.559
 2356SOL    HW2 7521   0.210   5.026   5.673
 2357SOL     OW 7522   0.092   4.912   4.372
 2357SOL    HW1 7523   0.122   4.896   4.462
 2357SOL    HW2 7524   0.157   4.973   4.336
 2358SOL     OW 7525   0.680   5.092   5.332
 2358SOL    HW1 7526   0.600   5.068   5.379
 2358SOL    HW2 7527   0.717   5.164   5.383
 2359SOL     OW 7528   1.811   3.903   4.960
 2359SOL    HW1 7529   1.816   3.809   4.971
 2359SOL    HW2 7530   1.822   3.917   4.866
 2360SOL     OW 7531   0.440   4.159   4.246
 2360SOL    HW1 7532   0.467   4.085   4.191
 2360SOL    HW2 7533   0.391   4.118   4.318
 2361SOL     OW 7534   1.706   5.227   4.840
 2361SOL    HW1 7535   1.632   5.210   4.781
 2361SOL    HW2 7536   1.712   5.150   4.895
 2362SOL     OW 7537   0.344   4.289   5.018
 2362SOL    HW1 7538   0.396   4.229   5.070
 2362SOL    HW2 7539   0.354   4.259   4.928
 2363SOL     OW 7540   1.429   3.954   4.840
 2363SOL    HW1 7541   1.448   3.870   4.882
 2363SOL    HW2 7542   1.378   4.002   4.906
 2364SOL     OW 7543   1.009   3.740   4.858
 2364SOL    HW1 7544   0.954   3.675   4.815
 2364SOL    HW2 7545   1.096   3.701   4.860
 2365SOL     OW 7546   0.813   5.043   4.011
 2365SOL    HW1 7547   0.763   4.965   4.037
 2365SOL    HW2 7548   0.867   5.063   4.087
 2366SOL     OW 7549   0.643   0.007   5.022
 2366SOL    HW1 7550   0.642   0.063   5.100
 2366SOL    HW2 7551   0.736   5.290   5.006
 2367SOL     OW 7552   1.359   3.775   3.898
 2367SOL    HW1 7553   1.392   3.705   3.842
 2367SOL    HW2 7554   1.269   3.748   3.918
 2368SOL     OW 7555   1.296   4.188   4.401
 2368SOL    HW1 7556   1.243   4.268   4.405
 2368SOL    HW2 7557   1.291   4.152   4.490
 2369SOL     OW 7558   1.583   3.918   4.607
 2369SOL    HW1 7559   1.528   3.943   4.681
 2369SOL    HW2 7560   1.584   3.994   4.550
 2370SOL     OW 7561   0.050   4.785   4.015
 2370SOL    HW1 7562   0.139   4.749   4.006
 2370SOL    HW2 7563   0.002   4.717   4.062
 2371SOL     OW 7564   0.230   4.348   5.706
 2371SOL    HW1 7565   0.163   4.305   5.760
 2371SOL    HW2 7566   0.207   4.323   5.616
 2372SOL     OW 7567   0.247   3.999   6.572
 2372SOL    HW1 7568   0.260   3.964   6.660
 2372SOL    HW2 7569   0.161   3.968   6.546
 2373SOL     OW 7570   5.295   4.126   6.245
 2373SOL    HW1 7571   5.202   4.148   6.243
 2373SOL    HW2 7572   5.300   4.039   6.205
 2374SOL     OW 7573   0.588   5.014   6.785
 2374SOL    HW1 7574   0.507   5.013   6.733
 2374SOL    HW2 7575   0.604   5.107   6.801
 2375SOL     OW 7576   1.560   5.234   6.276
 2375SOL    HW1 7577   1.550   5.230   6.371
 2375SOL    HW2 7578   1.477   5.268   6.244
 2376SOL     OW 7579   1.133   4.423   6.280
 2376SOL    HW1 7580   1.181   4.505   6.269
 2376SOL    HW2 7581   1.085   4.434   6.362
 2377SOL     OW 7582   1.778   4.321   5.811
 2377SOL    HW1 7583   1.751   4.317   5.719
 2377SOL    HW2 7584   1.738   4.244   5.852
 2378SOL     OW 7585   0.749   4.859   6.627
 2378SOL    HW1 7586   0.691   4.893   6.694
 2378SOL    HW2 7587   0.782   4.937   6.582
 2379SOL     OW 7588   0.875   4.485   7.406
 2379SOL    HW1 7589   0.866   4.557   7.468
 2379SOL    HW2 7590   0.898   4.527   7.323
 2380SOL     OW 7591   0.685   4.719   6.230
 2380SOL    HW1 7592   0.751   4.713   6.298
 2380SOL    HW2 7593   0.617   4.776   6.267
 2381SOL     OW 7594   0.708   4.867   7.404
 2381SOL    HW1 7595   0.757   4.946   7.429
 2381SOL    HW2 7596   0.628   4.901   7.363
 2382SOL     OW 7597   0.383   5.148   6.640
 2382SOL    HW1 7598   0.289   5.165   6.627
 2382SOL    HW2 7599   0.424   5.181   6.560
 2383SOL     OW 7600   1.454   5.224   6.936
 2383SOL    HW1 7601   1.510   5.296   6.966
 2383SOL    HW2 7602   1.386   5.216   7.004
 2384SOL     OW 7603   0.455   4.120   7.068
 2384SOL    HW1 7604   0.529   4.061   7.075
 2384SOL    HW2 7605   0.378   4.065   7.085
 2385SOL     OW 7606   1.604   4.165   6.331
 2385SOL    HW1 7607   1.533   4.183   6.270
 2385SOL    HW2 7608   1.605   4.241   6.390
 2386SOL     OW 7609   1.133   5.075   7.292
 2386SOL    HW1 7610   1.161   5.075   7.384
 2386SOL    HW2 7611   1.080   4.996   7.284
 2387SOL     OW 7612   0.204   5.154   6.132
 2387SOL    HW1 7613   0.257   5.226   6.166
 2387SOL    HW2 7614   0.118   5.166   6.172
 2388SOL     OW 7615   0.258   4.795   6.458
 2388SOL    HW1 7616   0.271   4.706   6.489
 2388SOL    HW2 7617   0.198   4.834   6.521
 2389SOL     OW 7618   0.573   4.708   5.728
 2389SOL    HW1 7619   0.624   4.751   5.659
 2389SOL    HW2 7620   0.613   4.739   5.809
 2390SOL     OW 7621   1.595   3.852   7.049
 2390SOL    HW1 7622   1.621   3.932   7.003
 2390SOL    HW2 7623   1.573   3.881   7.138
 2391SOL     OW 7624   0.128   4.349   6.165
 2391SOL    HW1 7625   0.088   4.271   6.202
 2391SOL    HW2 7626   0.102   4.420   6.223
 2392SOL     OW 7627   0.001   5.291   5.668
 2392SOL    HW1 7628   0.011   5.204   5.707
 2392SOL    HW2 7629   0.031   0.051   5.736
 2393SOL     OW 7630   1.690   4.642   6.232
 2393SOL    HW1 7631   1.771   4.597   6.208
 2393SOL    HW2 7632   1.668   4.693   6.154
 2394SOL     OW 7633   1.650   4.826   6.016
 2394SOL    HW1 7634   1.737   4.825   5.976
 2394SOL    HW2 7635   1.658   4.890   6.087
 2395SOL     OW 7636   0.139   4.470   7.170
 2395SOL    HW1 7637   0.234   4.484   7.165
 2395SOL    HW2 7638   0.102   4.558   7.178
 2396SOL     OW 7639   0.626   5.102   6.333
 2396SOL    HW1 7640   0.572   5.023   6.324
 2396SOL    HW2 7641   0.610   5.152   6.254
 2397SOL     OW 7642   1.286   4.949   7.011
 2397SOL    HW1 7643   1.317   4.882   6.950
 2397SOL    HW2 7644   1.348   4.945   7.084
 2398SOL     OW 7645   0.830   3.728   6.101
 2398SOL    HW1 7646   0.870   3.811   6.076
 2398SOL    HW2 7647   0.736   3.747   6.104
 2399SOL     OW 7648   0.164   4.660   6.873
 2399SOL    HW1 7649   0.253   4.626   6.861
 2399SOL    HW2 7650   0.133   4.677   6.784
 2400SOL     OW 7651   1.530   4.727   5.785
 2400SOL    HW1 7652   1.461   4.669   5.818
 2400SOL    HW2 7653   1.573   4.759   5.864
 2401SOL     OW 7654   0.353   3.978   7.419
 2401SOL    HW1 7655   0.395   4.061   7.443
 2401SOL    HW2 7656   0.262   3.989   7.444
 2402SOL     OW 7657   1.483   5.150   6.546
 2402SOL    HW1 7658   1.410   5.163   6.607
 2402SOL    HW2 7659   1.471   5.062   6.512
 2403SOL     OW 7660   0.593   4.440   5.860
 2403SOL    HW1 7661   0.598   4.523   5.813
 2403SOL    HW2 7662   0.527   4.454   5.928
 2404SOL     OW 7663   1.279   4.092   6.521
 2404SOL    HW1 7664   1.190   4.057   6.529
 2404SOL    HW2 7665   1.331   4.037   6.579
 2405SOL     OW 7666   0.790   4.341   7.033
 2405SOL    HW1 7667   0.764   4.314   7.121
 2405SOL    HW2 7668   0.757   4.272   6.976
 2406SOL     OW 7669   1.393   4.198   7.263
 2406SOL    HW1 7670   1.397   4.243   7.348
 2406SOL    HW2 7671   1.448   4.121   7.273
 2407SOL     OW 7672   0.953   4.610   7.172
 2407SOL    HW1 7673   1.007   4.541   7.133
 2407SOL    HW2 7674   0.902   4.645   7.099
 2408SOL     OW 7675   0.995   4.133   6.817
 2408SOL    HW1 7676   0.905   4.148   6.846
 2408SOL    HW2 7677   0.986   4.089   6.732
 2409SOL     OW 7678   1.054   4.423   6.010
 2409SOL    HW1 7679   1.073   4.416   6.103
 2409SOL    HW2 7680   0.971   4.378   5.998
 2410SOL     OW 7681   0.065   4.515   6.393
 2410SOL    HW1 7682   0.145   4.518   6.445
 2410SOL    HW2 7683   0.073   4.588   6.332
 2411SOL     OW 7684   0.900   4.075   5.782
 2411SOL    HW1 7685   0.939   4.138   5.722
 2411SOL    HW2 7686   0.907   3.991   5.736
 2412SOL     OW 7687   1.704   4.295   7.418
 2412SOL    HW1 7688   1.669   4.369   7.368
 2412SOL    HW2 7689   1.731   4.231   7.352
 2413SOL     OW 7690   1.382   4.862   6.120
 2413SOL    HW1 7691   1.465   4.850   6.073
 2413SOL    HW2 7692   1.333   4.925   6.067
 2414SOL     OW 7693   0.562   3.904   6.484
 2414SOL    HW1 7694   0.559   3.934   6.575
 2414SOL    HW2 7695   0.553   3.984   6.433
 2415SOL     OW 7696   1.017   5.157   6.068
 2415SOL    HW1 7697   0.950   5.225   6.071
 2415SOL    HW2 7698   1.027   5.130   6.159
 2416SOL     OW 7699   1.804   4.776   6.455
 2416SOL    HW1 7700   1.749   4.754   6.379
 2416SOL    HW2 7701   1.742   4.784   6.528
 2417SOL     OW 7702   1.254   5.243   7.118
 2417SOL    HW1 7703   1.217   5.174   7.174
 2417SOL    HW2 7704   1.180   5.277   7.069
 2418SOL     OW 7705   0.311   4.671   5.837
 2418SOL    HW1 7706   0.392   4.694   5.792
 2418SOL    HW2 7707   0.289   4.584   5.805
 2419SOL     OW 7708   1.481   4.475   6.307
 2419SOL    HW1 7709   1.479   4.435   6.394
 2419SOL    HW2 7710   1.560   4.530   6.308
 2420SOL     OW 7711   0.463   4.991   7.335
 2420SOL    HW1 7712   0.437   4.994   7.243
 2420SOL    HW2 7713   0.380   4.991   7.383
 2421SOL     OW 7714   1.047   0.166   5.783
 2421SOL    HW1 7715   1.100   0.106   5.834
 2421SOL    HW2 7716   1.065   0.143   5.692
 2422SOL     OW 7717   0.207   3.997   7.084
 2422SOL    HW1 7718   0.131   4.050   7.061
 2422SOL    HW2 7719   0.171   3.916   7.120
 2423SOL     OW 7720   1.619   5.108   5.699
 2423SOL    HW1 7721   1.639   5.164   5.624
 2423SOL    HW2 7722   1.554   5.046   5.665
 2424SOL     OW 7723   1.400   3.831   6.028
 2424SOL    HW1 7724   1.392   3.805   5.936
 2424SOL    HW2 7725   1.494   3.836   6.044
 2425SOL     OW 7726   0.387   4.417   6.063
 2425SOL    HW1 7727   0.416   4.326   6.073
 2425SOL    HW2 7728   0.293   4.414   6.085
 2426SOL     OW 7729   1.525   3.948   7.308
 2426SOL    HW1 7730   1.536   3.969   7.401
 2426SOL    HW2 7731   1.459   3.879   7.307
 2427SOL     OW 7732   0.646   3.841   5.687
 2427SOL    HW1 7733   0.705   3.767   5.705
 2427SOL    HW2 7734   0.592   3.811   5.614
 2428SOL     OW 7735   0.763   4.003   7.344
 2428SOL    HW1 7736   0.844   3.952   7.340
 2428SOL    HW2 7737   0.720   3.974   7.424
 2429SOL     OW 7738   1.337   4.314   7.019
 2429SOL    HW1 7739   1.369   4.282   7.103
 2429SOL    HW2 7740   1.375   4.401   7.010
 2430SOL     OW 7741   0.822   5.109   6.528
 2430SOL    HW1 7742   0.900   5.103   6.473
 2430SOL    HW2 7743   0.750   5.120   6.467
 2431SOL     OW 7744   0.930   4.234   6.484
 2431SOL    HW1 7745   0.905   4.225   6.392
 2431SOL    HW2 7746   0.958   4.147   6.511
 2432SOL     OW 7747   0.565   3.786   6.077
 2432SOL    HW1 7748   0.489   3.786   6.136
 2432SOL    HW2 7749   0.552   3.863   6.022
 2433SOL     OW 7750   1.430   4.928   5.621
 2433SOL    HW1 7751   1.457   4.852   5.673
 2433SOL    HW2 7752   1.341   4.946   5.651
 2434SOL     OW 7753   0.307   3.768   5.761
 2434SOL    HW1 7754   0.366   3.836   5.728
 2434SOL    HW2 7755   0.364   3.708   5.808
 2435SOL     OW 7756   0.945   3.975   6.040
 2435SOL    HW1 7757   0.920   4.013   5.956
 2435SOL    HW2 7758   1.039   3.991   6.047
 2436SOL     OW 7759   1.080   4.409   7.041
 2436SOL    HW1 7760   1.015   4.338   7.046
 2436SOL    HW2 7761   1.164   4.364   7.036
 2437SOL     OW 7762   1.266   5.267   6.360
 2437SOL    HW1 7763   1.209   0.042   6.344
 2437SOL    HW2 7764   1.315   5.289   6.439
 2438SOL     OW 7765   0.468   4.877   6.304
 2438SOL    HW1 7766   0.400   4.853   6.367
 2438SOL    HW2 7767   0.428   4.861   6.219
 2439SOL     OW 7768   1.024   4.257   5.613
 2439SOL    HW1 7769   0.981   4.340   5.593
 2439SOL    HW2 7770   1.089   4.279   5.680
 2440SOL     OW 7771   0.096   4.260   6.988
 2440SOL    HW1 7772   0.183   4.270   6.950
 2440SOL    HW2 7773   0.084   4.338   7.042
 2441SOL     OW 7774   0.561   3.953   6.758
 2441SOL    HW1 7775   0.598   3.876   6.801
 2441SOL    HW2 7776   0.469   3.952   6.782
 2442SOL     OW 7777   0.867   4.181   6.223
 2442SOL    HW1 7778   0.823   4.237   6.159
 2442SOL    HW2 7779   0.890   4.102   6.175
 2443SOL     OW 7780   1.019   3.779   6.332
 2443SOL    HW1 7781   0.959   3.772   6.257
 2443SOL    HW2 7782   0.996   3.705   6.388
 2444SOL     OW 7783   1.444   4.891   6.445
 2444SOL    HW1 7784   1.375   4.826   6.443
 2444SOL    HW2 7785   1.471   4.901   6.354
 2445SOL     OW 7786   1.466   4.334   6.551
 2445SOL    HW1 7787   1.408   4.258   6.555
 2445SOL    HW2 7788   1.522   4.325   6.628
 2446SOL     OW 7789   1.838   4.533   5.972
 2446SOL    HW1 7790   1.898   4.484   6.030
 2446SOL    HW2 7791   1.815   4.470   5.904
 2447SOL     OW 7792   0.475   5.150   5.725
 2447SOL    HW1 7793   0.422   5.098   5.785
 2447SOL    HW2 7794   0.495   5.090   5.653
 2448SOL     OW 7795   1.674   4.988   6.227
 2448SOL    HW1 7796   1.768   4.993   6.246
 2448SOL    HW2 7797   1.642   5.077   6.243
 2449SOL     OW 7798   1.393   4.297   5.657
 2449SOL    HW1 7799   1.332   4.275   5.727
 2449SOL    HW2 7800   1.478   4.266   5.688
 2450SOL     OW 7801   0.526   3.985   5.894
 2450SOL    HW1 7802   0.577   3.942   5.826
 2450SOL    HW2 7803   0.499   4.068   5.855
 2451SOL     OW 7804   1.746   4.961   7.146
 2451SOL    HW1 7805   1.831   4.917   7.148
 2451SOL    HW2 7806   1.767   5.053   7.156
 2452SOL     OW 7807   1.062   5.072   6.912
 2452SOL    HW1 7808   0.981   5.047   6.957
 2452SOL    HW2 7809   1.132   5.034   6.965
 2453SOL     OW 7810   1.132   4.930   6.691
 2453SOL    HW1 7811   1.086   4.972   6.764
 2453SOL    HW2 7812   1.077   4.946   6.615
 2454SOL     OW 7813   1.625   4.820   6.660
 2454SOL    HW1 7814   1.619   4.882   6.733
 2454SOL    HW2 7815   1.551   4.841   6.604
 2455SOL     OW 7816   0.918   3.816   6.977
 2455SOL    HW1 7817   0.941   3.798   6.886
 2455SOL    HW2 7818   0.998   3.855   7.014
 2456SOL     OW 7819   0.985   4.838   7.316
 2456SOL    HW1 7820   0.893   4.855   7.334
 2456SOL    HW2 7821   0.985   4.761   7.259
 2457SOL     OW 7822   0.707   4.786   5.957
 2457SOL    HW1 7823   0.693   4.766   6.049
 2457SOL    HW2 7824   0.783   4.734   5.932
 2458SOL     OW 7825   0.419   4.550   6.842
 2458SOL    HW1 7826   0.488   4.558   6.908
 2458SOL    HW2 7827   0.388   4.460   6.850
 2459SOL     OW 7828   1.263   4.098   6.868
 2459SOL    HW1 7829   1.295   4.176   6.913
 2459SOL    HW2 7830   1.172   4.119   6.845
 2460SOL     OW 7831   0.109   5.284   6.903
 2460SOL    HW1 7832   0.049   0.033   6.960
 2460SOL    HW2 7833   0.188   5.271   6.956
 2461SOL     OW 7834   0.347   4.834   6.061
 2461SOL    HW1 7835   0.332   4.913   6.009
 2461SOL    HW2 7836   0.343   4.762   5.998
 2462SOL     OW 7837   0.548   4.253   6.444
 2462SOL    HW1 7838   0.561   4.312   6.370
 2462SOL    HW2 7839   0.615   4.278   6.508
 2463SOL     OW 7840   1.261   5.083   5.973
 2463SOL    HW1 7841   1.318   5.149   6.012
 2463SOL    HW2 7842   1.174   5.105   6.005
 2464SOL     OW 7843   1.276   5.185   6.726
 2464SOL    HW1 7844   1.333   5.200   6.802
 2464SOL    HW2 7845   1.234   5.101   6.745
 2465SOL     OW 7846   1.577   4.342   6.071
 2465SOL    HW1 7847   1.527   4.389   6.138
 2465SOL    HW2 7848   1.621   4.411   6.022
 2466SOL     OW 7849   0.383   5.226   6.901
 2466SOL    HW1 7850   0.372   5.192   6.812
 2466SOL    HW2 7851   0.474   5.256   6.904
 2467SOL     OW 7852   0.420   4.464   7.189
 2467SOL    HW1 7853   0.483   4.509   7.133
 2467SOL    HW2 7854   0.456   4.376   7.200
 2468SOL     OW 7855   1.610   4.506   7.275
 2468SOL    HW1 7856   1.524   4.546   7.268
 2468SOL    HW2 7857   1.662   4.547   7.205
 2469SOL     OW 7858   0.996   3.859   7.339
 2469SOL    HW1 7859   1.055   3.931   7.318
 2469SOL    HW2 7860   1.045   3.780   7.314
 2470SOL     OW 7861   0.499   3.760   7.337
 2470SOL    HW1 7862   0.450   3.709   7.272
 2470SOL    HW2 7863   0.445   3.838   7.351
 2471SOL     OW 7864   0.586   4.597   6.621
 2471SOL    HW1 7865   0.620   4.687   6.620
 2471SOL    HW2 7866   0.529   4.594   6.697
 2472SOL     OW 7867   1.344   4.581   6.604
 2472SOL    HW1 7868   1.258   4.564   6.566
 2472SOL    HW2 7869   1.392   4.499   6.594
 2473SOL     OW 7870   1.199   4.251   5.847
 2473SOL    HW1 7871   1.208   4.173   5.902
 2473SOL    HW2 7872   1.157   4.315   5.904
 2474SOL     OW 7873   0.301   3.925   6.832
 2474SOL    HW1 7874   0.269   3.946   6.920
 2474SOL    HW2 7875   0.290   3.830   6.825
 2475SOL     OW 7876   0.038   5.018   6.857
 2475SOL    HW1 7877   0.068   4.972   6.935
 2475SOL    HW2 7878   0.042   5.111   6.880
 2476SOL     OW 7879   0.720   4.352   6.638
 2476SOL    HW1 7880   0.797   4.340   6.582
 2476SOL    HW2 7881   0.691   4.441   6.620
 2477SOL     OW 7882   1.740   4.686   7.444
 2477SOL    HW1 7883   1.696   4.617   7.394
 2477SOL    HW2 7884   1.681   4.703   7.518
 2478SOL     OW 7885   0.329   3.786   6.217
 2478SOL    HW1 7886   0.308   3.876   6.241
 2478SOL    HW2 7887   0.337   3.740   6.301
 2479SOL     OW 7888   1.624   4.104   5.944
 2479SOL    HW1 7889   1.652   4.038   6.008
 2479SOL    HW2 7890   1.599   4.179   5.998
 2480SOL     OW 7891   1.030   4.482   6.544
 2480SOL    HW1 7892   1.019   4.499   6.638
 2480SOL    HW2 7893   1.003   4.391   6.532
 2481SOL     OW 7894   1.853   5.212   7.156
 2481SOL    HW1 7895   1.830   5.296   7.117
 2481SOL    HW2 7896   1.925   5.232   7.215
 2482SOL     OW 7897   0.356   4.640   7.392
 2482SOL    HW1 7898   0.436   4.660   7.440
 2482SOL    HW2 7899   0.383   4.575   7.326
 2483SOL     OW 7900   1.524   3.996   5.711
 2483SOL    HW1 7901   1.462   3.930   5.741
 2483SOL    HW2 7902   1.560   4.033   5.792
 2484SOL     OW 7903   1.286   4.548   5.614
 2484SOL    HW1 7904   1.328   4.462   5.619
 2484SOL    HW2 7905   1.318   4.586   5.532
 2485SOL     OW 7906   1.054   5.091   6.389
 2485SOL    HW1 7907   1.063   5.000   6.359
 2485SOL    HW2 7908   1.143   5.126   6.385
 2486SOL     OW 7909   0.313   4.530   6.531
 2486SOL    HW1 7910   0.407   4.546   6.530
 2486SOL    HW2 7911   0.304   4.441   6.564
 2487SOL     OW 7912   0.331   4.252   6.604
 2487SOL    HW1 7913   0.296   4.164   6.591
 2487SOL    HW2 7914   0.406   4.257   6.545
 2488SOL     OW 7915   1.135   4.096   7.271
 2488SOL    HW1 7916   1.087   4.150   7.333
 2488SOL    HW2 7917   1.222   4.136   7.266
 2489SOL     OW 7918   1.161   3.920   7.058
 2489SOL    HW1 7919   1.149   3.983   7.129
 2489SOL    HW2 7920   1.203   3.971   6.988
 2490SOL     OW 7921   0.005   5.036   5.788
 2490SOL    HW1 7922   5.235   5.016   5.726
 2490SOL    HW2 7923   0.017   4.954   5.837
 2491SOL     OW 7924   0.970   4.511   6.809
 2491SOL    HW1 7925   1.030   4.492   6.881
 2491SOL    HW2 7926   0.888   4.467   6.834
 2492SOL     OW 7927   0.028   4.296   6.708
 2492SOL    HW1 7928   0.115   4.277   6.672
 2492SOL    HW2 7929   0.035   4.272   6.800
 2493SOL     OW 7930   0.166   4.236   7.306
 2493SOL    HW1 7931   0.224   4.189   7.246
 2493SOL    HW2 7932   0.147   4.318   7.261
 2494SOL     OW 7933   1.381   4.655   7.242
 2494SOL    HW1 7934   1.402   4.748   7.238
 2494SOL    HW2 7935   1.376   4.627   7.151
 2495SOL     OW 7936   0.818   4.294   5.953
 2495SOL    HW1 7937   0.824   4.220   5.893
 2495SOL    HW2 7938   0.743   4.344   5.923
 2496SOL     OW 7939   1.640   4.325   6.764
 2496SOL    HW1 7940   1.630   4.266   6.839
 2496SOL    HW2 7941   1.728   4.307   6.731
 2497SOL     OW 7942   0.203   5.272   7.321
 2497SOL    HW1 7943   0.137   0.001   7.384
 2497SOL    HW2 7944   0.215   5.179   7.341
 2498SOL     OW 7945   0.716   4.168   6.838
 2498SOL    HW1 7946   0.659   4.095   6.814
 2498SOL    HW2 7947   0.706   4.231   6.767
 2499SOL     OW 7948   0.463   4.215   5.761
 2499SOL    HW1 7949   0.524   4.283   5.790
 2499SOL    HW2 7950   0.380   4.261   5.748
 2500SOL     OW 7951   0.147   4.861   7.059
 2500SOL    HW1 7952   0.144   4.816   7.143
 2500SOL    HW2 7953   0.153   4.791   6.994
 2501SOL     OW 7954   1.321   4.764   6.804
 2501SOL    HW1 7955   1.341   4.701   6.734
 2501SOL    HW2 7956   1.255   4.821   6.766
 2502SOL     OW 7957   1.316   4.582   5.888
 2502SOL    HW1 7958   1.243   4.548   5.940
 2502SOL    HW2 7959   1.290   4.567   5.798
 2503SOL     OW 7960   0.071   4.895   6.619
 2503SOL    HW1 7961   0.059   4.943   6.701
 2503SOL    HW2 7962   5.287   4.904   6.573
 2504SOL     OW 7963   0.753   0.026   7.300
 2504SOL    HW1 7964   0.660   0.051   7.306
 2504SOL    HW2 7965   0.780   0.058   7.214
 2505SOL     OW 7966   1.723   3.882   6.090
 2505SOL    HW1 7967   1.793   3.865   6.026
 2505SOL    HW2 7968   1.706   3.796   6.130
 2506SOL     OW 7969   1.278   4.654   6.258
 2506SOL    HW1 7970   1.351   4.593   6.270
 2506SOL    HW2 7971   1.313   4.723   6.202
 2507SOL     OW 7972   0.805   4.992   6.984
 2507SOL    HW1 7973   0.771   5.025   7.067
 2507SOL    HW2 7974   0.730   4.995   6.924
 2508SOL     OW 7975   1.843   3.893   6.551
 2508SOL    HW1 7976   1.872   3.805   6.527
 2508SOL    HW2 7977   1.756   3.902   6.512
 2509SOL     OW 7978   0.275   4.040   6.301
 2509SOL    HW1 7979   0.189   4.078   6.285
 2509SOL    HW2 7980   0.280   4.030   6.396
 2510SOL     OW 7981   0.827   4.724   6.958
 2510SOL    HW1 7982   0.875   4.709   6.877
 2510SOL    HW2 7983   0.827   4.819   6.969
 2511SOL     OW 7984   0.917   4.636   5.878
 2511SOL    HW1 7985   0.977   4.670   5.812
 2511SOL    HW2 7986   0.966   4.568   5.923
 2512SOL     OW 7987   0.365   5.027   7.091
 2512SOL    HW1 7988   0.370   5.094   7.023
 2512SOL    HW2 7989   0.289   4.973   7.066
 2513SOL     OW 7990   1.612   5.006   6.867
 2513SOL    HW1 7991   1.664   4.991   6.946
 2513SOL    HW2 7992   1.548   5.072   6.892
 2514SOL     OW 7993   1.067   4.837   6.306
 2514SOL    HW1 7994   0.992   4.785   6.338
 2514SOL    HW2 7995   1.131   4.771   6.279
 2515SOL     OW 7996   1.025   3.967   6.552
 2515SOL    HW1 7997   1.021   3.921   6.468
 2515SOL    HW2 7998   1.019   3.898   6.618
 2516SOL     OW 7999   1.729   4.115   6.968
 2516SOL    HW1 8000   1.801   4.178   6.967
 2516SOL    HW2 8001   1.758   4.045   6.909
 2517SOL     OW 8002   0.261   5.056   5.884
 2517SOL    HW1 8003   0.170   5.057   5.856
 2517SOL    HW2 8004   0.261   5.100   5.969
 2518SOL     OW 8005   0.122   4.749   7.310
 2518SOL    HW1 8006   0.051   4.703   7.356
 2518SOL    HW2 8007   0.202   4.711   7.346
 2519SOL     OW 8008   0.677   3.918   7.087
 2519SOL    HW1 8009   0.761   3.896   7.046
 2519SOL    HW2 8010   0.699   3.950   7.174
 2520SOL     OW 8011   0.090   4.053   5.622
 2520SOL    HW1 8012   0.001   4.021   5.603
 2520SOL    HW2 8013   0.104   4.123   5.557
 2521SOL     OW 8014   1.425   4.580   6.983
 2521SOL    HW1 8015   1.375   4.640   6.928
 2521SOL    HW2 8016   1.513   4.582   6.946
 2522SOL     OW 8017   0.068   3.865   5.846
 2522SOL    HW1 8018   0.062   3.948   5.799
 2522SOL    HW2 8019   0.147   3.824   5.811
 2523SOL     OW 8020   1.183   5.057   5.711
 2523SOL    HW1 8021   1.092   5.026   5.713
 2523SOL    HW2 8022   1.212   5.052   5.802
 2524SOL     OW 8023   0.621   4.555   7.024
 2524SOL    HW1 8024   0.679   4.629   7.007
 2524SOL    HW2 8025   0.679   4.479   7.030
 2525SOL     OW 8026   0.717   4.281   7.286
 2525SOL    HW1 8027   0.763   4.340   7.346
 2525SOL    HW2 8028   0.736   4.193   7.319
 2526SOL     OW 8029   1.476   4.914   7.215
 2526SOL    HW1 8030   1.464   4.930   7.308
 2526SOL    HW2 8031   1.569   4.932   7.199
 2527SOL     OW 8032   1.663   4.603   6.840
 2527SOL    HW1 8033   1.660   4.518   6.797
 2527SOL    HW2 8034   1.653   4.666   6.770
 2528SOL     OW 8035   1.217   4.044   6.042
 2528SOL    HW1 8036   1.278   3.970   6.037
 2528SOL    HW2 8037   1.246   4.094   6.119
 2529SOL     OW 8038   0.585   4.457   6.259
 2529SOL    HW1 8039   0.625   4.543   6.244
 2529SOL    HW2 8040   0.518   4.450   6.192
 2530SOL     OW 8041   1.754   4.088   7.241
 2530SOL    HW1 8042   1.742   4.104   7.148
 2530SOL    HW2 8043   1.681   4.031   7.265
 2531SOL     OW 8044   1.749   4.656   7.095
 2531SOL    HW1 8045   1.734   4.750   7.107
 2531SOL    HW2 8046   1.731   4.640   7.003
 2532SOL     OW 8047   0.843   5.092   5.608
 2532SOL    HW1 8048   0.831   5.091   5.703
 2532SOL    HW2 8049   0.851   5.185   5.586
 2533SOL     OW 8050   0.872   4.695   6.438
 2533SOL    HW1 8051   0.919   4.621   6.476
 2533SOL    HW2 8052   0.831   4.739   6.512
 2534SOL     OW 8053   1.079   4.715   5.677
 2534SOL    HW1 8054   1.056   4.765   5.599
 2534SOL    HW2 8055   1.151   4.659   5.649
 2535SOL     OW 8056   0.215   5.012   7.440
 2535SOL    HW1 8057   0.161   4.937   7.415
 2535SOL    HW2 8058   0.196   5.025   7.533
 2536SOL     OW 8059   0.092   4.912   6.234
 2536SOL    HW1 8060   0.122   4.896   6.324
 2536SOL    HW2 8061   0.156   4.973   6.198
 2537SOL     OW 8062   0.679   5.092   7.194
 2537SOL    HW1 8063   0.598   5.068   7.240
 2537SOL    HW2 8064   0.714   5.165   7.244
 2538SOL     OW 8065   1.811   3.905   6.822
 2538SOL    HW1 8066   1.817   3.811   6.835
 2538SOL    HW2 8067   1.822   3.917   6.728
 2539SOL     OW 8068   0.440   4.159   6.108
 2539SOL    HW1 8069   0.467   4.085   6.053
 2539SOL    HW2 8070   0.391   4.118   6.180
 2540SOL     OW 8071   1.706   5.227   6.702
 2540SOL    HW1 8072   1.632   5.210   6.644
 2540SOL    HW2 8073   1.712   5.150   6.758
 2541SOL     OW 8074   0.343   4.289   6.880
 2541SOL    HW1 8075   0.396   4.229   6.932
 2541SOL    HW2 8076   0.354   4.258   6.790
 2542SOL     OW 8077   1.429   3.954   6.702
 2542SOL    HW1 8078   1.447   3.870   6.744
 2542SOL    HW2 8079   1.378   4.003   6.768
 2543SOL     OW 8080   1.009   3.741   6.720
 2543SOL    HW1 8081   0.954   3.675   6.678
 2543SOL    HW2 8082   1.096   3.701   6.722
 2544SOL     OW 8083   0.812   5.043   5.873
 2544SOL    HW1 8084   0.763   4.965   5.899
 2544SOL    HW2 8085   0.867   5.063   5.949
 2545SOL     OW 8086   0.643   0.007   6.884
 2545SOL    HW1 8087   0.643   0.062   6.962
 2545SOL    HW2 8088   0.736   5.291   6.867
 2546SOL     OW 8089   1.358   3.775   5.759
 2546SOL    HW1 8090   1.392   3.705   5.704
 2546SOL    HW2 8091   1.269   3.748   5.780
 2547SOL     OW 8092   1.296   4.188   6.263
 2547SOL    HW1 8093   1.244   4.268   6.267
 2547SOL    HW2 8094   1.291   4.152   6.352
 2548SOL     OW 8095   1.584   3.918   6.470
 2548SOL    HW1 8096   1.529   3.943   6.544
 2548SOL    HW2 8097   1.584   3.994   6.412
 2549SOL     OW 8098   0.050   4.785   5.877
 2549SOL    HW1 8099   0.139   4.749   5.868
 2549SOL    HW2 8100   0.001   4.717   5.923
 2550SOL     OW 8101   0.223   4.347   7.572
 2550SOL    HW1 8102   0.157   4.297   7.620
 2550SOL    HW2 8103   0.208   4.325   7.480
 2551SOL     OW 8104   1.774   4.316   7.677
 2551SOL    HW1 8105   1.750   4.313   7.585
 2551SOL    HW2 8106   1.734   4.238   7.715
 2552SOL     OW 8107   0.282   0.134   7.962
 2552SOL    HW1 8108   0.231   0.203   8.005
 2552SOL    HW2 8109   0.283   0.158   7.870
 2553SOL     OW 8110   0.225   5.167   7.992
 2553SOL    HW1 8111   0.249   5.260   7.991
 2553SOL    HW2 8112   0.150   5.162   8.050
 2554SOL     OW 8113   0.574   4.711   7.588
 2554SOL    HW1 8114   0.623   4.753   7.518
 2554SOL    HW2 8115   0.615   4.743   7.668
 2555SOL     OW 8116   5.299   5.292   7.521
 2555SOL    HW1 8117   0.009   5.206   7.562
 2555SOL    HW2 8118   0.022   0.054   7.590
 2556SOL     OW 8119   1.681   4.580   8.025
 2556SOL    HW1 8120   1.756   4.592   0.003
 2556SOL    HW2 8121   1.666   4.667   7.988
 2557SOL     OW 8122   1.663   4.821   7.881
 2557SOL    HW1 8123   1.752   4.838   7.852
 2557SOL    HW2 8124   1.640   4.897   7.935
 2558SOL     OW 8125   0.797   3.725   7.938
 2558SOL    HW1 8126   0.847   3.803   7.917
 2558SOL    HW2 8127   0.707   3.756   7.947
 2559SOL     OW 8128   1.534   4.729   7.652
 2559SOL    HW1 8129   1.466   4.671   7.686
 2559SOL    HW2 8130   1.580   4.759   7.730
 2560SOL     OW 8131   0.587   4.445   7.710
 2560SOL    HW1 8132   0.590   4.530   7.665
 2560SOL    HW2 8133   0.543   4.464   7.793
 2561SOL     OW 8134   0.053   4.545   0.185
 2561SOL    HW1 8135   0.113   4.472   0.170
 2561SOL    HW2 8136   0.045   4.588   0.100
 2562SOL     OW 8137   0.895   4.079   7.645
 2562SOL    HW1 8138   0.931   4.136   7.577
 2562SOL    HW2 8139   0.919   3.990   7.616
 2563SOL     OW 8140   0.310   4.665   7.693
 2563SOL    HW1 8141   0.391   4.693   7.650
 2563SOL    HW2 8142   0.290   4.580   7.655
 2564SOL     OW 8143   1.077   0.188   7.638
 2564SOL    HW1 8144   1.055   0.114   7.696
 2564SOL    HW2 8145   1.071   0.151   7.550
 2565SOL     OW 8146   1.629   5.102   7.554
 2565SOL    HW1 8147   1.625   5.172   7.490
 2565SOL    HW2 8148   1.559   5.041   7.528
 2566SOL     OW 8149   1.422   3.863   7.864
 2566SOL    HW1 8150   1.412   3.826   7.777
 2566SOL    HW2 8151   1.517   3.865   7.879
 2567SOL     OW 8152   0.373   4.425   7.926
 2567SOL    HW1 8153   0.387   4.331   7.936
 2567SOL    HW2 8154   0.279   4.434   7.912
 2568SOL     OW 8155   0.641   3.840   7.556
 2568SOL    HW1 8156   0.703   3.769   7.574
 2568SOL    HW2 8157   0.592   3.809   7.480
 2569SOL     OW 8158   0.522   3.809   7.963
 2569SOL    HW1 8159   0.432   3.813   7.996
 2569SOL    HW2 8160   0.526   3.875   7.895
 2570SOL     OW 8161   1.429   4.929   7.487
 2570SOL    HW1 8162   1.457   4.854   7.539
 2570SOL    HW2 8163   1.340   4.948   7.517
 2571SOL     OW 8164   0.306   3.766   7.620
 2571SOL    HW1 8165   0.365   3.830   7.580
 2571SOL    HW2 8166   0.364   3.707   7.668
 2572SOL     OW 8167   0.944   3.950   7.901
 2572SOL    HW1 8168   0.906   4.012   7.838
 2572SOL    HW2 8169   1.035   3.979   7.912
 2573SOL     OW 8170   0.449   4.884   0.079
 2573SOL    HW1 8171   0.378   4.907   0.139
 2573SOL    HW2 8172   0.405   4.869   8.075
 2574SOL     OW 8173   1.024   4.256   7.471
 2574SOL    HW1 8174   0.978   4.339   7.455
 2574SOL    HW2 8175   1.083   4.275   7.545
 2575SOL     OW 8176   1.876   4.533   7.806
 2575SOL    HW1 8177   1.838   4.525   7.893
 2575SOL    HW2 8178   1.841   4.458   7.758
 2576SOL     OW 8179   0.468   5.152   7.593
 2576SOL    HW1 8180   0.414   5.098   7.652
 2576SOL    HW2 8181   0.489   5.094   7.520
 2577SOL     OW 8182   1.393   4.297   7.518
 2577SOL    HW1 8183   1.331   4.273   7.587
 2577SOL    HW2 8184   1.477   4.263   7.550
 2578SOL     OW 8185   0.527   3.990   7.764
 2578SOL    HW1 8186   0.575   3.943   7.696
 2578SOL    HW2 8187   0.500   4.072   7.722
 2579SOL     OW 8188   0.714   4.790   7.813
 2579SOL    HW1 8189   0.686   4.768   7.902
 2579SOL    HW2 8190   0.791   4.735   7.798
 2580SOL     OW 8191   0.336   4.826   7.918
 2580SOL    HW1 8192   0.322   4.908   7.871
 2580SOL    HW2 8193   0.337   4.759   7.850
 2581SOL     OW 8194   1.225   5.118   7.835
 2581SOL    HW1 8195   1.313   5.118   7.872
 2581SOL    HW2 8196   1.173   5.066   7.896
 2582SOL     OW 8197   1.587   4.345   7.917
 2582SOL    HW1 8198   1.587   4.406   7.990
 2582SOL    HW2 8199   1.615   4.397   7.842
 2583SOL     OW 8200   1.198   4.248   7.709
 2583SOL    HW1 8201   1.199   4.166   7.758
 2583SOL    HW2 8202   1.175   4.314   7.773
 2584SOL     OW 8203   1.624   4.105   7.804
 2584SOL    HW1 8204   1.647   4.038   7.868
 2584SOL    HW2 8205   1.598   4.181   7.856
 2585SOL     OW 8206   1.524   4.000   7.571
 2585SOL    HW1 8207   1.462   3.933   7.598
 2585SOL    HW2 8208   1.559   4.035   7.653
 2586SOL     OW 8209   1.289   4.549   7.477
 2586SOL    HW1 8210   1.330   4.463   7.480
 2586SOL    HW2 8211   1.320   4.587   7.395
 2587SOL     OW 8212   0.008   5.041   7.647
 2587SOL    HW1 8213   5.235   5.023   7.587
 2587SOL    HW2 8214   0.022   4.959   7.694
 2588SOL     OW 8215   0.854   4.351   7.743
 2588SOL    HW1 8216   0.854   4.256   7.729
 2588SOL    HW2 8217   0.761   4.373   7.750
 2589SOL     OW 8218   0.458   4.217   7.630
 2589SOL    HW1 8219   0.520   4.286   7.652
 2589SOL    HW2 8220   0.375   4.262   7.615
 2590SOL     OW 8221   1.315   4.586   7.749
 2590SOL    HW1 8222   1.228   4.594   7.790
 2590SOL    HW2 8223   1.296   4.569   7.656
 2591SOL     OW 8224   1.714   3.878   7.937
 2591SOL    HW1 8225   1.788   3.874   7.876
 2591SOL    HW2 8226   1.722   3.799   7.990
 2592SOL     OW 8227   0.922   4.625   7.759
 2592SOL    HW1 8228   0.975   4.647   7.682
 2592SOL    HW2 8229   0.910   4.530   7.753
 2593SOL     OW 8230   0.263   5.053   7.754
 2593SOL    HW1 8231   0.172   5.062   7.725
 2593SOL    HW2 8232   0.265   5.097   7.839
 2594SOL     OW 8233   0.091   4.046   7.486
 2594SOL    HW1 8234   0.001   4.017   7.471
 2594SOL    HW2 8235   0.104   4.117   7.423
 2595SOL     OW 8236   0.088   3.873   7.745
 2595SOL    HW1 8237   0.076   3.953   7.694
 2595SOL    HW2 8238   0.156   3.825   7.698
 2596SOL     OW 8239   1.177   5.052   7.570
 2596SOL    HW1 8240   1.086   5.025   7.567
 2596SOL    HW2 8241   1.194   5.073   7.662
 2597SOL     OW 8242   1.213   4.043   7.903
 2597SOL    HW1 8243   1.288   3.985   7.892
 2597SOL    HW2 8244   1.230   4.089   7.985
 2598SOL     OW 8245   0.627   4.490   8.023
 2598SOL    HW1 8246   0.629   4.546   0.021
 2598SOL    HW2 8247   0.535   4.467   8.011
 2599SOL     OW 8248   0.848   5.090   7.470
 2599SOL    HW1 8249   0.835   5.092   7.565
 2599SOL    HW2 8250   0.848   5.182   7.444
 2600SOL     OW 8251   1.067   4.695   7.540
 2600SOL    HW1 8252   1.049   4.755   7.467
 2600SOL    HW2 8253   1.145   4.647   7.512
 2601SOL     OW 8254   0.391   4.161   7.984
 2601SOL    HW1 8255   0.431   4.096   7.927
 2601SOL    HW2 8256   0.439   4.154   8.067
 2602SOL     OW 8257   0.812   5.057   7.736
 2602SOL    HW1 8258   0.773   4.974   7.764
 2602SOL    HW2 8259   0.808   5.113   7.813
 2603SOL     OW 8260   1.361   3.774   7.613
 2603SOL    HW1 8261   1.396   3.700   7.563
 2603SOL    HW2 8262   1.272   3.747   7.637
 2604SOL     OW 8263   0.055   4.787   7.726
 2604SOL    HW1 8264   0.142   4.748   7.717
 2604SOL    HW2 8265   0.007   4.726   7.782
 2605SOL     OW 8266   2.065   0.619   0.127
 2605SOL    HW1 8267   1.983   0.590   0.168
 2605SOL    HW2 8268   2.085   0.550   0.064
 2606SOL     OW 8269   2.075   0.288   0.995
 2606SOL    HW1 8270   2.104   0.250   1.078
 2606SOL    HW2 8271   1.995   0.239   0.974
 2607SOL     OW 8272   1.858   0.394   0.637
 2607SOL    HW1 8273   1.774   0.416   0.678
 2607SOL    HW2 8274   1.839   0.316   0.585
 2608SOL     OW 8275   2.431   1.299   1.185
 2608SOL    HW1 8276   2.345   1.304   1.143
 2608SOL    HW2 8277   2.448   1.387   1.217
 2609SOL     OW 8278   3.435   1.516   0.710
 2609SOL    HW1 8279   3.392   1.491   0.792
 2609SOL    HW2 8280   3.365   1.518   0.645
 2610SOL     OW 8281   2.999   0.698   0.697
 2610SOL    HW1 8282   3.044   0.781   0.684
 2610SOL    HW2 8283   2.949   0.710   0.778
 2611SOL     OW 8284   3.639   0.595   0.226
 2611SOL    HW1 8285   3.586   0.608   0.148
 2611SOL    HW2 8286   3.598   0.521   0.271
 2612SOL     OW 8287   2.605   1.136   1.048
 2612SOL    HW1 8288   2.540   1.175   1.107
 2612SOL    HW2 8289   2.645   1.211   1.004
 2613SOL     OW 8290   2.737   0.767   1.826
 2613SOL    HW1 8291   2.727   0.837   1.890
 2613SOL    HW2 8292   2.760   0.812   1.744
 2614SOL     OW 8293   2.545   0.994   0.649
 2614SOL    HW1 8294   2.612   0.987   0.717
 2614SOL    HW2 8295   2.478   1.051   0.687
 2615SOL     OW 8296   2.576   1.149   1.820
 2615SOL    HW1 8297   2.624   1.226   1.851
 2615SOL    HW2 8298   2.497   1.185   1.780
 2616SOL     OW 8299   2.193   1.416   1.067
 2616SOL    HW1 8300   2.119   1.376   1.021
 2616SOL    HW2 8301   2.238   1.467   0.999
 2617SOL     OW 8302   3.321   1.503   1.362
 2617SOL    HW1 8303   3.375   1.581   1.372
 2617SOL    HW2 8304   3.252   1.513   1.428
 2618SOL     OW 8305   2.310   0.394   1.471
 2618SOL    HW1 8306   2.385   0.334   1.479
 2618SOL    HW2 8307   2.235   0.340   1.495
 2619SOL     OW 8308   3.464   0.449   0.742
 2619SOL    HW1 8309   3.385   0.462   0.690
 2619SOL    HW2 8310   3.472   0.529   0.794
 2620SOL     OW 8311   2.084   1.716   0.467
 2620SOL    HW1 8312   2.104   1.791   0.524
 2620SOL    HW2 8313   2.161   1.708   0.411
 2621SOL     OW 8314   3.000   1.343   1.695
 2621SOL    HW1 8315   3.041   1.336   1.781
 2621SOL    HW2 8316   2.948   1.263   1.687
 2622SOL     OW 8317   2.088   1.441   0.522
 2622SOL    HW1 8318   2.074   1.536   0.525
 2622SOL    HW2 8319   2.034   1.406   0.593
 2623SOL     OW 8320   2.130   1.091   0.891
 2623SOL    HW1 8321   2.126   1.003   0.929
 2623SOL    HW2 8322   2.071   1.142   0.947
 2624SOL     OW 8323   2.457   1.794   1.419
 2624SOL    HW1 8324   2.380   1.774   1.472
 2624SOL    HW2 8325   2.485   1.880   1.450
 2625SOL     OW 8326   2.478   0.954   0.148
 2625SOL    HW1 8327   2.424   1.028   0.120
 2625SOL    HW2 8328   2.535   0.990   0.216
 2626SOL     OW 8329   3.449   0.140   1.454
 2626SOL    HW1 8330   3.485   0.220   1.414
 2626SOL    HW2 8331   3.436   0.163   1.546
 2627SOL     OW 8332   1.980   0.654   0.566
 2627SOL    HW1 8333   1.948   0.566   0.587
 2627SOL    HW2 8334   1.971   0.703   0.647
 2628SOL     OW 8335   3.713   1.753   0.323
 2628SOL    HW1 8336   3.781   1.726   0.384
 2628SOL    HW2 8337   3.733   1.845   0.304
 2629SOL     OW 8338   1.904   1.589   0.108
 2629SOL    HW1 8339   1.885   1.503   0.144
 2629SOL    HW2 8340   1.883   1.650   0.179
 2630SOL     OW 8341   3.552   0.920   0.650
 2630SOL    HW1 8342   3.631   0.873   0.623
 2630SOL    HW2 8343   3.529   0.972   0.573
 2631SOL     OW 8344   3.511   1.101   0.435
 2631SOL    HW1 8345   3.594   1.106   0.388
 2631SOL    HW2 8346   3.519   1.165   0.505
 2632SOL     OW 8347   1.987   0.747   1.581
 2632SOL    HW1 8348   2.077   0.779   1.584
 2632SOL    HW2 8349   1.933   0.827   1.584
 2633SOL     OW 8350   2.478   1.393   0.733
 2633SOL    HW1 8351   2.434   1.308   0.742
 2633SOL    HW2 8352   2.463   1.418   0.642
 2634SOL     OW 8353   3.146   1.235   1.420
 2634SOL    HW1 8354   3.176   1.167   1.360
 2634SOL    HW2 8355   3.206   1.230   1.495
 2635SOL     OW 8356   2.682   0.039   0.538
 2635SOL    HW1 8357   2.712   0.123   0.504
 2635SOL    HW2 8358   2.587   0.042   0.528
 2636SOL     OW 8359   2.049   0.961   1.280
 2636SOL    HW1 8360   2.136   0.923   1.265
 2636SOL    HW2 8361   1.991   0.913   1.221
 2637SOL     OW 8362   3.361   1.015   0.218
 2637SOL    HW1 8363   3.299   0.952   0.253
 2637SOL    HW2 8364   3.418   1.037   0.291
 2638SOL     OW 8365   3.046   1.814   1.626
 2638SOL    HW1 8366   3.050   1.875   1.552
 2638SOL    HW2 8367   3.064   1.728   1.587
 2639SOL     OW 8368   2.203   0.279   1.824
 2639SOL    HW1 8369   2.250   0.349   1.868
 2639SOL    HW2 8370   2.114   0.283   1.858
 2640SOL     OW 8371   3.329   1.419   0.945
 2640SOL    HW1 8372   3.263   1.435   1.013
 2640SOL    HW2 8373   3.316   1.328   0.920
 2641SOL     OW 8374   3.515   1.758   0.582
 2641SOL    HW1 8375   3.495   1.724   0.494
 2641SOL    HW2 8376   3.499   1.684   0.640
 2642SOL     OW 8377   2.462   0.709   0.287
 2642SOL    HW1 8378   2.475   0.792   0.241
 2642SOL    HW2 8379   2.396   0.729   0.353
 2643SOL     OW 8380   3.137   0.359   0.934
 2643SOL    HW1 8381   3.047   0.328   0.946
 2643SOL    HW2 8382   3.188   0.306   0.995
 2644SOL     OW 8383   3.450   1.673   0.324
 2644SOL    HW1 8384   3.542   1.696   0.314
 2644SOL    HW2 8385   3.419   1.656   0.235
 2645SOL     OW 8386   2.655   0.619   1.443
 2645SOL    HW1 8387   2.628   0.597   1.532
 2645SOL    HW2 8388   2.620   0.549   1.388
 2646SOL     OW 8389   3.255   0.477   1.678
 2646SOL    HW1 8390   3.259   0.521   1.763
 2646SOL    HW2 8391   3.317   0.404   1.687
 2647SOL     OW 8392   2.812   0.885   1.587
 2647SOL    HW1 8393   2.867   0.818   1.548
 2647SOL    HW2 8394   2.763   0.922   1.513
 2648SOL     OW 8395   2.857   0.415   1.226
 2648SOL    HW1 8396   2.767   0.430   1.255
 2648SOL    HW2 8397   2.848   0.369   1.143
 2649SOL     OW 8398   2.919   0.699   0.428
 2649SOL    HW1 8399   2.938   0.692   0.522
 2649SOL    HW2 8400   2.835   0.655   0.417
 2650SOL     OW 8401   1.950   0.823   0.779
 2650SOL    HW1 8402   2.031   0.815   0.831
 2650SOL    HW2 8403   1.906   0.900   0.815
 2651SOL     OW 8404   1.986   1.874   1.584
 2651SOL    HW1 8405   1.991   1.851   1.677
 2651SOL    HW2 8406   1.902   1.838   1.555
 2652SOL     OW 8407   2.750   0.359   0.206
 2652SOL    HW1 8408   2.794   0.409   0.137
 2652SOL    HW2 8409   2.732   0.274   0.167
 2653SOL     OW 8410   3.563   0.567   1.829
 2653SOL    HW1 8411   3.530   0.642   1.780
 2653SOL    HW2 8412   3.597   0.508   1.763
 2654SOL     OW 8413   3.243   1.142   0.541
 2654SOL    HW1 8414   3.322   1.131   0.487
 2654SOL    HW2 8415   3.189   1.203   0.492
 2655SOL     OW 8416   2.373   0.204   0.877
 2655SOL    HW1 8417   2.396   0.217   0.969
 2655SOL    HW2 8418   2.398   0.287   0.835
 2656SOL     OW 8419   2.858   1.443   0.467
 2656SOL    HW1 8420   2.827   1.519   0.418
 2656SOL    HW2 8421   2.835   1.462   0.558
 2657SOL     OW 8422   2.215   1.813   0.871
 2657SOL    HW1 8423   2.259   1.729   0.876
 2657SOL    HW2 8424   2.285   1.877   0.887
 2658SOL     OW 8425   3.664   1.051   0.874
 2658SOL    HW1 8426   3.613   1.030   0.796
 2658SOL    HW2 8427   3.599   1.058   0.944
 2659SOL     OW 8428   3.088   1.541   1.513
 2659SOL    HW1 8429   3.077   1.469   1.575
 2659SOL    HW2 8430   3.020   1.526   1.447
 2660SOL     OW 8431   2.172   0.947   0.266
 2660SOL    HW1 8432   2.233   0.990   0.206
 2660SOL    HW2 8433   2.188   0.853   0.254
 2661SOL     OW 8434   3.344   0.752   0.723
 2661SOL    HW1 8435   3.340   0.713   0.810
 2661SOL    HW2 8436   3.422   0.808   0.724
 2662SOL     OW 8437   2.333   1.269   1.738
 2662SOL    HW1 8438   2.307   1.273   1.646
 2662SOL    HW2 8439   2.250   1.265   1.786
 2663SOL     OW 8440   2.968   1.782   0.218
 2663SOL    HW1 8441   2.908   1.740   0.281
 2663SOL    HW2 8442   2.994   1.711   0.160
 2664SOL     OW 8443   2.061   0.276   1.511
 2664SOL    HW1 8444   1.982   0.330   1.516
 2664SOL    HW2 8445   2.058   0.222   1.590
 2665SOL     OW 8446   3.498   1.371   0.084
 2665SOL    HW1 8447   3.456   1.457   0.086
 2665SOL    HW2 8448   3.427   1.310   0.065
 2666SOL     OW 8449   2.326   1.735   0.323
 2666SOL    HW1 8450   2.371   1.794   0.383
 2666SOL    HW2 8451   2.394   1.704   0.263
 2667SOL     OW 8452   3.286   0.104   0.447
 2667SOL    HW1 8453   3.285   0.083   0.353
 2667SOL    HW2 8454   3.377   0.127   0.466
 2668SOL     OW 8455   2.119   1.790   1.228
 2668SOL    HW1 8456   2.168   1.720   1.270
 2668SOL    HW2 8457   2.111   1.762   1.136
 2669SOL     OW 8458   2.802   1.699   0.895
 2669SOL    HW1 8459   2.882   1.651   0.917
 2669SOL    HW2 8460   2.761   1.648   0.825
 2670SOL     OW 8461   2.249   0.699   0.472
 2670SOL    HW1 8462   2.270   0.606   0.486
 2670SOL    HW2 8463   2.157   0.707   0.497
 2671SOL     OW 8464   3.392   0.228   1.719
 2671SOL    HW1 8465   3.401   0.244   1.813
 2671SOL    HW2 8466   3.315   0.172   1.711
 2672SOL     OW 8467   2.490   0.140   0.123
 2672SOL    HW1 8468   2.582   0.115   0.130
 2672SOL    HW2 8469   2.460   0.104   0.040
 2673SOL     OW 8470   2.634   0.311   1.772
 2673SOL    HW1 8471   2.698   0.240   1.771
 2673SOL    HW2 8472   2.587   0.300   1.855
 2674SOL     OW 8473   2.737   1.523   1.195
 2674SOL    HW1 8474   2.720   1.485   1.109
 2674SOL    HW2 8475   2.806   1.469   1.232
 2675SOL     OW 8476   3.200   0.590   1.433
 2675SOL    HW1 8477   3.231   0.559   1.518
 2675SOL    HW2 8478   3.237   0.677   1.424
 2676SOL     OW 8479   2.680   1.388   0.947
 2676SOL    HW1 8480   2.766   1.377   0.906
 2676SOL    HW2 8481   2.619   1.396   0.875
 2677SOL     OW 8482   2.790   0.512   0.899
 2677SOL    HW1 8483   2.765   0.503   0.808
 2677SOL    HW2 8484   2.817   0.425   0.926
 2678SOL     OW 8485   2.411   0.060   0.508
 2678SOL    HW1 8486   2.327   0.053   0.553
 2678SOL    HW2 8487   2.397   0.128   0.442
 2679SOL     OW 8488   3.293   1.202   0.033
 2679SOL    HW1 8489   3.315   1.129   0.092
 2679SOL    HW2 8490   3.206   1.230   0.062
 2680SOL     OW 8491   2.165   0.079   0.209
 2680SOL    HW1 8492   2.228   0.150   0.205
 2680SOL    HW2 8493   2.215   0.001   0.185
 2681SOL     OW 8494   2.811   0.266   0.455
 2681SOL    HW1 8495   2.785   0.307   0.373
 2681SOL    HW2 8496   2.904   0.288   0.465
 2682SOL     OW 8497   2.943   0.687   1.456
 2682SOL    HW1 8498   2.878   0.617   1.459
 2682SOL    HW2 8499   3.027   0.641   1.450
 2683SOL     OW 8500   3.079   1.574   0.797
 2683SOL    HW1 8501   3.094   1.638   0.727
 2683SOL    HW2 8502   3.150   1.589   0.859
 2684SOL     OW 8503   2.334   1.156   0.726
 2684SOL    HW1 8504   2.269   1.134   0.793
 2684SOL    HW2 8505   2.290   1.143   0.643
 2685SOL     OW 8506   3.125   1.792   0.613
 2685SOL    HW1 8507   3.177   1.856   0.564
 2685SOL    HW2 8508   3.055   1.844   0.653
 2686SOL     OW 8509   2.892   0.519   0.036
 2686SOL    HW1 8510   2.858   0.605   0.009
 2686SOL    HW2 8511   2.957   0.539   0.104
 2687SOL     OW 8512   1.946   0.552   1.393
 2687SOL    HW1 8513   2.038   0.553   1.366
 2687SOL    HW2 8514   1.940   0.622   1.458
 2688SOL     OW 8515   2.411   0.238   1.159
 2688SOL    HW1 8516   2.446   0.155   1.190
 2688SOL    HW2 8517   2.320   0.239   1.187
 2689SOL     OW 8518   2.727   0.462   0.640
 2689SOL    HW1 8519   2.687   0.518   0.573
 2689SOL    HW2 8520   2.751   0.382   0.593
 2690SOL     OW 8521   2.839   0.064   0.768
 2690SOL    HW1 8522   2.778   0.064   0.695
 2690SOL    HW2 8523   2.853   5.272   0.788
 2691SOL     OW 8524   3.301   1.160   0.856
 2691SOL    HW1 8525   3.230   1.096   0.857
 2691SOL    HW2 8526   3.325   1.168   0.763
 2692SOL     OW 8527   3.327   0.613   0.968
 2692SOL    HW1 8528   3.272   0.535   0.971
 2692SOL    HW2 8529   3.386   0.604   1.043
 2693SOL     OW 8530   3.707   0.809   0.389
 2693SOL    HW1 8531   3.761   0.758   0.449
 2693SOL    HW2 8532   3.680   0.746   0.322
 2694SOL     OW 8533   2.348   1.439   0.174
 2694SOL    HW1 8534   2.272   1.402   0.219
 2694SOL    HW2 8535   2.361   1.382   0.098
 2695SOL     OW 8536   3.542   1.266   0.643
 2695SOL    HW1 8537   3.637   1.265   0.658
 2695SOL    HW2 8538   3.515   1.355   0.665
 2696SOL     OW 8539   3.259   0.571   0.088
 2696SOL    HW1 8540   3.195   0.556   0.158
 2696SOL    HW2 8541   3.308   0.489   0.083
 2697SOL     OW 8542   2.377   0.269   0.325
 2697SOL    HW1 8543   2.426   0.218   0.261
 2697SOL    HW2 8544   2.360   0.353   0.281
 2698SOL     OW 8545   3.609   1.243   1.559
 2698SOL    HW1 8546   3.697   1.204   1.552
 2698SOL    HW2 8547   3.625   1.332   1.590
 2699SOL     OW 8548   2.916   1.354   1.332
 2699SOL    HW1 8549   2.840   1.322   1.381
 2699SOL    HW2 8550   2.991   1.312   1.373
 2700SOL     OW 8551   3.471   1.628   1.659
 2700SOL    HW1 8552   3.463   1.663   1.570
 2700SOL    HW2 8553   3.553   1.578   1.658
 2701SOL     OW 8554   2.999   1.213   1.102
 2701SOL    HW1 8555   2.938   1.250   1.166
 2701SOL    HW2 8556   2.969   1.247   1.018
 2702SOL     OW 8557   3.484   1.095   1.075
 2702SOL    HW1 8558   3.477   1.158   1.147
 2702SOL    HW2 8559   3.408   1.114   1.019
 2703SOL     OW 8560   2.761   0.110   1.377
 2703SOL    HW1 8561   2.792   0.076   1.294
 2703SOL    HW2 8562   2.838   0.151   1.417
 2704SOL     OW 8563   2.846   1.116   1.723
 2704SOL    HW1 8564   2.755   1.132   1.748
 2704SOL    HW2 8565   2.842   1.037   1.669
 2705SOL     OW 8566   2.585   1.067   0.384
 2705SOL    HW1 8567   2.564   1.043   0.474
 2705SOL    HW2 8568   2.662   1.015   0.362
 2706SOL     OW 8569   2.284   0.821   1.252
 2706SOL    HW1 8570   2.352   0.830   1.319
 2706SOL    HW2 8571   2.249   0.733   1.265
 2707SOL     OW 8572   3.125   0.375   1.280
 2707SOL    HW1 8573   3.159   0.452   1.325
 2707SOL    HW2 8574   3.035   0.398   1.255
 2708SOL     OW 8575   1.938   1.574   1.358
 2708SOL    HW1 8576   1.910   1.645   1.300
 2708SOL    HW2 8577   2.033   1.571   1.349
 2709SOL     OW 8578   2.194   1.117   0.492
 2709SOL    HW1 8579   2.198   1.187   0.428
 2709SOL    HW2 8580   2.201   1.037   0.440
 2710SOL     OW 8581   2.410   0.529   0.859
 2710SOL    HW1 8582   2.423   0.589   0.785
 2710SOL    HW2 8583   2.477   0.555   0.923
 2711SOL     OW 8584   3.107   1.347   0.397
 2711SOL    HW1 8585   3.162   1.419   0.427
 2711SOL    HW2 8586   3.019   1.370   0.427
 2712SOL     OW 8587   3.153   1.461   1.148
 2712SOL    HW1 8588   3.208   1.466   1.227
 2712SOL    HW2 8589   3.099   1.384   1.162
 2713SOL     OW 8590   3.436   0.623   0.487
 2713SOL    HW1 8591   3.387   0.665   0.557
 2713SOL    HW2 8592   3.463   0.695   0.430
 2714SOL     OW 8593   2.207   1.530   1.309
 2714SOL    HW1 8594   2.196   1.485   1.225
 2714SOL    HW2 8595   2.302   1.541   1.318
 2715SOL     OW 8596   2.282   0.745   1.605
 2715SOL    HW1 8597   2.344   0.789   1.547
 2715SOL    HW2 8598   2.323   0.661   1.625
 2716SOL     OW 8599   3.473   0.781   1.687
 2716SOL    HW1 8600   3.387   0.823   1.682
 2716SOL    HW2 8601   3.524   0.823   1.619
 2717SOL     OW 8602   2.925   0.121   1.792
 2717SOL    HW1 8603   2.952   0.201   1.747
 2717SOL    HW2 8604   2.926   0.054   1.723
 2718SOL     OW 8605   2.346   0.063   1.738
 2718SOL    HW1 8606   2.280   5.298   1.714
 2718SOL    HW2 8607   2.296   0.142   1.759
 2719SOL     OW 8608   2.447   0.875   1.032
 2719SOL    HW1 8609   2.482   0.964   1.036
 2719SOL    HW2 8610   2.391   0.868   1.109
 2720SOL     OW 8611   3.206   0.859   1.020
 2720SOL    HW1 8612   3.120   0.843   0.981
 2720SOL    HW2 8613   3.253   0.776   1.010
 2721SOL     OW 8614   3.058   0.524   0.268
 2721SOL    HW1 8615   3.071   0.448   0.323
 2721SOL    HW2 8616   3.017   0.589   0.325
 2722SOL     OW 8617   2.152   0.201   1.251
 2722SOL    HW1 8618   2.112   0.239   1.330
 2722SOL    HW2 8619   2.158   0.107   1.271
 2723SOL     OW 8620   1.909   1.312   1.273
 2723SOL    HW1 8621   1.940   1.256   1.344
 2723SOL    HW2 8622   1.914   1.401   1.309
 2724SOL     OW 8623   2.583   0.630   1.053
 2724SOL    HW1 8624   2.659   0.617   0.997
 2724SOL    HW2 8625   2.553   0.719   1.034
 2725SOL     OW 8626   3.602   0.959   1.860
 2725SOL    HW1 8627   3.560   0.892   1.808
 2725SOL    HW2 8628   3.541   0.978   1.931
 2726SOL     OW 8629   2.184   0.066   0.669
 2726SOL    HW1 8630   2.147   0.155   0.666
 2726SOL    HW2 8631   2.243   0.068   0.744
 2727SOL     OW 8632   3.496   0.388   0.360
 2727SOL    HW1 8633   3.517   0.317   0.421
 2727SOL    HW2 8634   3.467   0.460   0.416
 2728SOL     OW 8635   2.892   0.759   0.958
 2728SOL    HW1 8636   2.882   0.775   1.052
 2728SOL    HW2 8637   2.864   0.668   0.947
 2729SOL     OW 8638   2.843   1.567   1.722
 2729SOL    HW1 8639   2.826   1.610   1.639
 2729SOL    HW2 8640   2.886   1.485   1.699
 2730SOL     OW 8641   3.712   1.500   1.604
 2730SOL    HW1 8642   3.735   1.528   1.515
 2730SOL    HW2 8643   3.792   1.513   1.654
 2731SOL     OW 8644   2.213   0.918   1.809
 2731SOL    HW1 8645   2.293   0.936   1.859
 2731SOL    HW2 8646   2.240   0.854   1.743
 2732SOL     OW 8647   3.376   0.321   0.124
 2732SOL    HW1 8648   3.348   0.229   0.133
 2732SOL    HW2 8649   3.420   0.340   0.206
 2733SOL     OW 8650   3.161   0.818   0.021
 2733SOL    HW1 8651   3.197   0.730   0.035
 2733SOL    HW2 8652   3.227   0.861   8.047
 2734SOL     OW 8653   2.931   1.340   0.858
 2734SOL    HW1 8654   2.937   1.268   0.796
 2734SOL    HW2 8655   2.988   1.408   0.822
 2735SOL     OW 8656   2.171   0.809   0.945
 2735SOL    HW1 8657   2.265   0.828   0.940
 2735SOL    HW2 8658   2.168   0.718   0.976
 2736SOL     OW 8659   2.189   0.530   1.012
 2736SOL    HW1 8660   2.151   0.443   1.000
 2736SOL    HW2 8661   2.266   0.531   0.956
 2737SOL     OW 8662   2.998   0.375   1.692
 2737SOL    HW1 8663   2.949   0.429   1.755
 2737SOL    HW2 8664   3.084   0.416   1.687
 2738SOL     OW 8665   2.989   0.218   1.470
 2738SOL    HW1 8666   2.992   0.278   1.544
 2738SOL    HW2 8667   3.045   0.259   1.404
 2739SOL     OW 8668   1.879   1.316   0.184
 2739SOL    HW1 8669   1.792   1.331   0.147
 2739SOL    HW2 8670   1.874   1.227   0.221
 2740SOL     OW 8671   1.952   1.781   0.942
 2740SOL    HW1 8672   1.921   1.703   0.895
 2740SOL    HW2 8673   2.041   1.794   0.910
 2741SOL     OW 8674   2.352   1.574   0.903
 2741SOL    HW1 8675   2.422   1.635   0.928
 2741SOL    HW2 8676   2.396   1.512   0.845
 2742SOL     OW 8677   2.833   0.787   1.223
 2742SOL    HW1 8678   2.893   0.770   1.295
 2742SOL    HW2 8679   2.751   0.746   1.250
 2743SOL     OW 8680   1.898   0.550   1.117
 2743SOL    HW1 8681   1.977   0.537   1.064
 2743SOL    HW2 8682   1.929   0.551   1.207
 2744SOL     OW 8683   2.043   0.529   1.734
 2744SOL    HW1 8684   2.111   0.489   1.679
 2744SOL    HW2 8685   2.013   0.604   1.684
 2745SOL     OW 8686   3.244   0.932   1.656
 2745SOL    HW1 8687   3.265   1.025   1.652
 2745SOL    HW2 8688   3.239   0.904   1.565
 2746SOL     OW 8689   2.683   0.571   0.377
 2746SOL    HW1 8690   2.692   0.500   0.313
 2746SOL    HW2 8691   2.607   0.620   0.347
 2747SOL     OW 8692   3.502   0.601   1.179
 2747SOL    HW1 8693   3.492   0.542   1.253
 2747SOL    HW2 8694   3.590   0.583   1.146
 2748SOL     OW 8695   2.098   1.548   1.722
 2748SOL    HW1 8696   2.079   1.612   1.791
 2748SOL    HW2 8697   2.107   1.465   1.768
 2749SOL     OW 8698   2.576   0.444   1.251
 2749SOL    HW1 8699   2.517   0.374   1.223
 2749SOL    HW2 8700   2.569   0.510   1.181
 2750SOL     OW 8701   2.782   1.679   1.472
 2750SOL    HW1 8702   2.759   1.639   1.389
 2750SOL    HW2 8703   2.777   1.773   1.456
 2751SOL     OW 8704   2.326   0.495   0.174
 2751SOL    HW1 8705   2.395   0.558   0.195
 2751SOL    HW2 8706   2.244   0.542   0.191
 2752SOL     OW 8707   2.002   1.144   1.474
 2752SOL    HW1 8708   2.005   1.097   1.558
 2752SOL    HW2 8709   2.019   1.076   1.409
 2753SOL     OW 8710   3.181   1.043   1.219
 2753SOL    HW1 8711   3.202   0.979   1.150
 2753SOL    HW2 8712   3.116   1.101   1.179
 2754SOL     OW 8713   3.167   0.845   0.309
 2754SOL    HW1 8714   3.091   0.813   0.357
 2754SOL    HW2 8715   3.145   0.831   0.217
 2755SOL     OW 8716   3.642   1.735   1.158
 2755SOL    HW1 8717   3.702   1.761   1.088
 2755SOL    HW2 8718   3.614   1.647   1.134
 2756SOL     OW 8719   3.102   1.732   1.103
 2756SOL    HW1 8720   3.185   1.757   1.063
 2756SOL    HW2 8721   3.112   1.639   1.125
 2757SOL     OW 8722   1.950   1.266   1.009
 2757SOL    HW1 8723   1.932   1.280   1.102
 2757SOL    HW2 8724   1.878   1.210   0.979
 2758SOL     OW 8725   2.540   1.672   1.740
 2758SOL    HW1 8726   2.483   1.749   1.736
 2758SOL    HW2 8727   2.611   1.692   1.680
 2759SOL     OW 8728   2.755   0.084   0.136
 2759SOL    HW1 8729   2.812   0.069   0.060
 2759SOL    HW2 8730   2.761   0.002   0.186
 2760SOL     OW 8731   3.572   0.156   0.499
 2760SOL    HW1 8732   3.645   0.135   0.441
 2760SOL    HW2 8733   3.569   0.083   0.561
 2761SOL     OW 8734   3.255   1.568   0.494
 2761SOL    HW1 8735   3.316   1.601   0.429
 2761SOL    HW2 8736   3.205   1.644   0.522
 2762SOL     OW 8737   2.003   1.797   1.843
 2762SOL    HW1 8738   1.953   1.730   1.889
 2762SOL    HW2 8739   2.051   1.843   1.912
 2763SOL     OW 8740   3.139   0.929   0.672
 2763SOL    HW1 8741   3.213   0.869   0.682
 2763SOL    HW2 8742   3.173   1.000   0.618
 2764SOL     OW 8743   2.665   1.277   1.423
 2764SOL    HW1 8744   2.638   1.319   1.505
 2764SOL    HW2 8745   2.594   1.296   1.362
 2765SOL     OW 8746   2.536   1.628   0.157
 2765SOL    HW1 8747   2.547   1.636   0.062
 2765SOL    HW2 8748   2.477   1.554   0.169
 2766SOL     OW 8749   3.480   1.728   1.392
 2766SOL    HW1 8750   3.535   1.732   1.313
 2766SOL    HW2 8751   3.466   1.820   1.416
 2767SOL     OW 8752   3.710   0.145   0.954
 2767SOL    HW1 8753   3.696   0.051   0.970
 2767SOL    HW2 8754   3.626   0.176   0.921
 2768SOL     OW 8755   2.115   0.327   0.715
 2768SOL    HW1 8756   2.027   0.359   0.696
 2768SOL    HW2 8757   2.117   0.318   0.811
 2769SOL     OW 8758   3.029   1.577   0.052
 2769SOL    HW1 8759   3.034   1.485   0.078
 2769SOL    HW2 8760   3.040   1.575   8.037
 2770SOL     OW 8761   2.685   1.007   1.376
 2770SOL    HW1 8762   2.729   1.000   1.291
 2770SOL    HW2 8763   2.682   1.102   1.393
 2771SOL     OW 8764   2.788   0.916   0.303
 2771SOL    HW1 8765   2.838   0.936   0.225
 2771SOL    HW2 8766   2.835   0.844   0.344
 2772SOL     OW 8767   3.369   1.619   0.064
 2772SOL    HW1 8768   3.275   1.620   0.052
 2772SOL    HW2 8769   3.405   1.629   8.056
 2773SOL     OW 8770   2.228   1.306   1.493
 2773SOL    HW1 8771   2.216   1.381   1.436
 2773SOL    HW2 8772   2.151   1.251   1.477
 2774SOL     OW 8773   3.469   1.285   1.279
 2774SOL    HW1 8774   3.528   1.267   1.353
 2774SOL    HW2 8775   3.409   1.352   1.312
 2775SOL     OW 8776   2.924   1.112   0.713
 2775SOL    HW1 8777   2.851   1.061   0.749
 2775SOL    HW2 8778   2.988   1.046   0.685
 2776SOL     OW 8779   2.878   0.247   0.973
 2776SOL    HW1 8780   2.859   0.202   0.891
 2776SOL    HW2 8781   2.874   0.178   1.040
 2777SOL     OW 8782   2.469   1.483   0.475
 2777SOL    HW1 8783   2.518   1.434   0.410
 2777SOL    HW2 8784   2.396   1.521   0.426
 2778SOL     OW 8785   3.594   0.384   1.377
 2778SOL    HW1 8786   3.665   0.448   1.376
 2778SOL    HW2 8787   3.622   0.315   1.318
 2779SOL     OW 8788   2.132   1.316   0.289
 2779SOL    HW1 8789   2.046   1.322   0.248
 2779SOL    HW2 8790   2.122   1.362   0.373
 2780SOL     OW 8791   1.977   1.035   1.726
 2780SOL    HW1 8792   1.901   1.007   1.777
 2780SOL    HW2 8793   2.051   0.991   1.768
 2781SOL     OW 8794   2.536   0.219   1.495
 2781SOL    HW1 8795   2.617   0.205   1.447
 2781SOL    HW2 8796   2.563   0.267   1.574
 2782SOL     OW 8797   1.931   0.360   0.029
 2782SOL    HW1 8798   1.862   0.294   0.031
 2782SOL    HW2 8799   1.936   0.388   8.017
 2783SOL     OW 8800   3.286   0.857   1.396
 2783SOL    HW1 8801   3.236   0.918   1.342
 2783SOL    HW2 8802   3.375   0.860   1.360
 2784SOL     OW 8803   1.926   0.164   0.312
 2784SOL    HW1 8804   1.937   0.254   0.282
 2784SOL    HW2 8805   2.011   0.122   0.294
 2785SOL     OW 8806   3.045   1.310   0.121
 2785SOL    HW1 8807   2.950   1.306   0.114
 2785SOL    HW2 8808   3.063   1.310   0.215
 2786SOL     OW 8809   2.483   0.831   1.435
 2786SOL    HW1 8810   2.540   0.907   1.421
 2786SOL    HW2 8811   2.543   0.757   1.441
 2787SOL     OW 8812   3.345   1.786   0.983
 2787SOL    HW1 8813   3.368   1.854   0.920
 2787SOL    HW2 8814   3.429   1.757   1.019
 2788SOL     OW 8815   2.577   0.572   1.697
 2788SOL    HW1 8816   2.622   0.633   1.755
 2788SOL    HW2 8817   2.598   0.486   1.731
 2789SOL     OW 8818   3.336   1.193   1.628
 2789SOL    HW1 8819   3.324   1.209   1.721
 2789SOL    HW2 8820   3.428   1.213   1.611
 2790SOL     OW 8821   2.229   1.740   1.563
 2790SOL    HW1 8822   2.147   1.786   1.550
 2790SOL    HW2 8823   2.204   1.657   1.605
 2791SOL     OW 8824   3.525   0.879   1.255
 2791SOL    HW1 8825   3.522   0.794   1.212
 2791SOL    HW2 8826   3.515   0.943   1.184
 2792SOL     OW 8827   3.080   0.327   0.472
 2792SOL    HW1 8828   3.138   0.252   0.459
 2792SOL    HW2 8829   3.118   0.375   0.545
 2793SOL     OW 8830   2.444   0.733   0.675
 2793SOL    HW1 8831   2.485   0.818   0.661
 2793SOL    HW2 8832   2.379   0.727   0.605
 2794SOL     OW 8833   3.624   0.362   1.650
 2794SOL    HW1 8834   3.608   0.378   1.557
 2794SOL    HW2 8835   3.551   0.308   1.678
 2795SOL     OW 8836   3.611   0.933   1.510
 2795SOL    HW1 8837   3.599   1.028   1.523
 2795SOL    HW2 8838   3.592   0.919   1.418
 2796SOL     OW 8839   2.770   1.367   0.058
 2796SOL    HW1 8840   2.709   1.354   0.131
 2796SOL    HW2 8841   2.736   1.443   0.012
 2797SOL     OW 8842   2.527   1.779   0.938
 2797SOL    HW1 8843   2.510   1.871   0.917
 2797SOL    HW2 8844   2.622   1.771   0.933
 2798SOL     OW 8845   2.732   0.971   0.855
 2798SOL    HW1 8846   2.782   0.899   0.892
 2798SOL    HW2 8847   2.693   1.014   0.931
 2799SOL     OW 8848   2.940   0.967   0.085
 2799SOL    HW1 8849   2.927   1.032   0.015
 2799SOL    HW2 8850   3.017   0.917   0.057
 2800SOL     OW 8851   3.708   1.553   0.841
 2800SOL    HW1 8852   3.628   1.541   0.790
 2800SOL    HW2 8853   3.700   1.490   0.913
 2801SOL     OW 8854   2.088   1.297   1.852
 2801SOL    HW1 8855   2.028   1.230   1.818
 2801SOL    HW2 8856   2.061   1.310   1.943
 2802SOL     OW 8857   1.955   1.228   0.666
 2802SOL    HW1 8858   1.964   1.183   0.750
 2802SOL    HW2 8859   2.023   1.190   0.611
 2803SOL     OW 8860   2.547   1.410   1.631
 2803SOL    HW1 8861   2.469   1.367   1.666
 2803SOL    HW2 8862   2.545   1.498   1.668
 2804SOL     OW 8863   3.664   0.172   1.227
 2804SOL    HW1 8864   3.627   0.084   1.222
 2804SOL    HW2 8865   3.696   0.190   1.138
 2805SOL     OW 8866   2.286   0.440   0.526
 2805SOL    HW1 8867   2.323   0.368   0.475
 2805SOL    HW2 8868   2.237   0.397   0.596
 2806SOL     OW 8869   3.559   1.485   1.090
 2806SOL    HW1 8870   3.479   1.465   1.040
 2806SOL    HW2 8871   3.563   1.416   1.156
 2807SOL     OW 8872   2.196   0.563   1.291
 2807SOL    HW1 8873   2.250   0.505   1.345
 2807SOL    HW2 8874   2.213   0.534   1.201
 2808SOL     OW 8875   2.693   1.578   0.675
 2808SOL    HW1 8876   2.672   1.639   0.605
 2808SOL    HW2 8877   2.619   1.518   0.678
 2809SOL     OW 8878   3.287   0.223   1.116
 2809SOL    HW1 8879   3.322   0.146   1.162
 2809SOL    HW2 8880   3.238   0.271   1.183
 2810SOL     OW 8881   2.864   0.018   1.133
 2810SOL    HW1 8882   2.813   5.251   1.087
 2810SOL    HW2 8883   2.948   5.276   1.150
 2811SOL     OW 8884   2.639   1.328   0.312
 2811SOL    HW1 8885   2.612   1.238   0.330
 2811SOL    HW2 8886   2.719   1.339   0.363
 2812SOL     OW 8887   2.481   1.556   1.286
 2812SOL    HW1 8888   2.480   1.639   1.333
 2812SOL    HW2 8889   2.570   1.549   1.251
 2813SOL     OW 8890   3.267   0.060   0.164
 2813SOL    HW1 8891   3.251   0.033   0.073
 2813SOL    HW2 8892   3.183   0.092   0.195
 2814SOL     OW 8893   3.172   0.470   0.687
 2814SOL    HW1 8894   3.117   0.548   0.687
 2814SOL    HW2 8895   3.158   0.430   0.773
 2815SOL     OW 8896   3.458   0.214   0.887
 2815SOL    HW1 8897   3.395   0.227   0.958
 2815SOL    HW2 8898   3.451   0.293   0.833
 2816SOL     OW 8899   1.907   1.061   0.309
 2816SOL    HW1 8900   2.003   1.057   0.312
 2816SOL    HW2 8901   1.878   0.976   0.342
 2817SOL     OW 8902   2.747   1.663   0.347
 2817SOL    HW1 8903   2.676   1.649   0.284
 2817SOL    HW2 8904   2.717   1.738   0.399
 2818SOL     OW 8905   2.081   0.627   1.993
 2818SOL    HW1 8906   1.993   0.620   2.031
 2818SOL    HW2 8907   2.069   0.604   1.901
 2819SOL     OW 8908   2.075   0.288   2.857
 2819SOL    HW1 8909   2.104   0.250   2.940
 2819SOL    HW2 8910   1.995   0.240   2.835
 2820SOL     OW 8911   1.859   0.395   2.499
 2820SOL    HW1 8912   1.775   0.415   2.540
 2820SOL    HW2 8913   1.841   0.319   2.443
 2821SOL     OW 8914   2.431   1.299   3.048
 2821SOL    HW1 8915   2.346   1.304   3.004
 2821SOL    HW2 8916   2.448   1.388   3.078
 2822SOL     OW 8917   3.435   1.515   2.571
 2822SOL    HW1 8918   3.391   1.490   2.652
 2822SOL    HW2 8919   3.365   1.518   2.505
 2823SOL     OW 8920   2.997   0.698   2.557
 2823SOL    HW1 8921   3.044   0.781   2.545
 2823SOL    HW2 8922   2.948   0.710   2.639
 2824SOL     OW 8923   3.639   0.599   2.086
 2824SOL    HW1 8924   3.613   0.593   1.994
 2824SOL    HW2 8925   3.600   0.522   2.127
 2825SOL     OW 8926   2.606   1.137   2.910
 2825SOL    HW1 8927   2.541   1.175   2.969
 2825SOL    HW2 8928   2.645   1.212   2.866
 2826SOL     OW 8929   2.737   0.767   3.688
 2826SOL    HW1 8930   2.727   0.837   3.752
 2826SOL    HW2 8931   2.760   0.811   3.606
 2827SOL     OW 8932   2.548   0.996   2.505
 2827SOL    HW1 8933   2.614   0.989   2.574
 2827SOL    HW2 8934   2.479   1.051   2.543
 2828SOL     OW 8935   2.575   1.148   3.682
 2828SOL    HW1 8936   2.622   1.225   3.713
 2828SOL    HW2 8937   2.495   1.183   3.642
 2829SOL     OW 8938   2.194   1.416   2.928
 2829SOL    HW1 8939   2.119   1.375   2.883
 2829SOL    HW2 8940   2.238   1.467   2.861
 2830SOL     OW 8941   3.322   1.502   3.223
 2830SOL    HW1 8942   3.376   1.580   3.233
 2830SOL    HW2 8943   3.255   1.511   3.291
 2831SOL     OW 8944   2.310   0.394   3.333
 2831SOL    HW1 8945   2.385   0.335   3.341
 2831SOL    HW2 8946   2.235   0.340   3.358
 2832SOL     OW 8947   3.465   0.449   2.603
 2832SOL    HW1 8948   3.390   0.464   2.545
 2832SOL    HW2 8949   3.472   0.529   2.655
 2833SOL     OW 8950   2.082   1.717   2.330
 2833SOL    HW1 8951   2.104   1.792   2.386
 2833SOL    HW2 8952   2.158   1.706   2.273
 2834SOL     OW 8953   3.001   1.341   3.558
 2834SOL    HW1 8954   3.043   1.333   3.644
 2834SOL    HW2 8955   2.949   1.261   3.550
 2835SOL     OW 8956   2.094   1.445   2.398
 2835SOL    HW1 8957   2.076   1.539   2.399
 2835SOL    HW2 8958   2.036   1.408   2.465
 2836SOL     OW 8959   2.130   1.091   2.753
 2836SOL    HW1 8960   2.126   1.002   2.790
 2836SOL    HW2 8961   2.071   1.142   2.809
 2837SOL     OW 8962   2.467   1.797   3.286
 2837SOL    HW1 8963   2.383   1.782   3.329
 2837SOL    HW2 8964   2.491   1.886   3.310
 2838SOL     OW 8965   2.438   0.986   2.003
 2838SOL    HW1 8966   2.488   1.030   1.934
 2838SOL    HW2 8967   2.478   1.017   2.084
 2839SOL     OW 8968   3.449   0.140   3.316
 2839SOL    HW1 8969   3.485   0.220   3.276
 2839SOL    HW2 8970   3.436   0.163   3.408
 2840SOL     OW 8971   1.980   0.658   2.423
 2840SOL    HW1 8972   1.951   0.569   2.444
 2840SOL    HW2 8973   1.972   0.706   2.505
 2841SOL     OW 8974   3.706   1.753   2.192
 2841SOL    HW1 8975   3.776   1.728   2.252
 2841SOL    HW2 8976   3.723   1.845   2.172
 2842SOL     OW 8977   1.902   1.590   1.981
 2842SOL    HW1 8978   1.884   1.498   2.001
 2842SOL    HW2 8979   1.876   1.637   2.060
 2843SOL     OW 8980   3.553   0.920   2.508
 2843SOL    HW1 8981   3.633   0.874   2.484
 2843SOL    HW2 8982   3.530   0.971   2.431
 2844SOL     OW 8983   3.512   1.102   2.292
 2844SOL    HW1 8984   3.599   1.102   2.251
 2844SOL    HW2 8985   3.519   1.166   2.363
 2845SOL     OW 8986   1.986   0.747   3.443
 2845SOL    HW1 8987   2.076   0.779   3.446
 2845SOL    HW2 8988   1.933   0.827   3.444
 2846SOL     OW 8989   2.476   1.392   2.597
 2846SOL    HW1 8990   2.433   1.307   2.605
 2846SOL    HW2 8991   2.461   1.419   2.507
 2847SOL     OW 8992   3.147   1.234   3.283
 2847SOL    HW1 8993   3.176   1.166   3.222
 2847SOL    HW2 8994   3.207   1.229   3.357
 2848SOL     OW 8995   2.681   0.040   2.400
 2848SOL    HW1 8996   2.710   0.126   2.369
 2848SOL    HW2 8997   2.586   0.042   2.390
 2849SOL     OW 8998   2.049   0.960   3.143
 2849SOL    HW1 8999   2.136   0.922   3.128
 2849SOL    HW2 9000   1.992   0.914   3.082
 2850SOL     OW 9001   3.393   1.000   2.062
 2850SOL    HW1 9002   3.324   0.943   2.095
 2850SOL    HW2 9003   3.436   1.033   2.141
 2851SOL     OW 9004   3.045   1.800   3.454
 2851SOL    HW1 9005   3.083   1.852   3.383
 2851SOL    HW2 9006   3.069   1.710   3.434
 2852SOL     OW 9007   2.203   0.279   3.685
 2852SOL    HW1 9008   2.250   0.349   3.730
 2852SOL    HW2 9009   2.114   0.283   3.720
 2853SOL     OW 9010   3.329   1.420   2.806
 2853SOL    HW1 9011   3.263   1.435   2.874
 2853SOL    HW2 9012   3.316   1.328   2.781
 2854SOL     OW 9013   3.513   1.757   2.438
 2854SOL    HW1 9014   3.496   1.723   2.350
 2854SOL    HW2 9015   3.497   1.683   2.496
 2855SOL     OW 9016   2.453   0.716   2.132
 2855SOL    HW1 9017   2.456   0.800   2.087
 2855SOL    HW2 9018   2.388   0.727   2.201
 2856SOL     OW 9019   3.138   0.359   2.795
 2856SOL    HW1 9020   3.048   0.329   2.807
 2856SOL    HW2 9021   3.189   0.307   2.856
 2857SOL     OW 9022   3.440   1.674   2.173
 2857SOL    HW1 9023   3.532   1.698   2.164
 2857SOL    HW2 9024   3.411   1.657   2.083
 2858SOL     OW 9025   2.655   0.619   3.305
 2858SOL    HW1 9026   2.628   0.597   3.394
 2858SOL    HW2 9027   2.620   0.549   3.250
 2859SOL     OW 9028   3.255   0.477   3.540
 2859SOL    HW1 9029   3.259   0.521   3.625
 2859SOL    HW2 9030   3.317   0.404   3.549
 2860SOL     OW 9031   2.812   0.885   3.449
 2860SOL    HW1 9032   2.867   0.817   3.410
 2860SOL    HW2 9033   2.763   0.921   3.375
 2861SOL     OW 9034   2.857   0.415   3.089
 2861SOL    HW1 9035   2.767   0.430   3.118
 2861SOL    HW2 9036   2.849   0.370   3.005
 2862SOL     OW 9037   2.917   0.697   2.287
 2862SOL    HW1 9038   2.935   0.691   2.380
 2862SOL    HW2 9039   2.832   0.655   2.276
 2863SOL     OW 9040   1.950   0.822   2.641
 2863SOL    HW1 9041   2.030   0.815   2.692
 2863SOL    HW2 9042   1.906   0.899   2.677
 2864SOL     OW 9043   1.982   1.868   3.444
 2864SOL    HW1 9044   1.988   1.847   3.538
 2864SOL    HW2 9045   1.900   1.826   3.416
 2865SOL     OW 9046   2.746   0.376   2.058
 2865SOL    HW1 9047   2.779   0.432   1.988
 2865SOL    HW2 9048   2.800   0.298   2.054
 2866SOL     OW 9049   3.563   0.567   3.691
 2866SOL    HW1 9050   3.530   0.642   3.642
 2866SOL    HW2 9051   3.597   0.508   3.625
 2867SOL     OW 9052   3.244   1.142   2.401
 2867SOL    HW1 9053   3.323   1.131   2.348
 2867SOL    HW2 9054   3.190   1.204   2.351
 2868SOL     OW 9055   2.375   0.205   2.738
 2868SOL    HW1 9056   2.397   0.218   2.831
 2868SOL    HW2 9057   2.398   0.288   2.697
 2869SOL     OW 9058   2.861   1.445   2.329
 2869SOL    HW1 9059   2.831   1.519   2.277
 2869SOL    HW2 9060   2.835   1.466   2.419
 2870SOL     OW 9061   2.215   1.813   2.733
 2870SOL    HW1 9062   2.260   1.729   2.739
 2870SOL    HW2 9063   2.284   1.878   2.747
 2871SOL     OW 9064   3.664   1.051   2.735
 2871SOL    HW1 9065   3.613   1.030   2.657
 2871SOL    HW2 9066   3.599   1.057   2.805
 2872SOL     OW 9067   3.086   1.533   3.373
 2872SOL    HW1 9068   3.077   1.465   3.438
 2872SOL    HW2 9069   3.027   1.508   3.302
 2873SOL     OW 9070   2.174   0.961   2.117
 2873SOL    HW1 9071   2.257   0.980   2.073
 2873SOL    HW2 9072   2.146   0.877   2.080
 2874SOL     OW 9073   3.345   0.752   2.583
 2874SOL    HW1 9074   3.341   0.713   2.671
 2874SOL    HW2 9075   3.423   0.807   2.585
 2875SOL     OW 9076   2.332   1.270   3.601
 2875SOL    HW1 9077   2.306   1.275   3.509
 2875SOL    HW2 9078   2.250   1.265   3.650
 2876SOL     OW 9079   2.987   1.778   2.090
 2876SOL    HW1 9080   2.910   1.741   2.132
 2876SOL    HW2 9081   3.011   1.715   2.023
 2877SOL     OW 9082   2.061   0.276   3.373
 2877SOL    HW1 9083   1.982   0.330   3.378
 2877SOL    HW2 9084   2.058   0.222   3.452
 2878SOL     OW 9085   3.490   1.383   1.954
 2878SOL    HW1 9086   3.449   1.467   1.939
 2878SOL    HW2 9087   3.423   1.319   1.932
 2879SOL     OW 9088   2.327   1.732   2.185
 2879SOL    HW1 9089   2.372   1.793   2.243
 2879SOL    HW2 9090   2.394   1.703   2.124
 2880SOL     OW 9091   3.272   0.105   2.295
 2880SOL    HW1 9092   3.265   0.078   2.203
 2880SOL    HW2 9093   3.366   0.121   2.308
 2881SOL     OW 9094   2.122   1.788   3.087
 2881SOL    HW1 9095   2.169   1.714   3.124
 2881SOL    HW2 9096   2.108   1.764   2.995
 2882SOL     OW 9097   2.800   1.697   2.755
 2882SOL    HW1 9098   2.882   1.651   2.775
 2882SOL    HW2 9099   2.761   1.647   2.684
 2883SOL     OW 9100   2.258   0.696   2.334
 2883SOL    HW1 9101   2.275   0.603   2.348
 2883SOL    HW2 9102   2.164   0.706   2.351
 2884SOL     OW 9103   3.392   0.228   3.581
 2884SOL    HW1 9104   3.401   0.244   3.675
 2884SOL    HW2 9105   3.315   0.172   3.573
 2885SOL     OW 9106   2.487   0.129   1.972
 2885SOL    HW1 9107   2.530   0.051   2.007
 2885SOL    HW2 9108   2.435   0.096   1.899
 2886SOL     OW 9109   2.634   0.311   3.634
 2886SOL    HW1 9110   2.697   0.240   3.632
 2886SOL    HW2 9111   2.587   0.300   3.717
 2887SOL     OW 9112   2.736   1.523   3.057
 2887SOL    HW1 9113   2.720   1.485   2.971
 2887SOL    HW2 9114   2.807   1.470   3.094
 2888SOL     OW 9115   3.200   0.590   3.295
 2888SOL    HW1 9116   3.231   0.559   3.380
 2888SOL    HW2 9117   3.237   0.677   3.286
 2889SOL     OW 9118   2.680   1.387   2.809
 2889SOL    HW1 9119   2.766   1.377   2.767
 2889SOL    HW2 9120   2.618   1.396   2.736
 2890SOL     OW 9121   2.791   0.513   2.763
 2890SOL    HW1 9122   2.765   0.504   2.671
 2890SOL    HW2 9123   2.818   0.425   2.788
 2891SOL     OW 9124   2.410   0.061   2.366
 2891SOL    HW1 9125   2.327   0.056   2.414
 2891SOL    HW2 9126   2.396   0.129   2.300
 2892SOL     OW 9127   3.290   1.201   1.900
 2892SOL    HW1 9128   3.319   1.126   1.952
 2892SOL    HW2 9129   3.205   1.224   1.937
 2893SOL     OW 9130   2.163   0.068   2.058
 2893SOL    HW1 9131   2.221   0.142   2.041
 2893SOL    HW2 9132   2.218   5.291   2.047
 2894SOL     OW 9133   2.804   0.274   2.324
 2894SOL    HW1 9134   2.776   0.305   2.238
 2894SOL    HW2 9135   2.899   0.281   2.322
 2895SOL     OW 9136   2.943   0.687   3.318
 2895SOL    HW1 9137   2.878   0.617   3.321
 2895SOL    HW2 9138   3.027   0.641   3.312
 2896SOL     OW 9139   3.077   1.575   2.658
 2896SOL    HW1 9140   3.092   1.639   2.589
 2896SOL    HW2 9141   3.150   1.589   2.720
 2897SOL     OW 9142   2.335   1.154   2.587
 2897SOL    HW1 9143   2.269   1.132   2.653
 2897SOL    HW2 9144   2.290   1.142   2.503
 2898SOL     OW 9145   3.125   1.791   2.476
 2898SOL    HW1 9146   3.173   1.853   2.421
 2898SOL    HW2 9147   3.056   1.844   2.516
 2899SOL     OW 9148   2.888   0.541   1.885
 2899SOL    HW1 9149   2.844   0.625   1.869
 2899SOL    HW2 9150   2.949   0.559   1.957
 2900SOL     OW 9151   1.947   0.552   3.255
 2900SOL    HW1 9152   2.038   0.553   3.228
 2900SOL    HW2 9153   1.940   0.622   3.320
 2901SOL     OW 9154   2.411   0.238   3.020
 2901SOL    HW1 9155   2.446   0.155   3.052
 2901SOL    HW2 9156   2.320   0.239   3.049
 2902SOL     OW 9157   2.725   0.468   2.504
 2902SOL    HW1 9158   2.680   0.523   2.440
 2902SOL    HW2 9159   2.752   0.390   2.454
 2903SOL     OW 9160   2.842   0.064   2.631
 2903SOL    HW1 9161   2.779   0.066   2.558
 2903SOL    HW2 9162   2.853   5.271   2.650
 2904SOL     OW 9163   3.302   1.160   2.718
 2904SOL    HW1 9164   3.230   1.096   2.718
 2904SOL    HW2 9165   3.327   1.168   2.626
 2905SOL     OW 9166   3.327   0.613   2.830
 2905SOL    HW1 9167   3.272   0.535   2.832
 2905SOL    HW2 9168   3.386   0.604   2.905
 2906SOL     OW 9169   3.700   0.810   2.247
 2906SOL    HW1 9170   3.759   0.762   2.305
 2906SOL    HW2 9171   3.677   0.747   2.179
 2907SOL     OW 9172   2.351   1.421   2.011
 2907SOL    HW1 9173   2.275   1.393   2.063
 2907SOL    HW2 9174   2.346   1.368   1.932
 2908SOL     OW 9175   3.540   1.264   2.504
 2908SOL    HW1 9176   3.635   1.263   2.518
 2908SOL    HW2 9177   3.514   1.354   2.524
 2909SOL     OW 9178   3.255   0.574   1.933
 2909SOL    HW1 9179   3.193   0.552   2.003
 2909SOL    HW2 9180   3.340   0.547   1.967
 2910SOL     OW 9181   2.380   0.267   2.179
 2910SOL    HW1 9182   2.431   0.221   2.113
 2910SOL    HW2 9183   2.356   0.350   2.138
 2911SOL     OW 9184   3.610   1.243   3.422
 2911SOL    HW1 9185   3.697   1.205   3.414
 2911SOL    HW2 9186   3.625   1.332   3.452
 2912SOL     OW 9187   2.917   1.357   3.198
 2912SOL    HW1 9188   2.841   1.324   3.245
 2912SOL    HW2 9189   2.991   1.310   3.236
 2913SOL     OW 9190   3.469   1.626   3.519
 2913SOL    HW1 9191   3.463   1.663   3.431
 2913SOL    HW2 9192   3.551   1.577   3.519
 2914SOL     OW 9193   3.000   1.215   2.965
 2914SOL    HW1 9194   2.935   1.250   3.026
 2914SOL    HW2 9195   2.971   1.248   2.879
 2915SOL     OW 9196   3.483   1.094   2.937
 2915SOL    HW1 9197   3.476   1.157   3.008
 2915SOL    HW2 9198   3.408   1.114   2.880
 2916SOL     OW 9199   2.761   0.110   3.239
 2916SOL    HW1 9200   2.792   0.076   3.156
 2916SOL    HW2 9201   2.838   0.151   3.279
 2917SOL     OW 9202   2.845   1.116   3.585
 2917SOL    HW1 9203   2.754   1.131   3.609
 2917SOL    HW2 9204   2.843   1.037   3.530
 2918SOL     OW 9205   2.573   1.063   2.233
 2918SOL    HW1 9206   2.558   1.041   2.325
 2918SOL    HW2 9207   2.648   1.009   2.208
 2919SOL     OW 9208   2.284   0.821   3.115
 2919SOL    HW1 9209   2.352   0.830   3.181
 2919SOL    HW2 9210   2.249   0.733   3.126
 2920SOL     OW 9211   3.125   0.375   3.141
 2920SOL    HW1 9212   3.159   0.453   3.187
 2920SOL    HW2 9213   3.035   0.398   3.117
 2921SOL     OW 9214   1.937   1.575   3.221
 2921SOL    HW1 9215   1.906   1.642   3.160
 2921SOL    HW2 9216   2.032   1.573   3.209
 2922SOL     OW 9217   2.196   1.120   2.351
 2922SOL    HW1 9218   2.201   1.194   2.290
 2922SOL    HW2 9219   2.195   1.042   2.296
 2923SOL     OW 9220   2.410   0.530   2.722
 2923SOL    HW1 9221   2.423   0.589   2.647
 2923SOL    HW2 9222   2.477   0.555   2.785
 2924SOL     OW 9223   3.109   1.350   2.253
 2924SOL    HW1 9224   3.165   1.421   2.285
 2924SOL    HW2 9225   3.022   1.372   2.286
 2925SOL     OW 9226   3.154   1.460   3.010
 2925SOL    HW1 9227   3.209   1.464   3.088
 2925SOL    HW2 9228   3.100   1.382   3.022
 2926SOL     OW 9229   3.438   0.620   2.345
 2926SOL    HW1 9230   3.389   0.667   2.412
 2926SOL    HW2 9231   3.483   0.688   2.296
 2927SOL     OW 9232   2.208   1.530   3.169
 2927SOL    HW1 9233   2.197   1.484   3.086
 2927SOL    HW2 9234   2.302   1.541   3.178
 2928SOL     OW 9235   2.282   0.745   3.467
 2928SOL    HW1 9236   2.344   0.788   3.409
 2928SOL    HW2 9237   2.322   0.661   3.487
 2929SOL     OW 9238   3.472   0.781   3.549
 2929SOL    HW1 9239   3.386   0.823   3.544
 2929SOL    HW2 9240   3.524   0.823   3.481
 2930SOL     OW 9241   2.925   0.121   3.654
 2930SOL    HW1 9242   2.952   0.201   3.609
 2930SOL    HW2 9243   2.926   0.054   3.585
 2931SOL     OW 9244   2.346   0.063   3.600
 2931SOL    HW1 9245   2.280   5.298   3.576
 2931SOL    HW2 9246   2.296   0.142   3.621
 2932SOL     OW 9247   2.448   0.874   2.895
 2932SOL    HW1 9248   2.482   0.964   2.897
 2932SOL    HW2 9249   2.390   0.868   2.971
 2933SOL     OW 9250   3.206   0.859   2.882
 2933SOL    HW1 9251   3.120   0.842   2.843
 2933SOL    HW2 9252   3.253   0.776   2.872
 2934SOL     OW 9253   3.061   0.526   2.124
 2934SOL    HW1 9254   3.069   0.446   2.176
 2934SOL    HW2 9255   3.019   0.589   2.182
 2935SOL     OW 9256   2.152   0.201   3.113
 2935SOL    HW1 9257   2.112   0.239   3.191
 2935SOL    HW2 9258   2.157   0.107   3.132
 2936SOL     OW 9259   1.909   1.312   3.136
 2936SOL    HW1 9260   1.940   1.256   3.206
 2936SOL    HW2 9261   1.913   1.401   3.172
 2937SOL     OW 9262   2.583   0.630   2.916
 2937SOL    HW1 9263   2.659   0.617   2.859
 2937SOL    HW2 9264   2.553   0.719   2.896
 2938SOL     OW 9265   3.602   0.959   3.722
 2938SOL    HW1 9266   3.560   0.892   3.670
 2938SOL    HW2 9267   3.541   0.977   3.793
 2939SOL     OW 9268   2.188   0.069   2.536
 2939SOL    HW1 9269   2.150   0.157   2.531
 2939SOL    HW2 9270   2.249   0.074   2.610
 2940SOL     OW 9271   3.483   0.383   2.214
 2940SOL    HW1 9272   3.511   0.315   2.275
 2940SOL    HW2 9273   3.459   0.457   2.270
 2941SOL     OW 9274   2.892   0.760   2.820
 2941SOL    HW1 9275   2.882   0.776   2.914
 2941SOL    HW2 9276   2.864   0.669   2.809
 2942SOL     OW 9277   2.843   1.561   3.590
 2942SOL    HW1 9278   2.824   1.606   3.507
 2942SOL    HW2 9279   2.888   1.481   3.565
 2943SOL     OW 9280   3.712   1.501   3.465
 2943SOL    HW1 9281   3.735   1.528   3.377
 2943SOL    HW2 9282   3.792   1.514   3.516
 2944SOL     OW 9283   2.214   0.919   3.670
 2944SOL    HW1 9284   2.293   0.936   3.721
 2944SOL    HW2 9285   2.240   0.855   3.604
 2945SOL     OW 9286   3.383   0.267   1.985
 2945SOL    HW1 9287   3.317   0.208   2.021
 2945SOL    HW2 9288   3.422   0.309   2.062
 2946SOL     OW 9289   3.148   0.825   1.890
 2946SOL    HW1 9290   3.190   0.739   1.895
 2946SOL    HW2 9291   3.181   0.863   1.808
 2947SOL     OW 9292   2.932   1.340   2.721
 2947SOL    HW1 9293   2.937   1.268   2.657
 2947SOL    HW2 9294   2.988   1.408   2.684
 2948SOL     OW 9295   2.170   0.809   2.808
 2948SOL    HW1 9296   2.264   0.828   2.800
 2948SOL    HW2 9297   2.167   0.718   2.838
 2949SOL     OW 9298   2.189   0.530   2.875
 2949SOL    HW1 9299   2.151   0.443   2.862
 2949SOL    HW2 9300   2.266   0.532   2.818
 2950SOL     OW 9301   2.998   0.375   3.554
 2950SOL    HW1 9302   2.949   0.429   3.617
 2950SOL    HW2 9303   3.084   0.416   3.549
 2951SOL     OW 9304   2.989   0.218   3.332
 2951SOL    HW1 9305   2.992   0.278   3.406
 2951SOL    HW2 9306   3.045   0.259   3.266
 2952SOL     OW 9307   1.870   1.316   2.056
 2952SOL    HW1 9308   1.783   1.333   2.020
 2952SOL    HW2 9309   1.865   1.227   2.091
 2953SOL     OW 9310   1.953   1.780   2.806
 2953SOL    HW1 9311   1.922   1.703   2.758
 2953SOL    HW2 9312   2.042   1.795   2.772
 2954SOL     OW 9313   2.354   1.575   2.767
 2954SOL    HW1 9314   2.423   1.635   2.792
 2954SOL    HW2 9315   2.396   1.512   2.708
 2955SOL     OW 9316   2.833   0.788   3.085
 2955SOL    HW1 9317   2.893   0.770   3.157
 2955SOL    HW2 9318   2.751   0.746   3.111
 2956SOL     OW 9319   1.897   0.549   2.979
 2956SOL    HW1 9320   1.976   0.537   2.926
 2956SOL    HW2 9321   1.930   0.550   3.069
 2957SOL     OW 9322   2.044   0.529   3.596
 2957SOL    HW1 9323   2.111   0.489   3.541
 2957SOL    HW2 9324   2.013   0.604   3.546
 2958SOL     OW 9325   3.244   0.932   3.519
 2958SOL    HW1 9326   3.265   1.025   3.514
 2958SOL    HW2 9327   3.240   0.905   3.427
 2959SOL     OW 9328   2.675   0.578   2.234
 2959SOL    HW1 9329   2.685   0.505   2.173
 2959SOL    HW2 9330   2.600   0.627   2.202
 2960SOL     OW 9331   3.502   0.601   3.041
 2960SOL    HW1 9332   3.492   0.542   3.115
 2960SOL    HW2 9333   3.590   0.583   3.008
 2961SOL     OW 9334   2.099   1.547   3.583
 2961SOL    HW1 9335   2.080   1.609   3.653
 2961SOL    HW2 9336   2.107   1.462   3.628
 2962SOL     OW 9337   2.576   0.444   3.113
 2962SOL    HW1 9338   2.517   0.374   3.085
 2962SOL    HW2 9339   2.569   0.510   3.044
 2963SOL     OW 9340   2.779   1.676   3.345
 2963SOL    HW1 9341   2.756   1.647   3.256
 2963SOL    HW2 9342   2.836   1.752   3.332
 2964SOL     OW 9343   2.317   0.491   2.034
 2964SOL    HW1 9344   2.379   0.558   2.061
 2964SOL    HW2 9345   2.233   0.537   2.030
 2965SOL     OW 9346   2.002   1.144   3.337
 2965SOL    HW1 9347   2.005   1.097   3.420
 2965SOL    HW2 9348   2.019   1.076   3.271
 2966SOL     OW 9349   3.181   1.043   3.081
 2966SOL    HW1 9350   3.201   0.979   3.012
 2966SOL    HW2 9351   3.116   1.101   3.041
 2967SOL     OW 9352   3.179   0.857   2.165
 2967SOL    HW1 9353   3.105   0.824   2.217
 2967SOL    HW2 9354   3.152   0.843   2.074
 2968SOL     OW 9355   3.642   1.735   3.020
 2968SOL    HW1 9356   3.702   1.761   2.950
 2968SOL    HW2 9357   3.615   1.647   2.996
 2969SOL     OW 9358   3.104   1.731   2.972
 2969SOL    HW1 9359   3.186   1.758   2.931
 2969SOL    HW2 9360   3.114   1.638   2.989
 2970SOL     OW 9361   1.950   1.265   2.872
 2970SOL    HW1 9362   1.931   1.280   2.964
 2970SOL    HW2 9363   1.878   1.209   2.841
 2971SOL     OW 9364   2.548   1.667   3.601
 2971SOL    HW1 9365   2.484   1.737   3.588
 2971SOL    HW2 9366   2.613   1.681   3.532
 2972SOL     OW 9367   3.570   0.156   2.354
 2972SOL    HW1 9368   3.646   0.137   2.299
 2972SOL    HW2 9369   3.569   0.085   2.418
 2973SOL     OW 9370   3.256   1.568   2.354
 2973SOL    HW1 9371   3.313   1.602   2.286
 2973SOL    HW2 9372   3.204   1.643   2.382
 2974SOL     OW 9373   2.011   1.798   3.706
 2974SOL    HW1 9374   1.958   1.730   3.749
 2974SOL    HW2 9375   2.047   1.849   3.779
 2975SOL     OW 9376   3.140   0.929   2.533
 2975SOL    HW1 9377   3.214   0.869   2.543
 2975SOL    HW2 9378   3.174   1.000   2.479
 2976SOL     OW 9379   2.666   1.277   3.282
 2976SOL    HW1 9380   2.638   1.318   3.364
 2976SOL    HW2 9381   2.595   1.295   3.220
 2977SOL     OW 9382   2.532   1.621   2.019
 2977SOL    HW1 9383   2.543   1.641   1.926
 2977SOL    HW2 9384   2.475   1.545   2.022
 2978SOL     OW 9385   3.479   1.729   3.253
 2978SOL    HW1 9386   3.534   1.733   3.175
 2978SOL    HW2 9387   3.465   1.821   3.277
 2979SOL     OW 9388   3.710   0.145   2.817
 2979SOL    HW1 9389   3.696   0.051   2.832
 2979SOL    HW2 9390   3.626   0.176   2.783
 2980SOL     OW 9391   2.115   0.329   2.577
 2980SOL    HW1 9392   2.028   0.361   2.557
 2980SOL    HW2 9393   2.117   0.320   2.672
 2981SOL     OW 9394   3.070   1.600   1.895
 2981SOL    HW1 9395   3.059   1.509   1.922
 2981SOL    HW2 9396   3.004   1.614   1.828
 2982SOL     OW 9397   2.685   1.006   3.238
 2982SOL    HW1 9398   2.728   0.997   3.153
 2982SOL    HW2 9399   2.682   1.101   3.253
 2983SOL     OW 9400   2.780   0.911   2.154
 2983SOL    HW1 9401   2.840   0.944   2.087
 2983SOL    HW2 9402   2.829   0.842   2.199
 2984SOL     OW 9403   3.350   1.630   1.908
 2984SOL    HW1 9404   3.256   1.619   1.892
 2984SOL    HW2 9405   3.389   1.636   1.820
 2985SOL     OW 9406   2.227   1.308   3.356
 2985SOL    HW1 9407   2.216   1.381   3.296
 2985SOL    HW2 9408   2.152   1.251   3.340
 2986SOL     OW 9409   3.469   1.283   3.140
 2986SOL    HW1 9410   3.529   1.267   3.213
 2986SOL    HW2 9411   3.409   1.351   3.173
 2987SOL     OW 9412   2.925   1.111   2.575
 2987SOL    HW1 9413   2.852   1.061   2.610
 2987SOL    HW2 9414   2.988   1.045   2.548
 2988SOL     OW 9415   2.879   0.247   2.835
 2988SOL    HW1 9416   2.860   0.202   2.753
 2988SOL    HW2 9417   2.875   0.178   2.902
 2989SOL     OW 9418   2.468   1.488   2.343
 2989SOL    HW1 9419   2.518   1.438   2.278
 2989SOL    HW2 9420   2.397   1.528   2.292
 2990SOL     OW 9421   3.594   0.384   3.239
 2990SOL    HW1 9422   3.665   0.448   3.238
 2990SOL    HW2 9423   3.622   0.315   3.180
 2991SOL     OW 9424   2.125   1.341   2.154
 2991SOL    HW1 9425   2.032   1.338   2.130
 2991SOL    HW2 9426   2.125   1.382   2.241
 2992SOL     OW 9427   1.977   1.039   3.590
 2992SOL    HW1 9428   1.901   1.008   3.639
 2992SOL    HW2 9429   2.051   0.992   3.630
 2993SOL     OW 9430   2.536   0.219   3.357
 2993SOL    HW1 9431   2.617   0.205   3.309
 2993SOL    HW2 9432   2.563   0.267   3.436
 2994SOL     OW 9433   1.943   0.333   1.904
 2994SOL    HW1 9434   1.859   0.300   1.872
 2994SOL    HW2 9435   1.961   0.409   1.849
 2995SOL     OW 9436   3.286   0.857   3.258
 2995SOL    HW1 9437   3.236   0.918   3.204
 2995SOL    HW2 9438   3.375   0.860   3.222
 2996SOL     OW 9439   1.929   0.167   2.171
 2996SOL    HW1 9440   1.935   0.249   2.122
 2996SOL    HW2 9441   2.013   0.124   2.156
 2997SOL     OW 9442   3.040   1.333   1.980
 2997SOL    HW1 9443   2.949   1.303   1.981
 2997SOL    HW2 9444   3.066   1.335   2.072
 2998SOL     OW 9445   2.483   0.831   3.298
 2998SOL    HW1 9446   2.540   0.907   3.283
 2998SOL    HW2 9447   2.543   0.757   3.303
 2999SOL     OW 9448   3.347   1.792   2.852
 2999SOL    HW1 9449   3.369   1.853   2.782
 2999SOL    HW2 9450   3.431   1.756   2.881
 3000SOL     OW 9451   2.577   0.572   3.559
 3000SOL    HW1 9452   2.622   0.633   3.617
 3000SOL    HW2 9453   2.599   0.486   3.593
 3001SOL     OW 9454   3.336   1.194   3.490
 3001SOL    HW1 9455   3.325   1.209   3.583
 3001SOL    HW2 9456   3.428   1.213   3.473
 3002SOL     OW 9457   2.231   1.735   3.419
 3002SOL    HW1 9458   2.149   1.782   3.400
 3002SOL    HW2 9459   2.203   1.651   3.455
 3003SOL     OW 9460   3.525   0.879   3.117
 3003SOL    HW1 9461   3.522   0.794   3.074
 3003SOL    HW2 9462   3.515   0.942   3.046
 3004SOL     OW 9463   3.083   0.317   2.323
 3004SOL    HW1 9464   3.144   0.244   2.319
 3004SOL    HW2 9465   3.113   0.369   2.398
 3005SOL     OW 9466   2.447   0.734   2.537
 3005SOL    HW1 9467   2.488   0.819   2.521
 3005SOL    HW2 9468   2.383   0.725   2.466
 3006SOL     OW 9469   3.624   0.362   3.512
 3006SOL    HW1 9470   3.608   0.378   3.419
 3006SOL    HW2 9471   3.550   0.308   3.540
 3007SOL     OW 9472   3.611   0.933   3.372
 3007SOL    HW1 9473   3.600   1.028   3.384
 3007SOL    HW2 9474   3.592   0.919   3.279
 3008SOL     OW 9475   2.726   1.366   1.907
 3008SOL    HW1 9476   2.687   1.393   1.990
 3008SOL    HW2 9477   2.741   1.447   1.859
 3009SOL     OW 9478   2.528   1.780   2.805
 3009SOL    HW1 9479   2.510   1.870   2.778
 3009SOL    HW2 9480   2.623   1.771   2.796
 3010SOL     OW 9481   2.732   0.972   2.716
 3010SOL    HW1 9482   2.781   0.899   2.752
 3010SOL    HW2 9483   2.692   1.014   2.792
 3011SOL     OW 9484   2.938   0.989   1.951
 3011SOL    HW1 9485   2.918   1.041   1.873
 3011SOL    HW2 9486   3.012   0.934   1.924
 3012SOL     OW 9487   3.708   1.553   2.702
 3012SOL    HW1 9488   3.628   1.541   2.651
 3012SOL    HW2 9489   3.701   1.489   2.773
 3013SOL     OW 9490   2.085   1.296   3.712
 3013SOL    HW1 9491   2.030   1.226   3.676
 3013SOL    HW2 9492   2.052   1.309   3.801
 3014SOL     OW 9493   1.952   1.229   2.527
 3014SOL    HW1 9494   1.966   1.183   2.610
 3014SOL    HW2 9495   2.019   1.191   2.469
 3015SOL     OW 9496   2.547   1.405   3.491
 3015SOL    HW1 9497   2.469   1.363   3.526
 3015SOL    HW2 9498   2.550   1.491   3.533
 3016SOL     OW 9499   3.665   0.172   3.089
 3016SOL    HW1 9500   3.627   0.084   3.084
 3016SOL    HW2 9501   3.696   0.190   3.000
 3017SOL     OW 9502   2.291   0.436   2.388
 3017SOL    HW1 9503   2.325   0.364   2.336
 3017SOL    HW2 9504   2.240   0.394   2.457
 3018SOL     OW 9505   3.558   1.485   2.952
 3018SOL    HW1 9506   3.479   1.465   2.902
 3018SOL    HW2 9507   3.564   1.416   3.018
 3019SOL     OW 9508   2.196   0.563   3.153
 3019SOL    HW1 9509   2.250   0.505   3.207
 3019SOL    HW2 9510   2.213   0.535   3.063
 3020SOL     OW 9511   2.694   1.580   2.533
 3020SOL    HW1 9512   2.674   1.650   2.471
 3020SOL    HW2 9513   2.618   1.522   2.530
 3021SOL     OW 9514   3.287   0.223   2.978
 3021SOL    HW1 9515   3.322   0.147   3.024
 3021SOL    HW2 9516   3.238   0.271   3.044
 3022SOL     OW 9517   2.864   0.018   2.995
 3022SOL    HW1 9518   2.813   5.251   2.950
 3022SOL    HW2 9519   2.949   5.276   3.012
 3023SOL     OW 9520   2.636   1.333   2.185
 3023SOL    HW1 9521   2.610   1.241   2.193
 3023SOL    HW2 9522   2.718   1.339   2.233
 3024SOL     OW 9523   2.482   1.558   3.150
 3024SOL    HW1 9524   2.483   1.640   3.198
 3024SOL    HW2 9525   2.570   1.549   3.113
 3025SOL     OW 9526   3.219   0.029   2.031
 3025SOL    HW1 9527   3.275   5.288   1.964
 3025SOL    HW2 9528   3.141   5.274   2.033
 3026SOL     OW 9529   3.163   0.466   2.542
 3026SOL    HW1 9530   3.110   0.545   2.545
 3026SOL    HW2 9531   3.154   0.428   2.630
 3027SOL     OW 9532   3.458   0.214   2.749
 3027SOL    HW1 9533   3.395   0.227   2.819
 3027SOL    HW2 9534   3.451   0.293   2.695
 3028SOL     OW 9535   1.904   1.064   2.171
 3028SOL    HW1 9536   1.997   1.056   2.152
 3028SOL    HW2 9537   1.876   0.975   2.192
 3029SOL     OW 9538   2.752   1.660   2.195
 3029SOL    HW1 9539   2.677   1.644   2.138
 3029SOL    HW2 9540   2.722   1.729   2.255
 3030SOL     OW 9541   2.081   0.628   3.855
 3030SOL    HW1 9542   1.993   0.620   3.893
 3030SOL    HW2 9543   2.070   0.604   3.763
 3031SOL     OW 9544   2.075   0.288   4.719
 3031SOL    HW1 9545   2.104   0.250   4.802
 3031SOL    HW2 9546   1.995   0.239   4.697
 3032SOL     OW 9547   1.859   0.395   4.360
 3032SOL    HW1 9548   1.775   0.415   4.402
 3032SOL    HW2 9549   1.841   0.319   4.305
 3033SOL     OW 9550   2.431   1.299   4.908
 3033SOL    HW1 9551   2.344   1.304   4.868
 3033SOL    HW2 9552   2.447   1.387   4.941
 3034SOL     OW 9553   3.435   1.515   4.433
 3034SOL    HW1 9554   3.391   1.491   4.514
 3034SOL    HW2 9555   3.365   1.517   4.367
 3035SOL     OW 9556   2.997   0.698   4.419
 3035SOL    HW1 9557   3.044   0.781   4.407
 3035SOL    HW2 9558   2.948   0.710   4.501
 3036SOL     OW 9559   3.640   0.598   3.948
 3036SOL    HW1 9560   3.613   0.593   3.856
 3036SOL    HW2 9561   3.600   0.522   3.989
 3037SOL     OW 9562   2.605   1.136   4.772
 3037SOL    HW1 9563   2.540   1.175   4.830
 3037SOL    HW2 9564   2.645   1.211   4.728
 3038SOL     OW 9565   2.737   0.767   5.549
 3038SOL    HW1 9566   2.727   0.837   5.614
 3038SOL    HW2 9567   2.760   0.812   5.468
 3039SOL     OW 9568   2.548   0.996   4.367
 3039SOL    HW1 9569   2.614   0.989   4.436
 3039SOL    HW2 9570   2.479   1.051   4.406
 3040SOL     OW 9571   2.576   1.150   5.544
 3040SOL    HW1 9572   2.624   1.226   5.575
 3040SOL    HW2 9573   2.497   1.185   5.505
 3041SOL     OW 9574   2.193   1.415   4.791
 3041SOL    HW1 9575   2.118   1.374   4.748
 3041SOL    HW2 9576   2.237   1.464   4.721
 3042SOL     OW 9577   3.321   1.503   5.086
 3042SOL    HW1 9578   3.375   1.581   5.096
 3042SOL    HW2 9579   3.252   1.513   5.152
 3043SOL     OW 9580   2.310   0.394   5.195
 3043SOL    HW1 9581   2.385   0.334   5.203
 3043SOL    HW2 9582   2.235   0.340   5.219
 3044SOL     OW 9583   3.465   0.449   4.465
 3044SOL    HW1 9584   3.390   0.465   4.407
 3044SOL    HW2 9585   3.472   0.529   4.518
 3045SOL     OW 9586   2.082   1.723   4.195
 3045SOL    HW1 9587   2.106   1.797   4.251
 3045SOL    HW2 9588   2.159   1.708   4.141
 3046SOL     OW 9589   3.000   1.342   5.418
 3046SOL    HW1 9590   3.041   1.336   5.505
 3046SOL    HW2 9591   2.948   1.263   5.410
 3047SOL     OW 9592   2.095   1.448   4.262
 3047SOL    HW1 9593   2.071   1.540   4.267
 3047SOL    HW2 9594   2.038   1.404   4.326
 3048SOL     OW 9595   2.130   1.091   4.615
 3048SOL    HW1 9596   2.127   1.002   4.652
 3048SOL    HW2 9597   2.072   1.142   4.671
 3049SOL     OW 9598   2.465   1.785   5.154
 3049SOL    HW1 9599   2.383   1.770   5.201
 3049SOL    HW2 9600   2.487   1.876   5.171
 3050SOL     OW 9601   2.438   0.985   3.866
 3050SOL    HW1 9602   2.488   1.029   3.796
 3050SOL    HW2 9603   2.478   1.016   3.947
 3051SOL     OW 9604   3.449   0.140   5.178
 3051SOL    HW1 9605   3.485   0.220   5.138
 3051SOL    HW2 9606   3.436   0.163   5.270
 3052SOL     OW 9607   1.980   0.658   4.285
 3052SOL    HW1 9608   1.951   0.569   4.306
 3052SOL    HW2 9609   1.972   0.706   4.367
 3053SOL     OW 9610   3.706   1.752   4.054
 3053SOL    HW1 9611   3.776   1.728   4.115
 3053SOL    HW2 9612   3.723   1.845   4.034
 3054SOL     OW 9613   1.904   1.590   3.841
 3054SOL    HW1 9614   1.884   1.498   3.859
 3054SOL    HW2 9615   1.875   1.637   3.920
 3055SOL     OW 9616   3.553   0.920   4.370
 3055SOL    HW1 9617   3.633   0.874   4.346
 3055SOL    HW2 9618   3.530   0.971   4.293
 3056SOL     OW 9619   3.512   1.103   4.154
 3056SOL    HW1 9620   3.599   1.102   4.113
 3056SOL    HW2 9621   3.519   1.166   4.225
 3057SOL     OW 9622   1.987   0.747   5.305
 3057SOL    HW1 9623   2.077   0.779   5.308
 3057SOL    HW2 9624   1.934   0.827   5.308
 3058SOL     OW 9625   2.481   1.388   4.457
 3058SOL    HW1 9626   2.436   1.304   4.465
 3058SOL    HW2 9627   2.465   1.416   4.367
 3059SOL     OW 9628   3.147   1.235   5.144
 3059SOL    HW1 9629   3.177   1.167   5.085
 3059SOL    HW2 9630   3.206   1.230   5.219
 3060SOL     OW 9631   2.681   0.040   4.262
 3060SOL    HW1 9632   2.710   0.126   4.232
 3060SOL    HW2 9633   2.586   0.042   4.252
 3061SOL     OW 9634   2.049   0.961   5.004
 3061SOL    HW1 9635   2.136   0.923   4.990
 3061SOL    HW2 9636   1.992   0.913   4.945
 3062SOL     OW 9637   3.393   1.001   3.924
 3062SOL    HW1 9638   3.324   0.943   3.957
 3062SOL    HW2 9639   3.436   1.033   4.003
 3063SOL     OW 9640   3.047   1.815   5.351
 3063SOL    HW1 9641   3.050   1.872   5.274
 3063SOL    HW2 9642   3.064   1.727   5.315
 3064SOL     OW 9643   2.203   0.279   5.547
 3064SOL    HW1 9644   2.250   0.349   5.592
 3064SOL    HW2 9645   2.114   0.283   5.582
 3065SOL     OW 9646   3.329   1.420   4.669
 3065SOL    HW1 9647   3.263   1.435   4.737
 3065SOL    HW2 9648   3.316   1.328   4.643
 3066SOL     OW 9649   3.516   1.754   4.301
 3066SOL    HW1 9650   3.498   1.721   4.213
 3066SOL    HW2 9651   3.498   1.681   4.359
 3067SOL     OW 9652   2.453   0.715   3.994
 3067SOL    HW1 9653   2.456   0.800   3.949
 3067SOL    HW2 9654   2.388   0.727   4.063
 3068SOL     OW 9655   3.138   0.359   4.657
 3068SOL    HW1 9656   3.048   0.329   4.669
 3068SOL    HW2 9657   3.189   0.307   4.718
 3069SOL     OW 9658   3.441   1.673   4.034
 3069SOL    HW1 9659   3.533   1.698   4.026
 3069SOL    HW2 9660   3.413   1.657   3.945
 3070SOL     OW 9661   2.655   0.619   5.167
 3070SOL    HW1 9662   2.628   0.597   5.256
 3070SOL    HW2 9663   2.620   0.549   5.112
 3071SOL     OW 9664   3.255   0.477   5.402
 3071SOL    HW1 9665   3.259   0.521   5.487
 3071SOL    HW2 9666   3.317   0.404   5.411
 3072SOL     OW 9667   2.812   0.885   5.311
 3072SOL    HW1 9668   2.867   0.818   5.272
 3072SOL    HW2 9669   2.763   0.922   5.237
 3073SOL     OW 9670   2.857   0.415   4.951
 3073SOL    HW1 9671   2.767   0.430   4.980
 3073SOL    HW2 9672   2.848   0.370   4.867
 3074SOL     OW 9673   2.916   0.698   4.149
 3074SOL    HW1 9674   2.935   0.691   4.242
 3074SOL    HW2 9675   2.831   0.655   4.138
 3075SOL     OW 9676   1.950   0.823   4.502
 3075SOL    HW1 9677   2.030   0.815   4.554
 3075SOL    HW2 9678   1.906   0.900   4.539
 3076SOL     OW 9679   1.988   1.874   5.309
 3076SOL    HW1 9680   1.992   1.851   5.401
 3076SOL    HW2 9681   1.904   1.839   5.279
 3077SOL     OW 9682   2.746   0.376   3.920
 3077SOL    HW1 9683   2.779   0.432   3.849
 3077SOL    HW2 9684   2.800   0.297   3.916
 3078SOL     OW 9685   3.563   0.567   5.553
 3078SOL    HW1 9686   3.530   0.642   5.504
 3078SOL    HW2 9687   3.597   0.508   5.487
 3079SOL     OW 9688   3.244   1.142   4.263
 3079SOL    HW1 9689   3.323   1.131   4.211
 3079SOL    HW2 9690   3.191   1.204   4.213
 3080SOL     OW 9691   2.375   0.205   4.600
 3080SOL    HW1 9692   2.397   0.218   4.693
 3080SOL    HW2 9693   2.398   0.288   4.559
 3081SOL     OW 9694   2.862   1.442   4.192
 3081SOL    HW1 9695   2.832   1.517   4.141
 3081SOL    HW2 9696   2.840   1.465   4.283
 3082SOL     OW 9697   2.209   1.798   4.586
 3082SOL    HW1 9698   2.248   1.711   4.586
 3082SOL    HW2 9699   2.270   1.851   4.637
 3083SOL     OW 9700   3.664   1.051   4.597
 3083SOL    HW1 9701   3.612   1.030   4.519
 3083SOL    HW2 9702   3.599   1.057   4.668
 3084SOL     OW 9703   3.088   1.541   5.238
 3084SOL    HW1 9704   3.077   1.468   5.299
 3084SOL    HW2 9705   3.019   1.529   5.173
 3085SOL     OW 9706   2.173   0.960   3.978
 3085SOL    HW1 9707   2.257   0.979   3.935
 3085SOL    HW2 9708   2.146   0.876   3.943
 3086SOL     OW 9709   3.345   0.752   4.445
 3086SOL    HW1 9710   3.341   0.713   4.533
 3086SOL    HW2 9711   3.423   0.807   4.446
 3087SOL     OW 9712   2.333   1.269   5.462
 3087SOL    HW1 9713   2.307   1.273   5.370
 3087SOL    HW2 9714   2.251   1.265   5.510
 3088SOL     OW 9715   2.985   1.778   3.948
 3088SOL    HW1 9716   2.909   1.737   3.991
 3088SOL    HW2 9717   3.012   1.714   3.882
 3089SOL     OW 9718   2.060   0.276   5.235
 3089SOL    HW1 9719   1.982   0.331   5.240
 3089SOL    HW2 9720   2.058   0.222   5.314
 3090SOL     OW 9721   3.491   1.382   3.816
 3090SOL    HW1 9722   3.450   1.467   3.801
 3090SOL    HW2 9723   3.423   1.318   3.794
 3091SOL     OW 9724   2.324   1.734   4.048
 3091SOL    HW1 9725   2.371   1.791   4.109
 3091SOL    HW2 9726   2.391   1.698   3.990
 3092SOL     OW 9727   3.272   0.105   4.157
 3092SOL    HW1 9728   3.264   0.078   4.065
 3092SOL    HW2 9729   3.366   0.121   4.170
 3093SOL     OW 9730   2.119   1.792   4.956
 3093SOL    HW1 9731   2.170   1.723   4.999
 3093SOL    HW2 9732   2.108   1.761   4.866
 3094SOL     OW 9733   2.799   1.694   4.627
 3094SOL    HW1 9734   2.881   1.650   4.651
 3094SOL    HW2 9735   2.765   1.643   4.554
 3095SOL     OW 9736   2.258   0.696   4.196
 3095SOL    HW1 9737   2.275   0.603   4.210
 3095SOL    HW2 9738   2.164   0.706   4.213
 3096SOL     OW 9739   3.392   0.228   5.443
 3096SOL    HW1 9740   3.402   0.243   5.537
 3096SOL    HW2 9741   3.315   0.172   5.435
 3097SOL     OW 9742   2.487   0.129   3.834
 3097SOL    HW1 9743   2.531   0.051   3.869
 3097SOL    HW2 9744   2.435   0.096   3.761
 3098SOL     OW 9745   2.634   0.311   5.496
 3098SOL    HW1 9746   2.698   0.240   5.495
 3098SOL    HW2 9747   2.587   0.301   5.579
 3099SOL     OW 9748   2.734   1.517   4.918
 3099SOL    HW1 9749   2.719   1.479   4.832
 3099SOL    HW2 9750   2.805   1.466   4.955
 3100SOL     OW 9751   3.200   0.590   5.157
 3100SOL    HW1 9752   3.231   0.559   5.242
 3100SOL    HW2 9753   3.237   0.677   5.148
 3101SOL     OW 9754   2.680   1.387   4.669
 3101SOL    HW1 9755   2.766   1.376   4.628
 3101SOL    HW2 9756   2.619   1.392   4.596
 3102SOL     OW 9757   2.791   0.513   4.625
 3102SOL    HW1 9758   2.765   0.504   4.533
 3102SOL    HW2 9759   2.818   0.425   4.650
 3103SOL     OW 9760   2.410   0.061   4.228
 3103SOL    HW1 9761   2.327   0.056   4.276
 3103SOL    HW2 9762   2.396   0.129   4.162
 3104SOL     OW 9763   3.290   1.201   3.762
 3104SOL    HW1 9764   3.320   1.126   3.814
 3104SOL    HW2 9765   3.205   1.223   3.800
 3105SOL     OW 9766   2.163   0.068   3.920
 3105SOL    HW1 9767   2.222   0.142   3.903
 3105SOL    HW2 9768   2.218   5.291   3.909
 3106SOL     OW 9769   2.804   0.274   4.186
 3106SOL    HW1 9770   2.776   0.305   4.100
 3106SOL    HW2 9771   2.899   0.281   4.185
 3107SOL     OW 9772   2.943   0.687   5.180
 3107SOL    HW1 9773   2.878   0.617   5.183
 3107SOL    HW2 9774   3.027   0.641   5.174
 3108SOL     OW 9775   3.078   1.572   4.520
 3108SOL    HW1 9776   3.094   1.636   4.450
 3108SOL    HW2 9777   3.148   1.588   4.583
 3109SOL     OW 9778   2.335   1.154   4.449
 3109SOL    HW1 9779   2.269   1.133   4.515
 3109SOL    HW2 9780   2.290   1.141   4.365
 3110SOL     OW 9781   3.132   1.779   4.332
 3110SOL    HW1 9782   3.182   1.845   4.284
 3110SOL    HW2 9783   3.054   1.825   4.361
 3111SOL     OW 9784   2.888   0.541   3.747
 3111SOL    HW1 9785   2.845   0.624   3.731
 3111SOL    HW2 9786   2.949   0.559   3.819
 3112SOL     OW 9787   1.946   0.552   5.117
 3112SOL    HW1 9788   2.038   0.553   5.090
 3112SOL    HW2 9789   1.940   0.622   5.182
 3113SOL     OW 9790   2.411   0.238   4.882
 3113SOL    HW1 9791   2.446   0.155   4.914
 3113SOL    HW2 9792   2.320   0.239   4.911
 3114SOL     OW 9793   2.725   0.468   4.366
 3114SOL    HW1 9794   2.680   0.523   4.302
 3114SOL    HW2 9795   2.752   0.390   4.316
 3115SOL     OW 9796   2.842   0.064   4.493
 3115SOL    HW1 9797   2.779   0.066   4.420
 3115SOL    HW2 9798   2.853   5.271   4.512
 3116SOL     OW 9799   3.302   1.160   4.580
 3116SOL    HW1 9800   3.231   1.096   4.581
 3116SOL    HW2 9801   3.327   1.168   4.488
 3117SOL     OW 9802   3.327   0.613   4.691
 3117SOL    HW1 9803   3.272   0.535   4.694
 3117SOL    HW2 9804   3.386   0.604   4.767
 3118SOL     OW 9805   3.700   0.810   4.109
 3118SOL    HW1 9806   3.759   0.762   4.167
 3118SOL    HW2 9807   3.677   0.747   4.041
 3119SOL     OW 9808   2.349   1.423   3.875
 3119SOL    HW1 9809   2.273   1.393   3.925
 3119SOL    HW2 9810   2.349   1.368   3.797
 3120SOL     OW 9811   3.540   1.264   4.366
 3120SOL    HW1 9812   3.635   1.263   4.380
 3120SOL    HW2 9813   3.513   1.354   4.387
 3121SOL     OW 9814   3.255   0.574   3.795
 3121SOL    HW1 9815   3.193   0.552   3.865
 3121SOL    HW2 9816   3.340   0.547   3.829
 3122SOL     OW 9817   2.380   0.267   4.041
 3122SOL    HW1 9818   2.431   0.221   3.975
 3122SOL    HW2 9819   2.356   0.350   4.000
 3123SOL     OW 9820   3.610   1.243   5.283
 3123SOL    HW1 9821   3.697   1.204   5.276
 3123SOL    HW2 9822   3.625   1.332   5.314
 3124SOL     OW 9823   2.916   1.352   5.055
 3124SOL    HW1 9824   2.840   1.322   5.105
 3124SOL    HW2 9825   2.991   1.311   5.097
 3125SOL     OW 9826   3.472   1.629   5.383
 3125SOL    HW1 9827   3.463   1.663   5.294
 3125SOL    HW2 9828   3.553   1.578   5.382
 3126SOL     OW 9829   2.999   1.212   4.826
 3126SOL    HW1 9830   2.938   1.249   4.890
 3126SOL    HW2 9831   2.969   1.247   4.742
 3127SOL     OW 9832   3.484   1.095   4.799
 3127SOL    HW1 9833   3.477   1.158   4.871
 3127SOL    HW2 9834   3.409   1.114   4.743
 3128SOL     OW 9835   2.761   0.110   5.101
 3128SOL    HW1 9836   2.792   0.076   5.018
 3128SOL    HW2 9837   2.838   0.151   5.141
 3129SOL     OW 9838   2.846   1.116   5.447
 3129SOL    HW1 9839   2.755   1.132   5.472
 3129SOL    HW2 9840   2.842   1.037   5.393
 3130SOL     OW 9841   2.573   1.064   4.095
 3130SOL    HW1 9842   2.558   1.042   4.187
 3130SOL    HW2 9843   2.648   1.010   4.070
 3131SOL     OW 9844   2.284   0.821   4.976
 3131SOL    HW1 9845   2.352   0.830   5.043
 3131SOL    HW2 9846   2.249   0.733   4.989
 3132SOL     OW 9847   3.125   0.375   5.003
 3132SOL    HW1 9848   3.159   0.452   5.049
 3132SOL    HW2 9849   3.035   0.398   4.979
 3133SOL     OW 9850   1.937   1.574   5.082
 3133SOL    HW1 9851   1.909   1.645   5.025
 3133SOL    HW2 9852   2.032   1.573   5.073
 3134SOL     OW 9853   2.196   1.120   4.213
 3134SOL    HW1 9854   2.199   1.192   4.150
 3134SOL    HW2 9855   2.195   1.041   4.159
 3135SOL     OW 9856   2.410   0.529   4.583
 3135SOL    HW1 9857   2.423   0.589   4.509
 3135SOL    HW2 9858   2.477   0.555   4.647
 3136SOL     OW 9859   3.109   1.349   4.114
 3136SOL    HW1 9860   3.166   1.420   4.146
 3136SOL    HW2 9861   3.023   1.371   4.148
 3137SOL     OW 9862   3.154   1.461   4.873
 3137SOL    HW1 9863   3.209   1.466   4.951
 3137SOL    HW2 9864   3.098   1.384   4.888
 3138SOL     OW 9865   3.438   0.620   4.207
 3138SOL    HW1 9866   3.389   0.667   4.275
 3138SOL    HW2 9867   3.484   0.688   4.158
 3139SOL     OW 9868   2.207   1.530   5.033
 3139SOL    HW1 9869   2.196   1.484   4.950
 3139SOL    HW2 9870   2.301   1.542   5.042
 3140SOL     OW 9871   2.282   0.745   5.329
 3140SOL    HW1 9872   2.344   0.789   5.271
 3140SOL    HW2 9873   2.324   0.661   5.350
 3141SOL     OW 9874   3.473   0.781   5.411
 3141SOL    HW1 9875   3.387   0.822   5.405
 3141SOL    HW2 9876   3.524   0.823   5.343
 3142SOL     OW 9877   2.925   0.120   5.516
 3142SOL    HW1 9878   2.952   0.201   5.472
 3142SOL    HW2 9879   2.926   0.054   5.447
 3143SOL     OW 9880   2.346   0.063   5.462
 3143SOL    HW1 9881   2.280   5.298   5.438
 3143SOL    HW2 9882   2.296   0.142   5.483
 3144SOL     OW 9883   2.448   0.875   4.757
 3144SOL    HW1 9884   2.482   0.964   4.760
 3144SOL    HW2 9885   2.391   0.868   4.833
 3145SOL     OW 9886   3.206   0.859   4.743
 3145SOL    HW1 9887   3.120   0.842   4.706
 3145SOL    HW2 9888   3.253   0.776   4.734
 3146SOL     OW 9889   3.061   0.526   3.986
 3146SOL    HW1 9890   3.069   0.446   4.039
 3146SOL    HW2 9891   3.019   0.589   4.044
 3147SOL     OW 9892   2.152   0.201   4.975
 3147SOL    HW1 9893   2.112   0.239   5.053
 3147SOL    HW2 9894   2.157   0.107   4.995
 3148SOL     OW 9895   1.909   1.312   4.997
 3148SOL    HW1 9896   1.940   1.256   5.068
 3148SOL    HW2 9897   1.914   1.401   5.033
 3149SOL     OW 9898   2.582   0.630   4.777
 3149SOL    HW1 9899   2.659   0.617   4.721
 3149SOL    HW2 9900   2.553   0.719   4.758
 3150SOL     OW 9901   3.602   0.959   5.584
 3150SOL    HW1 9902   3.560   0.892   5.532
 3150SOL    HW2 9903   3.541   0.978   5.655
 3151SOL     OW 9904   2.188   0.069   4.398
 3151SOL    HW1 9905   2.150   0.157   4.393
 3151SOL    HW2 9906   2.248   0.074   4.472
 3152SOL     OW 9907   3.483   0.383   4.076
 3152SOL    HW1 9908   3.511   0.315   4.137
 3152SOL    HW2 9909   3.459   0.457   4.132
 3153SOL     OW 9910   2.892   0.760   4.682
 3153SOL    HW1 9911   2.882   0.776   4.776
 3153SOL    HW2 9912   2.864   0.669   4.670
 3154SOL     OW 9913   2.844   1.567   5.446
 3154SOL    HW1 9914   2.826   1.609   5.362
 3154SOL    HW2 9915   2.887   1.484   5.422
 3155SOL     OW 9916   3.712   1.500   5.328
 3155SOL    HW1 9917   3.735   1.528   5.239
 3155SOL    HW2 9918   3.792   1.513   5.378
 3156SOL     OW 9919   2.213   0.918   5.533
 3156SOL    HW1 9920   2.293   0.936   5.583
 3156SOL    HW2 9921   2.241   0.854   5.467
 3157SOL     OW 9922   3.382   0.267   3.847
 3157SOL    HW1 9923   3.316   0.208   3.883
 3157SOL    HW2 9924   3.422   0.309   3.924
 3158SOL     OW 9925   3.147   0.825   3.752
 3158SOL    HW1 9926   3.189   0.739   3.757
 3158SOL    HW2 9927   3.181   0.863   3.670
 3159SOL     OW 9928   2.931   1.340   4.582
 3159SOL    HW1 9929   2.937   1.268   4.519
 3159SOL    HW2 9930   2.988   1.408   4.546
 3160SOL     OW 9931   2.171   0.809   4.669
 3160SOL    HW1 9932   2.264   0.828   4.663
 3160SOL    HW2 9933   2.167   0.718   4.700
 3161SOL     OW 9934   2.189   0.530   4.736
 3161SOL    HW1 9935   2.151   0.443   4.724
 3161SOL    HW2 9936   2.266   0.531   4.680
 3162SOL     OW 9937   2.998   0.375   5.417
 3162SOL    HW1 9938   2.949   0.429   5.479
 3162SOL    HW2 9939   3.084   0.416   5.411
 3163SOL     OW 9940   2.989   0.218   5.194
 3163SOL    HW1 9941   2.992   0.278   5.268
 3163SOL    HW2 9942   3.045   0.259   5.128
 3164SOL     OW 9943   1.872   1.316   3.916
 3164SOL    HW1 9944   1.784   1.333   3.882
 3164SOL    HW2 9945   1.866   1.227   3.952
 3165SOL     OW 9946   1.945   1.781   4.664
 3165SOL    HW1 9947   1.915   1.703   4.618
 3165SOL    HW2 9948   2.035   1.794   4.632
 3166SOL     OW 9949   2.354   1.569   4.622
 3166SOL    HW1 9950   2.424   1.629   4.650
 3166SOL    HW2 9951   2.397   1.505   4.566
 3167SOL     OW 9952   2.833   0.787   4.947
 3167SOL    HW1 9953   2.894   0.770   5.019
 3167SOL    HW2 9954   2.751   0.747   4.974
 3168SOL     OW 9955   1.898   0.549   4.841
 3168SOL    HW1 9956   1.976   0.537   4.788
 3168SOL    HW2 9957   1.929   0.551   4.931
 3169SOL     OW 9958   2.043   0.529   5.458
 3169SOL    HW1 9959   2.111   0.490   5.403
 3169SOL    HW2 9960   2.012   0.604   5.408
 3170SOL     OW 9961   3.244   0.932   5.380
 3170SOL    HW1 9962   3.265   1.025   5.376
 3170SOL    HW2 9963   3.240   0.904   5.289
 3171SOL     OW 9964   2.675   0.578   4.096
 3171SOL    HW1 9965   2.685   0.505   4.035
 3171SOL    HW2 9966   2.600   0.627   4.063
 3172SOL     OW 9967   3.502   0.601   4.902
 3172SOL    HW1 9968   3.492   0.542   4.977
 3172SOL    HW2 9969   3.590   0.583   4.870
 3173SOL     OW 9970   2.098   1.548   5.446
 3173SOL    HW1 9971   2.078   1.612   5.514
 3173SOL    HW2 9972   2.107   1.465   5.493
 3174SOL     OW 9973   2.576   0.444   4.975
 3174SOL    HW1 9974   2.517   0.374   4.947
 3174SOL    HW2 9975   2.569   0.510   4.905
 3175SOL     OW 9976   2.786   1.677   5.194
 3175SOL    HW1 9977   2.763   1.639   5.109
 3175SOL    HW2 9978   2.776   1.771   5.181
 3176SOL     OW 9979   2.316   0.491   3.896
 3176SOL    HW1 9980   2.379   0.558   3.922
 3176SOL    HW2 9981   2.233   0.537   3.891
 3177SOL     OW 9982   2.001   1.144   5.198
 3177SOL    HW1 9983   2.004   1.097   5.282
 3177SOL    HW2 9984   2.019   1.076   5.133
 3178SOL     OW 9985   3.181   1.042   4.943
 3178SOL    HW1 9986   3.202   0.979   4.874
 3178SOL    HW2 9987   3.116   1.100   4.903
 3179SOL     OW 9988   3.178   0.857   4.027
 3179SOL    HW1 9989   3.106   0.823   4.079
 3179SOL    HW2 9990   3.152   0.843   3.936
 3180SOL     OW 9991   3.643   1.735   4.883
 3180SOL    HW1 9992   3.703   1.761   4.812
 3180SOL    HW2 9993   3.615   1.647   4.858
 3181SOL     OW 9994   3.105   1.731   4.826
 3181SOL    HW1 9995   3.188   1.757   4.787
 3181SOL    HW2 9996   3.117   1.638   4.848
 3182SOL     OW 9997   1.951   1.264   4.734
 3182SOL    HW1 9998   1.932   1.280   4.827
 3182SOL    HW2 9999   1.879   1.210   4.703
 3183SOL     OW10000   2.540   1.672   5.463
 3183SOL    HW110001   2.480   1.748   5.462
 3183SOL    HW210002   2.605   1.692   5.397
 3184SOL     OW10003   3.571   0.156   4.216
 3184SOL    HW110004   3.646   0.137   4.161
 3184SOL    HW210005   3.569   0.085   4.280
 3185SOL     OW10006   3.258   1.563   4.213
 3185SOL    HW110007   3.316   1.599   4.146
 3185SOL    HW210008   3.209   1.638   4.245
 3186SOL     OW10009   2.002   1.797   5.567
 3186SOL    HW110010   1.953   1.729   5.613
 3186SOL    HW210011   2.050   1.843   5.636
 3187SOL     OW10012   3.140   0.929   4.395
 3187SOL    HW110013   3.214   0.869   4.405
 3187SOL    HW210014   3.175   1.000   4.341
 3188SOL     OW10015   2.666   1.277   5.147
 3188SOL    HW110016   2.638   1.319   5.229
 3188SOL    HW210017   2.595   1.297   5.086
 3189SOL     OW10018   2.528   1.627   3.880
 3189SOL    HW110019   2.546   1.638   3.786
 3189SOL    HW210020   2.473   1.549   3.884
 3190SOL     OW10021   3.480   1.728   5.116
 3190SOL    HW110022   3.534   1.732   5.037
 3190SOL    HW210023   3.465   1.819   5.140
 3191SOL     OW10024   3.710   0.145   4.679
 3191SOL    HW110025   3.696   0.051   4.694
 3191SOL    HW210026   3.626   0.176   4.645
 3192SOL     OW10027   2.116   0.329   4.439
 3192SOL    HW110028   2.028   0.361   4.419
 3192SOL    HW210029   2.117   0.320   4.534
 3193SOL     OW10030   3.071   1.599   3.756
 3193SOL    HW110031   3.061   1.508   3.784
 3193SOL    HW210032   3.003   1.612   3.690
 3194SOL     OW10033   2.685   1.007   5.100
 3194SOL    HW110034   2.729   1.000   5.015
 3194SOL    HW210035   2.682   1.102   5.117
 3195SOL     OW10036   2.780   0.912   4.015
 3195SOL    HW110037   2.840   0.944   3.949
 3195SOL    HW210038   2.829   0.843   4.061
 3196SOL     OW10039   3.351   1.628   3.769
 3196SOL    HW110040   3.257   1.618   3.754
 3196SOL    HW210041   3.389   1.634   3.682
 3197SOL     OW10042   2.229   1.305   5.217
 3197SOL    HW110043   2.216   1.382   5.160
 3197SOL    HW210044   2.152   1.251   5.201
 3198SOL     OW10045   3.469   1.285   5.003
 3198SOL    HW110046   3.528   1.268   5.076
 3198SOL    HW210047   3.408   1.351   5.036
 3199SOL     OW10048   2.925   1.111   4.437
 3199SOL    HW110049   2.852   1.061   4.472
 3199SOL    HW210050   2.989   1.045   4.410
 3200SOL     OW10051   2.879   0.247   4.697
 3200SOL    HW110052   2.860   0.202   4.615
 3200SOL    HW210053   2.875   0.178   4.764
 3201SOL     OW10054   2.469   1.489   4.203
 3201SOL    HW110055   2.521   1.438   4.140
 3201SOL    HW210056   2.391   1.514   4.155
 3202SOL     OW10057   3.594   0.384   5.101
 3202SOL    HW110058   3.665   0.448   5.100
 3202SOL    HW210059   3.622   0.315   5.042
 3203SOL     OW10060   2.126   1.342   4.019
 3203SOL    HW110061   2.034   1.337   3.992
 3203SOL    HW210062   2.124   1.383   4.106
 3204SOL     OW10063   1.977   1.035   5.450
 3204SOL    HW110064   1.901   1.006   5.500
 3204SOL    HW210065   2.051   0.991   5.491
 3205SOL     OW10066   2.536   0.219   5.219
 3205SOL    HW110067   2.617   0.205   5.171
 3205SOL    HW210068   2.563   0.267   5.298
 3206SOL     OW10069   1.943   0.333   3.766
 3206SOL    HW110070   1.859   0.299   3.734
 3206SOL    HW210071   1.961   0.409   3.711
 3207SOL     OW10072   3.286   0.857   5.120
 3207SOL    HW110073   3.236   0.918   5.066
 3207SOL    HW210074   3.375   0.859   5.084
 3208SOL     OW10075   1.929   0.167   4.033
 3208SOL    HW110076   1.935   0.249   3.984
 3208SOL    HW210077   2.013   0.124   4.018
 3209SOL     OW10078   3.041   1.333   3.843
 3209SOL    HW110079   2.952   1.297   3.846
 3209SOL    HW210080   3.069   1.335   3.935
 3210SOL     OW10081   2.483   0.831   5.159
 3210SOL    HW110082   2.540   0.907   5.145
 3210SOL    HW210083   2.543   0.757   5.165
 3211SOL     OW10084   3.348   1.795   4.712
 3211SOL    HW110085   3.370   1.859   4.644
 3211SOL    HW210086   3.433   1.760   4.740
 3212SOL     OW10087   2.577   0.573   5.420
 3212SOL    HW110088   2.622   0.634   5.479
 3212SOL    HW210089   2.598   0.486   5.455
 3213SOL     OW10090   3.336   1.193   5.352
 3213SOL    HW110091   3.324   1.209   5.445
 3213SOL    HW210092   3.428   1.213   5.335
 3214SOL     OW10093   2.230   1.739   5.287
 3214SOL    HW110094   2.148   1.787   5.274
 3214SOL    HW210095   2.203   1.657   5.329
 3215SOL     OW10096   3.525   0.879   4.979
 3215SOL    HW110097   3.522   0.794   4.935
 3215SOL    HW210098   3.515   0.943   4.908
 3216SOL     OW10099   3.083   0.318   4.185
 3216SOL    HW110100   3.144   0.244   4.181
 3216SOL    HW210101   3.113   0.369   4.260
 3217SOL     OW10102   2.447   0.734   4.399
 3217SOL    HW110103   2.488   0.819   4.383
 3217SOL    HW210104   2.383   0.725   4.328
 3218SOL     OW10105   3.624   0.362   5.374
 3218SOL    HW110106   3.608   0.378   5.281
 3218SOL    HW210107   3.550   0.308   5.402
 3219SOL     OW10108   3.612   0.933   5.234
 3219SOL    HW110109   3.599   1.027   5.247
 3219SOL    HW210110   3.592   0.919   5.142
 3220SOL     OW10111   2.719   1.364   3.767
 3220SOL    HW110112   2.688   1.393   3.852
 3220SOL    HW210113   2.743   1.445   3.721
 3221SOL     OW10114   2.535   1.773   4.679
 3221SOL    HW110115   2.544   1.834   4.753
 3221SOL    HW210116   2.624   1.746   4.659
 3222SOL     OW10117   2.732   0.972   4.577
 3222SOL    HW110118   2.782   0.899   4.614
 3222SOL    HW210119   2.692   1.014   4.653
 3223SOL     OW10120   2.939   0.990   3.813
 3223SOL    HW110121   2.918   1.040   3.734
 3223SOL    HW210122   3.013   0.935   3.787
 3224SOL     OW10123   3.708   1.553   4.565
 3224SOL    HW110124   3.629   1.541   4.512
 3224SOL    HW210125   3.699   1.489   4.636
 3225SOL     OW10126   2.088   1.298   5.576
 3225SOL    HW110127   2.028   1.231   5.543
 3225SOL    HW210128   2.062   1.310   5.667
 3226SOL     OW10129   1.955   1.229   4.388
 3226SOL    HW110130   1.964   1.185   4.472
 3226SOL    HW210131   2.020   1.188   4.332
 3227SOL     OW10132   2.547   1.410   5.355
 3227SOL    HW110133   2.469   1.367   5.390
 3227SOL    HW210134   2.545   1.498   5.393
 3228SOL     OW10135   3.665   0.172   4.951
 3228SOL    HW110136   3.627   0.084   4.946
 3228SOL    HW210137   3.696   0.190   4.862
 3229SOL     OW10138   2.291   0.437   4.250
 3229SOL    HW110139   2.325   0.364   4.197
 3229SOL    HW210140   2.240   0.395   4.319
 3230SOL     OW10141   3.558   1.485   4.814
 3230SOL    HW110142   3.479   1.466   4.764
 3230SOL    HW210143   3.563   1.416   4.880
 3231SOL     OW10144   2.196   0.563   5.015
 3231SOL    HW110145   2.250   0.505   5.069
 3231SOL    HW210146   2.213   0.534   4.925
 3232SOL     OW10147   2.694   1.582   4.400
 3232SOL    HW110148   2.670   1.650   4.336
 3232SOL    HW210149   2.621   1.520   4.398
 3233SOL     OW10150   3.287   0.223   4.840
 3233SOL    HW110151   3.322   0.147   4.886
 3233SOL    HW210152   3.238   0.271   4.906
 3234SOL     OW10153   2.864   0.018   4.857
 3234SOL    HW110154   2.813   5.251   4.812
 3234SOL    HW210155   2.949   5.276   4.874
 3235SOL     OW10156   2.637   1.334   4.047
 3235SOL    HW110157   2.611   1.242   4.054
 3235SOL    HW210158   2.720   1.339   4.096
 3236SOL     OW10159   2.481   1.556   5.009
 3236SOL    HW110160   2.482   1.636   5.061
 3236SOL    HW210161   2.570   1.548   4.975
 3237SOL     OW10162   3.219   0.028   3.893
 3237SOL    HW110163   3.275   5.289   3.826
 3237SOL    HW210164   3.141   5.273   3.895
 3238SOL     OW10165   3.163   0.466   4.404
 3238SOL    HW110166   3.110   0.545   4.407
 3238SOL    HW210167   3.154   0.428   4.492
 3239SOL     OW10168   3.458   0.214   4.611
 3239SOL    HW110169   3.395   0.227   4.681
 3239SOL    HW210170   3.451   0.293   4.557
 3240SOL     OW10171   1.905   1.064   4.033
 3240SOL    HW110172   1.998   1.055   4.013
 3240SOL    HW210173   1.876   0.976   4.054
 3241SOL     OW10174   2.752   1.654   4.054
 3241SOL    HW110175   2.676   1.638   3.998
 3241SOL    HW210176   2.722   1.720   4.117
 3242SOL     OW10177   2.081   0.627   5.717
 3242SOL    HW110178   1.993   0.620   5.755
 3242SOL    HW210179   2.069   0.604   5.625
 3243SOL     OW10180   2.075   0.288   6.581
 3243SOL    HW110181   2.104   0.250   6.664
 3243SOL    HW210182   1.995   0.240   6.559
 3244SOL     OW10183   1.859   0.395   6.223
 3244SOL    HW110184   1.775   0.415   6.264
 3244SOL    HW210185   1.841   0.319   6.167
 3245SOL     OW10186   2.430   1.298   6.771
 3245SOL    HW110187   2.345   1.305   6.728
 3245SOL    HW210188   2.448   1.387   6.803
 3246SOL     OW10189   3.435   1.515   6.295
 3246SOL    HW110190   3.391   1.491   6.377
 3246SOL    HW210191   3.365   1.518   6.230
 3247SOL     OW10192   2.997   0.698   6.281
 3247SOL    HW110193   3.044   0.781   6.269
 3247SOL    HW210194   2.948   0.710   6.363
 3248SOL     OW10195   3.640   0.598   5.810
 3248SOL    HW110196   3.613   0.593   5.718
 3248SOL    HW210197   3.600   0.522   5.851
 3249SOL     OW10198   2.605   1.136   6.634
 3249SOL    HW110199   2.540   1.175   6.692
 3249SOL    HW210200   2.645   1.211   6.590
 3250SOL     OW10201   2.734   0.766   7.405
 3250SOL    HW110202   2.730   0.838   7.469
 3250SOL    HW210203   2.759   0.809   7.324
 3251SOL     OW10204   2.548   0.996   6.230
 3251SOL    HW110205   2.614   0.989   6.298
 3251SOL    HW210206   2.479   1.051   6.267
 3252SOL     OW10207   2.577   1.152   7.405
 3252SOL    HW110208   2.625   1.229   7.436
 3252SOL    HW210209   2.498   1.187   7.365
 3253SOL     OW10210   2.193   1.416   6.653
 3253SOL    HW110211   2.119   1.376   6.607
 3253SOL    HW210212   2.238   1.467   6.586
 3254SOL     OW10213   3.321   1.503   6.948
 3254SOL    HW110214   3.375   1.581   6.958
 3254SOL    HW210215   3.252   1.513   7.014
 3255SOL     OW10216   2.310   0.394   7.059
 3255SOL    HW110217   2.385   0.335   7.066
 3255SOL    HW210218   2.235   0.339   7.081
 3256SOL     OW10219   3.465   0.449   6.327
 3256SOL    HW110220   3.390   0.464   6.269
 3256SOL    HW210221   3.471   0.529   6.380
 3257SOL     OW10222   2.082   1.717   6.054
 3257SOL    HW110223   2.104   1.792   6.110
 3257SOL    HW210224   2.158   1.707   5.996
 3258SOL     OW10225   2.999   1.342   7.276
 3258SOL    HW110226   3.039   1.338   7.362
 3258SOL    HW210227   2.948   1.261   7.269
 3259SOL     OW10228   2.094   1.445   6.122
 3259SOL    HW110229   2.076   1.539   6.123
 3259SOL    HW210230   2.037   1.409   6.189
 3260SOL     OW10231   2.129   1.091   6.477
 3260SOL    HW110232   2.126   1.003   6.514
 3260SOL    HW210233   2.071   1.143   6.532
 3261SOL     OW10234   2.458   1.792   7.006
 3261SOL    HW110235   2.380   1.773   7.058
 3261SOL    HW210236   2.487   1.879   7.035
 3262SOL     OW10237   2.438   0.986   5.727
 3262SOL    HW110238   2.488   1.030   5.658
 3262SOL    HW210239   2.478   1.017   5.808
 3263SOL     OW10240   3.450   0.140   7.041
 3263SOL    HW110241   3.484   0.220   7.001
 3263SOL    HW210242   3.435   0.163   7.133
 3264SOL     OW10243   1.980   0.658   6.147
 3264SOL    HW110244   1.951   0.569   6.169
 3264SOL    HW210245   1.972   0.706   6.229
 3265SOL     OW10246   3.706   1.753   5.916
 3265SOL    HW110247   3.775   1.728   5.976
 3265SOL    HW210248   3.723   1.845   5.896
 3266SOL     OW10249   1.902   1.590   5.706
 3266SOL    HW110250   1.883   1.498   5.726
 3266SOL    HW210251   1.876   1.637   5.785
 3267SOL     OW10252   3.553   0.920   6.232
 3267SOL    HW110253   3.633   0.874   6.207
 3267SOL    HW210254   3.529   0.971   6.155
 3268SOL     OW10255   3.512   1.103   6.016
 3268SOL    HW110256   3.599   1.103   5.975
 3268SOL    HW210257   3.519   1.167   6.087
 3269SOL     OW10258   1.986   0.746   7.168
 3269SOL    HW110259   2.076   0.778   7.170
 3269SOL    HW210260   1.933   0.826   7.171
 3270SOL     OW10261   2.477   1.391   6.321
 3270SOL    HW110262   2.434   1.307   6.329
 3270SOL    HW210263   2.462   1.419   6.231
 3271SOL     OW10264   3.147   1.235   7.006
 3271SOL    HW110265   3.177   1.167   6.946
 3271SOL    HW210266   3.206   1.230   7.081
 3272SOL     OW10267   2.681   0.040   6.124
 3272SOL    HW110268   2.710   0.126   6.093
 3272SOL    HW210269   2.586   0.042   6.114
 3273SOL     OW10270   2.049   0.960   6.867
 3273SOL    HW110271   2.136   0.922   6.852
 3273SOL    HW210272   1.992   0.914   6.805
 3274SOL     OW10273   3.393   1.000   5.786
 3274SOL    HW110274   3.324   0.943   5.819
 3274SOL    HW210275   3.436   1.033   5.865
 3275SOL     OW10276   3.046   1.814   7.212
 3275SOL    HW110277   3.050   1.875   7.139
 3275SOL    HW210278   3.064   1.729   7.173
 3276SOL     OW10279   2.201   0.271   7.424
 3276SOL    HW110280   2.247   0.347   7.460
 3276SOL    HW210281   2.109   0.284   7.449
 3277SOL     OW10282   3.330   1.419   6.531
 3277SOL    HW110283   3.264   1.435   6.599
 3277SOL    HW210284   3.316   1.328   6.506
 3278SOL     OW10285   3.513   1.757   6.162
 3278SOL    HW110286   3.496   1.722   6.075
 3278SOL    HW210287   3.497   1.684   6.221
 3279SOL     OW10288   2.453   0.716   5.856
 3279SOL    HW110289   2.456   0.800   5.811
 3279SOL    HW210290   2.388   0.727   5.925
 3280SOL     OW10291   3.138   0.359   6.519
 3280SOL    HW110292   3.048   0.329   6.531
 3280SOL    HW210293   3.189   0.306   6.580
 3281SOL     OW10294   3.440   1.675   5.897
 3281SOL    HW110295   3.532   1.698   5.889
 3281SOL    HW210296   3.411   1.657   5.807
 3282SOL     OW10297   2.655   0.619   7.029
 3282SOL    HW110298   2.627   0.597   7.118
 3282SOL    HW210299   2.620   0.549   6.974
 3283SOL     OW10300   3.255   0.477   7.264
 3283SOL    HW110301   3.259   0.521   7.349
 3283SOL    HW210302   3.316   0.403   7.273
 3284SOL     OW10303   2.813   0.886   7.171
 3284SOL    HW110304   2.868   0.819   7.132
 3284SOL    HW210305   2.764   0.923   7.097
 3285SOL     OW10306   2.857   0.415   6.813
 3285SOL    HW110307   2.767   0.430   6.842
 3285SOL    HW210308   2.848   0.370   6.729
 3286SOL     OW10309   2.917   0.697   6.011
 3286SOL    HW110310   2.935   0.691   6.104
 3286SOL    HW210311   2.831   0.655   6.000
 3287SOL     OW10312   1.950   0.822   6.365
 3287SOL    HW110313   2.030   0.815   6.416
 3287SOL    HW210314   1.905   0.899   6.401
 3288SOL     OW10315   1.986   1.873   7.171
 3288SOL    HW110316   1.990   1.850   7.264
 3288SOL    HW210317   1.902   1.837   7.142
 3289SOL     OW10318   2.746   0.376   5.782
 3289SOL    HW110319   2.779   0.432   5.712
 3289SOL    HW210320   2.801   0.298   5.778
 3290SOL     OW10321   3.566   0.569   7.417
 3290SOL    HW110322   3.532   0.643   7.368
 3290SOL    HW210323   3.597   0.508   7.350
 3291SOL     OW10324   3.244   1.142   6.125
 3291SOL    HW110325   3.323   1.131   6.072
 3291SOL    HW210326   3.190   1.204   6.076
 3292SOL     OW10327   2.375   0.205   6.462
 3292SOL    HW110328   2.397   0.218   6.554
 3292SOL    HW210329   2.398   0.288   6.421
 3293SOL     OW10330   2.861   1.445   6.053
 3293SOL    HW110331   2.831   1.519   6.002
 3293SOL    HW210332   2.835   1.466   6.143
 3294SOL     OW10333   2.215   1.813   6.457
 3294SOL    HW110334   2.259   1.729   6.462
 3294SOL    HW210335   2.285   1.877   6.473
 3295SOL     OW10336   3.664   1.051   6.459
 3295SOL    HW110337   3.612   1.030   6.381
 3295SOL    HW210338   3.599   1.058   6.529
 3296SOL     OW10339   3.088   1.541   7.098
 3296SOL    HW110340   3.077   1.469   7.160
 3296SOL    HW210341   3.020   1.529   7.033
 3297SOL     OW10342   2.174   0.961   5.841
 3297SOL    HW110343   2.257   0.980   5.797
 3297SOL    HW210344   2.146   0.877   5.804
 3298SOL     OW10345   3.345   0.751   6.307
 3298SOL    HW110346   3.341   0.713   6.395
 3298SOL    HW210347   3.423   0.807   6.308
 3299SOL     OW10348   2.332   1.267   7.324
 3299SOL    HW110349   2.306   1.273   7.232
 3299SOL    HW210350   2.249   1.264   7.372
 3300SOL     OW10351   2.988   1.779   5.813
 3300SOL    HW110352   2.910   1.741   5.856
 3300SOL    HW210353   3.012   1.715   5.746
 3301SOL     OW10354   2.061   0.276   7.096
 3301SOL    HW110355   1.983   0.332   7.099
 3301SOL    HW210356   2.054   0.220   7.173
 3302SOL     OW10357   3.490   1.383   5.678
 3302SOL    HW110358   3.449   1.468   5.662
 3302SOL    HW210359   3.423   1.319   5.656
 3303SOL     OW10360   2.326   1.733   5.908
 3303SOL    HW110361   2.372   1.793   5.967
 3303SOL    HW210362   2.394   1.703   5.847
 3304SOL     OW10363   3.272   0.105   6.019
 3304SOL    HW110364   3.265   0.078   5.927
 3304SOL    HW210365   3.366   0.121   6.032
 3305SOL     OW10366   2.118   1.790   6.813
 3305SOL    HW110367   2.168   1.720   6.856
 3305SOL    HW210368   2.111   1.762   6.722
 3306SOL     OW10369   2.802   1.699   6.481
 3306SOL    HW110370   2.882   1.652   6.502
 3306SOL    HW210371   2.762   1.648   6.410
 3307SOL     OW10372   2.258   0.696   6.058
 3307SOL    HW110373   2.275   0.603   6.072
 3307SOL    HW210374   2.164   0.706   6.075
 3308SOL     OW10375   3.391   0.228   7.306
 3308SOL    HW110376   3.401   0.244   7.400
 3308SOL    HW210377   3.315   0.171   7.300
 3309SOL     OW10378   2.487   0.129   5.696
 3309SOL    HW110379   2.530   0.051   5.731
 3309SOL    HW210380   2.435   0.096   5.623
 3310SOL     OW10381   2.636   0.312   7.355
 3310SOL    HW110382   2.701   0.241   7.356
 3310SOL    HW210383   2.596   0.308   7.442
 3311SOL     OW10384   2.736   1.522   6.781
 3311SOL    HW110385   2.720   1.484   6.694
 3311SOL    HW210386   2.806   1.468   6.817
 3312SOL     OW10387   3.201   0.590   7.019
 3312SOL    HW110388   3.231   0.559   7.104
 3312SOL    HW210389   3.237   0.678   7.010
 3313SOL     OW10390   2.680   1.387   6.533
 3313SOL    HW110391   2.766   1.377   6.491
 3313SOL    HW210392   2.619   1.396   6.460
 3314SOL     OW10393   2.791   0.513   6.487
 3314SOL    HW110394   2.765   0.504   6.395
 3314SOL    HW210395   2.818   0.424   6.512
 3315SOL     OW10396   2.410   0.061   6.090
 3315SOL    HW110397   2.327   0.056   6.138
 3315SOL    HW210398   2.396   0.129   6.024
 3316SOL     OW10399   3.290   1.202   5.624
 3316SOL    HW110400   3.320   1.126   5.676
 3316SOL    HW210401   3.205   1.224   5.661
 3317SOL     OW10402   2.163   0.068   5.782
 3317SOL    HW110403   2.221   0.142   5.765
 3317SOL    HW210404   2.218   5.291   5.771
 3318SOL     OW10405   2.804   0.274   6.048
 3318SOL    HW110406   2.776   0.305   5.962
 3318SOL    HW210407   2.899   0.281   6.046
 3319SOL     OW10408   2.944   0.687   7.041
 3319SOL    HW110409   2.878   0.617   7.045
 3319SOL    HW210410   3.027   0.641   7.036
 3320SOL     OW10411   3.079   1.574   6.382
 3320SOL    HW110412   3.094   1.638   6.312
 3320SOL    HW210413   3.150   1.590   6.445
 3321SOL     OW10414   2.335   1.154   6.311
 3321SOL    HW110415   2.269   1.133   6.377
 3321SOL    HW210416   2.290   1.142   6.227
 3322SOL     OW10417   3.125   1.791   6.199
 3322SOL    HW110418   3.173   1.853   6.145
 3322SOL    HW210419   3.056   1.844   6.240
 3323SOL     OW10420   2.888   0.541   5.609
 3323SOL    HW110421   2.844   0.625   5.593
 3323SOL    HW210422   2.949   0.559   5.681
 3324SOL     OW10423   1.947   0.551   6.981
 3324SOL    HW110424   2.038   0.553   6.952
 3324SOL    HW210425   1.940   0.622   7.045
 3325SOL     OW10426   2.411   0.238   6.744
 3325SOL    HW110427   2.446   0.155   6.777
 3325SOL    HW210428   2.320   0.239   6.773
 3326SOL     OW10429   2.725   0.468   6.228
 3326SOL    HW110430   2.680   0.523   6.164
 3326SOL    HW210431   2.752   0.390   6.178
 3327SOL     OW10432   2.842   0.064   6.355
 3327SOL    HW110433   2.779   0.066   6.282
 3327SOL    HW210434   2.853   5.271   6.374
 3328SOL     OW10435   3.302   1.160   6.442
 3328SOL    HW110436   3.230   1.097   6.443
 3328SOL    HW210437   3.326   1.167   6.350
 3329SOL     OW10438   3.327   0.613   6.553
 3329SOL    HW110439   3.272   0.535   6.556
 3329SOL    HW210440   3.385   0.604   6.629
 3330SOL     OW10441   3.701   0.810   5.971
 3330SOL    HW110442   3.759   0.762   6.029
 3330SOL    HW210443   3.677   0.747   5.903
 3331SOL     OW10444   2.351   1.421   5.736
 3331SOL    HW110445   2.275   1.393   5.787
 3331SOL    HW210446   2.347   1.369   5.656
 3332SOL     OW10447   3.540   1.265   6.227
 3332SOL    HW110448   3.635   1.264   6.242
 3332SOL    HW210449   3.513   1.354   6.249
 3333SOL     OW10450   3.255   0.574   5.657
 3333SOL    HW110451   3.193   0.552   5.727
 3333SOL    HW210452   3.340   0.547   5.691
 3334SOL     OW10453   2.380   0.266   5.903
 3334SOL    HW110454   2.431   0.221   5.837
 3334SOL    HW210455   2.356   0.350   5.862
 3335SOL     OW10456   3.609   1.242   7.144
 3335SOL    HW110457   3.697   1.205   7.136
 3335SOL    HW210458   3.624   1.332   7.176
 3336SOL     OW10459   2.916   1.353   6.917
 3336SOL    HW110460   2.840   1.322   6.967
 3336SOL    HW210461   2.991   1.312   6.959
 3337SOL     OW10462   3.472   1.628   7.242
 3337SOL    HW110463   3.464   1.662   7.153
 3337SOL    HW210464   3.553   1.577   7.241
 3338SOL     OW10465   2.999   1.212   6.688
 3338SOL    HW110466   2.938   1.249   6.752
 3338SOL    HW210467   2.969   1.247   6.604
 3339SOL     OW10468   3.484   1.095   6.661
 3339SOL    HW110469   3.477   1.159   6.733
 3339SOL    HW210470   3.409   1.114   6.605
 3340SOL     OW10471   2.761   0.110   6.963
 3340SOL    HW110472   2.792   0.076   6.880
 3340SOL    HW210473   2.838   0.151   7.003
 3341SOL     OW10474   2.846   1.114   7.313
 3341SOL    HW110475   2.755   1.131   7.335
 3341SOL    HW210476   2.844   1.036   7.257
 3342SOL     OW10477   2.573   1.063   5.957
 3342SOL    HW110478   2.558   1.042   6.049
 3342SOL    HW210479   2.648   1.009   5.932
 3343SOL     OW10480   2.284   0.821   6.838
 3343SOL    HW110481   2.352   0.830   6.905
 3343SOL    HW210482   2.249   0.733   6.851
 3344SOL     OW10483   3.125   0.375   6.866
 3344SOL    HW110484   3.159   0.453   6.911
 3344SOL    HW210485   3.035   0.398   6.841
 3345SOL     OW10486   1.938   1.574   6.944
 3345SOL    HW110487   1.910   1.645   6.886
 3345SOL    HW210488   2.033   1.572   6.935
 3346SOL     OW10489   2.196   1.120   6.075
 3346SOL    HW110490   2.200   1.194   6.014
 3346SOL    HW210491   2.195   1.043   6.019
 3347SOL     OW10492   2.410   0.530   6.445
 3347SOL    HW110493   2.423   0.589   6.371
 3347SOL    HW210494   2.477   0.555   6.509
 3348SOL     OW10495   3.109   1.350   5.977
 3348SOL    HW110496   3.165   1.421   6.009
 3348SOL    HW210497   3.022   1.372   6.010
 3349SOL     OW10498   3.154   1.461   6.735
 3349SOL    HW110499   3.208   1.467   6.813
 3349SOL    HW210500   3.098   1.384   6.749
 3350SOL     OW10501   3.438   0.620   6.069
 3350SOL    HW110502   3.389   0.667   6.137
 3350SOL    HW210503   3.483   0.689   6.020
 3351SOL     OW10504   2.207   1.530   6.895
 3351SOL    HW110505   2.197   1.485   6.811
 3351SOL    HW210506   2.302   1.541   6.904
 3352SOL     OW10507   2.282   0.744   7.191
 3352SOL    HW110508   2.343   0.789   7.132
 3352SOL    HW210509   2.325   0.661   7.212
 3353SOL     OW10510   3.472   0.780   7.274
 3353SOL    HW110511   3.386   0.822   7.268
 3353SOL    HW210512   3.524   0.823   7.206
 3354SOL     OW10513   2.909   0.123   7.377
 3354SOL    HW110514   2.946   0.201   7.335
 3354SOL    HW210515   2.921   0.054   7.312
 3355SOL     OW10516   2.344   0.062   7.325
 3355SOL    HW110517   2.278   5.297   7.300
 3355SOL    HW210518   2.294   0.140   7.349
 3356SOL     OW10519   2.448   0.875   6.619
 3356SOL    HW110520   2.482   0.964   6.621
 3356SOL    HW210521   2.391   0.869   6.695
 3357SOL     OW10522   3.206   0.859   6.605
 3357SOL    HW110523   3.120   0.842   6.568
 3357SOL    HW210524   3.253   0.776   6.595
 3358SOL     OW10525   3.061   0.526   5.848
 3358SOL    HW110526   3.069   0.446   5.900
 3358SOL    HW210527   3.019   0.589   5.905
 3359SOL     OW10528   2.152   0.200   6.837
 3359SOL    HW110529   2.112   0.239   6.915
 3359SOL    HW210530   2.158   0.107   6.856
 3360SOL     OW10531   1.909   1.312   6.859
 3360SOL    HW110532   1.940   1.256   6.930
 3360SOL    HW210533   1.914   1.401   6.895
 3361SOL     OW10534   2.582   0.630   6.640
 3361SOL    HW110535   2.659   0.617   6.583
 3361SOL    HW210536   2.553   0.719   6.621
 3362SOL     OW10537   3.603   0.960   7.445
 3362SOL    HW110538   3.558   0.893   7.395
 3362SOL    HW210539   3.544   0.979   7.518
 3363SOL     OW10540   2.188   0.069   6.260
 3363SOL    HW110541   2.150   0.157   6.255
 3363SOL    HW210542   2.249   0.074   6.334
 3364SOL     OW10543   3.483   0.384   5.938
 3364SOL    HW110544   3.511   0.315   5.999
 3364SOL    HW210545   3.459   0.457   5.994
 3365SOL     OW10546   2.892   0.759   6.544
 3365SOL    HW110547   2.882   0.776   6.638
 3365SOL    HW210548   2.864   0.669   6.532
 3366SOL     OW10549   2.842   1.565   7.307
 3366SOL    HW110550   2.826   1.609   7.224
 3366SOL    HW210551   2.887   1.484   7.283
 3367SOL     OW10552   3.712   1.500   7.189
 3367SOL    HW110553   3.735   1.528   7.100
 3367SOL    HW210554   3.793   1.513   7.239
 3368SOL     OW10555   2.214   0.915   7.396
 3368SOL    HW110556   2.295   0.936   7.442
 3368SOL    HW210557   2.240   0.852   7.329
 3369SOL     OW10558   3.383   0.267   5.709
 3369SOL    HW110559   3.317   0.208   5.745
 3369SOL    HW210560   3.422   0.309   5.786
 3370SOL     OW10561   3.148   0.825   5.613
 3370SOL    HW110562   3.190   0.739   5.619
 3370SOL    HW210563   3.181   0.863   5.532
 3371SOL     OW10564   2.932   1.340   6.444
 3371SOL    HW110565   2.937   1.268   6.381
 3371SOL    HW210566   2.989   1.408   6.408
 3372SOL     OW10567   2.171   0.809   6.532
 3372SOL    HW110568   2.264   0.829   6.524
 3372SOL    HW210569   2.168   0.718   6.562
 3373SOL     OW10570   2.189   0.530   6.599
 3373SOL    HW110571   2.152   0.443   6.586
 3373SOL    HW210572   2.266   0.532   6.542
 3374SOL     OW10573   2.998   0.373   7.280
 3374SOL    HW110574   2.950   0.428   7.341
 3374SOL    HW210575   3.084   0.414   7.273
 3375SOL     OW10576   2.990   0.217   7.056
 3375SOL    HW110577   2.992   0.277   7.131
 3375SOL    HW210578   3.045   0.259   6.990
 3376SOL     OW10579   1.870   1.316   5.780
 3376SOL    HW110580   1.782   1.333   5.744
 3376SOL    HW210581   1.865   1.227   5.815
 3377SOL     OW10582   1.952   1.781   6.528
 3377SOL    HW110583   1.921   1.704   6.481
 3377SOL    HW210584   2.041   1.795   6.496
 3378SOL     OW10585   2.352   1.574   6.490
 3378SOL    HW110586   2.422   1.635   6.515
 3378SOL    HW210587   2.395   1.511   6.431
 3379SOL     OW10588   2.833   0.787   6.809
 3379SOL    HW110589   2.894   0.769   6.881
 3379SOL    HW210590   2.751   0.747   6.836
 3380SOL     OW10591   1.898   0.548   6.704
 3380SOL    HW110592   1.976   0.537   6.650
 3380SOL    HW210593   1.930   0.550   6.794
 3381SOL     OW10594   2.046   0.527   7.319
 3381SOL    HW110595   2.114   0.490   7.262
 3381SOL    HW210596   2.013   0.602   7.271
 3382SOL     OW10597   3.244   0.932   7.243
 3382SOL    HW110598   3.265   1.025   7.239
 3382SOL    HW210599   3.239   0.904   7.151
 3383SOL     OW10600   2.675   0.578   5.958
 3383SOL    HW110601   2.685   0.505   5.897
 3383SOL    HW210602   2.600   0.627   5.926
 3384SOL     OW10603   3.502   0.601   6.764
 3384SOL    HW110604   3.491   0.543   6.839
 3384SOL    HW210605   3.590   0.583   6.732
 3385SOL     OW10606   2.097   1.548   7.308
 3385SOL    HW110607   2.079   1.614   7.375
 3385SOL    HW210608   2.108   1.466   7.356
 3386SOL     OW10609   2.576   0.444   6.837
 3386SOL    HW110610   2.517   0.374   6.809
 3386SOL    HW210611   2.569   0.510   6.768
 3387SOL     OW10612   2.783   1.678   7.058
 3387SOL    HW110613   2.758   1.639   6.974
 3387SOL    HW210614   2.778   1.773   7.042
 3388SOL     OW10615   2.317   0.491   5.758
 3388SOL    HW110616   2.379   0.558   5.785
 3388SOL    HW210617   2.233   0.537   5.754
 3389SOL     OW10618   2.001   1.143   7.061
 3389SOL    HW110619   2.004   1.097   7.144
 3389SOL    HW210620   2.019   1.076   6.995
 3390SOL     OW10621   3.181   1.042   6.804
 3390SOL    HW110622   3.202   0.979   6.736
 3390SOL    HW210623   3.116   1.100   6.765
 3391SOL     OW10624   3.179   0.857   5.889
 3391SOL    HW110625   3.106   0.824   5.941
 3391SOL    HW210626   3.152   0.843   5.798
 3392SOL     OW10627   3.642   1.735   6.744
 3392SOL    HW110628   3.702   1.761   6.674
 3392SOL    HW210629   3.614   1.647   6.720
 3393SOL     OW10630   3.102   1.732   6.689
 3393SOL    HW110631   3.185   1.757   6.649
 3393SOL    HW210632   3.112   1.639   6.711
 3394SOL     OW10633   1.950   1.265   6.595
 3394SOL    HW110634   1.932   1.280   6.688
 3394SOL    HW210635   1.878   1.209   6.565
 3395SOL     OW10636   2.540   1.670   7.325
 3395SOL    HW110637   2.483   1.748   7.321
 3395SOL    HW210638   2.612   1.691   7.266
 3396SOL     OW10639   3.571   0.156   6.078
 3396SOL    HW110640   3.647   0.137   6.023
 3396SOL    HW210641   3.569   0.085   6.142
 3397SOL     OW10642   3.256   1.568   6.078
 3397SOL    HW110643   3.313   1.602   6.010
 3397SOL    HW210644   3.204   1.643   6.107
 3398SOL     OW10645   2.003   1.794   7.430
 3398SOL    HW110646   1.952   1.729   7.478
 3398SOL    HW210647   2.051   1.842   7.498
 3399SOL     OW10648   3.140   0.929   6.256
 3399SOL    HW110649   3.214   0.869   6.267
 3399SOL    HW210650   3.174   1.000   6.203
 3400SOL     OW10651   2.665   1.277   7.009
 3400SOL    HW110652   2.638   1.319   7.091
 3400SOL    HW210653   2.595   1.297   6.947
 3401SOL     OW10654   2.532   1.622   5.743
 3401SOL    HW110655   2.543   1.641   5.649
 3401SOL    HW210656   2.475   1.546   5.745
 3402SOL     OW10657   3.481   1.728   6.977
 3402SOL    HW110658   3.535   1.733   6.898
 3402SOL    HW210659   3.466   1.820   7.002
 3403SOL     OW10660   3.710   0.145   6.541
 3403SOL    HW110661   3.696   0.052   6.556
 3403SOL    HW210662   3.626   0.176   6.507
 3404SOL     OW10663   2.115   0.328   6.301
 3404SOL    HW110664   2.028   0.361   6.281
 3404SOL    HW210665   2.117   0.320   6.396
 3405SOL     OW10666   3.070   1.600   5.619
 3405SOL    HW110667   3.059   1.509   5.647
 3405SOL    HW210668   3.003   1.613   5.552
 3406SOL     OW10669   2.685   1.008   6.961
 3406SOL    HW110670   2.728   1.001   6.876
 3406SOL    HW210671   2.681   1.102   6.979
 3407SOL     OW10672   2.780   0.911   5.878
 3407SOL    HW110673   2.839   0.944   5.811
 3407SOL    HW210674   2.829   0.842   5.923
 3408SOL     OW10675   3.350   1.631   5.632
 3408SOL    HW110676   3.256   1.619   5.616
 3408SOL    HW210677   3.388   1.636   5.544
 3409SOL     OW10678   2.228   1.306   7.079
 3409SOL    HW110679   2.216   1.381   7.021
 3409SOL    HW210680   2.151   1.251   7.063
 3410SOL     OW10681   3.469   1.285   6.865
 3410SOL    HW110682   3.527   1.267   6.940
 3410SOL    HW210683   3.409   1.352   6.898
 3411SOL     OW10684   2.925   1.111   6.299
 3411SOL    HW110685   2.852   1.061   6.334
 3411SOL    HW210686   2.989   1.045   6.272
 3412SOL     OW10687   2.879   0.247   6.559
 3412SOL    HW110688   2.860   0.202   6.477
 3412SOL    HW210689   2.874   0.178   6.626
 3413SOL     OW10690   2.468   1.488   6.066
 3413SOL    HW110691   2.518   1.438   6.001
 3413SOL    HW210692   2.396   1.527   6.016
 3414SOL     OW10693   3.594   0.383   6.965
 3414SOL    HW110694   3.665   0.447   6.962
 3414SOL    HW210695   3.622   0.314   6.905
 3415SOL     OW10696   2.125   1.342   5.878
 3415SOL    HW110697   2.032   1.338   5.854
 3415SOL    HW210698   2.125   1.382   5.965
 3416SOL     OW10699   1.978   1.035   7.312
 3416SOL    HW110700   1.901   1.007   7.362
 3416SOL    HW210701   2.051   0.990   7.355
 3417SOL     OW10702   2.536   0.219   7.083
 3417SOL    HW110703   2.617   0.204   7.035
 3417SOL    HW210704   2.563   0.266   7.162
 3418SOL     OW10705   1.943   0.333   5.627
 3418SOL    HW110706   1.859   0.300   5.595
 3418SOL    HW210707   1.961   0.409   5.573
 3419SOL     OW10708   3.286   0.857   6.982
 3419SOL    HW110709   3.236   0.918   6.928
 3419SOL    HW210710   3.375   0.860   6.946
 3420SOL     OW10711   1.929   0.167   5.895
 3420SOL    HW110712   1.935   0.249   5.846
 3420SOL    HW210713   2.013   0.124   5.880
 3421SOL     OW10714   3.040   1.333   5.704
 3421SOL    HW110715   2.949   1.304   5.705
 3421SOL    HW210716   3.066   1.335   5.796
 3422SOL     OW10717   2.483   0.832   7.021
 3422SOL    HW110718   2.540   0.907   7.007
 3422SOL    HW210719   2.543   0.757   7.027
 3423SOL     OW10720   3.345   1.786   6.570
 3423SOL    HW110721   3.368   1.853   6.505
 3423SOL    HW210722   3.430   1.757   6.604
 3424SOL     OW10723   2.573   0.573   7.282
 3424SOL    HW110724   2.619   0.634   7.339
 3424SOL    HW210725   2.597   0.487   7.316
 3425SOL     OW10726   3.335   1.193   7.215
 3425SOL    HW110727   3.324   1.209   7.308
 3425SOL    HW210728   3.427   1.213   7.198
 3426SOL     OW10729   2.230   1.741   7.151
 3426SOL    HW110730   2.148   1.788   7.137
 3426SOL    HW210731   2.205   1.658   7.191
 3427SOL     OW10732   3.525   0.879   6.841
 3427SOL    HW110733   3.522   0.794   6.797
 3427SOL    HW210734   3.515   0.943   6.770
 3428SOL     OW10735   3.083   0.317   6.047
 3428SOL    HW110736   3.144   0.244   6.043
 3428SOL    HW210737   3.113   0.369   6.122
 3429SOL     OW10738   2.447   0.734   6.261
 3429SOL    HW110739   2.488   0.819   6.246
 3429SOL    HW210740   2.383   0.725   6.190
 3430SOL     OW10741   3.623   0.360   7.238
 3430SOL    HW110742   3.609   0.378   7.145
 3430SOL    HW210743   3.548   0.308   7.265
 3431SOL     OW10744   3.612   0.933   7.097
 3431SOL    HW110745   3.599   1.026   7.110
 3431SOL    HW210746   3.592   0.919   7.004
 3432SOL     OW10747   2.726   1.366   5.631
 3432SOL    HW110748   2.688   1.393   5.714
 3432SOL    HW210749   2.740   1.448   5.583
 3433SOL     OW10750   2.528   1.778   6.525
 3433SOL    HW110751   2.509   1.869   6.503
 3433SOL    HW210752   2.623   1.771   6.519
 3434SOL     OW10753   2.732   0.972   6.440
 3434SOL    HW110754   2.782   0.899   6.477
 3434SOL    HW210755   2.692   1.015   6.515
 3435SOL     OW10756   2.938   0.989   5.675
 3435SOL    HW110757   2.918   1.041   5.597
 3435SOL    HW210758   3.012   0.934   5.648
 3436SOL     OW10759   3.707   1.553   6.427
 3436SOL    HW110760   3.628   1.541   6.375
 3436SOL    HW210761   3.698   1.490   6.499
 3437SOL     OW10762   2.086   1.297   7.439
 3437SOL    HW110763   2.030   1.229   7.400
 3437SOL    HW210764   2.048   1.313   7.525
 3438SOL     OW10765   1.953   1.228   6.251
 3438SOL    HW110766   1.967   1.184   6.335
 3438SOL    HW210767   2.019   1.191   6.193
 3439SOL     OW10768   2.547   1.409   7.218
 3439SOL    HW110769   2.468   1.367   7.252
 3439SOL    HW210770   2.545   1.497   7.253
 3440SOL     OW10771   3.665   0.172   6.813
 3440SOL    HW110772   3.627   0.084   6.808
 3440SOL    HW210773   3.696   0.190   6.725
 3441SOL     OW10774   2.291   0.436   6.112
 3441SOL    HW110775   2.325   0.364   6.059
 3441SOL    HW210776   2.240   0.394   6.181
 3442SOL     OW10777   3.559   1.485   6.676
 3442SOL    HW110778   3.480   1.466   6.626
 3442SOL    HW210779   3.563   1.416   6.742
 3443SOL     OW10780   2.196   0.563   6.877
 3443SOL    HW110781   2.250   0.505   6.931
 3443SOL    HW210782   2.213   0.535   6.787
 3444SOL     OW10783   2.695   1.581   6.258
 3444SOL    HW110784   2.673   1.650   6.196
 3444SOL    HW210785   2.619   1.522   6.257
 3445SOL     OW10786   3.287   0.223   6.702
 3445SOL    HW110787   3.322   0.147   6.748
 3445SOL    HW210788   3.238   0.271   6.768
 3446SOL     OW10789   2.864   0.018   6.719
 3446SOL    HW110790   2.813   5.251   6.674
 3446SOL    HW210791   2.948   5.276   6.736
 3447SOL     OW10792   2.636   1.333   5.908
 3447SOL    HW110793   2.610   1.242   5.916
 3447SOL    HW210794   2.718   1.339   5.958
 3448SOL     OW10795   2.482   1.555   6.872
 3448SOL    HW110796   2.480   1.638   6.920
 3448SOL    HW210797   2.570   1.549   6.836
 3449SOL     OW10798   3.220   0.029   5.755
 3449SOL    HW110799   3.274   5.288   5.688
 3449SOL    HW210800   3.141   5.275   5.757
 3450SOL     OW10801   3.163   0.466   6.266
 3450SOL    HW110802   3.110   0.545   6.269
 3450SOL    HW210803   3.154   0.428   6.354
 3451SOL     OW10804   3.458   0.214   6.473
 3451SOL    HW110805   3.395   0.227   6.543
 3451SOL    HW210806   3.451   0.293   6.419
 3452SOL     OW10807   1.904   1.064   5.895
 3452SOL    HW110808   1.997   1.056   5.876
 3452SOL    HW210809   1.876   0.975   5.916
 3453SOL     OW10810   2.752   1.660   5.919
 3453SOL    HW110811   2.677   1.643   5.862
 3453SOL    HW210812   2.722   1.728   5.979
 3454SOL     OW10813   2.080   0.624   7.578
 3454SOL    HW110814   1.991   0.629   7.613
 3454SOL    HW210815   2.068   0.603   7.486
 3455SOL     OW10816   3.638   0.591   7.677
 3455SOL    HW110817   3.613   0.587   7.585
 3455SOL    HW210818   3.597   0.513   7.716
 3456SOL     OW10819   2.083   1.714   7.919
 3456SOL    HW110820   2.109   1.748   8.004
 3456SOL    HW210821   2.163   1.715   7.867
 3457SOL     OW10822   2.074   1.441   7.996
 3457SOL    HW110823   2.061   1.535   7.984
 3457SOL    HW210824   2.015   1.417   8.068
 3458SOL     OW10825   2.440   0.986   7.582
 3458SOL    HW110826   2.488   1.030   7.512
 3458SOL    HW210827   2.480   1.018   7.663
 3459SOL     OW10828   3.701   1.755   7.795
 3459SOL    HW110829   3.775   1.728   7.850
 3459SOL    HW210830   3.723   1.845   7.769
 3460SOL     OW10831   1.896   1.597   7.577
 3460SOL    HW110832   1.881   1.504   7.593
 3460SOL    HW210833   1.869   1.640   7.658
 3461SOL     OW10834   3.547   0.854   8.022
 3461SOL    HW110835   3.620   0.868   0.002
 3461SOL    HW210836   3.529   0.941   7.987
 3462SOL     OW10837   3.520   1.095   7.883
 3462SOL    HW110838   3.608   1.123   7.858
 3462SOL    HW210839   3.485   1.169   7.934
 3463SOL     OW10840   2.673   5.274   7.936
 3463SOL    HW110841   2.721   0.056   7.925
 3463SOL    HW210842   2.581   5.300   7.940
 3464SOL     OW10843   3.398   1.001   7.653
 3464SOL    HW110844   3.328   0.944   7.686
 3464SOL    HW210845   3.443   1.032   7.731
 3465SOL     OW10846   2.448   0.721   7.707
 3465SOL    HW110847   2.448   0.807   7.664
 3465SOL    HW210848   2.392   0.732   7.784
 3466SOL     OW10849   3.435   1.675   7.758
 3466SOL    HW110850   3.527   1.699   7.766
 3466SOL    HW210851   3.422   1.662   7.664
 3467SOL     OW10852   1.917   0.864   0.081
 3467SOL    HW110853   1.978   0.793   0.099
 3467SOL    HW210854   1.932   0.928   0.151
 3468SOL     OW10855   2.749   0.370   7.636
 3468SOL    HW110856   2.782   0.427   7.567
 3468SOL    HW210857   2.817   0.304   7.648
 3469SOL     OW10858   2.180   0.958   7.700
 3469SOL    HW110859   2.260   0.974   7.649
 3469SOL    HW210860   2.142   0.880   7.661
 3470SOL     OW10861   2.993   1.775   7.682
 3470SOL    HW110862   2.912   1.740   7.719
 3470SOL    HW210863   3.018   1.713   7.614
 3471SOL     OW10864   3.491   1.383   7.538
 3471SOL    HW110865   3.449   1.468   7.523
 3471SOL    HW210866   3.423   1.319   7.518
 3472SOL     OW10867   2.327   1.738   7.773
 3472SOL    HW110868   2.380   1.792   7.832
 3472SOL    HW210869   2.389   1.699   7.712
 3473SOL     OW10870   3.283   0.108   7.891
 3473SOL    HW110871   3.279   0.079   7.800
 3473SOL    HW210872   3.376   0.116   7.910
 3474SOL     OW10873   2.257   0.697   7.918
 3474SOL    HW110874   2.250   0.603   7.933
 3474SOL    HW210875   2.167   0.729   7.921
 3475SOL     OW10876   2.481   0.131   7.564
 3475SOL    HW110877   2.535   0.057   7.593
 3475SOL    HW210878   2.430   0.096   7.491
 3476SOL     OW10879   2.417   0.067   7.949
 3476SOL    HW110880   2.326   0.045   7.969
 3476SOL    HW210881   2.411   0.142   7.889
 3477SOL     OW10882   3.290   1.201   7.488
 3477SOL    HW110883   3.320   1.128   7.542
 3477SOL    HW210884   3.205   1.224   7.524
 3478SOL     OW10885   2.167   0.084   7.669
 3478SOL    HW110886   2.208   0.144   7.607
 3478SOL    HW210887   2.214   0.001   7.657
 3479SOL     OW10888   2.811   0.217   7.903
 3479SOL    HW110889   2.761   0.293   7.874
 3479SOL    HW210890   2.900   0.250   7.915
 3480SOL     OW10891   2.291   1.144   0.099
 3480SOL    HW110892   2.224   1.199   0.140
 3480SOL    HW210893   2.264   1.139   0.007
 3481SOL     OW10894   3.157   1.818   8.012
 3481SOL    HW110895   3.196   1.887   7.958
 3481SOL    HW210896   3.064   1.842   8.016
 3482SOL     OW10897   2.888   0.541   7.470
 3482SOL    HW110898   2.842   0.623   7.456
 3482SOL    HW210899   2.944   0.557   7.546
 3483SOL     OW10900   3.738   0.810   7.806
 3483SOL    HW110901   3.696   0.806   7.891
 3483SOL    HW210902   3.703   0.735   7.758
 3484SOL     OW10903   2.345   1.420   7.598
 3484SOL    HW110904   2.272   1.391   7.653
 3484SOL    HW210905   2.339   1.366   7.519
 3485SOL     OW10906   3.254   0.573   7.519
 3485SOL    HW110907   3.191   0.549   7.586
 3485SOL    HW210908   3.338   0.542   7.553
 3486SOL     OW10909   2.388   0.279   7.775
 3486SOL    HW110910   2.429   0.227   7.707
 3486SOL    HW210911   2.361   0.360   7.730
 3487SOL     OW10912   2.576   1.064   7.809
 3487SOL    HW110913   2.545   1.043   7.897
 3487SOL    HW210914   2.654   1.009   7.797
 3488SOL     OW10915   2.223   1.119   7.919
 3488SOL    HW110916   2.200   1.196   7.866
 3488SOL    HW210917   2.211   1.045   7.860
 3489SOL     OW10918   3.078   1.358   7.822
 3489SOL    HW110919   3.132   1.434   7.840
 3489SOL    HW210920   3.071   1.312   7.905
 3490SOL     OW10921   3.449   0.616   7.916
 3490SOL    HW110922   3.445   0.674   7.993
 3490SOL    HW210923   3.477   0.674   7.845
 3491SOL     OW10924   3.060   0.519   7.709
 3491SOL    HW110925   3.061   0.433   7.751
 3491SOL    HW210926   3.044   0.580   7.780
 3492SOL     OW10927   3.486   0.375   7.804
 3492SOL    HW110928   3.506   0.306   7.868
 3492SOL    HW210929   3.460   0.450   7.858
 3493SOL     OW10930   3.388   0.269   7.572
 3493SOL    HW110931   3.330   0.199   7.603
 3493SOL    HW210932   3.425   0.307   7.651
 3494SOL     OW10933   3.150   0.826   7.477
 3494SOL    HW110934   3.191   0.739   7.480
 3494SOL    HW210935   3.183   0.864   7.396
 3495SOL     OW10936   1.873   1.321   7.636
 3495SOL    HW110937   1.785   1.336   7.602
 3495SOL    HW210938   1.871   1.232   7.671
 3496SOL     OW10939   2.713   0.630   7.746
 3496SOL    HW110940   2.712   0.536   7.726
 3496SOL    HW210941   2.620   0.654   7.752
 3497SOL     OW10942   2.314   0.494   7.625
 3497SOL    HW110943   2.377   0.563   7.646
 3497SOL    HW210944   2.230   0.539   7.617
 3498SOL     OW10945   3.177   0.859   7.749
 3498SOL    HW110946   3.092   0.871   7.790
 3498SOL    HW210947   3.158   0.843   7.657
 3499SOL     OW10948   3.573   0.139   7.939
 3499SOL    HW110949   3.645   0.138   7.876
 3499SOL    HW210950   3.607   0.094   8.016
 3500SOL     OW10951   3.218   1.581   7.891
 3500SOL    HW110952   3.294   1.599   7.837
 3500SOL    HW210953   3.190   1.667   7.923
 3501SOL     OW10954   2.525   1.622   7.604
 3501SOL    HW110955   2.538   1.638   7.511
 3501SOL    HW210956   2.469   1.544   7.607
 3502SOL     OW10957   3.073   1.603   7.479
 3502SOL    HW110958   3.059   1.512   7.506
 3502SOL    HW210959   3.006   1.619   7.413
 3503SOL     OW10960   2.786   0.901   7.761
 3503SOL    HW110961   2.838   0.921   7.683
 3503SOL    HW210962   2.773   0.806   7.756
 3504SOL     OW10963   3.353   1.632   7.490
 3504SOL    HW110964   3.259   1.620   7.476
 3504SOL    HW210965   3.390   1.636   7.402
 3505SOL     OW10966   2.482   1.515   7.938
 3505SOL    HW110967   2.529   1.455   7.880
 3505SOL    HW210968   2.400   1.532   7.892
 3506SOL     OW10969   2.125   1.341   7.753
 3506SOL    HW110970   2.035   1.338   7.720
 3506SOL    HW210971   2.117   1.379   7.840
 3507SOL     OW10972   1.938   0.334   7.487
 3507SOL    HW110973   1.856   0.305   7.447
 3507SOL    HW210974   1.962   0.412   7.437
 3508SOL     OW10975   1.919   0.184   7.736
 3508SOL    HW110976   1.919   0.258   7.675
 3508SOL    HW210977   2.004   0.142   7.722
 3509SOL     OW10978   3.031   1.334   7.555
 3509SOL    HW110979   2.938   1.313   7.551
 3509SOL    HW210980   3.050   1.340   7.649
 3510SOL     OW10981   3.081   0.313   7.916
 3510SOL    HW110982   3.151   0.247   7.911
 3510SOL    HW210983   3.102   0.362   7.995
 3511SOL     OW10984   2.501   0.746   8.041
 3511SOL    HW110985   2.496   0.817   0.025
 3511SOL    HW210986   2.412   0.735   8.010
 3512SOL     OW10987   2.729   1.367   7.495
 3512SOL    HW110988   2.687   1.399   7.576
 3512SOL    HW210989   2.744   1.446   7.443
 3513SOL     OW10990   2.926   0.969   7.537
 3513SOL    HW110991   2.910   1.031   7.467
 3513SOL    HW210992   3.005   0.922   7.511
 3514SOL     OW10993   2.250   0.426   7.987
 3514SOL    HW110994   2.306   0.373   7.931
 3514SOL    HW210995   2.295   0.429   8.071
 3515SOL     OW10996   2.628   1.339   7.775
 3515SOL    HW110997   2.598   1.248   7.774
 3515SOL    HW210998   2.715   1.336   7.814
 3516SOL     OW10999   3.232   0.038   7.620
 3516SOL    HW111000   3.234   5.272   7.551
 3516SOL    HW211001   3.140   0.045   7.644
 3517SOL     OW11002   1.917   1.075   7.747
 3517SOL    HW111003   2.012   1.067   7.736
 3517SOL    HW211004   1.888   0.985   7.762
 3518SOL     OW11005   2.756   1.663   7.773
 3518SOL    HW111006   2.678   1.637   7.724
 3518SOL    HW211007   2.723   1.720   7.842
 3519SOL     OW11008   2.071   2.473   0.124
 3519SOL    HW111009   1.989   2.452   0.169
 3519SOL    HW211010   2.078   2.408   0.055
 3520SOL     OW11011   2.085   2.146   0.993
 3520SOL    HW111012   2.113   2.110   1.077
 3520SOL    HW211013   1.996   2.114   0.981
 3521SOL     OW11014   1.858   2.245   0.640
 3521SOL    HW111015   1.778   2.273   0.683
 3521SOL    HW211016   1.833   2.167   0.590
 3522SOL     OW11017   2.429   3.158   1.183
 3522SOL    HW111018   2.344   3.169   1.140
 3522SOL    HW211019   2.448   3.245   1.220
 3523SOL     OW11020   3.434   3.377   0.710
 3523SOL    HW111021   3.390   3.354   0.792
 3523SOL    HW211022   3.363   3.381   0.646
 3524SOL     OW11023   3.026   2.537   0.745
 3524SOL    HW111024   3.042   2.624   0.709
 3524SOL    HW211025   2.932   2.536   0.764
 3525SOL     OW11026   3.634   2.458   0.230
 3525SOL    HW111027   3.589   2.466   0.146
 3525SOL    HW211028   3.595   2.381   0.271
 3526SOL     OW11029   2.634   3.019   1.056
 3526SOL    HW111030   2.555   3.041   1.105
 3526SOL    HW211031   2.657   3.101   1.011
 3527SOL     OW11032   2.570   3.036   1.838
 3527SOL    HW111033   2.625   3.113   1.855
 3527SOL    HW211034   2.499   3.070   1.783
 3528SOL     OW11035   2.192   3.281   1.066
 3528SOL    HW111036   2.119   3.240   1.020
 3528SOL    HW211037   2.238   3.331   0.999
 3529SOL     OW11038   3.320   3.364   1.362
 3529SOL    HW111039   3.374   3.443   1.372
 3529SOL    HW211040   3.251   3.375   1.427
 3530SOL     OW11041   2.316   2.260   1.493
 3530SOL    HW111042   2.392   2.202   1.494
 3530SOL    HW211043   2.242   2.201   1.509
 3531SOL     OW11044   3.467   2.303   0.746
 3531SOL    HW111045   3.393   2.318   0.688
 3531SOL    HW211046   3.464   2.376   0.809
 3532SOL     OW11047   2.085   3.578   0.467
 3532SOL    HW111048   2.104   3.652   0.524
 3532SOL    HW211049   2.162   3.571   0.411
 3533SOL     OW11050   3.005   3.209   1.698
 3533SOL    HW111051   3.044   3.202   1.785
 3533SOL    HW211052   2.953   3.129   1.688
 3534SOL     OW11053   2.083   3.307   0.531
 3534SOL    HW111054   2.074   3.402   0.529
 3534SOL    HW211055   2.029   3.280   0.605
 3535SOL     OW11056   2.122   2.954   0.883
 3535SOL    HW111057   2.120   2.868   0.925
 3535SOL    HW211058   2.071   3.010   0.941
 3536SOL     OW11059   2.461   3.658   1.425
 3536SOL    HW111060   2.381   3.638   1.474
 3536SOL    HW211061   2.487   3.745   1.454
 3537SOL     OW11062   2.456   2.856   0.106
 3537SOL    HW111063   2.402   2.933   0.087
 3537SOL    HW211064   2.508   2.881   0.182
 3538SOL     OW11065   3.457   1.990   1.463
 3538SOL    HW111066   3.483   2.070   1.418
 3538SOL    HW211067   3.436   2.019   1.552
 3539SOL     OW11068   1.981   2.509   0.569
 3539SOL    HW111069   1.942   2.424   0.591
 3539SOL    HW211070   1.970   2.562   0.648
 3540SOL     OW11071   3.713   3.615   0.323
 3540SOL    HW111072   3.782   3.588   0.384
 3540SOL    HW211073   3.733   3.707   0.304
 3541SOL     OW11074   1.904   3.452   0.108
 3541SOL    HW111075   1.885   3.366   0.144
 3541SOL    HW211076   1.883   3.513   0.179
 3542SOL     OW11077   3.552   2.782   0.649
 3542SOL    HW111078   3.633   2.736   0.626
 3542SOL    HW211079   3.531   2.834   0.571
 3543SOL     OW11080   3.511   2.963   0.434
 3543SOL    HW111081   3.594   2.969   0.387
 3543SOL    HW211082   3.519   3.027   0.505
 3544SOL     OW11083   1.972   2.605   1.586
 3544SOL    HW111084   2.061   2.637   1.596
 3544SOL    HW211085   1.918   2.684   1.584
 3545SOL     OW11086   2.482   3.256   0.732
 3545SOL    HW111087   2.438   3.172   0.742
 3545SOL    HW211088   2.464   3.282   0.641
 3546SOL     OW11089   3.146   3.094   1.423
 3546SOL    HW111090   3.177   3.028   1.361
 3546SOL    HW211091   3.207   3.090   1.496
 3547SOL     OW11092   2.684   1.873   0.518
 3547SOL    HW111093   2.722   1.957   0.491
 3547SOL    HW211094   2.590   1.890   0.521
 3548SOL     OW11095   2.042   2.825   1.281
 3548SOL    HW111096   2.128   2.785   1.269
 3548SOL    HW211097   1.985   2.780   1.218
 3549SOL     OW11098   3.356   2.875   0.221
 3549SOL    HW111099   3.313   2.795   0.252
 3549SOL    HW211100   3.415   2.900   0.293
 3550SOL     OW11101   3.045   3.676   1.626
 3550SOL    HW111102   3.050   3.737   1.553
 3550SOL    HW211103   3.062   3.590   1.587
 3551SOL     OW11104   2.201   2.106   1.825
 3551SOL    HW111105   2.242   2.191   1.841
 3551SOL    HW211106   2.109   2.118   1.849
 3552SOL     OW11107   3.330   3.282   0.948
 3552SOL    HW111108   3.263   3.298   1.014
 3552SOL    HW211109   3.317   3.191   0.922
 3553SOL     OW11110   3.516   3.619   0.582
 3553SOL    HW111111   3.495   3.586   0.494
 3553SOL    HW211112   3.499   3.545   0.640
 3554SOL     OW11113   3.146   2.220   0.934
 3554SOL    HW111114   3.056   2.188   0.942
 3554SOL    HW211115   3.196   2.168   0.996
 3555SOL     OW11116   3.450   3.534   0.324
 3555SOL    HW111117   3.542   3.558   0.314
 3555SOL    HW211118   3.420   3.517   0.235
 3556SOL     OW11119   3.259   2.338   1.673
 3556SOL    HW111120   3.260   2.381   1.758
 3556SOL    HW211121   3.314   2.260   1.685
 3557SOL     OW11122   2.851   2.276   1.251
 3557SOL    HW111123   2.759   2.274   1.276
 3557SOL    HW211124   2.852   2.257   1.157
 3558SOL     OW11125   1.949   2.683   0.778
 3558SOL    HW111126   2.028   2.678   0.832
 3558SOL    HW211127   1.902   2.760   0.812
 3559SOL     OW11128   1.985   3.735   1.584
 3559SOL    HW111129   1.990   3.712   1.677
 3559SOL    HW211130   1.902   3.699   1.555
 3560SOL     OW11131   2.759   2.213   0.204
 3560SOL    HW111132   2.810   2.262   0.140
 3560SOL    HW211133   2.754   2.124   0.170
 3561SOL     OW11134   3.563   2.431   1.831
 3561SOL    HW111135   3.530   2.506   1.781
 3561SOL    HW211136   3.592   2.369   1.765
 3562SOL     OW11137   3.237   2.995   0.533
 3562SOL    HW111138   3.321   2.992   0.487
 3562SOL    HW211139   3.187   3.064   0.488
 3563SOL     OW11140   2.408   2.030   0.894
 3563SOL    HW111141   2.410   2.053   0.987
 3563SOL    HW211142   2.406   2.115   0.849
 3564SOL     OW11143   2.856   3.305   0.467
 3564SOL    HW111144   2.828   3.382   0.417
 3564SOL    HW211145   2.832   3.326   0.558
 3565SOL     OW11146   2.216   3.676   0.872
 3565SOL    HW111147   2.261   3.592   0.877
 3565SOL    HW211148   2.284   3.741   0.891
 3566SOL     OW11149   3.664   2.912   0.875
 3566SOL    HW111150   3.611   2.891   0.797
 3566SOL    HW211151   3.600   2.919   0.946
 3567SOL     OW11152   3.087   3.402   1.512
 3567SOL    HW111153   3.077   3.332   1.576
 3567SOL    HW211154   3.021   3.383   1.445
 3568SOL     OW11155   2.194   2.800   0.260
 3568SOL    HW111156   2.263   2.814   0.194
 3568SOL    HW211157   2.205   2.709   0.287
 3569SOL     OW11158   3.339   2.617   0.718
 3569SOL    HW111159   3.337   2.574   0.804
 3569SOL    HW211160   3.418   2.671   0.721
 3570SOL     OW11161   2.329   3.136   1.737
 3570SOL    HW111162   2.302   3.139   1.645
 3570SOL    HW211163   2.246   3.131   1.785
 3571SOL     OW11164   2.969   3.644   0.219
 3571SOL    HW111165   2.908   3.604   0.280
 3571SOL    HW211166   2.994   3.573   0.160
 3572SOL     OW11167   2.064   2.134   1.507
 3572SOL    HW111168   1.980   2.180   1.508
 3572SOL    HW211169   2.045   2.048   1.545
 3573SOL     OW11170   3.497   3.232   0.085
 3573SOL    HW111171   3.456   3.318   0.086
 3573SOL    HW211172   3.425   3.171   0.064
 3574SOL     OW11173   2.326   3.597   0.324
 3574SOL    HW111174   2.371   3.657   0.383
 3574SOL    HW211175   2.394   3.569   0.262
 3575SOL     OW11176   3.269   1.973   0.452
 3575SOL    HW111177   3.264   1.950   0.359
 3575SOL    HW211178   3.362   1.980   0.470
 3576SOL     OW11179   2.118   3.651   1.227
 3576SOL    HW111180   2.168   3.581   1.269
 3576SOL    HW211181   2.112   3.625   1.136
 3577SOL     OW11182   2.798   3.565   0.895
 3577SOL    HW111183   2.874   3.514   0.925
 3577SOL    HW211184   2.760   3.513   0.825
 3578SOL     OW11185   2.235   2.547   0.448
 3578SOL    HW111186   2.275   2.467   0.484
 3578SOL    HW211187   2.147   2.549   0.486
 3579SOL     OW11188   3.388   2.086   1.723
 3579SOL    HW111189   3.399   2.107   1.816
 3579SOL    HW211190   3.319   2.020   1.721
 3580SOL     OW11191   2.492   1.977   0.143
 3580SOL    HW111192   2.586   1.964   0.150
 3580SOL    HW211193   2.471   1.955   0.052
 3581SOL     OW11194   2.620   2.106   1.745
 3581SOL    HW111195   2.704   2.062   1.745
 3581SOL    HW211196   2.616   2.152   1.829
 3582SOL     OW11197   2.738   3.390   1.197
 3582SOL    HW111198   2.720   3.352   1.111
 3582SOL    HW211199   2.805   3.332   1.234
 3583SOL     OW11200   3.203   2.456   1.429
 3583SOL    HW111201   3.234   2.424   1.514
 3583SOL    HW211202   3.241   2.543   1.421
 3584SOL     OW11203   2.682   3.267   0.944
 3584SOL    HW111204   2.766   3.250   0.901
 3584SOL    HW211205   2.619   3.267   0.872
 3585SOL     OW11206   2.745   2.338   0.900
 3585SOL    HW111207   2.740   2.330   0.805
 3585SOL    HW211208   2.805   2.269   0.928
 3586SOL     OW11209   2.415   1.928   0.499
 3586SOL    HW111210   2.336   1.923   0.553
 3586SOL    HW211211   2.403   2.006   0.446
 3587SOL     OW11212   3.291   3.062   0.034
 3587SOL    HW111213   3.312   2.990   0.093
 3587SOL    HW211214   3.205   3.093   0.062
 3588SOL     OW11215   2.177   1.925   0.179
 3588SOL    HW111216   2.243   1.991   0.198
 3588SOL    HW211217   2.211   1.844   0.217
 3589SOL     OW11218   2.804   2.118   0.456
 3589SOL    HW111219   2.781   2.153   0.370
 3589SOL    HW211220   2.899   2.129   0.461
 3590SOL     OW11221   2.925   2.500   1.459
 3590SOL    HW111222   2.898   2.423   1.408
 3590SOL    HW211223   3.021   2.500   1.452
 3591SOL     OW11224   3.083   3.432   0.793
 3591SOL    HW111225   3.095   3.499   0.726
 3591SOL    HW211226   3.149   3.452   0.859
 3592SOL     OW11227   2.331   3.029   0.721
 3592SOL    HW111228   2.267   3.000   0.786
 3592SOL    HW211229   2.293   3.003   0.637
 3593SOL     OW11230   3.125   3.654   0.613
 3593SOL    HW111231   3.177   3.718   0.565
 3593SOL    HW211232   3.054   3.705   0.653
 3594SOL     OW11233   2.924   2.359   0.035
 3594SOL    HW111234   2.889   2.443   0.004
 3594SOL    HW211235   2.978   2.382   0.110
 3595SOL     OW11236   1.946   2.416   1.391
 3595SOL    HW111237   2.039   2.416   1.368
 3595SOL    HW211238   1.938   2.486   1.456
 3596SOL     OW11239   2.412   2.062   1.167
 3596SOL    HW111240   2.450   1.988   1.215
 3596SOL    HW211241   2.321   2.065   1.198
 3597SOL     OW11242   2.720   2.315   0.634
 3597SOL    HW111243   2.754   2.388   0.582
 3597SOL    HW211244   2.738   2.237   0.581
 3598SOL     OW11245   2.879   1.914   0.744
 3598SOL    HW111246   2.818   1.907   0.670
 3598SOL    HW211247   2.856   1.840   0.800
 3599SOL     OW11248   3.306   3.022   0.859
 3599SOL    HW111249   3.236   2.957   0.857
 3599SOL    HW211250   3.334   3.030   0.767
 3600SOL     OW11251   3.333   2.470   0.962
 3600SOL    HW111252   3.271   2.398   0.967
 3600SOL    HW211253   3.388   2.461   1.040
 3601SOL     OW11254   3.705   2.671   0.391
 3601SOL    HW111255   3.761   2.620   0.450
 3601SOL    HW211256   3.679   2.608   0.323
 3602SOL     OW11257   2.343   3.306   0.184
 3602SOL    HW111258   2.267   3.277   0.234
 3602SOL    HW211259   2.356   3.238   0.117
 3603SOL     OW11260   3.539   3.126   0.645
 3603SOL    HW111261   3.633   3.125   0.659
 3603SOL    HW211262   3.513   3.216   0.665
 3604SOL     OW11263   3.256   2.430   0.085
 3604SOL    HW111264   3.194   2.414   0.156
 3604SOL    HW211265   3.307   2.349   0.078
 3605SOL     OW11266   2.372   2.136   0.324
 3605SOL    HW111267   2.426   2.084   0.264
 3605SOL    HW211268   2.357   2.218   0.278
 3606SOL     OW11269   3.610   3.105   1.559
 3606SOL    HW111270   3.697   3.067   1.551
 3606SOL    HW211271   3.625   3.194   1.590
 3607SOL     OW11272   2.921   3.223   1.335
 3607SOL    HW111273   2.844   3.189   1.380
 3607SOL    HW211274   2.994   3.175   1.373
 3608SOL     OW11275   3.471   3.490   1.659
 3608SOL    HW111276   3.463   3.524   1.570
 3608SOL    HW211277   3.553   3.440   1.657
 3609SOL     OW11278   2.997   3.071   1.098
 3609SOL    HW111279   2.926   3.091   1.160
 3609SOL    HW211280   2.967   3.108   1.015
 3610SOL     OW11281   3.485   2.958   1.077
 3610SOL    HW111282   3.478   3.021   1.148
 3610SOL    HW211283   3.410   2.977   1.020
 3611SOL     OW11284   2.779   1.953   1.389
 3611SOL    HW111285   2.802   1.935   1.298
 3611SOL    HW211286   2.858   1.993   1.426
 3612SOL     OW11287   2.849   2.983   1.718
 3612SOL    HW111288   2.760   2.996   1.749
 3612SOL    HW211289   2.840   2.937   1.634
 3613SOL     OW11290   2.564   2.941   0.359
 3613SOL    HW111291   2.501   2.945   0.431
 3613SOL    HW211292   2.586   2.848   0.352
 3614SOL     OW11293   2.271   2.678   1.264
 3614SOL    HW111294   2.364   2.680   1.287
 3614SOL    HW211295   2.244   2.587   1.276
 3615SOL     OW11296   3.125   2.237   1.282
 3615SOL    HW111297   3.160   2.315   1.326
 3615SOL    HW211298   3.033   2.258   1.265
 3616SOL     OW11299   1.938   3.436   1.358
 3616SOL    HW111300   1.911   3.508   1.301
 3616SOL    HW211301   2.034   3.434   1.350
 3617SOL     OW11302   2.220   2.973   0.475
 3617SOL    HW111303   2.203   3.049   0.420
 3617SOL    HW211304   2.214   2.898   0.415
 3618SOL     OW11305   2.419   2.356   0.861
 3618SOL    HW111306   2.402   2.367   0.768
 3618SOL    HW211307   2.514   2.362   0.869
 3619SOL     OW11308   3.106   3.209   0.399
 3619SOL    HW111309   3.162   3.281   0.427
 3619SOL    HW211310   3.018   3.233   0.428
 3620SOL     OW11311   3.151   3.323   1.148
 3620SOL    HW111312   3.205   3.327   1.227
 3620SOL    HW211313   3.090   3.252   1.165
 3621SOL     OW11314   3.433   2.480   0.488
 3621SOL    HW111315   3.386   2.527   0.557
 3621SOL    HW211316   3.474   2.549   0.436
 3622SOL     OW11317   2.208   3.392   1.309
 3622SOL    HW111318   2.197   3.347   1.225
 3622SOL    HW211319   2.303   3.404   1.318
 3623SOL     OW11320   2.252   2.602   1.605
 3623SOL    HW111321   2.297   2.650   1.535
 3623SOL    HW211322   2.280   2.512   1.594
 3624SOL     OW11323   3.472   2.644   1.688
 3624SOL    HW111324   3.386   2.685   1.681
 3624SOL    HW211325   3.524   2.685   1.619
 3625SOL     OW11326   2.869   1.995   1.760
 3625SOL    HW111327   2.923   2.068   1.733
 3625SOL    HW211328   2.917   1.917   1.731
 3626SOL     OW11329   2.358   1.892   1.749
 3626SOL    HW111330   2.310   1.841   1.684
 3626SOL    HW211331   2.304   1.970   1.763
 3627SOL     OW11332   3.218   2.721   1.019
 3627SOL    HW111333   3.132   2.701   0.982
 3627SOL    HW211334   3.268   2.640   1.012
 3628SOL     OW11335   3.062   2.394   0.275
 3628SOL    HW111336   3.064   2.319   0.335
 3628SOL    HW211337   3.092   2.468   0.329
 3629SOL     OW11338   2.153   2.058   1.249
 3629SOL    HW111339   2.118   2.089   1.332
 3629SOL    HW211340   2.135   1.964   1.249
 3630SOL     OW11341   1.907   3.175   1.273
 3630SOL    HW111342   1.939   3.119   1.343
 3630SOL    HW211343   1.913   3.264   1.308
 3631SOL     OW11344   3.604   2.821   1.859
 3631SOL    HW111345   3.560   2.754   1.807
 3631SOL    HW211346   3.542   2.840   1.930
 3632SOL     OW11347   2.170   1.925   0.626
 3632SOL    HW111348   2.146   2.015   0.647
 3632SOL    HW211349   2.178   1.881   0.711
 3633SOL     OW11350   3.492   2.243   0.363
 3633SOL    HW111351   3.518   2.176   0.425
 3633SOL    HW211352   3.464   2.317   0.417
 3634SOL     OW11353   2.843   3.429   1.720
 3634SOL    HW111354   2.825   3.473   1.637
 3634SOL    HW211355   2.890   3.349   1.696
 3635SOL     OW11356   3.712   3.362   1.603
 3635SOL    HW111357   3.735   3.390   1.515
 3635SOL    HW211358   3.792   3.376   1.654
 3636SOL     OW11359   2.207   2.782   1.814
 3636SOL    HW111360   2.287   2.807   1.860
 3636SOL    HW211361   2.234   2.714   1.753
 3637SOL     OW11362   3.363   2.174   0.129
 3637SOL    HW111363   3.319   2.091   0.146
 3637SOL    HW211364   3.411   2.194   0.210
 3638SOL     OW11365   3.167   2.681   0.020
 3638SOL    HW111366   3.199   2.591   0.031
 3638SOL    HW211367   3.225   2.719   8.034
 3639SOL     OW11368   2.930   3.205   0.853
 3639SOL    HW111369   2.937   3.135   0.787
 3639SOL    HW211370   2.989   3.273   0.821
 3640SOL     OW11371   2.165   2.675   0.952
 3640SOL    HW111372   2.256   2.704   0.953
 3640SOL    HW211373   2.168   2.586   0.988
 3641SOL     OW11374   2.195   2.391   1.020
 3641SOL    HW111375   2.153   2.305   1.006
 3641SOL    HW211376   2.274   2.388   0.966
 3642SOL     OW11377   3.006   2.227   1.682
 3642SOL    HW111378   2.959   2.282   1.744
 3642SOL    HW211379   3.090   2.270   1.670
 3643SOL     OW11380   3.023   2.055   1.469
 3643SOL    HW111381   3.013   2.117   1.541
 3643SOL    HW211382   3.066   2.106   1.400
 3644SOL     OW11383   1.878   3.179   0.184
 3644SOL    HW111384   1.791   3.195   0.147
 3644SOL    HW211385   1.873   3.089   0.218
 3645SOL     OW11386   1.952   3.643   0.941
 3645SOL    HW111387   1.922   3.565   0.894
 3645SOL    HW211388   2.041   3.657   0.910
 3646SOL     OW11389   2.353   3.436   0.902
 3646SOL    HW111390   2.422   3.497   0.928
 3646SOL    HW211391   2.397   3.373   0.845
 3647SOL     OW11392   1.898   2.413   1.117
 3647SOL    HW111393   1.980   2.409   1.068
 3647SOL    HW211394   1.925   2.413   1.209
 3648SOL     OW11395   2.049   2.382   1.730
 3648SOL    HW111396   2.091   2.331   1.661
 3648SOL    HW211397   2.012   2.458   1.685
 3649SOL     OW11398   3.243   2.794   1.656
 3649SOL    HW111399   3.265   2.887   1.653
 3649SOL    HW211400   3.241   2.767   1.564
 3650SOL     OW11401   3.502   2.463   1.178
 3650SOL    HW111402   3.492   2.405   1.254
 3650SOL    HW211403   3.590   2.445   1.146
 3651SOL     OW11404   2.098   3.410   1.722
 3651SOL    HW111405   2.078   3.474   1.791
 3651SOL    HW211406   2.106   3.327   1.769
 3652SOL     OW11407   2.573   2.271   1.231
 3652SOL    HW111408   2.516   2.195   1.222
 3652SOL    HW211409   2.550   2.327   1.156
 3653SOL     OW11410   2.779   3.542   1.474
 3653SOL    HW111411   2.759   3.499   1.390
 3653SOL    HW211412   2.774   3.636   1.454
 3654SOL     OW11413   2.329   2.370   0.188
 3654SOL    HW111414   2.385   2.443   0.216
 3654SOL    HW211415   2.241   2.408   0.185
 3655SOL     OW11416   1.999   3.007   1.475
 3655SOL    HW111417   2.002   2.961   1.559
 3655SOL    HW211418   2.016   2.940   1.409
 3656SOL     OW11419   3.183   2.906   1.218
 3656SOL    HW111420   3.205   2.843   1.149
 3656SOL    HW211421   3.117   2.963   1.178
 3657SOL     OW11422   3.152   2.685   0.301
 3657SOL    HW111423   3.093   2.756   0.326
 3657SOL    HW211424   3.149   2.684   0.205
 3658SOL     OW11425   3.641   3.597   1.157
 3658SOL    HW111426   3.701   3.624   1.088
 3658SOL    HW211427   3.614   3.509   1.134
 3659SOL     OW11428   3.101   3.594   1.102
 3659SOL    HW111429   3.184   3.619   1.062
 3659SOL    HW211430   3.111   3.502   1.125
 3660SOL     OW11431   1.950   3.127   1.010
 3660SOL    HW111432   1.932   3.143   1.102
 3660SOL    HW211433   1.877   3.072   0.981
 3661SOL     OW11434   2.542   3.534   1.740
 3661SOL    HW111435   2.483   3.609   1.730
 3661SOL    HW211436   2.612   3.550   1.677
 3662SOL     OW11437   2.767   1.951   0.127
 3662SOL    HW111438   2.763   1.922   0.036
 3662SOL    HW211439   2.838   1.900   0.166
 3663SOL     OW11440   3.587   2.017   0.504
 3663SOL    HW111441   3.656   1.997   0.440
 3663SOL    HW211442   3.569   1.933   0.547
 3664SOL     OW11443   3.254   3.430   0.493
 3664SOL    HW111444   3.315   3.464   0.428
 3664SOL    HW211445   3.204   3.506   0.522
 3665SOL     OW11446   2.002   3.658   1.843
 3665SOL    HW111447   1.953   3.591   1.889
 3665SOL    HW211448   2.050   3.705   1.912
 3666SOL     OW11449   3.129   2.790   0.673
 3666SOL    HW111450   3.200   2.727   0.683
 3666SOL    HW211451   3.165   2.859   0.618
 3667SOL     OW11452   2.685   3.139   1.437
 3667SOL    HW111453   2.643   3.186   1.509
 3667SOL    HW211454   2.613   3.115   1.378
 3668SOL     OW11455   2.536   3.490   0.155
 3668SOL    HW111456   2.545   3.496   0.060
 3668SOL    HW211457   2.475   3.417   0.168
 3669SOL     OW11458   3.480   3.590   1.392
 3669SOL    HW111459   3.534   3.594   1.313
 3669SOL    HW211460   3.466   3.681   1.416
 3670SOL     OW11461   3.705   2.031   0.965
 3670SOL    HW111462   3.734   1.943   0.941
 3670SOL    HW211463   3.618   2.039   0.926
 3671SOL     OW11464   2.117   2.179   0.715
 3671SOL    HW111465   2.030   2.210   0.691
 3671SOL    HW211466   2.115   2.171   0.810
 3672SOL     OW11467   3.030   3.440   0.052
 3672SOL    HW111468   3.036   3.348   0.076
 3672SOL    HW211469   3.040   3.440   8.036
 3673SOL     OW11470   3.370   3.481   0.064
 3673SOL    HW111471   3.275   3.484   0.052
 3673SOL    HW211472   3.405   3.492   8.056
 3674SOL     OW11473   2.226   3.168   1.492
 3674SOL    HW111474   2.217   3.243   1.433
 3674SOL    HW211475   2.149   3.115   1.475
 3675SOL     OW11476   3.470   3.147   1.280
 3675SOL    HW111477   3.528   3.131   1.354
 3675SOL    HW211478   3.409   3.214   1.312
 3676SOL     OW11479   2.920   2.971   0.710
 3676SOL    HW111480   2.856   2.923   0.763
 3676SOL    HW211481   2.988   2.906   0.690
 3677SOL     OW11482   2.894   2.100   0.962
 3677SOL    HW111483   2.890   2.049   0.881
 3677SOL    HW211484   2.884   2.034   1.032
 3678SOL     OW11485   2.467   3.348   0.474
 3678SOL    HW111486   2.516   3.304   0.405
 3678SOL    HW211487   2.394   3.391   0.429
 3679SOL     OW11488   3.591   2.253   1.381
 3679SOL    HW111489   3.663   2.316   1.381
 3679SOL    HW211490   3.620   2.183   1.323
 3680SOL     OW11491   2.125   3.177   0.303
 3680SOL    HW111492   2.041   3.187   0.259
 3680SOL    HW211493   2.115   3.225   0.385
 3681SOL     OW11494   1.974   2.897   1.725
 3681SOL    HW111495   1.897   2.869   1.776
 3681SOL    HW211496   2.048   2.855   1.768
 3682SOL     OW11497   2.532   2.053   1.492
 3682SOL    HW111498   2.617   2.036   1.452
 3682SOL    HW211499   2.552   2.073   1.584
 3683SOL     OW11500   1.919   2.212   0.040
 3683SOL    HW111501   1.834   2.177   0.013
 3683SOL    HW211502   1.971   2.214   8.040
 3684SOL     OW11503   3.288   2.722   1.397
 3684SOL    HW111504   3.238   2.782   1.342
 3684SOL    HW211505   3.377   2.724   1.360
 3685SOL     OW11506   1.931   2.014   0.289
 3685SOL    HW111507   1.916   2.098   0.246
 3685SOL    HW211508   2.016   1.985   0.255
 3686SOL     OW11509   3.045   3.173   0.121
 3686SOL    HW111510   2.950   3.172   0.114
 3686SOL    HW211511   3.063   3.173   0.215
 3687SOL     OW11512   3.346   3.648   0.983
 3687SOL    HW111513   3.368   3.716   0.919
 3687SOL    HW211514   3.430   3.621   1.019
 3688SOL     OW11515   3.337   3.054   1.628
 3688SOL    HW111516   3.325   3.071   1.722
 3688SOL    HW211517   3.429   3.075   1.612
 3689SOL     OW11518   2.231   3.604   1.567
 3689SOL    HW111519   2.149   3.650   1.551
 3689SOL    HW211520   2.205   3.520   1.606
 3690SOL     OW11521   3.526   2.741   1.255
 3690SOL    HW111522   3.522   2.656   1.211
 3690SOL    HW211523   3.516   2.805   1.184
 3691SOL     OW11524   3.079   2.182   0.462
 3691SOL    HW111525   3.140   2.109   0.452
 3691SOL    HW211526   3.110   2.229   0.539
 3692SOL     OW11527   3.617   2.225   1.654
 3692SOL    HW111528   3.604   2.242   1.561
 3692SOL    HW211529   3.544   2.169   1.679
 3693SOL     OW11530   3.611   2.795   1.510
 3693SOL    HW111531   3.600   2.889   1.523
 3693SOL    HW211532   3.593   2.781   1.418
 3694SOL     OW11533   2.772   3.231   0.055
 3694SOL    HW111534   2.713   3.223   0.130
 3694SOL    HW211535   2.737   3.305   0.006
 3695SOL     OW11536   2.524   3.645   0.937
 3695SOL    HW111537   2.508   3.737   0.918
 3695SOL    HW211538   2.620   3.637   0.931
 3696SOL     OW11539   2.972   2.857   0.104
 3696SOL    HW111540   2.957   2.924   0.037
 3696SOL    HW211541   3.034   2.797   0.064
 3697SOL     OW11542   3.707   3.414   0.842
 3697SOL    HW111543   3.628   3.403   0.790
 3697SOL    HW211544   3.696   3.354   0.915
 3698SOL     OW11545   2.085   3.160   1.852
 3698SOL    HW111546   2.025   3.094   1.819
 3698SOL    HW211547   2.059   3.172   1.944
 3699SOL     OW11548   1.949   3.089   0.671
 3699SOL    HW111549   1.963   3.043   0.754
 3699SOL    HW211550   2.023   3.061   0.616
 3700SOL     OW11551   2.545   3.272   1.631
 3700SOL    HW111552   2.463   3.232   1.660
 3700SOL    HW211553   2.543   3.360   1.668
 3701SOL     OW11554   3.673   2.043   1.236
 3701SOL    HW111555   3.679   1.948   1.248
 3701SOL    HW211556   3.684   2.055   1.141
 3702SOL     OW11557   2.314   2.300   0.557
 3702SOL    HW111558   2.334   2.239   0.486
 3702SOL    HW211559   2.244   2.257   0.607
 3703SOL     OW11560   3.561   3.346   1.089
 3703SOL    HW111561   3.480   3.328   1.041
 3703SOL    HW211562   3.565   3.278   1.156
 3704SOL     OW11563   2.202   2.418   1.301
 3704SOL    HW111564   2.254   2.358   1.354
 3704SOL    HW211565   2.215   2.387   1.211
 3705SOL     OW11566   2.696   3.441   0.672
 3705SOL    HW111567   2.672   3.507   0.606
 3705SOL    HW211568   2.620   3.383   0.677
 3706SOL     OW11569   3.293   2.090   1.120
 3706SOL    HW111570   3.312   2.007   1.164
 3706SOL    HW211571   3.242   2.140   1.185
 3707SOL     OW11572   2.871   1.876   1.134
 3707SOL    HW111573   2.816   1.810   1.091
 3707SOL    HW211574   2.958   1.837   1.136
 3708SOL     OW11575   2.643   3.201   0.303
 3708SOL    HW111576   2.616   3.110   0.317
 3708SOL    HW211577   2.719   3.213   0.360
 3709SOL     OW11578   2.480   3.421   1.286
 3709SOL    HW111579   2.482   3.503   1.334
 3709SOL    HW211580   2.569   3.411   1.253
 3710SOL     OW11581   3.216   1.918   0.189
 3710SOL    HW111582   3.233   1.875   0.105
 3710SOL    HW211583   3.130   1.886   0.215
 3711SOL     OW11584   3.173   2.316   0.681
 3711SOL    HW111585   3.129   2.400   0.694
 3711SOL    HW211586   3.167   2.273   0.766
 3712SOL     OW11587   3.446   2.055   0.884
 3712SOL    HW111588   3.391   2.081   0.958
 3712SOL    HW211589   3.446   2.132   0.827
 3713SOL     OW11590   1.908   2.921   0.303
 3713SOL    HW111591   2.004   2.921   0.309
 3713SOL    HW211592   1.882   2.837   0.340
 3714SOL     OW11593   2.748   3.525   0.344
 3714SOL    HW111594   2.677   3.511   0.281
 3714SOL    HW211595   2.718   3.599   0.397
 3715SOL     OW11596   2.083   2.478   1.990
 3715SOL    HW111597   1.995   2.480   2.026
 3715SOL    HW211598   2.071   2.458   1.897
 3716SOL     OW11599   2.086   2.153   2.853
 3716SOL    HW111600   2.114   2.116   2.937
 3716SOL    HW211601   1.997   2.119   2.841
 3717SOL     OW11602   1.859   2.246   2.500
 3717SOL    HW111603   1.778   2.273   2.545
 3717SOL    HW211604   1.833   2.169   2.450
 3718SOL     OW11605   2.421   3.149   3.017
 3718SOL    HW111606   2.338   3.169   2.974
 3718SOL    HW211607   2.431   3.218   3.084
 3719SOL     OW11608   3.434   3.377   2.573
 3719SOL    HW111609   3.390   3.353   2.655
 3719SOL    HW211610   3.363   3.380   2.508
 3720SOL     OW11611   3.021   2.531   2.584
 3720SOL    HW111612   3.041   2.623   2.565
 3720SOL    HW211613   2.946   2.535   2.643
 3721SOL     OW11614   3.640   2.459   2.087
 3721SOL    HW111615   3.613   2.454   1.995
 3721SOL    HW211616   3.600   2.382   2.128
 3722SOL     OW11617   2.669   3.042   2.943
 3722SOL    HW111618   2.581   3.045   2.981
 3722SOL    HW211619   2.672   3.116   2.882
 3723SOL     OW11620   2.189   3.281   2.924
 3723SOL    HW111621   2.117   3.241   2.876
 3723SOL    HW211622   2.236   3.333   2.859
 3724SOL     OW11623   3.325   3.359   3.217
 3724SOL    HW111624   3.381   3.436   3.221
 3724SOL    HW211625   3.260   3.373   3.286
 3725SOL     OW11626   3.468   2.303   2.606
 3725SOL    HW111627   3.393   2.318   2.549
 3725SOL    HW211628   3.467   2.378   2.666
 3726SOL     OW11629   2.081   3.579   2.330
 3726SOL    HW111630   2.103   3.653   2.386
 3726SOL    HW211631   2.156   3.571   2.271
 3727SOL     OW11632   2.093   3.308   2.397
 3727SOL    HW111633   2.075   3.402   2.399
 3727SOL    HW211634   2.037   3.272   2.466
 3728SOL     OW11635   2.122   2.953   2.743
 3728SOL    HW111636   2.117   2.865   2.779
 3728SOL    HW211637   2.068   3.007   2.801
 3729SOL     OW11638   2.474   3.653   3.290
 3729SOL    HW111639   2.387   3.640   3.328
 3729SOL    HW211640   2.498   3.742   3.314
 3730SOL     OW11641   2.427   2.860   1.986
 3730SOL    HW111642   2.468   2.922   1.927
 3730SOL    HW211643   2.494   2.840   2.051
 3731SOL     OW11644   3.453   1.991   3.323
 3731SOL    HW111645   3.486   2.071   3.282
 3731SOL    HW211646   3.438   2.016   3.415
 3732SOL     OW11647   1.979   2.512   2.426
 3732SOL    HW111648   1.943   2.427   2.448
 3732SOL    HW211649   1.969   2.565   2.505
 3733SOL     OW11650   3.706   3.615   2.192
 3733SOL    HW111651   3.775   3.590   2.253
 3733SOL    HW211652   3.723   3.707   2.172
 3734SOL     OW11653   1.902   3.451   1.982
 3734SOL    HW111654   1.883   3.360   2.002
 3734SOL    HW211655   1.876   3.499   2.061
 3735SOL     OW11656   3.550   2.778   2.506
 3735SOL    HW111657   3.635   2.737   2.488
 3735SOL    HW211658   3.532   2.830   2.428
 3736SOL     OW11659   3.512   2.963   2.290
 3736SOL    HW111660   3.598   2.963   2.248
 3736SOL    HW211661   3.519   3.028   2.360
 3737SOL     OW11662   2.482   3.255   2.596
 3737SOL    HW111663   2.439   3.171   2.605
 3737SOL    HW211664   2.463   3.283   2.506
 3738SOL     OW11665   2.679   1.854   2.379
 3738SOL    HW111666   2.725   1.934   2.355
 3738SOL    HW211667   2.586   1.879   2.380
 3739SOL     OW11668   3.394   2.860   2.062
 3739SOL    HW111669   3.331   2.795   2.094
 3739SOL    HW211670   3.436   2.894   2.140
 3740SOL     OW11671   3.050   3.684   3.486
 3740SOL    HW111672   3.052   3.748   3.415
 3740SOL    HW211673   3.073   3.601   3.445
 3741SOL     OW11674   3.326   3.286   2.811
 3741SOL    HW111675   3.258   3.296   2.879
 3741SOL    HW211676   3.315   3.196   2.780
 3742SOL     OW11677   3.514   3.618   2.439
 3742SOL    HW111678   3.496   3.583   2.351
 3742SOL    HW211679   3.497   3.545   2.498
 3743SOL     OW11680   3.147   2.225   2.803
 3743SOL    HW111681   3.057   2.192   2.805
 3743SOL    HW211682   3.194   2.171   2.867
 3744SOL     OW11683   3.440   3.535   2.173
 3744SOL    HW111684   3.532   3.560   2.165
 3744SOL    HW211685   3.412   3.519   2.083
 3745SOL     OW11686   2.829   2.277   3.118
 3745SOL    HW111687   2.737   2.301   3.120
 3745SOL    HW211688   2.852   2.274   3.025
 3746SOL     OW11689   1.946   2.684   2.637
 3746SOL    HW111690   2.027   2.678   2.688
 3746SOL    HW211691   1.900   2.760   2.673
 3747SOL     OW11692   1.984   3.741   3.447
 3747SOL    HW111693   1.989   3.716   3.539
 3747SOL    HW211694   1.903   3.700   3.415
 3748SOL     OW11695   2.749   2.181   1.993
 3748SOL    HW111696   2.802   2.247   1.949
 3748SOL    HW211697   2.799   2.100   1.985
 3749SOL     OW11698   3.599   2.448   3.693
 3749SOL    HW111699   3.593   2.529   3.643
 3749SOL    HW211700   3.603   2.379   3.628
 3750SOL     OW11701   3.238   2.995   2.396
 3750SOL    HW111702   3.322   2.990   2.350
 3750SOL    HW211703   3.190   3.064   2.351
 3751SOL     OW11704   2.408   2.028   2.749
 3751SOL    HW111705   2.408   2.058   2.840
 3751SOL    HW211706   2.403   2.108   2.697
 3752SOL     OW11707   2.860   3.306   2.329
 3752SOL    HW111708   2.832   3.383   2.279
 3752SOL    HW211709   2.836   3.327   2.420
 3753SOL     OW11710   2.216   3.677   2.734
 3753SOL    HW111711   2.260   3.592   2.739
 3753SOL    HW211712   2.285   3.741   2.752
 3754SOL     OW11713   3.659   2.912   2.736
 3754SOL    HW111714   3.605   2.894   2.659
 3754SOL    HW211715   3.596   2.923   2.807
 3755SOL     OW11716   3.103   3.419   3.369
 3755SOL    HW111717   3.094   3.363   3.446
 3755SOL    HW211718   3.028   3.397   3.314
 3756SOL     OW11719   2.171   2.829   2.117
 3756SOL    HW111720   2.250   2.850   2.068
 3756SOL    HW211721   2.149   2.740   2.089
 3757SOL     OW11722   3.338   2.618   2.584
 3757SOL    HW111723   3.341   2.575   2.669
 3757SOL    HW211724   3.418   2.671   2.581
 3758SOL     OW11725   2.987   3.641   2.090
 3758SOL    HW111726   2.911   3.602   2.133
 3758SOL    HW211727   3.012   3.577   2.023
 3759SOL     OW11728   2.003   2.122   3.332
 3759SOL    HW111729   1.928   2.172   3.366
 3759SOL    HW211730   1.995   2.037   3.374
 3760SOL     OW11731   3.490   3.244   1.954
 3760SOL    HW111732   3.449   3.329   1.939
 3760SOL    HW211733   3.421   3.181   1.932
 3761SOL     OW11734   2.325   3.598   2.180
 3761SOL    HW111735   2.370   3.653   2.244
 3761SOL    HW211736   2.394   3.563   2.125
 3762SOL     OW11737   3.263   1.967   2.303
 3762SOL    HW111738   3.255   1.941   2.211
 3762SOL    HW211739   3.357   1.973   2.319
 3763SOL     OW11740   2.115   3.658   3.085
 3763SOL    HW111741   2.160   3.583   3.123
 3763SOL    HW211742   2.105   3.634   2.992
 3764SOL     OW11743   2.801   3.565   2.757
 3764SOL    HW111744   2.878   3.515   2.784
 3764SOL    HW211745   2.761   3.513   2.688
 3765SOL     OW11746   2.243   2.542   2.320
 3765SOL    HW111747   2.276   2.460   2.357
 3765SOL    HW211748   2.152   2.546   2.349
 3766SOL     OW11749   3.399   2.070   3.585
 3766SOL    HW111750   3.408   2.099   3.676
 3766SOL    HW211751   3.322   2.013   3.586
 3767SOL     OW11752   2.473   1.965   1.989
 3767SOL    HW111753   2.566   1.943   1.985
 3767SOL    HW211754   2.440   1.944   1.902
 3768SOL     OW11755   2.739   3.388   3.045
 3768SOL    HW111756   2.715   3.360   2.957
 3768SOL    HW211757   2.797   3.319   3.077
 3769SOL     OW11758   2.680   3.274   2.798
 3769SOL    HW111759   2.763   3.255   2.755
 3769SOL    HW211760   2.614   3.266   2.728
 3770SOL     OW11761   2.776   2.345   2.766
 3770SOL    HW111762   2.762   2.332   2.672
 3770SOL    HW211763   2.819   2.265   2.795
 3771SOL     OW11764   2.415   1.928   2.358
 3771SOL    HW111765   2.334   1.926   2.410
 3771SOL    HW211766   2.407   2.007   2.304
 3772SOL     OW11767   3.290   3.062   1.901
 3772SOL    HW111768   3.319   2.987   1.952
 3772SOL    HW211769   3.202   3.082   1.935
 3773SOL     OW11770   2.155   1.908   2.048
 3773SOL    HW111771   2.215   1.967   2.001
 3773SOL    HW211772   2.213   1.845   2.091
 3774SOL     OW11773   2.817   2.087   2.334
 3774SOL    HW111774   2.774   2.160   2.288
 3774SOL    HW211775   2.911   2.105   2.326
 3775SOL     OW11776   3.082   3.433   2.655
 3775SOL    HW111777   3.096   3.501   2.589
 3775SOL    HW211778   3.152   3.446   2.718
 3776SOL     OW11779   2.334   3.027   2.587
 3776SOL    HW111780   2.268   3.000   2.651
 3776SOL    HW211781   2.296   3.004   2.502
 3777SOL     OW11782   3.125   3.653   2.475
 3777SOL    HW111783   3.174   3.716   2.421
 3777SOL    HW211784   3.056   3.706   2.516
 3778SOL     OW11785   2.905   2.377   1.889
 3778SOL    HW111786   2.835   2.443   1.889
 3778SOL    HW211787   2.960   2.401   1.964
 3779SOL     OW11788   1.931   2.416   3.250
 3779SOL    HW111789   2.020   2.384   3.266
 3779SOL    HW211790   1.937   2.510   3.261
 3780SOL     OW11791   2.414   2.078   3.016
 3780SOL    HW111792   2.454   2.000   3.054
 3780SOL    HW211793   2.327   2.082   3.058
 3781SOL     OW11794   2.733   2.293   2.510
 3781SOL    HW111795   2.712   2.345   2.433
 3781SOL    HW211796   2.764   2.209   2.475
 3782SOL     OW11797   2.883   1.915   2.609
 3782SOL    HW111798   2.824   1.911   2.533
 3782SOL    HW211799   2.856   1.841   2.663
 3783SOL     OW11800   3.292   3.042   2.695
 3783SOL    HW111801   3.242   2.963   2.717
 3783SOL    HW211802   3.310   3.034   2.601
 3784SOL     OW11803   3.331   2.469   2.824
 3784SOL    HW111804   3.272   2.393   2.827
 3784SOL    HW211805   3.387   2.459   2.901
 3785SOL     OW11806   3.701   2.671   2.246
 3785SOL    HW111807   3.760   2.624   2.305
 3785SOL    HW211808   3.678   2.608   2.178
 3786SOL     OW11809   2.353   3.282   2.013
 3786SOL    HW111810   2.276   3.254   2.064
 3786SOL    HW211811   2.349   3.230   1.933
 3787SOL     OW11812   3.540   3.129   2.496
 3787SOL    HW111813   3.634   3.127   2.515
 3787SOL    HW211814   3.511   3.215   2.525
 3788SOL     OW11815   3.257   2.433   1.930
 3788SOL    HW111816   3.197   2.408   2.000
 3788SOL    HW211817   3.343   2.403   1.960
 3789SOL     OW11818   2.384   2.137   2.184
 3789SOL    HW111819   2.419   2.079   2.116
 3789SOL    HW211820   2.361   2.217   2.137
 3790SOL     OW11821   3.617   3.104   3.420
 3790SOL    HW111822   3.704   3.066   3.406
 3790SOL    HW211823   3.635   3.193   3.451
 3791SOL     OW11824   3.470   3.491   3.519
 3791SOL    HW111825   3.460   3.523   3.429
 3791SOL    HW211826   3.550   3.439   3.518
 3792SOL     OW11827   2.963   3.085   2.962
 3792SOL    HW111828   2.877   3.054   2.988
 3792SOL    HW211829   2.950   3.124   2.876
 3793SOL     OW11830   3.493   2.964   2.951
 3793SOL    HW111831   3.508   3.028   3.020
 3793SOL    HW211832   3.399   2.965   2.936
 3794SOL     OW11833   2.292   2.708   3.080
 3794SOL    HW111834   2.370   2.676   3.127
 3794SOL    HW211835   2.225   2.643   3.099
 3795SOL     OW11836   1.937   3.447   3.221
 3795SOL    HW111837   1.913   3.519   3.162
 3795SOL    HW211838   2.032   3.439   3.212
 3796SOL     OW11839   2.205   2.980   2.347
 3796SOL    HW111840   2.201   3.056   2.289
 3796SOL    HW211841   2.196   2.904   2.289
 3797SOL     OW11842   2.412   2.367   2.731
 3797SOL    HW111843   2.396   2.376   2.637
 3797SOL    HW211844   2.507   2.366   2.738
 3798SOL     OW11845   3.109   3.210   2.257
 3798SOL    HW111846   3.165   3.282   2.287
 3798SOL    HW211847   3.022   3.233   2.288
 3799SOL     OW11848   3.139   3.317   3.013
 3799SOL    HW111849   3.198   3.315   3.088
 3799SOL    HW211850   3.087   3.237   3.022
 3800SOL     OW11851   3.436   2.482   2.346
 3800SOL    HW111852   3.388   2.530   2.413
 3800SOL    HW211853   3.486   2.550   2.300
 3801SOL     OW11854   2.201   3.408   3.164
 3801SOL    HW111855   2.195   3.355   3.084
 3801SOL    HW211856   2.288   3.389   3.199
 3802SOL     OW11857   2.335   1.871   3.623
 3802SOL    HW111858   2.306   1.816   3.551
 3802SOL    HW211859   2.256   1.917   3.651
 3803SOL     OW11860   3.207   2.721   2.887
 3803SOL    HW111861   3.137   2.694   2.828
 3803SOL    HW211862   3.264   2.643   2.892
 3804SOL     OW11863   3.064   2.391   2.128
 3804SOL    HW111864   3.061   2.312   2.182
 3804SOL    HW211865   3.083   2.461   2.189
 3805SOL     OW11866   2.149   2.059   3.104
 3805SOL    HW111867   2.100   2.088   3.181
 3805SOL    HW211868   2.138   1.964   3.104
 3806SOL     OW11869   1.897   3.195   3.120
 3806SOL    HW111870   1.921   3.138   3.193
 3806SOL    HW211871   1.908   3.284   3.154
 3807SOL     OW11872   3.606   2.801   3.704
 3807SOL    HW111873   3.554   2.805   3.623
 3807SOL    HW211874   3.541   2.812   3.774
 3808SOL     OW11875   2.171   1.924   2.487
 3808SOL    HW111876   2.146   2.014   2.508
 3808SOL    HW211877   2.178   1.881   2.572
 3809SOL     OW11878   3.484   2.243   2.221
 3809SOL    HW111879   3.513   2.177   2.285
 3809SOL    HW211880   3.460   2.318   2.274
 3810SOL     OW11881   2.868   3.440   3.566
 3810SOL    HW111882   2.851   3.490   3.486
 3810SOL    HW211883   2.781   3.416   3.598
 3811SOL     OW11884   3.712   3.361   3.467
 3811SOL    HW111885   3.733   3.391   3.378
 3811SOL    HW211886   3.792   3.375   3.517
 3812SOL     OW11887   3.386   2.134   1.988
 3812SOL    HW111888   3.324   2.067   2.017
 3812SOL    HW211889   3.422   2.171   2.069
 3813SOL     OW11890   3.148   2.683   1.886
 3813SOL    HW111891   3.189   2.596   1.890
 3813SOL    HW211892   3.180   2.721   1.805
 3814SOL     OW11893   2.928   3.205   2.713
 3814SOL    HW111894   2.936   3.134   2.650
 3814SOL    HW211895   2.989   3.272   2.681
 3815SOL     OW11896   2.162   2.675   2.811
 3815SOL    HW111897   2.238   2.709   2.857
 3815SOL    HW211898   2.160   2.581   2.833
 3816SOL     OW11899   2.182   2.404   2.878
 3816SOL    HW111900   2.146   2.316   2.871
 3816SOL    HW211901   2.266   2.399   2.833
 3817SOL     OW11902   1.870   3.178   2.056
 3817SOL    HW111903   1.783   3.195   2.020
 3817SOL    HW211904   1.865   3.089   2.091
 3818SOL     OW11905   1.952   3.643   2.804
 3818SOL    HW111906   1.922   3.566   2.756
 3818SOL    HW211907   2.041   3.657   2.771
 3819SOL     OW11908   2.353   3.437   2.764
 3819SOL    HW111909   2.422   3.497   2.790
 3819SOL    HW211910   2.396   3.373   2.709
 3820SOL     OW11911   1.897   2.406   2.975
 3820SOL    HW111912   1.979   2.412   2.926
 3820SOL    HW211913   1.925   2.402   3.067
 3821SOL     OW11914   2.701   2.309   2.233
 3821SOL    HW111915   2.703   2.275   2.143
 3821SOL    HW211916   2.623   2.366   2.235
 3822SOL     OW11917   3.496   2.452   3.039
 3822SOL    HW111918   3.494   2.399   3.119
 3822SOL    HW211919   3.586   2.442   3.006
 3823SOL     OW11920   2.109   3.439   3.566
 3823SOL    HW111921   2.084   3.508   3.628
 3823SOL    HW211922   2.107   3.359   3.617
 3824SOL     OW11923   2.553   2.306   3.102
 3824SOL    HW111924   2.503   2.232   3.069
 3824SOL    HW211925   2.565   2.363   3.026
 3825SOL     OW11926   2.784   3.546   3.326
 3825SOL    HW111927   2.759   3.505   3.243
 3825SOL    HW211928   2.775   3.640   3.310
 3826SOL     OW11929   2.325   2.372   2.058
 3826SOL    HW111930   2.361   2.448   2.104
 3826SOL    HW211931   2.236   2.398   2.035
 3827SOL     OW11932   1.967   3.037   3.331
 3827SOL    HW111933   2.011   3.056   3.414
 3827SOL    HW211934   2.032   2.988   3.280
 3828SOL     OW11935   3.213   2.973   2.999
 3828SOL    HW111936   3.208   2.879   2.978
 3828SOL    HW211937   3.125   3.005   2.985
 3829SOL     OW11938   3.174   2.706   2.159
 3829SOL    HW111939   3.104   2.762   2.192
 3829SOL    HW211940   3.156   2.698   2.065
 3830SOL     OW11941   3.644   3.596   3.020
 3830SOL    HW111942   3.703   3.622   2.950
 3830SOL    HW211943   3.615   3.508   2.996
 3831SOL     OW11944   3.100   3.592   2.967
 3831SOL    HW111945   3.184   3.616   2.927
 3831SOL    HW211946   3.109   3.499   2.988
 3832SOL     OW11947   1.948   3.127   2.864
 3832SOL    HW111948   1.927   3.150   2.955
 3832SOL    HW211949   1.876   3.069   2.837
 3833SOL     OW11950   2.548   3.538   3.599
 3833SOL    HW111951   2.485   3.610   3.603
 3833SOL    HW211952   2.584   3.543   3.510
 3834SOL     OW11953   3.585   2.020   2.366
 3834SOL    HW111954   3.655   2.004   2.302
 3834SOL    HW211955   3.569   1.934   2.405
 3835SOL     OW11956   3.255   3.429   2.353
 3835SOL    HW111957   3.313   3.464   2.286
 3835SOL    HW211958   3.204   3.505   2.382
 3836SOL     OW11959   2.003   3.655   3.705
 3836SOL    HW111960   1.954   3.588   3.753
 3836SOL    HW211961   2.049   3.705   3.772
 3837SOL     OW11962   3.127   2.787   2.535
 3837SOL    HW111963   3.200   2.726   2.545
 3837SOL    HW211964   3.161   2.858   2.481
 3838SOL     OW11965   2.530   3.488   2.017
 3838SOL    HW111966   2.542   3.503   1.923
 3838SOL    HW211967   2.475   3.410   2.022
 3839SOL     OW11968   3.480   3.589   3.250
 3839SOL    HW111969   3.536   3.595   3.173
 3839SOL    HW211970   3.465   3.680   3.276
 3840SOL     OW11971   3.705   2.032   2.827
 3840SOL    HW111972   3.733   1.944   2.803
 3840SOL    HW211973   3.618   2.041   2.788
 3841SOL     OW11974   2.117   2.178   2.576
 3841SOL    HW111975   2.030   2.209   2.552
 3841SOL    HW211976   2.115   2.174   2.671
 3842SOL     OW11977   3.070   3.464   1.895
 3842SOL    HW111978   3.059   3.373   1.922
 3842SOL    HW211979   3.005   3.478   1.827
 3843SOL     OW11980   3.351   3.492   1.908
 3843SOL    HW111981   3.257   3.481   1.892
 3843SOL    HW211982   3.389   3.497   1.820
 3844SOL     OW11983   3.493   3.153   3.152
 3844SOL    HW111984   3.532   3.126   3.235
 3844SOL    HW211985   3.423   3.214   3.176
 3845SOL     OW11986   2.915   2.969   2.573
 3845SOL    HW111987   2.841   2.921   2.610
 3845SOL    HW211988   2.981   2.903   2.557
 3846SOL     OW11989   2.896   2.101   2.823
 3846SOL    HW111990   2.893   2.048   2.743
 3846SOL    HW211991   2.885   2.038   2.894
 3847SOL     OW11992   2.466   3.356   2.342
 3847SOL    HW111993   2.516   3.306   2.278
 3847SOL    HW211994   2.389   3.387   2.294
 3848SOL     OW11995   3.590   2.252   3.242
 3848SOL    HW111996   3.662   2.315   3.243
 3848SOL    HW211997   3.619   2.182   3.184
 3849SOL     OW11998   2.125   3.203   2.155
 3849SOL    HW111999   2.033   3.199   2.130
 3849SOL    HW212000   2.125   3.244   2.242
 3850SOL     OW12001   1.942   2.187   1.895
 3850SOL    HW112002   1.855   2.169   1.858
 3850SOL    HW212003   1.971   2.266   1.849
 3851SOL     OW12004   1.925   2.015   2.161
 3851SOL    HW112005   1.912   2.093   2.106
 3851SOL    HW212006   2.011   1.982   2.135
 3852SOL     OW12007   3.042   3.201   1.981
 3852SOL    HW112008   2.956   3.159   1.981
 3852SOL    HW212009   3.069   3.199   2.073
 3853SOL     OW12010   3.344   3.649   2.848
 3853SOL    HW112011   3.367   3.715   2.782
 3853SOL    HW212012   3.428   3.617   2.880
 3854SOL     OW12013   3.349   3.112   3.495
 3854SOL    HW112014   3.345   3.097   3.590
 3854SOL    HW212015   3.442   3.106   3.474
 3855SOL     OW12016   2.236   3.623   3.413
 3855SOL    HW112017   2.153   3.669   3.397
 3855SOL    HW212018   2.209   3.540   3.454
 3856SOL     OW12019   3.565   2.743   3.123
 3856SOL    HW112020   3.519   2.664   3.094
 3856SOL    HW212021   3.537   2.811   3.061
 3857SOL     OW12022   3.081   2.179   2.318
 3857SOL    HW112023   3.142   2.106   2.309
 3857SOL    HW212024   3.112   2.227   2.395
 3858SOL     OW12025   3.608   2.236   3.517
 3858SOL    HW112026   3.597   2.247   3.422
 3858SOL    HW212027   3.538   2.176   3.543
 3859SOL     OW12028   3.599   2.796   3.395
 3859SOL    HW112029   3.589   2.891   3.394
 3859SOL    HW212030   3.586   2.769   3.304
 3860SOL     OW12031   2.734   3.242   1.907
 3860SOL    HW112032   2.695   3.280   1.985
 3860SOL    HW212033   2.755   3.317   1.851
 3861SOL     OW12034   2.526   3.645   2.801
 3861SOL    HW112035   2.508   3.737   2.781
 3861SOL    HW212036   2.621   3.636   2.793
 3862SOL     OW12037   2.983   2.893   1.949
 3862SOL    HW112038   2.938   2.922   1.870
 3862SOL    HW212039   3.036   2.819   1.921
 3863SOL     OW12040   3.708   3.414   2.703
 3863SOL    HW112041   3.628   3.402   2.653
 3863SOL    HW212042   3.703   3.349   2.773
 3864SOL     OW12043   2.066   3.218   3.703
 3864SOL    HW112044   2.025   3.131   3.701
 3864SOL    HW212045   2.036   3.257   3.785
 3865SOL     OW12046   1.952   3.090   2.528
 3865SOL    HW112047   1.968   3.048   2.613
 3865SOL    HW212048   2.019   3.054   2.470
 3866SOL     OW12049   3.671   2.041   3.098
 3866SOL    HW112050   3.680   1.946   3.109
 3866SOL    HW212051   3.684   2.055   3.004
 3867SOL     OW12052   2.316   2.293   2.419
 3867SOL    HW112053   2.334   2.235   2.345
 3867SOL    HW212054   2.244   2.250   2.466
 3868SOL     OW12055   3.557   3.347   2.954
 3868SOL    HW112056   3.478   3.328   2.904
 3868SOL    HW212057   3.560   3.279   3.021
 3869SOL     OW12058   2.696   3.443   2.533
 3869SOL    HW112059   2.670   3.509   2.468
 3869SOL    HW212060   2.621   3.384   2.539
 3870SOL     OW12061   3.286   2.085   2.989
 3870SOL    HW112062   3.317   1.995   3.006
 3870SOL    HW212063   3.251   2.114   3.074
 3871SOL     OW12064   2.871   1.878   2.988
 3871SOL    HW112065   2.816   1.808   2.953
 3871SOL    HW212066   2.958   1.839   2.996
 3872SOL     OW12067   2.636   3.208   2.184
 3872SOL    HW112068   2.630   3.116   2.157
 3872SOL    HW212069   2.718   3.213   2.233
 3873SOL     OW12070   2.492   3.407   3.162
 3873SOL    HW112071   2.487   3.493   3.202
 3873SOL    HW212072   2.572   3.410   3.109
 3874SOL     OW12073   3.221   1.912   2.035
 3874SOL    HW112074   3.255   1.842   1.979
 3874SOL    HW212075   3.131   1.885   2.055
 3875SOL     OW12076   3.174   2.311   2.541
 3875SOL    HW112077   3.124   2.393   2.547
 3875SOL    HW212078   3.167   2.273   2.629
 3876SOL     OW12079   3.445   2.059   2.745
 3876SOL    HW112080   3.386   2.088   2.815
 3876SOL    HW212081   3.449   2.133   2.685
 3877SOL     OW12082   1.903   2.926   2.170
 3877SOL    HW112083   1.996   2.917   2.149
 3877SOL    HW212084   1.876   2.837   2.193
 3878SOL     OW12085   2.752   3.524   2.197
 3878SOL    HW112086   2.676   3.508   2.142
 3878SOL    HW212087   2.725   3.595   2.255
 3879SOL     OW12088   2.101   2.096   4.703
 3879SOL    HW112089   2.111   2.089   4.798
 3879SOL    HW212090   2.007   2.085   4.688
 3880SOL     OW12091   1.863   2.212   4.367
 3880SOL    HW112092   1.790   2.257   4.410
 3880SOL    HW212093   1.822   2.141   4.318
 3881SOL     OW12094   3.440   3.379   4.432
 3881SOL    HW112095   3.394   3.357   4.513
 3881SOL    HW212096   3.371   3.382   4.365
 3882SOL     OW12097   3.609   2.465   3.964
 3882SOL    HW112098   3.600   2.462   3.869
 3882SOL    HW212099   3.581   2.378   3.993
 3883SOL     OW12100   2.571   3.036   5.563
 3883SOL    HW112101   2.626   3.113   5.580
 3883SOL    HW212102   2.499   3.069   5.510
 3884SOL     OW12103   2.131   3.384   4.786
 3884SOL    HW112104   2.079   3.313   4.750
 3884SOL    HW212105   2.210   3.386   4.730
 3885SOL     OW12106   3.320   3.363   5.090
 3885SOL    HW112107   3.376   3.440   5.095
 3885SOL    HW212108   3.252   3.378   5.155
 3886SOL     OW12109   2.290   2.298   5.257
 3886SOL    HW112110   2.373   2.263   5.225
 3886SOL    HW212111   2.227   2.227   5.245
 3887SOL     OW12112   3.477   2.305   4.475
 3887SOL    HW112113   3.403   2.329   4.419
 3887SOL    HW212114   3.460   2.350   4.558
 3888SOL     OW12115   2.086   3.574   4.189
 3888SOL    HW112116   2.105   3.648   4.247
 3888SOL    HW212117   2.159   3.573   4.127
 3889SOL     OW12118   3.011   3.205   5.422
 3889SOL    HW112119   3.046   3.201   5.511
 3889SOL    HW212120   2.955   3.128   5.414
 3890SOL     OW12121   2.088   3.301   4.251
 3890SOL    HW112122   2.082   3.397   4.244
 3890SOL    HW212123   2.024   3.279   4.318
 3891SOL     OW12124   2.464   3.665   5.157
 3891SOL    HW112125   2.383   3.644   5.203
 3891SOL    HW212126   2.486   3.754   5.185
 3892SOL     OW12127   2.485   2.860   3.852
 3892SOL    HW112128   2.447   2.947   3.840
 3892SOL    HW212129   2.469   2.839   3.944
 3893SOL     OW12130   3.455   1.990   5.187
 3893SOL    HW112131   3.486   2.067   5.140
 3893SOL    HW212132   3.436   2.022   5.276
 3894SOL     OW12133   3.705   3.615   4.054
 3894SOL    HW112134   3.775   3.591   4.114
 3894SOL    HW212135   3.723   3.707   4.033
 3895SOL     OW12136   1.901   3.449   3.848
 3895SOL    HW112137   1.865   3.363   3.868
 3895SOL    HW212138   1.878   3.503   3.924
 3896SOL     OW12139   3.560   2.782   4.359
 3896SOL    HW112140   3.634   2.739   4.315
 3896SOL    HW212141   3.522   2.838   4.291
 3897SOL     OW12142   3.515   2.959   4.144
 3897SOL    HW112143   3.606   2.970   4.115
 3897SOL    HW212144   3.505   3.023   4.214
 3898SOL     OW12145   1.971   2.600   5.304
 3898SOL    HW112146   2.059   2.637   5.315
 3898SOL    HW212147   1.914   2.677   5.296
 3899SOL     OW12148   3.154   3.077   5.139
 3899SOL    HW112149   3.226   3.050   5.083
 3899SOL    HW212150   3.192   3.084   5.226
 3900SOL     OW12151   2.678   1.845   4.240
 3900SOL    HW112152   2.727   1.917   4.200
 3900SOL    HW212153   2.587   1.876   4.243
 3901SOL     OW12154   2.033   2.798   5.044
 3901SOL    HW112155   2.119   2.759   5.031
 3901SOL    HW212156   1.981   2.767   4.969
 3902SOL     OW12157   3.394   2.854   3.918
 3902SOL    HW112158   3.328   2.793   3.950
 3902SOL    HW212159   3.434   2.888   3.998
 3903SOL     OW12160   3.046   3.677   5.351
 3903SOL    HW112161   3.050   3.739   5.278
 3903SOL    HW212162   3.064   3.592   5.311
 3904SOL     OW12163   2.199   2.103   5.551
 3904SOL    HW112164   2.240   2.189   5.554
 3904SOL    HW212165   2.108   2.118   5.576
 3905SOL     OW12166   3.328   3.276   4.670
 3905SOL    HW112167   3.265   3.299   4.738
 3905SOL    HW212168   3.292   3.199   4.628
 3906SOL     OW12169   3.514   3.621   4.299
 3906SOL    HW112170   3.496   3.587   4.212
 3906SOL    HW212171   3.499   3.547   4.358
 3907SOL     OW12172   3.440   3.537   4.035
 3907SOL    HW112173   3.532   3.560   4.026
 3907SOL    HW212174   3.411   3.520   3.945
 3908SOL     OW12175   3.258   2.331   5.402
 3908SOL    HW112176   3.262   2.377   5.486
 3908SOL    HW212177   3.315   2.255   5.414
 3909SOL     OW12178   2.950   2.548   4.123
 3909SOL    HW112179   2.897   2.580   4.196
 3909SOL    HW212180   2.890   2.494   4.072
 3910SOL     OW12181   1.985   3.735   5.308
 3910SOL    HW112182   1.989   3.712   5.401
 3910SOL    HW212183   1.903   3.698   5.277
 3911SOL     OW12184   3.562   2.432   5.556
 3911SOL    HW112185   3.528   2.506   5.504
 3911SOL    HW212186   3.592   2.369   5.490
 3912SOL     OW12187   2.872   3.306   4.178
 3912SOL    HW112188   2.841   3.389   4.142
 3912SOL    HW212189   2.842   3.306   4.269
 3913SOL     OW12190   2.215   3.677   4.591
 3913SOL    HW112191   2.260   3.594   4.601
 3913SOL    HW212192   2.281   3.743   4.613
 3914SOL     OW12193   3.663   2.913   4.591
 3914SOL    HW112194   3.616   2.886   4.512
 3914SOL    HW212195   3.595   2.919   4.658
 3915SOL     OW12196   3.092   3.403   5.243
 3915SOL    HW112197   3.084   3.338   5.312
 3915SOL    HW212198   3.028   3.376   5.177
 3916SOL     OW12199   2.330   3.136   5.460
 3916SOL    HW112200   2.305   3.135   5.367
 3916SOL    HW212201   2.247   3.132   5.507
 3917SOL     OW12202   2.989   3.643   3.951
 3917SOL    HW112203   2.912   3.608   3.995
 3917SOL    HW212204   3.009   3.579   3.883
 3918SOL     OW12205   2.055   2.141   5.235
 3918SOL    HW112206   1.965   2.172   5.247
 3918SOL    HW212207   2.055   2.052   5.272
 3919SOL     OW12208   3.503   3.257   3.817
 3919SOL    HW112209   3.458   3.339   3.799
 3919SOL    HW212210   3.440   3.189   3.794
 3920SOL     OW12211   2.321   3.604   4.034
 3920SOL    HW112212   2.371   3.655   4.098
 3920SOL    HW212213   2.388   3.565   3.977
 3921SOL     OW12214   3.282   1.950   4.165
 3921SOL    HW112215   3.273   1.929   4.072
 3921SOL    HW212216   3.376   1.960   4.178
 3922SOL     OW12217   2.125   3.644   4.949
 3922SOL    HW112218   2.179   3.585   5.000
 3922SOL    HW212219   2.110   3.597   4.866
 3923SOL     OW12220   2.805   3.548   4.614
 3923SOL    HW112221   2.895   3.516   4.604
 3923SOL    HW212222   2.756   3.504   4.545
 3924SOL     OW12223   3.390   2.084   5.448
 3924SOL    HW112224   3.399   2.105   5.541
 3924SOL    HW212225   3.326   2.013   5.447
 3925SOL     OW12226   2.468   1.961   3.845
 3925SOL    HW112227   2.547   1.908   3.859
 3925SOL    HW212228   2.431   1.927   3.763
 3926SOL     OW12229   2.621   2.113   5.468
 3926SOL    HW112230   2.704   2.066   5.470
 3926SOL    HW212231   2.611   2.148   5.557
 3927SOL     OW12232   2.761   3.414   4.952
 3927SOL    HW112233   2.767   3.404   4.857
 3927SOL    HW212234   2.829   3.356   4.986
 3928SOL     OW12235   3.199   2.451   5.162
 3928SOL    HW112236   3.231   2.412   5.243
 3928SOL    HW212237   3.247   2.533   5.154
 3929SOL     OW12238   2.415   1.932   4.220
 3929SOL    HW112239   2.338   1.933   4.277
 3929SOL    HW212240   2.410   2.015   4.173
 3930SOL     OW12241   3.319   3.065   3.765
 3930SOL    HW112242   3.351   2.989   3.814
 3930SOL    HW212243   3.235   3.086   3.805
 3931SOL     OW12244   2.166   1.916   3.911
 3931SOL    HW112245   2.241   1.970   3.886
 3931SOL    HW212246   2.204   1.841   3.956
 3932SOL     OW12247   2.830   2.044   4.124
 3932SOL    HW112248   2.842   2.078   4.035
 3932SOL    HW212249   2.914   2.061   4.167
 3933SOL     OW12250   2.929   2.491   5.175
 3933SOL    HW112251   2.911   2.408   5.219
 3933SOL    HW212252   3.024   2.492   5.164
 3934SOL     OW12253   3.060   3.467   4.537
 3934SOL    HW112254   3.085   3.515   4.458
 3934SOL    HW212255   3.136   3.476   4.595
 3935SOL     OW12256   3.124   3.657   4.336
 3935SOL    HW112257   3.174   3.716   4.280
 3935SOL    HW212258   3.055   3.712   4.374
 3936SOL     OW12259   1.963   2.415   5.102
 3936SOL    HW112260   2.042   2.370   5.132
 3936SOL    HW212261   1.953   2.489   5.161
 3937SOL     OW12262   2.888   1.869   4.430
 3937SOL    HW112263   2.817   1.854   4.367
 3937SOL    HW212264   2.863   1.819   4.507
 3938SOL     OW12265   3.385   2.404   4.713
 3938SOL    HW112266   3.306   2.372   4.758
 3938SOL    HW212267   3.439   2.442   4.783
 3939SOL     OW12268   3.711   2.673   4.109
 3939SOL    HW112269   3.768   2.620   4.165
 3939SOL    HW212270   3.673   2.611   4.047
 3940SOL     OW12271   2.352   3.263   3.894
 3940SOL    HW112272   2.269   3.238   3.933
 3940SOL    HW212273   2.343   3.242   3.801
 3941SOL     OW12274   3.542   3.126   4.360
 3941SOL    HW112275   3.637   3.125   4.373
 3941SOL    HW212276   3.515   3.216   4.380
 3942SOL     OW12277   2.412   2.146   4.036
 3942SOL    HW112278   2.438   2.085   3.967
 3942SOL    HW212279   2.335   2.191   4.002
 3943SOL     OW12280   3.610   3.104   5.286
 3943SOL    HW112281   3.698   3.067   5.278
 3943SOL    HW212282   3.625   3.194   5.315
 3944SOL     OW12283   2.933   3.237   5.082
 3944SOL    HW112284   2.852   3.196   5.111
 3944SOL    HW212285   3.001   3.173   5.103
 3945SOL     OW12286   3.471   3.489   5.382
 3945SOL    HW112287   3.462   3.524   5.294
 3945SOL    HW212288   3.553   3.440   5.381
 3946SOL     OW12289   3.484   2.964   4.801
 3946SOL    HW112290   3.493   3.020   4.878
 3946SOL    HW212291   3.396   2.982   4.768
 3947SOL     OW12292   2.777   1.954   5.118
 3947SOL    HW112293   2.800   1.923   5.030
 3947SOL    HW212294   2.857   1.993   5.152
 3948SOL     OW12295   2.849   2.985   5.443
 3948SOL    HW112296   2.762   3.000   5.479
 3948SOL    HW212297   2.835   2.930   5.367
 3949SOL     OW12298   2.272   2.665   5.017
 3949SOL    HW112299   2.363   2.688   5.036
 3949SOL    HW212300   2.273   2.570   5.005
 3950SOL     OW12301   1.940   3.432   5.080
 3950SOL    HW112302   1.912   3.500   5.018
 3950SOL    HW212303   2.035   3.431   5.073
 3951SOL     OW12304   3.122   3.197   4.139
 3951SOL    HW112305   3.175   3.273   4.161
 3951SOL    HW212306   3.031   3.228   4.145
 3952SOL     OW12307   3.152   3.326   4.870
 3952SOL    HW112308   3.199   3.325   4.953
 3952SOL    HW212309   3.072   3.275   4.887
 3953SOL     OW12310   3.428   2.500   4.207
 3953SOL    HW112311   3.445   2.580   4.258
 3953SOL    HW212312   3.464   2.519   4.121
 3954SOL     OW12313   2.216   3.382   5.042
 3954SOL    HW112314   2.192   3.367   4.951
 3954SOL    HW212315   2.311   3.392   5.040
 3955SOL     OW12316   2.255   2.590   5.328
 3955SOL    HW112317   2.301   2.635   5.258
 3955SOL    HW212318   2.278   2.497   5.317
 3956SOL     OW12319   3.469   2.643   5.412
 3956SOL    HW112320   3.384   2.685   5.402
 3956SOL    HW212321   3.524   2.686   5.345
 3957SOL     OW12322   2.869   1.996   5.488
 3957SOL    HW112323   2.924   2.067   5.456
 3957SOL    HW212324   2.914   1.916   5.460
 3958SOL     OW12325   2.357   1.890   5.476
 3958SOL    HW112326   2.311   1.841   5.408
 3958SOL    HW212327   2.303   1.968   5.490
 3959SOL     OW12328   3.177   2.348   4.036
 3959SOL    HW112329   3.136   2.271   4.076
 3959SOL    HW212330   3.106   2.412   4.028
 3960SOL     OW12331   2.124   2.066   4.971
 3960SOL    HW112332   2.106   2.093   5.061
 3960SOL    HW212333   2.128   1.971   4.975
 3961SOL     OW12334   1.921   3.169   4.994
 3961SOL    HW112335   1.944   3.115   5.070
 3961SOL    HW212336   1.920   3.259   5.027
 3962SOL     OW12337   3.603   2.821   5.583
 3962SOL    HW112338   3.559   2.754   5.531
 3962SOL    HW212339   3.542   2.840   5.655
 3963SOL     OW12340   2.167   1.937   4.354
 3963SOL    HW112341   2.104   2.006   4.372
 3963SOL    HW212342   2.176   1.890   4.437
 3964SOL     OW12343   3.492   2.240   4.085
 3964SOL    HW112344   3.517   2.171   4.147
 3964SOL    HW212345   3.451   2.307   4.140
 3965SOL     OW12346   2.846   3.427   5.446
 3965SOL    HW112347   2.826   3.474   5.365
 3965SOL    HW212348   2.891   3.348   5.417
 3966SOL     OW12349   3.712   3.363   5.326
 3966SOL    HW112350   3.735   3.390   5.237
 3966SOL    HW212351   3.792   3.376   5.377
 3967SOL     OW12352   2.207   2.779   5.534
 3967SOL    HW112353   2.287   2.803   5.580
 3967SOL    HW212354   2.234   2.708   5.475
 3968SOL     OW12355   3.395   2.127   3.847
 3968SOL    HW112356   3.327   2.068   3.879
 3968SOL    HW212357   3.422   2.177   3.924
 3969SOL     OW12358   2.999   2.241   5.400
 3969SOL    HW112359   2.957   2.290   5.470
 3969SOL    HW212360   3.089   2.274   5.398
 3970SOL     OW12361   3.017   2.063   5.193
 3970SOL    HW112362   3.010   2.124   5.267
 3970SOL    HW212363   3.054   2.115   5.122
 3971SOL     OW12364   1.855   3.180   3.917
 3971SOL    HW112365   1.770   3.197   3.877
 3971SOL    HW212366   1.847   3.092   3.954
 3972SOL     OW12367   1.947   3.646   4.661
 3972SOL    HW112368   1.919   3.565   4.618
 3972SOL    HW212369   2.038   3.657   4.635
 3973SOL     OW12370   2.367   3.446   4.640
 3973SOL    HW112371   2.422   3.515   4.678
 3973SOL    HW212372   2.424   3.403   4.576
 3974SOL     OW12373   1.874   2.361   4.849
 3974SOL    HW112374   1.941   2.310   4.805
 3974SOL    HW212375   1.914   2.387   4.932
 3975SOL     OW12376   2.051   2.382   5.457
 3975SOL    HW112377   2.109   2.340   5.394
 3975SOL    HW212378   2.013   2.456   5.410
 3976SOL     OW12379   3.243   2.793   5.368
 3976SOL    HW112380   3.266   2.886   5.369
 3976SOL    HW212381   3.236   2.771   5.275
 3977SOL     OW12382   3.523   2.480   4.932
 3977SOL    HW112383   3.508   2.412   4.998
 3977SOL    HW212384   3.607   2.457   4.893
 3978SOL     OW12385   2.098   3.410   5.446
 3978SOL    HW112386   2.078   3.475   5.513
 3978SOL    HW212387   2.105   3.327   5.494
 3979SOL     OW12388   2.487   2.295   4.985
 3979SOL    HW112389   2.427   2.231   4.946
 3979SOL    HW212390   2.547   2.319   4.914
 3980SOL     OW12391   2.776   3.547   5.206
 3980SOL    HW112392   2.763   3.503   5.122
 3980SOL    HW212393   2.771   3.640   5.185
 3981SOL     OW12394   1.997   3.007   5.209
 3981SOL    HW112395   2.000   2.970   5.297
 3981SOL    HW212396   2.009   2.932   5.150
 3982SOL     OW12397   3.195   2.681   4.005
 3982SOL    HW112398   3.133   2.665   4.077
 3982SOL    HW212399   3.177   2.612   3.942
 3983SOL     OW12400   3.642   3.599   4.882
 3983SOL    HW112401   3.702   3.625   4.812
 3983SOL    HW212402   3.614   3.510   4.857
 3984SOL     OW12403   3.107   3.599   4.833
 3984SOL    HW112404   3.188   3.624   4.789
 3984SOL    HW212405   3.116   3.506   4.851
 3985SOL     OW12406   1.944   3.166   4.724
 3985SOL    HW112407   1.932   3.163   4.819
 3985SOL    HW212408   1.906   3.084   4.692
 3986SOL     OW12409   2.543   3.535   5.461
 3986SOL    HW112410   2.482   3.608   5.454
 3986SOL    HW212411   2.610   3.552   5.394
 3987SOL     OW12412   3.584   2.017   4.228
 3987SOL    HW112413   3.655   2.003   4.165
 3987SOL    HW212414   3.570   1.931   4.269
 3988SOL     OW12415   3.258   3.431   4.220
 3988SOL    HW112416   3.314   3.463   4.149
 3988SOL    HW212417   3.204   3.506   4.245
 3989SOL     OW12418   2.003   3.657   5.566
 3989SOL    HW112419   1.953   3.590   5.613
 3989SOL    HW212420   2.049   3.705   5.635
 3990SOL     OW12421   2.678   3.150   5.145
 3990SOL    HW112422   2.654   3.191   5.228
 3990SOL    HW212423   2.595   3.138   5.099
 3991SOL     OW12424   2.528   3.498   3.881
 3991SOL    HW112425   2.542   3.498   3.787
 3991SOL    HW212426   2.514   3.406   3.903
 3992SOL     OW12427   3.480   3.589   5.115
 3992SOL    HW112428   3.535   3.594   5.036
 3992SOL    HW212429   3.466   3.680   5.140
 3993SOL     OW12430   3.704   2.032   4.690
 3993SOL    HW112431   3.733   1.944   4.665
 3993SOL    HW212432   3.618   2.041   4.650
 3994SOL     OW12433   3.069   3.460   3.755
 3994SOL    HW112434   3.037   3.377   3.793
 3994SOL    HW212435   3.010   3.476   3.681
 3995SOL     OW12436   3.349   3.494   3.768
 3995SOL    HW112437   3.256   3.481   3.753
 3995SOL    HW212438   3.387   3.499   3.680
 3996SOL     OW12439   2.234   3.157   5.210
 3996SOL    HW112440   2.226   3.235   5.155
 3996SOL    HW212441   2.151   3.111   5.200
 3997SOL     OW12442   3.457   3.137   5.014
 3997SOL    HW112443   3.528   3.130   5.077
 3997SOL    HW212444   3.407   3.213   5.043
 3998SOL     OW12445   2.466   3.429   4.211
 3998SOL    HW112446   2.512   3.360   4.162
 3998SOL    HW212447   2.386   3.444   4.160
 3999SOL     OW12448   3.593   2.251   5.108
 3999SOL    HW112449   3.666   2.313   5.107
 3999SOL    HW212450   3.620   2.182   5.048
 4000SOL     OW12451   2.112   3.188   4.002
 4000SOL    HW112452   2.017   3.195   3.985
 4000SOL    HW212453   2.123   3.221   4.091
 4001SOL     OW12454   1.975   2.909   5.463
 4001SOL    HW112455   1.898   2.875   5.508
 4001SOL    HW212456   2.048   2.858   5.498
 4002SOL     OW12457   2.532   2.046   5.218
 4002SOL    HW112458   2.618   2.029   5.180
 4002SOL    HW212459   2.551   2.074   5.307
 4003SOL     OW12460   1.907   2.159   3.781
 4003SOL    HW112461   1.854   2.175   3.702
 4003SOL    HW212462   1.973   2.229   3.780
 4004SOL     OW12463   3.282   2.717   5.100
 4004SOL    HW112464   3.243   2.697   5.015
 4004SOL    HW212465   3.374   2.736   5.080
 4005SOL     OW12466   1.919   2.008   4.015
 4005SOL    HW112467   1.894   2.069   3.945
 4005SOL    HW212468   2.010   1.984   3.993
 4006SOL     OW12469   3.346   3.646   4.704
 4006SOL    HW112470   3.367   3.714   4.640
 4006SOL    HW212471   3.431   3.621   4.741
 4007SOL     OW12472   3.335   3.055   5.355
 4007SOL    HW112473   3.323   3.071   5.448
 4007SOL    HW212474   3.427   3.076   5.338
 4008SOL     OW12475   2.231   3.606   5.290
 4008SOL    HW112476   2.148   3.651   5.276
 4008SOL    HW212477   2.206   3.521   5.326
 4009SOL     OW12478   3.530   2.751   4.984
 4009SOL    HW112479   3.530   2.660   4.953
 4009SOL    HW212480   3.526   2.803   4.904
 4010SOL     OW12481   3.083   2.130   4.190
 4010SOL    HW112482   3.153   2.067   4.179
 4010SOL    HW212483   3.106   2.179   4.269
 4011SOL     OW12484   3.617   2.225   5.381
 4011SOL    HW112485   3.606   2.241   5.287
 4011SOL    HW212486   3.544   2.168   5.404
 4012SOL     OW12487   3.610   2.798   5.240
 4012SOL    HW112488   3.602   2.892   5.253
 4012SOL    HW212489   3.593   2.785   5.146
 4013SOL     OW12490   2.532   3.657   4.676
 4013SOL    HW112491   2.507   3.745   4.650
 4013SOL    HW212492   2.625   3.651   4.656
 4014SOL     OW12493   3.708   3.417   4.563
 4014SOL    HW112494   3.630   3.404   4.510
 4014SOL    HW212495   3.703   3.349   4.630
 4015SOL     OW12496   2.086   3.159   5.575
 4015SOL    HW112497   2.031   3.089   5.540
 4015SOL    HW212498   2.055   3.171   5.665
 4016SOL     OW12499   1.933   3.111   4.401
 4016SOL    HW112500   1.914   3.054   4.475
 4016SOL    HW212501   2.013   3.075   4.362
 4017SOL     OW12502   2.553   3.269   5.360
 4017SOL    HW112503   2.469   3.231   5.385
 4017SOL    HW212504   2.549   3.359   5.392
 4018SOL     OW12505   3.672   2.041   4.961
 4018SOL    HW112506   3.679   1.946   4.971
 4018SOL    HW212507   3.683   2.055   4.867
 4019SOL     OW12508   3.558   3.348   4.817
 4019SOL    HW112509   3.480   3.323   4.768
 4019SOL    HW212510   3.569   3.277   4.880
 4020SOL     OW12511   2.675   3.455   4.392
 4020SOL    HW112512   2.689   3.537   4.345
 4020SOL    HW212513   2.600   3.415   4.347
 4021SOL     OW12514   3.295   2.094   4.832
 4021SOL    HW112515   3.315   2.005   4.858
 4021SOL    HW212516   3.214   2.115   4.879
 4022SOL     OW12517   2.862   1.846   4.882
 4022SOL    HW112518   2.818   1.800   4.810
 4022SOL    HW212519   2.954   1.819   4.875
 4023SOL     OW12520   2.622   3.268   4.040
 4023SOL    HW112521   2.581   3.190   4.076
 4023SOL    HW212522   2.716   3.253   4.049
 4024SOL     OW12523   2.484   3.432   5.018
 4024SOL    HW112524   2.486   3.515   5.065
 4024SOL    HW212525   2.574   3.418   4.989
 4025SOL     OW12526   3.220   1.912   3.898
 4025SOL    HW112527   3.253   1.843   3.840
 4025SOL    HW212528   3.130   1.884   3.918
 4026SOL     OW12529   3.446   2.058   4.604
 4026SOL    HW112530   3.393   2.089   4.677
 4026SOL    HW212531   3.454   2.135   4.547
 4027SOL     OW12532   1.887   2.923   4.028
 4027SOL    HW112533   1.939   2.910   3.949
 4027SOL    HW212534   1.876   2.835   4.064
 4028SOL     OW12535   2.760   3.533   4.066
 4028SOL    HW112536   2.686   3.501   4.015
 4028SOL    HW212537   2.722   3.599   4.124
 4029SOL     OW12538   2.084   2.480   5.716
 4029SOL    HW112539   1.995   2.481   5.752
 4029SOL    HW212540   2.072   2.459   5.623
 4030SOL     OW12541   2.086   2.146   6.579
 4030SOL    HW112542   2.114   2.110   6.663
 4030SOL    HW212543   1.997   2.114   6.567
 4031SOL     OW12544   1.859   2.246   6.225
 4031SOL    HW112545   1.778   2.273   6.269
 4031SOL    HW212546   1.833   2.169   6.174
 4032SOL     OW12547   2.423   3.158   6.767
 4032SOL    HW112548   2.339   3.174   6.724
 4032SOL    HW212549   2.446   3.241   6.807
 4033SOL     OW12550   3.433   3.377   6.295
 4033SOL    HW112551   3.390   3.355   6.377
 4033SOL    HW212552   3.362   3.382   6.231
 4034SOL     OW12553   3.017   2.532   6.301
 4034SOL    HW112554   3.038   2.624   6.287
 4034SOL    HW212555   2.947   2.532   6.365
 4035SOL     OW12556   3.639   2.459   5.811
 4035SOL    HW112557   3.612   2.455   5.720
 4035SOL    HW212558   3.600   2.382   5.852
 4036SOL     OW12559   2.647   3.033   6.663
 4036SOL    HW112560   2.562   3.050   6.704
 4036SOL    HW212561   2.662   3.108   6.607
 4037SOL     OW12562   2.582   3.018   7.396
 4037SOL    HW112563   2.629   3.095   7.428
 4037SOL    HW212564   2.502   3.053   7.356
 4038SOL     OW12565   2.191   3.282   6.652
 4038SOL    HW112566   2.118   3.241   6.605
 4038SOL    HW212567   2.238   3.332   6.585
 4039SOL     OW12568   3.320   3.364   6.948
 4039SOL    HW112569   3.373   3.443   6.958
 4039SOL    HW212570   3.250   3.374   7.013
 4040SOL     OW12571   2.314   2.261   7.083
 4040SOL    HW112572   2.392   2.206   7.080
 4040SOL    HW212573   2.242   2.200   7.096
 4041SOL     OW12574   3.466   2.302   6.331
 4041SOL    HW112575   3.390   2.316   6.275
 4041SOL    HW212576   3.465   2.377   6.391
 4042SOL     OW12577   2.081   3.579   6.054
 4042SOL    HW112578   2.103   3.653   6.110
 4042SOL    HW212579   2.156   3.571   5.995
 4043SOL     OW12580   3.001   3.204   7.279
 4043SOL    HW112581   3.037   3.201   7.368
 4043SOL    HW212582   2.952   3.123   7.271
 4044SOL     OW12583   2.092   3.308   6.122
 4044SOL    HW112584   2.075   3.402   6.123
 4044SOL    HW212585   2.036   3.272   6.191
 4045SOL     OW12586   2.122   2.954   6.472
 4045SOL    HW112587   2.114   2.867   6.511
 4045SOL    HW212588   2.069   3.010   6.528
 4046SOL     OW12589   2.460   3.659   7.009
 4046SOL    HW112590   2.381   3.639   7.060
 4046SOL    HW212591   2.487   3.746   7.040
 4047SOL     OW12592   2.426   2.860   5.712
 4047SOL    HW112593   2.472   2.920   5.654
 4047SOL    HW212594   2.485   2.849   5.787
 4048SOL     OW12595   3.458   1.990   7.050
 4048SOL    HW112596   3.482   2.071   7.004
 4048SOL    HW212597   3.435   2.018   7.138
 4049SOL     OW12598   1.980   2.513   6.150
 4049SOL    HW112599   1.944   2.427   6.172
 4049SOL    HW212600   1.970   2.565   6.230
 4050SOL     OW12601   3.706   3.615   5.916
 4050SOL    HW112602   3.776   3.590   5.977
 4050SOL    HW212603   3.723   3.707   5.896
 4051SOL     OW12604   1.902   3.451   5.706
 4051SOL    HW112605   1.883   3.360   5.726
 4051SOL    HW212606   1.876   3.499   5.785
 4052SOL     OW12607   3.552   2.780   6.232
 4052SOL    HW112608   3.634   2.736   6.211
 4052SOL    HW212609   3.531   2.831   6.153
 4053SOL     OW12610   3.512   2.965   6.016
 4053SOL    HW112611   3.598   2.964   5.975
 4053SOL    HW212612   3.519   3.029   6.087
 4054SOL     OW12613   1.968   2.602   7.173
 4054SOL    HW112614   2.059   2.630   7.174
 4054SOL    HW212615   1.918   2.684   7.173
 4055SOL     OW12616   2.483   3.255   6.320
 4055SOL    HW112617   2.439   3.170   6.330
 4055SOL    HW212618   2.463   3.282   6.230
 4056SOL     OW12619   3.147   3.095   7.009
 4056SOL    HW112620   3.178   3.028   6.948
 4056SOL    HW212621   3.208   3.090   7.083
 4057SOL     OW12622   2.678   1.853   6.102
 4057SOL    HW112623   2.725   1.934   6.079
 4057SOL    HW212624   2.586   1.879   6.104
 4058SOL     OW12625   2.037   2.826   6.865
 4058SOL    HW112626   2.122   2.784   6.851
 4058SOL    HW212627   1.977   2.781   6.806
 4059SOL     OW12628   3.394   2.861   5.786
 4059SOL    HW112629   3.331   2.796   5.819
 4059SOL    HW212630   3.436   2.895   5.865
 4060SOL     OW12631   3.046   3.676   7.212
 4060SOL    HW112632   3.050   3.737   7.138
 4060SOL    HW212633   3.062   3.590   7.173
 4061SOL     OW12634   2.201   2.105   7.416
 4061SOL    HW112635   2.241   2.192   7.427
 4061SOL    HW212636   2.109   2.118   7.436
 4062SOL     OW12637   3.331   3.282   6.534
 4062SOL    HW112638   3.263   3.298   6.600
 4062SOL    HW212639   3.318   3.191   6.508
 4063SOL     OW12640   3.514   3.618   6.162
 4063SOL    HW112641   3.497   3.584   6.075
 4063SOL    HW212642   3.496   3.545   6.221
 4064SOL     OW12643   3.145   2.225   6.520
 4064SOL    HW112644   3.056   2.191   6.528
 4064SOL    HW212645   3.196   2.172   6.581
 4065SOL     OW12646   3.441   3.535   5.897
 4065SOL    HW112647   3.533   3.560   5.889
 4065SOL    HW212648   3.412   3.519   5.807
 4066SOL     OW12649   3.258   2.337   7.258
 4066SOL    HW112650   3.260   2.382   7.343
 4066SOL    HW212651   3.312   2.259   7.270
 4067SOL     OW12652   2.854   2.276   6.841
 4067SOL    HW112653   2.763   2.281   6.871
 4067SOL    HW212654   2.846   2.259   6.747
 4068SOL     OW12655   1.947   2.683   6.363
 4068SOL    HW112656   2.026   2.676   6.416
 4068SOL    HW212657   1.902   2.760   6.397
 4069SOL     OW12658   1.985   3.735   7.172
 4069SOL    HW112659   1.990   3.712   7.264
 4069SOL    HW212660   1.903   3.697   7.141
 4070SOL     OW12661   2.751   2.183   5.720
 4070SOL    HW112662   2.803   2.249   5.674
 4070SOL    HW212663   2.800   2.102   5.708
 4071SOL     OW12664   3.567   2.433   7.419
 4071SOL    HW112665   3.532   2.507   7.369
 4071SOL    HW212666   3.593   2.369   7.352
 4072SOL     OW12667   3.236   2.994   6.119
 4072SOL    HW112668   3.320   2.991   6.074
 4072SOL    HW212669   3.188   3.064   6.074
 4073SOL     OW12670   2.409   2.027   6.480
 4073SOL    HW112671   2.411   2.055   6.571
 4073SOL    HW212672   2.405   2.109   6.430
 4074SOL     OW12673   2.859   3.306   6.053
 4074SOL    HW112674   2.833   3.383   6.003
 4074SOL    HW212675   2.835   3.327   6.144
 4075SOL     OW12676   2.216   3.676   6.458
 4075SOL    HW112677   2.261   3.591   6.463
 4075SOL    HW212678   2.285   3.740   6.477
 4076SOL     OW12679   3.663   2.911   6.460
 4076SOL    HW112680   3.611   2.892   6.382
 4076SOL    HW212681   3.599   2.919   6.531
 4077SOL     OW12682   3.087   3.402   7.098
 4077SOL    HW112683   3.077   3.331   7.162
 4077SOL    HW212684   3.021   3.383   7.031
 4078SOL     OW12685   2.169   2.828   5.839
 4078SOL    HW112686   2.248   2.849   5.790
 4078SOL    HW212687   2.148   2.739   5.813
 4079SOL     OW12688   3.339   2.619   6.307
 4079SOL    HW112689   3.341   2.573   6.392
 4079SOL    HW212690   3.419   2.671   6.306
 4080SOL     OW12691   2.332   3.129   7.324
 4080SOL    HW112692   2.305   3.135   7.233
 4080SOL    HW212693   2.250   3.124   7.374
 4081SOL     OW12694   2.988   3.640   5.815
 4081SOL    HW112695   2.911   3.602   5.857
 4081SOL    HW212696   3.012   3.577   5.747
 4082SOL     OW12697   2.065   2.131   7.091
 4082SOL    HW112698   1.983   2.180   7.094
 4082SOL    HW212699   2.043   2.046   7.128
 4083SOL     OW12700   3.490   3.243   5.678
 4083SOL    HW112701   3.450   3.329   5.663
 4083SOL    HW212702   3.421   3.180   5.656
 4084SOL     OW12703   2.325   3.598   5.905
 4084SOL    HW112704   2.370   3.654   5.968
 4084SOL    HW212705   2.395   3.564   5.849
 4085SOL     OW12706   3.263   1.967   6.027
 4085SOL    HW112707   3.256   1.941   5.935
 4085SOL    HW212708   3.357   1.972   6.043
 4086SOL     OW12709   2.119   3.651   6.814
 4086SOL    HW112710   2.169   3.581   6.855
 4086SOL    HW212711   2.112   3.625   6.722
 4087SOL     OW12712   2.798   3.566   6.481
 4087SOL    HW112713   2.869   3.513   6.515
 4087SOL    HW212714   2.760   3.513   6.411
 4088SOL     OW12715   2.246   2.544   6.048
 4088SOL    HW112716   2.277   2.460   6.082
 4088SOL    HW212717   2.154   2.548   6.075
 4089SOL     OW12718   3.387   2.086   7.308
 4089SOL    HW112719   3.399   2.106   7.401
 4089SOL    HW212720   3.318   2.019   7.307
 4090SOL     OW12721   2.478   1.967   5.712
 4090SOL    HW112722   2.567   1.931   5.711
 4090SOL    HW212723   2.442   1.945   5.626
 4091SOL     OW12724   2.619   2.114   7.333
 4091SOL    HW112725   2.704   2.070   7.337
 4091SOL    HW212726   2.599   2.134   7.424
 4092SOL     OW12727   2.739   3.391   6.782
 4092SOL    HW112728   2.719   3.353   6.697
 4092SOL    HW212729   2.805   3.333   6.820
 4093SOL     OW12730   3.205   2.455   7.014
 4093SOL    HW112731   3.235   2.423   7.099
 4093SOL    HW212732   3.242   2.543   7.007
 4094SOL     OW12733   2.682   3.271   6.528
 4094SOL    HW112734   2.766   3.251   6.486
 4094SOL    HW212735   2.618   3.266   6.458
 4095SOL     OW12736   2.791   2.348   6.493
 4095SOL    HW112737   2.768   2.333   6.402
 4095SOL    HW212738   2.830   2.266   6.523
 4096SOL     OW12739   2.415   1.928   6.081
 4096SOL    HW112740   2.335   1.926   6.133
 4096SOL    HW212741   2.407   2.007   6.028
 4097SOL     OW12742   3.289   3.063   5.626
 4097SOL    HW112743   3.318   2.988   5.677
 4097SOL    HW212744   3.202   3.084   5.661
 4098SOL     OW12745   2.154   1.909   5.772
 4098SOL    HW112746   2.211   1.967   5.722
 4098SOL    HW212747   2.213   1.847   5.814
 4099SOL     OW12748   2.817   2.087   6.060
 4099SOL    HW112749   2.774   2.159   6.014
 4099SOL    HW212750   2.911   2.105   6.052
 4100SOL     OW12751   2.928   2.504   7.051
 4100SOL    HW112752   2.898   2.425   7.005
 4100SOL    HW212753   3.023   2.501   7.043
 4101SOL     OW12754   3.086   3.430   6.376
 4101SOL    HW112755   3.097   3.498   6.310
 4101SOL    HW212756   3.149   3.452   6.445
 4102SOL     OW12757   2.332   3.026   6.312
 4102SOL    HW112758   2.265   3.000   6.376
 4102SOL    HW212759   2.294   3.004   6.227
 4103SOL     OW12760   3.125   3.653   6.199
 4103SOL    HW112761   3.173   3.716   6.145
 4103SOL    HW212762   3.056   3.705   6.240
 4104SOL     OW12763   2.905   2.384   5.615
 4104SOL    HW112764   2.833   2.446   5.628
 4104SOL    HW212765   2.962   2.399   5.691
 4105SOL     OW12766   1.947   2.415   6.977
 4105SOL    HW112767   2.040   2.416   6.955
 4105SOL    HW212768   1.937   2.484   7.043
 4106SOL     OW12769   2.415   2.076   6.750
 4106SOL    HW112770   2.459   2.007   6.800
 4106SOL    HW212771   2.325   2.074   6.781
 4107SOL     OW12772   2.725   2.288   6.244
 4107SOL    HW112773   2.704   2.349   6.174
 4107SOL    HW212774   2.757   2.209   6.199
 4108SOL     OW12775   2.883   1.916   6.334
 4108SOL    HW112776   2.825   1.914   6.258
 4108SOL    HW212777   2.856   1.841   6.387
 4109SOL     OW12778   3.307   3.023   6.444
 4109SOL    HW112779   3.233   2.962   6.441
 4109SOL    HW212780   3.336   3.030   6.353
 4110SOL     OW12781   3.330   2.470   6.549
 4110SOL    HW112782   3.271   2.395   6.553
 4110SOL    HW212783   3.386   2.461   6.626
 4111SOL     OW12784   3.700   2.671   5.971
 4111SOL    HW112785   3.759   2.624   6.029
 4111SOL    HW212786   3.677   2.608   5.903
 4112SOL     OW12787   2.353   3.281   5.737
 4112SOL    HW112788   2.277   3.254   5.788
 4112SOL    HW212789   2.347   3.231   5.656
 4113SOL     OW12790   3.537   3.125   6.229
 4113SOL    HW112791   3.632   3.124   6.243
 4113SOL    HW212792   3.511   3.215   6.249
 4114SOL     OW12793   3.258   2.434   5.655
 4114SOL    HW112794   3.198   2.409   5.725
 4114SOL    HW212795   3.344   2.405   5.685
 4115SOL     OW12796   2.386   2.137   5.907
 4115SOL    HW112797   2.422   2.080   5.839
 4115SOL    HW212798   2.361   2.217   5.860
 4116SOL     OW12799   3.610   3.104   7.144
 4116SOL    HW112800   3.697   3.067   7.136
 4116SOL    HW212801   3.625   3.194   7.176
 4117SOL     OW12802   2.924   3.227   6.921
 4117SOL    HW112803   2.846   3.194   6.965
 4117SOL    HW212804   2.996   3.178   6.959
 4118SOL     OW12805   3.472   3.490   7.243
 4118SOL    HW112806   3.464   3.524   7.154
 4118SOL    HW212807   3.554   3.439   7.241
 4119SOL     OW12808   2.995   3.068   6.684
 4119SOL    HW112809   2.922   3.083   6.745
 4119SOL    HW212810   2.965   3.106   6.601
 4120SOL     OW12811   3.485   2.958   6.663
 4120SOL    HW112812   3.479   3.021   6.734
 4120SOL    HW212813   3.411   2.978   6.606
 4121SOL     OW12814   2.780   1.952   6.975
 4121SOL    HW112815   2.803   1.935   6.884
 4121SOL    HW212816   2.858   1.993   7.012
 4122SOL     OW12817   2.848   2.969   7.306
 4122SOL    HW112818   2.759   2.987   7.334
 4122SOL    HW212819   2.840   2.944   7.214
 4123SOL     OW12820   2.263   2.678   6.834
 4123SOL    HW112821   2.350   2.693   6.871
 4123SOL    HW212822   2.240   2.589   6.861
 4124SOL     OW12823   3.126   2.236   6.868
 4124SOL    HW112824   3.160   2.315   6.912
 4124SOL    HW212825   3.034   2.256   6.852
 4125SOL     OW12826   1.939   3.436   6.944
 4125SOL    HW112827   1.912   3.508   6.886
 4125SOL    HW212828   2.034   3.433   6.936
 4126SOL     OW12829   2.204   2.980   6.071
 4126SOL    HW112830   2.199   3.055   6.012
 4126SOL    HW212831   2.195   2.904   6.014
 4127SOL     OW12832   2.412   2.365   6.447
 4127SOL    HW112833   2.399   2.373   6.353
 4127SOL    HW212834   2.507   2.362   6.458
 4128SOL     OW12835   3.108   3.211   5.980
 4128SOL    HW112836   3.164   3.283   6.010
 4128SOL    HW212837   3.021   3.234   6.012
 4129SOL     OW12838   3.150   3.323   6.733
 4129SOL    HW112839   3.204   3.327   6.812
 4129SOL    HW212840   3.086   3.254   6.751
 4130SOL     OW12841   3.436   2.482   6.069
 4130SOL    HW112842   3.387   2.530   6.136
 4130SOL    HW212843   3.485   2.550   6.023
 4131SOL     OW12844   2.208   3.392   6.896
 4131SOL    HW112845   2.197   3.347   6.812
 4131SOL    HW212846   2.303   3.404   6.904
 4132SOL     OW12847   2.246   2.598   7.179
 4132SOL    HW112848   2.321   2.656   7.169
 4132SOL    HW212849   2.284   2.511   7.185
 4133SOL     OW12850   3.472   2.643   7.275
 4133SOL    HW112851   3.386   2.684   7.268
 4133SOL    HW212852   3.524   2.685   7.206
 4134SOL     OW12853   2.865   1.995   7.347
 4134SOL    HW112854   2.920   2.069   7.320
 4134SOL    HW212855   2.914   1.917   7.318
 4135SOL     OW12856   2.359   1.892   7.339
 4135SOL    HW112857   2.312   1.842   7.272
 4135SOL    HW212858   2.305   1.970   7.353
 4136SOL     OW12859   3.221   2.722   6.609
 4136SOL    HW112860   3.142   2.709   6.556
 4136SOL    HW212861   3.268   2.639   6.602
 4137SOL     OW12862   3.064   2.389   5.851
 4137SOL    HW112863   3.062   2.310   5.905
 4137SOL    HW212864   3.080   2.460   5.913
 4138SOL     OW12865   2.156   2.058   6.833
 4138SOL    HW112866   2.121   2.089   6.917
 4138SOL    HW212867   2.138   1.964   6.833
 4139SOL     OW12868   1.907   3.175   6.859
 4139SOL    HW112869   1.939   3.119   6.929
 4139SOL    HW212870   1.913   3.264   6.894
 4140SOL     OW12871   3.604   2.822   7.445
 4140SOL    HW112872   3.559   2.755   7.394
 4140SOL    HW212873   3.544   2.841   7.518
 4141SOL     OW12874   2.172   1.924   6.211
 4141SOL    HW112875   2.146   2.014   6.232
 4141SOL    HW212876   2.179   1.881   6.296
 4142SOL     OW12877   3.485   2.243   5.945
 4142SOL    HW112878   3.513   2.176   6.008
 4142SOL    HW212879   3.460   2.318   5.998
 4143SOL     OW12880   2.843   3.427   7.307
 4143SOL    HW112881   2.826   3.472   7.224
 4143SOL    HW212882   2.887   3.346   7.282
 4144SOL     OW12883   3.713   3.361   7.189
 4144SOL    HW112884   3.735   3.390   7.100
 4144SOL    HW212885   3.793   3.375   7.239
 4145SOL     OW12886   2.209   2.782   7.396
 4145SOL    HW112887   2.289   2.807   7.443
 4145SOL    HW212888   2.235   2.706   7.344
 4146SOL     OW12889   3.385   2.135   5.712
 4146SOL    HW112890   3.324   2.068   5.741
 4146SOL    HW212891   3.421   2.171   5.792
 4147SOL     OW12892   3.151   2.685   5.606
 4147SOL    HW112893   3.192   2.598   5.611
 4147SOL    HW212894   3.184   2.721   5.523
 4148SOL     OW12895   2.930   3.205   6.439
 4148SOL    HW112896   2.935   3.136   6.373
 4148SOL    HW212897   2.989   3.273   6.406
 4149SOL     OW12898   2.161   2.672   6.537
 4149SOL    HW112899   2.248   2.706   6.557
 4149SOL    HW212900   2.161   2.583   6.572
 4150SOL     OW12901   2.191   2.392   6.606
 4150SOL    HW112902   2.151   2.306   6.592
 4150SOL    HW212903   2.270   2.391   6.553
 4151SOL     OW12904   3.004   2.227   7.270
 4151SOL    HW112905   2.956   2.280   7.334
 4151SOL    HW212906   3.087   2.272   7.258
 4152SOL     OW12907   3.024   2.054   7.055
 4152SOL    HW112908   3.013   2.116   7.128
 4152SOL    HW212909   3.067   2.105   6.986
 4153SOL     OW12910   1.871   3.178   5.779
 4153SOL    HW112911   1.784   3.195   5.744
 4153SOL    HW212912   1.866   3.089   5.815
 4154SOL     OW12913   1.952   3.643   6.527
 4154SOL    HW112914   1.922   3.566   6.480
 4154SOL    HW212915   2.041   3.657   6.496
 4155SOL     OW12916   2.353   3.436   6.489
 4155SOL    HW112917   2.422   3.497   6.514
 4155SOL    HW212918   2.397   3.372   6.432
 4156SOL     OW12919   1.898   2.412   6.704
 4156SOL    HW112920   1.980   2.409   6.655
 4156SOL    HW212921   1.925   2.412   6.796
 4157SOL     OW12922   2.049   2.381   7.316
 4157SOL    HW112923   2.098   2.336   7.247
 4157SOL    HW212924   2.009   2.456   7.272
 4158SOL     OW12925   3.243   2.794   7.243
 4158SOL    HW112926   3.264   2.887   7.240
 4158SOL    HW212927   3.240   2.767   7.151
 4159SOL     OW12928   2.699   2.306   5.958
 4159SOL    HW112929   2.706   2.272   5.869
 4159SOL    HW212930   2.614   2.352   5.959
 4160SOL     OW12931   3.501   2.463   6.763
 4160SOL    HW112932   3.491   2.406   6.839
 4160SOL    HW212933   3.590   2.445   6.732
 4161SOL     OW12934   2.097   3.410   7.308
 4161SOL    HW112935   2.079   3.474   7.377
 4161SOL    HW212936   2.108   3.327   7.355
 4162SOL     OW12937   2.572   2.284   6.848
 4162SOL    HW112938   2.513   2.221   6.807
 4162SOL    HW212939   2.579   2.355   6.784
 4163SOL     OW12940   2.779   3.543   7.060
 4163SOL    HW112941   2.760   3.499   6.977
 4163SOL    HW212942   2.774   3.636   7.040
 4164SOL     OW12943   2.325   2.372   5.783
 4164SOL    HW112944   2.364   2.451   5.821
 4164SOL    HW212945   2.235   2.398   5.762
 4165SOL     OW12946   1.999   3.008   7.061
 4165SOL    HW112947   2.002   2.961   7.145
 4165SOL    HW212948   2.014   2.940   6.995
 4166SOL     OW12949   3.183   2.907   6.805
 4166SOL    HW112950   3.206   2.844   6.737
 4166SOL    HW212951   3.118   2.964   6.765
 4167SOL     OW12952   3.175   2.707   5.881
 4167SOL    HW112953   3.103   2.759   5.917
 4167SOL    HW212954   3.155   2.700   5.788
 4168SOL     OW12955   3.642   3.597   6.744
 4168SOL    HW112956   3.702   3.624   6.674
 4168SOL    HW212957   3.615   3.509   6.720
 4169SOL     OW12958   3.101   3.594   6.688
 4169SOL    HW112959   3.185   3.619   6.648
 4169SOL    HW212960   3.111   3.502   6.711
 4170SOL     OW12961   1.948   3.128   6.595
 4170SOL    HW112962   1.931   3.144   6.688
 4170SOL    HW212963   1.877   3.072   6.566
 4171SOL     OW12964   2.542   3.533   7.325
 4171SOL    HW112965   2.486   3.610   7.316
 4171SOL    HW212966   2.614   3.549   7.264
 4172SOL     OW12967   3.585   2.020   6.089
 4172SOL    HW112968   3.655   2.003   6.026
 4172SOL    HW212969   3.568   1.934   6.129
 4173SOL     OW12970   3.255   3.430   6.076
 4173SOL    HW112971   3.313   3.464   6.009
 4173SOL    HW212972   3.204   3.505   6.106
 4174SOL     OW12973   2.001   3.657   7.430
 4174SOL    HW112974   1.951   3.591   7.478
 4174SOL    HW212975   2.050   3.704   7.499
 4175SOL     OW12976   3.128   2.789   6.263
 4175SOL    HW112977   3.200   2.727   6.271
 4175SOL    HW212978   3.162   2.859   6.207
 4176SOL     OW12979   2.692   3.143   7.027
 4176SOL    HW112980   2.642   3.191   7.093
 4176SOL    HW212981   2.626   3.095   6.977
 4177SOL     OW12982   2.530   3.488   5.740
 4177SOL    HW112983   2.543   3.503   5.646
 4177SOL    HW212984   2.475   3.410   5.745
 4178SOL     OW12985   3.480   3.590   6.977
 4178SOL    HW112986   3.534   3.594   6.898
 4178SOL    HW212987   3.466   3.681   7.002
 4179SOL     OW12988   3.705   2.031   6.551
 4179SOL    HW112989   3.734   1.943   6.527
 4179SOL    HW212990   3.618   2.039   6.512
 4180SOL     OW12991   2.117   2.178   6.301
 4180SOL    HW112992   2.030   2.209   6.277
 4180SOL    HW212993   2.114   2.170   6.396
 4181SOL     OW12994   3.071   3.464   5.619
 4181SOL    HW112995   3.059   3.373   5.647
 4181SOL    HW212996   3.004   3.477   5.552
 4182SOL     OW12997   3.351   3.490   5.632
 4182SOL    HW112998   3.257   3.481   5.616
 4182SOL    HW212999   3.389   3.497   5.544
 4183SOL     OW13000   2.226   3.168   7.081
 4183SOL    HW113001   2.218   3.242   7.021
 4183SOL    HW213002   2.148   3.115   7.064
 4184SOL     OW13003   3.470   3.148   6.866
 4184SOL    HW113004   3.526   3.130   6.942
 4184SOL    HW213005   3.409   3.214   6.897
 4185SOL     OW13006   2.914   2.971   6.296
 4185SOL    HW113007   2.846   2.927   6.347
 4185SOL    HW213008   2.981   2.904   6.281
 4186SOL     OW13009   2.895   2.098   6.552
 4186SOL    HW113010   2.891   2.048   6.470
 4186SOL    HW213011   2.886   2.032   6.621
 4187SOL     OW13012   2.465   3.355   6.066
 4187SOL    HW113013   2.515   3.307   6.000
 4187SOL    HW213014   2.389   3.388   6.018
 4188SOL     OW13015   3.591   2.253   6.968
 4188SOL    HW113016   3.663   2.316   6.967
 4188SOL    HW213017   3.620   2.183   6.909
 4189SOL     OW13018   2.126   3.202   5.881
 4189SOL    HW113019   2.034   3.199   5.854
 4189SOL    HW213020   2.124   3.244   5.967
 4190SOL     OW13021   1.975   2.898   7.311
 4190SOL    HW113022   1.899   2.870   7.362
 4190SOL    HW213023   2.049   2.854   7.352
 4191SOL     OW13024   2.532   2.049   7.082
 4191SOL    HW113025   2.617   2.036   7.040
 4191SOL    HW213026   2.553   2.075   7.171
 4192SOL     OW13027   1.941   2.188   5.621
 4192SOL    HW113028   1.856   2.169   5.583
 4192SOL    HW213029   1.971   2.266   5.573
 4193SOL     OW13030   3.289   2.721   6.983
 4193SOL    HW113031   3.238   2.782   6.929
 4193SOL    HW213032   3.377   2.724   6.946
 4194SOL     OW13033   1.925   2.015   5.885
 4194SOL    HW113034   1.912   2.093   5.830
 4194SOL    HW213035   2.010   1.982   5.859
 4195SOL     OW13036   3.041   3.199   5.705
 4195SOL    HW113037   2.950   3.169   5.704
 4195SOL    HW213038   3.066   3.198   5.797
 4196SOL     OW13039   3.345   3.649   6.570
 4196SOL    HW113040   3.368   3.716   6.505
 4196SOL    HW213041   3.430   3.621   6.605
 4197SOL     OW13042   3.337   3.053   7.216
 4197SOL    HW113043   3.324   3.070   7.309
 4197SOL    HW213044   3.428   3.075   7.200
 4198SOL     OW13045   2.232   3.604   7.153
 4198SOL    HW113046   2.149   3.650   7.138
 4198SOL    HW213047   2.206   3.520   7.191
 4199SOL     OW13048   3.526   2.742   6.841
 4199SOL    HW113049   3.523   2.657   6.797
 4199SOL    HW213050   3.516   2.805   6.770
 4200SOL     OW13051   3.082   2.179   6.041
 4200SOL    HW113052   3.142   2.106   6.033
 4200SOL    HW213053   3.112   2.227   6.118
 4201SOL     OW13054   3.616   2.225   7.242
 4201SOL    HW113055   3.604   2.242   7.148
 4201SOL    HW213056   3.543   2.169   7.265
 4202SOL     OW13057   3.613   2.794   7.097
 4202SOL    HW113058   3.600   2.888   7.110
 4202SOL    HW213059   3.593   2.780   7.004
 4203SOL     OW13060   2.741   3.239   5.633
 4203SOL    HW113061   2.697   3.274   5.711
 4203SOL    HW213062   2.756   3.316   5.578
 4204SOL     OW13063   2.524   3.645   6.522
 4204SOL    HW113064   2.508   3.738   6.504
 4204SOL    HW213065   2.619   3.636   6.518
 4205SOL     OW13066   2.974   2.880   5.675
 4205SOL    HW113067   2.936   2.917   5.595
 4205SOL    HW213068   3.032   2.811   5.643
 4206SOL     OW13069   3.707   3.414   6.427
 4206SOL    HW113070   3.628   3.403   6.375
 4206SOL    HW213071   3.696   3.354   6.501
 4207SOL     OW13072   2.087   3.159   7.439
 4207SOL    HW113073   2.030   3.091   7.402
 4207SOL    HW213074   2.051   3.173   7.527
 4208SOL     OW13075   1.952   3.090   6.253
 4208SOL    HW113076   1.967   3.046   6.337
 4208SOL    HW213077   2.019   3.054   6.195
 4209SOL     OW13078   2.541   3.274   7.214
 4209SOL    HW113079   2.463   3.231   7.249
 4209SOL    HW213080   2.541   3.361   7.252
 4210SOL     OW13081   3.674   2.043   6.822
 4210SOL    HW113082   3.679   1.948   6.835
 4210SOL    HW213083   3.685   2.055   6.728
 4211SOL     OW13084   2.316   2.293   6.143
 4211SOL    HW113085   2.334   2.235   6.069
 4211SOL    HW213086   2.245   2.250   6.190
 4212SOL     OW13087   3.561   3.346   6.676
 4212SOL    HW113088   3.480   3.328   6.627
 4212SOL    HW213089   3.564   3.278   6.743
 4213SOL     OW13090   2.204   2.418   6.888
 4213SOL    HW113091   2.255   2.359   6.943
 4213SOL    HW213092   2.216   2.385   6.799
 4214SOL     OW13093   2.696   3.441   6.257
 4214SOL    HW113094   2.668   3.507   6.193
 4214SOL    HW213095   2.621   3.382   6.264
 4215SOL     OW13096   3.293   2.090   6.705
 4215SOL    HW113097   3.310   2.006   6.746
 4215SOL    HW213098   3.242   2.139   6.769
 4216SOL     OW13099   2.871   1.875   6.721
 4216SOL    HW113100   2.816   1.810   6.677
 4216SOL    HW213101   2.958   1.837   6.722
 4217SOL     OW13102   2.638   3.208   5.907
 4217SOL    HW113103   2.629   3.114   5.891
 4217SOL    HW213104   2.719   3.215   5.957
 4218SOL     OW13105   2.480   3.421   6.872
 4218SOL    HW113106   2.482   3.504   6.919
 4218SOL    HW213107   2.569   3.410   6.839
 4219SOL     OW13108   3.221   1.912   5.758
 4219SOL    HW113109   3.256   1.841   5.704
 4219SOL    HW213110   3.131   1.885   5.779
 4220SOL     OW13111   3.175   2.313   6.263
 4220SOL    HW113112   3.124   2.394   6.267
 4220SOL    HW213113   3.166   2.275   6.350
 4221SOL     OW13114   3.446   2.055   6.470
 4221SOL    HW113115   3.392   2.081   6.544
 4221SOL    HW213116   3.446   2.131   6.412
 4222SOL     OW13117   1.903   2.926   5.895
 4222SOL    HW113118   1.996   2.917   5.873
 4222SOL    HW213119   1.875   2.837   5.917
 4223SOL     OW13120   2.752   3.524   5.921
 4223SOL    HW113121   2.676   3.508   5.865
 4223SOL    HW213122   2.725   3.595   5.979
 4224SOL     OW13123   2.088   2.475   7.573
 4224SOL    HW113124   2.001   2.491   7.610
 4224SOL    HW213125   2.072   2.455   7.481
 4225SOL     OW13126   3.633   2.456   7.678
 4225SOL    HW113127   3.611   2.453   7.585
 4225SOL    HW213128   3.596   2.376   7.715
 4226SOL     OW13129   2.083   3.578   7.919
 4226SOL    HW113130   2.110   3.611   8.005
 4226SOL    HW213131   2.162   3.580   7.866
 4227SOL     OW13132   2.072   3.304   7.993
 4227SOL    HW113133   2.059   3.398   7.983
 4227SOL    HW213134   2.018   3.280   8.068
 4228SOL     OW13135   2.420   2.875   7.566
 4228SOL    HW113136   2.478   2.915   7.502
 4228SOL    HW213137   2.457   2.900   7.651
 4229SOL     OW13138   3.702   3.617   7.795
 4229SOL    HW113139   3.775   3.589   7.850
 4229SOL    HW213140   3.723   3.706   7.769
 4230SOL     OW13141   1.896   3.459   7.577
 4230SOL    HW113142   1.882   3.366   7.593
 4230SOL    HW213143   1.869   3.502   7.658
 4231SOL     OW13144   3.543   2.717   8.028
 4231SOL    HW113145   3.619   2.729   0.005
 4231SOL    HW213146   3.528   2.803   7.989
 4232SOL     OW13147   3.519   2.955   7.883
 4232SOL    HW113148   3.606   2.982   7.856
 4232SOL    HW213149   3.484   3.030   7.932
 4233SOL     OW13150   2.667   1.864   7.946
 4233SOL    HW113151   2.714   1.944   7.919
 4233SOL    HW213152   2.575   1.890   7.947
 4234SOL     OW13153   3.395   2.859   7.653
 4234SOL    HW113154   3.328   2.798   7.686
 4234SOL    HW213155   3.439   2.891   7.732
 4235SOL     OW13156   3.435   3.536   7.758
 4235SOL    HW113157   3.527   3.561   7.766
 4235SOL    HW213158   3.422   3.524   7.664
 4236SOL     OW13159   1.917   2.726   0.081
 4236SOL    HW113160   1.985   2.662   0.103
 4236SOL    HW213161   1.926   2.795   0.146
 4237SOL     OW13162   2.758   2.192   7.634
 4237SOL    HW113163   2.797   2.265   7.585
 4237SOL    HW213164   2.801   2.114   7.599
 4238SOL     OW13165   2.173   2.823   7.698
 4238SOL    HW113166   2.249   2.838   7.643
 4238SOL    HW213167   2.147   2.733   7.680
 4239SOL     OW13168   2.993   3.637   7.682
 4239SOL    HW113169   2.912   3.601   7.719
 4239SOL    HW213170   3.017   3.575   7.613
 4240SOL     OW13171   3.490   3.245   7.538
 4240SOL    HW113172   3.449   3.330   7.524
 4240SOL    HW213173   3.422   3.181   7.519
 4241SOL     OW13174   2.326   3.605   7.771
 4241SOL    HW113175   2.379   3.652   7.834
 4241SOL    HW213176   2.389   3.561   7.713
 4242SOL     OW13177   3.283   2.003   7.865
 4242SOL    HW113178   3.272   1.966   7.777
 4242SOL    HW213179   3.378   2.004   7.879
 4243SOL     OW13180   2.243   2.539   7.890
 4243SOL    HW113181   2.234   2.450   7.925
 4243SOL    HW213182   2.182   2.592   7.942
 4244SOL     OW13183   2.483   1.969   7.574
 4244SOL    HW113184   2.565   1.919   7.578
 4244SOL    HW213185   2.446   1.946   7.489
 4245SOL     OW13186   2.397   1.943   7.960
 4245SOL    HW113187   2.309   1.944   7.999
 4245SOL    HW213188   2.395   2.013   7.895
 4246SOL     OW13189   3.290   3.062   7.489
 4246SOL    HW113190   3.319   2.987   7.542
 4246SOL    HW213191   3.203   3.083   7.522
 4247SOL     OW13192   2.153   1.910   7.634
 4247SOL    HW113193   2.209   1.970   7.584
 4247SOL    HW213194   2.214   1.848   7.674
 4248SOL     OW13195   2.800   2.094   7.894
 4248SOL    HW113196   2.769   2.142   7.817
 4248SOL    HW213197   2.890   2.126   7.908
 4249SOL     OW13198   2.283   3.055   0.082
 4249SOL    HW113199   2.203   3.069   0.133
 4249SOL    HW213200   2.251   3.031   8.075
 4250SOL     OW13201   3.157   3.681   8.013
 4250SOL    HW113202   3.197   3.749   7.958
 4250SOL    HW213203   3.065   3.705   8.017
 4251SOL     OW13204   2.911   2.375   7.488
 4251SOL    HW113205   2.868   2.460   7.496
 4251SOL    HW213206   2.977   2.374   7.557
 4252SOL     OW13207   3.739   2.672   7.807
 4252SOL    HW113208   3.700   2.665   7.894
 4252SOL    HW213209   3.703   2.598   7.758
 4253SOL     OW13210   2.347   3.281   7.599
 4253SOL    HW113211   2.272   3.253   7.652
 4253SOL    HW213212   2.342   3.227   7.521
 4254SOL     OW13213   3.259   2.433   7.514
 4254SOL    HW113214   3.198   2.409   7.584
 4254SOL    HW213215   3.344   2.400   7.543
 4255SOL     OW13216   2.382   2.136   7.770
 4255SOL    HW113217   2.425   2.082   7.703
 4255SOL    HW213218   2.364   2.219   7.726
 4256SOL     OW13219   2.545   2.945   7.818
 4256SOL    HW113220   2.490   2.969   7.893
 4256SOL    HW213221   2.549   2.849   7.821
 4257SOL     OW13222   2.227   2.983   7.911
 4257SOL    HW113223   2.198   3.057   7.858
 4257SOL    HW213224   2.212   2.906   7.856
 4258SOL     OW13225   3.079   3.220   7.823
 4258SOL    HW113226   3.134   3.296   7.841
 4258SOL    HW213227   3.068   3.178   7.909
 4259SOL     OW13228   3.450   2.485   7.916
 4259SOL    HW113229   3.456   2.551   7.986
 4259SOL    HW213230   3.478   2.531   7.837
 4260SOL     OW13231   3.073   2.385   7.711
 4260SOL    HW113232   3.065   2.310   7.770
 4260SOL    HW213233   3.081   2.461   7.769
 4261SOL     OW13234   3.487   2.243   7.805
 4261SOL    HW113235   3.510   2.176   7.869
 4261SOL    HW213236   3.460   2.319   7.858
 4262SOL     OW13237   3.387   2.137   7.571
 4262SOL    HW113238   3.324   2.071   7.598
 4262SOL    HW213239   3.421   2.173   7.654
 4263SOL     OW13240   3.152   2.686   7.477
 4263SOL    HW113241   3.191   2.599   7.476
 4263SOL    HW213242   3.181   2.726   7.395
 4264SOL     OW13243   1.873   3.184   7.637
 4264SOL    HW113244   1.785   3.198   7.602
 4264SOL    HW213245   1.871   3.095   7.671
 4265SOL     OW13246   2.328   2.374   7.648
 4265SOL    HW113247   2.361   2.447   7.700
 4265SOL    HW213248   2.240   2.401   7.622
 4266SOL     OW13249   3.165   2.707   7.748
 4266SOL    HW113250   3.087   2.756   7.774
 4266SOL    HW213251   3.156   2.696   7.654
 4267SOL     OW13252   3.577   2.017   7.938
 4267SOL    HW113253   3.651   2.012   7.877
 4267SOL    HW213254   3.584   1.937   7.990
 4268SOL     OW13255   3.218   3.444   7.891
 4268SOL    HW113256   3.295   3.462   7.837
 4268SOL    HW213257   3.191   3.529   7.923
 4269SOL     OW13258   2.523   3.487   7.603
 4269SOL    HW113259   2.538   3.501   7.509
 4269SOL    HW213260   2.470   3.408   7.607
 4270SOL     OW13261   3.073   3.465   7.479
 4270SOL    HW113262   3.059   3.374   7.507
 4270SOL    HW213263   3.006   3.480   7.413
 4271SOL     OW13264   3.353   3.494   7.490
 4271SOL    HW113265   3.259   3.482   7.476
 4271SOL    HW213266   3.390   3.498   7.402
 4272SOL     OW13267   2.486   3.382   7.935
 4272SOL    HW113268   2.533   3.324   7.876
 4272SOL    HW213269   2.398   3.387   7.899
 4273SOL     OW13270   2.124   3.203   7.752
 4273SOL    HW113271   2.034   3.200   7.719
 4273SOL    HW213272   2.117   3.242   7.839
 4274SOL     OW13273   1.939   2.186   7.480
 4274SOL    HW113274   1.855   2.168   7.438
 4274SOL    HW213275   1.971   2.265   7.438
 4275SOL     OW13276   1.925   2.017   7.747
 4275SOL    HW113277   1.910   2.090   7.686
 4275SOL    HW213278   2.009   1.981   7.720
 4276SOL     OW13279   3.034   3.198   7.556
 4276SOL    HW113280   2.947   3.159   7.553
 4276SOL    HW213281   3.054   3.204   7.650
 4277SOL     OW13282   3.071   2.184   7.901
 4277SOL    HW113283   3.148   2.128   7.896
 4277SOL    HW213284   3.078   2.226   7.987
 4278SOL     OW13285   2.726   3.230   7.490
 4278SOL    HW113286   2.689   3.261   7.573
 4278SOL    HW213287   2.746   3.310   7.441
 4279SOL     OW13288   2.967   2.881   7.546
 4279SOL    HW113289   2.927   2.912   7.465
 4279SOL    HW213290   3.025   2.810   7.518
 4280SOL     OW13291   2.243   2.282   7.993
 4280SOL    HW113292   2.292   2.235   7.926
 4280SOL    HW213293   2.300   2.282   8.069
 4281SOL     OW13294   2.634   3.209   7.770
 4281SOL    HW113295   2.605   3.117   7.771
 4281SOL    HW213296   2.722   3.207   7.808
 4282SOL     OW13297   3.222   1.912   7.614
 4282SOL    HW113298   3.257   1.839   7.563
 4282SOL    HW213299   3.134   1.885   7.638
 4283SOL     OW13300   1.916   2.938   7.746
 4283SOL    HW113301   2.010   2.926   7.729
 4283SOL    HW213302   1.884   2.849   7.761
 4284SOL     OW13303   2.756   3.523   7.773
 4284SOL    HW113304   2.678   3.496   7.724
 4284SOL    HW213305   2.723   3.580   7.842
 4285SOL     OW13306   2.068   4.343   0.127
 4285SOL    HW113307   1.988   4.311   0.167
 4285SOL    HW213308   2.087   4.282   0.056
 4286SOL     OW13309   2.086   4.008   0.993
 4286SOL    HW113310   2.114   3.973   1.078
 4286SOL    HW213311   1.997   3.975   0.982
 4287SOL     OW13312   1.860   4.109   0.639
 4287SOL    HW113313   1.779   4.136   0.682
 4287SOL    HW213314   1.835   4.031   0.590
 4288SOL     OW13315   2.435   5.017   1.191
 4288SOL    HW113316   2.351   5.014   1.146
 4288SOL    HW213317   2.448   5.110   1.210
 4289SOL     OW13318   3.425   5.236   0.687
 4289SOL    HW113319   3.408   5.233   0.781
 4289SOL    HW213320   3.344   5.268   0.649
 4290SOL     OW13321   2.996   4.423   0.696
 4290SOL    HW113322   3.043   4.505   0.684
 4290SOL    HW213323   2.948   4.435   0.778
 4291SOL     OW13324   3.637   4.320   0.229
 4291SOL    HW113325   3.588   4.330   0.147
 4291SOL    HW213326   3.598   4.244   0.271
 4292SOL     OW13327   2.606   4.861   1.043
 4292SOL    HW113328   2.544   4.897   1.107
 4292SOL    HW213329   2.642   4.938   0.999
 4293SOL     OW13330   2.739   4.484   1.825
 4293SOL    HW113331   2.725   4.554   1.889
 4293SOL    HW213332   2.760   4.530   1.744
 4294SOL     OW13333   2.544   4.717   0.650
 4294SOL    HW113334   2.612   4.712   0.718
 4294SOL    HW213335   2.477   4.775   0.686
 4295SOL     OW13336   2.571   4.867   1.818
 4295SOL    HW113337   2.618   4.946   1.843
 4295SOL    HW213338   2.490   4.898   1.778
 4296SOL     OW13339   2.201   5.135   1.056
 4296SOL    HW113340   2.120   5.088   1.034
 4296SOL    HW213341   2.229   5.175   0.974
 4297SOL     OW13342   3.316   5.224   1.350
 4297SOL    HW113343   3.372   5.296   1.380
 4297SOL    HW213344   3.249   5.216   1.417
 4298SOL     OW13345   2.314   4.116   1.476
 4298SOL    HW113346   2.390   4.058   1.486
 4298SOL    HW213347   2.239   4.060   1.497
 4299SOL     OW13348   3.466   4.165   0.746
 4299SOL    HW113349   3.395   4.183   0.685
 4299SOL    HW213350   3.468   4.240   0.805
 4300SOL     OW13351   2.995   5.077   1.708
 4300SOL    HW113352   3.021   5.078   1.800
 4300SOL    HW213353   2.941   4.998   1.699
 4301SOL     OW13354   2.069   5.160   0.517
 4301SOL    HW113355   2.104   5.234   0.566
 4301SOL    HW213356   2.022   5.107   0.581
 4302SOL     OW13357   2.131   4.811   0.893
 4302SOL    HW113358   2.127   4.722   0.929
 4302SOL    HW213359   2.073   4.862   0.950
 4303SOL     OW13360   2.481   4.677   0.146
 4303SOL    HW113361   2.424   4.749   0.118
 4303SOL    HW213362   2.535   4.713   0.216
 4304SOL     OW13363   3.457   3.852   1.464
 4304SOL    HW113364   3.483   3.932   1.417
 4304SOL    HW213365   3.436   3.881   1.552
 4305SOL     OW13366   1.980   4.377   0.566
 4305SOL    HW113367   1.948   4.289   0.587
 4305SOL    HW213368   1.970   4.426   0.647
 4306SOL     OW13369   1.830   0.029   0.088
 4306SOL    HW113370   1.841   5.236   0.110
 4306SOL    HW213371   1.862   0.076   0.165
 4307SOL     OW13372   3.550   4.642   0.648
 4307SOL    HW113373   3.630   4.596   0.622
 4307SOL    HW213374   3.527   4.695   0.571
 4308SOL     OW13375   3.511   4.825   0.434
 4308SOL    HW113376   3.595   4.830   0.388
 4308SOL    HW213377   3.520   4.889   0.505
 4309SOL     OW13378   1.987   4.468   1.584
 4309SOL    HW113379   2.078   4.500   1.586
 4309SOL    HW213380   1.934   4.548   1.586
 4310SOL     OW13381   2.488   5.103   0.746
 4310SOL    HW113382   2.433   5.024   0.738
 4310SOL    HW213383   2.472   5.151   0.665
 4311SOL     OW13384   3.148   4.949   1.425
 4311SOL    HW113385   3.180   4.882   1.364
 4311SOL    HW213386   3.211   4.945   1.498
 4312SOL     OW13387   2.683   3.732   0.518
 4312SOL    HW113388   2.723   3.815   0.491
 4312SOL    HW213389   2.589   3.751   0.521
 4313SOL     OW13390   2.049   4.682   1.278
 4313SOL    HW113391   2.136   4.644   1.264
 4313SOL    HW213392   1.992   4.636   1.217
 4314SOL     OW13393   3.359   4.745   0.215
 4314SOL    HW113394   3.298   4.679   0.250
 4314SOL    HW213395   3.417   4.765   0.288
 4315SOL     OW13396   2.206   3.972   1.833
 4315SOL    HW113397   2.246   4.057   1.855
 4315SOL    HW213398   2.113   3.984   1.851
 4316SOL     OW13399   3.344   5.151   0.960
 4316SOL    HW113400   3.271   5.162   1.021
 4316SOL    HW213401   3.333   5.062   0.925
 4317SOL     OW13402   2.462   4.432   0.287
 4317SOL    HW113403   2.476   4.515   0.241
 4317SOL    HW213404   2.397   4.452   0.354
 4318SOL     OW13405   3.141   4.091   0.935
 4318SOL    HW113406   3.052   4.057   0.943
 4318SOL    HW213407   3.193   4.036   0.993
 4319SOL     OW13408   2.653   4.341   1.445
 4319SOL    HW113409   2.628   4.315   1.534
 4319SOL    HW213410   2.619   4.271   1.389
 4320SOL     OW13411   3.254   4.198   1.678
 4320SOL    HW113412   3.258   4.243   1.762
 4320SOL    HW213413   3.311   4.122   1.688
 4321SOL     OW13414   2.812   4.609   1.588
 4321SOL    HW113415   2.868   4.541   1.549
 4321SOL    HW213416   2.763   4.645   1.514
 4322SOL     OW13417   2.857   4.133   1.231
 4322SOL    HW113418   2.767   4.149   1.260
 4322SOL    HW213419   2.848   4.090   1.146
 4323SOL     OW13420   2.919   4.423   0.428
 4323SOL    HW113421   2.937   4.418   0.522
 4323SOL    HW213422   2.835   4.379   0.417
 4324SOL     OW13423   1.950   4.546   0.778
 4324SOL    HW113424   2.030   4.539   0.830
 4324SOL    HW213425   1.905   4.623   0.814
 4325SOL     OW13426   2.749   4.080   0.206
 4325SOL    HW113427   2.793   4.132   0.140
 4325SOL    HW213428   2.750   3.991   0.171
 4326SOL     OW13429   3.564   4.293   1.831
 4326SOL    HW113430   3.530   4.368   1.780
 4326SOL    HW213431   3.593   4.231   1.764
 4327SOL     OW13432   3.241   4.864   0.535
 4327SOL    HW113433   3.323   4.853   0.487
 4327SOL    HW213434   3.191   4.926   0.482
 4328SOL     OW13435   2.413   3.900   0.898
 4328SOL    HW113436   2.415   3.930   0.989
 4328SOL    HW213437   2.413   3.980   0.846
 4329SOL     OW13438   2.868   5.152   0.476
 4329SOL    HW113439   2.803   5.221   0.485
 4329SOL    HW213440   2.887   5.124   0.565
 4330SOL     OW13441   3.665   4.776   0.869
 4330SOL    HW113442   3.610   4.754   0.794
 4330SOL    HW213443   3.604   4.784   0.942
 4331SOL     OW13444   3.117   5.243   1.531
 4331SOL    HW113445   3.079   5.175   1.588
 4331SOL    HW213446   3.042   5.280   1.485
 4332SOL     OW13447   2.173   4.667   0.264
 4332SOL    HW113448   2.232   4.713   0.205
 4332SOL    HW213449   2.191   4.574   0.248
 4333SOL     OW13450   3.343   4.474   0.722
 4333SOL    HW113451   3.341   4.434   0.809
 4333SOL    HW213452   3.420   4.529   0.722
 4334SOL     OW13453   2.328   4.990   1.742
 4334SOL    HW113454   2.300   4.994   1.651
 4334SOL    HW213455   2.245   4.988   1.792
 4335SOL     OW13456   3.027   0.150   0.233
 4335SOL    HW113457   2.947   0.179   0.278
 4335SOL    HW213458   2.996   0.122   0.147
 4336SOL     OW13459   2.065   3.993   1.504
 4336SOL    HW113460   1.984   4.045   1.510
 4336SOL    HW213461   2.041   3.908   1.542
 4337SOL     OW13462   3.493   5.094   0.079
 4337SOL    HW113463   3.452   5.178   0.100
 4337SOL    HW213464   3.419   5.035   0.061
 4338SOL     OW13465   3.270   3.834   0.453
 4338SOL    HW113466   3.264   3.812   0.360
 4338SOL    HW213467   3.364   3.842   0.470
 4339SOL     OW13468   2.251   4.421   0.473
 4339SOL    HW113469   2.270   4.328   0.487
 4339SOL    HW213470   2.158   4.430   0.497
 4340SOL     OW13471   3.388   3.948   1.723
 4340SOL    HW113472   3.399   3.968   1.816
 4340SOL    HW213473   3.320   3.881   1.721
 4341SOL     OW13474   2.495   3.831   0.143
 4341SOL    HW113475   2.590   3.821   0.148
 4341SOL    HW213476   2.474   3.813   0.051
 4342SOL     OW13477   2.625   4.002   1.756
 4342SOL    HW113478   2.706   3.952   1.753
 4342SOL    HW213479   2.579   3.970   1.834
 4343SOL     OW13480   3.199   4.313   1.433
 4343SOL    HW113481   3.231   4.283   1.518
 4343SOL    HW213482   3.237   4.401   1.423
 4344SOL     OW13483   2.681   5.109   0.943
 4344SOL    HW113484   2.760   5.104   0.889
 4344SOL    HW213485   2.610   5.120   0.881
 4345SOL     OW13486   2.791   4.233   0.899
 4345SOL    HW113487   2.765   4.224   0.807
 4345SOL    HW213488   2.821   4.146   0.924
 4346SOL     OW13489   2.415   3.788   0.501
 4346SOL    HW113490   2.336   3.785   0.554
 4346SOL    HW213491   2.404   3.866   0.446
 4347SOL     OW13492   3.285   4.929   0.029
 4347SOL    HW113493   3.308   4.857   0.088
 4347SOL    HW213494   3.199   4.958   0.060
 4348SOL     OW13495   2.177   3.788   0.179
 4348SOL    HW113496   2.242   3.855   0.201
 4348SOL    HW213497   2.212   3.708   0.217
 4349SOL     OW13498   2.807   3.974   0.457
 4349SOL    HW113499   2.780   4.013   0.374
 4349SOL    HW213500   2.901   3.990   0.462
 4350SOL     OW13501   2.942   4.410   1.456
 4350SOL    HW113502   2.877   4.339   1.461
 4350SOL    HW213503   3.026   4.364   1.451
 4351SOL     OW13504   3.126   5.265   0.777
 4351SOL    HW113505   3.077   0.044   0.755
 4351SOL    HW213506   3.176   5.289   0.855
 4352SOL     OW13507   2.330   4.877   0.721
 4352SOL    HW113508   2.265   4.855   0.789
 4352SOL    HW213509   2.284   4.861   0.639
 4353SOL     OW13510   2.894   4.242   0.038
 4353SOL    HW113511   2.859   4.327   0.010
 4353SOL    HW213512   2.958   4.264   0.106
 4354SOL     OW13513   1.947   4.278   1.392
 4354SOL    HW113514   2.039   4.277   1.366
 4354SOL    HW213515   1.941   4.347   1.458
 4355SOL     OW13516   2.419   3.951   1.172
 4355SOL    HW113517   2.461   3.879   1.218
 4355SOL    HW213518   2.328   3.948   1.200
 4356SOL     OW13519   2.728   4.180   0.638
 4356SOL    HW113520   2.691   4.237   0.571
 4356SOL    HW213521   2.752   4.100   0.591
 4357SOL     OW13522   2.882   3.778   0.744
 4357SOL    HW113523   2.821   3.774   0.670
 4357SOL    HW213524   2.856   3.705   0.800
 4358SOL     OW13525   3.306   4.891   0.859
 4358SOL    HW113526   3.235   4.827   0.857
 4358SOL    HW213527   3.332   4.902   0.768
 4359SOL     OW13528   3.328   4.333   0.966
 4359SOL    HW113529   3.270   4.257   0.970
 4359SOL    HW213530   3.384   4.325   1.042
 4360SOL     OW13531   3.708   4.534   0.390
 4360SOL    HW113532   3.763   4.483   0.450
 4360SOL    HW213533   3.680   4.471   0.323
 4361SOL     OW13534   2.320   5.162   0.146
 4361SOL    HW113535   2.273   5.111   0.212
 4361SOL    HW213536   2.380   5.100   0.106
 4362SOL     OW13537   3.538   4.989   0.643
 4362SOL    HW113538   3.632   4.994   0.662
 4362SOL    HW213539   3.505   5.077   0.658
 4363SOL     OW13540   3.258   4.295   0.089
 4363SOL    HW113541   3.195   4.280   0.159
 4363SOL    HW213542   3.306   4.212   0.082
 4364SOL     OW13543   2.371   3.989   0.319
 4364SOL    HW113544   2.428   3.938   0.260
 4364SOL    HW213545   2.358   4.072   0.274
 4365SOL     OW13546   3.609   4.962   1.561
 4365SOL    HW113547   3.694   4.918   1.562
 4365SOL    HW213548   3.630   5.054   1.572
 4366SOL     OW13549   2.925   5.070   1.324
 4366SOL    HW113550   2.844   5.046   1.370
 4366SOL    HW213551   2.995   5.033   1.378
 4367SOL     OW13552   2.993   4.927   1.104
 4367SOL    HW113553   2.947   4.970   1.176
 4367SOL    HW213554   2.942   4.950   1.027
 4368SOL     OW13555   3.487   4.820   1.074
 4368SOL    HW113556   3.481   4.882   1.147
 4368SOL    HW213557   3.413   4.841   1.017
 4369SOL     OW13558   2.780   3.817   1.391
 4369SOL    HW113559   2.803   3.799   1.299
 4369SOL    HW213560   2.859   3.856   1.428
 4370SOL     OW13561   2.846   4.840   1.727
 4370SOL    HW113562   2.754   4.856   1.748
 4370SOL    HW213563   2.845   4.763   1.671
 4371SOL     OW13564   2.581   4.789   0.383
 4371SOL    HW113565   2.561   4.767   0.474
 4371SOL    HW213566   2.659   4.738   0.363
 4372SOL     OW13567   2.284   4.543   1.252
 4372SOL    HW113568   2.352   4.553   1.319
 4372SOL    HW213569   2.250   4.455   1.265
 4373SOL     OW13570   3.125   4.098   1.282
 4373SOL    HW113571   3.157   4.176   1.327
 4373SOL    HW213572   3.034   4.118   1.260
 4374SOL     OW13573   2.188   4.835   0.491
 4374SOL    HW113574   2.188   4.906   0.426
 4374SOL    HW213575   2.198   4.755   0.439
 4375SOL     OW13576   2.408   4.253   0.859
 4375SOL    HW113577   2.421   4.312   0.785
 4375SOL    HW213578   2.475   4.278   0.922
 4376SOL     OW13579   3.115   5.078   0.381
 4376SOL    HW113580   3.168   5.154   0.404
 4376SOL    HW213581   3.027   5.100   0.410
 4377SOL     OW13582   3.138   5.185   1.141
 4377SOL    HW113583   3.196   5.201   1.216
 4377SOL    HW213584   3.095   5.102   1.163
 4378SOL     OW13585   3.437   4.342   0.489
 4378SOL    HW113586   3.387   4.387   0.557
 4378SOL    HW213587   3.466   4.412   0.431
 4379SOL     OW13588   2.212   5.235   1.308
 4379SOL    HW113589   2.200   5.197   1.221
 4379SOL    HW213590   2.306   5.254   1.313
 4380SOL     OW13591   2.280   4.470   1.604
 4380SOL    HW113592   2.344   4.512   1.547
 4380SOL    HW213593   2.318   4.384   1.622
 4381SOL     OW13594   3.472   4.505   1.688
 4381SOL    HW113595   3.386   4.546   1.681
 4381SOL    HW213596   3.524   4.547   1.619
 4382SOL     OW13597   2.858   3.858   1.754
 4382SOL    HW113598   2.916   3.931   1.733
 4382SOL    HW213599   2.907   3.780   1.729
 4383SOL     OW13600   2.358   3.759   1.752
 4383SOL    HW113601   2.310   3.707   1.687
 4383SOL    HW213602   2.303   3.835   1.767
 4384SOL     OW13603   2.447   4.597   1.032
 4384SOL    HW113604   2.481   4.687   1.034
 4384SOL    HW213605   2.391   4.591   1.109
 4385SOL     OW13606   3.207   4.581   1.018
 4385SOL    HW113607   3.121   4.565   0.979
 4385SOL    HW213608   3.254   4.498   1.008
 4386SOL     OW13609   3.059   4.249   0.269
 4386SOL    HW113610   3.068   4.171   0.324
 4386SOL    HW213611   3.018   4.314   0.326
 4387SOL     OW13612   2.157   3.920   1.247
 4387SOL    HW113613   2.121   3.951   1.330
 4387SOL    HW213614   2.140   3.826   1.247
 4388SOL     OW13615   1.924   5.052   1.286
 4388SOL    HW113616   1.943   4.983   1.350
 4388SOL    HW213617   1.949   5.133   1.330
 4389SOL     OW13618   2.581   4.351   1.051
 4389SOL    HW113619   2.658   4.340   0.996
 4389SOL    HW213620   2.552   4.441   1.034
 4390SOL     OW13621   3.602   4.684   1.860
 4390SOL    HW113622   3.559   4.616   1.808
 4390SOL    HW213623   3.540   4.702   1.931
 4391SOL     OW13624   2.170   3.784   0.626
 4391SOL    HW113625   2.146   3.875   0.646
 4391SOL    HW213626   2.178   3.742   0.712
 4392SOL     OW13627   3.493   4.106   0.362
 4392SOL    HW113628   3.518   4.038   0.425
 4392SOL    HW213629   3.465   4.180   0.416
 4393SOL     OW13630   2.891   4.481   0.958
 4393SOL    HW113631   2.881   4.498   1.052
 4393SOL    HW213632   2.864   4.390   0.947
 4394SOL     OW13633   3.715   5.213   1.574
 4394SOL    HW113634   3.693   5.297   1.533
 4394SOL    HW213635   3.786   5.234   1.634
 4395SOL     OW13636   2.213   4.641   1.809
 4395SOL    HW113637   2.292   4.660   1.859
 4395SOL    HW213638   2.240   4.579   1.742
 4396SOL     OW13639   3.365   4.036   0.129
 4396SOL    HW113640   3.319   3.954   0.147
 4396SOL    HW213641   3.412   4.056   0.209
 4397SOL     OW13642   3.161   4.542   0.018
 4397SOL    HW113643   3.196   4.454   0.034
 4397SOL    HW213644   3.227   4.584   8.043
 4398SOL     OW13645   2.915   5.091   0.807
 4398SOL    HW113646   2.925   5.001   0.775
 4398SOL    HW213647   3.003   5.129   0.801
 4399SOL     OW13648   2.171   4.532   0.946
 4399SOL    HW113649   2.264   4.552   0.940
 4399SOL    HW213650   2.167   4.442   0.977
 4400SOL     OW13651   2.187   4.255   1.013
 4400SOL    HW113652   2.152   4.167   1.001
 4400SOL    HW213653   2.264   4.258   0.956
 4401SOL     OW13654   2.996   4.096   1.687
 4401SOL    HW113655   2.948   4.150   1.749
 4401SOL    HW213656   3.083   4.136   1.682
 4402SOL     OW13657   3.022   3.921   1.473
 4402SOL    HW113658   3.011   3.984   1.544
 4402SOL    HW213659   3.065   3.971   1.403
 4403SOL     OW13660   1.879   5.037   0.166
 4403SOL    HW113661   1.791   5.051   0.133
 4403SOL    HW213662   1.875   4.952   0.210
 4404SOL     OW13663   2.832   4.510   1.223
 4404SOL    HW113664   2.894   4.492   1.295
 4404SOL    HW213665   2.750   4.469   1.251
 4405SOL     OW13666   1.899   4.275   1.117
 4405SOL    HW113667   1.980   4.268   1.067
 4405SOL    HW213668   1.927   4.275   1.208
 4406SOL     OW13669   2.053   4.247   1.733
 4406SOL    HW113670   2.107   4.202   1.667
 4406SOL    HW213671   2.018   4.323   1.686
 4407SOL     OW13672   3.243   4.655   1.656
 4407SOL    HW113673   3.264   4.748   1.651
 4407SOL    HW213674   3.238   4.627   1.564
 4408SOL     OW13675   2.684   4.292   0.377
 4408SOL    HW113676   2.693   4.221   0.314
 4408SOL    HW213677   2.608   4.342   0.346
 4409SOL     OW13678   3.502   4.324   1.177
 4409SOL    HW113679   3.493   4.267   1.254
 4409SOL    HW213680   3.590   4.307   1.145
 4410SOL     OW13681   2.064   5.273   1.747
 4410SOL    HW113682   2.029   0.018   1.824
 4410SOL    HW213683   2.078   5.183   1.776
 4411SOL     OW13684   2.578   4.168   1.251
 4411SOL    HW113685   2.519   4.096   1.227
 4411SOL    HW213686   2.568   4.232   1.180
 4412SOL     OW13687   2.328   4.217   0.173
 4412SOL    HW113688   2.395   4.281   0.196
 4412SOL    HW213689   2.245   4.263   0.188
 4413SOL     OW13690   2.002   4.863   1.473
 4413SOL    HW113691   2.005   4.816   1.557
 4413SOL    HW213692   2.020   4.795   1.408
 4414SOL     OW13693   3.183   4.763   1.218
 4414SOL    HW113694   3.204   4.701   1.148
 4414SOL    HW213695   3.116   4.821   1.180
 4415SOL     OW13696   3.169   4.570   0.308
 4415SOL    HW113697   3.093   4.539   0.357
 4415SOL    HW213698   3.145   4.556   0.216
 4416SOL     OW13699   1.963   4.986   1.025
 4416SOL    HW113700   1.942   5.008   1.115
 4416SOL    HW213701   1.882   4.950   0.989
 4417SOL     OW13702   2.620   0.030   1.708
 4417SOL    HW113703   2.528   0.053   1.720
 4417SOL    HW213704   2.640   0.059   1.619
 4418SOL     OW13705   2.769   3.815   0.126
 4418SOL    HW113706   2.769   3.788   0.035
 4418SOL    HW213707   2.840   3.765   0.167
 4419SOL     OW13708   3.587   3.879   0.504
 4419SOL    HW113709   3.656   3.859   0.440
 4419SOL    HW213710   3.570   3.795   0.547
 4420SOL     OW13711   3.140   4.654   0.672
 4420SOL    HW113712   3.213   4.593   0.682
 4420SOL    HW213713   3.174   4.724   0.616
 4421SOL     OW13714   2.668   4.993   1.398
 4421SOL    HW113715   2.635   5.026   1.481
 4421SOL    HW213716   2.593   4.998   1.338
 4422SOL     OW13717   3.705   3.893   0.965
 4422SOL    HW113718   3.734   3.805   0.941
 4422SOL    HW213719   3.618   3.902   0.926
 4423SOL     OW13720   2.117   4.036   0.715
 4423SOL    HW113721   2.031   4.071   0.693
 4423SOL    HW213722   2.118   4.032   0.811
 4424SOL     OW13723   2.997   0.014   8.077
 4424SOL    HW113724   3.013   5.225   0.026
 4424SOL    HW213725   3.012   0.012   7.982
 4425SOL     OW13726   2.689   4.724   1.372
 4425SOL    HW113727   2.737   4.710   1.291
 4425SOL    HW213728   2.689   4.819   1.384
 4426SOL     OW13729   2.788   4.641   0.305
 4426SOL    HW113730   2.839   4.663   0.227
 4426SOL    HW213731   2.835   4.569   0.346
 4427SOL     OW13732   2.223   5.029   1.499
 4427SOL    HW113733   2.214   5.101   1.436
 4427SOL    HW213734   2.147   4.973   1.482
 4428SOL     OW13735   3.474   5.006   1.281
 4428SOL    HW113736   3.527   4.992   1.360
 4428SOL    HW213737   3.411   5.073   1.306
 4429SOL     OW13738   2.928   4.837   0.722
 4429SOL    HW113739   2.854   4.786   0.754
 4429SOL    HW213740   2.991   4.772   0.692
 4430SOL     OW13741   2.887   3.966   0.965
 4430SOL    HW113742   2.884   3.920   0.882
 4430SOL    HW213743   2.881   3.897   1.031
 4431SOL     OW13744   3.590   4.115   1.381
 4431SOL    HW113745   3.662   4.178   1.381
 4431SOL    HW213746   3.619   4.045   1.323
 4432SOL     OW13747   2.127   5.026   0.289
 4432SOL    HW113748   2.046   5.038   0.239
 4432SOL    HW213749   2.114   5.080   0.367
 4433SOL     OW13750   1.976   4.758   1.727
 4433SOL    HW113751   1.900   4.729   1.777
 4433SOL    HW213752   2.050   4.714   1.768
 4434SOL     OW13753   2.539   3.919   1.500
 4434SOL    HW113754   2.623   3.897   1.460
 4434SOL    HW213755   2.561   3.952   1.587
 4435SOL     OW13756   1.920   4.079   0.041
 4435SOL    HW113757   1.837   4.042   0.011
 4435SOL    HW213758   1.976   4.078   8.043
 4436SOL     OW13759   3.287   4.579   1.396
 4436SOL    HW113760   3.237   4.640   1.341
 4436SOL    HW213761   3.375   4.582   1.360
 4437SOL     OW13762   1.931   3.875   0.290
 4437SOL    HW113763   1.916   3.961   0.250
 4437SOL    HW213764   2.016   3.847   0.256
 4438SOL     OW13765   3.048   5.059   0.105
 4438SOL    HW113766   2.953   5.051   0.097
 4438SOL    HW213767   3.065   5.056   0.199
 4439SOL     OW13768   2.483   4.555   1.436
 4439SOL    HW113769   2.541   4.629   1.420
 4439SOL    HW213770   2.542   4.479   1.442
 4440SOL     OW13771   2.581   4.282   1.699
 4440SOL    HW113772   2.625   4.341   1.760
 4440SOL    HW213773   2.598   4.194   1.733
 4441SOL     OW13774   3.339   4.913   1.626
 4441SOL    HW113775   3.326   4.930   1.720
 4441SOL    HW213776   3.432   4.932   1.612
 4442SOL     OW13777   3.525   4.603   1.254
 4442SOL    HW113778   3.521   4.518   1.209
 4442SOL    HW213779   3.515   4.667   1.183
 4443SOL     OW13780   3.079   4.041   0.461
 4443SOL    HW113781   3.143   3.970   0.457
 4443SOL    HW213782   3.106   4.094   0.536
 4444SOL     OW13783   2.444   4.456   0.675
 4444SOL    HW113784   2.486   4.541   0.663
 4444SOL    HW213785   2.379   4.451   0.605
 4445SOL     OW13786   3.617   4.087   1.654
 4445SOL    HW113787   3.604   4.104   1.560
 4445SOL    HW213788   3.544   4.031   1.679
 4446SOL     OW13789   3.610   4.657   1.509
 4446SOL    HW113790   3.597   4.751   1.521
 4446SOL    HW213791   3.592   4.641   1.416
 4447SOL     OW13792   2.784   5.092   0.043
 4447SOL    HW113793   2.724   5.070   0.114
 4447SOL    HW213794   2.733   5.147   8.064
 4448SOL     OW13795   2.733   4.696   0.855
 4448SOL    HW113796   2.782   4.623   0.893
 4448SOL    HW213797   2.693   4.739   0.930
 4449SOL     OW13798   2.942   4.692   0.087
 4449SOL    HW113799   2.919   4.749   0.013
 4449SOL    HW213800   3.018   4.643   0.057
 4450SOL     OW13801   2.080   5.015   1.849
 4450SOL    HW113802   2.023   4.945   1.817
 4450SOL    HW213803   2.059   5.023   1.942
 4451SOL     OW13804   1.957   4.949   0.668
 4451SOL    HW113805   1.953   4.901   0.751
 4451SOL    HW213806   2.024   4.903   0.617
 4452SOL     OW13807   2.542   5.095   1.606
 4452SOL    HW113808   2.463   5.068   1.654
 4452SOL    HW213809   2.578   5.167   1.658
 4453SOL     OW13810   3.672   3.905   1.236
 4453SOL    HW113811   3.679   3.811   1.249
 4453SOL    HW213812   3.684   3.917   1.141
 4454SOL     OW13813   2.283   4.160   0.524
 4454SOL    HW113814   2.316   4.090   0.469
 4454SOL    HW213815   2.236   4.116   0.595
 4455SOL     OW13816   3.568   5.227   1.115
 4455SOL    HW113817   3.494   5.210   1.057
 4455SOL    HW213818   3.574   5.150   1.171
 4456SOL     OW13819   2.199   4.285   1.293
 4456SOL    HW113820   2.252   4.227   1.348
 4456SOL    HW213821   2.215   4.255   1.204
 4457SOL     OW13822   3.291   3.954   1.117
 4457SOL    HW113823   3.310   3.870   1.160
 4457SOL    HW213824   3.240   4.003   1.182
 4458SOL     OW13825   2.871   3.741   1.135
 4458SOL    HW113826   2.815   3.675   1.094
 4458SOL    HW213827   2.958   3.701   1.136
 4459SOL     OW13828   2.662   5.036   0.281
 4459SOL    HW113829   2.619   4.956   0.312
 4459SOL    HW213830   2.721   5.060   0.352
 4460SOL     OW13831   2.485   0.002   1.300
 4460SOL    HW113832   2.485   0.056   1.379
 4460SOL    HW213833   2.577   5.283   1.284
 4461SOL     OW13834   3.217   3.780   0.189
 4461SOL    HW113835   3.232   3.738   0.105
 4461SOL    HW213836   3.130   3.750   0.216
 4462SOL     OW13837   3.158   4.189   0.678
 4462SOL    HW113838   3.106   4.269   0.682
 4462SOL    HW213839   3.153   4.153   0.767
 4463SOL     OW13840   3.446   3.918   0.884
 4463SOL    HW113841   3.391   3.943   0.958
 4463SOL    HW213842   3.446   3.994   0.827
 4464SOL     OW13843   1.904   4.787   0.308
 4464SOL    HW113844   2.000   4.788   0.314
 4464SOL    HW213845   1.879   4.701   0.341
 4465SOL     OW13846   2.083   4.349   1.993
 4465SOL    HW113847   1.994   4.343   2.028
 4465SOL    HW213848   2.074   4.326   1.900
 4466SOL     OW13849   2.086   4.009   2.855
 4466SOL    HW113850   2.114   3.974   2.939
 4466SOL    HW213851   1.997   3.975   2.844
 4467SOL     OW13852   1.860   4.109   2.501
 4467SOL    HW113853   1.779   4.136   2.544
 4467SOL    HW213854   1.836   4.032   2.450
 4468SOL     OW13855   2.435   5.017   3.054
 4468SOL    HW113856   2.351   5.013   3.008
 4468SOL    HW213857   2.447   5.110   3.072
 4469SOL     OW13858   3.423   5.234   2.552
 4469SOL    HW113859   3.412   5.230   2.647
 4469SOL    HW213860   3.339   5.268   2.519
 4470SOL     OW13861   2.995   4.423   2.556
 4470SOL    HW113862   3.043   4.505   2.544
 4470SOL    HW213863   2.947   4.435   2.638
 4471SOL     OW13864   3.640   4.321   2.087
 4471SOL    HW113865   3.613   4.316   1.995
 4471SOL    HW213866   3.600   4.245   2.128
 4472SOL     OW13867   2.607   4.861   2.905
 4472SOL    HW113868   2.545   4.897   2.969
 4472SOL    HW213869   2.642   4.938   2.860
 4473SOL     OW13870   2.739   4.484   3.687
 4473SOL    HW113871   2.725   4.554   3.751
 4473SOL    HW213872   2.760   4.530   3.606
 4474SOL     OW13873   2.547   4.719   2.506
 4474SOL    HW113874   2.613   4.714   2.575
 4474SOL    HW213875   2.479   4.775   2.543
 4475SOL     OW13876   2.571   4.867   3.680
 4475SOL    HW113877   2.618   4.946   3.705
 4475SOL    HW213878   2.490   4.898   3.640
 4476SOL     OW13879   2.200   5.135   2.918
 4476SOL    HW113880   2.120   5.088   2.896
 4476SOL    HW213881   2.229   5.174   2.836
 4477SOL     OW13882   3.316   5.224   3.212
 4477SOL    HW113883   3.372   5.296   3.242
 4477SOL    HW213884   3.249   5.216   3.279
 4478SOL     OW13885   2.314   4.116   3.338
 4478SOL    HW113886   2.390   4.058   3.348
 4478SOL    HW213887   2.239   4.060   3.359
 4479SOL     OW13888   3.466   4.165   2.607
 4479SOL    HW113889   3.395   4.183   2.546
 4479SOL    HW213890   3.468   4.241   2.666
 4480SOL     OW13891   2.994   5.077   3.570
 4480SOL    HW113892   3.021   5.078   3.662
 4480SOL    HW213893   2.941   4.998   3.561
 4481SOL     OW13894   2.072   5.166   2.388
 4481SOL    HW113895   2.107   5.237   2.441
 4481SOL    HW213896   2.025   5.110   2.451
 4482SOL     OW13897   2.131   4.811   2.755
 4482SOL    HW113898   2.128   4.722   2.790
 4482SOL    HW213899   2.074   4.862   2.812
 4483SOL     OW13900   2.437   4.707   2.004
 4483SOL    HW113901   2.487   4.751   1.934
 4483SOL    HW213902   2.477   4.739   2.085
 4484SOL     OW13903   3.457   3.851   3.325
 4484SOL    HW113904   3.483   3.931   3.279
 4484SOL    HW213905   3.436   3.880   3.414
 4485SOL     OW13906   1.980   4.380   2.423
 4485SOL    HW113907   1.951   4.291   2.445
 4485SOL    HW213908   1.972   4.428   2.505
 4486SOL     OW13909   1.854   0.007   1.953
 4486SOL    HW113910   1.864   5.219   1.990
 4486SOL    HW213911   1.869   0.066   2.027
 4487SOL     OW13912   3.552   4.642   2.507
 4487SOL    HW113913   3.633   4.597   2.484
 4487SOL    HW213914   3.529   4.693   2.430
 4488SOL     OW13915   3.512   4.826   2.292
 4488SOL    HW113916   3.599   4.825   2.251
 4488SOL    HW213917   3.520   4.890   2.363
 4489SOL     OW13918   1.988   4.468   3.446
 4489SOL    HW113919   2.078   4.499   3.448
 4489SOL    HW213920   1.935   4.548   3.448
 4490SOL     OW13921   2.488   5.101   2.608
 4490SOL    HW113922   2.434   5.022   2.600
 4490SOL    HW213923   2.471   5.150   2.527
 4491SOL     OW13924   3.148   4.949   3.287
 4491SOL    HW113925   3.180   4.882   3.225
 4491SOL    HW213926   3.210   4.945   3.360
 4492SOL     OW13927   2.683   3.729   2.374
 4492SOL    HW113928   2.723   3.812   2.351
 4492SOL    HW213929   2.589   3.748   2.379
 4493SOL     OW13930   2.049   4.682   3.140
 4493SOL    HW113931   2.136   4.644   3.126
 4493SOL    HW213932   1.992   4.635   3.079
 4494SOL     OW13933   3.392   4.727   2.061
 4494SOL    HW113934   3.323   4.669   2.094
 4494SOL    HW213935   3.435   4.759   2.140
 4495SOL     OW13936   2.205   3.973   3.697
 4495SOL    HW113937   2.246   4.058   3.717
 4495SOL    HW213938   2.112   3.986   3.714
 4496SOL     OW13939   3.344   5.151   2.822
 4496SOL    HW113940   3.272   5.163   2.883
 4496SOL    HW213941   3.332   5.062   2.788
 4497SOL     OW13942   2.456   4.439   2.134
 4497SOL    HW113943   2.459   4.523   2.088
 4497SOL    HW213944   2.391   4.451   2.203
 4498SOL     OW13945   3.141   4.092   2.797
 4498SOL    HW113946   3.052   4.057   2.805
 4498SOL    HW213947   3.194   4.037   2.854
 4499SOL     OW13948   2.652   4.341   3.308
 4499SOL    HW113949   2.628   4.315   3.396
 4499SOL    HW213950   2.619   4.271   3.252
 4500SOL     OW13951   3.254   4.198   3.540
 4500SOL    HW113952   3.259   4.243   3.624
 4500SOL    HW213953   3.311   4.122   3.549
 4501SOL     OW13954   2.812   4.609   3.450
 4501SOL    HW113955   2.868   4.541   3.411
 4501SOL    HW213956   2.763   4.645   3.376
 4502SOL     OW13957   2.857   4.133   3.093
 4502SOL    HW113958   2.767   4.149   3.122
 4502SOL    HW213959   2.848   4.090   3.008
 4503SOL     OW13960   2.916   4.422   2.285
 4503SOL    HW113961   2.935   4.416   2.379
 4503SOL    HW213962   2.833   4.377   2.275
 4504SOL     OW13963   1.950   4.546   2.640
 4504SOL    HW113964   2.030   4.539   2.691
 4504SOL    HW213965   1.906   4.623   2.676
 4505SOL     OW13966   2.762   4.075   2.058
 4505SOL    HW113967   2.801   4.138   1.999
 4505SOL    HW213968   2.770   3.991   2.012
 4506SOL     OW13969   3.565   4.294   3.693
 4506SOL    HW113970   3.531   4.368   3.642
 4506SOL    HW213971   3.593   4.231   3.626
 4507SOL     OW13972   3.244   4.862   2.396
 4507SOL    HW113973   3.326   4.850   2.349
 4507SOL    HW213974   3.195   4.925   2.343
 4508SOL     OW13975   2.413   3.899   2.760
 4508SOL    HW113976   2.416   3.930   2.851
 4508SOL    HW213977   2.413   3.979   2.708
 4509SOL     OW13978   2.877   5.160   2.343
 4509SOL    HW113979   2.808   5.227   2.347
 4509SOL    HW213980   2.889   5.132   2.434
 4510SOL     OW13981   3.666   4.775   2.731
 4510SOL    HW113982   3.611   4.754   2.656
 4510SOL    HW213983   3.604   4.784   2.804
 4511SOL     OW13984   3.117   5.243   3.393
 4511SOL    HW113985   3.079   5.175   3.450
 4511SOL    HW213986   3.042   5.279   3.347
 4512SOL     OW13987   2.174   4.681   2.116
 4512SOL    HW113988   2.257   4.701   2.073
 4512SOL    HW213989   2.146   4.598   2.078
 4513SOL     OW13990   3.343   4.475   2.583
 4513SOL    HW113991   3.341   4.435   2.670
 4513SOL    HW213992   3.422   4.530   2.584
 4514SOL     OW13993   2.328   4.990   3.604
 4514SOL    HW113994   2.300   4.994   3.512
 4514SOL    HW213995   2.246   4.988   3.653
 4515SOL     OW13996   2.912   0.168   2.058
 4515SOL    HW113997   2.950   0.096   2.109
 4515SOL    HW213998   2.927   0.144   1.967
 4516SOL     OW13999   2.064   3.994   3.366
 4516SOL    HW114000   1.984   4.046   3.371
 4516SOL    HW214001   2.040   3.909   3.403
 4517SOL     OW14002   3.481   5.107   1.975
 4517SOL    HW114003   3.500   5.165   1.901
 4517SOL    HW214004   3.416   5.045   1.940
 4518SOL     OW14005   3.262   3.831   2.304
 4518SOL    HW114006   3.254   3.806   2.212
 4518SOL    HW214007   3.356   3.836   2.320
 4519SOL     OW14008   2.259   4.418   2.335
 4519SOL    HW114009   2.275   4.325   2.348
 4519SOL    HW214010   2.165   4.429   2.351
 4520SOL     OW14011   3.388   3.949   3.585
 4520SOL    HW114012   3.399   3.968   3.678
 4520SOL    HW214013   3.320   3.881   3.582
 4521SOL     OW14014   2.509   3.841   1.964
 4521SOL    HW114015   2.567   3.767   1.983
 4521SOL    HW214016   2.454   3.810   1.891
 4522SOL     OW14017   2.625   4.001   3.619
 4522SOL    HW114018   2.706   3.951   3.615
 4522SOL    HW214019   2.579   3.965   3.695
 4523SOL     OW14020   3.199   4.314   3.295
 4523SOL    HW114021   3.231   4.282   3.380
 4523SOL    HW214022   3.237   4.401   3.286
 4524SOL     OW14023   2.682   5.109   2.804
 4524SOL    HW114024   2.760   5.104   2.748
 4524SOL    HW214025   2.610   5.120   2.742
 4525SOL     OW14026   2.791   4.234   2.761
 4525SOL    HW114027   2.766   4.224   2.669
 4525SOL    HW214028   2.821   4.146   2.786
 4526SOL     OW14029   2.415   3.787   2.357
 4526SOL    HW114030   2.336   3.787   2.410
 4526SOL    HW214031   2.406   3.864   2.301
 4527SOL     OW14032   3.291   4.928   1.896
 4527SOL    HW114033   3.319   4.852   1.949
 4527SOL    HW214034   3.203   4.947   1.927
 4528SOL     OW14035   2.151   3.772   2.048
 4528SOL    HW114036   2.208   3.836   2.006
 4528SOL    HW214037   2.211   3.711   2.090
 4529SOL     OW14038   2.805   3.974   2.317
 4529SOL    HW114039   2.781   4.012   2.232
 4529SOL    HW214040   2.899   3.989   2.324
 4530SOL     OW14041   2.942   4.410   3.318
 4530SOL    HW114042   2.877   4.339   3.323
 4530SOL    HW214043   3.026   4.364   3.313
 4531SOL     OW14044   3.128   5.267   2.636
 4531SOL    HW114045   3.073   0.043   2.620
 4531SOL    HW214046   3.177   5.288   2.715
 4532SOL     OW14047   2.331   4.875   2.582
 4532SOL    HW114048   2.266   4.854   2.649
 4532SOL    HW214049   2.285   4.862   2.499
 4533SOL     OW14050   2.886   4.257   1.889
 4533SOL    HW114051   2.843   4.340   1.869
 4533SOL    HW214052   2.951   4.279   1.956
 4534SOL     OW14053   1.947   4.278   3.254
 4534SOL    HW114054   2.039   4.277   3.228
 4534SOL    HW214055   1.942   4.347   3.320
 4535SOL     OW14056   2.420   3.952   3.033
 4535SOL    HW114057   2.461   3.879   3.079
 4535SOL    HW214058   2.328   3.949   3.061
 4536SOL     OW14059   2.728   4.181   2.499
 4536SOL    HW114060   2.685   4.237   2.435
 4536SOL    HW214061   2.751   4.102   2.451
 4537SOL     OW14062   2.881   3.780   2.608
 4537SOL    HW114063   2.822   3.774   2.533
 4537SOL    HW214064   2.857   3.706   2.663
 4538SOL     OW14065   3.307   4.891   2.722
 4538SOL    HW114066   3.236   4.826   2.719
 4538SOL    HW214067   3.334   4.901   2.630
 4539SOL     OW14068   3.328   4.334   2.827
 4539SOL    HW114069   3.270   4.258   2.831
 4539SOL    HW214070   3.384   4.325   2.904
 4540SOL     OW14071   3.701   4.532   2.248
 4540SOL    HW114072   3.760   4.484   2.306
 4540SOL    HW214073   3.677   4.470   2.180
 4541SOL     OW14074   2.332   5.154   2.003
 4541SOL    HW114075   2.277   5.101   2.060
 4541SOL    HW214076   2.355   5.096   1.930
 4542SOL     OW14077   3.536   4.988   2.504
 4542SOL    HW114078   3.630   4.992   2.522
 4542SOL    HW214079   3.504   5.076   2.519
 4543SOL     OW14080   3.255   4.297   1.933
 4543SOL    HW114081   3.194   4.275   2.003
 4543SOL    HW214082   3.340   4.267   1.965
 4544SOL     OW14083   2.387   3.986   2.172
 4544SOL    HW114084   2.438   3.942   2.104
 4544SOL    HW214085   2.360   4.069   2.132
 4545SOL     OW14086   3.609   4.962   3.424
 4545SOL    HW114087   3.694   4.918   3.425
 4545SOL    HW214088   3.630   5.054   3.434
 4546SOL     OW14089   2.925   5.071   3.187
 4546SOL    HW114090   2.844   5.047   3.232
 4546SOL    HW214091   2.994   5.034   3.241
 4547SOL     OW14092   2.994   4.928   2.967
 4547SOL    HW114093   2.948   4.971   3.040
 4547SOL    HW214094   2.939   4.946   2.890
 4548SOL     OW14095   3.487   4.820   2.936
 4548SOL    HW114096   3.481   4.882   3.009
 4548SOL    HW214097   3.413   4.841   2.880
 4549SOL     OW14098   2.780   3.820   3.250
 4549SOL    HW114099   2.803   3.801   3.160
 4549SOL    HW214100   2.859   3.858   3.288
 4550SOL     OW14101   2.846   4.840   3.589
 4550SOL    HW114102   2.754   4.856   3.610
 4550SOL    HW214103   2.845   4.762   3.533
 4551SOL     OW14104   2.570   4.787   2.233
 4551SOL    HW114105   2.556   4.767   2.325
 4551SOL    HW214106   2.646   4.734   2.208
 4552SOL     OW14107   2.285   4.544   3.114
 4552SOL    HW114108   2.352   4.553   3.181
 4552SOL    HW214109   2.250   4.455   3.127
 4553SOL     OW14110   3.125   4.098   3.143
 4553SOL    HW114111   3.157   4.176   3.188
 4553SOL    HW214112   3.034   4.119   3.121
 4554SOL     OW14113   2.191   4.842   2.349
 4554SOL    HW114114   2.189   4.914   2.286
 4554SOL    HW214115   2.194   4.763   2.294
 4555SOL     OW14116   2.408   4.254   2.721
 4555SOL    HW114117   2.421   4.313   2.647
 4555SOL    HW214118   2.475   4.279   2.784
 4556SOL     OW14119   3.122   5.083   2.249
 4556SOL    HW114120   3.179   5.150   2.288
 4556SOL    HW214121   3.034   5.106   2.281
 4557SOL     OW14122   3.138   5.185   3.003
 4557SOL    HW114123   3.196   5.201   3.078
 4557SOL    HW214124   3.095   5.102   3.023
 4558SOL     OW14125   3.439   4.343   2.347
 4558SOL    HW114126   3.389   4.389   2.414
 4558SOL    HW214127   3.483   4.411   2.298
 4559SOL     OW14128   2.212   5.235   3.170
 4559SOL    HW114129   2.200   5.197   3.083
 4559SOL    HW214130   2.305   5.254   3.175
 4560SOL     OW14131   2.280   4.470   3.466
 4560SOL    HW114132   2.344   4.512   3.409
 4560SOL    HW214133   2.317   4.383   3.483
 4561SOL     OW14134   3.472   4.506   3.550
 4561SOL    HW114135   3.386   4.546   3.543
 4561SOL    HW214136   3.524   4.547   3.481
 4562SOL     OW14137   2.859   3.861   3.615
 4562SOL    HW114138   2.917   3.934   3.595
 4562SOL    HW214139   2.909   3.783   3.589
 4563SOL     OW14140   2.358   3.760   3.615
 4563SOL    HW114141   2.315   3.714   3.542
 4563SOL    HW214142   2.303   3.836   3.631
 4564SOL     OW14143   2.448   4.597   2.894
 4564SOL    HW114144   2.481   4.687   2.896
 4564SOL    HW214145   2.391   4.591   2.971
 4565SOL     OW14146   3.207   4.581   2.879
 4565SOL    HW114147   3.120   4.564   2.842
 4565SOL    HW214148   3.254   4.498   2.869
 4566SOL     OW14149   3.061   4.250   2.123
 4566SOL    HW114150   3.069   4.172   2.178
 4566SOL    HW214151   3.019   4.315   2.180
 4567SOL     OW14152   2.158   3.923   3.109
 4567SOL    HW114153   2.122   3.953   3.192
 4567SOL    HW214154   2.140   3.829   3.107
 4568SOL     OW14155   1.923   5.051   3.148
 4568SOL    HW114156   1.942   4.983   3.212
 4568SOL    HW214157   1.950   5.132   3.192
 4569SOL     OW14158   2.581   4.351   2.913
 4569SOL    HW114159   2.658   4.340   2.858
 4569SOL    HW214160   2.552   4.441   2.896
 4570SOL     OW14161   3.602   4.684   3.722
 4570SOL    HW114162   3.559   4.616   3.669
 4570SOL    HW214163   3.540   4.702   3.793
 4571SOL     OW14164   2.172   3.785   2.487
 4571SOL    HW114165   2.147   3.875   2.507
 4571SOL    HW214166   2.180   3.742   2.572
 4572SOL     OW14167   3.486   4.104   2.220
 4572SOL    HW114168   3.514   4.038   2.284
 4572SOL    HW214169   3.461   4.180   2.274
 4573SOL     OW14170   2.891   4.482   2.820
 4573SOL    HW114171   2.881   4.498   2.914
 4573SOL    HW214172   2.864   4.391   2.808
 4574SOL     OW14173   3.714   5.213   3.436
 4574SOL    HW114174   3.693   5.297   3.395
 4574SOL    HW214175   3.786   5.234   3.496
 4575SOL     OW14176   2.213   4.642   3.671
 4575SOL    HW114177   2.292   4.660   3.720
 4575SOL    HW214178   2.240   4.579   3.604
 4576SOL     OW14179   3.387   3.996   1.987
 4576SOL    HW114180   3.324   3.930   2.016
 4576SOL    HW214181   3.423   4.033   2.068
 4577SOL     OW14182   3.148   4.548   1.889
 4577SOL    HW114183   3.190   4.462   1.894
 4577SOL    HW214184   3.180   4.586   1.808
 4578SOL     OW14185   2.915   5.092   2.664
 4578SOL    HW114186   2.925   5.001   2.634
 4578SOL    HW214187   3.004   5.127   2.661
 4579SOL     OW14188   2.170   4.532   2.808
 4579SOL    HW114189   2.264   4.551   2.801
 4579SOL    HW214190   2.167   4.442   2.839
 4580SOL     OW14191   2.187   4.255   2.875
 4580SOL    HW114192   2.152   4.167   2.862
 4580SOL    HW214193   2.264   4.258   2.818
 4581SOL     OW14194   2.996   4.097   3.548
 4581SOL    HW114195   2.949   4.151   3.611
 4581SOL    HW214196   3.083   4.137   3.543
 4582SOL     OW14197   3.022   3.922   3.333
 4582SOL    HW114198   3.011   3.985   3.405
 4582SOL    HW214199   3.065   3.972   3.264
 4583SOL     OW14200   1.868   5.033   2.055
 4583SOL    HW114201   1.776   5.053   2.035
 4583SOL    HW214202   1.866   4.945   2.091
 4584SOL     OW14203   2.832   4.510   3.085
 4584SOL    HW114204   2.893   4.492   3.157
 4584SOL    HW214205   2.750   4.468   3.112
 4585SOL     OW14206   1.899   4.275   2.979
 4585SOL    HW114207   1.980   4.268   2.928
 4585SOL    HW214208   1.928   4.275   3.070
 4586SOL     OW14209   2.054   4.247   3.595
 4586SOL    HW114210   2.106   4.201   3.529
 4586SOL    HW214211   2.019   4.323   3.548
 4587SOL     OW14212   3.243   4.655   3.518
 4587SOL    HW114213   3.264   4.748   3.513
 4587SOL    HW214214   3.238   4.626   3.427
 4588SOL     OW14215   2.680   4.294   2.230
 4588SOL    HW114216   2.686   4.220   2.169
 4588SOL    HW214217   2.605   4.345   2.199
 4589SOL     OW14218   3.502   4.324   3.040
 4589SOL    HW114219   3.492   4.266   3.115
 4589SOL    HW214220   3.590   4.307   3.007
 4590SOL     OW14221   2.064   5.273   3.609
 4590SOL    HW114222   2.030   0.018   3.687
 4590SOL    HW214223   2.078   5.183   3.638
 4591SOL     OW14224   2.578   4.168   3.113
 4591SOL    HW114225   2.519   4.096   3.089
 4591SOL    HW214226   2.568   4.232   3.043
 4592SOL     OW14227   2.319   4.215   2.041
 4592SOL    HW114228   2.380   4.285   2.066
 4592SOL    HW214229   2.235   4.259   2.033
 4593SOL     OW14230   2.003   4.863   3.335
 4593SOL    HW114231   2.005   4.816   3.419
 4593SOL    HW214232   2.020   4.795   3.269
 4594SOL     OW14233   3.183   4.763   3.080
 4594SOL    HW114234   3.204   4.701   3.010
 4594SOL    HW214235   3.116   4.821   3.042
 4595SOL     OW14236   3.178   4.582   2.164
 4595SOL    HW114237   3.105   4.549   2.216
 4595SOL    HW214238   3.151   4.567   2.074
 4596SOL     OW14239   1.963   4.986   2.887
 4596SOL    HW114240   1.941   5.008   2.977
 4596SOL    HW214241   1.882   4.949   2.850
 4597SOL     OW14242   2.620   0.031   3.570
 4597SOL    HW114243   2.528   0.053   3.582
 4597SOL    HW214244   2.640   0.059   3.481
 4598SOL     OW14245   3.585   3.881   2.366
 4598SOL    HW114246   3.655   3.865   2.302
 4598SOL    HW214247   3.568   3.796   2.406
 4599SOL     OW14248   3.140   4.654   2.534
 4599SOL    HW114249   3.213   4.593   2.545
 4599SOL    HW214250   3.175   4.723   2.478
 4600SOL     OW14251   2.668   4.993   3.259
 4600SOL    HW114252   2.635   5.026   3.343
 4600SOL    HW214253   2.592   4.997   3.200
 4601SOL     OW14254   3.705   3.893   2.827
 4601SOL    HW114255   3.734   3.805   2.804
 4601SOL    HW214256   3.618   3.902   2.788
 4602SOL     OW14257   2.118   4.036   2.576
 4602SOL    HW114258   2.032   4.071   2.553
 4602SOL    HW214259   2.118   4.032   2.672
 4603SOL     OW14260   2.689   4.724   3.235
 4603SOL    HW114261   2.737   4.709   3.153
 4603SOL    HW214262   2.689   4.819   3.246
 4604SOL     OW14263   2.779   4.636   2.155
 4604SOL    HW114264   2.839   4.670   2.088
 4604SOL    HW214265   2.829   4.568   2.199
 4605SOL     OW14266   2.223   5.029   3.361
 4605SOL    HW114267   2.214   5.101   3.298
 4605SOL    HW214268   2.147   4.973   3.344
 4606SOL     OW14269   3.474   5.006   3.143
 4606SOL    HW114270   3.527   4.992   3.221
 4606SOL    HW214271   3.410   5.073   3.168
 4607SOL     OW14272   2.928   4.837   2.583
 4607SOL    HW114273   2.854   4.786   2.615
 4607SOL    HW214274   2.992   4.771   2.555
 4608SOL     OW14275   2.887   3.967   2.828
 4608SOL    HW114276   2.884   3.921   2.744
 4608SOL    HW214277   2.882   3.897   2.894
 4609SOL     OW14278   3.590   4.115   3.243
 4609SOL    HW114279   3.663   4.178   3.242
 4609SOL    HW214280   3.619   4.045   3.185
 4610SOL     OW14281   2.122   5.047   2.154
 4610SOL    HW114282   2.031   5.046   2.125
 4610SOL    HW214283   2.121   5.099   2.234
 4611SOL     OW14284   1.975   4.759   3.589
 4611SOL    HW114285   1.900   4.729   3.639
 4611SOL    HW214286   2.050   4.714   3.629
 4612SOL     OW14287   2.539   3.919   3.361
 4612SOL    HW114288   2.624   3.899   3.321
 4612SOL    HW214289   2.561   3.951   3.449
 4613SOL     OW14290   1.943   4.051   1.893
 4613SOL    HW114291   1.857   4.032   1.855
 4613SOL    HW214292   1.973   4.129   1.846
 4614SOL     OW14293   3.287   4.579   3.258
 4614SOL    HW114294   3.237   4.640   3.203
 4614SOL    HW214295   3.376   4.582   3.222
 4615SOL     OW14296   1.922   3.877   2.162
 4615SOL    HW114297   1.910   3.956   2.108
 4615SOL    HW214298   2.008   3.844   2.135
 4616SOL     OW14299   3.044   5.056   1.986
 4616SOL    HW114300   2.954   5.024   1.989
 4616SOL    HW214301   3.074   5.053   2.077
 4617SOL     OW14302   2.483   4.555   3.298
 4617SOL    HW114303   2.541   4.629   3.283
 4617SOL    HW214304   2.541   4.479   3.305
 4618SOL     OW14305   2.581   4.281   3.561
 4618SOL    HW114306   2.626   4.340   3.622
 4618SOL    HW214307   2.598   4.193   3.595
 4619SOL     OW14308   3.339   4.913   3.488
 4619SOL    HW114309   3.326   4.930   3.582
 4619SOL    HW214310   3.432   4.932   3.474
 4620SOL     OW14311   3.525   4.603   3.116
 4620SOL    HW114312   3.522   4.518   3.072
 4620SOL    HW214313   3.516   4.667   3.045
 4621SOL     OW14314   3.078   4.043   2.319
 4621SOL    HW114315   3.139   3.970   2.313
 4621SOL    HW214316   3.107   4.093   2.395
 4622SOL     OW14317   2.448   4.457   2.536
 4622SOL    HW114318   2.488   4.543   2.522
 4622SOL    HW214319   2.384   4.449   2.466
 4623SOL     OW14320   3.617   4.087   3.516
 4623SOL    HW114321   3.604   4.104   3.423
 4623SOL    HW214322   3.544   4.031   3.541
 4624SOL     OW14323   3.610   4.657   3.371
 4624SOL    HW114324   3.597   4.751   3.382
 4624SOL    HW214325   3.592   4.641   3.278
 4625SOL     OW14326   2.704   5.093   1.884
 4625SOL    HW114327   2.693   5.092   1.979
 4625SOL    HW214328   2.711   5.186   1.862
 4626SOL     OW14329   2.733   4.696   2.715
 4626SOL    HW114330   2.781   4.623   2.754
 4626SOL    HW214331   2.692   4.740   2.790
 4627SOL     OW14332   2.941   4.715   1.953
 4627SOL    HW114333   2.918   4.765   1.875
 4627SOL    HW214334   3.013   4.659   1.925
 4628SOL     OW14335   2.080   5.015   3.710
 4628SOL    HW114336   2.024   4.944   3.679
 4628SOL    HW214337   2.059   5.022   3.803
 4629SOL     OW14338   1.955   4.950   2.530
 4629SOL    HW114339   1.955   4.901   2.612
 4629SOL    HW214340   2.018   4.904   2.474
 4630SOL     OW14341   2.542   5.095   3.468
 4630SOL    HW114342   2.463   5.068   3.516
 4630SOL    HW214343   2.579   5.166   3.520
 4631SOL     OW14344   3.673   3.905   3.098
 4631SOL    HW114345   3.679   3.810   3.111
 4631SOL    HW214346   3.684   3.917   3.004
 4632SOL     OW14347   2.289   4.157   2.387
 4632SOL    HW114348   2.321   4.086   2.330
 4632SOL    HW214349   2.239   4.112   2.455
 4633SOL     OW14350   3.568   5.227   2.977
 4633SOL    HW114351   3.494   5.210   2.919
 4633SOL    HW214352   3.574   5.150   3.033
 4634SOL     OW14353   2.199   4.285   3.155
 4634SOL    HW114354   2.252   4.227   3.210
 4634SOL    HW214355   2.215   4.255   3.066
 4635SOL     OW14356   3.291   3.954   2.978
 4635SOL    HW114357   3.308   3.869   3.019
 4635SOL    HW214358   3.241   4.002   3.044
 4636SOL     OW14359   2.871   3.740   2.996
 4636SOL    HW114360   2.816   3.676   2.952
 4636SOL    HW214361   2.958   3.701   2.999
 4637SOL     OW14362   2.674   5.043   2.149
 4637SOL    HW114363   2.625   4.965   2.174
 4637SOL    HW214364   2.729   5.063   2.225
 4638SOL     OW14365   2.484   0.002   3.163
 4638SOL    HW114366   2.484   0.057   3.241
 4638SOL    HW214367   2.577   5.283   3.147
 4639SOL     OW14368   3.220   3.775   2.035
 4639SOL    HW114369   3.254   3.705   1.980
 4639SOL    HW214370   3.131   3.748   2.056
 4640SOL     OW14371   3.158   4.188   2.539
 4640SOL    HW114372   3.106   4.268   2.543
 4640SOL    HW214373   3.153   4.152   2.628
 4641SOL     OW14374   3.446   3.918   2.746
 4641SOL    HW114375   3.391   3.943   2.819
 4641SOL    HW214376   3.446   3.995   2.688
 4642SOL     OW14377   1.904   4.786   2.172
 4642SOL    HW114378   1.998   4.779   2.155
 4642SOL    HW214379   1.876   4.697   2.193
 4643SOL     OW14380   2.083   4.350   3.855
 4643SOL    HW114381   1.994   4.343   3.890
 4643SOL    HW214382   2.074   4.326   3.762
 4644SOL     OW14383   2.086   4.009   4.717
 4644SOL    HW114384   2.114   3.971   4.800
 4644SOL    HW214385   1.997   3.976   4.705
 4645SOL     OW14386   1.860   4.110   4.362
 4645SOL    HW114387   1.779   4.136   4.406
 4645SOL    HW214388   1.836   4.032   4.312
 4646SOL     OW14389   2.435   5.017   4.916
 4646SOL    HW114390   2.351   5.013   4.870
 4646SOL    HW214391   2.447   5.110   4.934
 4647SOL     OW14392   3.423   5.234   4.414
 4647SOL    HW114393   3.412   5.230   4.509
 4647SOL    HW214394   3.339   5.268   4.382
 4648SOL     OW14395   2.995   4.423   4.418
 4648SOL    HW114396   3.043   4.505   4.406
 4648SOL    HW214397   2.947   4.435   4.500
 4649SOL     OW14398   3.639   4.321   3.949
 4649SOL    HW114399   3.613   4.317   3.857
 4649SOL    HW214400   3.600   4.244   3.990
 4650SOL     OW14401   2.607   4.861   4.767
 4650SOL    HW114402   2.545   4.897   4.831
 4650SOL    HW214403   2.642   4.939   4.723
 4651SOL     OW14404   2.739   4.484   5.549
 4651SOL    HW114405   2.725   4.554   5.613
 4651SOL    HW214406   2.760   4.530   5.468
 4652SOL     OW14407   2.547   4.719   4.368
 4652SOL    HW114408   2.613   4.714   4.437
 4652SOL    HW214409   2.479   4.775   4.404
 4653SOL     OW14410   2.571   4.867   5.542
 4653SOL    HW114411   2.618   4.946   5.567
 4653SOL    HW214412   2.490   4.898   5.502
 4654SOL     OW14413   2.200   5.135   4.780
 4654SOL    HW114414   2.120   5.088   4.758
 4654SOL    HW214415   2.229   5.174   4.698
 4655SOL     OW14416   3.316   5.224   5.074
 4655SOL    HW114417   3.372   5.296   5.104
 4655SOL    HW214418   3.249   5.216   5.141
 4656SOL     OW14419   2.313   4.116   5.201
 4656SOL    HW114420   2.389   4.059   5.210
 4656SOL    HW214421   2.238   4.060   5.220
 4657SOL     OW14422   3.466   4.165   4.469
 4657SOL    HW114423   3.395   4.183   4.408
 4657SOL    HW214424   3.468   4.241   4.527
 4658SOL     OW14425   2.995   5.077   5.432
 4658SOL    HW114426   3.021   5.078   5.524
 4658SOL    HW214427   2.941   4.998   5.423
 4659SOL     OW14428   2.072   5.166   4.250
 4659SOL    HW114429   2.107   5.237   4.303
 4659SOL    HW214430   2.025   5.110   4.313
 4660SOL     OW14431   2.131   4.811   4.617
 4660SOL    HW114432   2.128   4.722   4.652
 4660SOL    HW214433   2.074   4.862   4.674
 4661SOL     OW14434   2.437   4.707   3.866
 4661SOL    HW114435   2.487   4.751   3.796
 4661SOL    HW214436   2.477   4.739   3.947
 4662SOL     OW14437   3.457   3.851   5.188
 4662SOL    HW114438   3.484   3.930   5.141
 4662SOL    HW214439   3.436   3.881   5.276
 4663SOL     OW14440   1.980   4.380   4.285
 4663SOL    HW114441   1.951   4.291   4.307
 4663SOL    HW214442   1.972   4.428   4.367
 4664SOL     OW14443   1.854   0.007   3.815
 4664SOL    HW114444   1.864   5.219   3.852
 4664SOL    HW214445   1.869   0.066   3.889
 4665SOL     OW14446   3.552   4.642   4.369
 4665SOL    HW114447   3.632   4.597   4.345
 4665SOL    HW214448   3.529   4.694   4.292
 4666SOL     OW14449   3.512   4.826   4.154
 4666SOL    HW114450   3.599   4.825   4.114
 4666SOL    HW214451   3.520   4.890   4.225
 4667SOL     OW14452   1.987   4.468   5.308
 4667SOL    HW114453   2.078   4.499   5.310
 4667SOL    HW214454   1.934   4.548   5.310
 4668SOL     OW14455   2.488   5.101   4.470
 4668SOL    HW114456   2.434   5.022   4.462
 4668SOL    HW214457   2.471   5.150   4.389
 4669SOL     OW14458   3.148   4.949   5.149
 4669SOL    HW114459   3.180   4.882   5.088
 4669SOL    HW214460   3.210   4.945   5.222
 4670SOL     OW14461   2.685   3.729   4.256
 4670SOL    HW114462   2.723   3.811   4.224
 4670SOL    HW214463   2.591   3.744   4.253
 4671SOL     OW14464   2.049   4.682   5.002
 4671SOL    HW114465   2.136   4.644   4.988
 4671SOL    HW214466   1.992   4.635   4.941
 4672SOL     OW14467   3.392   4.727   3.923
 4672SOL    HW114468   3.323   4.669   3.956
 4672SOL    HW214469   3.435   4.759   4.002
 4673SOL     OW14470   2.206   3.972   5.559
 4673SOL    HW114471   2.246   4.057   5.579
 4673SOL    HW214472   2.113   3.984   5.576
 4674SOL     OW14473   3.344   5.151   4.684
 4674SOL    HW114474   3.272   5.163   4.745
 4674SOL    HW214475   3.332   5.062   4.650
 4675SOL     OW14476   2.456   4.439   3.995
 4675SOL    HW114477   2.459   4.523   3.950
 4675SOL    HW214478   2.391   4.451   4.064
 4676SOL     OW14479   3.141   4.092   4.659
 4676SOL    HW114480   3.052   4.057   4.667
 4676SOL    HW214481   3.193   4.037   4.717
 4677SOL     OW14482   2.653   4.341   5.170
 4677SOL    HW114483   2.628   4.315   5.258
 4677SOL    HW214484   2.620   4.271   5.114
 4678SOL     OW14485   3.254   4.198   5.402
 4678SOL    HW114486   3.258   4.243   5.486
 4678SOL    HW214487   3.311   4.122   5.412
 4679SOL     OW14488   2.812   4.609   5.312
 4679SOL    HW114489   2.868   4.541   5.273
 4679SOL    HW214490   2.763   4.645   5.238
 4680SOL     OW14491   2.857   4.133   4.955
 4680SOL    HW114492   2.767   4.148   4.984
 4680SOL    HW214493   2.848   4.091   4.870
 4681SOL     OW14494   2.917   4.423   4.148
 4681SOL    HW114495   2.935   4.416   4.241
 4681SOL    HW214496   2.833   4.378   4.136
 4682SOL     OW14497   1.950   4.546   4.502
 4682SOL    HW114498   2.030   4.538   4.553
 4682SOL    HW214499   1.906   4.623   4.538
 4683SOL     OW14500   2.760   4.076   3.921
 4683SOL    HW114501   2.802   4.137   3.861
 4683SOL    HW214502   2.759   3.992   3.874
 4684SOL     OW14503   3.564   4.293   5.555
 4684SOL    HW114504   3.530   4.368   5.504
 4684SOL    HW214505   3.593   4.231   5.488
 4685SOL     OW14506   3.244   4.862   4.258
 4685SOL    HW114507   3.326   4.850   4.211
 4685SOL    HW214508   3.195   4.925   4.205
 4686SOL     OW14509   2.412   3.901   4.622
 4686SOL    HW114510   2.414   3.933   4.712
 4686SOL    HW214511   2.411   3.980   4.569
 4687SOL     OW14512   2.877   5.160   4.205
 4687SOL    HW114513   2.808   5.227   4.209
 4687SOL    HW214514   2.888   5.132   4.296
 4688SOL     OW14515   3.666   4.775   4.593
 4688SOL    HW114516   3.611   4.754   4.518
 4688SOL    HW214517   3.604   4.784   4.666
 4689SOL     OW14518   3.117   5.243   5.255
 4689SOL    HW114519   3.079   5.175   5.312
 4689SOL    HW214520   3.042   5.280   5.209
 4690SOL     OW14521   2.174   4.681   3.978
 4690SOL    HW114522   2.257   4.701   3.935
 4690SOL    HW214523   2.146   4.598   3.940
 4691SOL     OW14524   3.343   4.475   4.445
 4691SOL    HW114525   3.341   4.435   4.532
 4691SOL    HW214526   3.422   4.530   4.446
 4692SOL     OW14527   2.328   4.990   5.466
 4692SOL    HW114528   2.300   4.994   5.375
 4692SOL    HW214529   2.245   4.988   5.516
 4693SOL     OW14530   2.912   0.168   3.920
 4693SOL    HW114531   2.951   0.097   3.971
 4693SOL    HW214532   2.927   0.144   3.829
 4694SOL     OW14533   2.065   3.991   5.227
 4694SOL    HW114534   1.985   4.043   5.231
 4694SOL    HW214535   2.041   3.907   5.265
 4695SOL     OW14536   3.481   5.108   3.837
 4695SOL    HW114537   3.500   5.165   3.762
 4695SOL    HW214538   3.416   5.045   3.803
 4696SOL     OW14539   3.262   3.831   4.165
 4696SOL    HW114540   3.254   3.806   4.073
 4696SOL    HW214541   3.357   3.836   4.181
 4697SOL     OW14542   2.259   4.418   4.197
 4697SOL    HW114543   2.275   4.324   4.210
 4697SOL    HW214544   2.165   4.428   4.213
 4698SOL     OW14545   3.388   3.948   5.447
 4698SOL    HW114546   3.399   3.968   5.540
 4698SOL    HW214547   3.319   3.882   5.445
 4699SOL     OW14548   2.511   3.838   3.826
 4699SOL    HW114549   2.561   3.761   3.851
 4699SOL    HW214550   2.456   3.809   3.753
 4700SOL     OW14551   2.626   4.003   5.482
 4700SOL    HW114552   2.706   3.952   5.478
 4700SOL    HW214553   2.580   3.970   5.559
 4701SOL     OW14554   3.199   4.313   5.157
 4701SOL    HW114555   3.231   4.283   5.242
 4701SOL    HW214556   3.237   4.401   5.147
 4702SOL     OW14557   2.682   5.109   4.666
 4702SOL    HW114558   2.760   5.104   4.610
 4702SOL    HW214559   2.610   5.120   4.604
 4703SOL     OW14560   2.791   4.234   4.622
 4703SOL    HW114561   2.766   4.225   4.530
 4703SOL    HW214562   2.821   4.146   4.648
 4704SOL     OW14563   2.418   3.787   4.218
 4704SOL    HW114564   2.337   3.785   4.270
 4704SOL    HW214565   2.408   3.863   4.162
 4705SOL     OW14566   3.292   4.928   3.759
 4705SOL    HW114567   3.319   4.852   3.811
 4705SOL    HW214568   3.203   4.947   3.789
 4706SOL     OW14569   2.148   3.775   3.907
 4706SOL    HW114570   2.204   3.840   3.863
 4706SOL    HW214571   2.210   3.715   3.949
 4707SOL     OW14572   2.805   3.973   4.179
 4707SOL    HW114573   2.780   4.010   4.095
 4707SOL    HW214574   2.899   3.988   4.185
 4708SOL     OW14575   2.942   4.410   5.180
 4708SOL    HW114576   2.877   4.340   5.184
 4708SOL    HW214577   3.026   4.364   5.175
 4709SOL     OW14578   3.128   5.267   4.498
 4709SOL    HW114579   3.073   0.043   4.482
 4709SOL    HW214580   3.177   5.288   4.577
 4710SOL     OW14581   2.331   4.875   4.444
 4710SOL    HW114582   2.266   4.854   4.511
 4710SOL    HW214583   2.285   4.862   4.361
 4711SOL     OW14584   2.886   4.257   3.751
 4711SOL    HW114585   2.843   4.339   3.731
 4711SOL    HW214586   2.951   4.279   3.818
 4712SOL     OW14587   1.948   4.277   5.117
 4712SOL    HW114588   2.039   4.277   5.090
 4712SOL    HW214589   1.942   4.346   5.182
 4713SOL     OW14590   2.419   3.952   4.896
 4713SOL    HW114591   2.461   3.878   4.940
 4713SOL    HW214592   2.327   3.947   4.923
 4714SOL     OW14593   2.728   4.181   4.361
 4714SOL    HW114594   2.686   4.237   4.297
 4714SOL    HW214595   2.751   4.102   4.312
 4715SOL     OW14596   2.874   3.779   4.475
 4715SOL    HW114597   2.815   3.774   4.400
 4715SOL    HW214598   2.853   3.702   4.528
 4716SOL     OW14599   3.307   4.891   4.583
 4716SOL    HW114600   3.236   4.826   4.580
 4716SOL    HW214601   3.334   4.901   4.492
 4717SOL     OW14602   3.328   4.334   4.689
 4717SOL    HW114603   3.270   4.258   4.693
 4717SOL    HW214604   3.384   4.326   4.766
 4718SOL     OW14605   3.701   4.532   4.110
 4718SOL    HW114606   3.760   4.484   4.168
 4718SOL    HW214607   3.677   4.470   4.042
 4719SOL     OW14608   2.332   5.154   3.865
 4719SOL    HW114609   2.277   5.101   3.922
 4719SOL    HW214610   2.355   5.096   3.792
 4720SOL     OW14611   3.536   4.988   4.366
 4720SOL    HW114612   3.630   4.992   4.384
 4720SOL    HW214613   3.504   5.076   4.381
 4721SOL     OW14614   3.255   4.297   3.795
 4721SOL    HW114615   3.194   4.275   3.865
 4721SOL    HW214616   3.340   4.266   3.826
 4722SOL     OW14617   2.388   3.986   4.033
 4722SOL    HW114618   2.439   3.942   3.965
 4722SOL    HW214619   2.360   4.068   3.993
 4723SOL     OW14620   3.609   4.961   5.285
 4723SOL    HW114621   3.694   4.918   5.286
 4723SOL    HW214622   3.630   5.054   5.296
 4724SOL     OW14623   2.925   5.070   5.048
 4724SOL    HW114624   2.844   5.047   5.094
 4724SOL    HW214625   2.994   5.034   5.103
 4725SOL     OW14626   2.994   4.928   4.829
 4725SOL    HW114627   2.948   4.970   4.901
 4725SOL    HW214628   2.939   4.946   4.752
 4726SOL     OW14629   3.487   4.820   4.798
 4726SOL    HW114630   3.481   4.882   4.871
 4726SOL    HW214631   3.413   4.841   4.741
 4727SOL     OW14632   2.780   3.819   5.115
 4727SOL    HW114633   2.802   3.800   5.024
 4727SOL    HW214634   2.860   3.857   5.152
 4728SOL     OW14635   2.846   4.840   5.451
 4728SOL    HW114636   2.754   4.856   5.472
 4728SOL    HW214637   2.845   4.762   5.395
 4729SOL     OW14638   2.570   4.787   4.095
 4729SOL    HW114639   2.556   4.767   4.187
 4729SOL    HW214640   2.646   4.734   4.070
 4730SOL     OW14641   2.285   4.544   4.976
 4730SOL    HW114642   2.352   4.553   5.043
 4730SOL    HW214643   2.250   4.455   4.989
 4731SOL     OW14644   3.125   4.097   5.006
 4731SOL    HW114645   3.157   4.176   5.051
 4731SOL    HW214646   3.034   4.118   4.984
 4732SOL     OW14647   2.191   4.842   4.211
 4732SOL    HW114648   2.189   4.914   4.148
 4732SOL    HW214649   2.194   4.763   4.156
 4733SOL     OW14650   2.408   4.254   4.584
 4733SOL    HW114651   2.421   4.313   4.509
 4733SOL    HW214652   2.475   4.279   4.647
 4734SOL     OW14653   3.122   5.083   4.111
 4734SOL    HW114654   3.179   5.150   4.150
 4734SOL    HW214655   3.034   5.106   4.143
 4735SOL     OW14656   3.138   5.184   4.865
 4735SOL    HW114657   3.196   5.201   4.940
 4735SOL    HW214658   3.095   5.102   4.885
 4736SOL     OW14659   3.439   4.342   4.210
 4736SOL    HW114660   3.389   4.390   4.276
 4736SOL    HW214661   3.483   4.410   4.159
 4737SOL     OW14662   2.212   5.235   5.032
 4737SOL    HW114663   2.200   5.197   4.945
 4737SOL    HW214664   2.306   5.254   5.037
 4738SOL     OW14665   2.280   4.470   5.328
 4738SOL    HW114666   2.344   4.512   5.271
 4738SOL    HW214667   2.317   4.383   5.345
 4739SOL     OW14668   3.472   4.506   5.412
 4739SOL    HW114669   3.386   4.546   5.405
 4739SOL    HW214670   3.524   4.547   5.343
 4740SOL     OW14671   2.858   3.858   5.479
 4740SOL    HW114672   2.916   3.931   5.457
 4740SOL    HW214673   2.907   3.780   5.453
 4741SOL     OW14674   2.358   3.758   5.477
 4741SOL    HW114675   2.310   3.707   5.412
 4741SOL    HW214676   2.303   3.835   5.493
 4742SOL     OW14677   2.448   4.597   4.756
 4742SOL    HW114678   2.481   4.687   4.758
 4742SOL    HW214679   2.391   4.591   4.833
 4743SOL     OW14680   3.207   4.581   4.741
 4743SOL    HW114681   3.120   4.565   4.704
 4743SOL    HW214682   3.254   4.499   4.731
 4744SOL     OW14683   3.061   4.251   3.985
 4744SOL    HW114684   3.069   4.172   4.040
 4744SOL    HW214685   3.019   4.315   4.042
 4745SOL     OW14686   2.157   3.915   4.968
 4745SOL    HW114687   2.120   3.944   5.052
 4745SOL    HW214688   2.140   3.821   4.966
 4746SOL     OW14689   1.923   5.051   5.010
 4746SOL    HW114690   1.942   4.983   5.074
 4746SOL    HW214691   1.950   5.132   5.054
 4747SOL     OW14692   2.582   4.352   4.776
 4747SOL    HW114693   2.658   4.340   4.720
 4747SOL    HW214694   2.552   4.441   4.758
 4748SOL     OW14695   3.602   4.684   5.584
 4748SOL    HW114696   3.559   4.616   5.531
 4748SOL    HW214697   3.540   4.702   5.655
 4749SOL     OW14698   2.171   3.784   4.345
 4749SOL    HW114699   2.147   3.874   4.366
 4749SOL    HW214700   2.178   3.741   4.430
 4750SOL     OW14701   3.486   4.104   4.082
 4750SOL    HW114702   3.514   4.038   4.146
 4750SOL    HW214703   3.461   4.179   4.136
 4751SOL     OW14704   2.891   4.482   4.682
 4751SOL    HW114705   2.881   4.498   4.775
 4751SOL    HW214706   2.864   4.391   4.670
 4752SOL     OW14707   3.715   5.213   5.298
 4752SOL    HW114708   3.693   5.297   5.257
 4752SOL    HW214709   3.786   5.234   5.358
 4753SOL     OW14710   2.213   4.642   5.533
 4753SOL    HW114711   2.292   4.660   5.583
 4753SOL    HW214712   2.240   4.579   5.466
 4754SOL     OW14713   3.387   3.997   3.849
 4754SOL    HW114714   3.324   3.930   3.878
 4754SOL    HW214715   3.423   4.033   3.930
 4755SOL     OW14716   3.148   4.548   3.752
 4755SOL    HW114717   3.190   4.462   3.757
 4755SOL    HW214718   3.180   4.586   3.670
 4756SOL     OW14719   2.915   5.092   4.527
 4756SOL    HW114720   2.925   5.001   4.496
 4756SOL    HW214721   3.004   5.127   4.523
 4757SOL     OW14722   2.170   4.532   4.670
 4757SOL    HW114723   2.264   4.551   4.662
 4757SOL    HW214724   2.166   4.442   4.701
 4758SOL     OW14725   2.187   4.255   4.737
 4758SOL    HW114726   2.152   4.167   4.725
 4758SOL    HW214727   2.264   4.258   4.680
 4759SOL     OW14728   2.996   4.095   5.411
 4759SOL    HW114729   2.948   4.150   5.473
 4759SOL    HW214730   3.083   4.136   5.406
 4760SOL     OW14731   3.023   3.920   5.197
 4760SOL    HW114732   3.011   3.983   5.268
 4760SOL    HW214733   3.065   3.971   5.127
 4761SOL     OW14734   1.868   5.034   3.917
 4761SOL    HW114735   1.776   5.053   3.897
 4761SOL    HW214736   1.866   4.945   3.953
 4762SOL     OW14737   2.832   4.510   4.947
 4762SOL    HW114738   2.893   4.492   5.019
 4762SOL    HW214739   2.751   4.469   4.974
 4763SOL     OW14740   1.899   4.276   4.841
 4763SOL    HW114741   1.979   4.267   4.790
 4763SOL    HW214742   1.928   4.275   4.932
 4764SOL     OW14743   2.054   4.247   5.456
 4764SOL    HW114744   2.107   4.201   5.391
 4764SOL    HW214745   2.019   4.323   5.410
 4765SOL     OW14746   3.243   4.655   5.380
 4765SOL    HW114747   3.264   4.748   5.375
 4765SOL    HW214748   3.238   4.627   5.288
 4766SOL     OW14749   2.680   4.294   4.092
 4766SOL    HW114750   2.687   4.220   4.032
 4766SOL    HW214751   2.605   4.345   4.060
 4767SOL     OW14752   3.502   4.324   4.902
 4767SOL    HW114753   3.492   4.267   4.978
 4767SOL    HW214754   3.590   4.307   4.869
 4768SOL     OW14755   2.064   5.273   5.471
 4768SOL    HW114756   2.030   0.018   5.548
 4768SOL    HW214757   2.078   5.183   5.500
 4769SOL     OW14758   2.578   4.168   4.975
 4769SOL    HW114759   2.518   4.096   4.951
 4769SOL    HW214760   2.568   4.231   4.904
 4770SOL     OW14761   2.319   4.215   3.902
 4770SOL    HW114762   2.380   4.284   3.928
 4770SOL    HW214763   2.234   4.259   3.895
 4771SOL     OW14764   2.002   4.863   5.197
 4771SOL    HW114765   2.005   4.816   5.281
 4771SOL    HW214766   2.020   4.795   5.131
 4772SOL     OW14767   3.183   4.763   4.942
 4772SOL    HW114768   3.203   4.701   4.872
 4772SOL    HW214769   3.116   4.821   4.904
 4773SOL     OW14770   3.178   4.582   4.026
 4773SOL    HW114771   3.105   4.548   4.078
 4773SOL    HW214772   3.152   4.567   3.936
 4774SOL     OW14773   1.963   4.986   4.749
 4774SOL    HW114774   1.941   5.008   4.839
 4774SOL    HW214775   1.882   4.949   4.712
 4775SOL     OW14776   2.620   0.030   5.432
 4775SOL    HW114777   2.528   0.053   5.445
 4775SOL    HW214778   2.640   0.059   5.343
 4776SOL     OW14779   3.587   3.883   4.228
 4776SOL    HW114780   3.656   3.866   4.164
 4776SOL    HW214781   3.569   3.797   4.267
 4777SOL     OW14782   3.140   4.654   4.396
 4777SOL    HW114783   3.213   4.593   4.407
 4777SOL    HW214784   3.175   4.723   4.340
 4778SOL     OW14785   2.668   4.993   5.121
 4778SOL    HW114786   2.635   5.026   5.205
 4778SOL    HW214787   2.592   4.998   5.062
 4779SOL     OW14788   3.705   3.894   4.690
 4779SOL    HW114789   3.734   3.806   4.665
 4779SOL    HW214790   3.618   3.902   4.650
 4780SOL     OW14791   2.118   4.035   4.437
 4780SOL    HW114792   2.032   4.070   4.415
 4780SOL    HW214793   2.118   4.031   4.533
 4781SOL     OW14794   2.689   4.724   5.097
 4781SOL    HW114795   2.737   4.710   5.015
 4781SOL    HW214796   2.689   4.819   5.108
 4782SOL     OW14797   2.780   4.637   4.017
 4782SOL    HW114798   2.839   4.670   3.950
 4782SOL    HW214799   2.829   4.568   4.061
 4783SOL     OW14800   2.223   5.029   5.223
 4783SOL    HW114801   2.214   5.101   5.160
 4783SOL    HW214802   2.147   4.973   5.206
 4784SOL     OW14803   3.474   5.006   5.005
 4784SOL    HW114804   3.527   4.992   5.083
 4784SOL    HW214805   3.410   5.073   5.030
 4785SOL     OW14806   2.928   4.837   4.445
 4785SOL    HW114807   2.854   4.786   4.477
 4785SOL    HW214808   2.992   4.771   4.417
 4786SOL     OW14809   2.887   3.967   4.691
 4786SOL    HW114810   2.882   3.921   4.607
 4786SOL    HW214811   2.882   3.898   4.757
 4787SOL     OW14812   3.590   4.115   5.105
 4787SOL    HW114813   3.662   4.178   5.105
 4787SOL    HW214814   3.619   4.045   5.047
 4788SOL     OW14815   2.122   5.047   4.016
 4788SOL    HW114816   2.031   5.046   3.987
 4788SOL    HW214817   2.120   5.099   4.096
 4789SOL     OW14818   1.976   4.759   5.451
 4789SOL    HW114819   1.900   4.729   5.501
 4789SOL    HW214820   2.050   4.714   5.491
 4790SOL     OW14821   2.539   3.925   5.225
 4790SOL    HW114822   2.622   3.901   5.184
 4790SOL    HW214823   2.563   3.957   5.312
 4791SOL     OW14824   1.942   4.052   3.755
 4791SOL    HW114825   1.857   4.033   3.716
 4791SOL    HW214826   1.973   4.130   3.709
 4792SOL     OW14827   3.287   4.579   5.120
 4792SOL    HW114828   3.237   4.640   5.065
 4792SOL    HW214829   3.375   4.582   5.084
 4793SOL     OW14830   1.922   3.878   4.024
 4793SOL    HW114831   1.908   3.957   3.972
 4793SOL    HW214832   2.007   3.845   3.997
 4794SOL     OW14833   3.044   5.056   3.848
 4794SOL    HW114834   2.954   5.024   3.851
 4794SOL    HW214835   3.074   5.053   3.939
 4795SOL     OW14836   2.483   4.554   5.160
 4795SOL    HW114837   2.541   4.629   5.144
 4795SOL    HW214838   2.542   4.479   5.166
 4796SOL     OW14839   2.581   4.282   5.423
 4796SOL    HW114840   2.626   4.341   5.484
 4796SOL    HW214841   2.598   4.194   5.457
 4797SOL     OW14842   3.339   4.913   5.350
 4797SOL    HW114843   3.326   4.930   5.444
 4797SOL    HW214844   3.432   4.932   5.336
 4798SOL     OW14845   3.525   4.603   4.978
 4798SOL    HW114846   3.522   4.518   4.934
 4798SOL    HW214847   3.515   4.667   4.907
 4799SOL     OW14848   3.078   4.043   4.181
 4799SOL    HW114849   3.140   3.970   4.175
 4799SOL    HW214850   3.107   4.093   4.257
 4800SOL     OW14851   2.447   4.458   4.399
 4800SOL    HW114852   2.488   4.543   4.384
 4800SOL    HW214853   2.384   4.449   4.328
 4801SOL     OW14854   3.617   4.087   5.378
 4801SOL    HW114855   3.604   4.104   5.285
 4801SOL    HW214856   3.544   4.031   5.403
 4802SOL     OW14857   3.610   4.657   5.233
 4802SOL    HW114858   3.597   4.751   5.245
 4802SOL    HW214859   3.592   4.641   5.140
 4803SOL     OW14860   2.703   5.093   3.746
 4803SOL    HW114861   2.693   5.092   3.841
 4803SOL    HW214862   2.712   5.186   3.724
 4804SOL     OW14863   2.733   4.697   4.577
 4804SOL    HW114864   2.780   4.623   4.616
 4804SOL    HW214865   2.692   4.740   4.652
 4805SOL     OW14866   2.942   4.716   3.815
 4805SOL    HW114867   2.918   4.765   3.737
 4805SOL    HW214868   3.014   4.659   3.787
 4806SOL     OW14869   2.080   5.015   5.572
 4806SOL    HW114870   2.024   4.944   5.541
 4806SOL    HW214871   2.059   5.023   5.666
 4807SOL     OW14872   1.955   4.950   4.392
 4807SOL    HW114873   1.955   4.901   4.474
 4807SOL    HW214874   2.018   4.904   4.336
 4808SOL     OW14875   2.542   5.095   5.330
 4808SOL    HW114876   2.463   5.068   5.378
 4808SOL    HW214877   2.578   5.167   5.382
 4809SOL     OW14878   3.672   3.904   4.960
 4809SOL    HW114879   3.679   3.810   4.972
 4809SOL    HW214880   3.684   3.918   4.866
 4810SOL     OW14881   2.289   4.156   4.248
 4810SOL    HW114882   2.322   4.086   4.192
 4810SOL    HW214883   2.240   4.111   4.317
 4811SOL     OW14884   3.568   5.227   4.839
 4811SOL    HW114885   3.494   5.210   4.781
 4811SOL    HW214886   3.574   5.150   4.895
 4812SOL     OW14887   2.199   4.285   5.017
 4812SOL    HW114888   2.252   4.227   5.071
 4812SOL    HW214889   2.215   4.255   4.927
 4813SOL     OW14890   3.290   3.954   4.841
 4813SOL    HW114891   3.311   3.871   4.885
 4813SOL    HW214892   3.239   4.003   4.906
 4814SOL     OW14893   2.873   3.741   4.858
 4814SOL    HW114894   2.817   3.672   4.823
 4814SOL    HW214895   2.961   3.703   4.860
 4815SOL     OW14896   2.674   5.043   4.011
 4815SOL    HW114897   2.625   4.965   4.036
 4815SOL    HW214898   2.729   5.063   4.087
 4816SOL     OW14899   2.484   0.002   5.025
 4816SOL    HW114900   2.484   0.057   5.103
 4816SOL    HW214901   2.577   5.283   5.009
 4817SOL     OW14902   3.222   3.776   3.897
 4817SOL    HW114903   3.256   3.706   3.842
 4817SOL    HW214904   3.132   3.749   3.917
 4818SOL     OW14905   3.158   4.188   4.401
 4818SOL    HW114906   3.106   4.268   4.405
 4818SOL    HW214907   3.153   4.152   4.490
 4819SOL     OW14908   3.446   3.918   4.608
 4819SOL    HW114909   3.390   3.944   4.681
 4819SOL    HW214910   3.446   3.994   4.550
 4820SOL     OW14911   1.904   4.786   4.034
 4820SOL    HW114912   1.998   4.779   4.016
 4820SOL    HW214913   1.876   4.697   4.055
 4821SOL     OW14914   2.083   4.349   5.716
 4821SOL    HW114915   1.995   4.343   5.752
 4821SOL    HW214916   2.074   4.326   5.624
 4822SOL     OW14917   2.086   4.009   6.579
 4822SOL    HW114918   2.114   3.973   6.663
 4822SOL    HW214919   1.997   3.976   6.568
 4823SOL     OW14920   1.860   4.109   6.225
 4823SOL    HW114921   1.779   4.136   6.268
 4823SOL    HW214922   1.836   4.032   6.174
 4824SOL     OW14923   2.435   5.017   6.778
 4824SOL    HW114924   2.351   5.013   6.732
 4824SOL    HW214925   2.447   5.111   6.796
 4825SOL     OW14926   3.423   5.234   6.276
 4825SOL    HW114927   3.412   5.230   6.371
 4825SOL    HW214928   3.339   5.268   6.243
 4826SOL     OW14929   2.995   4.423   6.280
 4826SOL    HW114930   3.043   4.505   6.268
 4826SOL    HW214931   2.947   4.434   6.362
 4827SOL     OW14932   3.640   4.321   5.811
 4827SOL    HW114933   3.613   4.317   5.719
 4827SOL    HW214934   3.600   4.245   5.852
 4828SOL     OW14935   2.607   4.861   6.629
 4828SOL    HW114936   2.545   4.897   6.693
 4828SOL    HW214937   2.642   4.938   6.584
 4829SOL     OW14938   2.736   4.484   7.405
 4829SOL    HW114939   2.724   4.556   7.468
 4829SOL    HW214940   2.760   4.528   7.323
 4830SOL     OW14941   2.547   4.719   6.230
 4830SOL    HW114942   2.613   4.714   6.299
 4830SOL    HW214943   2.479   4.775   6.267
 4831SOL     OW14944   2.571   4.868   7.402
 4831SOL    HW114945   2.619   4.946   7.427
 4831SOL    HW214946   2.490   4.901   7.362
 4832SOL     OW14947   2.200   5.135   6.643
 4832SOL    HW114948   2.120   5.088   6.620
 4832SOL    HW214949   2.229   5.174   6.560
 4833SOL     OW14950   3.316   5.224   6.936
 4833SOL    HW114951   3.372   5.296   6.966
 4833SOL    HW214952   3.249   5.217   7.003
 4834SOL     OW14953   2.313   4.116   7.063
 4834SOL    HW114954   2.390   4.059   7.073
 4834SOL    HW214955   2.239   4.060   7.083
 4835SOL     OW14956   3.466   4.165   6.331
 4835SOL    HW114957   3.395   4.183   6.270
 4835SOL    HW214958   3.467   4.241   6.390
 4836SOL     OW14959   2.995   5.075   7.292
 4836SOL    HW114960   3.023   5.075   7.383
 4836SOL    HW214961   2.941   4.996   7.283
 4837SOL     OW14962   2.072   5.166   6.112
 4837SOL    HW114963   2.107   5.237   6.165
 4837SOL    HW214964   2.025   5.110   6.175
 4838SOL     OW14965   2.131   4.811   6.479
 4838SOL    HW114966   2.128   4.722   6.514
 4838SOL    HW214967   2.074   4.862   6.536
 4839SOL     OW14968   2.438   4.707   5.728
 4839SOL    HW114969   2.487   4.751   5.658
 4839SOL    HW214970   2.477   4.739   5.809
 4840SOL     OW14971   3.458   3.852   7.049
 4840SOL    HW114972   3.482   3.932   7.004
 4840SOL    HW214973   3.435   3.880   7.138
 4841SOL     OW14974   1.980   4.380   6.147
 4841SOL    HW114975   1.951   4.291   6.169
 4841SOL    HW214976   1.972   4.428   6.229
 4842SOL     OW14977   1.854   0.007   5.677
 4842SOL    HW114978   1.864   5.219   5.714
 4842SOL    HW214979   1.869   0.066   5.750
 4843SOL     OW14980   3.552   4.642   6.231
 4843SOL    HW114981   3.632   4.597   6.207
 4843SOL    HW214982   3.529   4.694   6.154
 4844SOL     OW14983   3.512   4.826   6.016
 4844SOL    HW114984   3.599   4.825   5.975
 4844SOL    HW214985   3.520   4.890   6.087
 4845SOL     OW14986   1.987   4.468   7.171
 4845SOL    HW114987   2.077   4.499   7.172
 4845SOL    HW214988   1.934   4.547   7.171
 4846SOL     OW14989   2.488   5.101   6.332
 4846SOL    HW114990   2.434   5.022   6.324
 4846SOL    HW214991   2.471   5.150   6.251
 4847SOL     OW14992   3.149   4.949   7.011
 4847SOL    HW114993   3.180   4.882   6.950
 4847SOL    HW214994   3.210   4.945   7.084
 4848SOL     OW14995   2.683   3.729   6.097
 4848SOL    HW114996   2.723   3.812   6.074
 4848SOL    HW214997   2.589   3.748   6.103
 4849SOL     OW14998   2.049   4.682   6.864
 4849SOL    HW114999   2.136   4.644   6.850
 4849SOL    HW215000   1.992   4.636   6.803
 4850SOL     OW15001   3.392   4.727   5.785
 4850SOL    HW115002   3.323   4.669   5.818
 4850SOL    HW215003   3.435   4.759   5.864
 4851SOL     OW15004   2.204   3.970   7.419
 4851SOL    HW115005   2.244   4.055   7.437
 4851SOL    HW215006   2.111   3.983   7.437
 4852SOL     OW15007   3.344   5.151   6.546
 4852SOL    HW115008   3.272   5.163   6.607
 4852SOL    HW215009   3.332   5.062   6.512
 4853SOL     OW15010   2.456   4.439   5.858
 4853SOL    HW115011   2.459   4.523   5.812
 4853SOL    HW215012   2.391   4.451   5.927
 4854SOL     OW15013   3.141   4.092   6.521
 4854SOL    HW115014   3.052   4.057   6.529
 4854SOL    HW215015   3.193   4.037   6.579
 4855SOL     OW15016   2.652   4.341   7.032
 4855SOL    HW115017   2.627   4.315   7.121
 4855SOL    HW215018   2.619   4.271   6.976
 4856SOL     OW15019   3.255   4.198   7.263
 4856SOL    HW115020   3.259   4.243   7.348
 4856SOL    HW215021   3.310   4.121   7.273
 4857SOL     OW15022   2.814   4.610   7.172
 4857SOL    HW115023   2.869   4.542   7.133
 4857SOL    HW215024   2.764   4.646   7.099
 4858SOL     OW15025   2.857   4.133   6.817
 4858SOL    HW115026   2.767   4.149   6.846
 4858SOL    HW215027   2.848   4.089   6.733
 4859SOL     OW15028   2.916   4.422   6.009
 4859SOL    HW115029   2.935   4.416   6.103
 4859SOL    HW215030   2.833   4.378   5.998
 4860SOL     OW15031   1.950   4.546   6.364
 4860SOL    HW115032   2.030   4.538   6.415
 4860SOL    HW215033   1.906   4.623   6.400
 4861SOL     OW15034   2.762   4.075   5.782
 4861SOL    HW115035   2.801   4.139   5.723
 4861SOL    HW215036   2.769   3.991   5.736
 4862SOL     OW15037   3.566   4.295   7.418
 4862SOL    HW115038   3.532   4.369   7.368
 4862SOL    HW215039   3.593   4.231   7.352
 4863SOL     OW15040   3.244   4.862   6.120
 4863SOL    HW115041   3.326   4.850   6.073
 4863SOL    HW215042   3.195   4.925   6.067
 4864SOL     OW15043   2.413   3.901   6.484
 4864SOL    HW115044   2.416   3.931   6.575
 4864SOL    HW215045   2.412   3.981   6.432
 4865SOL     OW15046   2.877   5.160   6.067
 4865SOL    HW115047   2.808   5.227   6.071
 4865SOL    HW215048   2.889   5.132   6.158
 4866SOL     OW15049   3.666   4.775   6.455
 4866SOL    HW115050   3.611   4.754   6.380
 4866SOL    HW215051   3.604   4.784   6.528
 4867SOL     OW15052   3.117   5.243   7.118
 4867SOL    HW115053   3.079   5.175   7.173
 4867SOL    HW215054   3.043   5.282   7.072
 4868SOL     OW15055   2.174   4.681   5.840
 4868SOL    HW115056   2.257   4.701   5.797
 4868SOL    HW215057   2.146   4.598   5.802
 4869SOL     OW15058   3.343   4.475   6.307
 4869SOL    HW115059   3.341   4.435   6.394
 4869SOL    HW215060   3.422   4.530   6.307
 4870SOL     OW15061   2.325   4.990   7.331
 4870SOL    HW115062   2.297   4.995   7.239
 4870SOL    HW215063   2.244   4.988   7.381
 4871SOL     OW15064   2.912   0.169   5.782
 4871SOL    HW115065   2.948   0.096   5.833
 4871SOL    HW215066   2.927   0.144   5.691
 4872SOL     OW15067   2.064   3.991   7.090
 4872SOL    HW115068   1.983   4.042   7.094
 4872SOL    HW215069   2.042   3.906   7.127
 4873SOL     OW15070   3.481   5.107   5.698
 4873SOL    HW115071   3.500   5.165   5.625
 4873SOL    HW215072   3.416   5.045   5.665
 4874SOL     OW15073   3.262   3.831   6.028
 4874SOL    HW115074   3.254   3.806   5.936
 4874SOL    HW215075   3.356   3.837   6.044
 4875SOL     OW15076   2.259   4.418   6.059
 4875SOL    HW115077   2.275   4.325   6.072
 4875SOL    HW215078   2.165   4.429   6.075
 4876SOL     OW15079   3.387   3.947   7.308
 4876SOL    HW115080   3.398   3.968   7.401
 4876SOL    HW215081   3.319   3.880   7.307
 4877SOL     OW15082   2.509   3.841   5.688
 4877SOL    HW115083   2.567   3.767   5.706
 4877SOL    HW215084   2.454   3.811   5.615
 4878SOL     OW15085   2.624   4.002   7.344
 4878SOL    HW115086   2.706   3.951   7.340
 4878SOL    HW215087   2.582   3.973   7.425
 4879SOL     OW15088   3.200   4.314   7.019
 4879SOL    HW115089   3.231   4.282   7.104
 4879SOL    HW215090   3.237   4.401   7.010
 4880SOL     OW15091   2.682   5.109   6.528
 4880SOL    HW115092   2.760   5.103   6.473
 4880SOL    HW215093   2.610   5.120   6.466
 4881SOL     OW15094   2.791   4.234   6.485
 4881SOL    HW115095   2.766   4.224   6.393
 4881SOL    HW215096   2.821   4.146   6.510
 4882SOL     OW15097   2.415   3.787   6.081
 4882SOL    HW115098   2.336   3.787   6.134
 4882SOL    HW215099   2.406   3.864   6.025
 4883SOL     OW15100   3.291   4.928   5.621
 4883SOL    HW115101   3.319   4.852   5.673
 4883SOL    HW215102   3.203   4.947   5.651
 4884SOL     OW15103   2.151   3.772   5.772
 4884SOL    HW115104   2.207   3.836   5.729
 4884SOL    HW215105   2.211   3.711   5.814
 4885SOL     OW15106   2.805   3.974   6.041
 4885SOL    HW115107   2.781   4.012   5.956
 4885SOL    HW215108   2.899   3.989   6.048
 4886SOL     OW15109   2.942   4.409   7.041
 4886SOL    HW115110   2.878   4.339   7.047
 4886SOL    HW215111   3.027   4.364   7.036
 4887SOL     OW15112   3.128   5.267   6.360
 4887SOL    HW115113   3.072   0.043   6.344
 4887SOL    HW215114   3.177   5.288   6.439
 4888SOL     OW15115   2.331   4.875   6.306
 4888SOL    HW115116   2.266   4.854   6.373
 4888SOL    HW215117   2.285   4.862   6.223
 4889SOL     OW15118   2.886   4.257   5.613
 4889SOL    HW115119   2.842   4.340   5.593
 4889SOL    HW215120   2.951   4.279   5.679
 4890SOL     OW15121   1.948   4.277   6.978
 4890SOL    HW115122   2.040   4.277   6.952
 4890SOL    HW215123   1.942   4.347   7.044
 4891SOL     OW15124   2.419   3.951   6.758
 4891SOL    HW115125   2.462   3.879   6.804
 4891SOL    HW215126   2.328   3.947   6.785
 4892SOL     OW15127   2.728   4.181   6.223
 4892SOL    HW115128   2.685   4.238   6.159
 4892SOL    HW215129   2.751   4.102   6.174
 4893SOL     OW15130   2.882   3.779   6.331
 4893SOL    HW115131   2.822   3.774   6.257
 4893SOL    HW215132   2.857   3.705   6.387
 4894SOL     OW15133   3.307   4.891   6.446
 4894SOL    HW115134   3.236   4.826   6.443
 4894SOL    HW215135   3.334   4.901   6.354
 4895SOL     OW15136   3.328   4.334   6.551
 4895SOL    HW115137   3.270   4.258   6.555
 4895SOL    HW215138   3.384   4.325   6.628
 4896SOL     OW15139   3.701   4.532   5.972
 4896SOL    HW115140   3.760   4.484   6.030
 4896SOL    HW215141   3.677   4.470   5.904
 4897SOL     OW15142   2.332   5.154   5.727
 4897SOL    HW115143   2.277   5.101   5.784
 4897SOL    HW215144   2.354   5.096   5.654
 4898SOL     OW15145   3.536   4.987   6.228
 4898SOL    HW115146   3.630   4.993   6.246
 4898SOL    HW215147   3.504   5.076   6.243
 4899SOL     OW15148   3.255   4.297   5.657
 4899SOL    HW115149   3.194   4.275   5.727
 4899SOL    HW215150   3.340   4.267   5.689
 4900SOL     OW15151   2.387   3.986   5.896
 4900SOL    HW115152   2.438   3.942   5.828
 4900SOL    HW215153   2.360   4.069   5.856
 4901SOL     OW15154   3.608   4.960   7.146
 4901SOL    HW115155   3.694   4.917   7.147
 4901SOL    HW215156   3.628   5.053   7.156
 4902SOL     OW15157   2.925   5.070   6.910
 4902SOL    HW115158   2.844   5.047   6.956
 4902SOL    HW215159   2.995   5.034   6.965
 4903SOL     OW15160   2.994   4.928   6.690
 4903SOL    HW115161   2.948   4.970   6.763
 4903SOL    HW215162   2.939   4.947   6.614
 4904SOL     OW15163   3.487   4.820   6.660
 4904SOL    HW115164   3.481   4.882   6.733
 4904SOL    HW215165   3.413   4.841   6.604
 4905SOL     OW15166   2.779   3.818   6.976
 4905SOL    HW115167   2.802   3.799   6.885
 4905SOL    HW215168   2.858   3.856   7.014
 4906SOL     OW15169   2.847   4.838   7.317
 4906SOL    HW115170   2.755   4.855   7.335
 4906SOL    HW215171   2.847   4.761   7.259
 4907SOL     OW15172   2.570   4.787   5.957
 4907SOL    HW115173   2.556   4.767   6.049
 4907SOL    HW215174   2.646   4.734   5.932
 4908SOL     OW15175   2.285   4.544   6.838
 4908SOL    HW115176   2.352   4.553   6.905
 4908SOL    HW215177   2.250   4.455   6.851
 4909SOL     OW15178   3.125   4.098   6.867
 4909SOL    HW115179   3.157   4.176   6.913
 4909SOL    HW215180   3.034   4.119   6.845
 4910SOL     OW15181   2.191   4.842   6.073
 4910SOL    HW115182   2.189   4.914   6.010
 4910SOL    HW215183   2.194   4.763   6.018
 4911SOL     OW15184   2.408   4.254   6.445
 4911SOL    HW115185   2.421   4.313   6.371
 4911SOL    HW215186   2.475   4.279   6.508
 4912SOL     OW15187   3.122   5.083   5.973
 4912SOL    HW115188   3.179   5.150   6.011
 4912SOL    HW215189   3.034   5.106   6.005
 4913SOL     OW15190   3.139   5.185   6.727
 4913SOL    HW115191   3.196   5.201   6.802
 4913SOL    HW215192   3.095   5.102   6.748
 4914SOL     OW15193   3.439   4.343   6.071
 4914SOL    HW115194   3.389   4.389   6.138
 4914SOL    HW215195   3.483   4.412   6.022
 4915SOL     OW15196   2.212   5.235   6.894
 4915SOL    HW115197   2.201   5.197   6.807
 4915SOL    HW215198   2.306   5.254   6.900
 4916SOL     OW15199   2.280   4.470   7.189
 4916SOL    HW115200   2.344   4.512   7.133
 4916SOL    HW215201   2.316   4.383   7.206
 4917SOL     OW15202   3.472   4.506   7.275
 4917SOL    HW115203   3.386   4.546   7.268
 4917SOL    HW215204   3.524   4.547   7.205
 4918SOL     OW15205   2.858   3.858   7.339
 4918SOL    HW115206   2.917   3.931   7.317
 4918SOL    HW215207   2.907   3.780   7.314
 4919SOL     OW15208   2.360   3.758   7.338
 4919SOL    HW115209   2.312   3.706   7.273
 4919SOL    HW215210   2.304   3.835   7.353
 4920SOL     OW15211   2.448   4.597   6.618
 4920SOL    HW115212   2.481   4.687   6.620
 4920SOL    HW215213   2.391   4.591   6.695
 4921SOL     OW15214   3.207   4.581   6.604
 4921SOL    HW115215   3.120   4.564   6.566
 4921SOL    HW215216   3.254   4.498   6.593
 4922SOL     OW15217   3.061   4.250   5.847
 4922SOL    HW115218   3.069   4.172   5.902
 4922SOL    HW215219   3.019   4.315   5.904
 4923SOL     OW15220   2.157   3.920   6.832
 4923SOL    HW115221   2.122   3.951   6.916
 4923SOL    HW215222   2.140   3.826   6.832
 4924SOL     OW15223   1.924   5.051   6.872
 4924SOL    HW115224   1.942   4.982   6.936
 4924SOL    HW215225   1.949   5.132   6.916
 4925SOL     OW15226   2.581   4.351   6.637
 4925SOL    HW115227   2.658   4.340   6.582
 4925SOL    HW215228   2.552   4.441   6.620
 4926SOL     OW15229   3.603   4.685   7.445
 4926SOL    HW115230   3.558   4.617   7.394
 4926SOL    HW215231   3.544   4.704   7.518
 4927SOL     OW15232   2.172   3.785   6.211
 4927SOL    HW115233   2.148   3.875   6.232
 4927SOL    HW215234   2.180   3.742   6.297
 4928SOL     OW15235   3.486   4.104   5.944
 4928SOL    HW115236   3.514   4.038   6.008
 4928SOL    HW215237   3.461   4.180   5.998
 4929SOL     OW15238   2.891   4.482   6.544
 4929SOL    HW115239   2.881   4.498   6.638
 4929SOL    HW215240   2.864   4.391   6.532
 4930SOL     OW15241   3.715   5.212   7.154
 4930SOL    HW115242   3.691   5.296   7.117
 4930SOL    HW215243   3.787   5.231   7.214
 4931SOL     OW15244   2.213   4.640   7.395
 4931SOL    HW115245   2.294   4.660   7.441
 4931SOL    HW215246   2.239   4.577   7.328
 4932SOL     OW15247   3.387   3.995   5.711
 4932SOL    HW115248   3.324   3.930   5.741
 4932SOL    HW215249   3.423   4.033   5.792
 4933SOL     OW15250   3.148   4.548   5.613
 4933SOL    HW115251   3.190   4.462   5.618
 4933SOL    HW215252   3.180   4.586   5.532
 4934SOL     OW15253   2.915   5.091   6.389
 4934SOL    HW115254   2.925   5.001   6.359
 4934SOL    HW215255   3.004   5.127   6.385
 4935SOL     OW15256   2.170   4.532   6.532
 4935SOL    HW115257   2.264   4.551   6.525
 4935SOL    HW215258   2.167   4.442   6.563
 4936SOL     OW15259   2.187   4.255   6.599
 4936SOL    HW115260   2.152   4.167   6.587
 4936SOL    HW215261   2.264   4.258   6.542
 4937SOL     OW15262   2.997   4.096   7.271
 4937SOL    HW115263   2.949   4.150   7.333
 4937SOL    HW215264   3.084   4.137   7.266
 4938SOL     OW15265   3.022   3.921   7.057
 4938SOL    HW115266   3.011   3.983   7.129
 4938SOL    HW215267   3.065   3.971   6.988
 4939SOL     OW15268   1.868   5.034   5.779
 4939SOL    HW115269   1.776   5.053   5.759
 4939SOL    HW215270   1.866   4.945   5.815
 4940SOL     OW15271   2.832   4.510   6.809
 4940SOL    HW115272   2.893   4.492   6.880
 4940SOL    HW215273   2.750   4.468   6.836
 4941SOL     OW15274   1.899   4.275   6.703
 4941SOL    HW115275   1.979   4.267   6.652
 4941SOL    HW215276   1.928   4.274   6.794
 4942SOL     OW15277   2.054   4.246   7.318
 4942SOL    HW115278   2.105   4.199   7.252
 4942SOL    HW215279   2.019   4.322   7.272
 4943SOL     OW15280   3.243   4.655   7.242
 4943SOL    HW115281   3.264   4.748   7.238
 4943SOL    HW215282   3.238   4.627   7.151
 4944SOL     OW15283   2.680   4.294   5.954
 4944SOL    HW115284   2.685   4.220   5.893
 4944SOL    HW215285   2.605   4.345   5.923
 4945SOL     OW15286   3.502   4.324   6.764
 4945SOL    HW115287   3.492   4.267   6.840
 4945SOL    HW215288   3.590   4.307   6.731
 4946SOL     OW15289   2.060   5.271   7.332
 4946SOL    HW115290   2.006   0.006   7.402
 4946SOL    HW215291   2.080   5.182   7.359
 4947SOL     OW15292   2.578   4.168   6.837
 4947SOL    HW115293   2.519   4.096   6.813
 4947SOL    HW215294   2.568   4.231   6.767
 4948SOL     OW15295   2.320   4.215   5.765
 4948SOL    HW115296   2.380   4.285   5.790
 4948SOL    HW215297   2.235   4.259   5.757
 4949SOL     OW15298   2.002   4.862   7.059
 4949SOL    HW115299   2.005   4.816   7.143
 4949SOL    HW215300   2.019   4.795   6.994
 4950SOL     OW15301   3.183   4.763   6.804
 4950SOL    HW115302   3.204   4.701   6.734
 4950SOL    HW215303   3.116   4.821   6.766
 4951SOL     OW15304   3.178   4.582   5.888
 4951SOL    HW115305   3.105   4.549   5.940
 4951SOL    HW215306   3.151   4.567   5.797
 4952SOL     OW15307   1.963   4.986   6.610
 4952SOL    HW115308   1.941   5.008   6.701
 4952SOL    HW215309   1.882   4.949   6.574
 4953SOL     OW15310   2.616   0.027   7.299
 4953SOL    HW115311   2.524   0.051   7.309
 4953SOL    HW215312   2.641   0.060   7.213
 4954SOL     OW15313   3.585   3.882   6.090
 4954SOL    HW115314   3.655   3.865   6.026
 4954SOL    HW215315   3.568   3.796   6.130
 4955SOL     OW15316   3.140   4.654   6.258
 4955SOL    HW115317   3.213   4.593   6.269
 4955SOL    HW215318   3.175   4.723   6.202
 4956SOL     OW15319   2.668   4.993   6.984
 4956SOL    HW115320   2.634   5.026   7.067
 4956SOL    HW215321   2.593   4.998   6.924
 4957SOL     OW15322   3.705   3.893   6.551
 4957SOL    HW115323   3.734   3.805   6.527
 4957SOL    HW215324   3.618   3.902   6.512
 4958SOL     OW15325   2.118   4.036   6.300
 4958SOL    HW115326   2.032   4.071   6.277
 4958SOL    HW215327   2.118   4.032   6.396
 4959SOL     OW15328   2.689   4.724   6.958
 4959SOL    HW115329   2.737   4.710   6.877
 4959SOL    HW215330   2.689   4.819   6.970
 4960SOL     OW15331   2.779   4.637   5.879
 4960SOL    HW115332   2.839   4.670   5.812
 4960SOL    HW215333   2.829   4.568   5.923
 4961SOL     OW15334   2.221   5.031   7.088
 4961SOL    HW115335   2.214   5.101   7.023
 4961SOL    HW215336   2.147   4.973   7.068
 4962SOL     OW15337   3.474   5.006   6.867
 4962SOL    HW115338   3.526   4.991   6.946
 4962SOL    HW215339   3.411   5.073   6.892
 4963SOL     OW15340   2.928   4.837   6.307
 4963SOL    HW115341   2.854   4.786   6.339
 4963SOL    HW215342   2.992   4.771   6.279
 4964SOL     OW15343   2.887   3.966   6.552
 4964SOL    HW115344   2.884   3.920   6.468
 4964SOL    HW215345   2.881   3.897   6.618
 4965SOL     OW15346   3.591   4.115   6.968
 4965SOL    HW115347   3.663   4.178   6.967
 4965SOL    HW215348   3.620   4.045   6.909
 4966SOL     OW15349   2.122   5.047   5.878
 4966SOL    HW115350   2.031   5.046   5.849
 4966SOL    HW215351   2.120   5.099   5.958
 4967SOL     OW15352   1.977   4.762   7.315
 4967SOL    HW115353   1.900   4.732   7.363
 4967SOL    HW215354   2.050   4.714   7.355
 4968SOL     OW15355   2.538   3.920   7.087
 4968SOL    HW115356   2.622   3.897   7.046
 4968SOL    HW215357   2.561   3.951   7.174
 4969SOL     OW15358   1.943   4.051   5.617
 4969SOL    HW115359   1.857   4.032   5.578
 4969SOL    HW215360   1.973   4.129   5.570
 4970SOL     OW15361   3.287   4.580   6.982
 4970SOL    HW115362   3.237   4.640   6.928
 4970SOL    HW215363   3.376   4.583   6.946
 4971SOL     OW15364   1.922   3.877   5.886
 4971SOL    HW115365   1.910   3.956   5.832
 4971SOL    HW215366   2.008   3.844   5.859
 4972SOL     OW15367   3.044   5.056   5.710
 4972SOL    HW115368   2.954   5.024   5.713
 4972SOL    HW215369   3.074   5.053   5.801
 4973SOL     OW15370   2.483   4.555   7.022
 4973SOL    HW115371   2.541   4.629   7.006
 4973SOL    HW215372   2.541   4.479   7.029
 4974SOL     OW15373   2.579   4.280   7.285
 4974SOL    HW115374   2.624   4.340   7.345
 4974SOL    HW215375   2.598   4.193   7.319
 4975SOL     OW15376   3.338   4.913   7.215
 4975SOL    HW115377   3.326   4.931   7.308
 4975SOL    HW215378   3.431   4.932   7.200
 4976SOL     OW15379   3.525   4.603   6.840
 4976SOL    HW115380   3.521   4.518   6.796
 4976SOL    HW215381   3.515   4.667   6.770
 4977SOL     OW15382   3.078   4.043   6.043
 4977SOL    HW115383   3.139   3.970   6.038
 4977SOL    HW215384   3.107   4.093   6.119
 4978SOL     OW15385   2.448   4.457   6.261
 4978SOL    HW115386   2.488   4.543   6.246
 4978SOL    HW215387   2.384   4.449   6.190
 4979SOL     OW15388   3.616   4.087   7.241
 4979SOL    HW115389   3.604   4.104   7.148
 4979SOL    HW215390   3.543   4.030   7.265
 4980SOL     OW15391   3.611   4.656   7.095
 4980SOL    HW115392   3.596   4.750   7.108
 4980SOL    HW215393   3.593   4.641   7.003
 4981SOL     OW15394   2.704   5.093   5.608
 4981SOL    HW115395   2.693   5.092   5.703
 4981SOL    HW215396   2.711   5.186   5.586
 4982SOL     OW15397   2.733   4.696   6.439
 4982SOL    HW115398   2.781   4.623   6.478
 4982SOL    HW215399   2.692   4.740   6.514
 4983SOL     OW15400   2.941   4.715   5.677
 4983SOL    HW115401   2.918   4.765   5.599
 4983SOL    HW215402   3.013   4.659   5.649
 4984SOL     OW15403   2.075   5.012   7.436
 4984SOL    HW115404   2.028   4.938   7.397
 4984SOL    HW215405   2.032   5.025   7.520
 4985SOL     OW15406   1.955   4.950   6.254
 4985SOL    HW115407   1.955   4.901   6.336
 4985SOL    HW215408   2.018   4.904   6.198
 4986SOL     OW15409   2.540   5.094   7.192
 4986SOL    HW115410   2.461   5.068   7.240
 4986SOL    HW215411   2.576   5.167   7.243
 4987SOL     OW15412   3.674   3.905   6.822
 4987SOL    HW115413   3.678   3.811   6.835
 4987SOL    HW215414   3.685   3.917   6.728
 4988SOL     OW15415   2.289   4.157   6.111
 4988SOL    HW115416   2.321   4.086   6.054
 4988SOL    HW215417   2.239   4.112   6.179
 4989SOL     OW15418   3.568   5.227   6.702
 4989SOL    HW115419   3.494   5.210   6.643
 4989SOL    HW215420   3.574   5.150   6.757
 4990SOL     OW15421   2.199   4.285   6.879
 4990SOL    HW115422   2.252   4.227   6.934
 4990SOL    HW215423   2.215   4.255   6.790
 4991SOL     OW15424   3.291   3.954   6.703
 4991SOL    HW115425   3.308   3.869   6.744
 4991SOL    HW215426   3.240   4.003   6.768
 4992SOL     OW15427   2.871   3.742   6.721
 4992SOL    HW115428   2.814   3.675   6.682
 4992SOL    HW215429   2.958   3.701   6.722
 4993SOL     OW15430   2.674   5.044   5.873
 4993SOL    HW115431   2.625   4.966   5.898
 4993SOL    HW215432   2.729   5.063   5.949
 4994SOL     OW15433   2.485   0.002   6.887
 4994SOL    HW115434   2.485   0.056   6.966
 4994SOL    HW215435   2.577   5.283   6.871
 4995SOL     OW15436   3.220   3.775   5.760
 4995SOL    HW115437   3.253   3.706   5.703
 4995SOL    HW215438   3.131   3.749   5.780
 4996SOL     OW15439   3.158   4.188   6.263
 4996SOL    HW115440   3.106   4.268   6.267
 4996SOL    HW215441   3.153   4.152   6.352
 4997SOL     OW15442   3.446   3.918   6.470
 4997SOL    HW115443   3.391   3.943   6.544
 4997SOL    HW215444   3.446   3.994   6.412
 4998SOL     OW15445   1.904   4.786   5.896
 4998SOL    HW115446   1.998   4.779   5.879
 4998SOL    HW215447   1.876   4.697   5.917
 4999SOL     OW15448   2.084   4.346   7.578
 4999SOL    HW115449   1.994   4.350   7.610
 4999SOL    HW215450   2.075   4.323   7.485
 5000SOL     OW15451   3.637   4.316   7.677
 5000SOL    HW115452   3.612   4.313   7.584
 5000SOL    HW215453   3.596   4.238   7.715
 5001SOL     OW15454   2.143   0.121   7.958
 5001SOL    HW115455   2.122   0.208   7.992
 5001SOL    HW215456   2.149   0.134   7.863
 5002SOL     OW15457   2.073   5.159   7.997
 5002SOL    HW115458   2.094   5.252   7.999
 5002SOL    HW215459   2.022   5.144   8.077
 5003SOL     OW15460   2.440   4.708   7.585
 5003SOL    HW115461   2.487   4.752   7.514
 5003SOL    HW215462   2.480   4.742   7.665
 5004SOL     OW15463   1.869   0.005   7.529
 5004SOL    HW115464   1.868   5.218   7.570
 5004SOL    HW215465   1.866   0.066   7.602
 5005SOL     OW15466   3.544   4.580   8.024
 5005SOL    HW115467   3.619   4.592   0.003
 5005SOL    HW215468   3.528   4.667   7.988
 5006SOL     OW15469   3.524   4.821   7.881
 5006SOL    HW115470   3.614   4.839   7.852
 5006SOL    HW215471   3.501   4.896   7.935
 5007SOL     OW15472   2.667   3.724   7.943
 5007SOL    HW115473   2.715   3.803   7.919
 5007SOL    HW215474   2.575   3.751   7.947
 5008SOL     OW15475   3.396   4.728   7.652
 5008SOL    HW115476   3.327   4.670   7.686
 5008SOL    HW215477   3.442   4.759   7.730
 5009SOL     OW15478   2.451   4.446   7.709
 5009SOL    HW115479   2.449   4.530   7.664
 5009SOL    HW215480   2.394   4.457   7.784
 5010SOL     OW15481   1.916   4.588   0.081
 5010SOL    HW115482   1.978   4.518   0.102
 5010SOL    HW215483   1.931   4.653   0.149
 5011SOL     OW15484   2.757   4.079   7.645
 5011SOL    HW115485   2.793   4.137   7.578
 5011SOL    HW215486   2.779   3.990   7.615
 5012SOL     OW15487   2.180   4.680   7.700
 5012SOL    HW115488   2.260   4.696   7.650
 5012SOL    HW215489   2.142   4.602   7.659
 5013SOL     OW15490   2.954   0.173   7.640
 5013SOL    HW115491   2.901   0.115   7.695
 5013SOL    HW215492   2.933   0.147   7.550
 5014SOL     OW15493   3.492   5.100   7.553
 5014SOL    HW115494   3.483   5.175   7.494
 5014SOL    HW215495   3.421   5.041   7.527
 5015SOL     OW15496   3.284   3.863   7.864
 5015SOL    HW115497   3.274   3.826   7.776
 5015SOL    HW215498   3.379   3.865   7.878
 5016SOL     OW15499   2.257   4.427   7.916
 5016SOL    HW115500   2.247   4.333   7.931
 5016SOL    HW215501   2.168   4.461   7.915
 5017SOL     OW15502   2.503   3.839   7.557
 5017SOL    HW115503   2.564   3.768   7.575
 5017SOL    HW215504   2.453   3.809   7.481
 5018SOL     OW15505   2.397   3.804   7.961
 5018SOL    HW115506   2.312   3.809   8.003
 5018SOL    HW215507   2.395   3.873   7.895
 5019SOL     OW15508   3.290   4.929   7.487
 5019SOL    HW115509   3.317   4.854   7.539
 5019SOL    HW215510   3.201   4.949   7.517
 5020SOL     OW15511   2.151   3.773   7.634
 5020SOL    HW115512   2.207   3.834   7.586
 5020SOL    HW215513   2.212   3.712   7.675
 5021SOL     OW15514   2.806   3.952   7.899
 5021SOL    HW115515   2.770   4.013   7.835
 5021SOL    HW215516   2.897   3.981   7.911
 5022SOL     OW15517   2.291   4.863   0.099
 5022SOL    HW115518   2.226   4.921   0.139
 5022SOL    HW215519   2.266   4.860   0.007
 5023SOL     OW15520   2.886   4.256   7.471
 5023SOL    HW115521   2.840   4.338   7.455
 5023SOL    HW215522   2.944   4.276   7.545
 5024SOL     OW15523   3.739   4.532   7.806
 5024SOL    HW115524   3.699   4.526   7.893
 5024SOL    HW215525   3.703   4.458   7.758
 5025SOL     OW15526   2.320   5.159   7.595
 5025SOL    HW115527   2.268   5.104   7.654
 5025SOL    HW215528   2.345   5.100   7.524
 5026SOL     OW15529   3.255   4.296   7.518
 5026SOL    HW115530   3.193   4.274   7.586
 5026SOL    HW215531   3.339   4.263   7.550
 5027SOL     OW15532   2.387   3.989   7.765
 5027SOL    HW115533   2.436   3.943   7.697
 5027SOL    HW215534   2.360   4.071   7.724
 5028SOL     OW15535   2.578   4.792   7.810
 5028SOL    HW115536   2.545   4.770   7.896
 5028SOL    HW215537   2.655   4.736   7.799
 5029SOL     OW15538   2.225   4.839   7.919
 5029SOL    HW115539   2.198   4.916   7.870
 5029SOL    HW215540   2.213   4.766   7.858
 5030SOL     OW15541   3.085   5.115   7.836
 5030SOL    HW115542   3.174   5.120   7.870
 5030SOL    HW215543   3.037   5.062   7.899
 5031SOL     OW15544   3.449   4.345   7.916
 5031SOL    HW115545   3.448   4.405   7.991
 5031SOL    HW215546   3.477   4.398   7.843
 5032SOL     OW15547   3.060   4.248   7.708
 5032SOL    HW115548   3.061   4.166   7.759
 5032SOL    HW215549   3.037   4.315   7.772
 5033SOL     OW15550   3.487   4.105   7.803
 5033SOL    HW115551   3.509   4.038   7.868
 5033SOL    HW215552   3.460   4.181   7.856
 5034SOL     OW15553   3.387   4.000   7.571
 5034SOL    HW115554   3.324   3.933   7.598
 5034SOL    HW215555   3.421   4.035   7.653
 5035SOL     OW15556   3.151   4.549   7.477
 5035SOL    HW115557   3.192   4.463   7.480
 5035SOL    HW215558   3.182   4.588   7.395
 5036SOL     OW15559   1.876   5.040   7.639
 5036SOL    HW115560   1.784   5.055   7.615
 5036SOL    HW215561   1.877   4.951   7.675
 5037SOL     OW15562   2.716   4.352   7.742
 5037SOL    HW115563   2.715   4.257   7.729
 5037SOL    HW215564   2.623   4.375   7.748
 5038SOL     OW15565   2.317   4.216   7.637
 5038SOL    HW115566   2.378   4.288   7.654
 5038SOL    HW215567   2.232   4.259   7.622
 5039SOL     OW15568   3.175   4.586   7.749
 5039SOL    HW115569   3.089   4.597   7.789
 5039SOL    HW215570   3.158   4.569   7.657
 5040SOL     OW15571   3.575   3.878   7.936
 5040SOL    HW115572   3.650   3.873   7.876
 5040SOL    HW215573   3.584   3.800   7.991
 5041SOL     OW15574   2.787   4.625   7.762
 5041SOL    HW115575   2.838   4.647   7.684
 5041SOL    HW215576   2.774   4.530   7.755
 5042SOL     OW15577   2.125   5.050   7.760
 5042SOL    HW115578   2.037   5.053   7.723
 5042SOL    HW215579   2.117   5.093   7.845
 5043SOL     OW15580   1.941   4.050   7.479
 5043SOL    HW115581   1.857   4.031   7.437
 5043SOL    HW215582   1.973   4.129   7.435
 5044SOL     OW15583   1.924   3.880   7.747
 5044SOL    HW115584   1.910   3.953   7.687
 5044SOL    HW215585   2.008   3.843   7.721
 5045SOL     OW15586   3.040   5.052   7.569
 5045SOL    HW115587   2.948   5.025   7.567
 5045SOL    HW215588   3.057   5.076   7.660
 5046SOL     OW15589   3.075   4.043   7.903
 5046SOL    HW115590   3.151   3.986   7.892
 5046SOL    HW215591   3.091   4.090   7.985
 5047SOL     OW15592   2.501   4.466   8.043
 5047SOL    HW115593   2.498   4.539   0.025
 5047SOL    HW215594   2.411   4.460   8.009
 5048SOL     OW15595   2.709   5.091   7.469
 5048SOL    HW115596   2.697   5.092   7.564
 5048SOL    HW215597   2.710   5.183   7.444
 5049SOL     OW15598   2.929   4.695   7.541
 5049SOL    HW115599   2.910   4.755   7.468
 5049SOL    HW215600   3.006   4.647   7.512
 5050SOL     OW15601   2.244   4.158   7.988
 5050SOL    HW115602   2.297   4.107   7.928
 5050SOL    HW215603   2.295   4.161   8.069
 5051SOL     OW15604   2.672   5.058   7.734
 5051SOL    HW115605   2.635   4.974   7.762
 5051SOL    HW215606   2.670   5.112   7.813
 5052SOL     OW15607   3.223   3.773   7.613
 5052SOL    HW115608   3.257   3.700   7.562
 5052SOL    HW215609   3.134   3.747   7.637
 5053SOL     OW15610   1.917   4.795   7.750
 5053SOL    HW115611   2.012   4.790   7.740
 5053SOL    HW215612   1.890   4.705   7.763
 5054SOL     OW15613   3.927   0.618   0.127
 5054SOL    HW115614   3.845   0.591   0.169
 5054SOL    HW215615   3.946   0.550   0.063
 5055SOL     OW15616   3.936   0.288   0.995
 5055SOL    HW115617   3.966   0.250   1.078
 5055SOL    HW215618   3.857   0.239   0.974
 5056SOL     OW15619   3.720   0.394   0.637
 5056SOL    HW115620   3.636   0.416   0.678
 5056SOL    HW215621   3.701   0.316   0.585
 5057SOL     OW15622   4.293   1.299   1.186
 5057SOL    HW115623   4.207   1.304   1.143
 5057SOL    HW215624   4.310   1.388   1.217
 5058SOL     OW15625   5.289   1.565   0.709
 5058SOL    HW115626   5.254   1.508   0.777
 5058SOL    HW215627   5.233   1.547   0.633
 5059SOL     OW15628   4.866   0.700   0.697
 5059SOL    HW115629   4.916   0.781   0.687
 5059SOL    HW215630   4.815   0.713   0.777
 5060SOL     OW15631   4.467   1.137   1.048
 5060SOL    HW115632   4.402   1.175   1.107
 5060SOL    HW215633   4.506   1.212   1.004
 5061SOL     OW15634   4.599   0.766   1.826
 5061SOL    HW115635   4.581   0.837   1.888
 5061SOL    HW215636   4.620   0.811   1.744
 5062SOL     OW15637   4.407   0.994   0.649
 5062SOL    HW115638   4.474   0.988   0.718
 5062SOL    HW215639   4.340   1.051   0.687
 5063SOL     OW15640   4.439   1.150   1.821
 5063SOL    HW115641   4.487   1.227   1.852
 5063SOL    HW215642   4.360   1.185   1.781
 5064SOL     OW15643   4.056   1.416   1.067
 5064SOL    HW115644   3.981   1.376   1.022
 5064SOL    HW215645   4.100   1.468   1.000
 5065SOL     OW15646   5.158   1.481   1.365
 5065SOL    HW115647   5.221   1.549   1.386
 5065SOL    HW215648   5.088   1.492   1.430
 5066SOL     OW15649   4.173   0.394   1.472
 5066SOL    HW115650   4.249   0.337   1.481
 5066SOL    HW215651   4.098   0.339   1.496
 5067SOL     OW15652   3.946   1.715   0.467
 5067SOL    HW115653   3.966   1.789   0.524
 5067SOL    HW215654   4.024   1.707   0.411
 5068SOL     OW15655   4.857   1.342   1.696
 5068SOL    HW115656   4.894   1.336   1.784
 5068SOL    HW215657   4.807   1.261   1.686
 5069SOL     OW15658   3.950   1.441   0.521
 5069SOL    HW115659   3.936   1.535   0.524
 5069SOL    HW215660   3.896   1.407   0.593
 5070SOL     OW15661   3.992   1.091   0.891
 5070SOL    HW115662   3.988   1.003   0.929
 5070SOL    HW215663   3.934   1.142   0.947
 5071SOL     OW15664   4.320   1.796   1.421
 5071SOL    HW115665   4.242   1.777   1.472
 5071SOL    HW215666   4.348   1.882   1.452
 5072SOL     OW15667   4.342   0.954   0.148
 5072SOL    HW115668   4.285   1.026   0.120
 5072SOL    HW215669   4.397   0.991   0.217
 5073SOL     OW15670   5.255   0.133   1.487
 5073SOL    HW115671   0.015   0.207   1.476
 5073SOL    HW215672   5.259   0.114   1.581
 5074SOL     OW15673   3.842   0.654   0.565
 5074SOL    HW115674   3.810   0.566   0.586
 5074SOL    HW215675   3.833   0.703   0.647
 5075SOL     OW15676   3.766   1.589   0.108
 5075SOL    HW115677   3.747   1.503   0.144
 5075SOL    HW215678   3.745   1.650   0.179
 5076SOL     OW15679   0.118   0.950   0.596
 5076SOL    HW115680   0.211   0.931   0.580
 5076SOL    HW215681   0.091   1.003   0.521
 5077SOL     OW15682   3.848   0.747   1.580
 5077SOL    HW115683   3.939   0.779   1.584
 5077SOL    HW215684   3.795   0.827   1.583
 5078SOL     OW15685   4.340   1.393   0.733
 5078SOL    HW115686   4.296   1.308   0.742
 5078SOL    HW215687   4.325   1.418   0.642
 5079SOL     OW15688   4.992   1.227   1.423
 5079SOL    HW115689   5.027   1.161   1.363
 5079SOL    HW215690   5.051   1.225   1.498
 5080SOL     OW15691   4.543   0.037   0.536
 5080SOL    HW115692   4.573   0.122   0.503
 5080SOL    HW215693   4.448   0.041   0.527
 5081SOL     OW15694   3.911   0.961   1.280
 5081SOL    HW115695   3.998   0.922   1.265
 5081SOL    HW215696   3.853   0.912   1.221
 5082SOL     OW15697   4.891   1.812   1.627
 5082SOL    HW115698   4.908   1.874   1.557
 5082SOL    HW215699   4.916   1.727   1.592
 5083SOL     OW15700   4.062   0.280   1.823
 5083SOL    HW115701   4.111   0.349   1.868
 5083SOL    HW215702   3.974   0.286   1.859
 5084SOL     OW15703   5.165   1.439   0.925
 5084SOL    HW115704   5.107   1.445   1.001
 5084SOL    HW215705   5.159   1.348   0.898
 5085SOL     OW15706   4.323   0.710   0.286
 5085SOL    HW115707   4.336   0.794   0.242
 5085SOL    HW215708   4.257   0.728   0.353
 5086SOL     OW15709   4.991   0.325   0.917
 5086SOL    HW115710   4.900   0.304   0.939
 5086SOL    HW215711   5.042   0.294   0.991
 5087SOL     OW15712   4.515   0.619   1.444
 5087SOL    HW115713   4.489   0.594   1.532
 5087SOL    HW215714   4.481   0.548   1.388
 5088SOL     OW15715   5.116   0.495   1.684
 5088SOL    HW115716   5.122   0.524   1.775
 5088SOL    HW215717   5.191   0.436   1.672
 5089SOL     OW15718   4.672   0.885   1.587
 5089SOL    HW115719   4.726   0.816   1.548
 5089SOL    HW215720   4.623   0.922   1.514
 5090SOL     OW15721   4.719   0.422   1.220
 5090SOL    HW115722   4.630   0.431   1.253
 5090SOL    HW215723   4.711   0.369   1.141
 5091SOL     OW15724   4.782   0.699   0.427
 5091SOL    HW115725   4.802   0.693   0.520
 5091SOL    HW215726   4.698   0.654   0.417
 5092SOL     OW15727   3.812   0.823   0.779
 5092SOL    HW115728   3.893   0.815   0.831
 5092SOL    HW215729   3.768   0.900   0.815
 5093SOL     OW15730   3.848   1.873   1.584
 5093SOL    HW115731   3.852   1.850   1.677
 5093SOL    HW215732   3.764   1.837   1.555
 5094SOL     OW15733   4.610   0.360   0.201
 5094SOL    HW115734   4.655   0.403   0.128
 5094SOL    HW215735   4.589   0.272   0.167
 5095SOL     OW15736   5.104   1.156   0.554
 5095SOL    HW115737   5.186   1.152   0.505
 5095SOL    HW215738   5.046   1.211   0.501
 5096SOL     OW15739   4.234   0.205   0.877
 5096SOL    HW115740   4.258   0.216   0.969
 5096SOL    HW215741   4.260   0.287   0.835
 5097SOL     OW15742   4.720   1.442   0.468
 5097SOL    HW115743   4.686   1.517   0.420
 5097SOL    HW215744   4.698   1.459   0.559
 5098SOL     OW15745   4.078   1.815   0.872
 5098SOL    HW115746   4.123   1.730   0.877
 5098SOL    HW215747   4.146   1.879   0.890
 5099SOL     OW15748   4.935   1.538   1.516
 5099SOL    HW115749   4.924   1.467   1.579
 5099SOL    HW215750   4.866   1.522   1.451
 5100SOL     OW15751   4.033   0.947   0.267
 5100SOL    HW115752   4.092   0.992   0.206
 5100SOL    HW215753   4.051   0.854   0.253
 5101SOL     OW15754   4.195   1.269   1.739
 5101SOL    HW115755   4.169   1.273   1.647
 5101SOL    HW215756   4.112   1.264   1.787
 5102SOL     OW15757   4.816   1.772   0.219
 5102SOL    HW115758   4.757   1.733   0.284
 5102SOL    HW215759   4.834   1.702   0.157
 5103SOL     OW15760   3.922   0.276   1.511
 5103SOL    HW115761   3.843   0.329   1.517
 5103SOL    HW215762   3.921   0.222   1.590
 5104SOL     OW15763   4.188   1.735   0.322
 5104SOL    HW115764   4.233   1.794   0.383
 5104SOL    HW215765   4.256   1.706   0.262
 5105SOL     OW15766   5.090   0.125   0.453
 5105SOL    HW115767   5.092   0.074   0.372
 5105SOL    HW215768   5.183   0.134   0.478
 5106SOL     OW15769   3.980   1.790   1.228
 5106SOL    HW115770   4.030   1.719   1.269
 5106SOL    HW215771   3.973   1.763   1.136
 5107SOL     OW15772   4.666   1.699   0.895
 5107SOL    HW115773   4.748   1.653   0.911
 5107SOL    HW215774   4.623   1.648   0.825
 5108SOL     OW15775   4.112   0.698   0.472
 5108SOL    HW115776   4.132   0.606   0.487
 5108SOL    HW215777   4.020   0.707   0.496
 5109SOL     OW15778   4.350   0.142   0.122
 5109SOL    HW115779   4.441   0.114   0.130
 5109SOL    HW215780   4.321   0.105   0.039
 5110SOL     OW15781   4.507   0.303   1.766
 5110SOL    HW115782   4.584   0.248   1.768
 5110SOL    HW215783   4.458   0.279   1.844
 5111SOL     OW15784   4.597   1.525   1.194
 5111SOL    HW115785   4.581   1.487   1.108
 5111SOL    HW215786   4.667   1.471   1.232
 5112SOL     OW15787   5.059   0.596   1.432
 5112SOL    HW115788   5.086   0.569   1.519
 5112SOL    HW215789   5.100   0.681   1.419
 5113SOL     OW15790   4.541   1.388   0.947
 5113SOL    HW115791   4.626   1.376   0.906
 5113SOL    HW215792   4.480   1.396   0.874
 5114SOL     OW15793   4.651   0.512   0.899
 5114SOL    HW115794   4.627   0.501   0.807
 5114SOL    HW215795   4.677   0.425   0.928
 5115SOL     OW15796   4.272   0.060   0.508
 5115SOL    HW115797   4.189   0.053   0.554
 5115SOL    HW215798   4.259   0.128   0.442
 5116SOL     OW15799   5.134   1.169   0.055
 5116SOL    HW115800   5.112   1.087   0.100
 5116SOL    HW215801   5.054   1.222   0.062
 5117SOL     OW15802   4.027   0.078   0.209
 5117SOL    HW115803   4.089   0.150   0.202
 5117SOL    HW215804   4.077   0.000   0.186
 5118SOL     OW15805   4.667   0.266   0.452
 5118SOL    HW115806   4.641   0.307   0.369
 5118SOL    HW215807   4.758   0.291   0.463
 5119SOL     OW15808   4.801   0.686   1.456
 5119SOL    HW115809   4.735   0.616   1.456
 5119SOL    HW215810   4.885   0.640   1.447
 5120SOL     OW15811   4.936   1.572   0.795
 5120SOL    HW115812   4.955   1.640   0.731
 5120SOL    HW215813   5.021   1.550   0.833
 5121SOL     OW15814   4.196   1.156   0.726
 5121SOL    HW115815   4.131   1.134   0.793
 5121SOL    HW215816   4.152   1.142   0.643
 5122SOL     OW15817   4.983   1.794   0.612
 5122SOL    HW115818   5.028   1.858   0.557
 5122SOL    HW215819   4.914   1.844   0.655
 5123SOL     OW15820   4.762   0.519   0.028
 5123SOL    HW115821   4.713   0.600   0.012
 5123SOL    HW215822   4.814   0.538   0.106
 5124SOL     OW15823   3.808   0.552   1.393
 5124SOL    HW115824   3.900   0.553   1.366
 5124SOL    HW215825   3.802   0.622   1.457
 5125SOL     OW15826   4.273   0.238   1.158
 5125SOL    HW115827   4.309   0.156   1.192
 5125SOL    HW215828   4.182   0.238   1.188
 5126SOL     OW15829   4.591   0.463   0.639
 5126SOL    HW115830   4.549   0.518   0.573
 5126SOL    HW215831   4.612   0.381   0.593
 5127SOL     OW15832   4.695   0.066   0.770
 5127SOL    HW115833   4.635   0.062   0.696
 5127SOL    HW215834   4.716   5.274   0.788
 5128SOL     OW15835   5.154   1.177   0.846
 5128SOL    HW115836   5.104   1.098   0.867
 5128SOL    HW215837   5.155   1.180   0.750
 5129SOL     OW15838   4.210   1.439   0.174
 5129SOL    HW115839   4.135   1.402   0.218
 5129SOL    HW215840   4.221   1.386   0.095
 5130SOL     OW15841   5.137   0.579   0.090
 5130SOL    HW115842   5.055   0.554   0.133
 5130SOL    HW215843   5.201   0.580   0.161
 5131SOL     OW15844   4.240   0.270   0.326
 5131SOL    HW115845   4.287   0.218   0.261
 5131SOL    HW215846   4.222   0.353   0.282
 5132SOL     OW15847   4.772   1.357   1.333
 5132SOL    HW115848   4.696   1.324   1.381
 5132SOL    HW215849   4.847   1.311   1.372
 5133SOL     OW15850   0.009   1.613   1.611
 5133SOL    HW115851   0.045   1.611   1.522
 5133SOL    HW215852   0.082   1.585   1.666
 5134SOL     OW15853   4.862   1.213   1.104
 5134SOL    HW115854   4.796   1.244   1.165
 5134SOL    HW215855   4.831   1.243   1.018
 5135SOL     OW15856   4.618   0.108   1.374
 5135SOL    HW115857   4.653   0.072   1.292
 5135SOL    HW215858   4.693   0.152   1.414
 5136SOL     OW15859   4.709   1.111   1.728
 5136SOL    HW115860   4.618   1.129   1.751
 5136SOL    HW215861   4.704   1.035   1.671
 5137SOL     OW15862   4.447   1.067   0.384
 5137SOL    HW115863   4.425   1.044   0.474
 5137SOL    HW215864   4.524   1.015   0.363
 5138SOL     OW15865   4.146   0.821   1.252
 5138SOL    HW115866   4.214   0.829   1.319
 5138SOL    HW215867   4.112   0.732   1.264
 5139SOL     OW15868   4.988   0.383   1.273
 5139SOL    HW115869   5.021   0.461   1.317
 5139SOL    HW215870   4.898   0.405   1.249
 5140SOL     OW15871   3.800   1.574   1.358
 5140SOL    HW115872   3.772   1.645   1.301
 5140SOL    HW215873   3.895   1.572   1.349
 5141SOL     OW15874   4.057   1.117   0.492
 5141SOL    HW115875   4.061   1.188   0.428
 5141SOL    HW215876   4.062   1.037   0.440
 5142SOL     OW15877   4.272   0.530   0.859
 5142SOL    HW115878   4.285   0.589   0.785
 5142SOL    HW215879   4.339   0.554   0.923
 5143SOL     OW15880   4.969   1.349   0.392
 5143SOL    HW115881   5.024   1.423   0.418
 5143SOL    HW215882   4.881   1.372   0.424
 5144SOL     OW15883   5.005   1.458   1.141
 5144SOL    HW115884   5.055   1.459   1.223
 5144SOL    HW215885   4.951   1.379   1.147
 5145SOL     OW15886   4.069   1.530   1.309
 5145SOL    HW115887   4.059   1.485   1.226
 5145SOL    HW215888   4.164   1.542   1.318
 5146SOL     OW15889   4.143   0.745   1.605
 5146SOL    HW115890   4.206   0.788   1.547
 5146SOL    HW215891   4.183   0.660   1.623
 5147SOL     OW15892   4.753   0.133   1.738
 5147SOL    HW115893   4.800   0.215   1.728
 5147SOL    HW215894   4.805   0.068   1.691
 5148SOL     OW15895   4.201   0.065   1.733
 5148SOL    HW115896   4.132   0.001   1.712
 5148SOL    HW215897   4.153   0.145   1.757
 5149SOL     OW15898   4.309   0.875   1.032
 5149SOL    HW115899   4.344   0.964   1.036
 5149SOL    HW215900   4.253   0.868   1.109
 5150SOL     OW15901   5.088   0.854   1.032
 5150SOL    HW115902   5.011   0.822   0.984
 5150SOL    HW215903   5.154   0.786   1.020
 5151SOL     OW15904   4.921   0.531   0.258
 5151SOL    HW115905   4.928   0.450   0.308
 5151SOL    HW215906   4.880   0.594   0.318
 5152SOL     OW15907   4.014   0.200   1.251
 5152SOL    HW115908   3.975   0.239   1.330
 5152SOL    HW215909   4.020   0.107   1.271
 5153SOL     OW15910   3.771   1.312   1.273
 5153SOL    HW115911   3.802   1.256   1.344
 5153SOL    HW215912   3.775   1.401   1.309
 5154SOL     OW15913   4.445   0.630   1.053
 5154SOL    HW115914   4.521   0.616   0.997
 5154SOL    HW215915   4.416   0.719   1.033
 5155SOL     OW15916   4.046   0.067   0.670
 5155SOL    HW115917   4.009   0.155   0.666
 5155SOL    HW215918   4.105   0.069   0.745
 5156SOL     OW15919   0.053   0.423   0.354
 5156SOL    HW115920   0.058   0.361   0.426
 5156SOL    HW215921   0.028   0.506   0.396
 5157SOL     OW15922   4.751   0.759   0.956
 5157SOL    HW115923   4.744   0.776   1.050
 5157SOL    HW215924   4.724   0.668   0.945
 5158SOL     OW15925   4.693   1.562   1.718
 5158SOL    HW115926   4.682   1.608   1.635
 5158SOL    HW215927   4.740   1.482   1.695
 5159SOL     OW15928   4.076   0.918   1.809
 5159SOL    HW115929   4.156   0.936   1.858
 5159SOL    HW215930   4.102   0.854   1.743
 5160SOL     OW15931   5.033   0.832   0.016
 5160SOL    HW115932   5.067   0.745   0.039
 5160SOL    HW215933   5.048   0.840   8.002
 5161SOL     OW15934   4.791   1.337   0.859
 5161SOL    HW115935   4.798   1.266   0.796
 5161SOL    HW215936   4.845   1.407   0.822
 5162SOL     OW15937   4.033   0.809   0.945
 5162SOL    HW115938   4.127   0.829   0.940
 5162SOL    HW215939   4.029   0.718   0.976
 5163SOL     OW15940   4.051   0.530   1.012
 5163SOL    HW115941   4.013   0.443   1.000
 5163SOL    HW215942   4.128   0.531   0.956
 5164SOL     OW15943   4.863   0.381   1.692
 5164SOL    HW115944   4.813   0.434   1.754
 5164SOL    HW215945   4.948   0.425   1.685
 5165SOL     OW15946   4.838   0.237   1.457
 5165SOL    HW115947   4.849   0.286   1.539
 5165SOL    HW215948   4.903   0.275   1.398
 5166SOL     OW15949   3.741   1.315   0.183
 5166SOL    HW115950   3.654   1.331   0.147
 5166SOL    HW215951   3.736   1.227   0.220
 5167SOL     OW15952   3.814   1.781   0.942
 5167SOL    HW115953   3.783   1.704   0.895
 5167SOL    HW215954   3.903   1.795   0.910
 5168SOL     OW15955   4.215   1.574   0.904
 5168SOL    HW115956   4.284   1.636   0.928
 5168SOL    HW215957   4.258   1.512   0.845
 5169SOL     OW15958   4.694   0.789   1.222
 5169SOL    HW115959   4.754   0.771   1.295
 5169SOL    HW215960   4.613   0.744   1.245
 5170SOL     OW15961   3.760   0.550   1.117
 5170SOL    HW115962   3.839   0.537   1.064
 5170SOL    HW215963   3.791   0.551   1.207
 5171SOL     OW15964   3.905   0.529   1.734
 5171SOL    HW115965   3.972   0.488   1.680
 5171SOL    HW215966   3.875   0.604   1.683
 5172SOL     OW15967   5.123   0.930   1.666
 5172SOL    HW115968   5.127   1.024   1.652
 5172SOL    HW215969   5.127   0.893   1.577
 5173SOL     OW15970   4.546   0.572   0.373
 5173SOL    HW115971   4.552   0.500   0.310
 5173SOL    HW215972   4.469   0.621   0.345
 5174SOL     OW15973   3.960   1.548   1.723
 5174SOL    HW115974   3.940   1.611   1.791
 5174SOL    HW215975   3.969   1.465   1.769
 5175SOL     OW15976   4.437   0.445   1.251
 5175SOL    HW115977   4.379   0.374   1.224
 5175SOL    HW215978   4.430   0.509   1.181
 5176SOL     OW15979   4.637   1.678   1.471
 5176SOL    HW115980   4.616   1.641   1.385
 5176SOL    HW215981   4.637   1.773   1.457
 5177SOL     OW15982   4.188   0.495   0.175
 5177SOL    HW115983   4.255   0.559   0.198
 5177SOL    HW215984   4.105   0.541   0.189
 5178SOL     OW15985   3.864   1.144   1.474
 5178SOL    HW115986   3.867   1.097   1.558
 5178SOL    HW215987   3.882   1.076   1.409
 5179SOL     OW15988   5.049   1.044   1.221
 5179SOL    HW115989   5.068   0.978   1.155
 5179SOL    HW215990   4.983   1.100   1.181
 5180SOL     OW15991   5.029   0.870   0.318
 5180SOL    HW115992   4.950   0.831   0.356
 5180SOL    HW215993   5.021   0.855   0.224
 5181SOL     OW15994   4.957   1.731   1.117
 5181SOL    HW115995   5.043   1.756   1.081
 5181SOL    HW215996   4.963   1.636   1.128
 5182SOL     OW15997   3.812   1.265   1.009
 5182SOL    HW115998   3.794   1.280   1.102
 5182SOL    HW215999   3.741   1.209   0.979
 5183SOL     OW16000   4.403   1.671   1.741
 5183SOL    HW116001   4.346   1.747   1.728
 5183SOL    HW216002   4.477   1.686   1.682
 5184SOL     OW16003   4.615   0.080   0.143
 5184SOL    HW116004   4.670   0.060   0.068
 5184SOL    HW216005   4.615   0.001   0.196
 5185SOL     OW16006   5.110   1.578   0.478
 5185SOL    HW116007   5.166   1.624   0.416
 5185SOL    HW216008   5.058   1.647   0.520
 5186SOL     OW16009   3.864   1.796   1.843
 5186SOL    HW116010   3.815   1.729   1.889
 5186SOL    HW216011   3.911   1.843   1.912
 5187SOL     OW16012   5.021   0.923   0.668
 5187SOL    HW116013   5.101   0.871   0.663
 5187SOL    HW216014   5.041   1.003   0.621
 5188SOL     OW16015   4.525   1.277   1.423
 5188SOL    HW116016   4.498   1.318   1.505
 5188SOL    HW216017   4.454   1.296   1.362
 5189SOL     OW16018   4.399   1.627   0.157
 5189SOL    HW116019   4.411   1.635   0.063
 5189SOL    HW216020   4.339   1.553   0.169
 5190SOL     OW16021   3.977   0.327   0.715
 5190SOL    HW116022   3.889   0.359   0.697
 5190SOL    HW216023   3.980   0.318   0.810
 5191SOL     OW16024   4.861   1.578   0.040
 5191SOL    HW116025   4.890   1.489   0.061
 5191SOL    HW216026   4.916   1.604   8.045
 5192SOL     OW16027   4.546   1.007   1.377
 5192SOL    HW116028   4.590   0.998   1.292
 5192SOL    HW216029   4.543   1.102   1.392
 5193SOL     OW16030   4.649   0.915   0.305
 5193SOL    HW116031   4.701   0.936   0.227
 5193SOL    HW216032   4.696   0.842   0.346
 5194SOL     OW16033   4.091   1.306   1.493
 5194SOL    HW116034   4.079   1.381   1.436
 5194SOL    HW216035   4.014   1.251   1.478
 5195SOL     OW16036   4.786   1.110   0.711
 5195SOL    HW116037   4.714   1.061   0.750
 5195SOL    HW216038   4.844   1.043   0.676
 5196SOL     OW16039   4.730   0.245   0.977
 5196SOL    HW116040   4.711   0.201   0.894
 5196SOL    HW216041   4.727   0.176   1.043
 5197SOL     OW16042   4.330   1.483   0.475
 5197SOL    HW116043   4.379   1.434   0.409
 5197SOL    HW216044   4.258   1.523   0.427
 5198SOL     OW16045   3.994   1.316   0.288
 5198SOL    HW116046   3.908   1.322   0.247
 5198SOL    HW216047   3.985   1.362   0.372
 5199SOL     OW16048   3.839   1.036   1.727
 5199SOL    HW116049   3.763   1.007   1.777
 5199SOL    HW216050   3.913   0.991   1.768
 5200SOL     OW16051   4.398   0.221   1.498
 5200SOL    HW116052   4.478   0.198   1.451
 5200SOL    HW216053   4.429   0.265   1.578
 5201SOL     OW16054   3.795   0.359   0.027
 5201SOL    HW116055   3.725   0.294   0.030
 5201SOL    HW216056   3.796   0.389   8.016
 5202SOL     OW16057   5.167   0.859   1.401
 5202SOL    HW116058   5.115   0.917   1.346
 5202SOL    HW216059   5.256   0.865   1.364
 5203SOL     OW16060   3.788   0.164   0.312
 5203SOL    HW116061   3.799   0.254   0.282
 5203SOL    HW216062   3.873   0.122   0.294
 5204SOL     OW16063   4.907   1.313   0.116
 5204SOL    HW116064   4.812   1.311   0.108
 5204SOL    HW216065   4.924   1.317   0.210
 5205SOL     OW16066   4.344   0.831   1.436
 5205SOL    HW116067   4.402   0.907   1.421
 5205SOL    HW216068   4.404   0.756   1.441
 5206SOL     OW16069   4.440   0.568   1.698
 5206SOL    HW116070   4.485   0.628   1.757
 5206SOL    HW216071   4.463   0.481   1.731
 5207SOL     OW16072   5.175   1.199   1.630
 5207SOL    HW116073   5.165   1.214   1.724
 5207SOL    HW216074   5.267   1.217   1.612
 5208SOL     OW16075   4.093   1.741   1.567
 5208SOL    HW116076   4.011   1.788   1.552
 5208SOL    HW216077   4.067   1.658   1.607
 5209SOL     OW16078   4.929   0.339   0.468
 5209SOL    HW116079   4.981   0.260   0.458
 5209SOL    HW216080   4.964   0.383   0.546
 5210SOL     OW16081   4.307   0.733   0.674
 5210SOL    HW116082   4.348   0.819   0.661
 5210SOL    HW216083   4.241   0.727   0.604
 5211SOL     OW16084   4.636   1.360   0.053
 5211SOL    HW116085   4.570   1.352   0.123
 5211SOL    HW216086   4.627   1.451   0.023
 5212SOL     OW16087   4.388   1.782   0.936
 5212SOL    HW116088   4.370   1.874   0.918
 5212SOL    HW216089   4.483   1.775   0.931
 5213SOL     OW16090   4.595   0.972   0.855
 5213SOL    HW116091   4.644   0.899   0.891
 5213SOL    HW216092   4.555   1.014   0.931
 5214SOL     OW16093   4.805   0.967   0.088
 5214SOL    HW116094   4.785   1.030   0.019
 5214SOL    HW216095   4.884   0.923   0.058
 5215SOL     OW16096   3.949   1.297   1.852
 5215SOL    HW116097   3.891   1.229   1.817
 5215SOL    HW216098   3.920   1.309   1.942
 5216SOL     OW16099   3.817   1.228   0.666
 5216SOL    HW116100   3.826   1.182   0.750
 5216SOL    HW216101   3.885   1.190   0.611
 5217SOL     OW16102   4.410   1.407   1.633
 5217SOL    HW116103   4.330   1.366   1.667
 5217SOL    HW216104   4.408   1.496   1.669
 5218SOL     OW16105   4.148   0.440   0.526
 5218SOL    HW116106   4.185   0.368   0.476
 5218SOL    HW216107   4.100   0.397   0.597
 5219SOL     OW16108   0.085   1.517   1.102
 5219SOL    HW116109   0.021   1.500   1.032
 5219SOL    HW216110   0.081   1.439   1.157
 5220SOL     OW16111   4.059   0.563   1.291
 5220SOL    HW116112   4.112   0.505   1.345
 5220SOL    HW216113   4.076   0.534   1.201
 5221SOL     OW16114   4.556   1.578   0.675
 5221SOL    HW116115   4.536   1.641   0.606
 5221SOL    HW216116   4.480   1.519   0.677
 5222SOL     OW16117   5.139   0.210   1.124
 5222SOL    HW116118   5.147   0.130   1.176
 5222SOL    HW216119   5.095   0.272   1.183
 5223SOL     OW16120   4.718   0.015   1.130
 5223SOL    HW116121   4.666   5.250   1.084
 5223SOL    HW216122   4.805   5.275   1.140
 5224SOL     OW16123   4.501   1.328   0.310
 5224SOL    HW116124   4.473   1.238   0.329
 5224SOL    HW216125   4.581   1.339   0.363
 5225SOL     OW16126   4.343   1.557   1.287
 5225SOL    HW116127   4.342   1.640   1.334
 5225SOL    HW216128   4.431   1.550   1.251
 5226SOL     OW16129   5.072   5.292   0.218
 5226SOL    HW116130   5.138   5.296   0.149
 5226SOL    HW216131   5.012   0.063   0.198
 5227SOL     OW16132   5.031   0.467   0.689
 5227SOL    HW116133   4.975   0.545   0.692
 5227SOL    HW216134   5.014   0.422   0.772
 5228SOL     OW16135   5.291   0.217   0.893
 5228SOL    HW116136   5.236   0.207   0.971
 5228SOL    HW216137   5.255   0.293   0.848
 5229SOL     OW16138   3.769   1.061   0.310
 5229SOL    HW116139   3.864   1.057   0.312
 5229SOL    HW216140   3.740   0.976   0.343
 5230SOL     OW16141   4.602   1.659   0.351
 5230SOL    HW116142   4.533   1.646   0.287
 5230SOL    HW216143   4.574   1.735   0.402
 5231SOL     OW16144   3.943   0.628   1.993
 5231SOL    HW116145   3.855   0.619   2.031
 5231SOL    HW216146   3.931   0.604   1.901
 5232SOL     OW16147   3.937   0.288   2.857
 5232SOL    HW116148   3.966   0.250   2.940
 5232SOL    HW216149   3.857   0.240   2.836
 5233SOL     OW16150   3.721   0.395   2.498
 5233SOL    HW116151   3.637   0.415   2.540
 5233SOL    HW216152   3.703   0.319   2.443
 5234SOL     OW16153   4.293   1.299   3.048
 5234SOL    HW116154   4.207   1.304   3.005
 5234SOL    HW216155   4.309   1.388   3.079
 5235SOL     OW16156   5.295   1.527   2.565
 5235SOL    HW116157   5.252   1.496   2.644
 5235SOL    HW216158   5.226   1.531   2.499
 5236SOL     OW16159   4.866   0.698   2.557
 5236SOL    HW116160   4.915   0.780   2.548
 5236SOL    HW216161   4.815   0.711   2.637
 5237SOL     OW16162   4.467   1.137   2.911
 5237SOL    HW116163   4.402   1.175   2.969
 5237SOL    HW216164   4.507   1.212   2.866
 5238SOL     OW16165   4.599   0.766   3.688
 5238SOL    HW116166   4.581   0.837   3.750
 5238SOL    HW216167   4.620   0.811   3.606
 5239SOL     OW16168   4.410   0.996   2.506
 5239SOL    HW116169   4.476   0.989   2.575
 5239SOL    HW216170   4.341   1.051   2.543
 5240SOL     OW16171   4.439   1.150   3.683
 5240SOL    HW116172   4.487   1.227   3.714
 5240SOL    HW216173   4.360   1.185   3.643
 5241SOL     OW16174   4.056   1.416   2.929
 5241SOL    HW116175   3.981   1.376   2.883
 5241SOL    HW216176   4.100   1.468   2.862
 5242SOL     OW16177   5.157   1.482   3.227
 5242SOL    HW116178   5.222   1.549   3.249
 5242SOL    HW216179   5.088   1.493   3.292
 5243SOL     OW16180   4.173   0.394   3.334
 5243SOL    HW116181   4.249   0.336   3.343
 5243SOL    HW216182   4.098   0.340   3.358
 5244SOL     OW16183   3.943   1.717   2.330
 5244SOL    HW116184   3.965   1.791   2.386
 5244SOL    HW216185   4.018   1.708   2.271
 5245SOL     OW16186   4.857   1.341   3.558
 5245SOL    HW116187   4.894   1.336   3.646
 5245SOL    HW216188   4.807   1.261   3.548
 5246SOL     OW16189   3.957   1.446   2.398
 5246SOL    HW116190   3.938   1.539   2.399
 5246SOL    HW216191   3.899   1.408   2.465
 5247SOL     OW16192   3.992   1.091   2.753
 5247SOL    HW116193   3.988   1.003   2.790
 5247SOL    HW216194   3.934   1.143   2.809
 5248SOL     OW16195   4.321   1.795   3.284
 5248SOL    HW116196   4.242   1.776   3.335
 5248SOL    HW216197   4.348   1.882   3.314
 5249SOL     OW16198   4.301   0.985   2.003
 5249SOL    HW116199   4.350   1.030   1.934
 5249SOL    HW216200   4.340   1.016   2.084
 5250SOL     OW16201   5.255   0.133   3.349
 5250SOL    HW116202   0.015   0.207   3.338
 5250SOL    HW216203   5.258   0.114   3.443
 5251SOL     OW16204   3.842   0.658   2.423
 5251SOL    HW116205   3.813   0.569   2.444
 5251SOL    HW216206   3.835   0.706   2.505
 5252SOL     OW16207   3.764   1.589   1.982
 5252SOL    HW116208   3.745   1.498   2.002
 5252SOL    HW216209   3.738   1.637   2.061
 5253SOL     OW16210   0.117   0.935   2.439
 5253SOL    HW116211   0.210   0.918   2.424
 5253SOL    HW216212   0.111   1.031   2.442
 5254SOL     OW16213   3.849   0.747   3.442
 5254SOL    HW116214   3.939   0.779   3.446
 5254SOL    HW216215   3.795   0.827   3.445
 5255SOL     OW16216   4.340   1.391   2.597
 5255SOL    HW116217   4.296   1.307   2.605
 5255SOL    HW216218   4.324   1.419   2.507
 5256SOL     OW16219   4.992   1.227   3.285
 5256SOL    HW116220   5.028   1.161   3.225
 5256SOL    HW216221   5.051   1.225   3.360
 5257SOL     OW16222   4.543   0.039   2.400
 5257SOL    HW116223   4.571   0.126   2.370
 5257SOL    HW216224   4.447   0.040   2.390
 5258SOL     OW16225   3.911   0.961   3.142
 5258SOL    HW116226   3.998   0.923   3.128
 5258SOL    HW216227   3.854   0.913   3.083
 5259SOL     OW16228   4.891   1.813   3.490
 5259SOL    HW116229   4.907   1.875   3.419
 5259SOL    HW216230   4.917   1.728   3.454
 5260SOL     OW16231   4.062   0.281   3.685
 5260SOL    HW116232   4.111   0.349   3.730
 5260SOL    HW216233   3.974   0.286   3.721
 5261SOL     OW16234   5.163   1.441   2.788
 5261SOL    HW116235   5.105   1.448   2.865
 5261SOL    HW216236   5.158   1.349   2.763
 5262SOL     OW16237   4.315   0.716   2.132
 5262SOL    HW116238   4.317   0.801   2.087
 5262SOL    HW216239   4.250   0.727   2.201
 5263SOL     OW16240   4.991   0.325   2.776
 5263SOL    HW116241   4.900   0.305   2.800
 5263SOL    HW216242   5.043   0.295   2.851
 5264SOL     OW16243   4.516   0.618   3.306
 5264SOL    HW116244   4.489   0.594   3.394
 5264SOL    HW216245   4.481   0.548   3.250
 5265SOL     OW16246   5.116   0.494   3.546
 5265SOL    HW116247   5.122   0.523   3.637
 5265SOL    HW216248   5.192   0.437   3.534
 5266SOL     OW16249   4.672   0.885   3.449
 5266SOL    HW116250   4.726   0.816   3.410
 5266SOL    HW216251   4.623   0.922   3.376
 5267SOL     OW16252   4.719   0.422   3.083
 5267SOL    HW116253   4.630   0.431   3.116
 5267SOL    HW216254   4.710   0.369   3.003
 5268SOL     OW16255   4.778   0.700   2.287
 5268SOL    HW116256   4.797   0.693   2.380
 5268SOL    HW216257   4.693   0.656   2.276
 5269SOL     OW16258   3.812   0.822   2.641
 5269SOL    HW116259   3.892   0.815   2.692
 5269SOL    HW216260   3.768   0.899   2.677
 5270SOL     OW16261   3.847   1.872   3.446
 5270SOL    HW116262   3.853   1.849   3.539
 5270SOL    HW216263   3.762   1.840   3.418
 5271SOL     OW16264   4.612   0.368   2.057
 5271SOL    HW116265   4.640   0.422   1.983
 5271SOL    HW216266   4.667   0.290   2.051
 5272SOL     OW16267   5.101   1.157   2.418
 5272SOL    HW116268   5.191   1.170   2.389
 5272SOL    HW216269   5.048   1.209   2.358
 5273SOL     OW16270   4.236   0.205   2.738
 5273SOL    HW116271   4.258   0.217   2.831
 5273SOL    HW216272   4.259   0.288   2.697
 5274SOL     OW16273   4.723   1.442   2.330
 5274SOL    HW116274   4.689   1.517   2.280
 5274SOL    HW216275   4.699   1.461   2.421
 5275SOL     OW16276   4.078   1.815   2.734
 5275SOL    HW116277   4.123   1.731   2.739
 5275SOL    HW216278   4.146   1.880   2.752
 5276SOL     OW16279   4.935   1.538   3.378
 5276SOL    HW116280   4.924   1.467   3.441
 5276SOL    HW216281   4.865   1.523   3.313
 5277SOL     OW16282   4.036   0.960   2.117
 5277SOL    HW116283   4.118   0.979   2.072
 5277SOL    HW216284   4.008   0.876   2.080
 5278SOL     OW16285   4.195   1.269   3.601
 5278SOL    HW116286   4.169   1.273   3.509
 5278SOL    HW216287   4.112   1.265   3.649
 5279SOL     OW16288   4.829   1.774   2.102
 5279SOL    HW116289   4.754   1.733   2.144
 5279SOL    HW216290   4.854   1.713   2.032
 5280SOL     OW16291   3.923   0.276   3.373
 5280SOL    HW116292   3.843   0.330   3.379
 5280SOL    HW216293   3.921   0.223   3.452
 5281SOL     OW16294   4.186   1.736   2.181
 5281SOL    HW116295   4.232   1.792   2.244
 5281SOL    HW216296   4.255   1.701   2.125
 5282SOL     OW16297   5.084   0.094   2.274
 5282SOL    HW116298   5.075   0.078   2.180
 5282SOL    HW216299   5.177   0.115   2.286
 5283SOL     OW16300   3.979   1.789   3.090
 5283SOL    HW116301   4.029   1.719   3.131
 5283SOL    HW216302   3.973   1.764   2.998
 5284SOL     OW16303   4.665   1.699   2.757
 5284SOL    HW116304   4.747   1.653   2.774
 5284SOL    HW216305   4.623   1.648   2.687
 5285SOL     OW16306   4.120   0.696   2.334
 5285SOL    HW116307   4.138   0.603   2.348
 5285SOL    HW216308   4.027   0.705   2.351
 5286SOL     OW16309   4.348   0.135   1.967
 5286SOL    HW116310   4.409   0.066   1.993
 5286SOL    HW216311   4.296   0.096   1.897
 5287SOL     OW16312   4.507   0.303   3.628
 5287SOL    HW116313   4.584   0.247   3.630
 5287SOL    HW216314   4.457   0.279   3.707
 5288SOL     OW16315   4.597   1.525   3.056
 5288SOL    HW116316   4.581   1.487   2.970
 5288SOL    HW216317   4.667   1.471   3.094
 5289SOL     OW16318   5.059   0.596   3.294
 5289SOL    HW116319   5.086   0.569   3.381
 5289SOL    HW216320   5.100   0.681   3.281
 5290SOL     OW16321   4.541   1.388   2.810
 5290SOL    HW116322   4.626   1.376   2.767
 5290SOL    HW216323   4.479   1.396   2.737
 5291SOL     OW16324   4.652   0.513   2.763
 5291SOL    HW116325   4.627   0.503   2.671
 5291SOL    HW216326   4.677   0.425   2.790
 5292SOL     OW16327   4.272   0.061   2.367
 5292SOL    HW116328   4.189   0.056   2.414
 5292SOL    HW216329   4.258   0.128   2.300
 5293SOL     OW16330   5.129   1.185   1.906
 5293SOL    HW116331   5.128   1.102   1.953
 5293SOL    HW216332   5.044   1.226   1.926
 5294SOL     OW16333   4.026   0.069   2.058
 5294SOL    HW116334   4.084   0.142   2.039
 5294SOL    HW216335   4.080   5.291   2.047
 5295SOL     OW16336   4.661   0.273   2.322
 5295SOL    HW116337   4.632   0.304   2.236
 5295SOL    HW216338   4.755   0.289   2.323
 5296SOL     OW16339   4.801   0.686   3.318
 5296SOL    HW116340   4.735   0.617   3.318
 5296SOL    HW216341   4.884   0.640   3.309
 5297SOL     OW16342   4.935   1.571   2.655
 5297SOL    HW116343   4.954   1.640   2.592
 5297SOL    HW216344   5.019   1.552   2.697
 5298SOL     OW16345   4.197   1.154   2.587
 5298SOL    HW116346   4.131   1.133   2.653
 5298SOL    HW216347   4.152   1.142   2.503
 5299SOL     OW16348   4.988   1.794   2.472
 5299SOL    HW116349   5.029   1.855   2.410
 5299SOL    HW216350   4.919   1.846   2.513
 5300SOL     OW16351   4.750   0.543   1.885
 5300SOL    HW116352   4.704   0.625   1.869
 5300SOL    HW216353   4.803   0.560   1.963
 5301SOL     OW16354   3.809   0.552   3.255
 5301SOL    HW116355   3.900   0.553   3.228
 5301SOL    HW216356   3.802   0.622   3.320
 5302SOL     OW16357   4.273   0.238   3.020
 5302SOL    HW116358   4.309   0.156   3.054
 5302SOL    HW216359   4.182   0.238   3.049
 5303SOL     OW16360   4.588   0.470   2.503
 5303SOL    HW116361   4.540   0.524   2.441
 5303SOL    HW216362   4.611   0.391   2.454
 5304SOL     OW16363   4.701   0.064   2.631
 5304SOL    HW116364   4.638   0.064   2.559
 5304SOL    HW216365   4.715   5.272   2.651
 5305SOL     OW16366   5.153   1.178   2.713
 5305SOL    HW116367   5.101   1.100   2.732
 5305SOL    HW216368   5.160   1.179   2.617
 5306SOL     OW16369   4.213   1.422   2.012
 5306SOL    HW116370   4.137   1.393   2.063
 5306SOL    HW216371   4.209   1.370   1.932
 5307SOL     OW16372   5.132   0.552   1.953
 5307SOL    HW116373   5.050   0.544   2.002
 5307SOL    HW216374   5.200   0.535   2.017
 5308SOL     OW16375   4.243   0.266   2.179
 5308SOL    HW116376   4.292   0.220   2.112
 5308SOL    HW216377   4.218   0.350   2.139
 5309SOL     OW16378   4.772   1.356   3.194
 5309SOL    HW116379   4.696   1.323   3.242
 5309SOL    HW216380   4.847   1.311   3.234
 5310SOL     OW16381   0.009   1.612   3.473
 5310SOL    HW116382   0.045   1.610   3.384
 5310SOL    HW216383   0.082   1.585   3.528
 5311SOL     OW16384   4.862   1.213   2.965
 5311SOL    HW116385   4.796   1.244   3.027
 5311SOL    HW216386   4.831   1.242   2.880
 5312SOL     OW16387   4.618   0.108   3.236
 5312SOL    HW116388   4.653   0.073   3.154
 5312SOL    HW216389   4.693   0.152   3.276
 5313SOL     OW16390   4.709   1.111   3.590
 5313SOL    HW116391   4.618   1.130   3.613
 5313SOL    HW216392   4.704   1.035   3.533
 5314SOL     OW16393   4.434   1.063   2.233
 5314SOL    HW116394   4.420   1.042   2.325
 5314SOL    HW216395   4.510   1.010   2.208
 5315SOL     OW16396   4.146   0.821   3.114
 5315SOL    HW116397   4.214   0.829   3.181
 5315SOL    HW216398   4.112   0.732   3.126
 5316SOL     OW16399   4.988   0.383   3.135
 5316SOL    HW116400   5.021   0.461   3.179
 5316SOL    HW216401   4.898   0.405   3.112
 5317SOL     OW16402   3.800   1.574   3.220
 5317SOL    HW116403   3.773   1.646   3.163
 5317SOL    HW216404   3.895   1.571   3.212
 5318SOL     OW16405   4.059   1.120   2.351
 5318SOL    HW116406   4.062   1.193   2.289
 5318SOL    HW216407   4.057   1.042   2.295
 5319SOL     OW16408   4.272   0.530   2.721
 5319SOL    HW116409   4.286   0.589   2.647
 5319SOL    HW216410   4.339   0.555   2.785
 5320SOL     OW16411   4.970   1.353   2.249
 5320SOL    HW116412   5.025   1.425   2.280
 5320SOL    HW216413   4.883   1.372   2.282
 5321SOL     OW16414   5.005   1.458   3.004
 5321SOL    HW116415   5.054   1.459   3.086
 5321SOL    HW216416   4.950   1.380   3.010
 5322SOL     OW16417   4.070   1.530   3.171
 5322SOL    HW116418   4.059   1.485   3.088
 5322SOL    HW216419   4.164   1.542   3.180
 5323SOL     OW16420   4.143   0.745   3.467
 5323SOL    HW116421   4.206   0.788   3.409
 5323SOL    HW216422   4.183   0.660   3.485
 5324SOL     OW16423   4.753   0.133   3.600
 5324SOL    HW116424   4.800   0.215   3.590
 5324SOL    HW216425   4.806   0.068   3.553
 5325SOL     OW16426   4.200   0.065   3.595
 5325SOL    HW116427   4.132   0.001   3.575
 5325SOL    HW216428   4.153   0.145   3.619
 5326SOL     OW16429   4.310   0.875   2.894
 5326SOL    HW116430   4.343   0.964   2.898
 5326SOL    HW216431   4.253   0.868   2.971
 5327SOL     OW16432   5.086   0.854   2.894
 5327SOL    HW116433   5.009   0.822   2.847
 5327SOL    HW216434   5.151   0.785   2.883
 5328SOL     OW16435   4.918   0.530   2.121
 5328SOL    HW116436   4.924   0.451   2.174
 5328SOL    HW216437   4.877   0.595   2.179
 5329SOL     OW16438   4.014   0.200   3.113
 5329SOL    HW116439   3.975   0.239   3.192
 5329SOL    HW216440   4.020   0.107   3.133
 5330SOL     OW16441   3.769   1.312   3.135
 5330SOL    HW116442   3.801   1.256   3.206
 5330SOL    HW216443   3.775   1.401   3.171
 5331SOL     OW16444   4.445   0.630   2.915
 5331SOL    HW116445   4.521   0.617   2.859
 5331SOL    HW216446   4.416   0.719   2.896
 5332SOL     OW16447   4.050   0.069   2.536
 5332SOL    HW116448   4.011   0.157   2.531
 5332SOL    HW216449   4.111   0.075   2.610
 5333SOL     OW16450   0.031   0.428   2.221
 5333SOL    HW116451   0.043   0.357   2.285
 5333SOL    HW216452   0.033   0.508   2.274
 5334SOL     OW16453   4.752   0.760   2.818
 5334SOL    HW116454   4.745   0.776   2.912
 5334SOL    HW216455   4.725   0.668   2.807
 5335SOL     OW16456   4.694   1.562   3.580
 5335SOL    HW116457   4.682   1.608   3.497
 5335SOL    HW216458   4.740   1.482   3.557
 5336SOL     OW16459   4.076   0.918   3.671
 5336SOL    HW116460   4.156   0.936   3.720
 5336SOL    HW216461   4.102   0.854   3.605
 5337SOL     OW16462   5.030   0.827   1.898
 5337SOL    HW116463   5.065   0.738   1.901
 5337SOL    HW216464   5.059   0.861   1.814
 5338SOL     OW16465   4.791   1.336   2.721
 5338SOL    HW116466   4.798   1.265   2.657
 5338SOL    HW216467   4.844   1.407   2.683
 5339SOL     OW16468   4.033   0.809   2.808
 5339SOL    HW116469   4.126   0.828   2.801
 5339SOL    HW216470   4.029   0.718   2.838
 5340SOL     OW16471   4.051   0.530   2.874
 5340SOL    HW116472   4.014   0.443   2.862
 5340SOL    HW216473   4.128   0.532   2.818
 5341SOL     OW16474   4.863   0.381   3.554
 5341SOL    HW116475   4.813   0.434   3.616
 5341SOL    HW216476   4.948   0.425   3.547
 5342SOL     OW16477   4.839   0.236   3.320
 5342SOL    HW116478   4.849   0.286   3.401
 5342SOL    HW216479   4.903   0.274   3.259
 5343SOL     OW16480   3.732   1.316   2.055
 5343SOL    HW116481   3.645   1.333   2.020
 5343SOL    HW216482   3.727   1.227   2.091
 5344SOL     OW16483   3.813   1.781   2.804
 5344SOL    HW116484   3.783   1.704   2.756
 5344SOL    HW216485   3.902   1.796   2.772
 5345SOL     OW16486   4.215   1.575   2.766
 5345SOL    HW116487   4.284   1.636   2.790
 5345SOL    HW216488   4.258   1.512   2.708
 5346SOL     OW16489   4.694   0.789   3.084
 5346SOL    HW116490   4.753   0.770   3.157
 5346SOL    HW216491   4.613   0.744   3.107
 5347SOL     OW16492   3.760   0.550   2.979
 5347SOL    HW116493   3.838   0.537   2.926
 5347SOL    HW216494   3.791   0.550   3.069
 5348SOL     OW16495   3.905   0.529   3.596
 5348SOL    HW116496   3.972   0.488   3.542
 5348SOL    HW216497   3.875   0.604   3.545
 5349SOL     OW16498   5.123   0.929   3.528
 5349SOL    HW116499   5.127   1.024   3.514
 5349SOL    HW216500   5.127   0.892   3.439
 5350SOL     OW16501   4.539   0.577   2.230
 5350SOL    HW116502   4.546   0.503   2.170
 5350SOL    HW216503   4.463   0.626   2.199
 5351SOL     OW16504   3.961   1.548   3.584
 5351SOL    HW116505   3.940   1.613   3.651
 5351SOL    HW216506   3.969   1.465   3.632
 5352SOL     OW16507   4.438   0.445   3.113
 5352SOL    HW116508   4.379   0.374   3.086
 5352SOL    HW216509   4.430   0.509   3.043
 5353SOL     OW16510   4.638   1.678   3.332
 5353SOL    HW116511   4.616   1.641   3.247
 5353SOL    HW216512   4.637   1.773   3.319
 5354SOL     OW16513   4.178   0.491   2.035
 5354SOL    HW116514   4.241   0.559   2.061
 5354SOL    HW216515   4.094   0.537   2.030
 5355SOL     OW16516   3.864   1.144   3.336
 5355SOL    HW116517   3.867   1.097   3.420
 5355SOL    HW216518   3.881   1.076   3.271
 5356SOL     OW16519   5.050   1.044   3.083
 5356SOL    HW116520   5.069   0.978   3.016
 5356SOL    HW216521   4.984   1.100   3.043
 5357SOL     OW16522   5.044   0.860   2.178
 5357SOL    HW116523   4.963   0.829   2.218
 5357SOL    HW216524   5.029   0.853   2.084
 5358SOL     OW16525   4.956   1.731   2.978
 5358SOL    HW116526   5.043   1.757   2.946
 5358SOL    HW216527   4.963   1.636   2.990
 5359SOL     OW16528   3.812   1.265   2.871
 5359SOL    HW116529   3.793   1.280   2.964
 5359SOL    HW216530   3.741   1.209   2.841
 5360SOL     OW16531   4.403   1.671   3.603
 5360SOL    HW116532   4.346   1.747   3.591
 5360SOL    HW216533   4.476   1.687   3.544
 5361SOL     OW16534   5.112   1.573   2.352
 5361SOL    HW116535   5.180   1.618   2.302
 5361SOL    HW216536   5.056   1.643   2.385
 5362SOL     OW16537   3.866   1.794   3.704
 5362SOL    HW116538   3.816   1.728   3.751
 5362SOL    HW216539   3.912   1.842   3.773
 5363SOL     OW16540   5.020   0.922   2.528
 5363SOL    HW116541   5.100   0.870   2.522
 5363SOL    HW216542   5.041   1.004   2.482
 5364SOL     OW16543   4.525   1.277   3.285
 5364SOL    HW116544   4.497   1.319   3.367
 5364SOL    HW216545   4.454   1.296   3.224
 5365SOL     OW16546   4.391   1.627   2.018
 5365SOL    HW116547   4.404   1.641   1.924
 5365SOL    HW216548   4.335   1.549   2.022
 5366SOL     OW16549   3.978   0.329   2.577
 5366SOL    HW116550   3.890   0.361   2.557
 5366SOL    HW216551   3.979   0.320   2.672
 5367SOL     OW16552   4.903   1.606   1.907
 5367SOL    HW116553   4.914   1.512   1.918
 5367SOL    HW216554   4.845   1.615   1.832
 5368SOL     OW16555   4.546   1.007   3.239
 5368SOL    HW116556   4.589   0.999   3.154
 5368SOL    HW216557   4.542   1.102   3.254
 5369SOL     OW16558   4.643   0.913   2.153
 5369SOL    HW116559   4.705   0.944   2.087
 5369SOL    HW216560   4.690   0.843   2.199
 5370SOL     OW16561   4.091   1.305   3.355
 5370SOL    HW116562   4.079   1.381   3.298
 5370SOL    HW216563   4.014   1.251   3.339
 5371SOL     OW16564   4.786   1.110   2.572
 5371SOL    HW116565   4.714   1.061   2.611
 5371SOL    HW216566   4.846   1.042   2.540
 5372SOL     OW16567   4.730   0.246   2.838
 5372SOL    HW116568   4.713   0.201   2.756
 5372SOL    HW216569   4.726   0.177   2.905
 5373SOL     OW16570   4.329   1.488   2.342
 5373SOL    HW116571   4.379   1.438   2.278
 5373SOL    HW216572   4.254   1.521   2.294
 5374SOL     OW16573   3.988   1.342   2.155
 5374SOL    HW116574   3.895   1.337   2.130
 5374SOL    HW216575   3.987   1.382   2.242
 5375SOL     OW16576   3.839   1.036   3.588
 5375SOL    HW116577   3.763   1.007   3.638
 5375SOL    HW216578   3.913   0.991   3.630
 5376SOL     OW16579   4.398   0.221   3.360
 5376SOL    HW116580   4.478   0.198   3.313
 5376SOL    HW216581   4.429   0.265   3.440
 5377SOL     OW16582   3.803   0.334   1.905
 5377SOL    HW116583   3.720   0.300   1.873
 5377SOL    HW216584   3.821   0.410   1.850
 5378SOL     OW16585   5.167   0.859   3.263
 5378SOL    HW116586   5.115   0.917   3.207
 5378SOL    HW216587   5.256   0.865   3.227
 5379SOL     OW16588   3.792   0.167   2.171
 5379SOL    HW116589   3.798   0.249   2.121
 5379SOL    HW216590   3.876   0.124   2.156
 5380SOL     OW16591   4.900   1.326   1.976
 5380SOL    HW116592   4.807   1.306   1.976
 5380SOL    HW216593   4.924   1.332   2.068
 5381SOL     OW16594   4.345   0.831   3.298
 5381SOL    HW116595   4.402   0.906   3.283
 5381SOL    HW216596   4.404   0.756   3.303
 5382SOL     OW16597   4.440   0.568   3.560
 5382SOL    HW116598   4.485   0.628   3.619
 5382SOL    HW216599   4.463   0.481   3.593
 5383SOL     OW16600   5.175   1.198   3.492
 5383SOL    HW116601   5.165   1.214   3.586
 5383SOL    HW216602   5.267   1.217   3.474
 5384SOL     OW16603   4.093   1.741   3.428
 5384SOL    HW116604   4.011   1.787   3.413
 5384SOL    HW216605   4.067   1.658   3.469
 5385SOL     OW16606   4.935   0.326   2.319
 5385SOL    HW116607   4.986   0.245   2.313
 5385SOL    HW216608   4.968   0.370   2.397
 5386SOL     OW16609   4.310   0.734   2.536
 5386SOL    HW116610   4.350   0.819   2.521
 5386SOL    HW216611   4.246   0.725   2.466
 5387SOL     OW16612   4.595   1.364   1.909
 5387SOL    HW116613   4.553   1.393   1.989
 5387SOL    HW216614   4.605   1.444   1.857
 5388SOL     OW16615   4.388   1.782   2.798
 5388SOL    HW116616   4.369   1.875   2.781
 5388SOL    HW216617   4.483   1.776   2.793
 5389SOL     OW16618   4.595   0.973   2.716
 5389SOL    HW116619   4.643   0.899   2.752
 5389SOL    HW216620   4.554   1.014   2.792
 5390SOL     OW16621   4.810   0.987   1.953
 5390SOL    HW116622   4.784   1.036   1.875
 5390SOL    HW216623   4.883   0.932   1.924
 5391SOL     OW16624   3.949   1.297   3.714
 5391SOL    HW116625   3.891   1.230   3.679
 5391SOL    HW216626   3.920   1.310   3.804
 5392SOL     OW16627   3.815   1.229   2.527
 5392SOL    HW116628   3.827   1.184   2.611
 5392SOL    HW216629   3.881   1.191   2.469
 5393SOL     OW16630   4.410   1.407   3.496
 5393SOL    HW116631   4.330   1.366   3.529
 5393SOL    HW216632   4.408   1.496   3.531
 5394SOL     OW16633   4.154   0.436   2.388
 5394SOL    HW116634   4.187   0.364   2.336
 5394SOL    HW216635   4.103   0.394   2.457
 5395SOL     OW16636   0.090   1.511   2.961
 5395SOL    HW116637   0.022   1.497   2.895
 5395SOL    HW216638   0.082   1.437   3.020
 5396SOL     OW16639   4.059   0.563   3.153
 5396SOL    HW116640   4.112   0.505   3.207
 5396SOL    HW216641   4.076   0.534   3.063
 5397SOL     OW16642   4.557   1.578   2.536
 5397SOL    HW116643   4.536   1.643   2.469
 5397SOL    HW216644   4.481   1.520   2.537
 5398SOL     OW16645   5.139   0.211   2.986
 5398SOL    HW116646   5.149   0.131   3.038
 5398SOL    HW216647   5.095   0.273   3.045
 5399SOL     OW16648   4.718   0.015   2.992
 5399SOL    HW116649   4.666   5.249   2.947
 5399SOL    HW216650   4.805   5.275   3.002
 5400SOL     OW16651   4.497   1.333   2.184
 5400SOL    HW116652   4.470   1.242   2.192
 5400SOL    HW216653   4.579   1.339   2.233
 5401SOL     OW16654   4.343   1.557   3.150
 5401SOL    HW116655   4.343   1.640   3.197
 5401SOL    HW216656   4.431   1.550   3.113
 5402SOL     OW16657   5.033   0.024   2.010
 5402SOL    HW116658   5.117   0.019   1.966
 5402SOL    HW216659   4.986   5.246   1.982
 5403SOL     OW16660   5.025   0.461   2.544
 5403SOL    HW116661   4.971   0.540   2.547
 5403SOL    HW216662   5.010   0.417   2.628
 5404SOL     OW16663   5.292   0.213   2.756
 5404SOL    HW116664   5.235   0.208   2.833
 5404SOL    HW216665   5.260   0.290   2.708
 5405SOL     OW16666   3.766   1.064   2.171
 5405SOL    HW116667   3.860   1.056   2.152
 5405SOL    HW216668   3.738   0.976   2.192
 5406SOL     OW16669   4.602   1.656   2.206
 5406SOL    HW116670   4.529   1.643   2.146
 5406SOL    HW216671   4.577   1.731   2.260
 5407SOL     OW16672   3.943   0.628   3.855
 5407SOL    HW116673   3.855   0.619   3.893
 5407SOL    HW216674   3.931   0.604   3.763
 5408SOL     OW16675   3.937   0.288   4.719
 5408SOL    HW116676   3.966   0.250   4.802
 5408SOL    HW216677   3.857   0.240   4.697
 5409SOL     OW16678   3.721   0.395   4.360
 5409SOL    HW116679   3.637   0.415   4.402
 5409SOL    HW216680   3.703   0.319   4.305
 5410SOL     OW16681   4.293   1.299   4.910
 5410SOL    HW116682   4.207   1.304   4.867
 5410SOL    HW216683   4.309   1.388   4.941
 5411SOL     OW16684   5.295   1.527   4.427
 5411SOL    HW116685   5.251   1.495   4.506
 5411SOL    HW216686   5.226   1.531   4.361
 5412SOL     OW16687   4.866   0.698   4.420
 5412SOL    HW116688   4.915   0.780   4.410
 5412SOL    HW216689   4.815   0.711   4.499
 5413SOL     OW16690   4.468   1.137   4.773
 5413SOL    HW116691   4.402   1.175   4.831
 5413SOL    HW216692   4.507   1.212   4.728
 5414SOL     OW16693   4.599   0.766   5.550
 5414SOL    HW116694   4.581   0.837   5.612
 5414SOL    HW216695   4.620   0.811   5.468
 5415SOL     OW16696   4.410   0.996   4.368
 5415SOL    HW116697   4.476   0.989   4.437
 5415SOL    HW216698   4.341   1.051   4.405
 5416SOL     OW16699   4.439   1.150   5.545
 5416SOL    HW116700   4.487   1.227   5.576
 5416SOL    HW216701   4.360   1.185   5.505
 5417SOL     OW16702   4.056   1.416   4.791
 5417SOL    HW116703   3.981   1.376   4.745
 5417SOL    HW216704   4.100   1.468   4.724
 5418SOL     OW16705   5.157   1.482   5.089
 5418SOL    HW116706   5.222   1.549   5.111
 5418SOL    HW216707   5.088   1.493   5.154
 5419SOL     OW16708   4.173   0.394   5.196
 5419SOL    HW116709   4.249   0.336   5.205
 5419SOL    HW216710   4.098   0.340   5.220
 5420SOL     OW16711   3.944   1.716   4.192
 5420SOL    HW116712   3.965   1.791   4.248
 5420SOL    HW216713   4.018   1.709   4.133
 5421SOL     OW16714   4.857   1.342   5.420
 5421SOL    HW116715   4.894   1.336   5.508
 5421SOL    HW216716   4.807   1.261   5.410
 5422SOL     OW16717   3.957   1.446   4.261
 5422SOL    HW116718   3.938   1.539   4.261
 5422SOL    HW216719   3.899   1.409   4.327
 5423SOL     OW16720   3.992   1.091   4.615
 5423SOL    HW116721   3.988   1.003   4.652
 5423SOL    HW216722   3.934   1.143   4.671
 5424SOL     OW16723   4.321   1.795   5.146
 5424SOL    HW116724   4.242   1.777   5.197
 5424SOL    HW216725   4.348   1.882   5.176
 5425SOL     OW16726   4.301   0.985   3.865
 5425SOL    HW116727   4.350   1.030   3.796
 5425SOL    HW216728   4.340   1.016   3.946
 5426SOL     OW16729   5.255   0.133   5.211
 5426SOL    HW116730   0.015   0.207   5.200
 5426SOL    HW216731   5.258   0.114   5.305
 5427SOL     OW16732   3.842   0.658   4.285
 5427SOL    HW116733   3.813   0.569   4.306
 5427SOL    HW216734   3.835   0.706   4.367
 5428SOL     OW16735   3.763   1.589   3.844
 5428SOL    HW116736   3.745   1.497   3.865
 5428SOL    HW216737   3.737   1.637   3.923
 5429SOL     OW16738   0.117   0.935   4.301
 5429SOL    HW116739   0.210   0.918   4.286
 5429SOL    HW216740   0.110   1.031   4.305
 5430SOL     OW16741   3.848   0.747   5.304
 5430SOL    HW116742   3.938   0.779   5.308
 5430SOL    HW216743   3.795   0.827   5.306
 5431SOL     OW16744   4.340   1.391   4.459
 5431SOL    HW116745   4.296   1.307   4.467
 5431SOL    HW216746   4.324   1.419   4.369
 5432SOL     OW16747   4.992   1.227   5.147
 5432SOL    HW116748   5.028   1.161   5.087
 5432SOL    HW216749   5.051   1.225   5.222
 5433SOL     OW16750   4.543   0.039   4.262
 5433SOL    HW116751   4.571   0.126   4.232
 5433SOL    HW216752   4.447   0.040   4.252
 5434SOL     OW16753   3.911   0.961   5.004
 5434SOL    HW116754   3.998   0.922   4.990
 5434SOL    HW216755   3.854   0.913   4.945
 5435SOL     OW16756   4.891   1.812   5.352
 5435SOL    HW116757   4.907   1.875   5.281
 5435SOL    HW216758   4.917   1.728   5.316
 5436SOL     OW16759   4.062   0.280   5.547
 5436SOL    HW116760   4.111   0.349   5.593
 5436SOL    HW216761   3.974   0.286   5.584
 5437SOL     OW16762   5.163   1.441   4.650
 5437SOL    HW116763   5.105   1.448   4.727
 5437SOL    HW216764   5.158   1.349   4.625
 5438SOL     OW16765   4.315   0.716   3.994
 5438SOL    HW116766   4.317   0.801   3.949
 5438SOL    HW216767   4.250   0.727   4.063
 5439SOL     OW16768   4.991   0.325   4.638
 5439SOL    HW116769   4.900   0.305   4.662
 5439SOL    HW216770   5.043   0.295   4.713
 5440SOL     OW16771   4.516   0.618   5.168
 5440SOL    HW116772   4.489   0.594   5.256
 5440SOL    HW216773   4.481   0.548   5.112
 5441SOL     OW16774   5.116   0.494   5.408
 5441SOL    HW116775   5.122   0.523   5.499
 5441SOL    HW216776   5.192   0.437   5.396
 5442SOL     OW16777   4.672   0.885   5.311
 5442SOL    HW116778   4.726   0.816   5.272
 5442SOL    HW216779   4.623   0.922   5.238
 5443SOL     OW16780   4.719   0.422   4.945
 5443SOL    HW116781   4.630   0.431   4.978
 5443SOL    HW216782   4.710   0.369   4.865
 5444SOL     OW16783   4.778   0.700   4.149
 5444SOL    HW116784   4.797   0.693   4.242
 5444SOL    HW216785   4.693   0.656   4.138
 5445SOL     OW16786   3.812   0.822   4.502
 5445SOL    HW116787   3.892   0.815   4.554
 5445SOL    HW216788   3.768   0.899   4.539
 5446SOL     OW16789   3.847   1.873   5.308
 5446SOL    HW116790   3.852   1.850   5.401
 5446SOL    HW216791   3.765   1.835   5.278
 5447SOL     OW16792   4.612   0.368   3.919
 5447SOL    HW116793   4.639   0.422   3.845
 5447SOL    HW216794   4.667   0.290   3.913
 5448SOL     OW16795   5.101   1.157   4.280
 5448SOL    HW116796   5.191   1.171   4.251
 5448SOL    HW216797   5.048   1.209   4.220
 5449SOL     OW16798   4.236   0.205   4.600
 5449SOL    HW116799   4.259   0.217   4.693
 5449SOL    HW216800   4.259   0.288   4.559
 5450SOL     OW16801   4.723   1.443   4.192
 5450SOL    HW116802   4.689   1.517   4.142
 5450SOL    HW216803   4.699   1.462   4.283
 5451SOL     OW16804   4.078   1.815   4.596
 5451SOL    HW116805   4.123   1.731   4.602
 5451SOL    HW216806   4.146   1.880   4.614
 5452SOL     OW16807   4.935   1.538   5.239
 5452SOL    HW116808   4.924   1.467   5.303
 5452SOL    HW216809   4.866   1.523   5.175
 5453SOL     OW16810   4.036   0.960   3.979
 5453SOL    HW116811   4.118   0.979   3.934
 5453SOL    HW216812   4.008   0.876   3.942
 5454SOL     OW16813   4.195   1.269   5.463
 5454SOL    HW116814   4.169   1.273   5.371
 5454SOL    HW216815   4.112   1.264   5.511
 5455SOL     OW16816   4.829   1.774   3.964
 5455SOL    HW116817   4.754   1.733   4.006
 5455SOL    HW216818   4.854   1.713   3.894
 5456SOL     OW16819   3.922   0.276   5.235
 5456SOL    HW116820   3.843   0.330   5.240
 5456SOL    HW216821   3.921   0.223   5.314
 5457SOL     OW16822   4.186   1.736   4.043
 5457SOL    HW116823   4.232   1.792   4.106
 5457SOL    HW216824   4.256   1.702   3.987
 5458SOL     OW16825   5.084   0.094   4.136
 5458SOL    HW116826   5.075   0.078   4.042
 5458SOL    HW216827   5.177   0.115   4.148
 5459SOL     OW16828   3.980   1.789   4.951
 5459SOL    HW116829   4.030   1.718   4.992
 5459SOL    HW216830   3.972   1.764   4.859
 5460SOL     OW16831   4.665   1.699   4.619
 5460SOL    HW116832   4.747   1.653   4.636
 5460SOL    HW216833   4.623   1.648   4.549
 5461SOL     OW16834   4.120   0.696   4.196
 5461SOL    HW116835   4.138   0.603   4.210
 5461SOL    HW216836   4.027   0.705   4.213
 5462SOL     OW16837   4.349   0.135   3.829
 5462SOL    HW116838   4.409   0.066   3.856
 5462SOL    HW216839   4.296   0.096   3.760
 5463SOL     OW16840   4.507   0.303   5.490
 5463SOL    HW116841   4.584   0.247   5.492
 5463SOL    HW216842   4.457   0.279   5.569
 5464SOL     OW16843   4.597   1.525   4.918
 5464SOL    HW116844   4.581   1.487   4.832
 5464SOL    HW216845   4.667   1.471   4.956
 5465SOL     OW16846   5.059   0.596   5.156
 5465SOL    HW116847   5.086   0.569   5.243
 5465SOL    HW216848   5.100   0.681   5.143
 5466SOL     OW16849   4.541   1.388   4.672
 5466SOL    HW116850   4.626   1.376   4.629
 5466SOL    HW216851   4.479   1.396   4.599
 5467SOL     OW16852   4.652   0.513   4.625
 5467SOL    HW116853   4.627   0.503   4.533
 5467SOL    HW216854   4.677   0.425   4.652
 5468SOL     OW16855   4.272   0.061   4.229
 5468SOL    HW116856   4.189   0.056   4.276
 5468SOL    HW216857   4.258   0.128   4.162
 5469SOL     OW16858   5.129   1.185   3.768
 5469SOL    HW116859   5.128   1.102   3.815
 5469SOL    HW216860   5.044   1.225   3.788
 5470SOL     OW16861   4.026   0.069   3.920
 5470SOL    HW116862   4.084   0.142   3.901
 5470SOL    HW216863   4.080   5.291   3.909
 5471SOL     OW16864   4.661   0.273   4.184
 5471SOL    HW116865   4.632   0.305   4.098
 5471SOL    HW216866   4.755   0.289   4.185
 5472SOL     OW16867   4.801   0.686   5.180
 5472SOL    HW116868   4.735   0.617   5.180
 5472SOL    HW216869   4.884   0.640   5.171
 5473SOL     OW16870   4.934   1.571   4.517
 5473SOL    HW116871   4.954   1.640   4.454
 5473SOL    HW216872   5.019   1.552   4.559
 5474SOL     OW16873   4.197   1.154   4.449
 5474SOL    HW116874   4.131   1.133   4.515
 5474SOL    HW216875   4.152   1.142   4.365
 5475SOL     OW16876   4.988   1.794   4.334
 5475SOL    HW116877   5.029   1.855   4.272
 5475SOL    HW216878   4.919   1.846   4.375
 5476SOL     OW16879   4.750   0.542   3.746
 5476SOL    HW116880   4.704   0.625   3.730
 5476SOL    HW216881   4.803   0.560   3.825
 5477SOL     OW16882   3.809   0.552   5.117
 5477SOL    HW116883   3.900   0.553   5.090
 5477SOL    HW216884   3.802   0.622   5.182
 5478SOL     OW16885   4.273   0.238   4.882
 5478SOL    HW116886   4.309   0.156   4.916
 5478SOL    HW216887   4.182   0.238   4.911
 5479SOL     OW16888   4.588   0.470   4.365
 5479SOL    HW116889   4.540   0.524   4.303
 5479SOL    HW216890   4.611   0.391   4.316
 5480SOL     OW16891   4.701   0.064   4.493
 5480SOL    HW116892   4.638   0.064   4.421
 5480SOL    HW216893   4.715   5.272   4.513
 5481SOL     OW16894   5.153   1.178   4.575
 5481SOL    HW116895   5.101   1.100   4.594
 5481SOL    HW216896   5.160   1.179   4.479
 5482SOL     OW16897   4.213   1.422   3.874
 5482SOL    HW116898   4.137   1.393   3.926
 5482SOL    HW216899   4.208   1.370   3.794
 5483SOL     OW16900   5.132   0.552   3.815
 5483SOL    HW116901   5.050   0.544   3.864
 5483SOL    HW216902   5.200   0.536   3.880
 5484SOL     OW16903   4.243   0.267   4.041
 5484SOL    HW116904   4.292   0.220   3.974
 5484SOL    HW216905   4.219   0.350   4.001
 5485SOL     OW16906   4.772   1.356   5.057
 5485SOL    HW116907   4.696   1.323   5.104
 5485SOL    HW216908   4.847   1.311   5.096
 5486SOL     OW16909   0.009   1.613   5.335
 5486SOL    HW116910   0.045   1.610   5.246
 5486SOL    HW216911   0.082   1.585   5.390
 5487SOL     OW16912   4.862   1.213   4.827
 5487SOL    HW116913   4.796   1.244   4.889
 5487SOL    HW216914   4.831   1.242   4.742
 5488SOL     OW16915   4.618   0.108   5.098
 5488SOL    HW116916   4.653   0.073   5.016
 5488SOL    HW216917   4.693   0.152   5.138
 5489SOL     OW16918   4.709   1.111   5.452
 5489SOL    HW116919   4.618   1.130   5.475
 5489SOL    HW216920   4.704   1.035   5.395
 5490SOL     OW16921   4.434   1.063   4.095
 5490SOL    HW116922   4.420   1.042   4.187
 5490SOL    HW216923   4.510   1.010   4.070
 5491SOL     OW16924   4.146   0.821   4.976
 5491SOL    HW116925   4.214   0.829   5.043
 5491SOL    HW216926   4.112   0.732   4.988
 5492SOL     OW16927   4.988   0.383   4.997
 5492SOL    HW116928   5.021   0.461   5.041
 5492SOL    HW216929   4.898   0.405   4.974
 5493SOL     OW16930   3.800   1.574   5.082
 5493SOL    HW116931   3.772   1.645   5.024
 5493SOL    HW216932   3.895   1.572   5.073
 5494SOL     OW16933   4.059   1.120   4.213
 5494SOL    HW116934   4.062   1.194   4.151
 5494SOL    HW216935   4.057   1.042   4.157
 5495SOL     OW16936   4.272   0.530   4.583
 5495SOL    HW116937   4.286   0.589   4.509
 5495SOL    HW216938   4.339   0.555   4.647
 5496SOL     OW16939   4.970   1.353   4.111
 5496SOL    HW116940   5.025   1.425   4.142
 5496SOL    HW216941   4.883   1.372   4.144
 5497SOL     OW16942   5.005   1.458   4.866
 5497SOL    HW116943   5.054   1.459   4.948
 5497SOL    HW216944   4.950   1.380   4.872
 5498SOL     OW16945   4.069   1.531   5.033
 5498SOL    HW116946   4.059   1.485   4.949
 5498SOL    HW216947   4.164   1.542   5.042
 5499SOL     OW16948   4.143   0.745   5.329
 5499SOL    HW116949   4.206   0.788   5.271
 5499SOL    HW216950   4.183   0.660   5.347
 5500SOL     OW16951   4.753   0.132   5.462
 5500SOL    HW116952   4.800   0.215   5.452
 5500SOL    HW216953   4.806   0.068   5.415
 5501SOL     OW16954   4.200   0.065   5.457
 5501SOL    HW116955   4.132   0.001   5.437
 5501SOL    HW216956   4.153   0.145   5.481
 5502SOL     OW16957   4.310   0.875   4.756
 5502SOL    HW116958   4.343   0.964   4.760
 5502SOL    HW216959   4.252   0.868   4.833
 5503SOL     OW16960   5.086   0.854   4.756
 5503SOL    HW116961   5.009   0.822   4.709
 5503SOL    HW216962   5.151   0.785   4.745
 5504SOL     OW16963   4.918   0.530   3.983
 5504SOL    HW116964   4.923   0.451   4.036
 5504SOL    HW216965   4.877   0.595   4.041
 5505SOL     OW16966   4.014   0.200   4.975
 5505SOL    HW116967   3.975   0.239   5.054
 5505SOL    HW216968   4.020   0.107   4.995
 5506SOL     OW16969   3.770   1.312   4.997
 5506SOL    HW116970   3.802   1.256   5.068
 5506SOL    HW216971   3.775   1.401   5.033
 5507SOL     OW16972   4.445   0.630   4.777
 5507SOL    HW116973   4.521   0.617   4.721
 5507SOL    HW216974   4.416   0.719   4.758
 5508SOL     OW16975   4.050   0.069   4.398
 5508SOL    HW116976   4.011   0.157   4.393
 5508SOL    HW216977   4.111   0.075   4.472
 5509SOL     OW16978   0.031   0.428   4.083
 5509SOL    HW116979   0.043   0.357   4.147
 5509SOL    HW216980   0.034   0.508   4.136
 5510SOL     OW16981   4.752   0.760   4.680
 5510SOL    HW116982   4.745   0.776   4.774
 5510SOL    HW216983   4.725   0.668   4.669
 5511SOL     OW16984   4.694   1.562   5.442
 5511SOL    HW116985   4.682   1.608   5.359
 5511SOL    HW216986   4.740   1.482   5.419
 5512SOL     OW16987   4.076   0.918   5.533
 5512SOL    HW116988   4.156   0.936   5.582
 5512SOL    HW216989   4.102   0.854   5.467
 5513SOL     OW16990   5.030   0.827   3.760
 5513SOL    HW116991   5.065   0.738   3.763
 5513SOL    HW216992   5.059   0.861   3.676
 5514SOL     OW16993   4.791   1.336   4.583
 5514SOL    HW116994   4.798   1.265   4.519
 5514SOL    HW216995   4.844   1.407   4.545
 5515SOL     OW16996   4.032   0.809   4.670
 5515SOL    HW116997   4.126   0.828   4.663
 5515SOL    HW216998   4.029   0.718   4.700
 5516SOL     OW16999   4.051   0.530   4.736
 5516SOL    HW117000   4.014   0.443   4.724
 5516SOL    HW217001   4.128   0.532   4.680
 5517SOL     OW17002   4.863   0.381   5.416
 5517SOL    HW117003   4.813   0.434   5.478
 5517SOL    HW217004   4.948   0.425   5.409
 5518SOL     OW17005   4.839   0.236   5.182
 5518SOL    HW117006   4.849   0.286   5.263
 5518SOL    HW217007   4.903   0.275   5.122
 5519SOL     OW17008   3.733   1.316   3.918
 5519SOL    HW117009   3.645   1.332   3.882
 5519SOL    HW217010   3.728   1.227   3.953
 5520SOL     OW17011   3.814   1.781   4.666
 5520SOL    HW117012   3.784   1.704   4.619
 5520SOL    HW217013   3.903   1.796   4.634
 5521SOL     OW17014   4.215   1.575   4.628
 5521SOL    HW117015   4.284   1.636   4.652
 5521SOL    HW217016   4.258   1.512   4.570
 5522SOL     OW17017   4.694   0.789   4.946
 5522SOL    HW117018   4.753   0.770   5.019
 5522SOL    HW217019   4.613   0.744   4.969
 5523SOL     OW17020   3.760   0.550   4.841
 5523SOL    HW117021   3.838   0.537   4.788
 5523SOL    HW217022   3.791   0.550   4.931
 5524SOL     OW17023   3.905   0.529   5.458
 5524SOL    HW117024   3.972   0.489   5.403
 5524SOL    HW217025   3.874   0.604   5.407
 5525SOL     OW17026   5.123   0.930   5.390
 5525SOL    HW117027   5.127   1.024   5.376
 5525SOL    HW217028   5.127   0.893   5.301
 5526SOL     OW17029   4.539   0.577   4.092
 5526SOL    HW117030   4.546   0.503   4.032
 5526SOL    HW217031   4.463   0.626   4.061
 5527SOL     OW17032   3.960   1.548   5.447
 5527SOL    HW117033   3.940   1.611   5.515
 5527SOL    HW217034   3.969   1.464   5.493
 5528SOL     OW17035   4.438   0.445   4.975
 5528SOL    HW117036   4.379   0.374   4.948
 5528SOL    HW217037   4.430   0.509   4.905
 5529SOL     OW17038   4.638   1.678   5.195
 5529SOL    HW117039   4.616   1.641   5.109
 5529SOL    HW217040   4.637   1.773   5.181
 5530SOL     OW17041   4.178   0.491   3.897
 5530SOL    HW117042   4.241   0.559   3.923
 5530SOL    HW217043   4.094   0.537   3.892
 5531SOL     OW17044   3.864   1.144   5.198
 5531SOL    HW117045   3.867   1.097   5.282
 5531SOL    HW217046   3.882   1.076   5.133
 5532SOL     OW17047   5.050   1.044   4.945
 5532SOL    HW117048   5.069   0.978   4.878
 5532SOL    HW217049   4.984   1.100   4.905
 5533SOL     OW17050   5.044   0.860   4.040
 5533SOL    HW117051   4.962   0.829   4.080
 5533SOL    HW217052   5.029   0.853   3.946
 5534SOL     OW17053   4.956   1.731   4.840
 5534SOL    HW117054   5.043   1.757   4.808
 5534SOL    HW217055   4.963   1.636   4.852
 5535SOL     OW17056   3.812   1.265   4.733
 5535SOL    HW117057   3.793   1.280   4.826
 5535SOL    HW217058   3.740   1.209   4.703
 5536SOL     OW17059   4.403   1.671   5.465
 5536SOL    HW117060   4.346   1.747   5.453
 5536SOL    HW217061   4.477   1.687   5.406
 5537SOL     OW17062   5.112   1.573   4.215
 5537SOL    HW117063   5.180   1.618   4.164
 5537SOL    HW217064   5.056   1.643   4.247
 5538SOL     OW17065   3.864   1.797   5.567
 5538SOL    HW117066   3.814   1.729   5.613
 5538SOL    HW217067   3.911   1.843   5.636
 5539SOL     OW17068   5.020   0.922   4.390
 5539SOL    HW117069   5.101   0.870   4.384
 5539SOL    HW217070   5.041   1.004   4.344
 5540SOL     OW17071   4.525   1.277   5.147
 5540SOL    HW117072   4.497   1.318   5.229
 5540SOL    HW217073   4.454   1.296   5.086
 5541SOL     OW17074   4.391   1.627   3.880
 5541SOL    HW117075   4.404   1.641   3.786
 5541SOL    HW217076   4.335   1.549   3.884
 5542SOL     OW17077   3.978   0.329   4.439
 5542SOL    HW117078   3.890   0.361   4.419
 5542SOL    HW217079   3.979   0.320   4.534
 5543SOL     OW17080   4.903   1.606   3.769
 5543SOL    HW117081   4.914   1.512   3.780
 5543SOL    HW217082   4.845   1.615   3.694
 5544SOL     OW17083   4.546   1.007   5.101
 5544SOL    HW117084   4.589   0.998   5.016
 5544SOL    HW217085   4.542   1.102   5.116
 5545SOL     OW17086   4.643   0.913   4.015
 5545SOL    HW117087   4.704   0.944   3.949
 5545SOL    HW217088   4.690   0.843   4.061
 5546SOL     OW17089   4.091   1.306   5.217
 5546SOL    HW117090   4.079   1.381   5.160
 5546SOL    HW217091   4.014   1.251   5.202
 5547SOL     OW17092   4.786   1.110   4.434
 5547SOL    HW117093   4.714   1.061   4.473
 5547SOL    HW217094   4.846   1.042   4.402
 5548SOL     OW17095   4.730   0.246   4.700
 5548SOL    HW117096   4.713   0.201   4.618
 5548SOL    HW217097   4.726   0.177   4.767
 5549SOL     OW17098   4.329   1.488   4.205
 5549SOL    HW117099   4.379   1.438   4.140
 5549SOL    HW217100   4.254   1.522   4.156
 5550SOL     OW17101   3.988   1.342   4.018
 5550SOL    HW117102   3.895   1.337   3.992
 5550SOL    HW217103   3.987   1.382   4.104
 5551SOL     OW17104   3.839   1.037   5.451
 5551SOL    HW117105   3.763   1.007   5.501
 5551SOL    HW217106   3.913   0.991   5.492
 5552SOL     OW17107   4.398   0.221   5.222
 5552SOL    HW117108   4.478   0.198   5.175
 5552SOL    HW217109   4.429   0.265   5.302
 5553SOL     OW17110   3.803   0.334   3.767
 5553SOL    HW117111   3.720   0.300   3.735
 5553SOL    HW217112   3.821   0.410   3.712
 5554SOL     OW17113   5.167   0.859   5.125
 5554SOL    HW117114   5.115   0.917   5.069
 5554SOL    HW217115   5.256   0.865   5.089
 5555SOL     OW17116   3.792   0.167   4.033
 5555SOL    HW117117   3.798   0.249   3.983
 5555SOL    HW217118   3.876   0.124   4.018
 5556SOL     OW17119   4.900   1.326   3.838
 5556SOL    HW117120   4.807   1.307   3.838
 5556SOL    HW217121   4.924   1.332   3.930
 5557SOL     OW17122   4.345   0.831   5.160
 5557SOL    HW117123   4.402   0.906   5.145
 5557SOL    HW217124   4.404   0.756   5.165
 5558SOL     OW17125   4.440   0.568   5.422
 5558SOL    HW117126   4.485   0.628   5.481
 5558SOL    HW217127   4.463   0.481   5.455
 5559SOL     OW17128   5.175   1.198   5.354
 5559SOL    HW117129   5.165   1.214   5.448
 5559SOL    HW217130   5.267   1.217   5.336
 5560SOL     OW17131   4.093   1.742   5.291
 5560SOL    HW117132   4.011   1.788   5.275
 5560SOL    HW217133   4.067   1.659   5.331
 5561SOL     OW17134   4.935   0.326   4.181
 5561SOL    HW117135   4.986   0.245   4.175
 5561SOL    HW217136   4.968   0.370   4.259
 5562SOL     OW17137   4.310   0.734   4.398
 5562SOL    HW117138   4.350   0.819   4.383
 5562SOL    HW217139   4.246   0.725   4.328
 5563SOL     OW17140   4.596   1.364   3.771
 5563SOL    HW117141   4.553   1.393   3.852
 5563SOL    HW217142   4.605   1.444   3.719
 5564SOL     OW17143   4.388   1.782   4.661
 5564SOL    HW117144   4.369   1.874   4.643
 5564SOL    HW217145   4.483   1.776   4.655
 5565SOL     OW17146   4.595   0.973   4.578
 5565SOL    HW117147   4.643   0.899   4.614
 5565SOL    HW217148   4.554   1.014   4.654
 5566SOL     OW17149   4.810   0.987   3.815
 5566SOL    HW117150   4.784   1.036   3.737
 5566SOL    HW217151   4.883   0.932   3.786
 5567SOL     OW17152   3.949   1.297   5.575
 5567SOL    HW117153   3.891   1.229   5.541
 5567SOL    HW217154   3.919   1.309   5.666
 5568SOL     OW17155   3.814   1.229   4.389
 5568SOL    HW117156   3.827   1.184   4.473
 5568SOL    HW217157   3.881   1.191   4.331
 5569SOL     OW17158   4.410   1.407   5.358
 5569SOL    HW117159   4.330   1.366   5.391
 5569SOL    HW217160   4.408   1.496   5.393
 5570SOL     OW17161   4.154   0.436   4.250
 5570SOL    HW117162   4.187   0.364   4.198
 5570SOL    HW217163   4.103   0.394   4.319
 5571SOL     OW17164   0.090   1.511   4.823
 5571SOL    HW117165   0.022   1.497   4.757
 5571SOL    HW217166   0.082   1.437   4.882
 5572SOL     OW17167   4.059   0.563   5.015
 5572SOL    HW117168   4.112   0.505   5.069
 5572SOL    HW217169   4.075   0.534   4.925
 5573SOL     OW17170   4.557   1.578   4.398
 5573SOL    HW117171   4.536   1.643   4.331
 5573SOL    HW217172   4.481   1.520   4.399
 5574SOL     OW17173   5.139   0.211   4.848
 5574SOL    HW117174   5.149   0.131   4.900
 5574SOL    HW217175   5.095   0.273   4.907
 5575SOL     OW17176   4.718   0.015   4.854
 5575SOL    HW117177   4.666   5.249   4.809
 5575SOL    HW217178   4.805   5.275   4.864
 5576SOL     OW17179   4.497   1.333   4.046
 5576SOL    HW117180   4.470   1.242   4.054
 5576SOL    HW217181   4.579   1.339   4.095
 5577SOL     OW17182   4.343   1.557   5.012
 5577SOL    HW117183   4.343   1.640   5.059
 5577SOL    HW217184   4.431   1.550   4.975
 5578SOL     OW17185   5.033   0.024   3.872
 5578SOL    HW117186   5.117   0.019   3.828
 5578SOL    HW217187   4.986   5.246   3.844
 5579SOL     OW17188   5.025   0.461   4.406
 5579SOL    HW117189   4.971   0.540   4.409
 5579SOL    HW217190   5.010   0.417   4.490
 5580SOL     OW17191   5.292   0.213   4.618
 5580SOL    HW117192   5.235   0.208   4.695
 5580SOL    HW217193   5.260   0.290   4.570
 5581SOL     OW17194   3.766   1.064   4.033
 5581SOL    HW117195   3.860   1.056   4.014
 5581SOL    HW217196   3.738   0.975   4.055
 5582SOL     OW17197   4.602   1.656   4.068
 5582SOL    HW117198   4.529   1.643   4.008
 5582SOL    HW217199   4.576   1.731   4.122
 5583SOL     OW17200   3.943   0.628   5.717
 5583SOL    HW117201   3.855   0.620   5.755
 5583SOL    HW217202   3.931   0.604   5.625
 5584SOL     OW17203   3.937   0.288   6.581
 5584SOL    HW117204   3.966   0.250   6.663
 5584SOL    HW217205   3.857   0.240   6.559
 5585SOL     OW17206   3.721   0.395   6.222
 5585SOL    HW117207   3.637   0.415   6.264
 5585SOL    HW217208   3.702   0.319   6.167
 5586SOL     OW17209   4.293   1.299   6.772
 5586SOL    HW117210   4.207   1.304   6.729
 5586SOL    HW217211   4.309   1.388   6.803
 5587SOL     OW17212   5.295   1.526   6.289
 5587SOL    HW117213   5.251   1.495   6.368
 5587SOL    HW217214   5.226   1.531   6.223
 5588SOL     OW17215   4.866   0.698   6.281
 5588SOL    HW117216   4.915   0.780   6.271
 5588SOL    HW217217   4.815   0.711   6.361
 5589SOL     OW17218   4.467   1.137   6.635
 5589SOL    HW117219   4.402   1.175   6.693
 5589SOL    HW217220   4.507   1.212   6.590
 5590SOL     OW17221   4.596   0.766   7.406
 5590SOL    HW117222   4.574   0.839   7.465
 5590SOL    HW217223   4.621   0.808   7.324
 5591SOL     OW17224   4.410   0.996   6.229
 5591SOL    HW117225   4.476   0.989   6.299
 5591SOL    HW217226   4.341   1.051   6.267
 5592SOL     OW17227   4.440   1.152   7.406
 5592SOL    HW117228   4.487   1.229   7.437
 5592SOL    HW217229   4.361   1.187   7.365
 5593SOL     OW17230   4.056   1.416   6.653
 5593SOL    HW117231   3.981   1.376   6.608
 5593SOL    HW217232   4.100   1.468   6.586
 5594SOL     OW17233   5.158   1.482   6.951
 5594SOL    HW117234   5.222   1.549   6.973
 5594SOL    HW217235   5.088   1.493   7.015
 5595SOL     OW17236   4.173   0.395   7.060
 5595SOL    HW117237   4.249   0.337   7.068
 5595SOL    HW217238   4.098   0.339   7.082
 5596SOL     OW17239   3.943   1.717   6.054
 5596SOL    HW117240   3.965   1.791   6.110
 5596SOL    HW217241   4.018   1.708   5.995
 5597SOL     OW17242   4.856   1.340   7.277
 5597SOL    HW117243   4.893   1.338   7.365
 5597SOL    HW217244   4.807   1.258   7.270
 5598SOL     OW17245   3.957   1.446   6.123
 5598SOL    HW117246   3.937   1.539   6.124
 5598SOL    HW217247   3.899   1.408   6.189
 5599SOL     OW17248   3.993   1.091   6.477
 5599SOL    HW117249   3.988   1.003   6.514
 5599SOL    HW217250   3.934   1.143   6.532
 5600SOL     OW17251   4.320   1.796   7.007
 5600SOL    HW117252   4.242   1.777   7.058
 5600SOL    HW217253   4.348   1.882   7.037
 5601SOL     OW17254   4.301   0.985   5.727
 5601SOL    HW117255   4.350   1.030   5.658
 5601SOL    HW217256   4.340   1.016   5.808
 5602SOL     OW17257   5.254   0.134   7.071
 5602SOL    HW117258   0.012   0.209   7.059
 5602SOL    HW217259   5.257   0.116   7.165
 5603SOL     OW17260   3.842   0.658   6.147
 5603SOL    HW117261   3.813   0.569   6.168
 5603SOL    HW217262   3.835   0.706   6.229
 5604SOL     OW17263   3.764   1.589   5.706
 5604SOL    HW117264   3.745   1.498   5.726
 5604SOL    HW217265   3.738   1.637   5.785
 5605SOL     OW17266   0.117   0.935   6.163
 5605SOL    HW117267   0.210   0.919   6.148
 5605SOL    HW217268   0.110   1.030   6.167
 5606SOL     OW17269   3.847   0.746   7.168
 5606SOL    HW117270   3.938   0.779   7.170
 5606SOL    HW217271   3.794   0.825   7.169
 5607SOL     OW17272   4.340   1.391   6.321
 5607SOL    HW117273   4.296   1.307   6.329
 5607SOL    HW217274   4.324   1.419   6.231
 5608SOL     OW17275   4.992   1.227   7.008
 5608SOL    HW117276   5.028   1.161   6.948
 5608SOL    HW217277   5.051   1.225   7.084
 5609SOL     OW17278   4.543   0.039   6.124
 5609SOL    HW117279   4.571   0.126   6.094
 5609SOL    HW217280   4.447   0.040   6.114
 5610SOL     OW17281   3.911   0.960   6.867
 5610SOL    HW117282   3.998   0.922   6.852
 5610SOL    HW217283   3.854   0.914   6.806
 5611SOL     OW17284   4.891   1.813   7.213
 5611SOL    HW117285   4.908   1.875   7.142
 5611SOL    HW217286   4.918   1.728   7.178
 5612SOL     OW17287   4.060   0.273   7.423
 5612SOL    HW117288   4.107   0.348   7.460
 5612SOL    HW217289   3.969   0.286   7.450
 5613SOL     OW17290   5.163   1.441   6.513
 5613SOL    HW117291   5.105   1.448   6.589
 5613SOL    HW217292   5.158   1.349   6.487
 5614SOL     OW17293   4.315   0.716   5.856
 5614SOL    HW117294   4.317   0.801   5.811
 5614SOL    HW217295   4.250   0.727   5.925
 5615SOL     OW17296   4.991   0.325   6.500
 5615SOL    HW117297   4.900   0.305   6.524
 5615SOL    HW217298   5.043   0.295   6.575
 5616SOL     OW17299   4.516   0.618   7.030
 5616SOL    HW117300   4.488   0.594   7.118
 5616SOL    HW217301   4.481   0.548   6.974
 5617SOL     OW17302   5.116   0.496   7.270
 5617SOL    HW117303   5.121   0.524   7.361
 5617SOL    HW217304   5.188   0.434   7.259
 5618SOL     OW17305   4.674   0.886   7.171
 5618SOL    HW117306   4.727   0.817   7.132
 5618SOL    HW217307   4.625   0.923   7.098
 5619SOL     OW17308   4.719   0.422   6.807
 5619SOL    HW117309   4.630   0.431   6.840
 5619SOL    HW217310   4.710   0.369   6.727
 5620SOL     OW17311   4.778   0.700   6.011
 5620SOL    HW117312   4.797   0.693   6.104
 5620SOL    HW217313   4.693   0.656   6.000
 5621SOL     OW17314   3.812   0.822   6.364
 5621SOL    HW117315   3.892   0.815   6.416
 5621SOL    HW217316   3.767   0.899   6.401
 5622SOL     OW17317   3.847   1.873   7.171
 5622SOL    HW117318   3.852   1.849   7.264
 5622SOL    HW217319   3.764   1.837   7.141
 5623SOL     OW17320   4.612   0.368   5.781
 5623SOL    HW117321   4.640   0.422   5.707
 5623SOL    HW217322   4.667   0.290   5.775
 5624SOL     OW17323   5.101   1.157   6.142
 5624SOL    HW117324   5.191   1.171   6.113
 5624SOL    HW217325   5.049   1.209   6.081
 5625SOL     OW17326   4.236   0.205   6.462
 5625SOL    HW117327   4.259   0.217   6.555
 5625SOL    HW217328   4.259   0.288   6.421
 5626SOL     OW17329   4.723   1.442   6.054
 5626SOL    HW117330   4.689   1.517   6.004
 5626SOL    HW217331   4.699   1.461   6.145
 5627SOL     OW17332   4.078   1.815   6.458
 5627SOL    HW117333   4.123   1.730   6.463
 5627SOL    HW217334   4.146   1.879   6.476
 5628SOL     OW17335   4.935   1.538   7.100
 5628SOL    HW117336   4.924   1.468   7.164
 5628SOL    HW217337   4.865   1.525   7.037
 5629SOL     OW17338   4.036   0.960   5.841
 5629SOL    HW117339   4.118   0.979   5.796
 5629SOL    HW217340   4.007   0.876   5.804
 5630SOL     OW17341   4.193   1.267   7.324
 5630SOL    HW117342   4.167   1.272   7.232
 5630SOL    HW217343   4.111   1.263   7.372
 5631SOL     OW17344   4.829   1.774   5.826
 5631SOL    HW117345   4.754   1.733   5.868
 5631SOL    HW217346   4.854   1.713   5.756
 5632SOL     OW17347   3.923   0.276   7.096
 5632SOL    HW117348   3.844   0.331   7.100
 5632SOL    HW217349   3.917   0.220   7.174
 5633SOL     OW17350   4.186   1.736   5.905
 5633SOL    HW117351   4.232   1.792   5.968
 5633SOL    HW217352   4.255   1.701   5.849
 5634SOL     OW17353   5.084   0.094   5.998
 5634SOL    HW117354   5.075   0.078   5.904
 5634SOL    HW217355   5.177   0.115   6.010
 5635SOL     OW17356   3.980   1.790   6.814
 5635SOL    HW117357   4.030   1.719   6.854
 5635SOL    HW217358   3.972   1.764   6.722
 5636SOL     OW17359   4.665   1.699   6.481
 5636SOL    HW117360   4.746   1.653   6.499
 5636SOL    HW217361   4.623   1.648   6.411
 5637SOL     OW17362   4.120   0.696   6.058
 5637SOL    HW117363   4.138   0.603   6.072
 5637SOL    HW217364   4.027   0.705   6.075
 5638SOL     OW17365   4.349   0.135   5.691
 5638SOL    HW117366   4.409   0.066   5.718
 5638SOL    HW217367   4.296   0.096   5.622
 5639SOL     OW17368   4.507   0.304   7.348
 5639SOL    HW117369   4.586   0.250   7.350
 5639SOL    HW217370   4.465   0.286   7.432
 5640SOL     OW17371   4.597   1.525   6.780
 5640SOL    HW117372   4.581   1.487   6.694
 5640SOL    HW217373   4.667   1.471   6.818
 5641SOL     OW17374   5.059   0.596   7.017
 5641SOL    HW117375   5.087   0.570   7.105
 5641SOL    HW217376   5.100   0.682   7.004
 5642SOL     OW17377   4.541   1.388   6.534
 5642SOL    HW117378   4.626   1.376   6.491
 5642SOL    HW217379   4.479   1.396   6.461
 5643SOL     OW17380   4.652   0.513   6.487
 5643SOL    HW117381   4.627   0.503   6.395
 5643SOL    HW217382   4.677   0.425   6.514
 5644SOL     OW17383   4.272   0.061   6.091
 5644SOL    HW117384   4.189   0.056   6.138
 5644SOL    HW217385   4.258   0.128   6.024
 5645SOL     OW17386   5.129   1.185   5.630
 5645SOL    HW117387   5.128   1.102   5.677
 5645SOL    HW217388   5.044   1.225   5.650
 5646SOL     OW17389   4.026   0.068   5.782
 5646SOL    HW117390   4.084   0.142   5.763
 5646SOL    HW217391   4.080   5.291   5.771
 5647SOL     OW17392   4.661   0.273   6.046
 5647SOL    HW117393   4.632   0.305   5.960
 5647SOL    HW217394   4.755   0.289   6.047
 5648SOL     OW17395   4.801   0.686   7.042
 5648SOL    HW117396   4.735   0.617   7.042
 5648SOL    HW217397   4.885   0.640   7.033
 5649SOL     OW17398   4.935   1.571   6.379
 5649SOL    HW117399   4.954   1.640   6.316
 5649SOL    HW217400   5.018   1.552   6.421
 5650SOL     OW17401   4.197   1.154   6.311
 5650SOL    HW117402   4.132   1.133   6.377
 5650SOL    HW217403   4.152   1.142   6.227
 5651SOL     OW17404   4.988   1.794   6.196
 5651SOL    HW117405   5.029   1.855   6.134
 5651SOL    HW217406   4.919   1.846   6.237
 5652SOL     OW17407   4.750   0.542   5.608
 5652SOL    HW117408   4.704   0.625   5.592
 5652SOL    HW217409   4.803   0.560   5.687
 5653SOL     OW17410   3.809   0.551   6.980
 5653SOL    HW117411   3.901   0.553   6.952
 5653SOL    HW217412   3.802   0.622   7.044
 5654SOL     OW17413   4.273   0.238   6.744
 5654SOL    HW117414   4.310   0.156   6.778
 5654SOL    HW217415   4.182   0.238   6.773
 5655SOL     OW17416   4.588   0.470   6.227
 5655SOL    HW117417   4.540   0.524   6.165
 5655SOL    HW217418   4.611   0.391   6.178
 5656SOL     OW17419   4.701   0.064   6.355
 5656SOL    HW117420   4.638   0.064   6.283
 5656SOL    HW217421   4.715   5.272   6.375
 5657SOL     OW17422   5.153   1.178   6.437
 5657SOL    HW117423   5.100   1.100   6.456
 5657SOL    HW217424   5.160   1.179   6.341
 5658SOL     OW17425   4.213   1.422   5.736
 5658SOL    HW117426   4.137   1.393   5.788
 5658SOL    HW217427   4.208   1.370   5.656
 5659SOL     OW17428   5.132   0.552   5.677
 5659SOL    HW117429   5.050   0.544   5.726
 5659SOL    HW217430   5.200   0.536   5.742
 5660SOL     OW17431   4.243   0.267   5.904
 5660SOL    HW117432   4.292   0.220   5.836
 5660SOL    HW217433   4.219   0.350   5.863
 5661SOL     OW17434   4.772   1.356   6.918
 5661SOL    HW117435   4.696   1.323   6.966
 5661SOL    HW217436   4.846   1.312   6.958
 5662SOL     OW17437   0.009   1.612   7.196
 5662SOL    HW117438   0.045   1.610   7.107
 5662SOL    HW217439   0.081   1.586   7.252
 5663SOL     OW17440   4.862   1.213   6.689
 5663SOL    HW117441   4.796   1.244   6.751
 5663SOL    HW217442   4.830   1.242   6.604
 5664SOL     OW17443   4.618   0.108   6.959
 5664SOL    HW117444   4.653   0.073   6.877
 5664SOL    HW217445   4.693   0.152   7.001
 5665SOL     OW17446   4.710   1.108   7.319
 5665SOL    HW117447   4.619   1.129   7.339
 5665SOL    HW217448   4.706   1.033   7.260
 5666SOL     OW17449   4.434   1.063   5.957
 5666SOL    HW117450   4.420   1.042   6.049
 5666SOL    HW217451   4.510   1.010   5.932
 5667SOL     OW17452   4.146   0.821   6.838
 5667SOL    HW117453   4.214   0.829   6.905
 5667SOL    HW217454   4.112   0.732   6.850
 5668SOL     OW17455   4.988   0.383   6.859
 5668SOL    HW117456   5.021   0.462   6.903
 5668SOL    HW217457   4.898   0.405   6.836
 5669SOL     OW17458   3.800   1.574   6.944
 5669SOL    HW117459   3.772   1.645   6.886
 5669SOL    HW217460   3.895   1.572   6.935
 5670SOL     OW17461   4.059   1.120   6.075
 5670SOL    HW117462   4.062   1.193   6.013
 5670SOL    HW217463   4.057   1.042   6.019
 5671SOL     OW17464   4.272   0.530   6.445
 5671SOL    HW117465   4.286   0.589   6.371
 5671SOL    HW217466   4.339   0.555   6.509
 5672SOL     OW17467   4.970   1.353   5.973
 5672SOL    HW117468   5.025   1.425   6.004
 5672SOL    HW217469   4.883   1.372   6.006
 5673SOL     OW17470   5.005   1.458   6.729
 5673SOL    HW117471   5.055   1.459   6.810
 5673SOL    HW217472   4.950   1.380   6.735
 5674SOL     OW17473   4.069   1.531   6.895
 5674SOL    HW117474   4.059   1.485   6.812
 5674SOL    HW217475   4.164   1.542   6.904
 5675SOL     OW17476   4.144   0.745   7.191
 5675SOL    HW117477   4.205   0.788   7.132
 5675SOL    HW217478   4.184   0.659   7.209
 5676SOL     OW17479   4.743   0.133   7.313
 5676SOL    HW117480   4.794   0.214   7.313
 5676SOL    HW217481   4.800   0.068   7.272
 5677SOL     OW17482   4.198   0.064   7.319
 5677SOL    HW117483   4.130   0.001   7.297
 5677SOL    HW217484   4.151   0.143   7.347
 5678SOL     OW17485   4.310   0.875   6.618
 5678SOL    HW117486   4.343   0.965   6.622
 5678SOL    HW217487   4.253   0.868   6.695
 5679SOL     OW17488   5.086   0.854   6.617
 5679SOL    HW117489   5.009   0.822   6.570
 5679SOL    HW217490   5.151   0.784   6.606
 5680SOL     OW17491   4.918   0.530   5.845
 5680SOL    HW117492   4.923   0.451   5.898
 5680SOL    HW217493   4.877   0.595   5.903
 5681SOL     OW17494   4.014   0.200   6.837
 5681SOL    HW117495   3.975   0.239   6.915
 5681SOL    HW217496   4.020   0.107   6.856
 5682SOL     OW17497   3.772   1.312   6.859
 5682SOL    HW117498   3.802   1.256   6.930
 5682SOL    HW217499   3.776   1.401   6.895
 5683SOL     OW17500   4.445   0.630   6.639
 5683SOL    HW117501   4.521   0.617   6.583
 5683SOL    HW217502   4.416   0.719   6.620
 5684SOL     OW17503   4.050   0.069   6.260
 5684SOL    HW117504   4.011   0.157   6.255
 5684SOL    HW217505   4.111   0.075   6.334
 5685SOL     OW17506   0.031   0.428   5.946
 5685SOL    HW117507   0.043   0.357   6.009
 5685SOL    HW217508   0.034   0.508   5.998
 5686SOL     OW17509   4.752   0.759   6.542
 5686SOL    HW117510   4.745   0.776   6.635
 5686SOL    HW217511   4.725   0.668   6.531
 5687SOL     OW17512   4.694   1.561   7.304
 5687SOL    HW117513   4.682   1.608   7.221
 5687SOL    HW217514   4.741   1.481   7.280
 5688SOL     OW17515   4.076   0.915   7.396
 5688SOL    HW117516   4.159   0.936   7.441
 5688SOL    HW217517   4.101   0.852   7.329
 5689SOL     OW17518   5.030   0.827   5.622
 5689SOL    HW117519   5.065   0.738   5.625
 5689SOL    HW217520   5.059   0.861   5.538
 5690SOL     OW17521   4.791   1.336   6.445
 5690SOL    HW117522   4.798   1.265   6.381
 5690SOL    HW217523   4.844   1.407   6.407
 5691SOL     OW17524   4.032   0.809   6.532
 5691SOL    HW117525   4.126   0.828   6.525
 5691SOL    HW217526   4.029   0.718   6.562
 5692SOL     OW17527   4.051   0.530   6.599
 5692SOL    HW117528   4.014   0.443   6.586
 5692SOL    HW217529   4.128   0.532   6.542
 5693SOL     OW17530   4.863   0.381   7.278
 5693SOL    HW117531   4.814   0.434   7.340
 5693SOL    HW217532   4.948   0.426   7.270
 5694SOL     OW17533   4.841   0.234   7.042
 5694SOL    HW117534   4.849   0.284   7.124
 5694SOL    HW217535   4.904   0.275   6.983
 5695SOL     OW17536   3.733   1.316   5.779
 5695SOL    HW117537   3.645   1.333   5.744
 5695SOL    HW217538   3.728   1.227   5.815
 5696SOL     OW17539   3.814   1.781   6.528
 5696SOL    HW117540   3.784   1.704   6.481
 5696SOL    HW217541   3.903   1.795   6.496
 5697SOL     OW17542   4.215   1.575   6.490
 5697SOL    HW117543   4.284   1.636   6.514
 5697SOL    HW217544   4.258   1.512   6.432
 5698SOL     OW17545   4.694   0.789   6.808
 5698SOL    HW117546   4.753   0.770   6.881
 5698SOL    HW217547   4.613   0.744   6.831
 5699SOL     OW17548   3.759   0.549   6.704
 5699SOL    HW117549   3.838   0.537   6.650
 5699SOL    HW217550   3.792   0.550   6.794
 5700SOL     OW17551   3.908   0.527   7.319
 5700SOL    HW117552   3.974   0.488   7.262
 5700SOL    HW217553   3.875   0.603   7.271
 5701SOL     OW17554   5.120   0.929   7.254
 5701SOL    HW117555   5.124   1.024   7.240
 5701SOL    HW217556   5.124   0.891   7.166
 5702SOL     OW17557   4.539   0.577   5.954
 5702SOL    HW117558   4.546   0.503   5.894
 5702SOL    HW217559   4.463   0.626   5.923
 5703SOL     OW17560   3.960   1.548   7.308
 5703SOL    HW117561   3.941   1.613   7.376
 5703SOL    HW217562   3.969   1.466   7.357
 5704SOL     OW17563   4.437   0.445   6.837
 5704SOL    HW117564   4.380   0.374   6.810
 5704SOL    HW217565   4.430   0.510   6.767
 5705SOL     OW17566   4.639   1.678   7.056
 5705SOL    HW117567   4.616   1.641   6.970
 5705SOL    HW217568   4.638   1.773   7.043
 5706SOL     OW17569   4.178   0.491   5.759
 5706SOL    HW117570   4.241   0.559   5.785
 5706SOL    HW217571   4.094   0.537   5.754
 5707SOL     OW17572   3.863   1.143   7.061
 5707SOL    HW117573   3.866   1.097   7.145
 5707SOL    HW217574   3.881   1.076   6.995
 5708SOL     OW17575   5.050   1.043   6.807
 5708SOL    HW117576   5.069   0.977   6.740
 5708SOL    HW217577   4.984   1.100   6.767
 5709SOL     OW17578   5.044   0.860   5.902
 5709SOL    HW117579   4.962   0.829   5.942
 5709SOL    HW217580   5.029   0.853   5.808
 5710SOL     OW17581   4.956   1.731   6.702
 5710SOL    HW117582   5.043   1.757   6.670
 5710SOL    HW217583   4.963   1.636   6.714
 5711SOL     OW17584   3.813   1.265   6.595
 5711SOL    HW117585   3.794   1.280   6.688
 5711SOL    HW217586   3.740   1.209   6.565
 5712SOL     OW17587   4.402   1.669   7.325
 5712SOL    HW117588   4.347   1.747   7.316
 5712SOL    HW217589   4.477   1.686   7.268
 5713SOL     OW17590   5.112   1.573   6.076
 5713SOL    HW117591   5.180   1.618   6.026
 5713SOL    HW217592   5.056   1.643   6.109
 5714SOL     OW17593   3.865   1.794   7.430
 5714SOL    HW117594   3.813   1.729   7.478
 5714SOL    HW217595   3.912   1.842   7.498
 5715SOL     OW17596   5.020   0.922   6.252
 5715SOL    HW117597   5.100   0.870   6.246
 5715SOL    HW217598   5.041   1.004   6.206
 5716SOL     OW17599   4.524   1.277   7.009
 5716SOL    HW117600   4.497   1.318   7.091
 5716SOL    HW217601   4.454   1.297   6.948
 5717SOL     OW17602   4.390   1.627   5.742
 5717SOL    HW117603   4.404   1.641   5.648
 5717SOL    HW217604   4.335   1.549   5.746
 5718SOL     OW17605   3.978   0.329   6.301
 5718SOL    HW117606   3.890   0.361   6.281
 5718SOL    HW217607   3.979   0.321   6.396
 5719SOL     OW17608   4.903   1.606   5.631
 5719SOL    HW117609   4.914   1.512   5.642
 5719SOL    HW217610   4.845   1.615   5.556
 5720SOL     OW17611   4.546   1.008   6.962
 5720SOL    HW117612   4.589   0.999   6.877
 5720SOL    HW217613   4.542   1.102   6.978
 5721SOL     OW17614   4.643   0.913   5.877
 5721SOL    HW117615   4.704   0.944   5.811
 5721SOL    HW217616   4.690   0.843   5.923
 5722SOL     OW17617   4.090   1.306   7.079
 5722SOL    HW117618   4.078   1.381   7.021
 5722SOL    HW217619   4.013   1.251   7.063
 5723SOL     OW17620   4.786   1.110   6.296
 5723SOL    HW117621   4.714   1.061   6.335
 5723SOL    HW217622   4.846   1.042   6.264
 5724SOL     OW17623   4.731   0.246   6.562
 5724SOL    HW117624   4.713   0.201   6.480
 5724SOL    HW217625   4.726   0.177   6.629
 5725SOL     OW17626   4.329   1.488   6.066
 5725SOL    HW117627   4.380   1.438   6.002
 5725SOL    HW217628   4.254   1.521   6.018
 5726SOL     OW17629   3.988   1.342   5.880
 5726SOL    HW117630   3.895   1.337   5.854
 5726SOL    HW217631   3.987   1.382   5.966
 5727SOL     OW17632   3.840   1.036   7.313
 5727SOL    HW117633   3.763   1.008   7.362
 5727SOL    HW217634   3.913   0.990   7.355
 5728SOL     OW17635   4.398   0.221   7.085
 5728SOL    HW117636   4.478   0.197   7.038
 5728SOL    HW217637   4.429   0.263   7.166
 5729SOL     OW17638   3.803   0.334   5.629
 5729SOL    HW117639   3.720   0.300   5.597
 5729SOL    HW217640   3.821   0.410   5.574
 5730SOL     OW17641   5.167   0.859   6.988
 5730SOL    HW117642   5.115   0.917   6.932
 5730SOL    HW217643   5.256   0.866   6.953
 5731SOL     OW17644   3.792   0.167   5.895
 5731SOL    HW117645   3.797   0.249   5.846
 5731SOL    HW217646   3.876   0.124   5.880
 5732SOL     OW17647   4.900   1.326   5.700
 5732SOL    HW117648   4.807   1.306   5.700
 5732SOL    HW217649   4.924   1.332   5.792
 5733SOL     OW17650   4.345   0.831   7.022
 5733SOL    HW117651   4.402   0.907   7.007
 5733SOL    HW217652   4.404   0.756   7.027
 5734SOL     OW17653   4.437   0.568   7.283
 5734SOL    HW117654   4.483   0.628   7.342
 5734SOL    HW217655   4.461   0.481   7.315
 5735SOL     OW17656   5.174   1.197   7.215
 5735SOL    HW117657   5.164   1.213   7.309
 5735SOL    HW217658   5.266   1.219   7.197
 5736SOL     OW17659   4.093   1.742   7.153
 5736SOL    HW117660   4.011   1.788   7.138
 5736SOL    HW217661   4.068   1.659   7.192
 5737SOL     OW17662   4.935   0.326   6.043
 5737SOL    HW117663   4.986   0.245   6.037
 5737SOL    HW217664   4.968   0.370   6.121
 5738SOL     OW17665   4.310   0.734   6.260
 5738SOL    HW117666   4.350   0.819   6.245
 5738SOL    HW217667   4.246   0.725   6.190
 5739SOL     OW17668   4.595   1.364   5.633
 5739SOL    HW117669   4.553   1.393   5.714
 5739SOL    HW217670   4.605   1.444   5.581
 5740SOL     OW17671   4.388   1.782   6.522
 5740SOL    HW117672   4.369   1.875   6.505
 5740SOL    HW217673   4.483   1.775   6.517
 5741SOL     OW17674   4.595   0.973   6.440
 5741SOL    HW117675   4.644   0.899   6.476
 5741SOL    HW217676   4.554   1.014   6.516
 5742SOL     OW17677   4.810   0.987   5.677
 5742SOL    HW117678   4.784   1.036   5.599
 5742SOL    HW217679   4.883   0.932   5.648
 5743SOL     OW17680   3.947   1.296   7.439
 5743SOL    HW117681   3.893   1.228   7.400
 5743SOL    HW217682   3.907   1.313   7.524
 5744SOL     OW17683   3.815   1.229   6.251
 5744SOL    HW117684   3.826   1.184   6.335
 5744SOL    HW217685   3.881   1.190   6.194
 5745SOL     OW17686   4.409   1.406   7.220
 5745SOL    HW117687   4.329   1.367   7.253
 5745SOL    HW217688   4.407   1.496   7.254
 5746SOL     OW17689   4.154   0.436   6.112
 5746SOL    HW117690   4.187   0.364   6.060
 5746SOL    HW217691   4.103   0.394   6.181
 5747SOL     OW17692   0.090   1.511   6.685
 5747SOL    HW117693   0.022   1.497   6.619
 5747SOL    HW217694   0.082   1.437   6.744
 5748SOL     OW17695   4.059   0.563   6.877
 5748SOL    HW117696   4.113   0.505   6.931
 5748SOL    HW217697   4.076   0.534   6.787
 5749SOL     OW17698   4.557   1.578   6.260
 5749SOL    HW117699   4.536   1.643   6.193
 5749SOL    HW217700   4.481   1.520   6.261
 5750SOL     OW17701   5.139   0.211   6.710
 5750SOL    HW117702   5.148   0.131   6.761
 5750SOL    HW217703   5.094   0.273   6.769
 5751SOL     OW17704   4.718   0.016   6.716
 5751SOL    HW117705   4.666   5.249   6.671
 5751SOL    HW217706   4.805   5.275   6.726
 5752SOL     OW17707   4.497   1.333   5.908
 5752SOL    HW117708   4.470   1.242   5.916
 5752SOL    HW217709   4.579   1.339   5.957
 5753SOL     OW17710   4.343   1.557   6.873
 5753SOL    HW117711   4.342   1.640   6.920
 5753SOL    HW217712   4.431   1.550   6.837
 5754SOL     OW17713   5.033   0.024   5.734
 5754SOL    HW117714   5.117   0.019   5.690
 5754SOL    HW217715   4.986   5.246   5.706
 5755SOL     OW17716   5.025   0.461   6.268
 5755SOL    HW117717   4.971   0.540   6.271
 5755SOL    HW217718   5.010   0.418   6.352
 5756SOL     OW17719   5.292   0.213   6.480
 5756SOL    HW117720   5.235   0.208   6.557
 5756SOL    HW217721   5.260   0.289   6.432
 5757SOL     OW17722   3.766   1.064   5.895
 5757SOL    HW117723   3.860   1.056   5.876
 5757SOL    HW217724   3.738   0.976   5.916
 5758SOL     OW17725   4.602   1.656   5.931
 5758SOL    HW117726   4.529   1.643   5.870
 5758SOL    HW217727   4.577   1.731   5.984
 5759SOL     OW17728   3.942   0.625   7.578
 5759SOL    HW117729   3.853   0.629   7.614
 5759SOL    HW217730   3.931   0.603   7.486
 5760SOL     OW17731   3.945   1.714   7.919
 5760SOL    HW117732   3.971   1.748   8.005
 5760SOL    HW217733   4.025   1.717   7.867
 5761SOL     OW17734   3.936   1.441   7.996
 5761SOL    HW117735   3.923   1.535   7.985
 5761SOL    HW217736   3.877   1.417   8.068
 5762SOL     OW17737   4.303   0.985   7.582
 5762SOL    HW117738   4.350   1.032   7.513
 5762SOL    HW217739   4.343   1.017   7.664
 5763SOL     OW17740   3.759   1.597   7.577
 5763SOL    HW117741   3.743   1.503   7.593
 5763SOL    HW217742   3.731   1.640   7.658
 5764SOL     OW17743   0.114   0.929   8.008
 5764SOL    HW117744   0.209   0.937   8.010
 5764SOL    HW217745   0.082   1.019   8.007
 5765SOL     OW17746   4.535   5.273   7.941
 5765SOL    HW117747   4.582   0.055   7.928
 5765SOL    HW217748   4.442   5.299   7.941
 5766SOL     OW17749   4.312   0.722   7.708
 5766SOL    HW117750   4.308   0.808   7.665
 5766SOL    HW217751   4.255   0.731   7.785
 5767SOL     OW17752   3.779   0.864   0.081
 5767SOL    HW117753   3.840   0.793   0.100
 5767SOL    HW217754   3.794   0.927   0.152
 5768SOL     OW17755   4.605   0.370   7.637
 5768SOL    HW117756   4.635   0.423   7.563
 5768SOL    HW217757   4.664   0.295   7.638
 5769SOL     OW17758   4.042   0.958   7.700
 5769SOL    HW117759   4.121   0.973   7.647
 5769SOL    HW217760   4.002   0.879   7.662
 5770SOL     OW17761   4.836   1.774   7.690
 5770SOL    HW117762   4.758   1.733   7.729
 5770SOL    HW217763   4.860   1.714   7.619
 5771SOL     OW17764   4.188   1.742   7.771
 5771SOL    HW117765   4.241   1.790   7.835
 5771SOL    HW217766   4.252   1.700   7.713
 5772SOL     OW17767   5.105   0.114   7.864
 5772SOL    HW117768   5.078   0.085   7.776
 5772SOL    HW217769   5.200   0.105   7.863
 5773SOL     OW17770   4.121   0.697   7.919
 5773SOL    HW117771   4.113   0.602   7.933
 5773SOL    HW217772   4.031   0.729   7.921
 5774SOL     OW17773   4.343   0.136   7.560
 5774SOL    HW117774   4.416   0.075   7.577
 5774SOL    HW217775   4.292   0.093   7.491
 5775SOL     OW17776   4.278   0.067   7.948
 5775SOL    HW117777   4.187   0.045   7.968
 5775SOL    HW217778   4.273   0.140   7.888
 5776SOL     OW17779   5.128   1.188   7.489
 5776SOL    HW117780   5.133   1.109   7.543
 5776SOL    HW217781   5.043   1.225   7.509
 5777SOL     OW17782   4.030   0.084   7.670
 5777SOL    HW117783   4.072   0.144   7.608
 5777SOL    HW217784   4.076   0.001   7.657
 5778SOL     OW17785   4.669   0.222   7.904
 5778SOL    HW117786   4.615   0.286   7.858
 5778SOL    HW217787   4.751   0.267   7.921
 5779SOL     OW17788   4.151   1.140   0.099
 5779SOL    HW117789   4.087   1.199   0.140
 5779SOL    HW217790   4.125   1.137   0.007
 5780SOL     OW17791   5.017   1.810   8.010
 5780SOL    HW117792   5.057   1.875   7.951
 5780SOL    HW217793   4.929   1.843   8.027
 5781SOL     OW17794   4.751   0.544   7.469
 5781SOL    HW117795   4.702   0.625   7.455
 5781SOL    HW217796   4.797   0.558   7.552
 5782SOL     OW17797   4.206   1.420   7.598
 5782SOL    HW117798   4.134   1.391   7.653
 5782SOL    HW217799   4.200   1.367   7.519
 5783SOL     OW17800   5.131   0.549   7.541
 5783SOL    HW117801   5.048   0.542   7.588
 5783SOL    HW217802   5.197   0.521   7.604
 5784SOL     OW17803   4.250   0.279   7.774
 5784SOL    HW117804   4.291   0.226   7.706
 5784SOL    HW217805   4.224   0.359   7.730
 5785SOL     OW17806   4.442   1.063   7.809
 5785SOL    HW117807   4.407   1.042   7.896
 5785SOL    HW217808   4.519   1.008   7.800
 5786SOL     OW17809   4.087   1.120   7.918
 5786SOL    HW117810   4.062   1.196   7.866
 5786SOL    HW217811   4.074   1.046   7.859
 5787SOL     OW17812   4.956   1.364   7.814
 5787SOL    HW117813   5.014   1.436   7.838
 5787SOL    HW217814   4.917   1.336   7.897
 5788SOL     OW17815   0.026   0.645   7.943
 5788SOL    HW117816   5.260   0.649   8.013
 5788SOL    HW217817   0.045   0.737   7.924
 5789SOL     OW17818   4.917   0.528   7.710
 5789SOL    HW117819   4.919   0.446   7.758
 5789SOL    HW217820   4.881   0.591   7.773
 5790SOL     OW17821   0.025   0.422   7.786
 5790SOL    HW117822   0.033   0.358   7.856
 5790SOL    HW217823   0.025   0.507   7.831
 5791SOL     OW17824   5.044   0.832   7.497
 5791SOL    HW117825   5.069   0.740   7.493
 5791SOL    HW217826   5.066   0.866   7.410
 5792SOL     OW17827   3.736   1.321   7.636
 5792SOL    HW117828   3.648   1.336   7.602
 5792SOL    HW217829   3.733   1.232   7.671
 5793SOL     OW17830   4.577   0.631   7.744
 5793SOL    HW117831   4.576   0.537   7.725
 5793SOL    HW217832   4.485   0.655   7.751
 5794SOL     OW17833   4.176   0.495   7.626
 5794SOL    HW117834   4.239   0.564   7.647
 5794SOL    HW217835   4.092   0.540   7.618
 5795SOL     OW17836   5.025   0.851   7.784
 5795SOL    HW117837   4.934   0.882   7.789
 5795SOL    HW217838   5.042   0.843   7.691
 5796SOL     OW17839   5.111   1.572   7.910
 5796SOL    HW117840   5.199   1.566   7.948
 5796SOL    HW217841   5.080   1.659   7.936
 5797SOL     OW17842   4.384   1.625   7.603
 5797SOL    HW117843   4.399   1.638   7.509
 5797SOL    HW217844   4.330   1.546   7.607
 5798SOL     OW17845   4.906   1.610   7.489
 5798SOL    HW117846   4.916   1.515   7.503
 5798SOL    HW217847   4.845   1.618   7.417
 5799SOL     OW17848   4.655   0.900   7.763
 5799SOL    HW117849   4.704   0.920   7.683
 5799SOL    HW217850   4.636   0.806   7.756
 5800SOL     OW17851   4.338   1.515   7.935
 5800SOL    HW117852   4.387   1.455   7.878
 5800SOL    HW217853   4.255   1.528   7.889
 5801SOL     OW17854   3.987   1.341   7.754
 5801SOL    HW117855   3.897   1.338   7.720
 5801SOL    HW217856   3.979   1.379   7.841
 5802SOL     OW17857   3.798   0.336   7.489
 5802SOL    HW117858   3.717   0.305   7.449
 5802SOL    HW217859   3.822   0.413   7.438
 5803SOL     OW17860   3.782   0.184   7.736
 5803SOL    HW117861   3.782   0.258   7.675
 5803SOL    HW217862   3.867   0.142   7.721
 5804SOL     OW17863   4.895   1.326   7.552
 5804SOL    HW117864   4.800   1.314   7.551
 5804SOL    HW217865   4.916   1.340   7.645
 5805SOL     OW17866   5.283   1.740   0.321
 5805SOL    HW117867   5.283   1.827   0.280
 5805SOL    HW217868   0.063   1.738   0.373
 5806SOL     OW17869   4.933   0.326   7.909
 5806SOL    HW117870   4.998   0.255   7.904
 5806SOL    HW217871   4.941   0.359   7.998
 5807SOL     OW17872   4.367   0.750   8.038
 5807SOL    HW117873   4.360   0.818   0.024
 5807SOL    HW217874   4.277   0.734   8.009
 5808SOL     OW17875   4.597   1.365   7.497
 5808SOL    HW117876   4.554   1.395   7.577
 5808SOL    HW217877   4.607   1.444   7.444
 5809SOL     OW17878   4.802   0.968   7.543
 5809SOL    HW117879   4.779   1.026   7.471
 5809SOL    HW217880   4.882   0.924   7.515
 5810SOL     OW17881   4.113   0.427   7.986
 5810SOL    HW117882   4.168   0.372   7.930
 5810SOL    HW217883   4.158   0.428   8.071
 5811SOL     OW17884   4.488   1.339   7.772
 5811SOL    HW117885   4.462   1.247   7.773
 5811SOL    HW217886   4.568   1.342   7.823
 5812SOL     OW17887   5.032   0.029   7.606
 5812SOL    HW117888   5.113   0.024   7.556
 5812SOL    HW217889   4.985   5.249   7.584
 5813SOL     OW17890   3.780   1.075   7.748
 5813SOL    HW117891   3.874   1.066   7.736
 5813SOL    HW217892   3.749   0.985   7.762
 5814SOL     OW17893   4.609   1.651   7.780
 5814SOL    HW117894   4.531   1.631   7.727
 5814SOL    HW217895   4.578   1.712   7.846
 5815SOL     OW17896   3.932   2.481   0.128
 5815SOL    HW117897   3.851   2.447   0.167
 5815SOL    HW217898   3.951   2.422   0.055
 5816SOL     OW17899   3.948   2.146   0.993
 5816SOL    HW117900   3.976   2.111   1.078
 5816SOL    HW217901   3.859   2.114   0.982
 5817SOL     OW17902   3.722   2.248   0.639
 5817SOL    HW117903   3.641   2.275   0.683
 5817SOL    HW217904   3.697   2.169   0.590
 5818SOL     OW17905   4.292   3.161   1.185
 5818SOL    HW117906   4.207   3.167   1.143
 5818SOL    HW217907   4.310   3.250   1.217
 5819SOL     OW17908   5.289   3.427   0.708
 5819SOL    HW117909   5.255   3.370   0.777
 5819SOL    HW217910   5.233   3.409   0.633
 5820SOL     OW17911   4.866   2.563   0.695
 5820SOL    HW117912   4.916   2.643   0.685
 5820SOL    HW217913   4.816   2.575   0.776
 5821SOL     OW17914   4.467   2.998   1.048
 5821SOL    HW117915   4.402   3.037   1.107
 5821SOL    HW217916   4.506   3.073   1.004
 5822SOL     OW17917   4.601   2.622   1.826
 5822SOL    HW117918   4.584   2.692   1.889
 5822SOL    HW217919   4.620   2.667   1.744
 5823SOL     OW17920   4.407   2.855   0.650
 5823SOL    HW117921   4.474   2.849   0.718
 5823SOL    HW217922   4.340   2.912   0.687
 5824SOL     OW17923   4.439   3.012   1.821
 5824SOL    HW117924   4.487   3.088   1.852
 5824SOL    HW217925   4.360   3.047   1.781
 5825SOL     OW17926   4.056   3.278   1.067
 5825SOL    HW117927   3.982   3.239   1.021
 5825SOL    HW217928   4.100   3.330   1.000
 5826SOL     OW17929   5.158   3.343   1.365
 5826SOL    HW117930   5.222   3.411   1.386
 5826SOL    HW217931   5.089   3.354   1.430
 5827SOL     OW17932   4.176   2.254   1.476
 5827SOL    HW117933   4.251   2.196   1.486
 5827SOL    HW217934   4.100   2.198   1.497
 5828SOL     OW17935   3.947   3.576   0.467
 5828SOL    HW117936   3.966   3.651   0.524
 5828SOL    HW217937   4.024   3.569   0.411
 5829SOL     OW17938   4.857   3.204   1.696
 5829SOL    HW117939   4.895   3.198   1.784
 5829SOL    HW217940   4.807   3.123   1.686
 5830SOL     OW17941   3.948   3.302   0.521
 5830SOL    HW117942   3.937   3.397   0.523
 5830SOL    HW217943   3.895   3.270   0.594
 5831SOL     OW17944   3.991   2.953   0.890
 5831SOL    HW117945   3.988   2.865   0.928
 5831SOL    HW217946   3.933   3.005   0.946
 5832SOL     OW17947   4.320   3.658   1.421
 5832SOL    HW117948   4.242   3.639   1.472
 5832SOL    HW217949   4.348   3.744   1.451
 5833SOL     OW17950   4.343   2.815   0.146
 5833SOL    HW117951   4.285   2.887   0.120
 5833SOL    HW217952   4.399   2.853   0.215
 5834SOL     OW17953   3.842   2.515   0.566
 5834SOL    HW117954   3.811   2.427   0.587
 5834SOL    HW217955   3.833   2.564   0.647
 5835SOL     OW17956   3.765   3.451   0.108
 5835SOL    HW117957   3.747   3.365   0.145
 5835SOL    HW217958   3.745   3.512   0.179
 5836SOL     OW17959   0.118   2.811   0.596
 5836SOL    HW117960   0.211   2.798   0.579
 5836SOL    HW217961   0.087   2.859   0.519
 5837SOL     OW17962   3.849   2.607   1.584
 5837SOL    HW117963   3.940   2.638   1.586
 5837SOL    HW217964   3.796   2.686   1.587
 5838SOL     OW17965   4.339   3.254   0.733
 5838SOL    HW117966   4.295   3.170   0.742
 5838SOL    HW217967   4.324   3.280   0.642
 5839SOL     OW17968   4.992   3.089   1.423
 5839SOL    HW117969   5.028   3.023   1.363
 5839SOL    HW217970   5.051   3.087   1.499
 5840SOL     OW17971   4.545   1.871   0.520
 5840SOL    HW117972   4.584   1.954   0.492
 5840SOL    HW217973   4.451   1.889   0.523
 5841SOL     OW17974   3.911   2.822   1.281
 5841SOL    HW117975   3.998   2.784   1.266
 5841SOL    HW217976   3.853   2.775   1.222
 5842SOL     OW17977   4.890   3.674   1.627
 5842SOL    HW117978   4.907   3.737   1.557
 5842SOL    HW217979   4.917   3.590   1.592
 5843SOL     OW17980   4.068   2.110   1.833
 5843SOL    HW117981   4.108   2.195   1.854
 5843SOL    HW217982   3.975   2.122   1.851
 5844SOL     OW17983   5.165   3.302   0.925
 5844SOL    HW117984   5.107   3.308   1.001
 5844SOL    HW217985   5.159   3.210   0.898
 5845SOL     OW17986   4.324   2.570   0.287
 5845SOL    HW117987   4.338   2.653   0.241
 5845SOL    HW217988   4.259   2.590   0.354
 5846SOL     OW17989   4.993   2.200   0.915
 5846SOL    HW117990   4.904   2.171   0.937
 5846SOL    HW217991   5.048   2.164   0.986
 5847SOL     OW17992   4.512   2.480   1.445
 5847SOL    HW117993   4.488   2.453   1.534
 5847SOL    HW217994   4.480   2.409   1.389
 5848SOL     OW17995   5.113   2.348   1.683
 5848SOL    HW117996   5.117   2.380   1.773
 5848SOL    HW217997   5.197   2.303   1.671
 5849SOL     OW17998   4.671   2.747   1.587
 5849SOL    HW117999   4.725   2.678   1.548
 5849SOL    HW218000   4.623   2.784   1.514
 5850SOL     OW18001   4.717   2.270   1.230
 5850SOL    HW118002   4.627   2.286   1.259
 5850SOL    HW218003   4.709   2.227   1.145
 5851SOL     OW18004   4.784   2.560   0.425
 5851SOL    HW118005   4.803   2.556   0.518
 5851SOL    HW218006   4.700   2.515   0.415
 5852SOL     OW18007   3.812   2.685   0.778
 5852SOL    HW118008   3.893   2.678   0.829
 5852SOL    HW218009   3.767   2.761   0.815
 5853SOL     OW18010   3.847   3.734   1.584
 5853SOL    HW118011   3.852   3.711   1.677
 5853SOL    HW218012   3.763   3.700   1.555
 5854SOL     OW18013   4.611   2.218   0.203
 5854SOL    HW118014   4.656   2.270   0.136
 5854SOL    HW218015   4.612   2.129   0.169
 5855SOL     OW18016   5.104   3.017   0.553
 5855SOL    HW118017   5.185   3.011   0.503
 5855SOL    HW218018   5.047   3.073   0.500
 5856SOL     OW18019   4.275   2.037   0.899
 5856SOL    HW118020   4.277   2.067   0.989
 5856SOL    HW218021   4.275   2.117   0.847
 5857SOL     OW18022   4.720   3.303   0.468
 5857SOL    HW118023   4.686   3.379   0.420
 5857SOL    HW218024   4.698   3.321   0.559
 5858SOL     OW18025   4.078   3.677   0.872
 5858SOL    HW118026   4.123   3.593   0.878
 5858SOL    HW218027   4.146   3.742   0.890
 5859SOL     OW18028   4.935   3.400   1.516
 5859SOL    HW118029   4.924   3.329   1.579
 5859SOL    HW218030   4.866   3.385   1.451
 5860SOL     OW18031   4.033   2.808   0.267
 5860SOL    HW118032   4.089   2.855   0.206
 5860SOL    HW218033   4.054   2.715   0.251
 5861SOL     OW18034   4.195   3.130   1.739
 5861SOL    HW118035   4.169   3.135   1.647
 5861SOL    HW218036   4.112   3.127   1.787
 5862SOL     OW18037   4.816   3.634   0.219
 5862SOL    HW118038   4.758   3.595   0.284
 5862SOL    HW218039   4.834   3.564   0.157
 5863SOL     OW18040   3.926   2.131   1.504
 5863SOL    HW118041   3.846   2.183   1.510
 5863SOL    HW218042   3.903   2.046   1.542
 5864SOL     OW18043   4.188   3.597   0.323
 5864SOL    HW118044   4.233   3.656   0.383
 5864SOL    HW218045   4.257   3.568   0.262
 5865SOL     OW18046   5.107   1.986   0.448
 5865SOL    HW118047   5.093   1.964   0.356
 5865SOL    HW218048   5.202   1.993   0.456
 5866SOL     OW18049   3.979   3.651   1.228
 5866SOL    HW118050   4.030   3.582   1.269
 5866SOL    HW218051   3.973   3.625   1.136
 5867SOL     OW18052   4.666   3.561   0.895
 5867SOL    HW118053   4.748   3.515   0.911
 5867SOL    HW218054   4.624   3.510   0.825
 5868SOL     OW18055   4.112   2.559   0.473
 5868SOL    HW118056   4.132   2.466   0.487
 5868SOL    HW218057   4.020   2.568   0.496
 5869SOL     OW18058   4.357   1.970   0.142
 5869SOL    HW118059   4.452   1.959   0.147
 5869SOL    HW218060   4.336   1.951   0.051
 5870SOL     OW18061   4.485   2.142   1.757
 5870SOL    HW118062   4.567   2.091   1.753
 5870SOL    HW218063   4.440   2.108   1.834
 5871SOL     OW18064   4.597   3.386   1.195
 5871SOL    HW118065   4.581   3.349   1.108
 5871SOL    HW218066   4.667   3.333   1.232
 5872SOL     OW18067   5.055   2.456   1.433
 5872SOL    HW118068   5.085   2.427   1.519
 5872SOL    HW218069   5.101   2.539   1.418
 5873SOL     OW18070   4.541   3.249   0.947
 5873SOL    HW118071   4.627   3.238   0.906
 5873SOL    HW218072   4.480   3.259   0.874
 5874SOL     OW18073   4.652   2.370   0.899
 5874SOL    HW118074   4.627   2.361   0.807
 5874SOL    HW218075   4.680   2.283   0.925
 5875SOL     OW18076   4.277   1.926   0.500
 5875SOL    HW118077   4.197   1.922   0.554
 5875SOL    HW218078   4.266   2.004   0.446
 5876SOL     OW18079   5.134   3.032   0.055
 5876SOL    HW118080   5.114   2.948   0.096
 5876SOL    HW218081   5.054   3.084   0.063
 5877SOL     OW18082   4.039   1.926   0.178
 5877SOL    HW118083   4.104   1.993   0.201
 5877SOL    HW218084   4.074   1.846   0.216
 5878SOL     OW18085   4.663   2.112   0.455
 5878SOL    HW118086   4.636   2.150   0.372
 5878SOL    HW218087   4.757   2.132   0.461
 5879SOL     OW18088   4.800   2.548   1.457
 5879SOL    HW118089   4.736   2.477   1.458
 5879SOL    HW218090   4.885   2.504   1.448
 5880SOL     OW18091   4.936   3.433   0.795
 5880SOL    HW118092   4.955   3.502   0.731
 5880SOL    HW218093   5.021   3.412   0.833
 5881SOL     OW18094   4.196   3.017   0.726
 5881SOL    HW118095   4.130   2.996   0.792
 5881SOL    HW218096   4.151   3.004   0.642
 5882SOL     OW18097   4.983   3.656   0.612
 5882SOL    HW118098   5.028   3.720   0.557
 5882SOL    HW218099   4.914   3.706   0.656
 5883SOL     OW18100   4.760   2.382   0.036
 5883SOL    HW118101   4.717   2.465   0.013
 5883SOL    HW218102   4.821   2.406   0.106
 5884SOL     OW18103   3.809   2.416   1.392
 5884SOL    HW118104   3.901   2.416   1.366
 5884SOL    HW218105   3.803   2.485   1.458
 5885SOL     OW18106   4.281   2.089   1.172
 5885SOL    HW118107   4.323   2.018   1.219
 5885SOL    HW218108   4.189   2.085   1.200
 5886SOL     OW18109   4.591   2.319   0.638
 5886SOL    HW118110   4.553   2.376   0.571
 5886SOL    HW218111   4.612   2.238   0.590
 5887SOL     OW18112   4.740   1.916   0.745
 5887SOL    HW118113   4.680   1.910   0.671
 5887SOL    HW218114   4.717   1.841   0.800
 5888SOL     OW18115   5.154   3.040   0.847
 5888SOL    HW118116   5.104   2.960   0.865
 5888SOL    HW218117   5.158   3.043   0.751
 5889SOL     OW18118   4.211   3.302   0.173
 5889SOL    HW118119   4.135   3.263   0.218
 5889SOL    HW218120   4.218   3.253   0.092
 5890SOL     OW18121   5.139   2.443   0.067
 5890SOL    HW118122   5.077   2.423   0.137
 5890SOL    HW218123   5.198   2.368   0.066
 5891SOL     OW18124   4.233   2.126   0.319
 5891SOL    HW118125   4.290   2.076   0.260
 5891SOL    HW218126   4.220   2.210   0.273
 5892SOL     OW18127   4.772   3.218   1.332
 5892SOL    HW118128   4.696   3.185   1.381
 5892SOL    HW218129   4.847   3.173   1.372
 5893SOL     OW18130   0.009   3.475   1.611
 5893SOL    HW118131   0.044   3.473   1.522
 5893SOL    HW218132   0.082   3.447   1.666
 5894SOL     OW18133   4.861   3.074   1.104
 5894SOL    HW118134   4.796   3.107   1.166
 5894SOL    HW218135   4.831   3.105   1.018
 5895SOL     OW18136   4.641   1.955   1.392
 5895SOL    HW118137   4.663   1.937   1.300
 5895SOL    HW218138   4.721   1.993   1.428
 5896SOL     OW18139   4.709   2.974   1.727
 5896SOL    HW118140   4.618   2.992   1.751
 5896SOL    HW218141   4.704   2.896   1.671
 5897SOL     OW18142   4.446   2.929   0.384
 5897SOL    HW118143   4.425   2.905   0.474
 5897SOL    HW218144   4.523   2.876   0.363
 5898SOL     OW18145   4.146   2.682   1.252
 5898SOL    HW118146   4.213   2.692   1.319
 5898SOL    HW218147   4.112   2.593   1.265
 5899SOL     OW18148   4.986   2.235   1.282
 5899SOL    HW118149   5.020   2.315   1.321
 5899SOL    HW218150   4.895   2.256   1.259
 5900SOL     OW18151   3.800   3.436   1.358
 5900SOL    HW118152   3.773   3.508   1.301
 5900SOL    HW218153   3.895   3.434   1.350
 5901SOL     OW18154   4.056   2.978   0.492
 5901SOL    HW118155   4.061   3.049   0.428
 5901SOL    HW218156   4.062   2.898   0.439
 5902SOL     OW18157   4.270   2.391   0.859
 5902SOL    HW118158   4.283   2.450   0.785
 5902SOL    HW218159   4.337   2.416   0.922
 5903SOL     OW18160   4.969   3.211   0.392
 5903SOL    HW118161   5.023   3.285   0.418
 5903SOL    HW218162   4.881   3.234   0.424
 5904SOL     OW18163   5.005   3.320   1.142
 5904SOL    HW118164   5.056   3.321   1.223
 5904SOL    HW218165   4.951   3.241   1.148
 5905SOL     OW18166   4.070   3.392   1.309
 5905SOL    HW118167   4.059   3.346   1.226
 5905SOL    HW218168   4.164   3.404   1.318
 5906SOL     OW18169   4.142   2.608   1.604
 5906SOL    HW118170   4.206   2.651   1.547
 5906SOL    HW218171   4.180   2.521   1.621
 5907SOL     OW18172   4.718   1.998   1.756
 5907SOL    HW118173   4.777   2.070   1.734
 5907SOL    HW218174   4.764   1.919   1.728
 5908SOL     OW18175   4.221   1.897   1.751
 5908SOL    HW118176   4.173   1.845   1.687
 5908SOL    HW218177   4.165   1.973   1.767
 5909SOL     OW18178   4.309   2.737   1.032
 5909SOL    HW118179   4.344   2.826   1.036
 5909SOL    HW218180   4.252   2.730   1.109
 5910SOL     OW18181   5.087   2.715   1.032
 5910SOL    HW118182   5.011   2.686   0.983
 5910SOL    HW218183   5.153   2.646   1.019
 5911SOL     OW18184   4.934   2.395   0.261
 5911SOL    HW118185   4.935   2.315   0.313
 5911SOL    HW218186   4.889   2.459   0.316
 5912SOL     OW18187   4.019   2.058   1.247
 5912SOL    HW118188   3.983   2.089   1.330
 5912SOL    HW218189   4.002   1.964   1.247
 5913SOL     OW18190   3.771   3.174   1.273
 5913SOL    HW118191   3.802   3.118   1.344
 5913SOL    HW218192   3.776   3.263   1.309
 5914SOL     OW18193   4.442   2.490   1.051
 5914SOL    HW118194   4.520   2.478   0.996
 5914SOL    HW218195   4.414   2.580   1.034
 5915SOL     OW18196   4.032   1.922   0.626
 5915SOL    HW118197   4.008   2.013   0.646
 5915SOL    HW218198   4.040   1.880   0.711
 5916SOL     OW18199   0.055   2.236   0.349
 5916SOL    HW118200   0.063   2.183   0.428
 5916SOL    HW218201   0.032   2.323   0.382
 5917SOL     OW18202   4.750   2.619   0.954
 5917SOL    HW118203   4.744   2.636   1.048
 5917SOL    HW218204   4.724   2.528   0.945
 5918SOL     OW18205   4.693   3.424   1.718
 5918SOL    HW118206   4.682   3.470   1.635
 5918SOL    HW218207   4.740   3.344   1.695
 5919SOL     OW18208   4.075   2.779   1.810
 5919SOL    HW118209   4.156   2.798   1.859
 5919SOL    HW218210   4.102   2.716   1.743
 5920SOL     OW18211   5.035   2.697   0.018
 5920SOL    HW118212   5.071   2.611   0.038
 5920SOL    HW218213   5.050   2.708   8.004
 5921SOL     OW18214   4.792   3.199   0.860
 5921SOL    HW118215   4.798   3.128   0.796
 5921SOL    HW218216   4.845   3.269   0.823
 5922SOL     OW18217   4.033   2.671   0.945
 5922SOL    HW118218   4.126   2.692   0.941
 5922SOL    HW218219   4.029   2.581   0.977
 5923SOL     OW18220   4.049   2.393   1.012
 5923SOL    HW118221   4.014   2.305   1.001
 5923SOL    HW218222   4.126   2.396   0.956
 5924SOL     OW18223   4.857   2.235   1.685
 5924SOL    HW118224   4.808   2.289   1.747
 5924SOL    HW218225   4.944   2.276   1.681
 5925SOL     OW18226   4.884   2.059   1.472
 5925SOL    HW118227   4.873   2.121   1.544
 5925SOL    HW218228   4.925   2.110   1.402
 5926SOL     OW18229   3.741   3.177   0.184
 5926SOL    HW118230   3.654   3.193   0.147
 5926SOL    HW218231   3.736   3.089   0.220
 5927SOL     OW18232   3.814   3.643   0.942
 5927SOL    HW118233   3.784   3.565   0.894
 5927SOL    HW218234   3.903   3.657   0.910
 5928SOL     OW18235   4.215   3.436   0.904
 5928SOL    HW118236   4.284   3.498   0.928
 5928SOL    HW218237   4.258   3.374   0.845
 5929SOL     OW18238   4.694   2.649   1.221
 5929SOL    HW118239   4.754   2.632   1.293
 5929SOL    HW218240   4.611   2.609   1.249
 5930SOL     OW18241   3.761   2.412   1.117
 5930SOL    HW118242   3.842   2.406   1.067
 5930SOL    HW218243   3.789   2.412   1.209
 5931SOL     OW18244   3.915   2.385   1.732
 5931SOL    HW118245   3.969   2.341   1.667
 5931SOL    HW218246   3.880   2.462   1.686
 5932SOL     OW18247   5.122   2.791   1.665
 5932SOL    HW118248   5.126   2.886   1.652
 5932SOL    HW218249   5.126   2.754   1.577
 5933SOL     OW18250   4.547   2.431   0.376
 5933SOL    HW118251   4.555   2.359   0.313
 5933SOL    HW218252   4.470   2.480   0.346
 5934SOL     OW18253   3.960   3.410   1.722
 5934SOL    HW118254   3.940   3.474   1.790
 5934SOL    HW218255   3.969   3.327   1.769
 5935SOL     OW18256   4.439   2.306   1.251
 5935SOL    HW118257   4.380   2.234   1.226
 5935SOL    HW218258   4.429   2.370   1.180
 5936SOL     OW18259   4.637   3.540   1.471
 5936SOL    HW118260   4.616   3.504   1.385
 5936SOL    HW218261   4.637   3.635   1.457
 5937SOL     OW18262   4.190   2.355   0.173
 5937SOL    HW118263   4.257   2.420   0.197
 5937SOL    HW218264   4.107   2.401   0.188
 5938SOL     OW18265   3.864   3.005   1.474
 5938SOL    HW118266   3.867   2.959   1.558
 5938SOL    HW218267   3.881   2.938   1.409
 5939SOL     OW18268   5.049   2.905   1.221
 5939SOL    HW118269   5.069   2.839   1.155
 5939SOL    HW218270   4.983   2.962   1.181
 5940SOL     OW18271   5.026   2.737   0.319
 5940SOL    HW118272   4.949   2.692   0.354
 5940SOL    HW218273   5.025   2.716   0.225
 5941SOL     OW18274   4.957   3.593   1.117
 5941SOL    HW118275   5.042   3.619   1.082
 5941SOL    HW218276   4.963   3.498   1.128
 5942SOL     OW18277   3.813   3.126   1.010
 5942SOL    HW118278   3.795   3.142   1.103
 5942SOL    HW218279   3.740   3.072   0.980
 5943SOL     OW18280   4.403   3.533   1.741
 5943SOL    HW118281   4.346   3.609   1.729
 5943SOL    HW218282   4.477   3.549   1.682
 5944SOL     OW18283   4.630   1.954   0.125
 5944SOL    HW118284   4.632   1.927   0.034
 5944SOL    HW218285   4.697   1.899   0.168
 5945SOL     OW18286   0.070   2.011   0.529
 5945SOL    HW118287   0.162   1.996   0.506
 5945SOL    HW218288   0.053   1.951   0.601
 5946SOL     OW18289   5.109   3.440   0.478
 5946SOL    HW118290   5.166   3.486   0.416
 5946SOL    HW218291   5.058   3.509   0.520
 5947SOL     OW18292   3.865   3.658   1.843
 5947SOL    HW118293   3.815   3.591   1.889
 5947SOL    HW218294   3.912   3.705   1.911
 5948SOL     OW18295   5.022   2.784   0.668
 5948SOL    HW118296   5.102   2.733   0.661
 5948SOL    HW218297   5.041   2.865   0.620
 5949SOL     OW18298   4.525   3.138   1.424
 5949SOL    HW118299   4.498   3.180   1.506
 5949SOL    HW218300   4.454   3.159   1.362
 5950SOL     OW18301   4.400   3.489   0.158
 5950SOL    HW118302   4.411   3.497   0.063
 5950SOL    HW218303   4.340   3.415   0.169
 5951SOL     OW18304   3.980   2.174   0.715
 5951SOL    HW118305   3.893   2.209   0.693
 5951SOL    HW218306   3.980   2.170   0.811
 5952SOL     OW18307   4.861   3.440   0.039
 5952SOL    HW118308   4.891   3.351   0.060
 5952SOL    HW218309   4.916   3.467   8.046
 5953SOL     OW18310   4.547   2.869   1.376
 5953SOL    HW118311   4.590   2.862   1.291
 5953SOL    HW218312   4.542   2.963   1.393
 5954SOL     OW18313   4.648   2.776   0.304
 5954SOL    HW118314   4.699   2.797   0.225
 5954SOL    HW218315   4.697   2.704   0.345
 5955SOL     OW18316   4.091   3.167   1.493
 5955SOL    HW118317   4.079   3.243   1.436
 5955SOL    HW218318   4.014   3.113   1.478
 5956SOL     OW18319   4.786   2.972   0.711
 5956SOL    HW118320   4.714   2.923   0.750
 5956SOL    HW218321   4.844   2.906   0.675
 5957SOL     OW18322   4.738   2.101   0.968
 5957SOL    HW118323   4.737   2.055   0.884
 5957SOL    HW218324   4.733   2.032   1.034
 5958SOL     OW18325   4.329   3.344   0.475
 5958SOL    HW118326   4.379   3.296   0.409
 5958SOL    HW218327   4.259   3.387   0.427
 5959SOL     OW18328   3.994   3.178   0.288
 5959SOL    HW118329   3.908   3.184   0.247
 5959SOL    HW218330   3.985   3.224   0.371
 5960SOL     OW18331   3.839   2.897   1.726
 5960SOL    HW118332   3.763   2.869   1.776
 5960SOL    HW218333   3.913   2.852   1.768
 5961SOL     OW18334   4.400   2.056   1.500
 5961SOL    HW118335   4.485   2.034   1.460
 5961SOL    HW218336   4.423   2.090   1.587
 5962SOL     OW18337   3.781   2.217   0.041
 5962SOL    HW118338   3.699   2.178   0.011
 5962SOL    HW218339   3.838   2.216   8.044
 5963SOL     OW18340   5.167   2.720   1.401
 5963SOL    HW118341   5.115   2.778   1.346
 5963SOL    HW218342   5.256   2.727   1.366
 5964SOL     OW18343   3.793   2.013   0.290
 5964SOL    HW118344   3.779   2.099   0.250
 5964SOL    HW218345   3.878   1.985   0.256
 5965SOL     OW18346   4.907   3.174   0.116
 5965SOL    HW118347   4.811   3.173   0.109
 5965SOL    HW218348   4.923   3.179   0.210
 5966SOL     OW18349   4.344   2.694   1.436
 5966SOL    HW118350   4.402   2.769   1.421
 5966SOL    HW218351   4.403   2.619   1.442
 5967SOL     OW18352   4.442   2.419   1.699
 5967SOL    HW118353   4.487   2.477   1.760
 5967SOL    HW218354   4.458   2.331   1.732
 5968SOL     OW18355   5.175   3.060   1.630
 5968SOL    HW118356   5.166   3.075   1.724
 5968SOL    HW218357   5.267   3.078   1.612
 5969SOL     OW18358   4.093   3.603   1.567
 5969SOL    HW118359   4.010   3.650   1.552
 5969SOL    HW218360   4.067   3.521   1.607
 5970SOL     OW18361   4.929   2.193   0.458
 5970SOL    HW118362   4.988   2.118   0.453
 5970SOL    HW218363   4.958   2.240   0.536
 5971SOL     OW18364   4.307   2.594   0.674
 5971SOL    HW118365   4.348   2.679   0.662
 5971SOL    HW218366   4.241   2.589   0.604
 5972SOL     OW18367   4.635   3.222   0.053
 5972SOL    HW118368   4.570   3.215   0.123
 5972SOL    HW218369   4.629   3.313   0.023
 5973SOL     OW18370   4.388   3.644   0.936
 5973SOL    HW118371   4.369   3.736   0.918
 5973SOL    HW218372   4.483   3.637   0.931
 5974SOL     OW18373   4.594   2.834   0.855
 5974SOL    HW118374   4.644   2.760   0.891
 5974SOL    HW218375   4.555   2.876   0.931
 5975SOL     OW18376   4.802   2.827   0.086
 5975SOL    HW118377   4.788   2.896   0.020
 5975SOL    HW218378   4.883   2.785   0.060
 5976SOL     OW18379   3.949   3.160   1.852
 5976SOL    HW118380   3.890   3.093   1.818
 5976SOL    HW218381   3.921   3.172   1.943
 5977SOL     OW18382   3.814   3.087   0.665
 5977SOL    HW118383   3.826   3.044   0.750
 5977SOL    HW218384   3.884   3.053   0.610
 5978SOL     OW18385   4.409   3.269   1.633
 5978SOL    HW118386   4.330   3.229   1.667
 5978SOL    HW218387   4.408   3.358   1.669
 5979SOL     OW18388   4.145   2.298   0.524
 5979SOL    HW118389   4.178   2.227   0.469
 5979SOL    HW218390   4.098   2.254   0.595
 5980SOL     OW18391   0.086   3.378   1.102
 5980SOL    HW118392   0.022   3.362   1.032
 5980SOL    HW218393   0.081   3.300   1.157
 5981SOL     OW18394   4.061   2.423   1.293
 5981SOL    HW118395   4.114   2.365   1.348
 5981SOL    HW218396   4.077   2.393   1.204
 5982SOL     OW18397   4.556   3.440   0.675
 5982SOL    HW118398   4.537   3.504   0.606
 5982SOL    HW218399   4.480   3.382   0.676
 5983SOL     OW18400   5.142   2.081   1.116
 5983SOL    HW118401   5.185   2.016   1.172
 5983SOL    HW218402   5.094   2.137   1.177
 5984SOL     OW18403   4.726   1.877   1.135
 5984SOL    HW118404   4.674   1.810   1.091
 5984SOL    HW218405   4.814   1.838   1.142
 5985SOL     OW18406   4.501   3.190   0.311
 5985SOL    HW118407   4.474   3.100   0.330
 5985SOL    HW218408   4.581   3.202   0.363
 5986SOL     OW18409   4.343   3.419   1.288
 5986SOL    HW118410   4.342   3.502   1.334
 5986SOL    HW218411   4.431   3.412   1.251
 5987SOL     OW18412   5.047   1.916   0.196
 5987SOL    HW118413   5.080   1.876   0.115
 5987SOL    HW218414   4.964   1.871   0.212
 5988SOL     OW18415   5.025   2.327   0.680
 5988SOL    HW118416   4.972   2.407   0.684
 5988SOL    HW218417   5.011   2.285   0.764
 5989SOL     OW18418   5.296   2.096   0.883
 5989SOL    HW118419   5.240   2.071   0.956
 5989SOL    HW218420   5.260   2.179   0.852
 5990SOL     OW18421   3.768   2.922   0.309
 5990SOL    HW118422   3.863   2.919   0.313
 5990SOL    HW218423   3.740   2.837   0.342
 5991SOL     OW18424   4.602   3.521   0.352
 5991SOL    HW118425   4.533   3.508   0.287
 5991SOL    HW218426   4.574   3.597   0.402
 5992SOL     OW18427   3.945   2.486   1.993
 5992SOL    HW118428   3.857   2.481   2.028
 5992SOL    HW218429   3.936   2.463   1.900
 5993SOL     OW18430   3.949   2.146   2.854
 5993SOL    HW118431   3.977   2.111   2.939
 5993SOL    HW218432   3.859   2.114   2.844
 5994SOL     OW18433   3.723   2.247   2.500
 5994SOL    HW118434   3.642   2.275   2.543
 5994SOL    HW218435   3.698   2.170   2.450
 5995SOL     OW18436   4.293   3.161   3.048
 5995SOL    HW118437   4.207   3.165   3.006
 5995SOL    HW218438   4.309   3.250   3.079
 5996SOL     OW18439   5.295   3.390   2.565
 5996SOL    HW118440   5.252   3.358   2.644
 5996SOL    HW218441   5.226   3.393   2.499
 5997SOL     OW18442   4.865   2.561   2.556
 5997SOL    HW118443   4.916   2.642   2.546
 5997SOL    HW218444   4.815   2.573   2.637
 5998SOL     OW18445   4.468   2.999   2.911
 5998SOL    HW118446   4.403   3.037   2.969
 5998SOL    HW218447   4.507   3.074   2.866
 5999SOL     OW18448   4.601   2.622   3.688
 5999SOL    HW118449   4.582   2.692   3.750
 5999SOL    HW218450   4.620   2.667   3.606
 6000SOL     OW18451   4.410   2.857   2.506
 6000SOL    HW118452   4.476   2.851   2.575
 6000SOL    HW218453   4.341   2.913   2.543
 6001SOL     OW18454   4.439   3.012   3.683
 6001SOL    HW118455   4.487   3.089   3.714
 6001SOL    HW218456   4.360   3.048   3.643
 6002SOL     OW18457   4.057   3.278   2.928
 6002SOL    HW118458   3.982   3.239   2.883
 6002SOL    HW218459   4.100   3.330   2.861
 6003SOL     OW18460   5.158   3.344   3.227
 6003SOL    HW118461   5.222   3.411   3.249
 6003SOL    HW218462   5.088   3.354   3.292
 6004SOL     OW18463   4.176   2.254   3.338
 6004SOL    HW118464   4.252   2.195   3.348
 6004SOL    HW218465   4.101   2.199   3.359
 6005SOL     OW18466   3.943   3.579   2.330
 6005SOL    HW118467   3.965   3.653   2.386
 6005SOL    HW218468   4.018   3.570   2.271
 6006SOL     OW18469   4.857   3.203   3.558
 6006SOL    HW118470   4.894   3.198   3.646
 6006SOL    HW218471   4.807   3.122   3.548
 6007SOL     OW18472   3.957   3.307   2.399
 6007SOL    HW118473   3.937   3.401   2.400
 6007SOL    HW218474   3.899   3.269   2.464
 6008SOL     OW18475   3.993   2.954   2.754
 6008SOL    HW118476   3.986   2.866   2.791
 6008SOL    HW218477   3.933   3.007   2.807
 6009SOL     OW18478   4.321   3.657   3.285
 6009SOL    HW118479   4.242   3.638   3.335
 6009SOL    HW218480   4.348   3.744   3.314
 6010SOL     OW18481   4.301   2.847   2.003
 6010SOL    HW118482   4.350   2.892   1.934
 6010SOL    HW218483   4.340   2.878   2.084
 6011SOL     OW18484   3.842   2.519   2.423
 6011SOL    HW118485   3.813   2.430   2.445
 6011SOL    HW218486   3.834   2.568   2.505
 6012SOL     OW18487   3.764   3.451   1.982
 6012SOL    HW118488   3.745   3.360   2.002
 6012SOL    HW218489   3.738   3.499   2.060
 6013SOL     OW18490   0.115   2.797   2.440
 6013SOL    HW118491   0.207   2.775   2.423
 6013SOL    HW218492   0.112   2.892   2.440
 6014SOL     OW18493   3.840   2.606   3.448
 6014SOL    HW118494   3.929   2.643   3.449
 6014SOL    HW218495   3.783   2.683   3.448
 6015SOL     OW18496   4.340   3.253   2.597
 6015SOL    HW118497   4.296   3.169   2.605
 6015SOL    HW218498   4.324   3.281   2.507
 6016SOL     OW18499   4.992   3.089   3.285
 6016SOL    HW118500   5.028   3.023   3.225
 6016SOL    HW218501   5.051   3.087   3.360
 6017SOL     OW18502   4.544   1.868   2.377
 6017SOL    HW118503   4.585   1.950   2.352
 6017SOL    HW218504   4.451   1.887   2.382
 6018SOL     OW18505   3.909   2.823   3.148
 6018SOL    HW118506   3.991   2.781   3.124
 6018SOL    HW218507   3.843   2.778   3.096
 6019SOL     OW18508   4.891   3.675   3.490
 6019SOL    HW118509   4.907   3.737   3.419
 6019SOL    HW218510   4.917   3.590   3.454
 6020SOL     OW18511   4.067   2.109   3.696
 6020SOL    HW118512   4.106   2.195   3.714
 6020SOL    HW218513   3.974   2.122   3.713
 6021SOL     OW18514   5.163   3.303   2.789
 6021SOL    HW118515   5.105   3.310   2.865
 6021SOL    HW218516   5.158   3.211   2.763
 6022SOL     OW18517   4.318   2.578   2.133
 6022SOL    HW118518   4.320   2.662   2.088
 6022SOL    HW218519   4.253   2.589   2.202
 6023SOL     OW18520   4.993   2.200   2.776
 6023SOL    HW118521   4.904   2.172   2.798
 6023SOL    HW218522   5.047   2.165   2.847
 6024SOL     OW18523   4.513   2.480   3.307
 6024SOL    HW118524   4.488   2.453   3.396
 6024SOL    HW218525   4.480   2.409   3.251
 6025SOL     OW18526   5.113   2.348   3.545
 6025SOL    HW118527   5.117   2.380   3.635
 6025SOL    HW218528   5.197   2.303   3.532
 6026SOL     OW18529   4.671   2.747   3.449
 6026SOL    HW118530   4.725   2.678   3.410
 6026SOL    HW218531   4.622   2.785   3.376
 6027SOL     OW18532   4.717   2.270   3.093
 6027SOL    HW118533   4.627   2.286   3.121
 6027SOL    HW218534   4.709   2.228   3.007
 6028SOL     OW18535   4.778   2.561   2.286
 6028SOL    HW118536   4.798   2.555   2.379
 6028SOL    HW218537   4.694   2.516   2.276
 6029SOL     OW18538   3.810   2.687   2.639
 6029SOL    HW118539   3.891   2.679   2.690
 6029SOL    HW218540   3.764   2.761   2.677
 6030SOL     OW18541   3.848   3.736   3.446
 6030SOL    HW118542   3.852   3.713   3.539
 6030SOL    HW218543   3.765   3.698   3.416
 6031SOL     OW18544   4.623   2.211   2.057
 6031SOL    HW118545   4.662   2.274   1.996
 6031SOL    HW218546   4.633   2.127   2.012
 6032SOL     OW18547   5.101   3.019   2.418
 6032SOL    HW118548   5.191   3.032   2.389
 6032SOL    HW218549   5.048   3.071   2.357
 6033SOL     OW18550   4.275   2.037   2.761
 6033SOL    HW118551   4.277   2.068   2.851
 6033SOL    HW218552   4.274   2.116   2.708
 6034SOL     OW18553   4.723   3.304   2.330
 6034SOL    HW118554   4.689   3.379   2.280
 6034SOL    HW218555   4.699   3.323   2.421
 6035SOL     OW18556   4.078   3.677   2.734
 6035SOL    HW118557   4.122   3.592   2.739
 6035SOL    HW218558   4.146   3.741   2.752
 6036SOL     OW18559   4.935   3.400   3.378
 6036SOL    HW118560   4.924   3.329   3.441
 6036SOL    HW218561   4.865   3.386   3.313
 6037SOL     OW18562   4.037   2.823   2.117
 6037SOL    HW118563   4.119   2.842   2.073
 6037SOL    HW218564   4.008   2.739   2.080
 6038SOL     OW18565   4.194   3.131   3.601
 6038SOL    HW118566   4.168   3.136   3.509
 6038SOL    HW218567   4.112   3.126   3.649
 6039SOL     OW18568   4.829   3.636   2.102
 6039SOL    HW118569   4.754   3.595   2.144
 6039SOL    HW218570   4.854   3.576   2.032
 6040SOL     OW18571   3.927   2.132   3.365
 6040SOL    HW118572   3.848   2.186   3.370
 6040SOL    HW218573   3.902   2.049   3.405
 6041SOL     OW18574   4.186   3.598   2.181
 6041SOL    HW118575   4.232   3.654   2.244
 6041SOL    HW218576   4.256   3.563   2.125
 6042SOL     OW18577   5.111   1.967   2.285
 6042SOL    HW118578   5.095   1.948   2.192
 6042SOL    HW218579   5.205   1.986   2.289
 6043SOL     OW18580   3.981   3.652   3.089
 6043SOL    HW118581   4.029   3.580   3.130
 6043SOL    HW218582   3.972   3.625   2.998
 6044SOL     OW18583   4.665   3.561   2.757
 6044SOL    HW118584   4.747   3.515   2.775
 6044SOL    HW218585   4.623   3.510   2.687
 6045SOL     OW18586   4.121   2.556   2.334
 6045SOL    HW118587   4.137   2.462   2.348
 6045SOL    HW218588   4.028   2.567   2.351
 6046SOL     OW18589   4.371   1.979   1.964
 6046SOL    HW118590   4.430   1.905   1.982
 6046SOL    HW218591   4.316   1.948   1.891
 6047SOL     OW18592   4.485   2.141   3.619
 6047SOL    HW118593   4.567   2.091   3.615
 6047SOL    HW218594   4.440   2.108   3.696
 6048SOL     OW18595   4.597   3.387   3.056
 6048SOL    HW118596   4.581   3.349   2.970
 6048SOL    HW218597   4.667   3.333   3.094
 6049SOL     OW18598   5.055   2.456   3.295
 6049SOL    HW118599   5.085   2.427   3.381
 6049SOL    HW218600   5.100   2.539   3.280
 6050SOL     OW18601   4.541   3.250   2.810
 6050SOL    HW118602   4.626   3.238   2.767
 6050SOL    HW218603   4.479   3.258   2.737
 6051SOL     OW18604   4.652   2.371   2.761
 6051SOL    HW118605   4.628   2.361   2.669
 6051SOL    HW218606   4.681   2.283   2.787
 6052SOL     OW18607   4.277   1.925   2.357
 6052SOL    HW118608   4.198   1.925   2.410
 6052SOL    HW218609   4.268   2.002   2.301
 6053SOL     OW18610   5.129   3.047   1.906
 6053SOL    HW118611   5.128   2.964   1.954
 6053SOL    HW218612   5.044   3.087   1.926
 6054SOL     OW18613   4.013   1.910   2.048
 6054SOL    HW118614   4.069   1.974   2.006
 6054SOL    HW218615   4.073   1.849   2.090
 6055SOL     OW18616   4.665   2.112   2.316
 6055SOL    HW118617   4.640   2.149   2.231
 6055SOL    HW218618   4.759   2.127   2.322
 6056SOL     OW18619   4.800   2.548   3.319
 6056SOL    HW118620   4.736   2.477   3.320
 6056SOL    HW218621   4.884   2.504   3.310
 6057SOL     OW18622   4.935   3.433   2.655
 6057SOL    HW118623   4.954   3.502   2.592
 6057SOL    HW218624   5.019   3.414   2.697
 6058SOL     OW18625   4.198   3.016   2.587
 6058SOL    HW118626   4.132   2.995   2.654
 6058SOL    HW218627   4.152   3.003   2.504
 6059SOL     OW18628   4.988   3.656   2.472
 6059SOL    HW118629   5.029   3.717   2.410
 6059SOL    HW218630   4.919   3.708   2.514
 6060SOL     OW18631   4.748   2.395   1.888
 6060SOL    HW118632   4.703   2.478   1.869
 6060SOL    HW218633   4.808   2.417   1.959
 6061SOL     OW18634   3.809   2.414   3.256
 6061SOL    HW118635   3.901   2.415   3.228
 6061SOL    HW218636   3.802   2.484   3.320
 6062SOL     OW18637   4.281   2.089   3.034
 6062SOL    HW118638   4.323   2.018   3.082
 6062SOL    HW218639   4.189   2.086   3.061
 6063SOL     OW18640   4.591   2.319   2.499
 6063SOL    HW118641   4.547   2.376   2.436
 6063SOL    HW218642   4.613   2.241   2.449
 6064SOL     OW18643   4.741   1.916   2.608
 6064SOL    HW118644   4.682   1.911   2.533
 6064SOL    HW218645   4.717   1.842   2.663
 6065SOL     OW18646   5.153   3.040   2.713
 6065SOL    HW118647   5.101   2.962   2.732
 6065SOL    HW218648   5.161   3.041   2.618
 6066SOL     OW18649   4.213   3.284   2.013
 6066SOL    HW118650   4.137   3.255   2.064
 6066SOL    HW218651   4.208   3.232   1.932
 6067SOL     OW18652   5.131   2.417   1.950
 6067SOL    HW118653   5.052   2.409   2.004
 6067SOL    HW218654   5.202   2.387   2.006
 6068SOL     OW18655   4.250   2.124   2.172
 6068SOL    HW118656   4.300   2.080   2.103
 6068SOL    HW218657   4.222   2.206   2.132
 6069SOL     OW18658   4.772   3.217   3.194
 6069SOL    HW118659   4.696   3.185   3.242
 6069SOL    HW218660   4.846   3.173   3.234
 6070SOL     OW18661   0.009   3.475   3.473
 6070SOL    HW118662   0.045   3.473   3.384
 6070SOL    HW218663   0.082   3.447   3.528
 6071SOL     OW18664   4.862   3.075   2.965
 6071SOL    HW118665   4.796   3.106   3.027
 6071SOL    HW218666   4.830   3.104   2.880
 6072SOL     OW18667   4.642   1.954   3.254
 6072SOL    HW118668   4.663   1.937   3.163
 6072SOL    HW218669   4.721   1.993   3.290
 6073SOL     OW18670   4.709   2.973   3.589
 6073SOL    HW118671   4.618   2.992   3.614
 6073SOL    HW218672   4.704   2.896   3.533
 6074SOL     OW18673   4.435   2.925   2.233
 6074SOL    HW118674   4.420   2.903   2.325
 6074SOL    HW218675   4.510   2.871   2.208
 6075SOL     OW18676   4.144   2.681   3.112
 6075SOL    HW118677   4.211   2.692   3.180
 6075SOL    HW218678   4.110   2.593   3.127
 6076SOL     OW18679   4.985   2.235   3.145
 6076SOL    HW118680   5.019   2.315   3.184
 6076SOL    HW218681   4.895   2.256   3.121
 6077SOL     OW18682   3.798   3.439   3.223
 6077SOL    HW118683   3.770   3.507   3.162
 6077SOL    HW218684   3.893   3.436   3.212
 6078SOL     OW18685   4.059   2.982   2.351
 6078SOL    HW118686   4.061   3.056   2.290
 6078SOL    HW218687   4.058   2.905   2.295
 6079SOL     OW18688   4.270   2.392   2.721
 6079SOL    HW118689   4.284   2.451   2.647
 6079SOL    HW218690   4.337   2.417   2.784
 6080SOL     OW18691   4.970   3.215   2.248
 6080SOL    HW118692   5.025   3.287   2.280
 6080SOL    HW218693   4.883   3.234   2.282
 6081SOL     OW18694   5.005   3.320   3.005
 6081SOL    HW118695   5.055   3.321   3.086
 6081SOL    HW218696   4.950   3.242   3.011
 6082SOL     OW18697   4.069   3.394   3.170
 6082SOL    HW118698   4.057   3.346   3.088
 6082SOL    HW218699   4.163   3.404   3.179
 6083SOL     OW18700   4.142   2.608   3.466
 6083SOL    HW118701   4.204   2.650   3.408
 6083SOL    HW218702   4.179   2.521   3.482
 6084SOL     OW18703   4.718   1.998   3.618
 6084SOL    HW118704   4.777   2.070   3.596
 6084SOL    HW218705   4.764   1.919   3.590
 6085SOL     OW18706   4.220   1.897   3.613
 6085SOL    HW118707   4.172   1.845   3.549
 6085SOL    HW218708   4.165   1.973   3.629
 6086SOL     OW18709   4.310   2.736   2.895
 6086SOL    HW118710   4.342   2.826   2.898
 6086SOL    HW218711   4.251   2.729   2.970
 6087SOL     OW18712   5.087   2.715   2.894
 6087SOL    HW118713   5.010   2.684   2.846
 6087SOL    HW218714   5.151   2.645   2.883
 6088SOL     OW18715   4.918   2.392   2.119
 6088SOL    HW118716   4.926   2.313   2.173
 6088SOL    HW218717   4.878   2.456   2.178
 6089SOL     OW18718   4.019   2.058   3.109
 6089SOL    HW118719   3.983   2.090   3.192
 6089SOL    HW218720   4.001   1.964   3.109
 6090SOL     OW18721   3.795   3.176   3.131
 6090SOL    HW118722   3.813   3.118   3.205
 6090SOL    HW218723   3.783   3.262   3.171
 6091SOL     OW18724   4.442   2.490   2.913
 6091SOL    HW118725   4.520   2.479   2.858
 6091SOL    HW218726   4.413   2.580   2.897
 6092SOL     OW18727   4.034   1.923   2.487
 6092SOL    HW118728   4.009   2.013   2.507
 6092SOL    HW218729   4.041   1.880   2.572
 6093SOL     OW18730   0.030   2.281   2.211
 6093SOL    HW118731   0.041   2.196   2.255
 6093SOL    HW218732   0.040   2.345   2.282
 6094SOL     OW18733   4.751   2.620   2.816
 6094SOL    HW118734   4.744   2.637   2.910
 6094SOL    HW218735   4.725   2.528   2.807
 6095SOL     OW18736   4.694   3.424   3.580
 6095SOL    HW118737   4.682   3.470   3.496
 6095SOL    HW218738   4.740   3.344   3.557
 6096SOL     OW18739   4.079   2.777   3.673
 6096SOL    HW118740   4.160   2.795   3.721
 6096SOL    HW218741   4.104   2.715   3.605
 6097SOL     OW18742   5.030   2.688   1.899
 6097SOL    HW118743   5.067   2.600   1.904
 6097SOL    HW218744   5.059   2.722   1.814
 6098SOL     OW18745   4.792   3.198   2.721
 6098SOL    HW118746   4.798   3.127   2.657
 6098SOL    HW218747   4.844   3.269   2.683
 6099SOL     OW18748   4.032   2.671   2.805
 6099SOL    HW118749   4.125   2.691   2.800
 6099SOL    HW218750   4.029   2.581   2.838
 6100SOL     OW18751   4.050   2.393   2.876
 6100SOL    HW118752   4.014   2.305   2.863
 6100SOL    HW218753   4.126   2.396   2.819
 6101SOL     OW18754   4.857   2.234   3.547
 6101SOL    HW118755   4.808   2.289   3.609
 6101SOL    HW218756   4.944   2.276   3.543
 6102SOL     OW18757   4.885   2.058   3.334
 6102SOL    HW118758   4.873   2.120   3.406
 6102SOL    HW218759   4.925   2.110   3.265
 6103SOL     OW18760   3.732   3.178   2.055
 6103SOL    HW118761   3.645   3.195   2.020
 6103SOL    HW218762   3.727   3.089   2.091
 6104SOL     OW18763   3.814   3.643   2.804
 6104SOL    HW118764   3.783   3.565   2.757
 6104SOL    HW218765   3.903   3.657   2.772
 6105SOL     OW18766   4.215   3.437   2.765
 6105SOL    HW118767   4.284   3.499   2.789
 6105SOL    HW218768   4.258   3.374   2.708
 6106SOL     OW18769   4.694   2.649   3.083
 6106SOL    HW118770   4.754   2.631   3.156
 6106SOL    HW218771   4.611   2.609   3.110
 6107SOL     OW18772   3.759   2.410   2.980
 6107SOL    HW118773   3.841   2.408   2.930
 6107SOL    HW218774   3.787   2.414   3.071
 6108SOL     OW18775   3.918   2.384   3.592
 6108SOL    HW118776   3.972   2.342   3.526
 6108SOL    HW218777   3.881   2.460   3.548
 6109SOL     OW18778   5.122   2.791   3.528
 6109SOL    HW118779   5.126   2.886   3.514
 6109SOL    HW218780   5.126   2.754   3.439
 6110SOL     OW18781   4.542   2.432   2.229
 6110SOL    HW118782   4.547   2.358   2.168
 6110SOL    HW218783   4.467   2.483   2.198
 6111SOL     OW18784   3.961   3.410   3.585
 6111SOL    HW118785   3.940   3.473   3.654
 6111SOL    HW218786   3.968   3.326   3.631
 6112SOL     OW18787   4.439   2.306   3.113
 6112SOL    HW118788   4.380   2.234   3.088
 6112SOL    HW218789   4.430   2.370   3.042
 6113SOL     OW18790   4.638   3.540   3.332
 6113SOL    HW118791   4.616   3.503   3.247
 6113SOL    HW218792   4.637   3.635   3.319
 6114SOL     OW18793   4.182   2.353   2.041
 6114SOL    HW118794   4.242   2.423   2.066
 6114SOL    HW218795   4.097   2.396   2.033
 6115SOL     OW18796   3.865   3.005   3.341
 6115SOL    HW118797   3.869   2.959   3.425
 6115SOL    HW218798   3.881   2.938   3.275
 6116SOL     OW18799   5.050   2.905   3.083
 6116SOL    HW118800   5.069   2.839   3.016
 6116SOL    HW218801   4.984   2.962   3.043
 6117SOL     OW18802   5.041   2.726   2.178
 6117SOL    HW118803   4.961   2.691   2.218
 6117SOL    HW218804   5.028   2.715   2.084
 6118SOL     OW18805   4.956   3.593   2.978
 6118SOL    HW118806   5.043   3.619   2.946
 6118SOL    HW218807   4.963   3.498   2.990
 6119SOL     OW18808   3.811   3.129   2.867
 6119SOL    HW118809   3.801   3.145   2.961
 6119SOL    HW218810   3.737   3.074   2.844
 6120SOL     OW18811   4.403   3.533   3.603
 6120SOL    HW118812   4.346   3.609   3.591
 6120SOL    HW218813   4.477   3.549   3.544
 6121SOL     OW18814   0.063   2.029   2.404
 6121SOL    HW118815   0.128   2.003   2.338
 6121SOL    HW218816   0.062   1.957   2.466
 6122SOL     OW18817   5.112   3.435   2.352
 6122SOL    HW118818   5.180   3.480   2.303
 6122SOL    HW218819   5.056   3.505   2.385
 6123SOL     OW18820   3.864   3.660   3.704
 6123SOL    HW118821   3.815   3.592   3.750
 6123SOL    HW218822   3.912   3.706   3.773
 6124SOL     OW18823   5.021   2.784   2.528
 6124SOL    HW118824   5.101   2.732   2.522
 6124SOL    HW218825   5.041   2.865   2.482
 6125SOL     OW18826   4.524   3.139   3.285
 6125SOL    HW118827   4.497   3.180   3.367
 6125SOL    HW218828   4.453   3.158   3.224
 6126SOL     OW18829   4.391   3.489   2.018
 6126SOL    HW118830   4.404   3.503   1.924
 6126SOL    HW218831   4.335   3.411   2.022
 6127SOL     OW18832   3.980   2.174   2.576
 6127SOL    HW118833   3.894   2.209   2.553
 6127SOL    HW218834   3.980   2.170   2.671
 6128SOL     OW18835   4.903   3.468   1.907
 6128SOL    HW118836   4.914   3.374   1.918
 6128SOL    HW218837   4.845   3.477   1.832
 6129SOL     OW18838   4.547   2.869   3.238
 6129SOL    HW118839   4.588   2.863   3.152
 6129SOL    HW218840   4.542   2.963   3.255
 6130SOL     OW18841   4.642   2.773   2.153
 6130SOL    HW118842   4.703   2.805   2.086
 6130SOL    HW218843   4.690   2.705   2.199
 6131SOL     OW18844   4.091   3.168   3.355
 6131SOL    HW118845   4.078   3.244   3.297
 6131SOL    HW218846   4.015   3.113   3.340
 6132SOL     OW18847   4.786   2.972   2.572
 6132SOL    HW118848   4.714   2.923   2.611
 6132SOL    HW218849   4.846   2.904   2.540
 6133SOL     OW18850   4.738   2.102   2.831
 6133SOL    HW118851   4.737   2.056   2.747
 6133SOL    HW218852   4.733   2.032   2.896
 6134SOL     OW18853   4.329   3.350   2.342
 6134SOL    HW118854   4.379   3.300   2.278
 6134SOL    HW218855   4.254   3.383   2.294
 6135SOL     OW18856   3.987   3.204   2.155
 6135SOL    HW118857   3.895   3.200   2.130
 6135SOL    HW218858   3.987   3.244   2.242
 6136SOL     OW18859   3.846   2.899   3.595
 6136SOL    HW118860   3.770   2.861   3.640
 6136SOL    HW218861   3.921   2.853   3.633
 6137SOL     OW18862   4.400   2.056   3.362
 6137SOL    HW118863   4.485   2.034   3.322
 6137SOL    HW218864   4.423   2.090   3.449
 6138SOL     OW18865   3.805   2.189   1.892
 6138SOL    HW118866   3.719   2.170   1.854
 6138SOL    HW218867   3.835   2.267   1.846
 6139SOL     OW18868   5.167   2.720   3.263
 6139SOL    HW118869   5.115   2.778   3.208
 6139SOL    HW218870   5.256   2.727   3.227
 6140SOL     OW18871   3.784   2.016   2.162
 6140SOL    HW118872   3.772   2.094   2.108
 6140SOL    HW218873   3.870   1.982   2.135
 6141SOL     OW18874   4.901   3.188   1.976
 6141SOL    HW118875   4.807   3.168   1.977
 6141SOL    HW218876   4.925   3.194   2.068
 6142SOL     OW18877   4.343   2.693   3.296
 6142SOL    HW118878   4.401   2.768   3.282
 6142SOL    HW218879   4.403   2.618   3.303
 6143SOL     OW18880   4.443   2.419   3.560
 6143SOL    HW118881   4.487   2.477   3.622
 6143SOL    HW218882   4.459   2.331   3.594
 6144SOL     OW18883   5.175   3.060   3.492
 6144SOL    HW118884   5.165   3.076   3.586
 6144SOL    HW218885   5.267   3.078   3.474
 6145SOL     OW18886   4.093   3.604   3.429
 6145SOL    HW118887   4.011   3.650   3.413
 6145SOL    HW218888   4.067   3.521   3.469
 6146SOL     OW18889   4.935   2.183   2.313
 6146SOL    HW118890   4.995   2.109   2.303
 6146SOL    HW218891   4.966   2.228   2.392
 6147SOL     OW18892   4.311   2.594   2.535
 6147SOL    HW118893   4.351   2.680   2.522
 6147SOL    HW218894   4.246   2.587   2.465
 6148SOL     OW18895   4.595   3.226   1.908
 6148SOL    HW118896   4.553   3.255   1.989
 6148SOL    HW218897   4.605   3.306   1.857
 6149SOL     OW18898   4.388   3.644   2.798
 6149SOL    HW118899   4.369   3.737   2.781
 6149SOL    HW218900   4.483   3.638   2.793
 6150SOL     OW18901   4.594   2.835   2.716
 6150SOL    HW118902   4.643   2.761   2.752
 6150SOL    HW218903   4.554   2.877   2.792
 6151SOL     OW18904   4.808   2.847   1.953
 6151SOL    HW118905   4.784   2.897   1.875
 6151SOL    HW218906   4.882   2.793   1.924
 6152SOL     OW18907   3.946   3.157   3.712
 6152SOL    HW118908   3.895   3.085   3.674
 6152SOL    HW218909   3.907   3.171   3.798
 6153SOL     OW18910   3.813   3.091   2.528
 6153SOL    HW118911   3.823   3.048   2.613
 6153SOL    HW218912   3.881   3.051   2.473
 6154SOL     OW18913   4.410   3.269   3.496
 6154SOL    HW118914   4.330   3.228   3.529
 6154SOL    HW218915   4.408   3.358   3.531
 6155SOL     OW18916   4.151   2.294   2.387
 6155SOL    HW118917   4.183   2.224   2.330
 6155SOL    HW218918   4.102   2.250   2.455
 6156SOL     OW18919   0.090   3.373   2.961
 6156SOL    HW118920   0.022   3.359   2.895
 6156SOL    HW218921   0.082   3.299   3.021
 6157SOL     OW18922   4.060   2.422   3.156
 6157SOL    HW118923   4.114   2.364   3.209
 6157SOL    HW218924   4.076   2.393   3.066
 6158SOL     OW18925   4.557   3.440   2.536
 6158SOL    HW118926   4.536   3.505   2.469
 6158SOL    HW218927   4.481   3.382   2.537
 6159SOL     OW18928   5.140   2.082   2.978
 6159SOL    HW118929   5.186   2.019   3.034
 6159SOL    HW218930   5.092   2.137   3.040
 6160SOL     OW18931   4.726   1.877   2.997
 6160SOL    HW118932   4.673   1.810   2.953
 6160SOL    HW218933   4.813   1.838   3.003
 6161SOL     OW18934   4.497   3.195   2.184
 6161SOL    HW118935   4.471   3.104   2.192
 6161SOL    HW218936   4.579   3.201   2.233
 6162SOL     OW18937   4.343   3.418   3.150
 6162SOL    HW118938   4.342   3.502   3.197
 6162SOL    HW218939   4.431   3.412   3.113
 6163SOL     OW18940   5.053   1.903   2.027
 6163SOL    HW118941   5.065   1.866   1.939
 6163SOL    HW218942   4.968   1.870   2.056
 6164SOL     OW18943   5.024   2.321   2.537
 6164SOL    HW118944   4.972   2.401   2.541
 6164SOL    HW218945   5.011   2.280   2.623
 6165SOL     OW18946   0.001   2.092   2.751
 6165SOL    HW118947   5.237   2.079   2.821
 6165SOL    HW218948   5.268   2.167   2.701
 6166SOL     OW18949   3.766   2.926   2.170
 6166SOL    HW118950   3.859   2.919   2.152
 6166SOL    HW218951   3.738   2.837   2.191
 6167SOL     OW18952   4.602   3.518   2.206
 6167SOL    HW118953   4.529   3.505   2.146
 6167SOL    HW218954   4.577   3.593   2.260
 6168SOL     OW18955   3.949   2.484   3.852
 6168SOL    HW118956   3.860   2.484   3.886
 6168SOL    HW218957   3.939   2.461   3.759
 6169SOL     OW18958   3.947   2.147   4.717
 6169SOL    HW118959   3.975   2.111   4.801
 6169SOL    HW218960   3.858   2.115   4.705
 6170SOL     OW18961   3.725   2.250   4.363
 6170SOL    HW118962   3.647   2.280   4.409
 6170SOL    HW218963   3.696   2.173   4.314
 6171SOL     OW18964   4.292   3.161   4.910
 6171SOL    HW118965   4.208   3.167   4.866
 6171SOL    HW218966   4.309   3.250   4.941
 6172SOL     OW18967   5.295   3.390   4.427
 6172SOL    HW118968   5.252   3.358   4.506
 6172SOL    HW218969   5.226   3.394   4.361
 6173SOL     OW18970   4.865   2.561   4.418
 6173SOL    HW118971   4.916   2.642   4.408
 6173SOL    HW218972   4.815   2.573   4.499
 6174SOL     OW18973   4.467   2.999   4.773
 6174SOL    HW118974   4.402   3.037   4.831
 6174SOL    HW218975   4.506   3.074   4.728
 6175SOL     OW18976   4.601   2.622   5.549
 6175SOL    HW118977   4.584   2.692   5.612
 6175SOL    HW218978   4.620   2.667   5.467
 6176SOL     OW18979   4.410   2.857   4.367
 6176SOL    HW118980   4.476   2.851   4.437
 6176SOL    HW218981   4.342   2.913   4.404
 6177SOL     OW18982   4.439   3.012   5.546
 6177SOL    HW118983   4.487   3.088   5.576
 6177SOL    HW218984   4.360   3.047   5.505
 6178SOL     OW18985   4.055   3.278   4.791
 6178SOL    HW118986   3.982   3.238   4.744
 6178SOL    HW218987   4.100   3.330   4.724
 6179SOL     OW18988   5.158   3.344   5.089
 6179SOL    HW118989   5.223   3.411   5.110
 6179SOL    HW218990   5.089   3.355   5.154
 6180SOL     OW18991   4.176   2.254   5.201
 6180SOL    HW118992   4.251   2.197   5.210
 6180SOL    HW218993   4.101   2.199   5.221
 6181SOL     OW18994   3.942   3.580   4.192
 6181SOL    HW118995   3.965   3.654   4.248
 6181SOL    HW218996   4.017   3.570   4.133
 6182SOL     OW18997   4.857   3.204   5.420
 6182SOL    HW118998   4.895   3.198   5.508
 6182SOL    HW218999   4.807   3.123   5.410
 6183SOL     OW19000   3.960   3.309   4.263
 6183SOL    HW119001   3.937   3.402   4.263
 6183SOL    HW219002   3.901   3.270   4.327
 6184SOL     OW19003   3.996   2.954   4.619
 6184SOL    HW119004   3.990   2.865   4.654
 6184SOL    HW219005   3.935   3.005   4.671
 6185SOL     OW19006   4.320   3.658   5.145
 6185SOL    HW119007   4.242   3.639   5.196
 6185SOL    HW219008   4.348   3.744   5.175
 6186SOL     OW19009   4.303   2.846   3.864
 6186SOL    HW119010   4.351   2.892   3.796
 6186SOL    HW219011   4.341   2.878   3.946
 6187SOL     OW19012   3.845   2.514   4.284
 6187SOL    HW119013   3.812   2.427   4.307
 6187SOL    HW219014   3.836   2.565   4.365
 6188SOL     OW19015   3.766   3.453   3.844
 6188SOL    HW119016   3.746   3.361   3.862
 6188SOL    HW219017   3.739   3.500   3.922
 6189SOL     OW19018   0.116   2.797   4.302
 6189SOL    HW119019   0.207   2.776   4.285
 6189SOL    HW219020   0.112   2.892   4.302
 6190SOL     OW19021   3.851   2.607   5.309
 6190SOL    HW119022   3.942   2.637   5.310
 6190SOL    HW219023   3.800   2.688   5.314
 6191SOL     OW19024   4.340   3.254   4.459
 6191SOL    HW119025   4.296   3.169   4.467
 6191SOL    HW219026   4.323   3.281   4.369
 6192SOL     OW19027   4.992   3.089   5.147
 6192SOL    HW119028   5.028   3.023   5.087
 6192SOL    HW219029   5.051   3.087   5.222
 6193SOL     OW19030   4.544   1.868   4.239
 6193SOL    HW119031   4.585   1.950   4.214
 6193SOL    HW219032   4.451   1.887   4.244
 6194SOL     OW19033   3.911   2.822   5.002
 6194SOL    HW119034   3.998   2.785   4.989
 6194SOL    HW219035   3.855   2.773   4.942
 6195SOL     OW19036   4.890   3.674   5.352
 6195SOL    HW119037   4.907   3.737   5.281
 6195SOL    HW219038   4.916   3.590   5.316
 6196SOL     OW19039   4.068   2.110   5.558
 6196SOL    HW119040   4.108   2.195   5.578
 6196SOL    HW219041   3.975   2.122   5.576
 6197SOL     OW19042   5.162   3.303   4.650
 6197SOL    HW119043   5.105   3.310   4.727
 6197SOL    HW219044   5.158   3.211   4.625
 6198SOL     OW19045   4.319   2.578   3.996
 6198SOL    HW119046   4.320   2.662   3.950
 6198SOL    HW219047   4.253   2.589   4.065
 6199SOL     OW19048   4.992   2.200   4.639
 6199SOL    HW119049   4.904   2.172   4.660
 6199SOL    HW219050   5.047   2.165   4.709
 6200SOL     OW19051   4.513   2.479   5.170
 6200SOL    HW119052   4.488   2.452   5.258
 6200SOL    HW219053   4.480   2.409   5.113
 6201SOL     OW19054   5.113   2.348   5.407
 6201SOL    HW119055   5.117   2.380   5.497
 6201SOL    HW219056   5.197   2.303   5.394
 6202SOL     OW19057   4.671   2.747   5.311
 6202SOL    HW119058   4.725   2.678   5.272
 6202SOL    HW219059   4.623   2.784   5.238
 6203SOL     OW19060   4.717   2.270   4.955
 6203SOL    HW119061   4.627   2.286   4.982
 6203SOL    HW219062   4.709   2.228   4.869
 6204SOL     OW19063   4.778   2.561   4.148
 6204SOL    HW119064   4.798   2.555   4.241
 6204SOL    HW219065   4.694   2.516   4.138
 6205SOL     OW19066   3.820   2.679   4.499
 6205SOL    HW119067   3.897   2.678   4.556
 6205SOL    HW219068   3.768   2.754   4.530
 6206SOL     OW19069   3.847   3.734   5.308
 6206SOL    HW119070   3.852   3.711   5.401
 6206SOL    HW219071   3.762   3.702   5.280
 6207SOL     OW19072   4.623   2.211   3.919
 6207SOL    HW119073   4.662   2.274   3.858
 6207SOL    HW219074   4.631   2.127   3.874
 6208SOL     OW19075   5.100   3.019   4.280
 6208SOL    HW119076   5.191   3.031   4.251
 6208SOL    HW219077   5.048   3.071   4.219
 6209SOL     OW19078   4.275   2.036   4.623
 6209SOL    HW119079   4.277   2.068   4.713
 6209SOL    HW219080   4.274   2.116   4.569
 6210SOL     OW19081   4.723   3.305   4.192
 6210SOL    HW119082   4.689   3.379   4.142
 6210SOL    HW219083   4.699   3.324   4.283
 6211SOL     OW19084   4.078   3.677   4.596
 6211SOL    HW119085   4.123   3.593   4.601
 6211SOL    HW219086   4.146   3.742   4.614
 6212SOL     OW19087   4.935   3.400   5.240
 6212SOL    HW119088   4.924   3.329   5.303
 6212SOL    HW219089   4.866   3.384   5.175
 6213SOL     OW19090   4.039   2.822   3.979
 6213SOL    HW119091   4.120   2.842   3.933
 6213SOL    HW219092   4.009   2.739   3.942
 6214SOL     OW19093   4.195   3.131   5.463
 6214SOL    HW119094   4.169   3.135   5.371
 6214SOL    HW219095   4.112   3.127   5.511
 6215SOL     OW19096   4.829   3.636   3.964
 6215SOL    HW119097   4.754   3.595   4.006
 6215SOL    HW219098   4.854   3.575   3.894
 6216SOL     OW19099   3.927   2.130   5.228
 6216SOL    HW119100   3.848   2.183   5.232
 6216SOL    HW219101   3.903   2.046   5.265
 6217SOL     OW19102   4.186   3.599   4.043
 6217SOL    HW119103   4.232   3.654   4.106
 6217SOL    HW219104   4.255   3.563   3.987
 6218SOL     OW19105   5.111   1.967   4.147
 6218SOL    HW119106   5.095   1.948   4.054
 6218SOL    HW219107   5.205   1.986   4.151
 6219SOL     OW19108   3.978   3.651   4.952
 6219SOL    HW119109   4.030   3.581   4.992
 6219SOL    HW219110   3.972   3.626   4.860
 6220SOL     OW19111   4.665   3.561   4.619
 6220SOL    HW119112   4.747   3.515   4.635
 6220SOL    HW219113   4.623   3.510   4.549
 6221SOL     OW19114   4.122   2.555   4.197
 6221SOL    HW119115   4.138   2.462   4.211
 6221SOL    HW219116   4.028   2.566   4.214
 6222SOL     OW19117   4.371   1.978   3.825
 6222SOL    HW119118   4.430   1.905   3.843
 6222SOL    HW219119   4.316   1.948   3.753
 6223SOL     OW19120   4.485   2.142   5.481
 6223SOL    HW119121   4.567   2.091   5.477
 6223SOL    HW219122   4.440   2.108   5.558
 6224SOL     OW19123   4.597   3.386   4.918
 6224SOL    HW119124   4.581   3.348   4.832
 6224SOL    HW219125   4.667   3.332   4.956
 6225SOL     OW19126   5.055   2.456   5.157
 6225SOL    HW119127   5.085   2.427   5.243
 6225SOL    HW219128   5.100   2.539   5.143
 6226SOL     OW19129   4.541   3.250   4.671
 6226SOL    HW119130   4.626   3.238   4.629
 6226SOL    HW219131   4.479   3.258   4.599
 6227SOL     OW19132   4.652   2.371   4.623
 6227SOL    HW119133   4.628   2.362   4.531
 6227SOL    HW219134   4.680   2.283   4.649
 6228SOL     OW19135   4.277   1.925   4.219
 6228SOL    HW119136   4.197   1.925   4.272
 6228SOL    HW219137   4.269   2.002   4.163
 6229SOL     OW19138   5.129   3.048   3.768
 6229SOL    HW119139   5.127   2.964   3.815
 6229SOL    HW219140   5.044   3.088   3.788
 6230SOL     OW19141   4.012   1.910   3.910
 6230SOL    HW119142   4.068   1.975   3.867
 6230SOL    HW219143   4.073   1.850   3.952
 6231SOL     OW19144   4.665   2.112   4.178
 6231SOL    HW119145   4.640   2.149   4.093
 6231SOL    HW219146   4.759   2.127   4.184
 6232SOL     OW19147   4.800   2.548   5.181
 6232SOL    HW119148   4.736   2.477   5.182
 6232SOL    HW219149   4.885   2.504   5.172
 6233SOL     OW19150   4.934   3.434   4.518
 6233SOL    HW119151   4.954   3.503   4.454
 6233SOL    HW219152   5.018   3.414   4.559
 6234SOL     OW19153   4.198   3.016   4.449
 6234SOL    HW119154   4.132   2.995   4.515
 6234SOL    HW219155   4.153   3.004   4.365
 6235SOL     OW19156   4.988   3.656   4.334
 6235SOL    HW119157   5.030   3.717   4.272
 6235SOL    HW219158   4.919   3.708   4.375
 6236SOL     OW19159   4.748   2.395   3.750
 6236SOL    HW119160   4.703   2.478   3.731
 6236SOL    HW219161   4.808   2.417   3.821
 6237SOL     OW19162   3.812   2.412   5.122
 6237SOL    HW119163   3.903   2.414   5.094
 6237SOL    HW219164   3.805   2.484   5.185
 6238SOL     OW19165   4.281   2.089   4.896
 6238SOL    HW119166   4.323   2.017   4.942
 6238SOL    HW219167   4.189   2.086   4.923
 6239SOL     OW19168   4.591   2.320   4.361
 6239SOL    HW119169   4.546   2.376   4.298
 6239SOL    HW219170   4.613   2.241   4.311
 6240SOL     OW19171   4.741   1.917   4.470
 6240SOL    HW119172   4.682   1.911   4.395
 6240SOL    HW219173   4.717   1.842   4.525
 6241SOL     OW19174   5.153   3.040   4.575
 6241SOL    HW119175   5.101   2.962   4.593
 6241SOL    HW219176   5.162   3.041   4.480
 6242SOL     OW19177   4.214   3.284   3.874
 6242SOL    HW119178   4.139   3.255   3.926
 6242SOL    HW219179   4.208   3.232   3.793
 6243SOL     OW19180   5.131   2.417   3.812
 6243SOL    HW119181   5.052   2.409   3.866
 6243SOL    HW219182   5.202   2.387   3.868
 6244SOL     OW19183   4.250   2.123   4.034
 6244SOL    HW119184   4.300   2.079   3.965
 6244SOL    HW219185   4.223   2.206   3.994
 6245SOL     OW19186   4.772   3.218   5.057
 6245SOL    HW119187   4.696   3.185   5.105
 6245SOL    HW219188   4.847   3.173   5.096
 6246SOL     OW19189   0.009   3.475   5.335
 6246SOL    HW119190   0.044   3.473   5.246
 6246SOL    HW219191   0.082   3.447   5.390
 6247SOL     OW19192   4.862   3.075   4.827
 6247SOL    HW119193   4.796   3.106   4.889
 6247SOL    HW219194   4.831   3.104   4.742
 6248SOL     OW19195   4.641   1.955   5.116
 6248SOL    HW119196   4.662   1.937   5.025
 6248SOL    HW219197   4.721   1.993   5.152
 6249SOL     OW19198   4.709   2.974   5.451
 6249SOL    HW119199   4.618   2.992   5.475
 6249SOL    HW219200   4.704   2.896   5.395
 6250SOL     OW19201   4.435   2.925   4.095
 6250SOL    HW119202   4.420   2.903   4.187
 6250SOL    HW219203   4.510   2.871   4.070
 6251SOL     OW19204   4.146   2.683   4.978
 6251SOL    HW119205   4.214   2.692   5.044
 6251SOL    HW219206   4.112   2.594   4.990
 6252SOL     OW19207   4.985   2.235   5.007
 6252SOL    HW119208   5.019   2.315   5.046
 6252SOL    HW219209   4.895   2.256   4.983
 6253SOL     OW19210   3.800   3.433   5.079
 6253SOL    HW119211   3.774   3.507   5.024
 6253SOL    HW219212   3.896   3.431   5.072
 6254SOL     OW19213   4.061   2.983   4.212
 6254SOL    HW119214   4.061   3.056   4.150
 6254SOL    HW219215   4.059   2.905   4.157
 6255SOL     OW19216   4.270   2.392   4.583
 6255SOL    HW119217   4.284   2.451   4.509
 6255SOL    HW219218   4.338   2.418   4.646
 6256SOL     OW19219   4.970   3.215   4.110
 6256SOL    HW119220   5.025   3.287   4.142
 6256SOL    HW219221   4.883   3.234   4.144
 6257SOL     OW19222   5.005   3.320   4.867
 6257SOL    HW119223   5.055   3.321   4.948
 6257SOL    HW219224   4.951   3.241   4.872
 6258SOL     OW19225   4.070   3.391   5.033
 6258SOL    HW119226   4.060   3.347   4.949
 6258SOL    HW219227   4.165   3.403   5.043
 6259SOL     OW19228   4.142   2.607   5.328
 6259SOL    HW119229   4.206   2.650   5.271
 6259SOL    HW219230   4.179   2.521   5.345
 6260SOL     OW19231   4.718   1.998   5.480
 6260SOL    HW119232   4.777   2.070   5.458
 6260SOL    HW219233   4.764   1.919   5.452
 6261SOL     OW19234   4.221   1.897   5.476
 6261SOL    HW119235   4.173   1.845   5.411
 6261SOL    HW219236   4.165   1.973   5.491
 6262SOL     OW19237   4.311   2.736   4.758
 6262SOL    HW119238   4.344   2.826   4.759
 6262SOL    HW219239   4.253   2.731   4.834
 6263SOL     OW19240   5.087   2.714   4.757
 6263SOL    HW119241   5.011   2.684   4.707
 6263SOL    HW219242   5.152   2.645   4.745
 6264SOL     OW19243   4.918   2.392   3.981
 6264SOL    HW119244   4.926   2.313   4.035
 6264SOL    HW219245   4.878   2.456   4.040
 6265SOL     OW19246   4.019   2.058   4.970
 6265SOL    HW119247   3.984   2.089   5.054
 6265SOL    HW219248   4.002   1.964   4.970
 6266SOL     OW19249   3.753   3.172   4.999
 6266SOL    HW119250   3.793   3.116   5.065
 6266SOL    HW219251   3.768   3.262   5.030
 6267SOL     OW19252   4.443   2.490   4.776
 6267SOL    HW119253   4.520   2.479   4.720
 6267SOL    HW219254   4.414   2.580   4.759
 6268SOL     OW19255   4.034   1.922   4.349
 6268SOL    HW119256   4.009   2.013   4.368
 6268SOL    HW219257   4.041   1.880   4.434
 6269SOL     OW19258   0.030   2.281   4.073
 6269SOL    HW119259   0.041   2.197   4.116
 6269SOL    HW219260   0.039   2.345   4.144
 6270SOL     OW19261   4.751   2.620   4.678
 6270SOL    HW119262   4.744   2.637   4.772
 6270SOL    HW219263   4.725   2.528   4.669
 6271SOL     OW19264   4.693   3.423   5.442
 6271SOL    HW119265   4.681   3.469   5.359
 6271SOL    HW219266   4.740   3.344   5.419
 6272SOL     OW19267   4.075   2.779   5.534
 6272SOL    HW119268   4.155   2.798   5.582
 6272SOL    HW219269   4.102   2.716   5.467
 6273SOL     OW19270   5.030   2.688   3.761
 6273SOL    HW119271   5.067   2.600   3.766
 6273SOL    HW219272   5.059   2.722   3.676
 6274SOL     OW19273   4.791   3.199   4.583
 6274SOL    HW119274   4.798   3.127   4.520
 6274SOL    HW219275   4.844   3.269   4.546
 6275SOL     OW19276   4.033   2.673   4.674
 6275SOL    HW119277   4.127   2.692   4.665
 6275SOL    HW219278   4.029   2.582   4.702
 6276SOL     OW19279   4.051   2.393   4.737
 6276SOL    HW119280   4.015   2.305   4.724
 6276SOL    HW219281   4.127   2.396   4.680
 6277SOL     OW19282   4.857   2.235   5.409
 6277SOL    HW119283   4.808   2.289   5.471
 6277SOL    HW219284   4.944   2.276   5.405
 6278SOL     OW19285   4.884   2.058   5.196
 6278SOL    HW119286   4.873   2.120   5.268
 6278SOL    HW219287   4.925   2.110   5.126
 6279SOL     OW19288   3.741   3.178   3.917
 6279SOL    HW119289   3.653   3.197   3.885
 6279SOL    HW219290   3.735   3.089   3.954
 6280SOL     OW19291   3.814   3.644   4.667
 6280SOL    HW119292   3.783   3.567   4.619
 6280SOL    HW219293   3.903   3.658   4.635
 6281SOL     OW19294   4.215   3.436   4.629
 6281SOL    HW119295   4.284   3.498   4.652
 6281SOL    HW219296   4.257   3.374   4.570
 6282SOL     OW19297   4.694   2.649   4.945
 6282SOL    HW119298   4.754   2.632   5.018
 6282SOL    HW219299   4.611   2.608   4.971
 6283SOL     OW19300   3.766   2.411   4.844
 6283SOL    HW119301   3.842   2.404   4.787
 6283SOL    HW219302   3.802   2.407   4.932
 6284SOL     OW19303   3.916   2.385   5.457
 6284SOL    HW119304   3.969   2.340   5.391
 6284SOL    HW219305   3.881   2.461   5.411
 6285SOL     OW19306   5.122   2.791   5.390
 6285SOL    HW119307   5.126   2.886   5.376
 6285SOL    HW219308   5.126   2.754   5.301
 6286SOL     OW19309   4.542   2.433   4.091
 6286SOL    HW119310   4.546   2.358   4.031
 6286SOL    HW219311   4.467   2.484   4.060
 6287SOL     OW19312   3.960   3.410   5.446
 6287SOL    HW119313   3.940   3.474   5.514
 6287SOL    HW219314   3.968   3.327   5.493
 6288SOL     OW19315   4.438   2.306   4.975
 6288SOL    HW119316   4.380   2.234   4.950
 6288SOL    HW219317   4.430   2.370   4.904
 6289SOL     OW19318   4.637   3.540   5.195
 6289SOL    HW119319   4.616   3.503   5.109
 6289SOL    HW219320   4.637   3.635   5.181
 6290SOL     OW19321   4.184   2.353   3.904
 6290SOL    HW119322   4.243   2.424   3.929
 6290SOL    HW219323   4.099   2.395   3.894
 6291SOL     OW19324   3.863   3.005   5.195
 6291SOL    HW119325   3.867   2.959   5.279
 6291SOL    HW219326   3.881   2.938   5.130
 6292SOL     OW19327   5.050   2.905   4.945
 6292SOL    HW119328   5.069   2.839   4.878
 6292SOL    HW219329   4.984   2.962   4.904
 6293SOL     OW19330   5.042   2.726   4.040
 6293SOL    HW119331   4.961   2.691   4.080
 6293SOL    HW219332   5.029   2.715   3.946
 6294SOL     OW19333   4.956   3.593   4.840
 6294SOL    HW119334   5.042   3.620   4.808
 6294SOL    HW219335   4.963   3.498   4.852
 6295SOL     OW19336   3.811   3.125   4.735
 6295SOL    HW119337   3.787   3.139   4.826
 6295SOL    HW219338   3.741   3.069   4.700
 6296SOL     OW19339   4.403   3.533   5.465
 6296SOL    HW119340   4.346   3.609   5.452
 6296SOL    HW219341   4.477   3.548   5.406
 6297SOL     OW19342   0.063   2.029   4.266
 6297SOL    HW119343   0.127   2.003   4.200
 6297SOL    HW219344   0.062   1.956   4.328
 6298SOL     OW19345   5.112   3.435   4.214
 6298SOL    HW119346   5.180   3.480   4.164
 6298SOL    HW219347   5.056   3.505   4.247
 6299SOL     OW19348   3.865   3.657   5.567
 6299SOL    HW119349   3.815   3.590   5.613
 6299SOL    HW219350   3.911   3.705   5.635
 6300SOL     OW19351   5.021   2.784   4.390
 6300SOL    HW119352   5.102   2.732   4.383
 6300SOL    HW219353   5.041   2.865   4.344
 6301SOL     OW19354   4.525   3.139   5.147
 6301SOL    HW119355   4.498   3.180   5.229
 6301SOL    HW219356   4.455   3.159   5.086
 6302SOL     OW19357   4.391   3.489   3.880
 6302SOL    HW119358   4.404   3.504   3.786
 6302SOL    HW219359   4.335   3.411   3.884
 6303SOL     OW19360   3.980   2.173   4.438
 6303SOL    HW119361   3.895   2.210   4.414
 6303SOL    HW219362   3.980   2.171   4.533
 6304SOL     OW19363   4.903   3.468   3.769
 6304SOL    HW119364   4.914   3.374   3.780
 6304SOL    HW219365   4.845   3.477   3.694
 6305SOL     OW19366   4.547   2.869   5.100
 6305SOL    HW119367   4.589   2.862   5.015
 6305SOL    HW219368   4.542   2.963   5.117
 6306SOL     OW19369   4.643   2.774   4.015
 6306SOL    HW119370   4.704   2.806   3.949
 6306SOL    HW219371   4.691   2.705   4.061
 6307SOL     OW19372   4.090   3.167   5.218
 6307SOL    HW119373   4.080   3.243   5.160
 6307SOL    HW219374   4.013   3.113   5.201
 6308SOL     OW19375   4.786   2.972   4.435
 6308SOL    HW119376   4.714   2.923   4.473
 6308SOL    HW219377   4.845   2.905   4.401
 6309SOL     OW19378   4.738   2.102   4.693
 6309SOL    HW119379   4.737   2.056   4.609
 6309SOL    HW219380   4.733   2.032   4.758
 6310SOL     OW19381   4.330   3.351   4.205
 6310SOL    HW119382   4.380   3.300   4.140
 6310SOL    HW219383   4.253   3.382   4.157
 6311SOL     OW19384   3.994   3.202   4.022
 6311SOL    HW119385   3.903   3.197   3.993
 6311SOL    HW219386   3.990   3.245   4.108
 6312SOL     OW19387   3.839   2.896   5.448
 6312SOL    HW119388   3.763   2.868   5.499
 6312SOL    HW219389   3.913   2.853   5.490
 6313SOL     OW19390   4.400   2.056   5.224
 6313SOL    HW119391   4.485   2.034   5.184
 6313SOL    HW219392   4.423   2.090   5.311
 6314SOL     OW19393   3.805   2.188   3.754
 6314SOL    HW119394   3.714   2.174   3.725
 6314SOL    HW219395   3.833   2.266   3.706
 6315SOL     OW19396   5.167   2.720   5.125
 6315SOL    HW119397   5.115   2.778   5.070
 6315SOL    HW219398   5.256   2.726   5.090
 6316SOL     OW19399   3.784   2.015   4.026
 6316SOL    HW119400   3.769   2.093   3.973
 6316SOL    HW219401   3.869   1.982   3.997
 6317SOL     OW19402   4.900   3.188   3.837
 6317SOL    HW119403   4.806   3.169   3.838
 6317SOL    HW219404   4.924   3.194   3.930
 6318SOL     OW19405   4.345   2.693   5.161
 6318SOL    HW119406   4.402   2.768   5.146
 6318SOL    HW219407   4.404   2.618   5.166
 6319SOL     OW19408   4.441   2.419   5.423
 6319SOL    HW119409   4.487   2.477   5.484
 6319SOL    HW219410   4.458   2.331   5.456
 6320SOL     OW19411   5.175   3.060   5.354
 6320SOL    HW119412   5.166   3.075   5.448
 6320SOL    HW219413   5.268   3.077   5.336
 6321SOL     OW19414   4.093   3.603   5.291
 6321SOL    HW119415   4.011   3.649   5.275
 6321SOL    HW219416   4.067   3.520   5.331
 6322SOL     OW19417   4.935   2.183   4.176
 6322SOL    HW119418   4.995   2.109   4.165
 6322SOL    HW219419   4.967   2.228   4.254
 6323SOL     OW19420   4.310   2.595   4.398
 6323SOL    HW119421   4.350   2.681   4.383
 6323SOL    HW219422   4.246   2.586   4.328
 6324SOL     OW19423   4.596   3.226   3.771
 6324SOL    HW119424   4.553   3.255   3.851
 6324SOL    HW219425   4.605   3.306   3.719
 6325SOL     OW19426   4.388   3.644   4.661
 6325SOL    HW119427   4.369   3.736   4.643
 6325SOL    HW219428   4.483   3.637   4.655
 6326SOL     OW19429   4.594   2.834   4.578
 6326SOL    HW119430   4.643   2.761   4.614
 6326SOL    HW219431   4.554   2.876   4.654
 6327SOL     OW19432   4.809   2.848   3.815
 6327SOL    HW119433   4.784   2.897   3.737
 6327SOL    HW219434   4.882   2.793   3.786
 6328SOL     OW19435   3.950   3.160   5.577
 6328SOL    HW119436   3.889   3.094   5.543
 6328SOL    HW219437   3.924   3.172   5.668
 6329SOL     OW19438   3.817   3.094   4.389
 6329SOL    HW119439   3.820   3.042   4.469
 6329SOL    HW219440   3.881   3.054   4.331
 6330SOL     OW19441   4.409   3.269   5.357
 6330SOL    HW119442   4.330   3.229   5.391
 6330SOL    HW219443   4.408   3.358   5.392
 6331SOL     OW19444   4.154   2.294   4.250
 6331SOL    HW119445   4.183   2.223   4.192
 6331SOL    HW219446   4.102   2.250   4.317
 6332SOL     OW19447   0.090   3.373   4.823
 6332SOL    HW119448   0.022   3.359   4.757
 6332SOL    HW219449   0.082   3.299   4.882
 6333SOL     OW19450   4.061   2.423   5.017
 6333SOL    HW119451   4.115   2.365   5.070
 6333SOL    HW219452   4.077   2.395   4.927
 6334SOL     OW19453   4.557   3.440   4.398
 6334SOL    HW119454   4.537   3.506   4.331
 6334SOL    HW219455   4.481   3.382   4.398
 6335SOL     OW19456   5.140   2.082   4.840
 6335SOL    HW119457   5.187   2.019   4.895
 6335SOL    HW219458   5.092   2.137   4.902
 6336SOL     OW19459   4.726   1.877   4.859
 6336SOL    HW119460   4.673   1.810   4.815
 6336SOL    HW219461   4.813   1.838   4.865
 6337SOL     OW19462   4.497   3.195   4.046
 6337SOL    HW119463   4.470   3.104   4.054
 6337SOL    HW219464   4.579   3.200   4.095
 6338SOL     OW19465   4.343   3.419   5.012
 6338SOL    HW119466   4.343   3.502   5.059
 6338SOL    HW219467   4.431   3.412   4.975
 6339SOL     OW19468   5.053   1.903   3.889
 6339SOL    HW119469   5.065   1.866   3.801
 6339SOL    HW219470   4.969   1.870   3.918
 6340SOL     OW19471   5.024   2.321   4.399
 6340SOL    HW119472   4.972   2.401   4.403
 6340SOL    HW219473   5.011   2.280   4.485
 6341SOL     OW19474   0.001   2.092   4.613
 6341SOL    HW119475   5.237   2.079   4.683
 6341SOL    HW219476   5.268   2.166   4.563
 6342SOL     OW19477   3.775   2.928   4.031
 6342SOL    HW119478   3.868   2.915   4.012
 6342SOL    HW219479   3.743   2.840   4.054
 6343SOL     OW19480   4.602   3.518   4.069
 6343SOL    HW119481   4.529   3.504   4.008
 6343SOL    HW219482   4.576   3.593   4.122
 6344SOL     OW19483   3.946   2.487   5.717
 6344SOL    HW119484   3.857   2.480   5.752
 6344SOL    HW219485   3.936   2.464   5.624
 6345SOL     OW19486   3.948   2.147   6.579
 6345SOL    HW119487   3.976   2.111   6.663
 6345SOL    HW219488   3.859   2.114   6.567
 6346SOL     OW19489   3.722   2.248   6.224
 6346SOL    HW119490   3.641   2.274   6.268
 6346SOL    HW219491   3.697   2.170   6.174
 6347SOL     OW19492   4.292   3.161   6.772
 6347SOL    HW119493   4.207   3.167   6.729
 6347SOL    HW219494   4.310   3.250   6.803
 6348SOL     OW19495   5.295   3.390   6.289
 6348SOL    HW119496   5.252   3.358   6.368
 6348SOL    HW219497   5.226   3.393   6.223
 6349SOL     OW19498   4.865   2.561   6.280
 6349SOL    HW119499   4.916   2.642   6.270
 6349SOL    HW219500   4.815   2.573   6.361
 6350SOL     OW19501   4.467   2.998   6.634
 6350SOL    HW119502   4.402   3.037   6.693
 6350SOL    HW219503   4.507   3.074   6.590
 6351SOL     OW19504   4.598   2.622   7.405
 6351SOL    HW119505   4.577   2.693   7.465
 6351SOL    HW219506   4.621   2.665   7.323
 6352SOL     OW19507   4.410   2.857   6.230
 6352SOL    HW119508   4.476   2.851   6.299
 6352SOL    HW219509   4.341   2.913   6.267
 6353SOL     OW19510   4.440   3.014   7.406
 6353SOL    HW119511   4.487   3.091   7.437
 6353SOL    HW219512   4.361   3.050   7.365
 6354SOL     OW19513   4.056   3.278   6.653
 6354SOL    HW119514   3.982   3.238   6.608
 6354SOL    HW219515   4.100   3.330   6.586
 6355SOL     OW19516   5.158   3.344   6.951
 6355SOL    HW119517   5.222   3.411   6.973
 6355SOL    HW219518   5.089   3.355   7.016
 6356SOL     OW19519   4.176   2.254   7.063
 6356SOL    HW119520   4.251   2.196   7.072
 6356SOL    HW219521   4.100   2.198   7.083
 6357SOL     OW19522   3.944   3.578   6.054
 6357SOL    HW119523   3.965   3.653   6.110
 6357SOL    HW219524   4.019   3.570   5.995
 6358SOL     OW19525   4.856   3.202   7.277
 6358SOL    HW119526   4.894   3.200   7.365
 6358SOL    HW219527   4.807   3.120   7.270
 6359SOL     OW19528   3.956   3.307   6.122
 6359SOL    HW119529   3.938   3.401   6.122
 6359SOL    HW219530   3.898   3.271   6.189
 6360SOL     OW19531   3.992   2.953   6.476
 6360SOL    HW119532   3.988   2.865   6.514
 6360SOL    HW219533   3.934   3.005   6.532
 6361SOL     OW19534   4.320   3.658   7.006
 6361SOL    HW119535   4.242   3.639   7.058
 6361SOL    HW219536   4.348   3.744   7.037
 6362SOL     OW19537   4.301   2.847   5.727
 6362SOL    HW119538   4.350   2.892   5.658
 6362SOL    HW219539   4.340   2.878   5.809
 6363SOL     OW19540   3.842   2.518   6.147
 6363SOL    HW119541   3.813   2.430   6.169
 6363SOL    HW219542   3.834   2.567   6.229
 6364SOL     OW19543   3.763   3.451   5.706
 6364SOL    HW119544   3.745   3.360   5.727
 6364SOL    HW219545   3.738   3.499   5.785
 6365SOL     OW19546   0.115   2.797   6.164
 6365SOL    HW119547   0.207   2.774   6.147
 6365SOL    HW219548   0.113   2.892   6.164
 6366SOL     OW19549   3.848   2.606   7.171
 6366SOL    HW119550   3.938   2.639   7.172
 6366SOL    HW219551   3.794   2.685   7.172
 6367SOL     OW19552   4.340   3.253   6.321
 6367SOL    HW119553   4.296   3.169   6.329
 6367SOL    HW219554   4.324   3.281   6.231
 6368SOL     OW19555   4.992   3.089   7.008
 6368SOL    HW119556   5.028   3.023   6.948
 6368SOL    HW219557   5.051   3.087   7.083
 6369SOL     OW19558   4.544   1.868   6.101
 6369SOL    HW119559   4.585   1.950   6.076
 6369SOL    HW219560   4.451   1.887   6.106
 6370SOL     OW19561   3.911   2.822   6.868
 6370SOL    HW119562   3.998   2.784   6.852
 6370SOL    HW219563   3.853   2.776   6.807
 6371SOL     OW19564   4.890   3.675   7.213
 6371SOL    HW119565   4.908   3.736   7.142
 6371SOL    HW219566   4.918   3.590   7.178
 6372SOL     OW19567   4.066   2.107   7.419
 6372SOL    HW119568   4.106   2.193   7.436
 6372SOL    HW219569   3.973   2.121   7.437
 6373SOL     OW19570   5.162   3.303   6.512
 6373SOL    HW119571   5.105   3.310   6.589
 6373SOL    HW219572   5.158   3.211   6.487
 6374SOL     OW19573   4.318   2.578   5.857
 6374SOL    HW119574   4.320   2.662   5.812
 6374SOL    HW219575   4.253   2.589   5.926
 6375SOL     OW19576   4.992   2.200   6.501
 6375SOL    HW119577   4.904   2.172   6.523
 6375SOL    HW219578   5.047   2.165   6.571
 6376SOL     OW19579   4.512   2.479   7.032
 6376SOL    HW119580   4.487   2.452   7.120
 6376SOL    HW219581   4.480   2.409   6.975
 6377SOL     OW19582   5.115   2.349   7.270
 6377SOL    HW119583   5.119   2.380   7.361
 6377SOL    HW219584   5.198   2.304   7.257
 6378SOL     OW19585   4.673   2.748   7.172
 6378SOL    HW119586   4.726   2.679   7.132
 6378SOL    HW219587   4.624   2.786   7.098
 6379SOL     OW19588   4.717   2.270   6.816
 6379SOL    HW119589   4.627   2.286   6.845
 6379SOL    HW219590   4.709   2.228   6.731
 6380SOL     OW19591   4.778   2.562   6.010
 6380SOL    HW119592   4.798   2.555   6.103
 6380SOL    HW219593   4.694   2.516   6.000
 6381SOL     OW19594   3.812   2.685   6.364
 6381SOL    HW119595   3.892   2.677   6.415
 6381SOL    HW219596   3.767   2.761   6.401
 6382SOL     OW19597   3.847   3.735   7.171
 6382SOL    HW119598   3.852   3.711   7.264
 6382SOL    HW219599   3.764   3.699   7.141
 6383SOL     OW19600   4.623   2.211   5.781
 6383SOL    HW119601   4.662   2.274   5.720
 6383SOL    HW219602   4.632   2.127   5.737
 6384SOL     OW19603   5.100   3.019   6.142
 6384SOL    HW119604   5.191   3.031   6.113
 6384SOL    HW219605   5.048   3.071   6.081
 6385SOL     OW19606   4.275   2.037   6.485
 6385SOL    HW119607   4.278   2.068   6.575
 6385SOL    HW219608   4.274   2.117   6.432
 6386SOL     OW19609   4.723   3.304   6.054
 6386SOL    HW119610   4.689   3.379   6.004
 6386SOL    HW219611   4.699   3.323   6.145
 6387SOL     OW19612   4.078   3.677   6.458
 6387SOL    HW119613   4.123   3.593   6.463
 6387SOL    HW219614   4.146   3.742   6.476
 6388SOL     OW19615   4.935   3.400   7.100
 6388SOL    HW119616   4.924   3.329   7.164
 6388SOL    HW219617   4.865   3.387   7.037
 6389SOL     OW19618   4.037   2.823   5.841
 6389SOL    HW119619   4.119   2.842   5.797
 6389SOL    HW219620   4.008   2.739   5.804
 6390SOL     OW19621   4.193   3.129   7.324
 6390SOL    HW119622   4.167   3.134   7.232
 6390SOL    HW219623   4.110   3.125   7.372
 6391SOL     OW19624   4.829   3.636   5.826
 6391SOL    HW119625   4.754   3.595   5.868
 6391SOL    HW219626   4.854   3.576   5.756
 6392SOL     OW19627   3.926   2.130   7.090
 6392SOL    HW119628   3.846   2.181   7.094
 6392SOL    HW219629   3.903   2.046   7.128
 6393SOL     OW19630   4.186   3.598   5.905
 6393SOL    HW119631   4.232   3.654   5.968
 6393SOL    HW219632   4.256   3.564   5.849
 6394SOL     OW19633   5.111   1.967   6.009
 6394SOL    HW119634   5.095   1.948   5.916
 6394SOL    HW219635   5.205   1.986   6.014
 6395SOL     OW19636   3.980   3.652   6.814
 6395SOL    HW119637   4.030   3.581   6.855
 6395SOL    HW219638   3.972   3.626   6.722
 6396SOL     OW19639   4.665   3.561   6.481
 6396SOL    HW119640   4.747   3.515   6.498
 6396SOL    HW219641   4.623   3.510   6.411
 6397SOL     OW19642   4.121   2.556   6.058
 6397SOL    HW119643   4.137   2.463   6.072
 6397SOL    HW219644   4.027   2.567   6.075
 6398SOL     OW19645   4.371   1.979   5.688
 6398SOL    HW119646   4.430   1.905   5.706
 6398SOL    HW219647   4.316   1.948   5.615
 6399SOL     OW19648   4.485   2.141   7.345
 6399SOL    HW119649   4.566   2.091   7.341
 6399SOL    HW219650   4.442   2.111   7.425
 6400SOL     OW19651   4.597   3.387   6.780
 6400SOL    HW119652   4.581   3.349   6.694
 6400SOL    HW219653   4.667   3.332   6.818
 6401SOL     OW19654   5.055   2.456   7.019
 6401SOL    HW119655   5.085   2.428   7.105
 6401SOL    HW219656   5.100   2.540   7.005
 6402SOL     OW19657   4.541   3.249   6.534
 6402SOL    HW119658   4.626   3.238   6.492
 6402SOL    HW219659   4.480   3.258   6.461
 6403SOL     OW19660   4.652   2.371   6.485
 6403SOL    HW119661   4.628   2.361   6.393
 6403SOL    HW219662   4.680   2.283   6.511
 6404SOL     OW19663   4.277   1.925   6.081
 6404SOL    HW119664   4.198   1.925   6.134
 6404SOL    HW219665   4.268   2.002   6.025
 6405SOL     OW19666   5.129   3.047   5.630
 6405SOL    HW119667   5.129   2.964   5.677
 6405SOL    HW219668   5.045   3.087   5.650
 6406SOL     OW19669   4.013   1.910   5.772
 6406SOL    HW119670   4.069   1.974   5.729
 6406SOL    HW219671   4.073   1.849   5.814
 6407SOL     OW19672   4.665   2.112   6.040
 6407SOL    HW119673   4.640   2.149   5.955
 6407SOL    HW219674   4.759   2.127   6.046
 6408SOL     OW19675   4.800   2.548   7.042
 6408SOL    HW119676   4.736   2.476   7.044
 6408SOL    HW219677   4.885   2.504   7.034
 6409SOL     OW19678   4.934   3.433   6.379
 6409SOL    HW119679   4.954   3.502   6.316
 6409SOL    HW219680   5.018   3.413   6.421
 6410SOL     OW19681   4.197   3.016   6.311
 6410SOL    HW119682   4.131   2.995   6.377
 6410SOL    HW219683   4.152   3.003   6.227
 6411SOL     OW19684   4.988   3.656   6.195
 6411SOL    HW119685   5.030   3.717   6.134
 6411SOL    HW219686   4.920   3.708   6.238
 6412SOL     OW19687   4.748   2.395   5.612
 6412SOL    HW119688   4.703   2.478   5.593
 6412SOL    HW219689   4.808   2.417   5.683
 6413SOL     OW19690   3.810   2.415   6.979
 6413SOL    HW119691   3.902   2.416   6.952
 6413SOL    HW219692   3.804   2.485   7.044
 6414SOL     OW19693   4.281   2.089   6.758
 6414SOL    HW119694   4.323   2.017   6.805
 6414SOL    HW219695   4.190   2.086   6.785
 6415SOL     OW19696   4.591   2.319   6.223
 6415SOL    HW119697   4.547   2.376   6.159
 6415SOL    HW219698   4.614   2.240   6.173
 6416SOL     OW19699   4.741   1.917   6.332
 6416SOL    HW119700   4.682   1.911   6.257
 6416SOL    HW219701   4.717   1.842   6.387
 6417SOL     OW19702   5.153   3.040   6.437
 6417SOL    HW119703   5.101   2.962   6.456
 6417SOL    HW219704   5.162   3.041   6.342
 6418SOL     OW19705   4.213   3.284   5.737
 6418SOL    HW119706   4.137   3.255   5.787
 6418SOL    HW219707   4.209   3.232   5.656
 6419SOL     OW19708   5.131   2.417   5.674
 6419SOL    HW119709   5.052   2.409   5.728
 6419SOL    HW219710   5.202   2.386   5.729
 6420SOL     OW19711   4.250   2.124   5.896
 6420SOL    HW119712   4.300   2.080   5.828
 6420SOL    HW219713   4.222   2.206   5.856
 6421SOL     OW19714   4.772   3.217   6.917
 6421SOL    HW119715   4.696   3.185   6.966
 6421SOL    HW219716   4.847   3.173   6.957
 6422SOL     OW19717   0.008   3.475   7.195
 6422SOL    HW119718   0.045   3.473   7.107
 6422SOL    HW219719   0.081   3.449   7.252
 6423SOL     OW19720   4.862   3.074   6.689
 6423SOL    HW119721   4.797   3.106   6.752
 6423SOL    HW219722   4.830   3.104   6.604
 6424SOL     OW19723   4.641   1.955   6.978
 6424SOL    HW119724   4.662   1.937   6.887
 6424SOL    HW219725   4.721   1.993   7.014
 6425SOL     OW19726   4.710   2.970   7.319
 6425SOL    HW119727   4.619   2.990   7.340
 6425SOL    HW219728   4.706   2.895   7.261
 6426SOL     OW19729   4.434   2.924   5.957
 6426SOL    HW119730   4.420   2.903   6.050
 6426SOL    HW219731   4.510   2.871   5.932
 6427SOL     OW19732   4.146   2.682   6.838
 6427SOL    HW119733   4.214   2.692   6.905
 6427SOL    HW219734   4.112   2.593   6.851
 6428SOL     OW19735   4.985   2.235   6.869
 6428SOL    HW119736   5.019   2.316   6.908
 6428SOL    HW219737   4.895   2.257   6.845
 6429SOL     OW19738   3.800   3.436   6.944
 6429SOL    HW119739   3.771   3.507   6.886
 6429SOL    HW219740   3.895   3.434   6.935
 6430SOL     OW19741   4.058   2.982   6.075
 6430SOL    HW119742   4.062   3.056   6.014
 6430SOL    HW219743   4.057   2.905   6.019
 6431SOL     OW19744   4.270   2.392   6.445
 6431SOL    HW119745   4.284   2.451   6.371
 6431SOL    HW219746   4.337   2.417   6.508
 6432SOL     OW19747   4.970   3.215   5.972
 6432SOL    HW119748   5.025   3.287   6.004
 6432SOL    HW219749   4.883   3.234   6.006
 6433SOL     OW19750   5.005   3.320   6.729
 6433SOL    HW119751   5.055   3.321   6.810
 6433SOL    HW219752   4.951   3.242   6.735
 6434SOL     OW19753   4.070   3.392   6.895
 6434SOL    HW119754   4.059   3.347   6.812
 6434SOL    HW219755   4.164   3.404   6.904
 6435SOL     OW19756   4.142   2.608   7.190
 6435SOL    HW119757   4.205   2.651   7.133
 6435SOL    HW219758   4.179   2.521   7.206
 6436SOL     OW19759   4.718   1.999   7.340
 6436SOL    HW119760   4.778   2.070   7.319
 6436SOL    HW219761   4.765   1.920   7.313
 6437SOL     OW19762   4.222   1.896   7.338
 6437SOL    HW119763   4.174   1.844   7.273
 6437SOL    HW219764   4.166   1.973   7.353
 6438SOL     OW19765   4.309   2.736   6.619
 6438SOL    HW119766   4.344   2.826   6.622
 6438SOL    HW219767   4.252   2.730   6.695
 6439SOL     OW19768   5.087   2.714   6.618
 6439SOL    HW119769   5.010   2.684   6.569
 6439SOL    HW219770   5.152   2.645   6.607
 6440SOL     OW19771   4.918   2.392   5.843
 6440SOL    HW119772   4.926   2.313   5.897
 6440SOL    HW219773   4.878   2.456   5.902
 6441SOL     OW19774   4.019   2.058   6.833
 6441SOL    HW119775   3.983   2.089   6.916
 6441SOL    HW219776   4.002   1.964   6.833
 6442SOL     OW19777   3.773   3.174   6.859
 6442SOL    HW119778   3.803   3.118   6.930
 6442SOL    HW219779   3.776   3.263   6.895
 6443SOL     OW19780   4.443   2.490   6.637
 6443SOL    HW119781   4.520   2.478   6.582
 6443SOL    HW219782   4.414   2.580   6.620
 6444SOL     OW19783   4.034   1.923   6.211
 6444SOL    HW119784   4.009   2.013   6.231
 6444SOL    HW219785   4.042   1.880   6.296
 6445SOL     OW19786   0.030   2.281   5.936
 6445SOL    HW119787   0.041   2.196   5.979
 6445SOL    HW219788   0.040   2.345   6.006
 6446SOL     OW19789   4.751   2.620   6.540
 6446SOL    HW119790   4.744   2.637   6.634
 6446SOL    HW219791   4.725   2.528   6.531
 6447SOL     OW19792   4.694   3.423   7.304
 6447SOL    HW119793   4.682   3.470   7.221
 6447SOL    HW219794   4.741   3.343   7.280
 6448SOL     OW19795   4.076   2.776   7.398
 6448SOL    HW119796   4.158   2.798   7.441
 6448SOL    HW219797   4.100   2.714   7.329
 6449SOL     OW19798   5.030   2.688   5.623
 6449SOL    HW119799   5.067   2.600   5.628
 6449SOL    HW219800   5.059   2.722   5.538
 6450SOL     OW19801   4.791   3.198   6.445
 6450SOL    HW119802   4.798   3.127   6.381
 6450SOL    HW219803   4.844   3.269   6.407
 6451SOL     OW19804   4.032   2.671   6.531
 6451SOL    HW119805   4.126   2.691   6.525
 6451SOL    HW219806   4.029   2.581   6.563
 6452SOL     OW19807   4.049   2.393   6.599
 6452SOL    HW119808   4.014   2.305   6.587
 6452SOL    HW219809   4.127   2.396   6.542
 6453SOL     OW19810   4.859   2.235   7.270
 6453SOL    HW119811   4.810   2.289   7.332
 6453SOL    HW219812   4.945   2.276   7.266
 6454SOL     OW19813   4.885   2.058   7.057
 6454SOL    HW119814   4.873   2.120   7.129
 6454SOL    HW219815   4.925   2.110   6.987
 6455SOL     OW19816   3.732   3.178   5.780
 6455SOL    HW119817   3.644   3.195   5.744
 6455SOL    HW219818   3.727   3.089   5.815
 6456SOL     OW19819   3.814   3.643   6.528
 6456SOL    HW119820   3.784   3.565   6.480
 6456SOL    HW219821   3.903   3.657   6.496
 6457SOL     OW19822   4.215   3.437   6.490
 6457SOL    HW119823   4.284   3.498   6.514
 6457SOL    HW219824   4.258   3.374   6.432
 6458SOL     OW19825   4.694   2.649   6.807
 6458SOL    HW119826   4.754   2.631   6.879
 6458SOL    HW219827   4.611   2.609   6.834
 6459SOL     OW19828   3.760   2.412   6.704
 6459SOL    HW119829   3.841   2.405   6.653
 6459SOL    HW219830   3.790   2.412   6.795
 6460SOL     OW19831   3.916   2.384   7.318
 6460SOL    HW119832   3.967   2.338   7.251
 6460SOL    HW219833   3.881   2.460   7.273
 6461SOL     OW19834   5.119   2.791   7.254
 6461SOL    HW119835   5.124   2.886   7.240
 6461SOL    HW219836   5.124   2.753   7.166
 6462SOL     OW19837   4.542   2.432   5.953
 6462SOL    HW119838   4.547   2.358   5.893
 6462SOL    HW219839   4.467   2.483   5.922
 6463SOL     OW19840   3.960   3.410   7.308
 6463SOL    HW119841   3.941   3.476   7.376
 6463SOL    HW219842   3.969   3.328   7.357
 6464SOL     OW19843   4.439   2.306   6.837
 6464SOL    HW119844   4.380   2.234   6.812
 6464SOL    HW219845   4.430   2.370   6.766
 6465SOL     OW19846   4.638   3.540   7.056
 6465SOL    HW119847   4.616   3.504   6.970
 6465SOL    HW219848   4.638   3.635   7.043
 6466SOL     OW19849   4.182   2.353   5.765
 6466SOL    HW119850   4.242   2.423   5.790
 6466SOL    HW219851   4.097   2.397   5.757
 6467SOL     OW19852   3.863   3.005   7.061
 6467SOL    HW119853   3.866   2.959   7.145
 6467SOL    HW219854   3.881   2.938   6.996
 6468SOL     OW19855   5.050   2.905   6.807
 6468SOL    HW119856   5.069   2.839   6.740
 6468SOL    HW219857   4.984   2.961   6.766
 6469SOL     OW19858   5.041   2.726   5.902
 6469SOL    HW119859   4.961   2.691   5.941
 6469SOL    HW219860   5.028   2.715   5.808
 6470SOL     OW19861   4.956   3.593   6.702
 6470SOL    HW119862   5.043   3.619   6.670
 6470SOL    HW219863   4.963   3.498   6.714
 6471SOL     OW19864   3.813   3.126   6.596
 6471SOL    HW119865   3.795   3.142   6.688
 6471SOL    HW219866   3.740   3.072   6.566
 6472SOL     OW19867   4.402   3.531   7.325
 6472SOL    HW119868   4.347   3.609   7.316
 6472SOL    HW219869   4.478   3.548   7.269
 6473SOL     OW19870   0.063   2.029   6.128
 6473SOL    HW119871   0.129   2.003   6.063
 6473SOL    HW219872   0.062   1.957   6.190
 6474SOL     OW19873   5.112   3.435   6.076
 6474SOL    HW119874   5.181   3.480   6.027
 6474SOL    HW219875   5.056   3.505   6.109
 6475SOL     OW19876   3.865   3.656   7.430
 6475SOL    HW119877   3.814   3.591   7.478
 6475SOL    HW219878   3.912   3.704   7.498
 6476SOL     OW19879   5.021   2.784   6.252
 6476SOL    HW119880   5.101   2.732   6.246
 6476SOL    HW219881   5.041   2.865   6.206
 6477SOL     OW19882   4.524   3.139   7.010
 6477SOL    HW119883   4.497   3.180   7.092
 6477SOL    HW219884   4.454   3.159   6.948
 6478SOL     OW19885   4.391   3.489   5.742
 6478SOL    HW119886   4.405   3.503   5.648
 6478SOL    HW219887   4.335   3.411   5.746
 6479SOL     OW19888   3.980   2.174   6.300
 6479SOL    HW119889   3.894   2.209   6.277
 6479SOL    HW219890   3.980   2.170   6.395
 6480SOL     OW19891   4.903   3.468   5.632
 6480SOL    HW119892   4.914   3.374   5.641
 6480SOL    HW219893   4.845   3.477   5.555
 6481SOL     OW19894   4.546   2.869   6.962
 6481SOL    HW119895   4.589   2.862   6.876
 6481SOL    HW219896   4.542   2.964   6.978
 6482SOL     OW19897   4.642   2.773   5.877
 6482SOL    HW119898   4.703   2.806   5.810
 6482SOL    HW219899   4.690   2.705   5.923
 6483SOL     OW19900   4.090   3.168   7.079
 6483SOL    HW119901   4.079   3.243   7.022
 6483SOL    HW219902   4.013   3.113   7.063
 6484SOL     OW19903   4.786   2.972   6.296
 6484SOL    HW119904   4.714   2.923   6.335
 6484SOL    HW219905   4.846   2.905   6.264
 6485SOL     OW19906   4.738   2.102   6.555
 6485SOL    HW119907   4.736   2.056   6.471
 6485SOL    HW219908   4.733   2.032   6.620
 6486SOL     OW19909   4.329   3.350   6.067
 6486SOL    HW119910   4.379   3.300   6.002
 6486SOL    HW219911   4.255   3.384   6.017
 6487SOL     OW19912   3.987   3.204   5.879
 6487SOL    HW119913   3.894   3.200   5.854
 6487SOL    HW219914   3.987   3.244   5.965
 6488SOL     OW19915   3.840   2.898   7.314
 6488SOL    HW119916   3.763   2.870   7.363
 6488SOL    HW219917   3.913   2.852   7.356
 6489SOL     OW19918   4.400   2.056   7.087
 6489SOL    HW119919   4.485   2.034   7.047
 6489SOL    HW219920   4.422   2.088   7.174
 6490SOL     OW19921   3.805   2.190   5.617
 6490SOL    HW119922   3.720   2.170   5.577
 6490SOL    HW219923   3.836   2.268   5.571
 6491SOL     OW19924   5.167   2.720   6.988
 6491SOL    HW119925   5.115   2.778   6.933
 6491SOL    HW219926   5.256   2.727   6.953
 6492SOL     OW19927   3.785   2.016   5.885
 6492SOL    HW119928   3.772   2.094   5.832
 6492SOL    HW219929   3.870   1.982   5.859
 6493SOL     OW19930   4.901   3.188   5.700
 6493SOL    HW119931   4.807   3.168   5.701
 6493SOL    HW219932   4.925   3.194   5.792
 6494SOL     OW19933   4.344   2.694   7.022
 6494SOL    HW119934   4.402   2.769   7.007
 6494SOL    HW219935   4.403   2.619   7.028
 6495SOL     OW19936   4.440   2.418   7.285
 6495SOL    HW119937   4.486   2.476   7.345
 6495SOL    HW219938   4.458   2.330   7.318
 6496SOL     OW19939   5.175   3.059   7.215
 6496SOL    HW119940   5.165   3.075   7.309
 6496SOL    HW219941   5.267   3.078   7.197
 6497SOL     OW19942   4.093   3.604   7.153
 6497SOL    HW119943   4.011   3.650   7.138
 6497SOL    HW219944   4.067   3.521   7.192
 6498SOL     OW19945   4.935   2.183   6.037
 6498SOL    HW119946   4.995   2.109   6.027
 6498SOL    HW219947   4.967   2.228   6.116
 6499SOL     OW19948   4.310   2.595   6.259
 6499SOL    HW119949   4.350   2.680   6.246
 6499SOL    HW219950   4.246   2.587   6.189
 6500SOL     OW19951   4.594   3.226   5.632
 6500SOL    HW119952   4.553   3.255   5.713
 6500SOL    HW219953   4.605   3.305   5.580
 6501SOL     OW19954   4.388   3.644   6.522
 6501SOL    HW119955   4.369   3.736   6.505
 6501SOL    HW219956   4.483   3.637   6.517
 6502SOL     OW19957   4.594   2.834   6.440
 6502SOL    HW119958   4.643   2.761   6.476
 6502SOL    HW219959   4.554   2.876   6.516
 6503SOL     OW19960   4.808   2.847   5.676
 6503SOL    HW119961   4.784   2.897   5.599
 6503SOL    HW219962   4.882   2.793   5.648
 6504SOL     OW19963   3.947   3.158   7.439
 6504SOL    HW119964   3.893   3.090   7.399
 6504SOL    HW219965   3.905   3.175   7.523
 6505SOL     OW19966   3.812   3.089   6.251
 6505SOL    HW119967   3.827   3.046   6.335
 6505SOL    HW219968   3.880   3.053   6.193
 6506SOL     OW19969   4.409   3.268   7.220
 6506SOL    HW119970   4.328   3.229   7.253
 6506SOL    HW219971   4.408   3.358   7.254
 6507SOL     OW19972   4.151   2.295   6.111
 6507SOL    HW119973   4.183   2.224   6.054
 6507SOL    HW219974   4.102   2.250   6.179
 6508SOL     OW19975   0.089   3.374   6.685
 6508SOL    HW119976   0.022   3.359   6.619
 6508SOL    HW219977   0.082   3.299   6.744
 6509SOL     OW19978   4.061   2.423   6.879
 6509SOL    HW119979   4.114   2.365   6.934
 6509SOL    HW219980   4.077   2.393   6.790
 6510SOL     OW19981   4.557   3.440   6.260
 6510SOL    HW119982   4.537   3.505   6.193
 6510SOL    HW219983   4.481   3.382   6.261
 6511SOL     OW19984   5.140   2.082   6.702
 6511SOL    HW119985   5.186   2.019   6.757
 6511SOL    HW219986   5.092   2.138   6.764
 6512SOL     OW19987   4.726   1.877   6.721
 6512SOL    HW119988   4.673   1.810   6.677
 6512SOL    HW219989   4.813   1.838   6.727
 6513SOL     OW19990   4.497   3.195   5.909
 6513SOL    HW119991   4.471   3.103   5.917
 6513SOL    HW219992   4.579   3.201   5.957
 6514SOL     OW19993   4.343   3.418   6.873
 6514SOL    HW119994   4.342   3.502   6.920
 6514SOL    HW219995   4.431   3.412   6.837
 6515SOL     OW19996   5.053   1.903   5.751
 6515SOL    HW119997   5.065   1.866   5.663
 6515SOL    HW219998   4.968   1.870   5.780
 6516SOL     OW19999   5.024   2.321   6.261
 6516SOL    HW120000   4.972   2.401   6.265
 6516SOL    HW220001   5.011   2.280   6.347
 6517SOL     OW20002   0.001   2.092   6.475
 6517SOL    HW120003   5.237   2.079   6.545
 6517SOL    HW220004   5.268   2.167   6.425
 6518SOL     OW20005   3.765   2.926   5.895
 6518SOL    HW120006   3.859   2.919   5.876
 6518SOL    HW220007   3.738   2.837   5.916
 6519SOL     OW20008   4.602   3.518   5.931
 6519SOL    HW120009   4.529   3.505   5.870
 6519SOL    HW220010   4.577   3.593   5.984
 6520SOL     OW20011   3.946   2.483   7.578
 6520SOL    HW120012   3.856   2.490   7.610
 6520SOL    HW220013   3.937   2.461   7.485
 6521SOL     OW20014   3.946   3.575   7.919
 6521SOL    HW120015   3.971   3.612   8.004
 6521SOL    HW220016   4.026   3.579   7.867
 6522SOL     OW20017   3.936   3.303   7.997
 6522SOL    HW120018   3.925   3.397   7.983
 6522SOL    HW220019   3.876   3.282   8.068
 6523SOL     OW20020   4.304   2.847   7.582
 6523SOL    HW120021   4.350   2.894   7.513
 6523SOL    HW220022   4.344   2.879   7.663
 6524SOL     OW20023   3.759   3.458   7.577
 6524SOL    HW120024   3.743   3.365   7.593
 6524SOL    HW220025   3.731   3.502   7.658
 6525SOL     OW20026   0.109   2.795   8.005
 6525SOL    HW120027   0.204   2.793   8.013
 6525SOL    HW220028   0.086   2.887   8.008
 6526SOL     OW20029   4.526   1.861   7.941
 6526SOL    HW120030   4.575   1.940   7.917
 6526SOL    HW220031   4.435   1.891   7.946
 6527SOL     OW20032   4.314   2.585   7.709
 6527SOL    HW120033   4.311   2.669   7.663
 6527SOL    HW220034   4.256   2.596   7.784
 6528SOL     OW20035   3.779   2.725   0.082
 6528SOL    HW120036   3.841   2.656   0.103
 6528SOL    HW220037   3.794   2.792   0.150
 6529SOL     OW20038   4.620   2.215   7.645
 6529SOL    HW120039   4.654   2.272   7.576
 6529SOL    HW220040   4.642   2.126   7.615
 6530SOL     OW20041   4.043   2.819   7.700
 6530SOL    HW120042   4.122   2.836   7.649
 6530SOL    HW220043   4.003   2.743   7.658
 6531SOL     OW20044   4.835   3.636   7.690
 6531SOL    HW120045   4.758   3.595   7.729
 6531SOL    HW220046   4.860   3.576   7.619
 6532SOL     OW20047   4.188   3.604   7.772
 6532SOL    HW120048   4.241   3.653   7.834
 6532SOL    HW220049   4.252   3.563   7.713
 6533SOL     OW20050   5.132   1.994   7.844
 6533SOL    HW120051   5.094   1.967   7.760
 6533SOL    HW220052   5.226   1.995   7.829
 6534SOL     OW20053   4.120   2.565   7.915
 6534SOL    HW120054   4.109   2.471   7.930
 6534SOL    HW220055   4.031   2.599   7.910
 6535SOL     OW20056   4.365   1.977   7.557
 6535SOL    HW120057   4.428   1.907   7.575
 6535SOL    HW220058   4.315   1.946   7.481
 6536SOL     OW20059   4.258   1.942   7.961
 6536SOL    HW120060   4.173   1.948   8.004
 6536SOL    HW220061   4.256   2.011   7.895
 6537SOL     OW20062   5.129   3.050   7.489
 6537SOL    HW120063   5.134   2.971   7.543
 6537SOL    HW220064   5.043   3.087   7.509
 6538SOL     OW20065   4.013   1.911   7.634
 6538SOL    HW120066   4.069   1.972   7.586
 6538SOL    HW220067   4.075   1.850   7.675
 6539SOL     OW20068   4.666   2.090   7.899
 6539SOL    HW120069   4.629   2.149   7.833
 6539SOL    HW220070   4.757   2.118   7.908
 6540SOL     OW20071   4.148   2.999   0.100
 6540SOL    HW120072   4.088   3.062   0.140
 6540SOL    HW220073   4.124   2.998   0.008
 6541SOL     OW20074   5.017   3.672   8.010
 6541SOL    HW120075   5.056   3.736   7.951
 6541SOL    HW220076   4.929   3.706   8.028
 6542SOL     OW20077   4.748   2.395   7.471
 6542SOL    HW120078   4.700   2.477   7.454
 6542SOL    HW220079   4.801   2.414   7.548
 6543SOL     OW20080   4.206   3.282   7.598
 6543SOL    HW120081   4.133   3.253   7.653
 6543SOL    HW220082   4.199   3.228   7.519
 6544SOL     OW20083   5.132   2.415   7.539
 6544SOL    HW120084   5.051   2.406   7.589
 6544SOL    HW220085   5.200   2.381   7.597
 6545SOL     OW20086   4.249   2.127   7.765
 6545SOL    HW120087   4.298   2.081   7.697
 6545SOL    HW220088   4.222   2.209   7.724
 6546SOL     OW20089   4.441   2.925   7.809
 6546SOL    HW120090   4.410   2.906   7.897
 6546SOL    HW220091   4.519   2.870   7.799
 6547SOL     OW20092   4.086   2.982   7.918
 6547SOL    HW120093   4.062   3.059   7.867
 6547SOL    HW220094   4.074   2.908   7.859
 6548SOL     OW20095   4.955   3.227   7.814
 6548SOL    HW120096   5.014   3.298   7.837
 6548SOL    HW220097   4.918   3.198   7.898
 6549SOL     OW20098   0.043   2.522   7.932
 6549SOL    HW120099   5.280   2.503   8.001
 6549SOL    HW220100   0.042   2.618   7.924
 6550SOL     OW20101   4.916   2.391   7.706
 6550SOL    HW120102   4.918   2.309   7.756
 6550SOL    HW220103   4.888   2.457   7.769
 6551SOL     OW20104   0.017   2.292   7.786
 6551SOL    HW120105   0.018   2.222   7.851
 6551SOL    HW220106   0.029   2.373   7.837
 6552SOL     OW20107   5.043   2.693   7.496
 6552SOL    HW120108   5.072   2.602   7.495
 6552SOL    HW220109   5.066   2.727   7.410
 6553SOL     OW20110   3.736   3.183   7.635
 6553SOL    HW120111   3.647   3.198   7.601
 6553SOL    HW220112   3.733   3.094   7.670
 6554SOL     OW20113   4.578   2.489   7.740
 6554SOL    HW120114   4.577   2.394   7.729
 6554SOL    HW220115   4.486   2.514   7.746
 6555SOL     OW20116   4.180   2.355   7.638
 6555SOL    HW120117   4.240   2.427   7.654
 6555SOL    HW220118   4.095   2.397   7.623
 6556SOL     OW20119   5.023   2.714   7.783
 6556SOL    HW120120   4.933   2.747   7.787
 6556SOL    HW220121   5.041   2.705   7.690
 6557SOL     OW20122   0.205   1.995   7.991
 6557SOL    HW120123   0.162   1.996   7.906
 6557SOL    HW220124   0.142   1.953   8.050
 6558SOL     OW20125   5.111   3.434   7.910
 6558SOL    HW120126   5.199   3.428   7.948
 6558SOL    HW220127   5.080   3.520   7.935
 6559SOL     OW20128   4.383   3.487   7.603
 6559SOL    HW120129   4.399   3.500   7.509
 6559SOL    HW220130   4.329   3.408   7.607
 6560SOL     OW20131   4.906   3.472   7.489
 6560SOL    HW120132   4.916   3.377   7.502
 6560SOL    HW220133   4.845   3.480   7.416
 6561SOL     OW20134   4.653   2.761   7.761
 6561SOL    HW120135   4.703   2.782   7.682
 6561SOL    HW220136   4.637   2.667   7.754
 6562SOL     OW20137   4.336   3.375   7.936
 6562SOL    HW120138   4.386   3.316   7.879
 6562SOL    HW220139   4.255   3.392   7.888
 6563SOL     OW20140   3.987   3.202   7.754
 6563SOL    HW120141   3.897   3.200   7.720
 6563SOL    HW220142   3.979   3.241   7.841
 6564SOL     OW20143   3.803   2.188   7.479
 6564SOL    HW120144   3.719   2.169   7.436
 6564SOL    HW220145   3.835   2.267   7.435
 6565SOL     OW20146   3.786   2.018   7.747
 6565SOL    HW120147   3.771   2.091   7.687
 6565SOL    HW220148   3.870   1.981   7.720
 6566SOL     OW20149   4.895   3.188   7.552
 6566SOL    HW120150   4.800   3.176   7.551
 6566SOL    HW220151   4.916   3.202   7.645
 6567SOL     OW20152   5.283   3.602   0.321
 6567SOL    HW120153   5.283   3.689   0.281
 6567SOL    HW220154   0.063   3.600   0.373
 6568SOL     OW20155   4.933   2.184   7.898
 6568SOL    HW120156   5.006   2.123   7.886
 6568SOL    HW220157   4.947   2.222   7.985
 6569SOL     OW20158   4.363   2.603   8.044
 6569SOL    HW120159   4.360   2.677   0.025
 6569SOL    HW220160   4.274   2.597   8.009
 6570SOL     OW20161   4.597   3.227   7.497
 6570SOL    HW120162   4.554   3.258   7.577
 6570SOL    HW220163   4.607   3.306   7.444
 6571SOL     OW20164   4.802   2.830   7.543
 6571SOL    HW120165   4.779   2.888   7.470
 6571SOL    HW220166   4.881   2.785   7.515
 6572SOL     OW20167   4.106   2.297   7.988
 6572SOL    HW120168   4.159   2.245   7.928
 6572SOL    HW220169   4.157   2.299   8.069
 6573SOL     OW20170   4.487   3.202   7.772
 6573SOL    HW120171   4.462   3.109   7.773
 6573SOL    HW220172   4.568   3.205   7.822
 6574SOL     OW20173   5.054   1.905   7.602
 6574SOL    HW120174   5.068   1.860   7.519
 6574SOL    HW220175   4.972   1.869   7.635
 6575SOL     OW20176   3.778   2.936   7.748
 6575SOL    HW120177   3.873   2.930   7.736
 6575SOL    HW220178   3.749   2.846   7.763
 6576SOL     OW20179   4.609   3.512   7.780
 6576SOL    HW120180   4.531   3.493   7.727
 6576SOL    HW220181   4.578   3.574   7.846
 6577SOL     OW20182   3.931   4.343   0.128
 6577SOL    HW120183   3.850   4.311   0.168
 6577SOL    HW220184   3.948   4.281   0.057
 6578SOL     OW20185   3.948   4.008   0.993
 6578SOL    HW120186   3.976   3.973   1.078
 6578SOL    HW220187   3.859   3.976   0.982
 6579SOL     OW20188   3.722   4.109   0.639
 6579SOL    HW120189   3.641   4.136   0.683
 6579SOL    HW220190   3.697   4.031   0.590
 6580SOL     OW20191   4.296   5.018   1.191
 6580SOL    HW120192   4.212   5.016   1.145
 6580SOL    HW220193   4.311   5.110   1.210
 6581SOL     OW20194   5.273   5.231   0.684
 6581SOL    HW120195   5.276   5.218   0.779
 6581SOL    HW220196   5.181   5.223   0.661
 6582SOL     OW20197   4.865   4.425   0.695
 6582SOL    HW120198   4.916   4.505   0.685
 6582SOL    HW220199   4.815   4.438   0.776
 6583SOL     OW20200   4.467   4.860   1.043
 6583SOL    HW120201   4.405   4.896   1.107
 6583SOL    HW220202   4.503   4.937   0.999
 6584SOL     OW20203   4.601   4.484   1.826
 6584SOL    HW120204   4.582   4.555   1.888
 6584SOL    HW220205   4.620   4.529   1.743
 6585SOL     OW20206   4.406   4.716   0.650
 6585SOL    HW120207   4.474   4.712   0.718
 6585SOL    HW220208   4.339   4.775   0.686
 6586SOL     OW20209   4.434   4.870   1.822
 6586SOL    HW120210   4.484   4.948   1.844
 6586SOL    HW220211   4.355   4.903   1.780
 6587SOL     OW20212   4.063   5.135   1.056
 6587SOL    HW120213   3.982   5.088   1.033
 6587SOL    HW220214   4.092   5.175   0.975
 6588SOL     OW20215   5.107   5.246   1.340
 6588SOL    HW120216   5.134   0.007   1.408
 6588SOL    HW220217   5.094   5.163   1.385
 6589SOL     OW20218   4.176   4.116   1.476
 6589SOL    HW120219   4.252   4.058   1.486
 6589SOL    HW220220   4.101   4.060   1.497
 6590SOL     OW20221   4.871   5.040   1.705
 6590SOL    HW120222   4.881   5.061   1.798
 6590SOL    HW220223   4.807   4.969   1.704
 6591SOL     OW20224   3.931   5.160   0.517
 6591SOL    HW120225   3.967   5.234   0.566
 6591SOL    HW220226   3.885   5.108   0.581
 6592SOL     OW20227   3.992   4.811   0.892
 6592SOL    HW120228   3.989   4.722   0.929
 6592SOL    HW220229   3.935   4.862   0.949
 6593SOL     OW20230   4.343   4.676   0.145
 6593SOL    HW120231   4.286   4.748   0.118
 6593SOL    HW220232   4.397   4.713   0.215
 6594SOL     OW20233   3.842   4.377   0.566
 6594SOL    HW120234   3.810   4.289   0.587
 6594SOL    HW220235   3.833   4.426   0.647
 6595SOL     OW20236   3.692   0.028   0.088
 6595SOL    HW120237   3.703   5.236   0.110
 6595SOL    HW220238   3.724   0.075   0.165
 6596SOL     OW20239   0.126   4.651   0.592
 6596SOL    HW120240   0.217   4.654   0.565
 6596SOL    HW220241   0.097   4.742   0.591
 6597SOL     OW20242   3.850   4.469   1.584
 6597SOL    HW120243   3.940   4.499   1.586
 6597SOL    HW220244   3.797   4.548   1.587
 6598SOL     OW20245   4.349   5.103   0.746
 6598SOL    HW120246   4.295   5.024   0.738
 6598SOL    HW220247   4.334   5.151   0.665
 6599SOL     OW20248   5.027   4.981   1.416
 6599SOL    HW120249   5.049   4.908   1.359
 6599SOL    HW220250   5.070   4.960   1.499
 6600SOL     OW20251   4.545   3.733   0.519
 6600SOL    HW120252   4.584   3.816   0.492
 6600SOL    HW220253   4.451   3.751   0.523
 6601SOL     OW20254   3.911   4.682   1.278
 6601SOL    HW120255   3.998   4.644   1.264
 6601SOL    HW220256   3.854   4.636   1.217
 6602SOL     OW20257   4.068   3.972   1.833
 6602SOL    HW120258   4.108   4.057   1.854
 6602SOL    HW220259   3.975   3.984   1.851
 6603SOL     OW20260   5.182   5.157   0.946
 6603SOL    HW120261   5.112   5.169   1.011
 6603SOL    HW220262   5.168   5.069   0.912
 6604SOL     OW20263   0.043   0.164   0.555
 6604SOL    HW120264   0.088   0.125   0.480
 6604SOL    HW220265   0.034   0.092   0.617
 6605SOL     OW20266   4.324   4.432   0.286
 6605SOL    HW120267   4.338   4.515   0.241
 6605SOL    HW220268   4.259   4.452   0.354
 6606SOL     OW20269   4.993   4.062   0.915
 6606SOL    HW120270   4.904   4.033   0.937
 6606SOL    HW220271   5.047   4.026   0.985
 6607SOL     OW20272   4.512   4.341   1.445
 6607SOL    HW120273   4.488   4.315   1.534
 6607SOL    HW220274   4.479   4.271   1.389
 6608SOL     OW20275   5.114   4.210   1.683
 6608SOL    HW120276   5.117   4.242   1.773
 6608SOL    HW220277   5.198   4.166   1.670
 6609SOL     OW20278   4.670   4.606   1.587
 6609SOL    HW120279   4.725   4.538   1.548
 6609SOL    HW220280   4.622   4.644   1.512
 6610SOL     OW20281   4.717   4.132   1.231
 6610SOL    HW120282   4.627   4.148   1.259
 6610SOL    HW220283   4.709   4.090   1.145
 6611SOL     OW20284   4.783   4.422   0.424
 6611SOL    HW120285   4.803   4.418   0.518
 6611SOL    HW220286   4.700   4.377   0.415
 6612SOL     OW20287   3.812   4.546   0.779
 6612SOL    HW120288   3.892   4.540   0.830
 6612SOL    HW220289   3.767   4.623   0.814
 6613SOL     OW20290   4.611   4.080   0.203
 6613SOL    HW120291   4.656   4.132   0.136
 6613SOL    HW220292   4.612   3.991   0.169
 6614SOL     OW20293   5.099   4.879   0.550
 6614SOL    HW120294   5.189   4.880   0.516
 6614SOL    HW220295   5.050   4.933   0.488
 6615SOL     OW20296   4.274   3.899   0.899
 6615SOL    HW120297   4.277   3.929   0.989
 6615SOL    HW220298   4.275   3.979   0.846
 6616SOL     OW20299   4.734   5.155   0.473
 6616SOL    HW120300   4.666   5.222   0.485
 6616SOL    HW220301   4.759   5.130   0.561
 6617SOL     OW20302   4.927   5.270   1.581
 6617SOL    HW120303   4.912   5.182   1.614
 6617SOL    HW220304   4.897   5.267   1.490
 6618SOL     OW20305   4.035   4.667   0.264
 6618SOL    HW120306   4.093   4.714   0.205
 6618SOL    HW220307   4.054   4.574   0.249
 6619SOL     OW20308   4.188   4.988   1.743
 6619SOL    HW120309   4.161   4.992   1.652
 6619SOL    HW220310   4.106   4.988   1.793
 6620SOL     OW20311   4.889   0.193   0.197
 6620SOL    HW120312   4.816   0.197   0.259
 6620SOL    HW220313   4.854   0.144   0.122
 6621SOL     OW20314   3.927   3.993   1.504
 6621SOL    HW120315   3.847   4.045   1.510
 6621SOL    HW220316   3.903   3.908   1.542
 6622SOL     OW20317   5.107   3.848   0.448
 6622SOL    HW120318   5.093   3.826   0.356
 6622SOL    HW220319   5.202   3.855   0.457
 6623SOL     OW20320   4.113   4.421   0.473
 6623SOL    HW120321   4.132   4.328   0.487
 6623SOL    HW220322   4.020   4.430   0.496
 6624SOL     OW20323   4.357   3.831   0.142
 6624SOL    HW120324   4.453   3.821   0.147
 6624SOL    HW220325   4.336   3.813   0.051
 6625SOL     OW20326   4.485   4.004   1.756
 6625SOL    HW120327   4.567   3.953   1.753
 6625SOL    HW220328   4.440   3.971   1.834
 6626SOL     OW20329   5.056   4.318   1.432
 6626SOL    HW120330   5.085   4.290   1.519
 6626SOL    HW220331   5.102   4.401   1.417
 6627SOL     OW20332   4.543   5.109   0.944
 6627SOL    HW120333   4.622   5.105   0.890
 6627SOL    HW220334   4.471   5.120   0.881
 6628SOL     OW20335   4.651   4.232   0.899
 6628SOL    HW120336   4.627   4.223   0.807
 6628SOL    HW220337   4.680   4.144   0.925
 6629SOL     OW20338   4.276   3.788   0.500
 6629SOL    HW120339   4.197   3.785   0.554
 6629SOL    HW220340   4.266   3.866   0.446
 6630SOL     OW20341   5.126   4.898   0.042
 6630SOL    HW120342   5.118   4.820   0.096
 6630SOL    HW220343   5.043   4.945   0.054
 6631SOL     OW20344   4.040   3.788   0.178
 6631SOL    HW120345   4.103   3.856   0.201
 6631SOL    HW220346   4.075   3.708   0.216
 6632SOL     OW20347   4.663   3.974   0.455
 6632SOL    HW120348   4.636   4.012   0.372
 6632SOL    HW220349   4.757   3.994   0.462
 6633SOL     OW20350   4.801   4.409   1.457
 6633SOL    HW120351   4.738   4.337   1.458
 6633SOL    HW220352   4.886   4.366   1.448
 6634SOL     OW20353   4.987   5.262   0.762
 6634SOL    HW120354   4.950   0.049   0.746
 6634SOL    HW220355   5.044   5.273   0.838
 6635SOL     OW20356   4.192   4.877   0.721
 6635SOL    HW120357   4.127   4.855   0.789
 6635SOL    HW220358   4.146   4.861   0.639
 6636SOL     OW20359   4.759   4.244   0.037
 6636SOL    HW120360   4.717   4.327   0.014
 6636SOL    HW220361   4.821   4.267   0.106
 6637SOL     OW20362   3.809   4.278   1.393
 6637SOL    HW120363   3.901   4.277   1.366
 6637SOL    HW220364   3.803   4.347   1.458
 6638SOL     OW20365   4.281   3.951   1.172
 6638SOL    HW120366   4.323   3.880   1.220
 6638SOL    HW220367   4.189   3.947   1.200
 6639SOL     OW20368   4.590   4.180   0.638
 6639SOL    HW120369   4.553   4.238   0.572
 6639SOL    HW220370   4.612   4.100   0.590
 6640SOL     OW20371   4.740   3.778   0.745
 6640SOL    HW120372   4.680   3.773   0.671
 6640SOL    HW220373   4.717   3.703   0.801
 6641SOL     OW20374   5.151   4.904   0.849
 6641SOL    HW120375   5.098   4.825   0.861
 6641SOL    HW220376   5.167   4.907   0.755
 6642SOL     OW20377   4.183   5.162   0.147
 6642SOL    HW120378   4.136   5.111   0.213
 6642SOL    HW220379   4.242   5.100   0.105
 6643SOL     OW20380   5.136   4.302   0.065
 6643SOL    HW120381   5.076   4.285   0.137
 6643SOL    HW220382   5.198   4.229   0.067
 6644SOL     OW20383   4.233   3.988   0.318
 6644SOL    HW120384   4.290   3.938   0.260
 6644SOL    HW220385   4.220   4.072   0.273
 6645SOL     OW20386   4.783   5.071   1.325
 6645SOL    HW120387   4.704   5.047   1.372
 6645SOL    HW220388   4.855   5.038   1.379
 6646SOL     OW20389   4.853   4.926   1.107
 6646SOL    HW120390   4.804   4.969   1.177
 6646SOL    HW220391   4.803   4.945   1.027
 6647SOL     OW20392   4.641   3.817   1.392
 6647SOL    HW120393   4.663   3.799   1.300
 6647SOL    HW220394   4.721   3.856   1.428
 6648SOL     OW20395   4.703   4.827   1.735
 6648SOL    HW120396   4.612   4.849   1.755
 6648SOL    HW220397   4.698   4.753   1.675
 6649SOL     OW20398   4.442   4.789   0.383
 6649SOL    HW120399   4.422   4.768   0.474
 6649SOL    HW220400   4.521   4.738   0.363
 6650SOL     OW20401   4.146   4.544   1.252
 6650SOL    HW120402   4.214   4.554   1.319
 6650SOL    HW220403   4.112   4.455   1.265
 6651SOL     OW20404   4.985   4.097   1.282
 6651SOL    HW120405   5.020   4.177   1.321
 6651SOL    HW220406   4.895   4.118   1.259
 6652SOL     OW20407   4.049   4.835   0.491
 6652SOL    HW120408   4.050   4.906   0.426
 6652SOL    HW220409   4.060   4.755   0.439
 6653SOL     OW20410   4.270   4.253   0.859
 6653SOL    HW120411   4.283   4.312   0.785
 6653SOL    HW220412   4.337   4.278   0.922
 6654SOL     OW20413   4.977   5.069   0.371
 6654SOL    HW120414   5.022   5.149   0.345
 6654SOL    HW220415   4.893   5.099   0.407
 6655SOL     OW20416   4.974   5.185   1.119
 6655SOL    HW120417   5.021   5.212   1.198
 6655SOL    HW220418   4.942   5.097   1.138
 6656SOL     OW20419   4.075   5.235   1.308
 6656SOL    HW120420   4.063   5.197   1.221
 6656SOL    HW220421   4.168   5.254   1.314
 6657SOL     OW20422   4.142   4.470   1.604
 6657SOL    HW120423   4.206   4.513   1.547
 6657SOL    HW220424   4.181   4.384   1.622
 6658SOL     OW20425   4.718   3.860   1.756
 6658SOL    HW120426   4.777   3.932   1.734
 6658SOL    HW220427   4.764   3.782   1.728
 6659SOL     OW20428   4.221   3.759   1.751
 6659SOL    HW120429   4.173   3.707   1.687
 6659SOL    HW220430   4.165   3.835   1.767
 6660SOL     OW20431   4.309   4.598   1.031
 6660SOL    HW120432   4.344   4.687   1.034
 6660SOL    HW220433   4.253   4.593   1.109
 6661SOL     OW20434   5.086   4.577   1.035
 6661SOL    HW120435   5.012   4.549   0.981
 6661SOL    HW220436   5.155   4.513   1.015
 6662SOL     OW20437   4.933   4.257   0.260
 6662SOL    HW120438   4.935   4.177   0.313
 6662SOL    HW220439   4.889   4.321   0.316
 6663SOL     OW20440   4.019   3.920   1.247
 6663SOL    HW120441   3.983   3.952   1.330
 6663SOL    HW220442   4.001   3.826   1.247
 6664SOL     OW20443   3.786   5.052   1.286
 6664SOL    HW120444   3.805   4.983   1.350
 6664SOL    HW220445   3.812   5.133   1.329
 6665SOL     OW20446   4.442   4.351   1.051
 6665SOL    HW120447   4.520   4.340   0.997
 6665SOL    HW220448   4.414   4.441   1.034
 6666SOL     OW20449   4.031   3.784   0.626
 6666SOL    HW120450   4.008   3.875   0.646
 6666SOL    HW220451   4.040   3.742   0.711
 6667SOL     OW20452   0.055   4.099   0.350
 6667SOL    HW120453   0.062   4.046   0.429
 6667SOL    HW220454   0.037   4.187   0.383
 6668SOL     OW20455   4.749   4.481   0.954
 6668SOL    HW120456   4.744   4.498   1.048
 6668SOL    HW220457   4.724   4.389   0.945
 6669SOL     OW20458   4.074   4.641   1.810
 6669SOL    HW120459   4.154   4.661   1.858
 6669SOL    HW220460   4.102   4.578   1.743
 6670SOL     OW20461   5.032   4.557   0.019
 6670SOL    HW120462   5.069   4.470   0.038
 6670SOL    HW220463   5.052   4.571   8.006
 6671SOL     OW20464   4.777   5.092   0.809
 6671SOL    HW120465   4.786   5.002   0.775
 6671SOL    HW220466   4.864   5.130   0.798
 6672SOL     OW20467   4.033   4.532   0.946
 6672SOL    HW120468   4.126   4.553   0.941
 6672SOL    HW220469   4.029   4.442   0.977
 6673SOL     OW20470   4.049   4.255   1.013
 6673SOL    HW120471   4.014   4.167   1.001
 6673SOL    HW220472   4.126   4.258   0.956
 6674SOL     OW20473   4.858   4.097   1.686
 6674SOL    HW120474   4.809   4.151   1.747
 6674SOL    HW220475   4.944   4.138   1.681
 6675SOL     OW20476   4.884   3.920   1.472
 6675SOL    HW120477   4.873   3.983   1.544
 6675SOL    HW220478   4.925   3.972   1.402
 6676SOL     OW20479   3.741   5.037   0.166
 6676SOL    HW120480   3.653   5.051   0.133
 6676SOL    HW220481   3.737   4.952   0.210
 6677SOL     OW20482   4.694   4.510   1.221
 6677SOL    HW120483   4.756   4.493   1.293
 6677SOL    HW220484   4.612   4.469   1.250
 6678SOL     OW20485   3.761   4.274   1.117
 6678SOL    HW120486   3.843   4.269   1.067
 6678SOL    HW220487   3.790   4.274   1.208
 6679SOL     OW20488   3.915   4.247   1.732
 6679SOL    HW120489   3.970   4.203   1.667
 6679SOL    HW220490   3.880   4.323   1.687
 6680SOL     OW20491   5.124   4.652   1.665
 6680SOL    HW120492   5.126   4.747   1.652
 6680SOL    HW220493   5.128   4.616   1.577
 6681SOL     OW20494   4.546   4.292   0.376
 6681SOL    HW120495   4.555   4.221   0.313
 6681SOL    HW220496   4.470   4.342   0.346
 6682SOL     OW20497   3.924   5.273   1.747
 6682SOL    HW120498   3.890   0.018   1.824
 6682SOL    HW220499   3.938   5.183   1.776
 6683SOL     OW20500   4.438   4.168   1.250
 6683SOL    HW120501   4.380   4.096   1.225
 6683SOL    HW220502   4.429   4.232   1.180
 6684SOL     OW20503   4.190   4.217   0.173
 6684SOL    HW120504   4.256   4.282   0.197
 6684SOL    HW220505   4.107   4.263   0.187
 6685SOL     OW20506   3.864   4.863   1.473
 6685SOL    HW120507   3.867   4.816   1.557
 6685SOL    HW220508   3.881   4.795   1.407
 6686SOL     OW20509   5.043   4.764   1.228
 6686SOL    HW120510   5.066   4.701   1.160
 6686SOL    HW220511   4.976   4.819   1.187
 6687SOL     OW20512   5.023   4.599   0.319
 6687SOL    HW120513   4.947   4.553   0.353
 6687SOL    HW220514   5.025   4.578   0.226
 6688SOL     OW20515   3.825   4.986   1.025
 6688SOL    HW120516   3.804   5.008   1.115
 6688SOL    HW220517   3.744   4.950   0.989
 6689SOL     OW20518   4.470   0.013   1.723
 6689SOL    HW120519   4.382   0.049   1.714
 6689SOL    HW220520   4.523   0.065   1.662
 6690SOL     OW20521   4.630   3.816   0.125
 6690SOL    HW120522   4.633   3.790   0.033
 6690SOL    HW220523   4.697   3.762   0.168
 6691SOL     OW20524   0.070   3.873   0.529
 6691SOL    HW120525   0.162   3.859   0.507
 6691SOL    HW220526   0.053   3.812   0.601
 6692SOL     OW20527   5.022   4.647   0.669
 6692SOL    HW120528   5.102   4.595   0.661
 6692SOL    HW220529   5.040   4.726   0.619
 6693SOL     OW20530   4.530   4.990   1.398
 6693SOL    HW120531   4.496   5.023   1.482
 6693SOL    HW220532   4.456   4.999   1.338
 6694SOL     OW20533   3.980   4.036   0.715
 6694SOL    HW120534   3.893   4.071   0.693
 6694SOL    HW220535   3.980   4.032   0.810
 6695SOL     OW20536   4.849   0.013   8.076
 6695SOL    HW120537   4.876   5.227   0.028
 6695SOL    HW220538   4.878   0.015   7.985
 6696SOL     OW20539   4.551   4.723   1.371
 6696SOL    HW120540   4.598   4.710   1.289
 6696SOL    HW220541   4.549   4.818   1.383
 6697SOL     OW20542   4.648   4.639   0.305
 6697SOL    HW120543   4.699   4.662   0.227
 6697SOL    HW220544   4.697   4.568   0.346
 6698SOL     OW20545   4.084   5.029   1.500
 6698SOL    HW120546   4.076   5.101   1.437
 6698SOL    HW220547   4.008   4.973   1.482
 6699SOL     OW20548   4.788   4.838   0.720
 6699SOL    HW120549   4.715   4.786   0.755
 6699SOL    HW220550   4.847   4.774   0.681
 6700SOL     OW20551   4.738   3.963   0.968
 6700SOL    HW120552   4.737   3.917   0.884
 6700SOL    HW220553   4.733   3.894   1.034
 6701SOL     OW20554   3.989   5.026   0.289
 6701SOL    HW120555   3.908   5.038   0.239
 6701SOL    HW220556   3.976   5.080   0.367
 6702SOL     OW20557   3.837   4.757   1.726
 6702SOL    HW120558   3.762   4.728   1.777
 6702SOL    HW220559   3.912   4.713   1.767
 6703SOL     OW20560   4.400   3.918   1.500
 6703SOL    HW120561   4.485   3.896   1.460
 6703SOL    HW220562   4.423   3.951   1.587
 6704SOL     OW20563   3.783   4.077   0.042
 6704SOL    HW120564   3.699   4.042   0.012
 6704SOL    HW220565   3.837   4.078   8.043
 6705SOL     OW20566   5.170   4.582   1.401
 6705SOL    HW120567   5.115   4.640   1.348
 6705SOL    HW220568   5.257   4.590   1.362
 6706SOL     OW20569   3.793   3.875   0.290
 6706SOL    HW120570   3.778   3.961   0.250
 6706SOL    HW220571   3.878   3.847   0.256
 6707SOL     OW20572   4.904   5.048   0.095
 6707SOL    HW120573   4.809   5.048   0.087
 6707SOL    HW220574   4.921   5.049   0.189
 6708SOL     OW20575   4.344   4.555   1.436
 6708SOL    HW120576   4.402   4.630   1.420
 6708SOL    HW220577   4.403   4.480   1.442
 6709SOL     OW20578   4.442   4.282   1.699
 6709SOL    HW120579   4.487   4.340   1.760
 6709SOL    HW220580   4.458   4.194   1.732
 6710SOL     OW20581   5.181   4.921   1.633
 6710SOL    HW120582   5.165   4.936   1.726
 6710SOL    HW220583   5.276   4.928   1.623
 6711SOL     OW20584   4.929   4.054   0.458
 6711SOL    HW120585   4.988   3.979   0.453
 6711SOL    HW220586   4.957   4.102   0.536
 6712SOL     OW20587   4.307   4.456   0.674
 6712SOL    HW120588   4.348   4.541   0.663
 6712SOL    HW220589   4.241   4.451   0.604
 6713SOL     OW20590   4.643   5.087   0.042
 6713SOL    HW120591   4.583   5.069   0.114
 6713SOL    HW220592   4.594   5.145   8.064
 6714SOL     OW20593   4.595   4.696   0.854
 6714SOL    HW120594   4.643   4.622   0.892
 6714SOL    HW220595   4.555   4.739   0.930
 6715SOL     OW20596   4.801   4.692   0.087
 6715SOL    HW120597   4.784   4.752   0.015
 6715SOL    HW220598   4.883   4.648   0.062
 6716SOL     OW20599   3.941   5.015   1.849
 6716SOL    HW120600   3.883   4.945   1.819
 6716SOL    HW220601   3.922   5.023   1.943
 6717SOL     OW20602   3.819   4.949   0.668
 6717SOL    HW120603   3.817   4.901   0.751
 6717SOL    HW220604   3.886   4.903   0.616
 6718SOL     OW20605   4.403   5.088   1.607
 6718SOL    HW120606   4.322   5.065   1.653
 6718SOL    HW220607   4.435   5.165   1.653
 6719SOL     OW20608   4.145   4.160   0.524
 6719SOL    HW120609   4.178   4.089   0.469
 6719SOL    HW220610   4.098   4.116   0.595
 6720SOL     OW20611   0.127   5.235   1.047
 6720SOL    HW120612   0.043   5.209   1.009
 6720SOL    HW220613   0.108   5.252   1.139
 6721SOL     OW20614   4.061   4.285   1.293
 6721SOL    HW120615   4.114   4.227   1.348
 6721SOL    HW220616   4.077   4.255   1.204
 6722SOL     OW20617   5.141   3.942   1.116
 6722SOL    HW120618   5.187   3.880   1.172
 6722SOL    HW220619   5.094   3.999   1.177
 6723SOL     OW20620   4.726   3.738   1.135
 6723SOL    HW120621   4.674   3.672   1.090
 6723SOL    HW220622   4.814   3.700   1.142
 6724SOL     OW20623   4.524   5.038   0.282
 6724SOL    HW120624   4.481   4.958   0.312
 6724SOL    HW220625   4.584   5.060   0.353
 6725SOL     OW20626   4.347   0.002   1.302
 6725SOL    HW120627   4.346   0.054   1.382
 6725SOL    HW220628   4.440   5.286   1.285
 6726SOL     OW20629   5.047   3.778   0.196
 6726SOL    HW120630   5.081   3.738   0.116
 6726SOL    HW220631   4.964   3.733   0.212
 6727SOL     OW20632   5.023   4.189   0.679
 6727SOL    HW120633   4.971   4.269   0.684
 6727SOL    HW220634   5.011   4.147   0.764
 6728SOL     OW20635   5.297   3.956   0.884
 6728SOL    HW120636   5.239   3.934   0.957
 6728SOL    HW220637   5.263   4.040   0.852
 6729SOL     OW20638   3.766   4.787   0.308
 6729SOL    HW120639   3.861   4.788   0.315
 6729SOL    HW220640   3.741   4.701   0.341
 6730SOL     OW20641   3.945   4.348   1.993
 6730SOL    HW120642   3.856   4.343   2.028
 6730SOL    HW220643   3.936   4.325   1.900
 6731SOL     OW20644   3.948   4.009   2.855
 6731SOL    HW120645   3.976   3.973   2.939
 6731SOL    HW220646   3.859   3.976   2.843
 6732SOL     OW20647   3.722   4.109   2.501
 6732SOL    HW120648   3.641   4.136   2.544
 6732SOL    HW220649   3.697   4.031   2.450
 6733SOL     OW20650   4.297   5.018   3.053
 6733SOL    HW120651   4.213   5.015   3.007
 6733SOL    HW220652   4.310   5.110   3.073
 6734SOL     OW20653   5.272   5.229   2.546
 6734SOL    HW120654   5.279   5.218   2.641
 6734SOL    HW220655   5.178   5.230   2.529
 6735SOL     OW20656   4.864   4.423   2.556
 6735SOL    HW120657   4.915   4.504   2.546
 6735SOL    HW220658   4.815   4.435   2.637
 6736SOL     OW20659   4.469   4.861   2.905
 6736SOL    HW120660   4.406   4.897   2.969
 6736SOL    HW220661   4.503   4.938   2.860
 6737SOL     OW20662   4.601   4.484   3.688
 6737SOL    HW120663   4.582   4.555   3.750
 6737SOL    HW220664   4.620   4.529   3.606
 6738SOL     OW20665   4.409   4.719   2.506
 6738SOL    HW120666   4.475   4.714   2.575
 6738SOL    HW220667   4.341   4.775   2.543
 6739SOL     OW20668   4.434   4.870   3.684
 6739SOL    HW120669   4.484   4.949   3.706
 6739SOL    HW220670   4.355   4.903   3.642
 6740SOL     OW20671   4.063   5.135   2.918
 6740SOL    HW120672   3.982   5.088   2.896
 6740SOL    HW220673   4.091   5.174   2.836
 6741SOL     OW20674   5.109   5.244   3.201
 6741SOL    HW120675   5.134   0.006   3.270
 6741SOL    HW220676   5.093   5.162   3.248
 6742SOL     OW20677   4.176   4.116   3.339
 6742SOL    HW120678   4.251   4.058   3.348
 6742SOL    HW220679   4.100   4.060   3.359
 6743SOL     OW20680   4.870   5.041   3.567
 6743SOL    HW120681   4.881   5.062   3.660
 6743SOL    HW220682   4.807   4.969   3.566
 6744SOL     OW20683   3.934   5.166   2.388
 6744SOL    HW120684   3.969   5.238   2.441
 6744SOL    HW220685   3.887   5.111   2.452
 6745SOL     OW20686   3.993   4.811   2.754
 6745SOL    HW120687   3.990   4.722   2.790
 6745SOL    HW220688   3.936   4.862   2.812
 6746SOL     OW20689   4.300   4.708   2.004
 6746SOL    HW120690   4.349   4.753   1.935
 6746SOL    HW220691   4.339   4.739   2.085
 6747SOL     OW20692   3.842   4.380   2.423
 6747SOL    HW120693   3.813   4.291   2.445
 6747SOL    HW220694   3.834   4.428   2.505
 6748SOL     OW20695   3.715   0.007   1.954
 6748SOL    HW120696   3.726   5.220   1.990
 6748SOL    HW220697   3.731   0.066   2.027
 6749SOL     OW20698   0.112   4.655   2.432
 6749SOL    HW120699   0.205   4.638   2.419
 6749SOL    HW220700   0.106   4.750   2.444
 6750SOL     OW20701   3.849   4.468   3.446
 6750SOL    HW120702   3.940   4.499   3.448
 6750SOL    HW220703   3.797   4.548   3.448
 6751SOL     OW20704   4.350   5.101   2.607
 6751SOL    HW120705   4.296   5.022   2.599
 6751SOL    HW220706   4.333   5.150   2.527
 6752SOL     OW20707   5.027   4.980   3.278
 6752SOL    HW120708   5.050   4.907   3.221
 6752SOL    HW220709   5.069   4.960   3.361
 6753SOL     OW20710   4.544   3.729   2.377
 6753SOL    HW120711   4.585   3.812   2.352
 6753SOL    HW220712   4.451   3.749   2.381
 6754SOL     OW20713   3.911   4.682   3.140
 6754SOL    HW120714   3.998   4.644   3.126
 6754SOL    HW220715   3.854   4.636   3.079
 6755SOL     OW20716   4.068   3.972   3.696
 6755SOL    HW120717   4.107   4.057   3.716
 6755SOL    HW220718   3.974   3.984   3.714
 6756SOL     OW20719   5.182   5.156   2.809
 6756SOL    HW120720   5.112   5.168   2.874
 6756SOL    HW220721   5.168   5.068   2.775
 6757SOL     OW20722   0.033   0.168   2.419
 6757SOL    HW120723   0.079   0.134   2.342
 6757SOL    HW220724   0.024   0.092   2.477
 6758SOL     OW20725   4.318   4.439   2.133
 6758SOL    HW120726   4.320   4.524   2.088
 6758SOL    HW220727   4.253   4.451   2.202
 6759SOL     OW20728   4.992   4.062   2.776
 6759SOL    HW120729   4.903   4.034   2.799
 6759SOL    HW220730   5.047   4.027   2.847
 6760SOL     OW20731   4.512   4.341   3.307
 6760SOL    HW120732   4.488   4.315   3.396
 6760SOL    HW220733   4.480   4.271   3.251
 6761SOL     OW20734   5.114   4.210   3.545
 6761SOL    HW120735   5.117   4.242   3.635
 6761SOL    HW220736   5.197   4.166   3.532
 6762SOL     OW20737   4.670   4.606   3.449
 6762SOL    HW120738   4.725   4.538   3.410
 6762SOL    HW220739   4.622   4.644   3.375
 6763SOL     OW20740   4.717   4.132   3.092
 6763SOL    HW120741   4.627   4.148   3.120
 6763SOL    HW220742   4.709   4.090   3.007
 6764SOL     OW20743   4.778   4.424   2.286
 6764SOL    HW120744   4.798   4.418   2.379
 6764SOL    HW220745   4.694   4.378   2.276
 6765SOL     OW20746   3.812   4.546   2.640
 6765SOL    HW120747   3.892   4.539   2.691
 6765SOL    HW220748   3.767   4.623   2.675
 6766SOL     OW20749   4.623   4.073   2.057
 6766SOL    HW120750   4.662   4.137   1.996
 6766SOL    HW220751   4.634   3.989   2.013
 6767SOL     OW20752   5.102   4.879   2.417
 6767SOL    HW120753   5.194   4.886   2.391
 6767SOL    HW220754   5.055   4.934   2.353
 6768SOL     OW20755   4.275   3.899   2.761
 6768SOL    HW120756   4.277   3.930   2.851
 6768SOL    HW220757   4.274   3.979   2.708
 6769SOL     OW20758   4.737   5.158   2.342
 6769SOL    HW120759   4.667   5.224   2.346
 6769SOL    HW220760   4.753   5.134   2.433
 6770SOL     OW20761   4.929   5.269   3.442
 6770SOL    HW120762   4.913   5.182   3.476
 6770SOL    HW220763   4.895   5.267   3.352
 6771SOL     OW20764   4.036   4.681   2.116
 6771SOL    HW120765   4.119   4.701   2.073
 6771SOL    HW220766   4.008   4.598   2.077
 6772SOL     OW20767   4.188   4.988   3.605
 6772SOL    HW120768   4.161   4.992   3.513
 6772SOL    HW220769   4.106   4.988   3.654
 6773SOL     OW20770   4.789   0.165   2.070
 6773SOL    HW120771   4.801   0.114   2.151
 6773SOL    HW220772   4.862   0.138   2.014
 6774SOL     OW20773   3.927   3.993   3.366
 6774SOL    HW120774   3.846   4.044   3.371
 6774SOL    HW220775   3.903   3.907   3.403
 6775SOL     OW20776   5.111   3.829   2.285
 6775SOL    HW120777   5.095   3.810   2.192
 6775SOL    HW220778   5.205   3.848   2.290
 6776SOL     OW20779   4.121   4.418   2.335
 6776SOL    HW120780   4.137   4.324   2.348
 6776SOL    HW220781   4.028   4.429   2.351
 6777SOL     OW20782   4.370   3.841   1.964
 6777SOL    HW120783   4.430   3.768   1.982
 6777SOL    HW220784   4.316   3.810   1.891
 6778SOL     OW20785   4.485   4.004   3.619
 6778SOL    HW120786   4.567   3.953   3.615
 6778SOL    HW220787   4.440   3.970   3.696
 6779SOL     OW20788   5.056   4.318   3.294
 6779SOL    HW120789   5.085   4.290   3.381
 6779SOL    HW220790   5.101   4.401   3.280
 6780SOL     OW20791   4.544   5.109   2.804
 6780SOL    HW120792   4.622   5.104   2.749
 6780SOL    HW220793   4.472   5.120   2.742
 6781SOL     OW20794   4.652   4.232   2.761
 6781SOL    HW120795   4.628   4.223   2.669
 6781SOL    HW220796   4.681   4.145   2.787
 6782SOL     OW20797   4.277   3.787   2.357
 6782SOL    HW120798   4.198   3.787   2.410
 6782SOL    HW220799   4.268   3.864   2.301
 6783SOL     OW20800   5.125   4.907   1.905
 6783SOL    HW120801   5.119   4.823   1.950
 6783SOL    HW220802   5.039   4.947   1.919
 6784SOL     OW20803   4.013   3.772   2.048
 6784SOL    HW120804   4.070   3.836   2.006
 6784SOL    HW220805   4.073   3.711   2.090
 6785SOL     OW20806   4.665   3.974   2.316
 6785SOL    HW120807   4.640   4.011   2.231
 6785SOL    HW220808   4.759   3.989   2.322
 6786SOL     OW20809   4.801   4.409   3.318
 6786SOL    HW120810   4.737   4.338   3.320
 6786SOL    HW220811   4.885   4.366   3.310
 6787SOL     OW20812   4.991   5.264   2.621
 6787SOL    HW120813   4.940   0.045   2.616
 6787SOL    HW220814   5.043   5.275   2.700
 6788SOL     OW20815   4.193   4.875   2.582
 6788SOL    HW120816   4.128   4.854   2.649
 6788SOL    HW220817   4.147   4.861   2.499
 6789SOL     OW20818   4.747   4.258   1.888
 6789SOL    HW120819   4.703   4.340   1.869
 6789SOL    HW220820   4.808   4.279   1.959
 6790SOL     OW20821   3.809   4.278   3.255
 6790SOL    HW120822   3.901   4.277   3.228
 6790SOL    HW220823   3.804   4.347   3.320
 6791SOL     OW20824   4.281   3.951   3.034
 6791SOL    HW120825   4.323   3.879   3.081
 6791SOL    HW220826   4.189   3.948   3.061
 6792SOL     OW20827   4.591   4.181   2.499
 6792SOL    HW120828   4.547   4.238   2.435
 6792SOL    HW220829   4.613   4.102   2.449
 6793SOL     OW20830   4.741   3.779   2.608
 6793SOL    HW120831   4.682   3.773   2.533
 6793SOL    HW220832   4.717   3.704   2.663
 6794SOL     OW20833   5.149   4.903   2.711
 6794SOL    HW120834   5.098   4.824   2.729
 6794SOL    HW220835   5.157   4.905   2.615
 6795SOL     OW20836   4.191   5.154   2.003
 6795SOL    HW120837   4.138   5.099   2.060
 6795SOL    HW220838   4.216   5.096   1.930
 6796SOL     OW20839   5.131   4.279   1.950
 6796SOL    HW120840   5.052   4.271   2.004
 6796SOL    HW220841   5.202   4.249   2.006
 6797SOL     OW20842   4.249   3.986   2.172
 6797SOL    HW120843   4.300   3.942   2.103
 6797SOL    HW220844   4.222   4.069   2.132
 6798SOL     OW20845   4.783   5.071   3.187
 6798SOL    HW120846   4.703   5.047   3.234
 6798SOL    HW220847   4.854   5.038   3.242
 6799SOL     OW20848   4.853   4.926   2.969
 6799SOL    HW120849   4.805   4.968   3.040
 6799SOL    HW220850   4.800   4.941   2.891
 6800SOL     OW20851   4.641   3.817   3.254
 6800SOL    HW120852   4.662   3.799   3.163
 6800SOL    HW220853   4.721   3.855   3.290
 6801SOL     OW20854   4.703   4.827   3.597
 6801SOL    HW120855   4.612   4.849   3.617
 6801SOL    HW220856   4.698   4.753   3.537
 6802SOL     OW20857   4.431   4.786   2.233
 6802SOL    HW120858   4.417   4.766   2.326
 6802SOL    HW220859   4.508   4.734   2.208
 6803SOL     OW20860   4.146   4.544   3.114
 6803SOL    HW120861   4.214   4.553   3.181
 6803SOL    HW220862   4.112   4.455   3.127
 6804SOL     OW20863   4.985   4.097   3.145
 6804SOL    HW120864   5.019   4.177   3.184
 6804SOL    HW220865   4.895   4.118   3.121
 6805SOL     OW20866   4.053   4.841   2.348
 6805SOL    HW120867   4.050   4.914   2.286
 6805SOL    HW220868   4.056   4.763   2.293
 6806SOL     OW20869   4.270   4.254   2.721
 6806SOL    HW120870   4.284   4.313   2.647
 6806SOL    HW220871   4.337   4.279   2.784
 6807SOL     OW20872   4.983   5.085   2.250
 6807SOL    HW120873   5.033   5.164   2.271
 6807SOL    HW220874   4.895   5.104   2.280
 6808SOL     OW20875   4.974   5.185   2.981
 6808SOL    HW120876   5.022   5.211   3.060
 6808SOL    HW220877   4.941   5.098   3.001
 6809SOL     OW20878   4.074   5.235   3.170
 6809SOL    HW120879   4.063   5.197   3.083
 6809SOL    HW220880   4.168   5.254   3.176
 6810SOL     OW20881   4.142   4.470   3.466
 6810SOL    HW120882   4.206   4.513   3.409
 6810SOL    HW220883   4.179   4.383   3.483
 6811SOL     OW20884   4.718   3.860   3.618
 6811SOL    HW120885   4.777   3.932   3.596
 6811SOL    HW220886   4.764   3.781   3.590
 6812SOL     OW20887   4.221   3.759   3.614
 6812SOL    HW120888   4.173   3.707   3.549
 6812SOL    HW220889   4.165   3.835   3.629
 6813SOL     OW20890   4.310   4.597   2.894
 6813SOL    HW120891   4.343   4.687   2.896
 6813SOL    HW220892   4.253   4.591   2.971
 6814SOL     OW20893   5.086   4.577   2.895
 6814SOL    HW120894   5.010   4.547   2.845
 6814SOL    HW220895   5.151   4.508   2.884
 6815SOL     OW20896   4.918   4.254   2.119
 6815SOL    HW120897   4.926   4.175   2.173
 6815SOL    HW220898   4.878   4.318   2.178
 6816SOL     OW20899   4.019   3.920   3.109
 6816SOL    HW120900   3.983   3.951   3.192
 6816SOL    HW220901   4.002   3.826   3.108
 6817SOL     OW20902   3.785   5.051   3.148
 6817SOL    HW120903   3.804   4.983   3.212
 6817SOL    HW220904   3.812   5.132   3.191
 6818SOL     OW20905   4.443   4.352   2.913
 6818SOL    HW120906   4.520   4.340   2.858
 6818SOL    HW220907   4.414   4.441   2.896
 6819SOL     OW20908   4.034   3.785   2.487
 6819SOL    HW120909   4.009   3.875   2.507
 6819SOL    HW220910   4.042   3.742   2.572
 6820SOL     OW20911   0.031   4.144   2.212
 6820SOL    HW120912   0.041   4.059   2.256
 6820SOL    HW220913   0.043   4.208   2.281
 6821SOL     OW20914   4.750   4.482   2.817
 6821SOL    HW120915   4.744   4.498   2.911
 6821SOL    HW220916   4.725   4.390   2.807
 6822SOL     OW20917   4.074   4.641   3.672
 6822SOL    HW120918   4.154   4.661   3.720
 6822SOL    HW220919   4.101   4.578   3.605
 6823SOL     OW20920   5.031   4.550   1.899
 6823SOL    HW120921   5.068   4.462   1.904
 6823SOL    HW220922   5.059   4.584   1.814
 6824SOL     OW20923   4.777   5.092   2.664
 6824SOL    HW120924   4.786   5.002   2.634
 6824SOL    HW220925   4.865   5.128   2.658
 6825SOL     OW20926   4.032   4.532   2.808
 6825SOL    HW120927   4.126   4.552   2.801
 6825SOL    HW220928   4.029   4.442   2.839
 6826SOL     OW20929   4.049   4.255   2.875
 6826SOL    HW120930   4.014   4.167   2.862
 6826SOL    HW220931   4.127   4.258   2.818
 6827SOL     OW20932   4.858   4.097   3.547
 6827SOL    HW120933   4.808   4.151   3.609
 6827SOL    HW220934   4.944   4.138   3.543
 6828SOL     OW20935   4.885   3.920   3.334
 6828SOL    HW120936   4.873   3.982   3.406
 6828SOL    HW220937   4.925   3.972   3.265
 6829SOL     OW20938   3.729   5.034   2.055
 6829SOL    HW120939   3.638   5.053   2.035
 6829SOL    HW220940   3.727   4.945   2.091
 6830SOL     OW20941   4.694   4.510   3.083
 6830SOL    HW120942   4.755   4.493   3.155
 6830SOL    HW220943   4.612   4.469   3.110
 6831SOL     OW20944   3.761   4.275   2.979
 6831SOL    HW120945   3.842   4.268   2.928
 6831SOL    HW220946   3.790   4.274   3.070
 6832SOL     OW20947   3.916   4.247   3.594
 6832SOL    HW120948   3.968   4.201   3.529
 6832SOL    HW220949   3.880   4.323   3.549
 6833SOL     OW20950   5.124   4.652   3.527
 6833SOL    HW120951   5.126   4.747   3.515
 6833SOL    HW220952   5.128   4.616   3.439
 6834SOL     OW20953   4.542   4.294   2.229
 6834SOL    HW120954   4.547   4.220   2.169
 6834SOL    HW220955   4.467   4.345   2.198
 6835SOL     OW20956   3.924   5.273   3.609
 6835SOL    HW120957   3.890   0.018   3.686
 6835SOL    HW220958   3.938   5.183   3.638
 6836SOL     OW20959   4.439   4.167   3.113
 6836SOL    HW120960   4.380   4.096   3.088
 6836SOL    HW220961   4.430   4.231   3.042
 6837SOL     OW20962   4.182   4.215   2.041
 6837SOL    HW120963   4.242   4.285   2.066
 6837SOL    HW220964   4.097   4.259   2.033
 6838SOL     OW20965   3.864   4.863   3.335
 6838SOL    HW120966   3.867   4.816   3.419
 6838SOL    HW220967   3.881   4.795   3.269
 6839SOL     OW20968   5.044   4.764   3.089
 6839SOL    HW120969   5.067   4.701   3.021
 6839SOL    HW220970   4.977   4.819   3.049
 6840SOL     OW20971   5.039   4.587   2.179
 6840SOL    HW120972   4.958   4.552   2.217
 6840SOL    HW220973   5.027   4.578   2.085
 6841SOL     OW20974   3.825   4.986   2.887
 6841SOL    HW120975   3.803   5.008   2.977
 6841SOL    HW220976   3.744   4.949   2.850
 6842SOL     OW20977   4.470   0.013   3.585
 6842SOL    HW120978   4.381   0.048   3.576
 6842SOL    HW220979   4.522   0.065   3.523
 6843SOL     OW20980   0.063   3.891   2.404
 6843SOL    HW120981   0.127   3.865   2.338
 6843SOL    HW220982   0.062   3.818   2.466
 6844SOL     OW20983   5.021   4.646   2.529
 6844SOL    HW120984   5.100   4.592   2.521
 6844SOL    HW220985   5.041   4.726   2.481
 6845SOL     OW20986   4.530   4.990   3.259
 6845SOL    HW120987   4.496   5.023   3.343
 6845SOL    HW220988   4.455   4.999   3.199
 6846SOL     OW20989   3.980   4.036   2.576
 6846SOL    HW120990   3.894   4.071   2.553
 6846SOL    HW220991   3.980   4.032   2.671
 6847SOL     OW20992   4.550   4.723   3.233
 6847SOL    HW120993   4.598   4.710   3.151
 6847SOL    HW220994   4.549   4.818   3.245
 6848SOL     OW20995   4.642   4.637   2.154
 6848SOL    HW120996   4.704   4.670   2.089
 6848SOL    HW220997   4.690   4.568   2.200
 6849SOL     OW20998   4.084   5.029   3.362
 6849SOL    HW120999   4.076   5.101   3.299
 6849SOL    HW221000   4.009   4.973   3.344
 6850SOL     OW21001   4.789   4.837   2.582
 6850SOL    HW121002   4.716   4.786   2.617
 6850SOL    HW221003   4.849   4.771   2.547
 6851SOL     OW21004   4.738   3.964   2.831
 6851SOL    HW121005   4.736   3.918   2.747
 6851SOL    HW221006   4.733   3.894   2.896
 6852SOL     OW21007   3.983   5.046   2.155
 6852SOL    HW121008   3.892   5.045   2.125
 6852SOL    HW221009   3.982   5.099   2.234
 6853SOL     OW21010   3.837   4.758   3.589
 6853SOL    HW121011   3.762   4.729   3.639
 6853SOL    HW221012   3.912   4.714   3.629
 6854SOL     OW21013   4.400   3.918   3.362
 6854SOL    HW121014   4.485   3.896   3.322
 6854SOL    HW221015   4.423   3.952   3.449
 6855SOL     OW21016   3.805   4.051   1.893
 6855SOL    HW121017   3.719   4.033   1.855
 6855SOL    HW221018   3.835   4.129   1.846
 6856SOL     OW21019   5.170   4.582   3.263
 6856SOL    HW121020   5.115   4.640   3.210
 6856SOL    HW221021   5.257   4.589   3.224
 6857SOL     OW21022   3.785   3.877   2.162
 6857SOL    HW121023   3.772   3.956   2.109
 6857SOL    HW221024   3.870   3.844   2.135
 6858SOL     OW21025   4.903   5.059   1.985
 6858SOL    HW121026   4.808   5.042   1.986
 6858SOL    HW221027   4.929   5.056   2.077
 6859SOL     OW21028   4.344   4.555   3.298
 6859SOL    HW121029   4.402   4.629   3.282
 6859SOL    HW221030   4.403   4.480   3.304
 6860SOL     OW21031   4.442   4.281   3.561
 6860SOL    HW121032   4.487   4.339   3.622
 6860SOL    HW221033   4.459   4.193   3.594
 6861SOL     OW21034   5.181   4.921   3.495
 6861SOL    HW121035   5.165   4.936   3.588
 6861SOL    HW221036   5.276   4.927   3.485
 6862SOL     OW21037   4.935   4.045   2.313
 6862SOL    HW121038   4.995   3.971   2.303
 6862SOL    HW221039   4.966   4.090   2.392
 6863SOL     OW21040   4.310   4.457   2.536
 6863SOL    HW121041   4.350   4.543   2.522
 6863SOL    HW221042   4.246   4.449   2.465
 6864SOL     OW21043   4.585   5.091   1.885
 6864SOL    HW121044   4.561   5.095   1.978
 6864SOL    HW221045   4.571   5.180   1.853
 6865SOL     OW21046   4.595   4.697   2.716
 6865SOL    HW121047   4.643   4.622   2.753
 6865SOL    HW221048   4.554   4.739   2.791
 6866SOL     OW21049   4.813   4.711   1.958
 6866SOL    HW121050   4.782   4.758   1.880
 6866SOL    HW221051   4.884   4.656   1.926
 6867SOL     OW21052   3.941   5.015   3.711
 6867SOL    HW121053   3.884   4.944   3.680
 6867SOL    HW221054   3.920   5.023   3.804
 6868SOL     OW21055   3.817   4.950   2.530
 6868SOL    HW121056   3.818   4.901   2.612
 6868SOL    HW221057   3.880   4.904   2.474
 6869SOL     OW21058   4.403   5.087   3.469
 6869SOL    HW121059   4.322   5.064   3.515
 6869SOL    HW221060   4.436   5.165   3.515
 6870SOL     OW21061   4.151   4.156   2.387
 6870SOL    HW121062   4.183   4.086   2.330
 6870SOL    HW221063   4.102   4.112   2.455
 6871SOL     OW21064   0.128   5.235   2.908
 6871SOL    HW121065   0.043   5.209   2.871
 6871SOL    HW221066   0.109   5.253   3.000
 6872SOL     OW21067   4.061   4.285   3.155
 6872SOL    HW121068   4.114   4.227   3.210
 6872SOL    HW221069   4.077   4.255   3.066
 6873SOL     OW21070   5.139   3.944   2.978
 6873SOL    HW121071   5.187   3.882   3.033
 6873SOL    HW221072   5.092   3.999   3.040
 6874SOL     OW21073   4.726   3.739   2.997
 6874SOL    HW121074   4.673   3.672   2.953
 6874SOL    HW221075   4.813   3.700   3.003
 6875SOL     OW21076   4.534   5.043   2.148
 6875SOL    HW121077   4.485   4.965   2.174
 6875SOL    HW221078   4.590   5.063   2.224
 6876SOL     OW21079   4.347   0.002   3.164
 6876SOL    HW121080   4.345   0.055   3.244
 6876SOL    HW221081   4.440   5.286   3.148
 6877SOL     OW21082   5.053   3.765   2.027
 6877SOL    HW121083   5.065   3.728   1.939
 6877SOL    HW221084   4.968   3.732   2.056
 6878SOL     OW21085   5.023   4.183   2.537
 6878SOL    HW121086   4.971   4.263   2.541
 6878SOL    HW221087   5.011   4.142   2.623
 6879SOL     OW21088   0.002   3.953   2.751
 6879SOL    HW121089   5.237   3.942   2.821
 6879SOL    HW221090   5.269   4.028   2.701
 6880SOL     OW21091   3.765   4.786   2.172
 6880SOL    HW121092   3.859   4.779   2.155
 6880SOL    HW221093   3.738   4.697   2.193
 6881SOL     OW21094   3.945   4.349   3.855
 6881SOL    HW121095   3.856   4.342   3.890
 6881SOL    HW221096   3.936   4.325   3.762
 6882SOL     OW21097   3.948   4.009   4.717
 6882SOL    HW121098   3.976   3.973   4.801
 6882SOL    HW221099   3.859   3.976   4.706
 6883SOL     OW21100   3.722   4.109   4.363
 6883SOL    HW121101   3.641   4.136   4.406
 6883SOL    HW221102   3.698   4.031   4.312
 6884SOL     OW21103   4.297   5.018   4.915
 6884SOL    HW121104   4.213   5.015   4.869
 6884SOL    HW221105   4.310   5.110   4.935
 6885SOL     OW21106   5.272   5.229   4.408
 6885SOL    HW121107   5.279   5.218   4.503
 6885SOL    HW221108   5.178   5.230   4.391
 6886SOL     OW21109   4.864   4.423   4.418
 6886SOL    HW121110   4.915   4.504   4.408
 6886SOL    HW221111   4.815   4.435   4.499
 6887SOL     OW21112   4.469   4.861   4.767
 6887SOL    HW121113   4.406   4.897   4.831
 6887SOL    HW221114   4.503   4.938   4.722
 6888SOL     OW21115   4.601   4.484   5.550
 6888SOL    HW121116   4.582   4.555   5.612
 6888SOL    HW221117   4.620   4.529   5.468
 6889SOL     OW21118   4.409   4.719   4.368
 6889SOL    HW121119   4.475   4.714   4.437
 6889SOL    HW221120   4.341   4.775   4.404
 6890SOL     OW21121   4.434   4.870   5.546
 6890SOL    HW121122   4.484   4.949   5.569
 6890SOL    HW221123   4.355   4.903   5.504
 6891SOL     OW21124   4.063   5.135   4.780
 6891SOL    HW121125   3.982   5.088   4.758
 6891SOL    HW221126   4.091   5.174   4.698
 6892SOL     OW21127   5.109   5.244   5.063
 6892SOL    HW121128   5.134   0.006   5.132
 6892SOL    HW221129   5.093   5.162   5.110
 6893SOL     OW21130   4.176   4.116   5.201
 6893SOL    HW121131   4.252   4.058   5.210
 6893SOL    HW221132   4.101   4.061   5.221
 6894SOL     OW21133   4.870   5.041   5.429
 6894SOL    HW121134   4.881   5.062   5.522
 6894SOL    HW221135   4.807   4.969   5.428
 6895SOL     OW21136   3.934   5.166   4.251
 6895SOL    HW121137   3.969   5.238   4.303
 6895SOL    HW221138   3.887   5.111   4.314
 6896SOL     OW21139   3.993   4.811   4.616
 6896SOL    HW121140   3.989   4.722   4.652
 6896SOL    HW221141   3.935   4.862   4.673
 6897SOL     OW21142   4.300   4.708   3.866
 6897SOL    HW121143   4.349   4.753   3.797
 6897SOL    HW221144   4.339   4.739   3.947
 6898SOL     OW21145   3.843   4.380   4.285
 6898SOL    HW121146   3.813   4.291   4.307
 6898SOL    HW221147   3.834   4.428   4.367
 6899SOL     OW21148   3.716   0.007   3.815
 6899SOL    HW121149   3.726   5.220   3.852
 6899SOL    HW221150   3.731   0.066   3.889
 6900SOL     OW21151   0.112   4.655   4.294
 6900SOL    HW121152   0.205   4.638   4.281
 6900SOL    HW221153   0.106   4.750   4.306
 6901SOL     OW21154   3.849   4.469   5.308
 6901SOL    HW121155   3.940   4.500   5.310
 6901SOL    HW221156   3.796   4.548   5.310
 6902SOL     OW21157   4.350   5.101   4.469
 6902SOL    HW121158   4.296   5.022   4.461
 6902SOL    HW221159   4.333   5.150   4.389
 6903SOL     OW21160   5.027   4.980   5.140
 6903SOL    HW121161   5.050   4.907   5.083
 6903SOL    HW221162   5.069   4.960   5.223
 6904SOL     OW21163   4.545   3.730   4.240
 6904SOL    HW121164   4.585   3.812   4.214
 6904SOL    HW221165   4.451   3.749   4.244
 6905SOL     OW21166   3.911   4.682   5.002
 6905SOL    HW121167   3.998   4.644   4.988
 6905SOL    HW221168   3.854   4.636   4.940
 6906SOL     OW21169   4.068   3.972   5.557
 6906SOL    HW121170   4.108   4.056   5.577
 6906SOL    HW221171   3.974   3.984   5.575
 6907SOL     OW21172   5.182   5.156   4.671
 6907SOL    HW121173   5.112   5.168   4.736
 6907SOL    HW221174   5.168   5.068   4.637
 6908SOL     OW21175   0.033   0.168   4.281
 6908SOL    HW121176   0.079   0.134   4.204
 6908SOL    HW221177   0.024   0.092   4.339
 6909SOL     OW21178   4.318   4.440   3.996
 6909SOL    HW121179   4.320   4.524   3.950
 6909SOL    HW221180   4.253   4.451   4.065
 6910SOL     OW21181   4.992   4.062   4.638
 6910SOL    HW121182   4.903   4.034   4.661
 6910SOL    HW221183   5.047   4.027   4.709
 6911SOL     OW21184   4.512   4.341   5.169
 6911SOL    HW121185   4.488   4.315   5.258
 6911SOL    HW221186   4.480   4.271   5.113
 6912SOL     OW21187   5.114   4.210   5.407
 6912SOL    HW121188   5.117   4.242   5.497
 6912SOL    HW221189   5.198   4.166   5.394
 6913SOL     OW21190   4.670   4.606   5.311
 6913SOL    HW121191   4.725   4.538   5.272
 6913SOL    HW221192   4.622   4.644   5.237
 6914SOL     OW21193   4.717   4.132   4.955
 6914SOL    HW121194   4.627   4.148   4.982
 6914SOL    HW221195   4.709   4.090   4.869
 6915SOL     OW21196   4.778   4.424   4.148
 6915SOL    HW121197   4.798   4.418   4.241
 6915SOL    HW221198   4.694   4.378   4.138
 6916SOL     OW21199   3.812   4.546   4.502
 6916SOL    HW121200   3.892   4.539   4.554
 6916SOL    HW221201   3.767   4.623   4.537
 6917SOL     OW21202   4.623   4.073   3.919
 6917SOL    HW121203   4.662   4.137   3.858
 6917SOL    HW221204   4.632   3.989   3.874
 6918SOL     OW21205   5.102   4.879   4.279
 6918SOL    HW121206   5.194   4.887   4.253
 6918SOL    HW221207   5.055   4.934   4.215
 6919SOL     OW21208   4.274   3.898   4.623
 6919SOL    HW121209   4.277   3.930   4.713
 6919SOL    HW221210   4.274   3.978   4.569
 6920SOL     OW21211   4.737   5.158   4.204
 6920SOL    HW121212   4.667   5.224   4.208
 6920SOL    HW221213   4.753   5.134   4.295
 6921SOL     OW21214   4.929   5.269   5.304
 6921SOL    HW121215   4.913   5.182   5.338
 6921SOL    HW221216   4.895   5.267   5.214
 6922SOL     OW21217   4.036   4.681   3.978
 6922SOL    HW121218   4.119   4.701   3.935
 6922SOL    HW221219   4.008   4.598   3.939
 6923SOL     OW21220   4.188   4.988   5.467
 6923SOL    HW121221   4.161   4.992   5.375
 6923SOL    HW221222   4.106   4.988   5.516
 6924SOL     OW21223   4.789   0.165   3.932
 6924SOL    HW121224   4.801   0.114   4.013
 6924SOL    HW221225   4.863   0.138   3.877
 6925SOL     OW21226   3.927   3.993   5.228
 6925SOL    HW121227   3.847   4.046   5.233
 6925SOL    HW221228   3.903   3.909   5.267
 6926SOL     OW21229   5.111   3.829   4.147
 6926SOL    HW121230   5.095   3.810   4.054
 6926SOL    HW221231   5.205   3.848   4.152
 6927SOL     OW21232   4.121   4.418   4.197
 6927SOL    HW121233   4.137   4.324   4.210
 6927SOL    HW221234   4.028   4.428   4.213
 6928SOL     OW21235   4.371   3.841   3.826
 6928SOL    HW121236   4.430   3.767   3.844
 6928SOL    HW221237   4.316   3.810   3.753
 6929SOL     OW21238   4.485   4.004   5.481
 6929SOL    HW121239   4.567   3.953   5.477
 6929SOL    HW221240   4.440   3.971   5.558
 6930SOL     OW21241   5.056   4.318   5.156
 6930SOL    HW121242   5.085   4.290   5.243
 6930SOL    HW221243   5.102   4.401   5.142
 6931SOL     OW21244   4.544   5.109   4.666
 6931SOL    HW121245   4.622   5.104   4.611
 6931SOL    HW221246   4.472   5.120   4.604
 6932SOL     OW21247   4.652   4.232   4.623
 6932SOL    HW121248   4.628   4.223   4.531
 6932SOL    HW221249   4.681   4.145   4.649
 6933SOL     OW21250   4.278   3.788   4.219
 6933SOL    HW121251   4.198   3.787   4.272
 6933SOL    HW221252   4.269   3.864   4.163
 6934SOL     OW21253   5.125   4.907   3.767
 6934SOL    HW121254   5.119   4.822   3.812
 6934SOL    HW221255   5.039   4.947   3.782
 6935SOL     OW21256   4.013   3.772   3.910
 6935SOL    HW121257   4.069   3.836   3.867
 6935SOL    HW221258   4.073   3.711   3.952
 6936SOL     OW21259   4.665   3.974   4.178
 6936SOL    HW121260   4.640   4.011   4.093
 6936SOL    HW221261   4.759   3.989   4.184
 6937SOL     OW21262   4.801   4.409   5.180
 6937SOL    HW121263   4.737   4.338   5.181
 6937SOL    HW221264   4.886   4.366   5.172
 6938SOL     OW21265   4.991   5.264   4.483
 6938SOL    HW121266   4.939   0.045   4.478
 6938SOL    HW221267   5.043   5.275   4.563
 6939SOL     OW21268   4.193   4.875   4.444
 6939SOL    HW121269   4.128   4.854   4.511
 6939SOL    HW221270   4.147   4.861   4.361
 6940SOL     OW21271   4.748   4.258   3.750
 6940SOL    HW121272   4.703   4.340   3.731
 6940SOL    HW221273   4.808   4.279   3.821
 6941SOL     OW21274   3.810   4.277   5.117
 6941SOL    HW121275   3.901   4.277   5.090
 6941SOL    HW221276   3.804   4.347   5.183
 6942SOL     OW21277   4.281   3.951   4.896
 6942SOL    HW121278   4.323   3.879   4.943
 6942SOL    HW221279   4.189   3.947   4.923
 6943SOL     OW21280   4.591   4.181   4.361
 6943SOL    HW121281   4.547   4.238   4.297
 6943SOL    HW221282   4.613   4.102   4.311
 6944SOL     OW21283   4.740   3.779   4.471
 6944SOL    HW121284   4.681   3.773   4.395
 6944SOL    HW221285   4.717   3.704   4.525
 6945SOL     OW21286   5.149   4.903   4.573
 6945SOL    HW121287   5.098   4.824   4.591
 6945SOL    HW221288   5.157   4.905   4.477
 6946SOL     OW21289   4.191   5.154   3.864
 6946SOL    HW121290   4.138   5.099   3.922
 6946SOL    HW221291   4.216   5.096   3.792
 6947SOL     OW21292   5.131   4.279   3.812
 6947SOL    HW121293   5.052   4.271   3.866
 6947SOL    HW221294   5.202   4.249   3.868
 6948SOL     OW21295   4.250   3.986   4.034
 6948SOL    HW121296   4.300   3.942   3.965
 6948SOL    HW221297   4.222   4.069   3.994
 6949SOL     OW21298   4.783   5.071   5.049
 6949SOL    HW121299   4.703   5.047   5.096
 6949SOL    HW221300   4.854   5.038   5.104
 6950SOL     OW21301   4.853   4.926   4.831
 6950SOL    HW121302   4.805   4.968   4.902
 6950SOL    HW221303   4.800   4.941   4.753
 6951SOL     OW21304   4.641   3.817   5.116
 6951SOL    HW121305   4.662   3.799   5.024
 6951SOL    HW221306   4.721   3.855   5.152
 6952SOL     OW21307   4.703   4.827   5.459
 6952SOL    HW121308   4.612   4.849   5.479
 6952SOL    HW221309   4.698   4.753   5.399
 6953SOL     OW21310   4.432   4.786   4.095
 6953SOL    HW121311   4.417   4.766   4.187
 6953SOL    HW221312   4.508   4.734   4.070
 6954SOL     OW21313   4.146   4.544   4.976
 6954SOL    HW121314   4.214   4.553   5.043
 6954SOL    HW221315   4.112   4.455   4.989
 6955SOL     OW21316   4.985   4.097   5.007
 6955SOL    HW121317   5.019   4.177   5.046
 6955SOL    HW221318   4.895   4.118   4.983
 6956SOL     OW21319   4.053   4.841   4.210
 6956SOL    HW121320   4.050   4.914   4.148
 6956SOL    HW221321   4.056   4.763   4.155
 6957SOL     OW21322   4.270   4.254   4.583
 6957SOL    HW121323   4.283   4.313   4.509
 6957SOL    HW221324   4.338   4.279   4.646
 6958SOL     OW21325   4.983   5.085   4.112
 6958SOL    HW121326   5.033   5.164   4.133
 6958SOL    HW221327   4.895   5.104   4.142
 6959SOL     OW21328   4.974   5.185   4.843
 6959SOL    HW121329   5.021   5.211   4.922
 6959SOL    HW221330   4.941   5.098   4.863
 6960SOL     OW21331   4.074   5.235   5.032
 6960SOL    HW121332   4.063   5.197   4.945
 6960SOL    HW221333   4.168   5.254   5.038
 6961SOL     OW21334   4.142   4.470   5.328
 6961SOL    HW121335   4.205   4.513   5.271
 6961SOL    HW221336   4.180   4.383   5.345
 6962SOL     OW21337   4.718   3.860   5.480
 6962SOL    HW121338   4.777   3.932   5.458
 6962SOL    HW221339   4.764   3.781   5.452
 6963SOL     OW21340   4.221   3.759   5.475
 6963SOL    HW121341   4.173   3.707   5.411
 6963SOL    HW221342   4.165   3.835   5.491
 6964SOL     OW21343   4.310   4.597   4.756
 6964SOL    HW121344   4.343   4.687   4.757
 6964SOL    HW221345   4.253   4.592   4.833
 6965SOL     OW21346   5.086   4.577   4.757
 6965SOL    HW121347   5.010   4.547   4.707
 6965SOL    HW221348   5.151   4.508   4.746
 6966SOL     OW21349   4.918   4.254   3.981
 6966SOL    HW121350   4.926   4.175   4.035
 6966SOL    HW221351   4.878   4.318   4.040
 6967SOL     OW21352   4.019   3.920   4.971
 6967SOL    HW121353   3.983   3.951   5.054
 6967SOL    HW221354   4.001   3.826   4.971
 6968SOL     OW21355   3.785   5.051   5.010
 6968SOL    HW121356   3.804   4.983   5.074
 6968SOL    HW221357   3.812   5.133   5.053
 6969SOL     OW21358   4.443   4.352   4.776
 6969SOL    HW121359   4.520   4.340   4.720
 6969SOL    HW221360   4.414   4.441   4.758
 6970SOL     OW21361   4.034   3.785   4.349
 6970SOL    HW121362   4.010   3.875   4.369
 6970SOL    HW221363   4.042   3.742   4.434
 6971SOL     OW21364   0.031   4.144   4.074
 6971SOL    HW121365   0.041   4.059   4.118
 6971SOL    HW221366   0.043   4.208   4.144
 6972SOL     OW21367   4.750   4.482   4.678
 6972SOL    HW121368   4.744   4.498   4.772
 6972SOL    HW221369   4.725   4.390   4.669
 6973SOL     OW21370   4.074   4.640   5.534
 6973SOL    HW121371   4.154   4.661   5.582
 6973SOL    HW221372   4.102   4.578   5.467
 6974SOL     OW21373   5.031   4.550   3.761
 6974SOL    HW121374   5.068   4.462   3.766
 6974SOL    HW221375   5.059   4.584   3.676
 6975SOL     OW21376   4.777   5.092   4.526
 6975SOL    HW121377   4.786   5.002   4.497
 6975SOL    HW221378   4.865   5.128   4.520
 6976SOL     OW21379   4.033   4.532   4.670
 6976SOL    HW121380   4.126   4.552   4.663
 6976SOL    HW221381   4.029   4.442   4.701
 6977SOL     OW21382   4.049   4.255   4.737
 6977SOL    HW121383   4.014   4.167   4.724
 6977SOL    HW221384   4.127   4.258   4.680
 6978SOL     OW21385   4.857   4.097   5.410
 6978SOL    HW121386   4.809   4.151   5.471
 6978SOL    HW221387   4.944   4.138   5.405
 6979SOL     OW21388   4.884   3.920   5.196
 6979SOL    HW121389   4.873   3.983   5.268
 6979SOL    HW221390   4.925   3.971   5.127
 6980SOL     OW21391   3.729   5.034   3.917
 6980SOL    HW121392   3.638   5.053   3.897
 6980SOL    HW221393   3.727   4.945   3.953
 6981SOL     OW21394   4.694   4.510   4.945
 6981SOL    HW121395   4.755   4.493   5.017
 6981SOL    HW221396   4.612   4.469   4.972
 6982SOL     OW21397   3.761   4.274   4.841
 6982SOL    HW121398   3.841   4.268   4.790
 6982SOL    HW221399   3.790   4.274   4.932
 6983SOL     OW21400   3.916   4.247   5.456
 6983SOL    HW121401   3.970   4.203   5.391
 6983SOL    HW221402   3.880   4.323   5.411
 6984SOL     OW21403   5.123   4.652   5.389
 6984SOL    HW121404   5.126   4.747   5.377
 6984SOL    HW221405   5.128   4.616   5.301
 6985SOL     OW21406   4.542   4.294   4.091
 6985SOL    HW121407   4.547   4.220   4.031
 6985SOL    HW221408   4.467   4.345   4.060
 6986SOL     OW21409   3.924   5.273   5.471
 6986SOL    HW121410   3.890   0.018   5.548
 6986SOL    HW221411   3.938   5.183   5.500
 6987SOL     OW21412   4.438   4.167   4.975
 6987SOL    HW121413   4.380   4.096   4.950
 6987SOL    HW221414   4.430   4.232   4.904
 6988SOL     OW21415   4.182   4.215   3.904
 6988SOL    HW121416   4.242   4.286   3.928
 6988SOL    HW221417   4.097   4.259   3.895
 6989SOL     OW21418   3.864   4.863   5.197
 6989SOL    HW121419   3.867   4.816   5.281
 6989SOL    HW221420   3.881   4.795   5.132
 6990SOL     OW21421   5.044   4.764   4.951
 6990SOL    HW121422   5.067   4.701   4.883
 6990SOL    HW221423   4.977   4.819   4.911
 6991SOL     OW21424   5.039   4.588   4.041
 6991SOL    HW121425   4.958   4.552   4.079
 6991SOL    HW221426   5.027   4.578   3.947
 6992SOL     OW21427   3.825   4.985   4.749
 6992SOL    HW121428   3.803   5.008   4.839
 6992SOL    HW221429   3.744   4.949   4.712
 6993SOL     OW21430   4.470   0.013   5.447
 6993SOL    HW121431   4.381   0.048   5.438
 6993SOL    HW221432   4.522   0.065   5.385
 6994SOL     OW21433   0.063   3.891   4.266
 6994SOL    HW121434   0.127   3.865   4.199
 6994SOL    HW221435   0.062   3.818   4.328
 6995SOL     OW21436   5.021   4.646   4.391
 6995SOL    HW121437   5.100   4.592   4.383
 6995SOL    HW221438   5.041   4.726   4.343
 6996SOL     OW21439   4.530   4.990   5.122
 6996SOL    HW121440   4.496   5.023   5.205
 6996SOL    HW221441   4.455   4.999   5.062
 6997SOL     OW21442   3.980   4.036   4.438
 6997SOL    HW121443   3.894   4.071   4.415
 6997SOL    HW221444   3.980   4.032   4.533
 6998SOL     OW21445   4.551   4.723   5.095
 6998SOL    HW121446   4.598   4.710   5.013
 6998SOL    HW221447   4.549   4.818   5.107
 6999SOL     OW21448   4.642   4.637   4.016
 6999SOL    HW121449   4.704   4.670   3.951
 6999SOL    HW221450   4.690   4.568   4.061
 7000SOL     OW21451   4.084   5.029   5.224
 7000SOL    HW121452   4.076   5.101   5.161
 7000SOL    HW221453   4.009   4.973   5.206
 7001SOL     OW21454   4.789   4.837   4.444
 7001SOL    HW121455   4.716   4.786   4.479
 7001SOL    HW221456   4.849   4.771   4.408
 7002SOL     OW21457   4.737   3.964   4.693
 7002SOL    HW121458   4.736   3.918   4.609
 7002SOL    HW221459   4.733   3.894   4.758
 7003SOL     OW21460   3.983   5.046   4.017
 7003SOL    HW121461   3.892   5.046   3.987
 7003SOL    HW221462   3.982   5.099   4.096
 7004SOL     OW21463   3.838   4.758   5.451
 7004SOL    HW121464   3.762   4.729   5.501
 7004SOL    HW221465   3.912   4.714   5.492
 7005SOL     OW21466   4.400   3.918   5.224
 7005SOL    HW121467   4.485   3.896   5.184
 7005SOL    HW221468   4.423   3.952   5.311
 7006SOL     OW21469   3.805   4.051   3.755
 7006SOL    HW121470   3.719   4.032   3.716
 7006SOL    HW221471   3.835   4.129   3.708
 7007SOL     OW21472   5.170   4.582   5.125
 7007SOL    HW121473   5.115   4.640   5.072
 7007SOL    HW221474   5.257   4.589   5.086
 7008SOL     OW21475   3.785   3.878   4.023
 7008SOL    HW121476   3.772   3.956   3.970
 7008SOL    HW221477   3.870   3.844   3.997
 7009SOL     OW21478   4.903   5.059   3.847
 7009SOL    HW121479   4.809   5.042   3.848
 7009SOL    HW221480   4.929   5.056   3.939
 7010SOL     OW21481   4.344   4.555   5.160
 7010SOL    HW121482   4.402   4.629   5.144
 7010SOL    HW221483   4.403   4.480   5.166
 7011SOL     OW21484   4.442   4.282   5.423
 7011SOL    HW121485   4.487   4.340   5.484
 7011SOL    HW221486   4.459   4.194   5.456
 7012SOL     OW21487   5.181   4.921   5.357
 7012SOL    HW121488   5.165   4.936   5.450
 7012SOL    HW221489   5.276   4.928   5.347
 7013SOL     OW21490   4.935   4.045   4.175
 7013SOL    HW121491   4.995   3.971   4.165
 7013SOL    HW221492   4.966   4.090   4.254
 7014SOL     OW21493   4.310   4.457   4.398
 7014SOL    HW121494   4.350   4.543   4.384
 7014SOL    HW221495   4.246   4.449   4.327
 7015SOL     OW21496   4.585   5.091   3.747
 7015SOL    HW121497   4.561   5.095   3.840
 7015SOL    HW221498   4.571   5.180   3.716
 7016SOL     OW21499   4.595   4.697   4.578
 7016SOL    HW121500   4.643   4.622   4.615
 7016SOL    HW221501   4.554   4.739   4.653
 7017SOL     OW21502   4.813   4.712   3.820
 7017SOL    HW121503   4.782   4.758   3.742
 7017SOL    HW221504   4.884   4.656   3.788
 7018SOL     OW21505   3.941   5.015   5.573
 7018SOL    HW121506   3.884   4.945   5.542
 7018SOL    HW221507   3.921   5.023   5.666
 7019SOL     OW21508   3.817   4.950   4.392
 7019SOL    HW121509   3.818   4.901   4.474
 7019SOL    HW221510   3.880   4.904   4.336
 7020SOL     OW21511   4.403   5.087   5.331
 7020SOL    HW121512   4.322   5.064   5.377
 7020SOL    HW221513   4.435   5.165   5.377
 7021SOL     OW21514   4.152   4.156   4.249
 7021SOL    HW121515   4.183   4.086   4.192
 7021SOL    HW221516   4.102   4.111   4.317
 7022SOL     OW21517   0.128   5.235   4.770
 7022SOL    HW121518   0.043   5.209   4.733
 7022SOL    HW221519   0.109   5.253   4.862
 7023SOL     OW21520   4.061   4.285   5.017
 7023SOL    HW121521   4.114   4.227   5.071
 7023SOL    HW221522   4.077   4.256   4.927
 7024SOL     OW21523   5.139   3.944   4.840
 7024SOL    HW121524   5.187   3.882   4.895
 7024SOL    HW221525   5.092   3.999   4.902
 7025SOL     OW21526   4.726   3.738   4.859
 7025SOL    HW121527   4.674   3.672   4.814
 7025SOL    HW221528   4.813   3.700   4.865
 7026SOL     OW21529   4.534   5.043   4.010
 7026SOL    HW121530   4.485   4.965   4.036
 7026SOL    HW221531   4.590   5.063   4.086
 7027SOL     OW21532   4.347   0.002   5.026
 7027SOL    HW121533   4.345   0.055   5.106
 7027SOL    HW221534   4.440   5.286   5.010
 7028SOL     OW21535   5.053   3.765   3.889
 7028SOL    HW121536   5.065   3.728   3.801
 7028SOL    HW221537   4.968   3.732   3.918
 7029SOL     OW21538   5.023   4.183   4.399
 7029SOL    HW121539   4.971   4.263   4.403
 7029SOL    HW221540   5.011   4.142   4.485
 7030SOL     OW21541   0.002   3.953   4.613
 7030SOL    HW121542   5.237   3.942   4.683
 7030SOL    HW221543   5.269   4.028   4.563
 7031SOL     OW21544   3.766   4.786   4.034
 7031SOL    HW121545   3.859   4.779   4.017
 7031SOL    HW221546   3.738   4.697   4.055
 7032SOL     OW21547   3.945   4.348   5.717
 7032SOL    HW121548   3.856   4.343   5.752
 7032SOL    HW221549   3.936   4.325   5.624
 7033SOL     OW21550   3.948   4.009   6.579
 7033SOL    HW121551   3.976   3.973   6.663
 7033SOL    HW221552   3.859   3.976   6.568
 7034SOL     OW21553   3.722   4.109   6.225
 7034SOL    HW121554   3.641   4.136   6.268
 7034SOL    HW221555   3.697   4.032   6.174
 7035SOL     OW21556   4.297   5.018   6.777
 7035SOL    HW121557   4.213   5.015   6.731
 7035SOL    HW221558   4.311   5.110   6.796
 7036SOL     OW21559   5.272   5.229   6.270
 7036SOL    HW121560   5.279   5.218   6.365
 7036SOL    HW221561   5.178   5.230   6.253
 7037SOL     OW21562   4.864   4.423   6.280
 7037SOL    HW121563   4.915   4.504   6.270
 7037SOL    HW221564   4.815   4.435   6.361
 7038SOL     OW21565   4.469   4.861   6.630
 7038SOL    HW121566   4.406   4.897   6.693
 7038SOL    HW221567   4.503   4.938   6.585
 7039SOL     OW21568   4.598   4.484   7.406
 7039SOL    HW121569   4.574   4.556   7.465
 7039SOL    HW221570   4.621   4.527   7.323
 7040SOL     OW21571   4.409   4.719   6.230
 7040SOL    HW121572   4.475   4.714   6.299
 7040SOL    HW221573   4.341   4.775   6.266
 7041SOL     OW21574   4.435   4.872   7.406
 7041SOL    HW121575   4.485   4.950   7.429
 7041SOL    HW221576   4.355   4.905   7.364
 7042SOL     OW21577   4.063   5.135   6.643
 7042SOL    HW121578   3.982   5.088   6.620
 7042SOL    HW221579   4.091   5.175   6.561
 7043SOL     OW21580   5.110   5.243   6.925
 7043SOL    HW121581   5.134   0.005   6.993
 7043SOL    HW221582   5.093   5.161   6.971
 7044SOL     OW21583   4.175   4.116   7.063
 7044SOL    HW121584   4.251   4.058   7.073
 7044SOL    HW221585   4.100   4.060   7.083
 7045SOL     OW21586   4.871   5.039   7.290
 7045SOL    HW121587   4.882   5.062   7.382
 7045SOL    HW221588   4.808   4.967   7.291
 7046SOL     OW21589   3.934   5.166   6.113
 7046SOL    HW121590   3.969   5.238   6.165
 7046SOL    HW221591   3.887   5.111   6.176
 7047SOL     OW21592   3.993   4.811   6.478
 7047SOL    HW121593   3.989   4.722   6.514
 7047SOL    HW221594   3.936   4.862   6.535
 7048SOL     OW21595   4.300   4.708   5.727
 7048SOL    HW121596   4.349   4.753   5.659
 7048SOL    HW221597   4.339   4.739   5.809
 7049SOL     OW21598   3.843   4.380   6.147
 7049SOL    HW121599   3.813   4.291   6.169
 7049SOL    HW221600   3.834   4.428   6.229
 7050SOL     OW21601   3.716   0.007   5.677
 7050SOL    HW121602   3.726   5.219   5.714
 7050SOL    HW221603   3.731   0.066   5.751
 7051SOL     OW21604   0.113   4.655   6.157
 7051SOL    HW121605   0.206   4.638   6.143
 7051SOL    HW221606   0.106   4.749   6.168
 7052SOL     OW21607   3.849   4.468   7.171
 7052SOL    HW121608   3.939   4.500   7.172
 7052SOL    HW221609   3.795   4.547   7.171
 7053SOL     OW21610   4.350   5.101   6.331
 7053SOL    HW121611   4.296   5.022   6.323
 7053SOL    HW221612   4.333   5.150   6.251
 7054SOL     OW21613   5.027   4.980   7.002
 7054SOL    HW121614   5.049   4.907   6.944
 7054SOL    HW221615   5.069   4.960   7.085
 7055SOL     OW21616   4.544   3.730   6.101
 7055SOL    HW121617   4.585   3.812   6.076
 7055SOL    HW221618   4.451   3.749   6.105
 7056SOL     OW21619   3.911   4.682   6.865
 7056SOL    HW121620   3.997   4.644   6.850
 7056SOL    HW221621   3.854   4.637   6.802
 7057SOL     OW21622   4.066   3.970   7.420
 7057SOL    HW121623   4.106   4.055   7.436
 7057SOL    HW221624   3.973   3.983   7.437
 7058SOL     OW21625   5.182   5.156   6.533
 7058SOL    HW121626   5.112   5.168   6.598
 7058SOL    HW221627   5.168   5.068   6.499
 7059SOL     OW21628   0.033   0.168   6.143
 7059SOL    HW121629   0.079   0.134   6.066
 7059SOL    HW221630   0.024   0.092   6.201
 7060SOL     OW21631   4.318   4.440   5.857
 7060SOL    HW121632   4.320   4.524   5.812
 7060SOL    HW221633   4.253   4.451   5.926
 7061SOL     OW21634   4.992   4.062   6.500
 7061SOL    HW121635   4.903   4.034   6.523
 7061SOL    HW221636   5.047   4.028   6.571
 7062SOL     OW21637   4.512   4.341   7.032
 7062SOL    HW121638   4.487   4.314   7.120
 7062SOL    HW221639   4.480   4.271   6.976
 7063SOL     OW21640   5.115   4.212   7.270
 7063SOL    HW121641   5.118   4.242   7.361
 7063SOL    HW221642   5.198   4.166   7.257
 7064SOL     OW21643   4.672   4.608   7.171
 7064SOL    HW121644   4.726   4.539   7.132
 7064SOL    HW221645   4.624   4.645   7.097
 7065SOL     OW21646   4.717   4.132   6.816
 7065SOL    HW121647   4.627   4.148   6.844
 7065SOL    HW221648   4.709   4.090   6.731
 7066SOL     OW21649   4.778   4.424   6.010
 7066SOL    HW121650   4.798   4.418   6.103
 7066SOL    HW221651   4.694   4.378   6.000
 7067SOL     OW21652   3.812   4.546   6.364
 7067SOL    HW121653   3.892   4.539   6.415
 7067SOL    HW221654   3.767   4.623   6.399
 7068SOL     OW21655   4.623   4.073   5.781
 7068SOL    HW121656   4.662   4.137   5.720
 7068SOL    HW221657   4.634   3.989   5.737
 7069SOL     OW21658   5.102   4.879   6.140
 7069SOL    HW121659   5.194   4.887   6.115
 7069SOL    HW221660   5.055   4.934   6.077
 7070SOL     OW21661   4.275   3.898   6.485
 7070SOL    HW121662   4.277   3.930   6.575
 7070SOL    HW221663   4.274   3.978   6.432
 7071SOL     OW21664   4.737   5.158   6.066
 7071SOL    HW121665   4.667   5.224   6.070
 7071SOL    HW221666   4.753   5.134   6.157
 7072SOL     OW21667   4.932   5.269   7.166
 7072SOL    HW121668   4.914   5.181   7.199
 7072SOL    HW221669   4.895   5.270   7.078
 7073SOL     OW21670   4.036   4.681   5.840
 7073SOL    HW121671   4.119   4.701   5.797
 7073SOL    HW221672   4.008   4.598   5.801
 7074SOL     OW21673   4.186   4.988   7.331
 7074SOL    HW121674   4.157   4.993   7.240
 7074SOL    HW221675   4.105   4.987   7.382
 7075SOL     OW21676   4.789   0.165   5.794
 7075SOL    HW121677   4.801   0.115   5.875
 7075SOL    HW221678   4.863   0.138   5.739
 7076SOL     OW21679   3.926   3.992   7.090
 7076SOL    HW121680   3.846   4.043   7.094
 7076SOL    HW221681   3.903   3.907   7.128
 7077SOL     OW21682   5.111   3.829   6.009
 7077SOL    HW121683   5.095   3.810   5.916
 7077SOL    HW221684   5.205   3.848   6.014
 7078SOL     OW21685   4.121   4.418   6.059
 7078SOL    HW121686   4.137   4.324   6.073
 7078SOL    HW221687   4.028   4.429   6.075
 7079SOL     OW21688   4.370   3.841   5.688
 7079SOL    HW121689   4.430   3.768   5.705
 7079SOL    HW221690   4.316   3.810   5.615
 7080SOL     OW21691   4.485   4.003   7.345
 7080SOL    HW121692   4.566   3.953   7.341
 7080SOL    HW221693   4.442   3.974   7.425
 7081SOL     OW21694   5.056   4.319   7.019
 7081SOL    HW121695   5.086   4.290   7.105
 7081SOL    HW221696   5.102   4.401   7.004
 7082SOL     OW21697   4.544   5.109   6.528
 7082SOL    HW121698   4.622   5.104   6.473
 7082SOL    HW221699   4.472   5.120   6.466
 7083SOL     OW21700   4.652   4.232   6.485
 7083SOL    HW121701   4.628   4.223   6.393
 7083SOL    HW221702   4.681   4.145   6.511
 7084SOL     OW21703   4.277   3.787   6.081
 7084SOL    HW121704   4.197   3.787   6.134
 7084SOL    HW221705   4.268   3.864   6.025
 7085SOL     OW21706   5.125   4.907   5.629
 7085SOL    HW121707   5.119   4.822   5.674
 7085SOL    HW221708   5.039   4.947   5.644
 7086SOL     OW21709   4.013   3.772   5.772
 7086SOL    HW121710   4.069   3.836   5.730
 7086SOL    HW221711   4.073   3.711   5.814
 7087SOL     OW21712   4.665   3.974   6.040
 7087SOL    HW121713   4.640   4.011   5.955
 7087SOL    HW221714   4.759   3.989   6.046
 7088SOL     OW21715   4.801   4.409   7.042
 7088SOL    HW121716   4.737   4.337   7.044
 7088SOL    HW221717   4.886   4.366   7.034
 7089SOL     OW21718   4.991   5.264   6.345
 7089SOL    HW121719   4.939   0.045   6.339
 7089SOL    HW221720   5.043   5.275   6.424
 7090SOL     OW21721   4.193   4.875   6.306
 7090SOL    HW121722   4.128   4.854   6.373
 7090SOL    HW221723   4.147   4.861   6.223
 7091SOL     OW21724   4.747   4.258   5.612
 7091SOL    HW121725   4.703   4.340   5.593
 7091SOL    HW221726   4.808   4.279   5.683
 7092SOL     OW21727   3.810   4.277   6.979
 7092SOL    HW121728   3.902   4.278   6.952
 7092SOL    HW221729   3.804   4.347   7.044
 7093SOL     OW21730   4.281   3.951   6.758
 7093SOL    HW121731   4.323   3.879   6.805
 7093SOL    HW221732   4.190   3.947   6.785
 7094SOL     OW21733   4.591   4.181   6.223
 7094SOL    HW121734   4.547   4.238   6.159
 7094SOL    HW221735   4.613   4.102   6.173
 7095SOL     OW21736   4.740   3.779   6.333
 7095SOL    HW121737   4.682   3.773   6.257
 7095SOL    HW221738   4.717   3.704   6.387
 7096SOL     OW21739   5.149   4.903   6.435
 7096SOL    HW121740   5.098   4.824   6.452
 7096SOL    HW221741   5.158   4.905   6.339
 7097SOL     OW21742   4.192   5.154   5.727
 7097SOL    HW121743   4.138   5.099   5.784
 7097SOL    HW221744   4.216   5.096   5.654
 7098SOL     OW21745   5.131   4.279   5.674
 7098SOL    HW121746   5.053   4.271   5.728
 7098SOL    HW221747   5.202   4.248   5.730
 7099SOL     OW21748   4.249   3.986   5.896
 7099SOL    HW121749   4.300   3.942   5.828
 7099SOL    HW221750   4.222   4.069   5.856
 7100SOL     OW21751   4.783   5.071   6.910
 7100SOL    HW121752   4.703   5.048   6.958
 7100SOL    HW221753   4.854   5.039   6.966
 7101SOL     OW21754   4.853   4.925   6.693
 7101SOL    HW121755   4.805   4.968   6.764
 7101SOL    HW221756   4.800   4.941   6.615
 7102SOL     OW21757   4.641   3.817   6.978
 7102SOL    HW121758   4.662   3.799   6.887
 7102SOL    HW221759   4.721   3.855   7.014
 7103SOL     OW21760   4.706   4.824   7.327
 7103SOL    HW121761   4.614   4.848   7.343
 7103SOL    HW221762   4.701   4.751   7.265
 7104SOL     OW21763   4.431   4.786   5.957
 7104SOL    HW121764   4.417   4.766   6.050
 7104SOL    HW221765   4.508   4.734   5.932
 7105SOL     OW21766   4.146   4.544   6.838
 7105SOL    HW121767   4.214   4.553   6.905
 7105SOL    HW221768   4.112   4.455   6.851
 7106SOL     OW21769   4.985   4.097   6.869
 7106SOL    HW121770   5.019   4.178   6.908
 7106SOL    HW221771   4.895   4.119   6.845
 7107SOL     OW21772   4.053   4.841   6.072
 7107SOL    HW121773   4.050   4.914   6.011
 7107SOL    HW221774   4.056   4.763   6.017
 7108SOL     OW21775   4.270   4.254   6.445
 7108SOL    HW121776   4.284   4.313   6.371
 7108SOL    HW221777   4.337   4.279   6.508
 7109SOL     OW21778   4.983   5.085   5.974
 7109SOL    HW121779   5.033   5.164   5.995
 7109SOL    HW221780   4.895   5.104   6.004
 7110SOL     OW21781   4.974   5.185   6.705
 7110SOL    HW121782   5.022   5.211   6.784
 7110SOL    HW221783   4.941   5.098   6.724
 7111SOL     OW21784   4.075   5.235   6.894
 7111SOL    HW121785   4.063   5.197   6.807
 7111SOL    HW221786   4.168   5.254   6.900
 7112SOL     OW21787   4.142   4.470   7.190
 7112SOL    HW121788   4.205   4.513   7.133
 7112SOL    HW221789   4.179   4.383   7.206
 7113SOL     OW21790   4.718   3.861   7.340
 7113SOL    HW121791   4.778   3.932   7.319
 7113SOL    HW221792   4.764   3.782   7.313
 7114SOL     OW21793   4.222   3.758   7.338
 7114SOL    HW121794   4.174   3.706   7.273
 7114SOL    HW221795   4.167   3.835   7.353
 7115SOL     OW21796   4.310   4.597   6.618
 7115SOL    HW121797   4.343   4.687   6.619
 7115SOL    HW221798   4.253   4.592   6.695
 7116SOL     OW21799   5.086   4.577   6.619
 7116SOL    HW121800   5.010   4.547   6.569
 7116SOL    HW221801   5.152   4.508   6.608
 7117SOL     OW21802   4.918   4.254   5.843
 7117SOL    HW121803   4.926   4.175   5.897
 7117SOL    HW221804   4.878   4.318   5.902
 7118SOL     OW21805   4.019   3.920   6.833
 7118SOL    HW121806   3.983   3.951   6.916
 7118SOL    HW221807   4.002   3.826   6.833
 7119SOL     OW21808   3.786   5.051   6.872
 7119SOL    HW121809   3.804   4.982   6.936
 7119SOL    HW221810   3.810   5.132   6.916
 7120SOL     OW21811   4.443   4.352   6.638
 7120SOL    HW121812   4.520   4.340   6.582
 7120SOL    HW221813   4.414   4.441   6.620
 7121SOL     OW21814   4.034   3.784   6.211
 7121SOL    HW121815   4.009   3.875   6.231
 7121SOL    HW221816   4.042   3.742   6.296
 7122SOL     OW21817   0.031   4.144   5.936
 7122SOL    HW121818   0.041   4.059   5.980
 7122SOL    HW221819   0.043   4.208   6.006
 7123SOL     OW21820   4.750   4.482   6.540
 7123SOL    HW121821   4.744   4.498   6.634
 7123SOL    HW221822   4.725   4.390   6.531
 7124SOL     OW21823   4.075   4.639   7.396
 7124SOL    HW121824   4.157   4.661   7.441
 7124SOL    HW221825   4.100   4.576   7.328
 7125SOL     OW21826   5.031   4.550   5.623
 7125SOL    HW121827   5.068   4.462   5.628
 7125SOL    HW221828   5.059   4.584   5.538
 7126SOL     OW21829   4.777   5.092   6.389
 7126SOL    HW121830   4.786   5.002   6.359
 7126SOL    HW221831   4.865   5.128   6.382
 7127SOL     OW21832   4.032   4.532   6.532
 7127SOL    HW121833   4.126   4.552   6.525
 7127SOL    HW221834   4.029   4.442   6.563
 7128SOL     OW21835   4.049   4.255   6.599
 7128SOL    HW121836   4.014   4.167   6.587
 7128SOL    HW221837   4.127   4.258   6.542
 7129SOL     OW21838   4.859   4.097   7.270
 7129SOL    HW121839   4.809   4.151   7.332
 7129SOL    HW221840   4.945   4.138   7.266
 7130SOL     OW21841   4.884   3.920   7.057
 7130SOL    HW121842   4.873   3.982   7.129
 7130SOL    HW221843   4.925   3.972   6.988
 7131SOL     OW21844   3.729   5.033   5.779
 7131SOL    HW121845   3.638   5.053   5.759
 7131SOL    HW221846   3.727   4.945   5.815
 7132SOL     OW21847   4.694   4.510   6.807
 7132SOL    HW121848   4.754   4.493   6.879
 7132SOL    HW221849   4.612   4.468   6.834
 7133SOL     OW21850   3.761   4.274   6.703
 7133SOL    HW121851   3.842   4.268   6.652
 7133SOL    HW221852   3.790   4.274   6.794
 7134SOL     OW21853   3.916   4.246   7.318
 7134SOL    HW121854   3.967   4.200   7.251
 7134SOL    HW221855   3.881   4.322   7.273
 7135SOL     OW21856   5.123   4.653   7.253
 7135SOL    HW121857   5.125   4.748   7.239
 7135SOL    HW221858   5.126   4.616   7.165
 7136SOL     OW21859   4.542   4.294   5.953
 7136SOL    HW121860   4.547   4.220   5.893
 7136SOL    HW221861   4.467   4.345   5.922
 7137SOL     OW21862   3.920   5.270   7.331
 7137SOL    HW121863   3.866   0.006   7.402
 7137SOL    HW221864   3.941   5.181   7.360
 7138SOL     OW21865   4.438   4.168   6.837
 7138SOL    HW121866   4.380   4.096   6.812
 7138SOL    HW221867   4.430   4.232   6.766
 7139SOL     OW21868   4.182   4.215   5.765
 7139SOL    HW121869   4.242   4.285   5.790
 7139SOL    HW221870   4.097   4.258   5.757
 7140SOL     OW21871   3.864   4.862   7.059
 7140SOL    HW121872   3.867   4.816   7.143
 7140SOL    HW221873   3.881   4.795   6.994
 7141SOL     OW21874   5.044   4.764   6.813
 7141SOL    HW121875   5.067   4.701   6.745
 7141SOL    HW221876   4.977   4.819   6.773
 7142SOL     OW21877   5.039   4.588   5.903
 7142SOL    HW121878   4.958   4.552   5.941
 7142SOL    HW221879   5.027   4.578   5.809
 7143SOL     OW21880   3.825   4.986   6.610
 7143SOL    HW121881   3.804   5.008   6.701
 7143SOL    HW221882   3.744   4.950   6.575
 7144SOL     OW21883   4.469   0.011   7.317
 7144SOL    HW121884   4.382   0.048   7.303
 7144SOL    HW221885   4.527   0.065   7.264
 7145SOL     OW21886   0.063   3.891   6.128
 7145SOL    HW121887   0.127   3.865   6.062
 7145SOL    HW221888   0.062   3.819   6.190
 7146SOL     OW21889   5.021   4.646   6.253
 7146SOL    HW121890   5.100   4.592   6.245
 7146SOL    HW221891   5.041   4.726   6.205
 7147SOL     OW21892   4.529   4.990   6.984
 7147SOL    HW121893   4.496   5.023   7.068
 7147SOL    HW221894   4.456   4.999   6.924
 7148SOL     OW21895   3.980   4.035   6.300
 7148SOL    HW121896   3.894   4.071   6.277
 7148SOL    HW221897   3.980   4.032   6.395
 7149SOL     OW21898   4.550   4.723   6.957
 7149SOL    HW121899   4.597   4.710   6.875
 7149SOL    HW221900   4.549   4.818   6.969
 7150SOL     OW21901   4.642   4.637   5.878
 7150SOL    HW121902   4.704   4.670   5.813
 7150SOL    HW221903   4.690   4.568   5.924
 7151SOL     OW21904   4.083   5.030   7.088
 7151SOL    HW121905   4.076   5.101   7.024
 7151SOL    HW221906   4.008   4.974   7.068
 7152SOL     OW21907   4.789   4.837   6.306
 7152SOL    HW121908   4.716   4.786   6.341
 7152SOL    HW221909   4.849   4.771   6.271
 7153SOL     OW21910   4.737   3.964   6.555
 7153SOL    HW121911   4.736   3.918   6.471
 7153SOL    HW221912   4.733   3.894   6.620
 7154SOL     OW21913   3.983   5.046   5.879
 7154SOL    HW121914   3.892   5.045   5.849
 7154SOL    HW221915   3.982   5.099   5.958
 7155SOL     OW21916   3.839   4.761   7.315
 7155SOL    HW121917   3.762   4.731   7.363
 7155SOL    HW221918   3.912   4.714   7.355
 7156SOL     OW21919   4.400   3.918   7.087
 7156SOL    HW121920   4.485   3.896   7.047
 7156SOL    HW221921   4.422   3.950   7.174
 7157SOL     OW21922   3.805   4.051   5.616
 7157SOL    HW121923   3.719   4.033   5.578
 7157SOL    HW221924   3.835   4.129   5.570
 7158SOL     OW21925   5.170   4.583   6.988
 7158SOL    HW121926   5.115   4.641   6.935
 7158SOL    HW221927   5.257   4.589   6.948
 7159SOL     OW21928   3.784   3.877   5.886
 7159SOL    HW121929   3.772   3.956   5.833
 7159SOL    HW221930   3.870   3.844   5.859
 7160SOL     OW21931   4.903   5.059   5.709
 7160SOL    HW121932   4.808   5.042   5.710
 7160SOL    HW221933   4.929   5.056   5.801
 7161SOL     OW21934   4.344   4.555   7.022
 7161SOL    HW121935   4.402   4.629   7.006
 7161SOL    HW221936   4.403   4.480   7.028
 7162SOL     OW21937   4.441   4.280   7.285
 7162SOL    HW121938   4.486   4.338   7.346
 7162SOL    HW221939   4.458   4.192   7.318
 7163SOL     OW21940   5.181   4.920   7.218
 7163SOL    HW121941   5.165   4.938   7.311
 7163SOL    HW221942   5.275   4.928   7.208
 7164SOL     OW21943   4.935   4.045   6.037
 7164SOL    HW121944   4.995   3.971   6.027
 7164SOL    HW221945   4.966   4.090   6.116
 7165SOL     OW21946   4.310   4.457   6.260
 7165SOL    HW121947   4.350   4.543   6.246
 7165SOL    HW221948   4.246   4.449   6.189
 7166SOL     OW21949   4.585   5.091   5.609
 7166SOL    HW121950   4.561   5.095   5.702
 7166SOL    HW221951   4.571   5.180   5.577
 7167SOL     OW21952   4.595   4.697   6.440
 7167SOL    HW121953   4.643   4.622   6.477
 7167SOL    HW221954   4.554   4.739   6.515
 7168SOL     OW21955   4.813   4.711   5.682
 7168SOL    HW121956   4.782   4.758   5.604
 7168SOL    HW221957   4.884   4.656   5.650
 7169SOL     OW21958   3.936   5.011   7.436
 7169SOL    HW121959   3.888   4.938   7.397
 7169SOL    HW221960   3.893   5.026   7.520
 7170SOL     OW21961   3.817   4.950   6.254
 7170SOL    HW121962   3.818   4.901   6.336
 7170SOL    HW221963   3.880   4.905   6.198
 7171SOL     OW21964   4.401   5.088   7.193
 7171SOL    HW121965   4.320   5.065   7.238
 7171SOL    HW221966   4.433   5.165   7.239
 7172SOL     OW21967   4.151   4.156   6.111
 7172SOL    HW121968   4.183   4.086   6.054
 7172SOL    HW221969   4.102   4.112   6.179
 7173SOL     OW21970   0.128   5.235   6.632
 7173SOL    HW121971   0.043   5.209   6.595
 7173SOL    HW221972   0.109   5.253   6.724
 7174SOL     OW21973   4.061   4.285   6.879
 7174SOL    HW121974   4.114   4.227   6.934
 7174SOL    HW221975   4.077   4.255   6.790
 7175SOL     OW21976   5.139   3.944   6.702
 7175SOL    HW121977   5.187   3.882   6.757
 7175SOL    HW221978   5.092   3.999   6.764
 7176SOL     OW21979   4.726   3.739   6.721
 7176SOL    HW121980   4.674   3.672   6.677
 7176SOL    HW221981   4.813   3.700   6.727
 7177SOL     OW21982   4.534   5.043   5.872
 7177SOL    HW121983   4.485   4.965   5.898
 7177SOL    HW221984   4.590   5.063   5.948
 7178SOL     OW21985   4.347   0.002   6.889
 7178SOL    HW121986   4.345   0.054   6.969
 7178SOL    HW221987   4.440   5.287   6.872
 7179SOL     OW21988   5.053   3.766   5.751
 7179SOL    HW121989   5.065   3.728   5.664
 7179SOL    HW221990   4.968   3.732   5.780
 7180SOL     OW21991   5.023   4.183   6.261
 7180SOL    HW121992   4.971   4.263   6.265
 7180SOL    HW221993   5.011   4.142   6.347
 7181SOL     OW21994   0.002   3.953   6.475
 7181SOL    HW121995   5.237   3.942   6.545
 7181SOL    HW221996   5.269   4.028   6.425
 7182SOL     OW21997   3.765   4.786   5.896
 7182SOL    HW121998   3.859   4.779   5.879
 7182SOL    HW221999   3.738   4.697   5.917
 7183SOL     OW22000   3.946   4.345   7.578
 7183SOL    HW122001   3.856   4.350   7.611
 7183SOL    HW222002   3.936   4.323   7.485
 7184SOL     OW22003   4.005   0.121   7.958
 7184SOL    HW122004   3.980   0.207   7.993
 7184SOL    HW222005   4.010   0.134   7.863
 7185SOL     OW22006   3.935   5.158   7.998
 7185SOL    HW122007   3.957   5.252   8.000
 7185SOL    HW222008   3.883   5.144   8.077
 7186SOL     OW22009   4.303   4.708   7.585
 7186SOL    HW122010   4.349   4.755   7.515
 7186SOL    HW222011   4.342   4.741   7.665
 7187SOL     OW22012   3.730   0.005   7.530
 7187SOL    HW122013   3.729   5.218   7.570
 7187SOL    HW222014   3.728   0.066   7.603
 7188SOL     OW22015   0.111   4.653   8.007
 7188SOL    HW122016   0.206   4.651   8.021
 7188SOL    HW222017   0.090   4.747   8.006
 7189SOL     OW22018   4.526   3.723   7.940
 7189SOL    HW122019   4.575   3.802   7.917
 7189SOL    HW222020   4.435   3.753   7.945
 7190SOL     OW22021   4.314   4.446   7.709
 7190SOL    HW122022   4.311   4.531   7.664
 7190SOL    HW222023   4.256   4.457   7.785
 7191SOL     OW22024   3.778   4.588   0.082
 7191SOL    HW122025   3.841   4.518   0.102
 7191SOL    HW222026   3.793   4.654   0.150
 7192SOL     OW22027   4.620   4.076   7.645
 7192SOL    HW122028   4.654   4.134   7.576
 7192SOL    HW222029   4.643   3.988   7.616
 7193SOL     OW22030   4.043   4.679   7.700
 7193SOL    HW122031   4.122   4.696   7.649
 7193SOL    HW222032   4.004   4.603   7.658
 7194SOL     OW22033   4.796   0.179   7.645
 7194SOL    HW122034   4.784   0.151   7.736
 7194SOL    HW222035   4.878   0.137   7.618
 7195SOL     OW22036   5.131   3.855   7.844
 7195SOL    HW122037   5.094   3.829   7.760
 7195SOL    HW222038   5.226   3.857   7.829
 7196SOL     OW22039   4.120   4.426   7.916
 7196SOL    HW122040   4.109   4.333   7.931
 7196SOL    HW222041   4.031   4.461   7.914
 7197SOL     OW22042   4.365   3.839   7.557
 7197SOL    HW122043   4.428   3.769   7.574
 7197SOL    HW222044   4.315   3.808   7.481
 7198SOL     OW22045   4.258   3.804   7.961
 7198SOL    HW122046   4.173   3.811   8.005
 7198SOL    HW222047   4.256   3.873   7.895
 7199SOL     OW22048   5.125   4.913   7.491
 7199SOL    HW122049   5.121   4.828   7.534
 7199SOL    HW222050   5.039   4.952   7.509
 7200SOL     OW22051   4.014   3.773   7.634
 7200SOL    HW122052   4.069   3.834   7.586
 7200SOL    HW222053   4.075   3.712   7.675
 7201SOL     OW22054   4.666   3.951   7.899
 7201SOL    HW122055   4.629   4.011   7.834
 7201SOL    HW222056   4.757   3.980   7.909
 7202SOL     OW22057   4.152   4.863   0.099
 7202SOL    HW122058   4.088   4.921   0.139
 7202SOL    HW222059   4.128   4.859   0.007
 7203SOL     OW22060   4.748   4.258   7.471
 7203SOL    HW122061   4.700   4.339   7.455
 7203SOL    HW222062   4.800   4.276   7.549
 7204SOL     OW22063   4.179   5.159   7.595
 7204SOL    HW122064   4.128   5.103   7.654
 7204SOL    HW222065   4.207   5.100   7.525
 7205SOL     OW22066   5.131   4.277   7.539
 7205SOL    HW122067   5.050   4.269   7.590
 7205SOL    HW222068   5.200   4.244   7.597
 7206SOL     OW22069   4.249   3.989   7.765
 7206SOL    HW122070   4.298   3.943   7.697
 7206SOL    HW222071   4.222   4.071   7.724
 7207SOL     OW22072   4.441   4.789   7.810
 7207SOL    HW122073   4.407   4.769   7.897
 7207SOL    HW222074   4.518   4.734   7.801
 7208SOL     OW22075   4.088   4.839   7.920
 7208SOL    HW122076   4.060   4.916   7.871
 7208SOL    HW222077   4.075   4.766   7.858
 7209SOL     OW22078   4.952   5.097   7.840
 7209SOL    HW122079   5.037   5.120   7.879
 7209SOL    HW222080   4.903   5.055   7.910
 7210SOL     OW22081   0.042   4.385   7.932
 7210SOL    HW122082   5.278   4.365   8.000
 7210SOL    HW222083   0.045   4.481   7.930
 7211SOL     OW22084   4.915   4.253   7.707
 7211SOL    HW122085   4.919   4.171   7.756
 7211SOL    HW222086   4.884   4.318   7.769
 7212SOL     OW22087   0.018   4.155   7.787
 7212SOL    HW122088   0.017   4.085   7.853
 7212SOL    HW222089   0.029   4.235   7.837
 7213SOL     OW22090   5.044   4.556   7.495
 7213SOL    HW122091   5.072   4.464   7.495
 7213SOL    HW222092   5.067   4.588   7.408
 7214SOL     OW22093   3.738   5.039   7.639
 7214SOL    HW122094   3.647   5.054   7.614
 7214SOL    HW222095   3.739   4.951   7.675
 7215SOL     OW22096   4.579   4.351   7.740
 7215SOL    HW122097   4.577   4.256   7.729
 7215SOL    HW222098   4.487   4.376   7.746
 7216SOL     OW22099   4.179   4.217   7.638
 7216SOL    HW122100   4.240   4.289   7.654
 7216SOL    HW222101   4.095   4.259   7.622
 7217SOL     OW22102   5.026   4.579   7.781
 7217SOL    HW122103   4.935   4.608   7.787
 7217SOL    HW222104   5.042   4.569   7.688
 7218SOL     OW22105   0.206   3.858   7.991
 7218SOL    HW122106   0.162   3.858   7.906
 7218SOL    HW222107   0.143   3.816   8.050
 7219SOL     OW22108   4.653   4.624   7.763
 7219SOL    HW122109   4.704   4.646   7.685
 7219SOL    HW222110   4.636   4.530   7.755
 7220SOL     OW22111   3.986   5.048   7.761
 7220SOL    HW122112   3.898   5.053   7.724
 7220SOL    HW222113   3.978   5.092   7.846
 7221SOL     OW22114   3.803   4.050   7.479
 7221SOL    HW122115   3.719   4.031   7.437
 7221SOL    HW222116   3.835   4.129   7.435
 7222SOL     OW22117   3.786   3.879   7.748
 7222SOL    HW122118   3.771   3.953   7.688
 7222SOL    HW222119   3.871   3.843   7.720
 7223SOL     OW22120   4.898   5.060   7.573
 7223SOL    HW122121   4.803   5.047   7.565
 7223SOL    HW222122   4.913   5.069   7.667
 7224SOL     OW22123   4.933   4.046   7.898
 7224SOL    HW122124   5.006   3.985   7.887
 7224SOL    HW222125   4.948   4.085   7.984
 7225SOL     OW22126   4.364   4.467   8.042
 7225SOL    HW122127   4.361   4.539   0.024
 7225SOL    HW222128   4.275   4.459   8.009
 7226SOL     OW22129   4.591   5.090   7.471
 7226SOL    HW122130   4.566   5.094   7.564
 7226SOL    HW222131   4.571   5.178   7.437
 7227SOL     OW22132   4.806   4.692   7.549
 7227SOL    HW122133   4.777   4.747   7.475
 7227SOL    HW222134   4.883   4.646   7.516
 7228SOL     OW22135   4.106   4.158   7.988
 7228SOL    HW122136   4.160   4.107   7.928
 7228SOL    HW222137   4.157   4.161   8.069
 7229SOL     OW22138   4.531   5.056   7.733
 7229SOL    HW122139   4.494   4.973   7.762
 7229SOL    HW222140   4.530   5.111   7.812
 7230SOL     OW22141   5.054   3.767   7.602
 7230SOL    HW122142   5.068   3.721   7.519
 7230SOL    HW222143   4.971   3.731   7.635
 7231SOL     OW22144   3.779   4.795   7.750
 7231SOL    HW122145   3.874   4.791   7.741
 7231SOL    HW222146   3.752   4.704   7.763
   5.30000   5.30000   8.08000
